                         Program Version 4.2.1 -  RELEASE  -
|  1> ! wB97X-D3 SP def2-SVP
|  2> %pal
|  3> nprocs 24
|  4> end
|  5>
|  6> * xyz 0 1
|  7> S 	 -141.36 	 24.7189 	 -21.6481
|  8> C 	 -142.209 	 23.2091 	 -21.3913
|  9> C 	 -143.199 	 23.265 	 -20.4058
| 10> C 	 -143.213 	 24.5486 	 -19.7812
| 11> C 	 -142.283 	 25.4305 	 -20.3813
| 12> H 	 -143.761 	 24.9291 	 -19.007
| 13> C 	 -144.235 	 22.1464 	 -20.1533
| 14> H 	 -143.819 	 21.3666 	 -20.8846
| 15> H 	 -145.202 	 22.5825 	 -20.451
| 16> C 	 -144.327 	 21.5204 	 -18.6925
| 17> H 	 -143.298 	 21.3614 	 -18.4108
| 18> H 	 -144.654 	 22.2593 	 -17.9926
| 19> C 	 -145.125 	 20.2038 	 -18.5261
| 20> H 	 -146.115 	 20.2488 	 -18.9373
| 21> H 	 -144.569 	 19.258 	 -18.792
| 22> H 	 -145.181 	 20.0991 	 -17.4809
| 23> S 	 -141.832 	 28.0582 	 -21.3398
| 24> C 	 -141.847 	 29.3397 	 -20.2122
| 25> C 	 -141.984 	 28.9406 	 -18.9071
| 26> C 	 -142.248 	 27.5437 	 -18.7814
| 27> C 	 -142.076 	 26.8797 	 -20.0164
| 28> H 	 -142.027 	 29.6248 	 -18.0611
| 29> C 	 -142.464 	 26.8262 	 -17.4738
| 30> H 	 -141.858 	 25.9568 	 -17.4547
| 31> H 	 -143.493 	 26.4877 	 -17.52
| 32> C 	 -142.272 	 27.5865 	 -16.1172
| 33> H 	 -143.041 	 28.3113 	 -16.1608
| 34> H 	 -141.288 	 27.9734 	 -15.9437
| 35> C 	 -142.429 	 26.6774 	 -14.923
| 36> H 	 -141.853 	 25.6674 	 -15.0096
| 37> H 	 -143.47 	 26.4789 	 -14.8052
| 38> H 	 -142.158 	 27.2687 	 -14.0302
| 39> H 	 -142.04 	 22.2687 	 -21.921
| 40> H 	 -141.67 	 30.3041 	 -20.5793
| 41> *
| 42>
| 43>                          ****END OF INPUT****

CARTESIAN COORDINATES (ANGSTROEM)
---------------------------------
  S    -141.360000   24.718900  -21.648100
  C    -142.209000   23.209100  -21.391300
  C    -143.199000   23.265000  -20.405800
  C    -143.213000   24.548600  -19.781200
  C    -142.283000   25.430500  -20.381300
  H    -143.761000   24.929100  -19.007000
  C    -144.235000   22.146400  -20.153300
  H    -143.819000   21.366600  -20.884600
  H    -145.202000   22.582500  -20.451000
  C    -144.327000   21.520400  -18.692500
  H    -143.298000   21.361400  -18.410800
  H    -144.654000   22.259300  -17.992600
  C    -145.125000   20.203800  -18.526100
  H    -146.115000   20.248800  -18.937300
  H    -144.569000   19.258000  -18.792000
  H    -145.181000   20.099100  -17.480900
  S    -141.832000   28.058200  -21.339800
  C    -141.847000   29.339700  -20.212200
  C    -141.984000   28.940600  -18.907100
  C    -142.248000   27.543700  -18.781400
  C    -142.076000   26.879700  -20.016400
  H    -142.027000   29.624800  -18.061100
  C    -142.464000   26.826200  -17.473800
  H    -141.858000   25.956800  -17.454700
  H    -143.493000   26.487700  -17.520000
  C    -142.272000   27.586500  -16.117200
  H    -143.041000   28.311300  -16.160800
  H    -141.288000   27.973400  -15.943700
  C    -142.429000   26.677400  -14.923000
  H    -141.853000   25.667400  -15.009600
  H    -143.470000   26.478900  -14.805200
  H    -142.158000   27.268700  -14.030200
  H    -142.040000   22.268700  -21.921000
  H    -141.670000   30.304100  -20.579300

 Total Charge           Charge          ....    0
 Multiplicity           Mult            ....    1
 Number of Electrons    NEL             ....  134
 Basis Dimension        Dim             ....  322

ORBITAL ENERGIES
----------------

  NO   OCC          E(Eh)            E(eV)
   0   2.0000     -88.970733     -2421.0167
   1   2.0000     -88.964691     -2420.8523
   2   2.0000     -10.331252      -281.1277
   3   2.0000     -10.329693      -281.0852
   4   2.0000     -10.312629      -280.6209
   5   2.0000     -10.310257      -280.5563
   6   2.0000     -10.304532      -280.4006
   7   2.0000     -10.304126      -280.3895
   8   2.0000     -10.303785      -280.3802
   9   2.0000     -10.292932      -280.0849
  10   2.0000     -10.289922      -280.0030
  11   2.0000     -10.289779      -279.9991
  12   2.0000     -10.288549      -279.9656
  13   2.0000     -10.284886      -279.8660
  14   2.0000     -10.284647      -279.8595
  15   2.0000     -10.280611      -279.7496
  16   2.0000      -8.085525      -220.0183
  17   2.0000      -8.079785      -219.8621
  18   2.0000      -6.043901      -164.4629
  19   2.0000      -6.040095      -164.3593
  20   2.0000      -6.038179      -164.3072
  21   2.0000      -6.036371      -164.2580
  22   2.0000      -6.034242      -164.2001
  23   2.0000      -6.030686      -164.1033
  24   2.0000      -1.002484       -27.2790
  25   2.0000      -0.982777       -26.7427
  26   2.0000      -0.914140       -24.8750
  27   2.0000      -0.900999       -24.5174
  28   2.0000      -0.863788       -23.5049
  29   2.0000      -0.859287       -23.3824
  30   2.0000      -0.846323       -23.0296
  31   2.0000      -0.811704       -22.0876
  32   2.0000      -0.784705       -21.3529
  33   2.0000      -0.770079       -20.9549
  34   2.0000      -0.707402       -19.2494
  35   2.0000      -0.701883       -19.0992
  36   2.0000      -0.689512       -18.7626
  37   2.0000      -0.652360       -17.7516
  38   2.0000      -0.640421       -17.4267
  39   2.0000      -0.616293       -16.7702
  40   2.0000      -0.599956       -16.3256
  41   2.0000      -0.584850       -15.9146
  42   2.0000      -0.569430       -15.4950
  43   2.0000      -0.551628       -15.0106
  44   2.0000      -0.530623       -14.4390
  45   2.0000      -0.526669       -14.3314
  46   2.0000      -0.513820       -13.9818
  47   2.0000      -0.509754       -13.8711
  48   2.0000      -0.500682       -13.6243
  49   2.0000      -0.488085       -13.2815
  50   2.0000      -0.484782       -13.1916
  51   2.0000      -0.481694       -13.1076
  52   2.0000      -0.476326       -12.9615
  53   2.0000      -0.468921       -12.7600
  54   2.0000      -0.460850       -12.5404
  55   2.0000      -0.458475       -12.4757
  56   2.0000      -0.448211       -12.1964
  57   2.0000      -0.436139       -11.8679
  58   2.0000      -0.432641       -11.7728
  59   2.0000      -0.425142       -11.5687
  60   2.0000      -0.422426       -11.4948
  61   2.0000      -0.419485       -11.4148
  62   2.0000      -0.415880       -11.3167
  63   2.0000      -0.348007        -9.4697
  64   2.0000      -0.333438        -9.0733
  65   2.0000      -0.331875        -9.0308
  66   2.0000      -0.281065        -7.6482
  67   0.0000       0.028214         0.7677
  68   0.0000       0.076459         2.0805
  69   0.0000       0.110583         3.0091
  70   0.0000       0.124014         3.3746
  71   0.0000       0.130957         3.5635

MULLIKEN ATOMIC CHARGES
-----------------------
   0 S :    0.126002
   1 C :   -0.127265
   2 C :   -0.084266
   3 C :    0.057581
   4 C :   -0.154757
   5 H :   -0.048439
   6 C :    0.046047
   7 H :    0.028407
   8 H :    0.050411
   9 C :   -0.083372
  10 H :    0.023685
  11 H :    0.026155
  12 C :   -0.026798
  13 H :    0.038032
  14 H :    0.041403
  15 H :    0.018877
  16 S :    0.098571
  17 C :   -0.063539
  18 C :   -0.023422
  19 C :   -0.052724
  20 C :   -0.141744
  21 H :    0.020427
  22 C :    0.020453
  23 H :    0.030596
  24 H :    0.040307
  25 C :   -0.057206
  26 H :    0.026638
  27 H :    0.034790
  28 C :   -0.058189
  29 H :    0.053830
  30 H :    0.017450
  31 H :    0.038336
  32 H :    0.045957
  33 H :    0.037763
Sum of atomic charges:    0.0000000

LOEWDIN ATOMIC CHARGES
----------------------
   0 S :    0.422357
   1 C :   -0.211965
   2 C :   -0.060219
   3 C :   -0.059439
   4 C :   -0.193427
   5 H :    0.011010
   6 C :   -0.032326
   7 H :    0.037742
   8 H :    0.034100
   9 C :   -0.041298
  10 H :    0.025093
  11 H :    0.019320
  12 C :   -0.064058
  13 H :    0.024122
  14 H :    0.034921
  15 H :    0.023679
  16 S :    0.405140
  17 C :   -0.184331
  18 C :   -0.074155
  19 C :   -0.053567
  20 C :   -0.193209
  21 H :    0.032984
  22 C :   -0.031028
  23 H :    0.027229
  24 H :    0.031944
  25 C :   -0.036998
  26 H :    0.019868
  27 H :    0.023871
  28 C :   -0.066648
  29 H :    0.038801
  30 H :    0.016584
  31 H :    0.030785
  32 H :    0.027488
  33 H :    0.015633

  Mayer bond orders larger than 0.100000
B(  0-S ,  1-C ) :   1.1349 B(  0-S ,  4-C ) :   1.1730 B(  1-C ,  2-C ) :   1.6190
B(  1-C , 32-H ) :   0.9575 B(  2-C ,  3-C ) :   1.2296 B(  2-C ,  6-C ) :   1.0140
B(  3-C ,  4-C ) :   1.5530 B(  3-C ,  5-H ) :   1.0089 B(  4-C , 20-C ) :   1.0279
B(  6-C ,  7-H ) :   0.9436 B(  6-C ,  8-H ) :   0.9417 B(  6-C ,  9-C ) :   1.0493
B(  9-C , 10-H ) :   0.9561 B(  9-C , 11-H ) :   0.9593 B(  9-C , 12-C ) :   1.0864
B( 12-C , 13-H ) :   0.9761 B( 12-C , 14-H ) :   0.9748 B( 12-C , 15-H ) :   0.9713
B( 16-S , 17-C ) :   1.1773 B( 16-S , 20-C ) :   1.1409 B( 17-C , 18-C ) :   1.5699
B( 17-C , 33-H ) :   0.9720 B( 18-C , 19-C ) :   1.2742 B( 18-C , 21-H ) :   0.9868
B( 19-C , 20-C ) :   1.5885 B( 19-C , 22-C ) :   1.0238 B( 22-C , 23-H ) :   0.9422
B( 22-C , 24-H ) :   0.9199 B( 22-C , 25-C ) :   1.0781 B( 25-C , 26-H ) :   0.9469
B( 25-C , 27-H ) :   0.9587 B( 25-C , 28-C ) :   1.0908 B( 28-C , 29-H ) :   0.9714
B( 28-C , 30-H ) :   0.9735 B( 28-C , 31-H ) :   0.9730

Dispersion correction           -0.013190060
FINAL SINGLE POINT ENERGY     -1339.865949319533

DIPOLE MOMENT
-------------
                                X             Y             Z
Electronic contribution:     12.26113      15.82781     -26.15640
Nuclear contribution   :    -12.60237     -15.96234      26.85331
                        -----------------------------------------
Total Dipole Moment    :     -0.34124      -0.13453       0.69690
                        -----------------------------------------
Magnitude (a.u.)       :      0.78754
Magnitude (Debye)      :      2.00177

Rotational constants in cm-1:     0.016182     0.008507     0.005895
Rotational constants in MHz :   485.112590   255.031619   176.723284

                             ****ORCA TERMINATED NORMALLY****
TOTAL RUN TIME: 0 days 0 hours 0 minutes 20 seconds 811 msec
