                         Program Version 4.2.1 -  RELEASE  -
|  1> ! wB97X-D3 SP def2-SVP
|  2> %pal
|  3> nprocs 24
|  4> end
|  5>
|  6> * xyz 0 1
|  7> S 	 -43.3071 	 -2.41816 	 -22.6478
|  8> C 	 -42.842 	 -1.20721 	 -21.432
|  9> C 	 -41.6374 	 -1.64449 	 -20.7904
| 10> C 	 -41.282 	 -2.95331 	 -21.1979
| 11> C 	 -42.07 	 -3.57358 	 -22.1267
| 12> H 	 -40.3858 	 -3.47047 	 -20.905
| 13> C 	 -40.7734 	 -0.747762 	 -19.8856
| 14> H 	 -39.7501 	 -0.977263 	 -20.1548
| 15> H 	 -40.7829 	 -1.23112 	 -18.8751
| 16> C 	 -41.0493 	 0.783565 	 -19.7075
| 17> H 	 -40.1397 	 1.32229 	 -19.3573
| 18> H 	 -41.2041 	 1.1878 	 -20.7113
| 19> C 	 -42.2215 	 1.16318 	 -18.74
| 20> H 	 -43.2021 	 0.594564 	 -18.8123
| 21> H 	 -41.828 	 1.0486 	 -17.7167
| 22> H 	 -42.4624 	 2.23905 	 -18.9692
| 23> S 	 -42.8301 	 -6.12664 	 -21.8456
| 24> C 	 -42.2915 	 -7.35246 	 -22.9838
| 25> C 	 -41.5541 	 -6.78632 	 -23.9862
| 26> C 	 -41.2963 	 -5.38987 	 -23.834
| 27> C 	 -41.9642 	 -4.93126 	 -22.7034
| 28> H 	 -41.1817 	 -7.41653 	 -24.7817
| 29> C 	 -40.3514 	 -4.6797 	 -24.7746
| 30> H 	 -39.6526 	 -4.15782 	 -24.0825
| 31> H 	 -40.9217 	 -3.85177 	 -25.1876
| 32> C 	 -39.6258 	 -5.45905 	 -25.9486
| 33> H 	 -38.9748 	 -6.14918 	 -25.4383
| 34> H 	 -38.9823 	 -4.86673 	 -26.5832
| 35> C 	 -40.6779 	 -6.20857 	 -26.8998
| 36> H 	 -41.7028 	 -6.06896 	 -26.7029
| 37> H 	 -40.5776 	 -7.30096 	 -26.8862
| 38> H 	 -40.6548 	 -5.80055 	 -27.9617
| 39> H 	 -43.291 	 -0.305447 	 -21.2342
| 40> H 	 -42.4516 	 -8.39185 	 -23.0703
| 41> *
| 42>
| 43>                          ****END OF INPUT****

CARTESIAN COORDINATES (ANGSTROEM)
---------------------------------
  S    -43.307100   -2.418160  -22.647800
  C    -42.842000   -1.207210  -21.432000
  C    -41.637400   -1.644490  -20.790400
  C    -41.282000   -2.953310  -21.197900
  C    -42.070000   -3.573580  -22.126700
  H    -40.385800   -3.470470  -20.905000
  C    -40.773400   -0.747762  -19.885600
  H    -39.750100   -0.977263  -20.154800
  H    -40.782900   -1.231120  -18.875100
  C    -41.049300    0.783565  -19.707500
  H    -40.139700    1.322290  -19.357300
  H    -41.204100    1.187800  -20.711300
  C    -42.221500    1.163180  -18.740000
  H    -43.202100    0.594564  -18.812300
  H    -41.828000    1.048600  -17.716700
  H    -42.462400    2.239050  -18.969200
  S    -42.830100   -6.126640  -21.845600
  C    -42.291500   -7.352460  -22.983800
  C    -41.554100   -6.786320  -23.986200
  C    -41.296300   -5.389870  -23.834000
  C    -41.964200   -4.931260  -22.703400
  H    -41.181700   -7.416530  -24.781700
  C    -40.351400   -4.679700  -24.774600
  H    -39.652600   -4.157820  -24.082500
  H    -40.921700   -3.851770  -25.187600
  C    -39.625800   -5.459050  -25.948600
  H    -38.974800   -6.149180  -25.438300
  H    -38.982300   -4.866730  -26.583200
  C    -40.677900   -6.208570  -26.899800
  H    -41.702800   -6.068960  -26.702900
  H    -40.577600   -7.300960  -26.886200
  H    -40.654800   -5.800550  -27.961700
  H    -43.291000   -0.305447  -21.234200
  H    -42.451600   -8.391850  -23.070300

 Total Charge           Charge          ....    0
 Multiplicity           Mult            ....    1
 Number of Electrons    NEL             ....  134
 Basis Dimension        Dim             ....  322

ORBITAL ENERGIES
----------------

  NO   OCC          E(Eh)            E(eV)
   0   2.0000     -88.967836     -2420.9379
   1   2.0000     -88.962453     -2420.7914
   2   2.0000     -10.327968      -281.0383
   3   2.0000     -10.323371      -280.9132
   4   2.0000     -10.313787      -280.6524
   5   2.0000     -10.309448      -280.5343
   6   2.0000     -10.307151      -280.4718
   7   2.0000     -10.304730      -280.4060
   8   2.0000     -10.300719      -280.2968
   9   2.0000     -10.299296      -280.2581
  10   2.0000     -10.298991      -280.2498
  11   2.0000     -10.297395      -280.2064
  12   2.0000     -10.292932      -280.0849
  13   2.0000     -10.290342      -280.0144
  14   2.0000     -10.285858      -279.8924
  15   2.0000     -10.285706      -279.8883
  16   2.0000      -8.082787      -219.9438
  17   2.0000      -8.076191      -219.7643
  18   2.0000      -6.041419      -164.3954
  19   2.0000      -6.037153      -164.2793
  20   2.0000      -6.034731      -164.2134
  21   2.0000      -6.033512      -164.1802
  22   2.0000      -6.030788      -164.1061
  23   2.0000      -6.027016      -164.0034
  24   2.0000      -1.005982       -27.3742
  25   2.0000      -0.979534       -26.6545
  26   2.0000      -0.902813       -24.5668
  27   2.0000      -0.900242       -24.4968
  28   2.0000      -0.864436       -23.5225
  29   2.0000      -0.844177       -22.9712
  30   2.0000      -0.843411       -22.9504
  31   2.0000      -0.815860       -22.2007
  32   2.0000      -0.783409       -21.3176
  33   2.0000      -0.771882       -21.0040
  34   2.0000      -0.714459       -19.4414
  35   2.0000      -0.704926       -19.1820
  36   2.0000      -0.697241       -18.9729
  37   2.0000      -0.658694       -17.9240
  38   2.0000      -0.642459       -17.4822
  39   2.0000      -0.610356       -16.6086
  40   2.0000      -0.589941       -16.0531
  41   2.0000      -0.572933       -15.5903
  42   2.0000      -0.551050       -14.9948
  43   2.0000      -0.540158       -14.6984
  44   2.0000      -0.536486       -14.5985
  45   2.0000      -0.530154       -14.4262
  46   2.0000      -0.518808       -14.1175
  47   2.0000      -0.513635       -13.9767
  48   2.0000      -0.501679       -13.6514
  49   2.0000      -0.496432       -13.5086
  50   2.0000      -0.489202       -13.3119
  51   2.0000      -0.480886       -13.0856
  52   2.0000      -0.467875       -12.7315
  53   2.0000      -0.465317       -12.6619
  54   2.0000      -0.460309       -12.5257
  55   2.0000      -0.444493       -12.0953
  56   2.0000      -0.438878       -11.9425
  57   2.0000      -0.435956       -11.8630
  58   2.0000      -0.432714       -11.7747
  59   2.0000      -0.430201       -11.7064
  60   2.0000      -0.426756       -11.6126
  61   2.0000      -0.415352       -11.3023
  62   2.0000      -0.412287       -11.2189
  63   2.0000      -0.335922        -9.1409
  64   2.0000      -0.328359        -8.9351
  65   2.0000      -0.312288        -8.4978
  66   2.0000      -0.308431        -8.3928
  67   0.0000       0.048115         1.3093
  68   0.0000       0.051158         1.3921
  69   0.0000       0.114586         3.1181
  70   0.0000       0.124029         3.3750
  71   0.0000       0.132221         3.5979

MULLIKEN ATOMIC CHARGES
-----------------------
   0 S :    0.104850
   1 C :   -0.096496
   2 C :   -0.088834
   3 C :    0.049983
   4 C :   -0.174714
   5 H :    0.003009
   6 C :    0.056549
   7 H :    0.022412
   8 H :    0.031453
   9 C :   -0.076271
  10 H :    0.040766
  11 H :    0.032834
  12 C :   -0.102880
  13 H :    0.055906
  14 H :    0.045979
  15 H :    0.047682
  16 S :    0.142113
  17 C :   -0.049013
  18 C :   -0.075418
  19 C :   -0.001460
  20 C :   -0.217923
  21 H :    0.005384
  22 C :    0.069253
  23 H :    0.037570
  24 H :    0.032810
  25 C :   -0.033028
  26 H :    0.034968
  27 H :    0.039968
  28 C :   -0.106976
  29 H :    0.035066
  30 H :    0.046532
  31 H :    0.042680
  32 H :    0.017150
  33 H :    0.028097
Sum of atomic charges:    0.0000000

LOEWDIN ATOMIC CHARGES
----------------------
   0 S :    0.387547
   1 C :   -0.183208
   2 C :   -0.056600
   3 C :   -0.066274
   4 C :   -0.196227
   5 H :    0.029737
   6 C :   -0.041234
   7 H :    0.031417
   8 H :    0.036928
   9 C :   -0.046756
  10 H :    0.035295
  11 H :    0.021637
  12 C :   -0.078247
  13 H :    0.032154
  14 H :    0.028613
  15 H :    0.033920
  16 S :    0.438019
  17 C :   -0.186570
  18 C :   -0.073117
  19 C :   -0.049595
  20 C :   -0.224458
  21 H :    0.030226
  22 C :   -0.036986
  23 H :    0.040131
  24 H :    0.033613
  25 C :   -0.030316
  26 H :    0.023515
  27 H :    0.029932
  28 C :   -0.079781
  29 H :    0.020288
  30 H :    0.026473
  31 H :    0.035978
  32 H :    0.008740
  33 H :    0.025207

  Mayer bond orders larger than 0.100000
B(  0-S ,  1-C ) :   1.1459 B(  0-S ,  4-C ) :   1.1422 B(  1-C ,  2-C ) :   1.5816
B(  1-C ,  4-C ) :   0.1076 B(  1-C , 32-H ) :   0.9760 B(  2-C ,  3-C ) :   1.2573
B(  2-C ,  6-C ) :   1.0083 B(  3-C ,  4-C ) :   1.6021 B(  3-C ,  5-H ) :   0.9929
B(  4-C , 20-C ) :   0.9946 B(  6-C ,  7-H ) :   0.9423 B(  6-C ,  8-H ) :   0.9339
B(  6-C ,  9-C ) :   1.0610 B(  9-C , 10-H ) :   0.9551 B(  9-C , 11-H ) :   0.9608
B(  9-C , 12-C ) :   1.0584 B( 12-C , 13-H ) :   0.9789 B( 12-C , 14-H ) :   0.9761
B( 12-C , 15-H ) :   0.9753 B( 16-S , 17-C ) :   1.1416 B( 16-S , 20-C ) :   1.1722
B( 17-C , 18-C ) :   1.6365 B( 17-C , 33-H ) :   0.9628 B( 18-C , 19-C ) :   1.2490
B( 18-C , 21-H ) :   0.9759 B( 19-C , 20-C ) :   1.5940 B( 19-C , 22-C ) :   1.0193
B( 22-C , 23-H ) :   0.9315 B( 22-C , 24-H ) :   0.9245 B( 22-C , 25-C ) :   1.0658
B( 25-C , 26-H ) :   0.9637 B( 25-C , 27-H ) :   0.9645 B( 25-C , 28-C ) :   1.0341
B( 28-C , 29-H ) :   0.9840 B( 28-C , 30-H ) :   0.9763 B( 28-C , 31-H ) :   0.9749

Dispersion correction           -0.014097064
FINAL SINGLE POINT ENERGY     -1339.857895279592

DIPOLE MOMENT
-------------
                                X             Y             Z
Electronic contribution:    -12.82337     -11.38898       3.09193
Nuclear contribution   :     13.45663      11.54776      -3.21312
                        -----------------------------------------
Total Dipole Moment    :      0.63327       0.15877      -0.12119
                        -----------------------------------------
Magnitude (a.u.)       :      0.66402
Magnitude (Debye)      :      1.68781

Rotational constants in cm-1:     0.026606     0.006429     0.005820
Rotational constants in MHz :   797.628260   192.725804   174.479154

                             ****ORCA TERMINATED NORMALLY****
TOTAL RUN TIME: 0 days 0 hours 0 minutes 20 seconds 687 msec
