                         Program Version 4.2.1 -  RELEASE  -
|  1> ! wB97X-D3 SP def2-SVP
|  2> %pal
|  3> nprocs 24
|  4> end
|  5>
|  6> * xyz 0 1
|  7> S 	 -137.025 	 7.87367 	 9.53014
|  8> C 	 -136.387 	 6.9718 	 8.12845
|  9> C 	 -135.337 	 6.11234 	 8.47512
| 10> C 	 -134.927 	 6.26051 	 9.85871
| 11> C 	 -135.666 	 7.2085 	 10.4959
| 12> H 	 -134.119 	 5.82188 	 10.3406
| 13> C 	 -134.617 	 5.1095 	 7.58442
| 14> H 	 -134.979 	 5.23982 	 6.53936
| 15> H 	 -134.972 	 4.10803 	 7.92152
| 16> C 	 -133.093 	 5.34444 	 7.63805
| 17> H 	 -132.87 	 6.482 	 7.69749
| 18> H 	 -132.888 	 4.82979 	 8.56609
| 19> C 	 -132.246 	 4.79634 	 6.51858
| 20> H 	 -132.534 	 5.18832 	 5.4926
| 21> H 	 -131.17 	 4.97947 	 6.73366
| 22> H 	 -132.424 	 3.70473 	 6.45161
| 23> S 	 -136.178 	 6.29854 	 13.0907
| 24> C 	 -135.665 	 7.22724 	 14.4339
| 25> C 	 -135 	 8.33774 	 14.0366
| 26> C 	 -134.892 	 8.52091 	 12.6341
| 27> C 	 -135.51 	 7.45733 	 11.9187
| 28> H 	 -134.505 	 8.95737 	 14.7915
| 29> C 	 -134.222 	 9.61212 	 11.9719
| 30> H 	 -134.26 	 9.61826 	 10.8668
| 31> H 	 -133.16 	 9.556 	 12.1972
| 32> C 	 -134.638 	 10.9801 	 12.5306
| 33> H 	 -134.024 	 11.7917 	 12.1632
| 34> H 	 -134.278 	 11.0321 	 13.5845
| 35> C 	 -136.107 	 11.3367 	 12.4204
| 36> H 	 -136.288 	 12.2857 	 12.9317
| 37> H 	 -136.664 	 10.5282 	 13.0098
| 38> H 	 -136.686 	 11.2254 	 11.5236
| 39> H 	 -136.915 	 6.94873 	 7.22385
| 40> H 	 -135.691 	 6.92796 	 15.4793
| 41> *
| 42>
| 43>                          ****END OF INPUT****

CARTESIAN COORDINATES (ANGSTROEM)
---------------------------------
  S    -137.025000    7.873670    9.530140
  C    -136.387000    6.971800    8.128450
  C    -135.337000    6.112340    8.475120
  C    -134.927000    6.260510    9.858710
  C    -135.666000    7.208500   10.495900
  H    -134.119000    5.821880   10.340600
  C    -134.617000    5.109500    7.584420
  H    -134.979000    5.239820    6.539360
  H    -134.972000    4.108030    7.921520
  C    -133.093000    5.344440    7.638050
  H    -132.870000    6.482000    7.697490
  H    -132.888000    4.829790    8.566090
  C    -132.246000    4.796340    6.518580
  H    -132.534000    5.188320    5.492600
  H    -131.170000    4.979470    6.733660
  H    -132.424000    3.704730    6.451610
  S    -136.178000    6.298540   13.090700
  C    -135.665000    7.227240   14.433900
  C    -135.000000    8.337740   14.036600
  C    -134.892000    8.520910   12.634100
  C    -135.510000    7.457330   11.918700
  H    -134.505000    8.957370   14.791500
  C    -134.222000    9.612120   11.971900
  H    -134.260000    9.618260   10.866800
  H    -133.160000    9.556000   12.197200
  C    -134.638000   10.980100   12.530600
  H    -134.024000   11.791700   12.163200
  H    -134.278000   11.032100   13.584500
  C    -136.107000   11.336700   12.420400
  H    -136.288000   12.285700   12.931700
  H    -136.664000   10.528200   13.009800
  H    -136.686000   11.225400   11.523600
  H    -136.915000    6.948730    7.223850
  H    -135.691000    6.927960   15.479300

 Total Charge           Charge          ....    0
 Multiplicity           Mult            ....    1
 Number of Electrons    NEL             ....  134
 Basis Dimension        Dim             ....  322

ORBITAL ENERGIES
----------------

  NO   OCC          E(Eh)            E(eV)
   0   2.0000     -88.967179     -2420.9200
   1   2.0000     -88.962226     -2420.7853
   2   2.0000     -10.328142      -281.0430
   3   2.0000     -10.323502      -280.9168
   4   2.0000     -10.315189      -280.6906
   5   2.0000     -10.311552      -280.5916
   6   2.0000     -10.306572      -280.4561
   7   2.0000     -10.300498      -280.2908
   8   2.0000     -10.298728      -280.2426
   9   2.0000     -10.293319      -280.0955
  10   2.0000     -10.290610      -280.0217
  11   2.0000     -10.288418      -279.9621
  12   2.0000     -10.287873      -279.9473
  13   2.0000     -10.284586      -279.8578
  14   2.0000     -10.284142      -279.8457
  15   2.0000     -10.272364      -279.5252
  16   2.0000      -8.080636      -219.8853
  17   2.0000      -8.077156      -219.7906
  18   2.0000      -6.039221      -164.3356
  19   2.0000      -6.035625      -164.2377
  20   2.0000      -6.035551      -164.2357
  21   2.0000      -6.031514      -164.1258
  22   2.0000      -6.031173      -164.1166
  23   2.0000      -6.028071      -164.0321
  24   2.0000      -1.002717       -27.2853
  25   2.0000      -0.979878       -26.6638
  26   2.0000      -0.914407       -24.8823
  27   2.0000      -0.911103       -24.7924
  28   2.0000      -0.869837       -23.6695
  29   2.0000      -0.848156       -23.0795
  30   2.0000      -0.844289       -22.9743
  31   2.0000      -0.815060       -22.1789
  32   2.0000      -0.782770       -21.3003
  33   2.0000      -0.768803       -20.9202
  34   2.0000      -0.708755       -19.2862
  35   2.0000      -0.697100       -18.9690
  36   2.0000      -0.687535       -18.7088
  37   2.0000      -0.653143       -17.7729
  38   2.0000      -0.643568       -17.5124
  39   2.0000      -0.617209       -16.7951
  40   2.0000      -0.600231       -16.3331
  41   2.0000      -0.572564       -15.5803
  42   2.0000      -0.559665       -15.2293
  43   2.0000      -0.553393       -15.0586
  44   2.0000      -0.532406       -14.4875
  45   2.0000      -0.527404       -14.3514
  46   2.0000      -0.517351       -14.0778
  47   2.0000      -0.514819       -14.0089
  48   2.0000      -0.501523       -13.6471
  49   2.0000      -0.494073       -13.4444
  50   2.0000      -0.491175       -13.3655
  51   2.0000      -0.478262       -13.0142
  52   2.0000      -0.474236       -12.9046
  53   2.0000      -0.470063       -12.7911
  54   2.0000      -0.460964       -12.5435
  55   2.0000      -0.447512       -12.1774
  56   2.0000      -0.437679       -11.9099
  57   2.0000      -0.435308       -11.8453
  58   2.0000      -0.434091       -11.8122
  59   2.0000      -0.420713       -11.4482
  60   2.0000      -0.418358       -11.3841
  61   2.0000      -0.410589       -11.1727
  62   2.0000      -0.396883       -10.7997
  63   2.0000      -0.336600        -9.1594
  64   2.0000      -0.328862        -8.9488
  65   2.0000      -0.317543        -8.6408
  66   2.0000      -0.306711        -8.3460
  67   0.0000       0.041851         1.1388
  68   0.0000       0.054663         1.4874
  69   0.0000       0.105453         2.8695
  70   0.0000       0.118011         3.2112
  71   0.0000       0.135507         3.6873

MULLIKEN ATOMIC CHARGES
-----------------------
   0 S :    0.102765
   1 C :   -0.106833
   2 C :   -0.085645
   3 C :    0.045032
   4 C :   -0.149256
   5 H :   -0.001306
   6 C :    0.070521
   7 H :    0.013858
   8 H :    0.051455
   9 C :   -0.132611
  10 H :    0.059023
  11 H :    0.036940
  12 C :   -0.050272
  13 H :    0.041224
  14 H :    0.050638
  15 H :    0.028619
  16 S :    0.113829
  17 C :   -0.084773
  18 C :   -0.047435
  19 C :   -0.009329
  20 C :   -0.205303
  21 H :    0.020931
  22 C :    0.087853
  23 H :    0.038194
  24 H :    0.027842
  25 C :   -0.094904
  26 H :    0.016459
  27 H :    0.017844
  28 C :   -0.049611
  29 H :    0.037474
  30 H :    0.032669
  31 H :    0.033616
  32 H :    0.031983
  33 H :    0.058507
Sum of atomic charges:   -0.0000000

LOEWDIN ATOMIC CHARGES
----------------------
   0 S :    0.368921
   1 C :   -0.181270
   2 C :   -0.051895
   3 C :   -0.043945
   4 C :   -0.179364
   5 H :    0.024453
   6 C :   -0.035876
   7 H :    0.025702
   8 H :    0.038156
   9 C :   -0.053566
  10 H :    0.039038
  11 H :    0.023885
  12 C :   -0.074116
  13 H :    0.030500
  14 H :    0.033773
  15 H :    0.025862
  16 S :    0.410703
  17 C :   -0.196276
  18 C :   -0.080321
  19 C :   -0.052178
  20 C :   -0.201433
  21 H :    0.032799
  22 C :   -0.037000
  23 H :    0.035744
  24 H :    0.038206
  25 C :   -0.046382
  26 H :    0.019751
  27 H :    0.025259
  28 C :   -0.078268
  29 H :    0.028673
  30 H :    0.035246
  31 H :    0.024458
  32 H :    0.015397
  33 H :    0.035365

  Mayer bond orders larger than 0.100000
B(  0-S ,  1-C ) :   1.1173 B(  0-S ,  4-C ) :   1.1212 B(  1-C ,  2-C ) :   1.6513
B(  1-C , 32-H ) :   0.9720 B(  2-C ,  3-C ) :   1.1752 B(  2-C ,  6-C ) :   1.0281
B(  3-C ,  4-C ) :   1.6270 B(  3-C ,  5-H ) :   1.0031 B(  4-C , 20-C ) :   1.0429
B(  6-C ,  7-H ) :   0.9438 B(  6-C ,  8-H ) :   0.9372 B(  6-C ,  9-C ) :   1.0330
B(  9-C , 10-H ) :   0.9614 B(  9-C , 11-H ) :   0.9487 B(  9-C , 12-C ) :   1.0970
B( 12-C , 13-H ) :   0.9720 B( 12-C , 14-H ) :   0.9726 B( 12-C , 15-H ) :   0.9694
B( 16-S , 17-C ) :   1.1668 B( 16-S , 20-C ) :   1.1414 B( 17-C , 18-C ) :   1.6085
B( 17-C , 33-H ) :   0.9616 B( 18-C , 19-C ) :   1.2436 B( 18-C , 21-H ) :   0.9851
B( 19-C , 20-C ) :   1.5506 B( 19-C , 22-C ) :   1.0728 B( 22-C , 23-H ) :   0.9329
B( 22-C , 24-H ) :   0.9180 B( 22-C , 25-C ) :   1.0736 B( 25-C , 26-H ) :   0.9531
B( 25-C , 27-H ) :   0.9466 B( 25-C , 28-C ) :   1.0725 B( 28-C , 29-H ) :   0.9720
B( 28-C , 30-H ) :   0.9650 B( 28-C , 31-H ) :   0.9758

Dispersion correction           -0.014664173
FINAL SINGLE POINT ENERGY     -1339.874205241983

DIPOLE MOMENT
-------------
                                X             Y             Z
Electronic contribution:    -15.13276      -5.36840       9.55839
Nuclear contribution   :     15.70081       5.26305      -9.64221
                        -----------------------------------------
Total Dipole Moment    :      0.56805      -0.10535      -0.08382
                        -----------------------------------------
Magnitude (a.u.)       :      0.58379
Magnitude (Debye)      :      1.48387

Rotational constants in cm-1:     0.020812     0.007529     0.007132
Rotational constants in MHz :   623.917480   225.700128   213.826811

                             ****ORCA TERMINATED NORMALLY****
TOTAL RUN TIME: 0 days 0 hours 0 minutes 20 seconds 355 msec
