                         Program Version 4.2.1 -  RELEASE  -
|  1> ! wB97X-D3 SP def2-SVP
|  2> %pal
|  3> nprocs 24
|  4> end
|  5>
|  6> * xyz 0 1
|  7> S 	 -62.9899 	 6.59502 	 -77.3425
|  8> C 	 -63.3095 	 7.52097 	 -75.8192
|  9> C 	 -64.4952 	 8.23557 	 -75.804
| 10> C 	 -65.2176 	 7.99129 	 -77.0707
| 11> C 	 -64.5849 	 7.14262 	 -77.9414
| 12> H 	 -66.2502 	 8.21216 	 -77.2293
| 13> C 	 -65.0426 	 9.00953 	 -74.6356
| 14> H 	 -65.9697 	 8.52823 	 -74.0837
| 15> H 	 -65.4436 	 9.88291 	 -75.1658
| 16> C 	 -63.968 	 9.44636 	 -73.6827
| 17> H 	 -64.4943 	 9.99932 	 -72.8447
| 18> H 	 -63.541 	 8.61636 	 -73.1588
| 19> C 	 -62.862 	 10.3739 	 -74.2149
| 20> H 	 -62.3018 	 10.9545 	 -73.4561
| 21> H 	 -62.1688 	 9.74471 	 -74.726
| 22> H 	 -63.265 	 10.9869 	 -74.9812
| 23> S 	 -64.5639 	 7.73265 	 -80.7022
| 24> C 	 -65.678 	 6.85425 	 -81.7319
| 25> C 	 -66.2495 	 5.8401 	 -81.0369
| 26> C 	 -65.9546 	 5.83962 	 -79.6387
| 27> C 	 -65.0724 	 6.79642 	 -79.2694
| 28> H 	 -66.8874 	 5.2557 	 -81.5823
| 29> C 	 -66.6057 	 4.81102 	 -78.6517
| 30> H 	 -66.941 	 5.36691 	 -77.7655
| 31> H 	 -65.7223 	 4.29394 	 -78.3172
| 32> C 	 -67.7565 	 3.8469 	 -79.1915
| 33> H 	 -67.534 	 3.4533 	 -80.1734
| 34> H 	 -68.7028 	 4.45525 	 -79.3063
| 35> C 	 -68.1377 	 2.71704 	 -78.247
| 36> H 	 -68.9925 	 2.28337 	 -78.6222
| 37> H 	 -68.5371 	 3.12041 	 -77.25
| 38> H 	 -67.44 	 1.93433 	 -78.0502
| 39> H 	 -62.703 	 7.34066 	 -74.8911
| 40> H 	 -65.711 	 6.96418 	 -82.8119
| 41> *
| 42>
| 43>                          ****END OF INPUT****

CARTESIAN COORDINATES (ANGSTROEM)
---------------------------------
  S    -62.989900    6.595020  -77.342500
  C    -63.309500    7.520970  -75.819200
  C    -64.495200    8.235570  -75.804000
  C    -65.217600    7.991290  -77.070700
  C    -64.584900    7.142620  -77.941400
  H    -66.250200    8.212160  -77.229300
  C    -65.042600    9.009530  -74.635600
  H    -65.969700    8.528230  -74.083700
  H    -65.443600    9.882910  -75.165800
  C    -63.968000    9.446360  -73.682700
  H    -64.494300    9.999320  -72.844700
  H    -63.541000    8.616360  -73.158800
  C    -62.862000   10.373900  -74.214900
  H    -62.301800   10.954500  -73.456100
  H    -62.168800    9.744710  -74.726000
  H    -63.265000   10.986900  -74.981200
  S    -64.563900    7.732650  -80.702200
  C    -65.678000    6.854250  -81.731900
  C    -66.249500    5.840100  -81.036900
  C    -65.954600    5.839620  -79.638700
  C    -65.072400    6.796420  -79.269400
  H    -66.887400    5.255700  -81.582300
  C    -66.605700    4.811020  -78.651700
  H    -66.941000    5.366910  -77.765500
  H    -65.722300    4.293940  -78.317200
  C    -67.756500    3.846900  -79.191500
  H    -67.534000    3.453300  -80.173400
  H    -68.702800    4.455250  -79.306300
  C    -68.137700    2.717040  -78.247000
  H    -68.992500    2.283370  -78.622200
  H    -68.537100    3.120410  -77.250000
  H    -67.440000    1.934330  -78.050200
  H    -62.703000    7.340660  -74.891100
  H    -65.711000    6.964180  -82.811900

 Total Charge           Charge          ....    0
 Multiplicity           Mult            ....    1
 Number of Electrons    NEL             ....  134
 Basis Dimension        Dim             ....  322

ORBITAL ENERGIES
----------------

  NO   OCC          E(Eh)            E(eV)
   0   2.0000     -88.966612     -2420.9046
   1   2.0000     -88.958209     -2420.6759
   2   2.0000     -10.330647      -281.1112
   3   2.0000     -10.322169      -280.8805
   4   2.0000     -10.319961      -280.8204
   5   2.0000     -10.314032      -280.6591
   6   2.0000     -10.307709      -280.4870
   7   2.0000     -10.304930      -280.4114
   8   2.0000     -10.302495      -280.3451
   9   2.0000     -10.297450      -280.2079
  10   2.0000     -10.297304      -280.2039
  11   2.0000     -10.295301      -280.1494
  12   2.0000     -10.288157      -279.9550
  13   2.0000     -10.282697      -279.8064
  14   2.0000     -10.275711      -279.6163
  15   2.0000     -10.272894      -279.5397
  16   2.0000      -8.079846      -219.8638
  17   2.0000      -8.072785      -219.6716
  18   2.0000      -6.038524      -164.3166
  19   2.0000      -6.034743      -164.2137
  20   2.0000      -6.031422      -164.1233
  21   2.0000      -6.030336      -164.0938
  22   2.0000      -6.027293      -164.0110
  23   2.0000      -6.023435      -163.9060
  24   2.0000      -1.000421       -27.2228
  25   2.0000      -0.976316       -26.5669
  26   2.0000      -0.917141       -24.9567
  27   2.0000      -0.897769       -24.4295
  28   2.0000      -0.867632       -23.6095
  29   2.0000      -0.848166       -23.0798
  30   2.0000      -0.843585       -22.9551
  31   2.0000      -0.813568       -22.1383
  32   2.0000      -0.785237       -21.3674
  33   2.0000      -0.773726       -21.0542
  34   2.0000      -0.708505       -19.2794
  35   2.0000      -0.704634       -19.1741
  36   2.0000      -0.697764       -18.9871
  37   2.0000      -0.652718       -17.7614
  38   2.0000      -0.634878       -17.2759
  39   2.0000      -0.607076       -16.5194
  40   2.0000      -0.592194       -16.1144
  41   2.0000      -0.576957       -15.6998
  42   2.0000      -0.560949       -15.2642
  43   2.0000      -0.555177       -15.1071
  44   2.0000      -0.534867       -14.5545
  45   2.0000      -0.527513       -14.3544
  46   2.0000      -0.517036       -14.0693
  47   2.0000      -0.512662       -13.9502
  48   2.0000      -0.507720       -13.8158
  49   2.0000      -0.492590       -13.4040
  50   2.0000      -0.485930       -13.2228
  51   2.0000      -0.475085       -12.9277
  52   2.0000      -0.473307       -12.8793
  53   2.0000      -0.461906       -12.5691
  54   2.0000      -0.457303       -12.4438
  55   2.0000      -0.447539       -12.1781
  56   2.0000      -0.443302       -12.0629
  57   2.0000      -0.438149       -11.9226
  58   2.0000      -0.429263       -11.6808
  59   2.0000      -0.427658       -11.6372
  60   2.0000      -0.424724       -11.5573
  61   2.0000      -0.412861       -11.2345
  62   2.0000      -0.409373       -11.1396
  63   2.0000      -0.333735        -9.0814
  64   2.0000      -0.326037        -8.8719
  65   2.0000      -0.322843        -8.7850
  66   2.0000      -0.311995        -8.4898
  67   0.0000       0.045597         1.2407
  68   0.0000       0.053045         1.4434
  69   0.0000       0.103630         2.8199
  70   0.0000       0.113325         3.0837
  71   0.0000       0.129797         3.5319

MULLIKEN ATOMIC CHARGES
-----------------------
   0 S :    0.101316
   1 C :   -0.144433
   2 C :   -0.112458
   3 C :    0.063511
   4 C :   -0.192139
   5 H :    0.014526
   6 C :    0.059033
   7 H :    0.069833
   8 H :    0.031635
   9 C :   -0.114443
  10 H :    0.030283
  11 H :    0.022711
  12 C :   -0.011823
  13 H :    0.046363
  14 H :    0.016881
  15 H :    0.021859
  16 S :    0.096836
  17 C :   -0.091655
  18 C :   -0.017402
  19 C :   -0.020328
  20 C :   -0.180835
  21 H :   -0.019774
  22 C :    0.096516
  23 H :    0.030038
  24 H :    0.031542
  25 C :   -0.094612
  26 H :    0.035302
  27 H :    0.040125
  28 C :   -0.015310
  29 H :    0.008472
  30 H :    0.027752
  31 H :    0.036884
  32 H :    0.074115
  33 H :    0.059679
Sum of atomic charges:    0.0000000

LOEWDIN ATOMIC CHARGES
----------------------
   0 S :    0.358646
   1 C :   -0.184217
   2 C :   -0.064237
   3 C :   -0.048809
   4 C :   -0.179931
   5 H :    0.030137
   6 C :   -0.041778
   7 H :    0.051621
   8 H :    0.035353
   9 C :   -0.050901
  10 H :    0.030689
  11 H :    0.016744
  12 C :   -0.059611
  13 H :    0.033090
  14 H :    0.020318
  15 H :    0.022554
  16 S :    0.381352
  17 C :   -0.172532
  18 C :   -0.072072
  19 C :   -0.048244
  20 C :   -0.202384
  21 H :    0.015482
  22 C :   -0.030459
  23 H :    0.033403
  24 H :    0.032851
  25 C :   -0.039972
  26 H :    0.020321
  27 H :    0.034230
  28 C :   -0.062366
  29 H :    0.016943
  30 H :    0.033878
  31 H :    0.021520
  32 H :    0.036175
  33 H :    0.032206

  Mayer bond orders larger than 0.100000
B(  0-S ,  1-C ) :   1.1098 B(  0-S ,  4-C ) :   1.1129 B(  1-C ,  2-C ) :   1.6801
B(  1-C , 32-H ) :   0.9465 B(  2-C ,  3-C ) :   1.1850 B(  2-C ,  6-C ) :   0.9973
B(  3-C ,  4-C ) :   1.6605 B(  3-C ,  5-H ) :   0.9871 B(  4-C , 20-C ) :   1.0235
B(  6-C ,  7-H ) :   0.9347 B(  6-C ,  8-H ) :   0.9329 B(  6-C ,  9-C ) :   1.0934
B(  9-C , 10-H ) :   0.9528 B(  9-C , 11-H ) :   0.9494 B(  9-C , 12-C ) :   1.0684
B( 12-C , 13-H ) :   0.9754 B( 12-C , 14-H ) :   0.9699 B( 12-C , 15-H ) :   0.9744
B( 16-S , 17-C ) :   1.1522 B( 16-S , 20-C ) :   1.1213 B( 17-C , 18-C ) :   1.6366
B( 17-C , 33-H ) :   0.9608 B( 18-C , 19-C ) :   1.2126 B( 18-C , 21-H ) :   1.0051
B( 19-C , 20-C ) :   1.6545 B( 19-C , 22-C ) :   1.0075 B( 22-C , 23-H ) :   0.9333
B( 22-C , 24-H ) :   0.9334 B( 22-C , 25-C ) :   1.0583 B( 25-C , 26-H ) :   0.9535
B( 25-C , 27-H ) :   0.9560 B( 25-C , 28-C ) :   1.0929 B( 28-C , 29-H ) :   0.9680
B( 28-C , 30-H ) :   0.9704 B( 28-C , 31-H ) :   0.9766

Dispersion correction           -0.013946046
FINAL SINGLE POINT ENERGY     -1339.863226794290

DIPOLE MOMENT
-------------
                                X             Y             Z
Electronic contribution:     11.71038       3.23274     -17.06423
Nuclear contribution   :    -12.33075      -3.45459      17.42355
                        -----------------------------------------
Total Dipole Moment    :     -0.62036      -0.22185       0.35932
                        -----------------------------------------
Magnitude (a.u.)       :      0.75045
Magnitude (Debye)      :      1.90750

Rotational constants in cm-1:     0.020325     0.007355     0.006114
Rotational constants in MHz :   609.324792   220.502271   183.283185

                             ****ORCA TERMINATED NORMALLY****
TOTAL RUN TIME: 0 days 0 hours 0 minutes 20 seconds 844 msec
