                         Program Version 4.2.1 -  RELEASE  -
|  1> ! wB97X-D3 SP def2-SVP
|  2> %pal
|  3> nprocs 24
|  4> end
|  5>
|  6> * xyz 0 1
|  7> S 	 -48.1124 	 12.6649 	 -97.3032
|  8> C 	 -48.3053 	 10.9303 	 -96.9864
|  9> C 	 -49.1673 	 10.376 	 -97.9529
| 10> C 	 -49.7486 	 11.3262 	 -98.825
| 11> C 	 -49.1599 	 12.5925 	 -98.6825
| 12> H 	 -50.4056 	 11.1241 	 -99.6781
| 13> C 	 -49.5354 	 8.86896 	 -97.9505
| 14> H 	 -49.1017 	 8.5498 	 -96.9728
| 15> H 	 -48.951 	 8.47713 	 -98.7957
| 16> C 	 -50.9319 	 8.32877 	 -98.0816
| 17> H 	 -51.3263 	 8.45808 	 -99.086
| 18> H 	 -50.8026 	 7.22674 	 -97.8403
| 19> C 	 -51.8407 	 9.07366 	 -97.1672
| 20> H 	 -51.8012 	 8.72764 	 -96.1189
| 21> H 	 -51.665 	 10.1214 	 -96.9742
| 22> H 	 -52.8885 	 9.09455 	 -97.416
| 23> S 	 -50.2833 	 15.0905 	 -98.9738
| 24> C 	 -50.3532 	 15.7838 	 -100.502
| 25> C 	 -49.8706 	 14.9023 	 -101.502
| 26> C 	 -49.253 	 13.7266 	 -100.922
| 27> C 	 -49.3581 	 13.7172 	 -99.5323
| 28> H 	 -50.0368 	 15.1485 	 -102.56
| 29> C 	 -48.6617 	 12.5978 	 -101.744
| 30> H 	 -48.0967 	 12.0025 	 -101.041
| 31> H 	 -47.9786 	 13.0347 	 -102.447
| 32> C 	 -49.545 	 11.8274 	 -102.704
| 33> H 	 -50.1567 	 12.4603 	 -103.349
| 34> H 	 -50.2118 	 11.3604 	 -102.012
| 35> C 	 -48.8196 	 10.842 	 -103.555
| 36> H 	 -49.4141 	 10.3692 	 -104.387
| 37> H 	 -48.2627 	 10.0148 	 -103.024
| 38> H 	 -47.9836 	 11.4111 	 -103.969
| 39> H 	 -47.8003 	 10.3624 	 -96.2338
| 40> H 	 -50.9997 	 16.6609 	 -100.695
| 41> *
| 42>
| 43>                          ****END OF INPUT****

CARTESIAN COORDINATES (ANGSTROEM)
---------------------------------
  S    -48.112400   12.664900  -97.303200
  C    -48.305300   10.930300  -96.986400
  C    -49.167300   10.376000  -97.952900
  C    -49.748600   11.326200  -98.825000
  C    -49.159900   12.592500  -98.682500
  H    -50.405600   11.124100  -99.678100
  C    -49.535400    8.868960  -97.950500
  H    -49.101700    8.549800  -96.972800
  H    -48.951000    8.477130  -98.795700
  C    -50.931900    8.328770  -98.081600
  H    -51.326300    8.458080  -99.086000
  H    -50.802600    7.226740  -97.840300
  C    -51.840700    9.073660  -97.167200
  H    -51.801200    8.727640  -96.118900
  H    -51.665000   10.121400  -96.974200
  H    -52.888500    9.094550  -97.416000
  S    -50.283300   15.090500  -98.973800
  C    -50.353200   15.783800  -100.502000
  C    -49.870600   14.902300  -101.502000
  C    -49.253000   13.726600  -100.922000
  C    -49.358100   13.717200  -99.532300
  H    -50.036800   15.148500  -102.560000
  C    -48.661700   12.597800  -101.744000
  H    -48.096700   12.002500  -101.041000
  H    -47.978600   13.034700  -102.447000
  C    -49.545000   11.827400  -102.704000
  H    -50.156700   12.460300  -103.349000
  H    -50.211800   11.360400  -102.012000
  C    -48.819600   10.842000  -103.555000
  H    -49.414100   10.369200  -104.387000
  H    -48.262700   10.014800  -103.024000
  H    -47.983600   11.411100  -103.969000
  H    -47.800300   10.362400  -96.233800
  H    -50.999700   16.660900  -100.695000

 Total Charge           Charge          ....    0
 Multiplicity           Mult            ....    1
 Number of Electrons    NEL             ....  134
 Basis Dimension        Dim             ....  322

ORBITAL ENERGIES
----------------

  NO   OCC          E(Eh)            E(eV)
   0   2.0000     -88.967775     -2420.9362
   1   2.0000     -88.966392     -2420.8986
   2   2.0000     -10.327291      -281.0199
   3   2.0000     -10.320572      -280.8371
   4   2.0000     -10.319166      -280.7988
   5   2.0000     -10.316093      -280.7152
   6   2.0000     -10.307743      -280.4880
   7   2.0000     -10.304506      -280.3999
   8   2.0000     -10.300392      -280.2879
   9   2.0000     -10.296169      -280.1730
  10   2.0000     -10.293983      -280.1135
  11   2.0000     -10.290953      -280.0311
  12   2.0000     -10.286153      -279.9004
  13   2.0000     -10.285272      -279.8765
  14   2.0000     -10.283642      -279.8321
  15   2.0000     -10.267647      -279.3969
  16   2.0000      -8.082528      -219.9368
  17   2.0000      -8.082200      -219.9278
  18   2.0000      -6.040768      -164.3776
  19   2.0000      -6.040594      -164.3729
  20   2.0000      -6.036804      -164.2698
  21   2.0000      -6.036619      -164.2647
  22   2.0000      -6.033507      -164.1801
  23   2.0000      -6.033232      -164.1726
  24   2.0000      -1.009966       -27.4826
  25   2.0000      -0.983499       -26.7624
  26   2.0000      -0.920333       -25.0435
  27   2.0000      -0.916486       -24.9388
  28   2.0000      -0.872606       -23.7448
  29   2.0000      -0.855453       -23.2781
  30   2.0000      -0.844109       -22.9694
  31   2.0000      -0.809738       -22.0341
  32   2.0000      -0.785837       -21.3837
  33   2.0000      -0.773236       -21.0408
  34   2.0000      -0.709090       -19.2953
  35   2.0000      -0.700733       -19.0679
  36   2.0000      -0.693650       -18.8752
  37   2.0000      -0.658548       -17.9200
  38   2.0000      -0.637029       -17.3344
  39   2.0000      -0.617945       -16.8151
  40   2.0000      -0.597170       -16.2498
  41   2.0000      -0.575706       -15.6658
  42   2.0000      -0.565115       -15.3776
  43   2.0000      -0.558628       -15.2010
  44   2.0000      -0.537741       -14.6327
  45   2.0000      -0.530601       -14.4384
  46   2.0000      -0.521274       -14.1846
  47   2.0000      -0.518112       -14.0986
  48   2.0000      -0.506501       -13.7826
  49   2.0000      -0.495466       -13.4823
  50   2.0000      -0.486731       -13.2446
  51   2.0000      -0.483680       -13.1616
  52   2.0000      -0.472635       -12.8611
  53   2.0000      -0.465619       -12.6701
  54   2.0000      -0.459849       -12.5131
  55   2.0000      -0.449525       -12.2322
  56   2.0000      -0.444843       -12.1048
  57   2.0000      -0.435965       -11.8632
  58   2.0000      -0.429575       -11.6893
  59   2.0000      -0.425078       -11.5670
  60   2.0000      -0.418659       -11.3923
  61   2.0000      -0.411469       -11.1966
  62   2.0000      -0.410892       -11.1810
  63   2.0000      -0.336310        -9.1515
  64   2.0000      -0.332745        -9.0544
  65   2.0000      -0.327417        -8.9095
  66   2.0000      -0.296147        -8.0586
  67   0.0000       0.032134         0.8744
  68   0.0000       0.061081         1.6621
  69   0.0000       0.113813         3.0970
  70   0.0000       0.121410         3.3037
  71   0.0000       0.123183         3.3520

MULLIKEN ATOMIC CHARGES
-----------------------
   0 S :    0.121538
   1 C :   -0.117450
   2 C :   -0.127703
   3 C :    0.051941
   4 C :   -0.204365
   5 H :    0.020414
   6 C :    0.043899
   7 H :    0.019333
   8 H :    0.042515
   9 C :   -0.028741
  10 H :    0.028664
  11 H :    0.053814
  12 C :   -0.067965
  13 H :    0.019510
  14 H :    0.034738
  15 H :    0.023928
  16 S :    0.128422
  17 C :   -0.108670
  18 C :   -0.058625
  19 C :   -0.029493
  20 C :   -0.145735
  21 H :    0.029994
  22 C :    0.063602
  23 H :    0.037210
  24 H :    0.008299
  25 C :   -0.029091
  26 H :    0.027605
  27 H :    0.001884
  28 C :   -0.063074
  29 H :    0.052130
  30 H :    0.034923
  31 H :    0.017065
  32 H :    0.043889
  33 H :    0.075593
Sum of atomic charges:    0.0000000

LOEWDIN ATOMIC CHARGES
----------------------
   0 S :    0.414087
   1 C :   -0.200258
   2 C :   -0.061476
   3 C :   -0.065720
   4 C :   -0.201907
   5 H :    0.033789
   6 C :   -0.035803
   7 H :    0.031113
   8 H :    0.035439
   9 C :   -0.046491
  10 H :    0.024292
  11 H :    0.043187
  12 C :   -0.079435
  13 H :    0.028631
  14 H :    0.029515
  15 H :    0.022877
  16 S :    0.445430
  17 C :   -0.212994
  18 C :   -0.077190
  19 C :   -0.042890
  20 C :   -0.222182
  21 H :    0.033629
  22 C :   -0.031323
  23 H :    0.032618
  24 H :    0.026707
  25 C :   -0.041617
  26 H :    0.027281
  27 H :    0.013384
  28 C :   -0.073314
  29 H :    0.035087
  30 H :    0.031211
  31 H :    0.023627
  32 H :    0.024451
  33 H :    0.036244

  Mayer bond orders larger than 0.100000
B(  0-S ,  1-C ) :   1.1362 B(  0-S ,  4-C ) :   1.1778 B(  1-C ,  2-C ) :   1.5903
B(  1-C ,  4-C ) :   0.1066 B(  1-C , 32-H ) :   0.9701 B(  2-C ,  3-C ) :   1.2554
B(  2-C ,  6-C ) :   1.0096 B(  3-C ,  4-C ) :   1.5377 B(  3-C ,  5-H ) :   0.9897
B(  4-C , 20-C ) :   1.0360 B(  6-C ,  7-H ) :   0.9464 B(  6-C ,  8-H ) :   0.9305
B(  6-C ,  9-C ) :   1.0819 B(  9-C , 10-H ) :   0.9486 B(  9-C , 11-H ) :   0.9514
B(  9-C , 12-C ) :   1.0738 B( 12-C , 13-H ) :   0.9711 B( 12-C , 14-H ) :   0.9724
B( 12-C , 15-H ) :   0.9761 B( 16-S , 17-C ) :   1.2001 B( 16-S , 20-C ) :   1.1565
B( 17-C , 18-C ) :   1.5625 B( 17-C , 33-H ) :   0.9628 B( 18-C , 19-C ) :   1.2558
B( 18-C , 21-H ) :   0.9917 B( 19-C , 20-C ) :   1.5594 B( 19-C , 22-C ) :   1.0602
B( 22-C , 23-H ) :   0.9311 B( 22-C , 24-H ) :   0.9206 B( 22-C , 25-C ) :   1.0603
B( 25-C , 26-H ) :   0.9476 B( 25-C , 27-H ) :   0.9470 B( 25-C , 28-C ) :   1.0858
B( 28-C , 29-H ) :   0.9730 B( 28-C , 30-H ) :   0.9719 B( 28-C , 31-H ) :   0.9690

Dispersion correction           -0.014823940
FINAL SINGLE POINT ENERGY     -1339.868959988251

DIPOLE MOMENT
-------------
                                X             Y             Z
Electronic contribution:      5.79072      23.84693      13.05077
Nuclear contribution   :     -6.05922     -24.31608     -13.53434
                        -----------------------------------------
Total Dipole Moment    :     -0.26851      -0.46914      -0.48357
                        -----------------------------------------
Magnitude (a.u.)       :      0.72528
Magnitude (Debye)      :      1.84351

Rotational constants in cm-1:     0.016314     0.009789     0.007522
Rotational constants in MHz :   489.072679   293.454086   225.489098

                             ****ORCA TERMINATED NORMALLY****
TOTAL RUN TIME: 0 days 0 hours 0 minutes 21 seconds 99 msec
