                         Program Version 4.2.1 -  RELEASE  -
|  1> ! wB97X-D3 SP def2-SVP
|  2> %pal
|  3> nprocs 24
|  4> end
|  5>
|  6> * xyz 0 1
|  7> S 	 -48.6096 	 17.4883 	 29.6798
|  8> C 	 -47.5057 	 18.3587 	 28.4944
|  9> C 	 -46.1981 	 18.0483 	 28.748
| 10> C 	 -46.0014 	 17.1564 	 29.8981
| 11> C 	 -47.1958 	 16.7646 	 30.4553
| 12> H 	 -45.0647 	 16.7686 	 30.304
| 13> C 	 -45.0071 	 18.5925 	 27.9534
| 14> H 	 -44.35 	 17.799 	 27.6
| 15> H 	 -44.3288 	 19.1825 	 28.518
| 16> C 	 -45.3901 	 19.3699 	 26.7023
| 17> H 	 -46.1841 	 20.0744 	 26.8346
| 18> H 	 -44.5709 	 19.9696 	 26.4523
| 19> C 	 -45.9987 	 18.6828 	 25.4668
| 20> H 	 -46.1832 	 19.4838 	 24.7246
| 21> H 	 -45.2507 	 17.9556 	 25.0352
| 22> H 	 -46.908 	 18.2265 	 25.7094
| 23> S 	 -46.7307 	 16.4072 	 33.2568
| 24> C 	 -47.3794 	 14.9587 	 33.9554
| 25> C 	 -47.7612 	 14.0098 	 33.0308
| 26> C 	 -47.6351 	 14.5675 	 31.7173
| 27> C 	 -47.2542 	 15.8669 	 31.6249
| 28> H 	 -48.141 	 13.0776 	 33.2269
| 29> C 	 -48.0634 	 13.7496 	 30.519
| 30> H 	 -48.0926 	 14.3394 	 29.6311
| 31> H 	 -49.0608 	 13.5511 	 30.638
| 32> C 	 -47.3036 	 12.3759 	 30.1594
| 33> H 	 -47.7148 	 11.9049 	 29.2587
| 34> H 	 -47.3161 	 11.584 	 30.9755
| 35> C 	 -45.794 	 12.6128 	 29.8463
| 36> H 	 -45.7077 	 13.3368 	 29.0858
| 37> H 	 -45.3935 	 11.622 	 29.5555
| 38> H 	 -45.2682 	 12.9539 	 30.7884
| 39> H 	 -47.7316 	 19.1459 	 27.8427
| 40> H 	 -47.1624 	 14.544 	 34.9182
| 41> *
| 42>
| 43>                          ****END OF INPUT****

CARTESIAN COORDINATES (ANGSTROEM)
---------------------------------
  S    -48.609600   17.488300   29.679800
  C    -47.505700   18.358700   28.494400
  C    -46.198100   18.048300   28.748000
  C    -46.001400   17.156400   29.898100
  C    -47.195800   16.764600   30.455300
  H    -45.064700   16.768600   30.304000
  C    -45.007100   18.592500   27.953400
  H    -44.350000   17.799000   27.600000
  H    -44.328800   19.182500   28.518000
  C    -45.390100   19.369900   26.702300
  H    -46.184100   20.074400   26.834600
  H    -44.570900   19.969600   26.452300
  C    -45.998700   18.682800   25.466800
  H    -46.183200   19.483800   24.724600
  H    -45.250700   17.955600   25.035200
  H    -46.908000   18.226500   25.709400
  S    -46.730700   16.407200   33.256800
  C    -47.379400   14.958700   33.955400
  C    -47.761200   14.009800   33.030800
  C    -47.635100   14.567500   31.717300
  C    -47.254200   15.866900   31.624900
  H    -48.141000   13.077600   33.226900
  C    -48.063400   13.749600   30.519000
  H    -48.092600   14.339400   29.631100
  H    -49.060800   13.551100   30.638000
  C    -47.303600   12.375900   30.159400
  H    -47.714800   11.904900   29.258700
  H    -47.316100   11.584000   30.975500
  C    -45.794000   12.612800   29.846300
  H    -45.707700   13.336800   29.085800
  H    -45.393500   11.622000   29.555500
  H    -45.268200   12.953900   30.788400
  H    -47.731600   19.145900   27.842700
  H    -47.162400   14.544000   34.918200

 Total Charge           Charge          ....    0
 Multiplicity           Mult            ....    1
 Number of Electrons    NEL             ....  134
 Basis Dimension        Dim             ....  322

ORBITAL ENERGIES
----------------

  NO   OCC          E(Eh)            E(eV)
   0   2.0000     -88.970631     -2421.0140
   1   2.0000     -88.965808     -2420.8827
   2   2.0000     -10.334676      -281.2208
   3   2.0000     -10.325730      -280.9774
   4   2.0000     -10.317892      -280.7641
   5   2.0000     -10.315726      -280.7052
   6   2.0000     -10.308642      -280.5124
   7   2.0000     -10.299647      -280.2677
   8   2.0000     -10.299004      -280.2501
   9   2.0000     -10.295871      -280.1649
  10   2.0000     -10.293470      -280.0995
  11   2.0000     -10.288132      -279.9543
  12   2.0000     -10.280482      -279.7461
  13   2.0000     -10.279476      -279.7188
  14   2.0000     -10.278569      -279.6941
  15   2.0000     -10.275600      -279.6133
  16   2.0000      -8.083422      -219.9611
  17   2.0000      -8.080155      -219.8722
  18   2.0000      -6.042264      -164.4184
  19   2.0000      -6.038830      -164.3249
  20   2.0000      -6.038315      -164.3109
  21   2.0000      -6.034790      -164.2150
  22   2.0000      -6.033798      -164.1880
  23   2.0000      -6.030681      -164.1032
  24   2.0000      -1.002323       -27.2746
  25   2.0000      -0.979246       -26.6466
  26   2.0000      -0.915715       -24.9179
  27   2.0000      -0.897338       -24.4178
  28   2.0000      -0.868119       -23.6227
  29   2.0000      -0.847180       -23.0529
  30   2.0000      -0.844524       -22.9807
  31   2.0000      -0.816508       -22.2183
  32   2.0000      -0.790970       -21.5234
  33   2.0000      -0.775502       -21.1025
  34   2.0000      -0.710415       -19.3314
  35   2.0000      -0.698296       -19.0016
  36   2.0000      -0.690136       -18.7796
  37   2.0000      -0.664618       -18.0852
  38   2.0000      -0.639055       -17.3896
  39   2.0000      -0.609651       -16.5895
  40   2.0000      -0.594909       -16.1883
  41   2.0000      -0.585837       -15.9414
  42   2.0000      -0.554732       -15.0950
  43   2.0000      -0.548179       -14.9167
  44   2.0000      -0.541264       -14.7286
  45   2.0000      -0.537772       -14.6335
  46   2.0000      -0.519324       -14.1315
  47   2.0000      -0.513471       -13.9722
  48   2.0000      -0.504405       -13.7255
  49   2.0000      -0.498976       -13.5778
  50   2.0000      -0.489099       -13.3091
  51   2.0000      -0.479094       -13.0368
  52   2.0000      -0.474001       -12.8982
  53   2.0000      -0.463231       -12.6051
  54   2.0000      -0.454930       -12.3793
  55   2.0000      -0.448900       -12.2152
  56   2.0000      -0.441805       -12.0221
  57   2.0000      -0.436171       -11.8688
  58   2.0000      -0.426328       -11.6010
  59   2.0000      -0.423153       -11.5146
  60   2.0000      -0.419367       -11.4116
  61   2.0000      -0.416624       -11.3369
  62   2.0000      -0.410742       -11.1768
  63   2.0000      -0.334995        -9.1157
  64   2.0000      -0.333491        -9.0748
  65   2.0000      -0.328530        -8.9398
  66   2.0000      -0.309428        -8.4200
  67   0.0000       0.038386         1.0445
  68   0.0000       0.054216         1.4753
  69   0.0000       0.103807         2.8247
  70   0.0000       0.107857         2.9349
  71   0.0000       0.127879         3.4798

MULLIKEN ATOMIC CHARGES
-----------------------
   0 S :    0.107426
   1 C :   -0.100461
   2 C :   -0.089005
   3 C :    0.029751
   4 C :   -0.157325
   5 H :    0.024810
   6 C :    0.121777
   7 H :    0.025649
   8 H :    0.028071
   9 C :   -0.096354
  10 H :    0.005696
  11 H :    0.009396
  12 C :   -0.047540
  13 H :    0.038307
  14 H :    0.035959
  15 H :    0.026619
  16 S :    0.105837
  17 C :   -0.053251
  18 C :   -0.011615
  19 C :   -0.028655
  20 C :   -0.177943
  21 H :   -0.010989
  22 C :    0.106221
  23 H :    0.010713
  24 H :    0.009583
  25 C :   -0.114303
  26 H :    0.035145
  27 H :    0.034182
  28 C :   -0.062185
  29 H :    0.028496
  30 H :    0.036366
  31 H :    0.047217
  32 H :    0.028148
  33 H :    0.054258
Sum of atomic charges:   -0.0000000

LOEWDIN ATOMIC CHARGES
----------------------
   0 S :    0.364711
   1 C :   -0.169882
   2 C :   -0.049598
   3 C :   -0.057012
   4 C :   -0.180775
   5 H :    0.036328
   6 C :   -0.027466
   7 H :    0.035401
   8 H :    0.031273
   9 C :   -0.046139
  10 H :    0.017617
  11 H :    0.018622
  12 C :   -0.057105
  13 H :    0.032268
  14 H :    0.026072
  15 H :    0.013564
  16 S :    0.390010
  17 C :   -0.180657
  18 C :   -0.056139
  19 C :   -0.050176
  20 C :   -0.191330
  21 H :    0.018672
  22 C :   -0.028757
  23 H :    0.024908
  24 H :    0.021105
  25 C :   -0.039119
  26 H :    0.024790
  27 H :    0.023342
  28 C :   -0.066003
  29 H :    0.015031
  30 H :    0.027153
  31 H :    0.030881
  32 H :    0.019261
  33 H :    0.029147

  Mayer bond orders larger than 0.100000
B(  0-S ,  1-C ) :   1.0874 B(  0-S ,  4-C ) :   1.1199 B(  1-C ,  2-C ) :   1.7014
B(  1-C , 32-H ) :   0.9582 B(  2-C ,  3-C ) :   1.1744 B(  2-C ,  6-C ) :   1.0064
B(  3-C ,  4-C ) :   1.6365 B(  3-C ,  5-H ) :   0.9921 B(  4-C , 20-C ) :   1.0239
B(  6-C ,  7-H ) :   0.9346 B(  6-C ,  8-H ) :   0.9343 B(  6-C ,  9-C ) :   1.0842
B(  9-C , 10-H ) :   0.9540 B(  9-C , 11-H ) :   0.9488 B(  9-C , 12-C ) :   1.0731
B( 12-C , 13-H ) :   0.9743 B( 12-C , 14-H ) :   0.9748 B( 12-C , 15-H ) :   0.9766
B( 16-S , 17-C ) :   1.1612 B( 16-S , 20-C ) :   1.0996 B( 17-C , 18-C ) :   1.6104
B( 17-C , 33-H ) :   0.9564 B( 18-C , 19-C ) :   1.2286 B( 18-C , 21-H ) :   1.0065
B( 19-C , 20-C ) :   1.6299 B( 19-C , 22-C ) :   1.0419 B( 22-C , 23-H ) :   0.9298
B( 22-C , 24-H ) :   0.9323 B( 22-C , 25-C ) :   1.0568 B( 25-C , 26-H ) :   0.9599
B( 25-C , 27-H ) :   0.9624 B( 25-C , 28-C ) :   1.0671 B( 28-C , 29-H ) :   0.9791
B( 28-C , 30-H ) :   0.9757 B( 28-C , 31-H ) :   0.9766

Dispersion correction           -0.014725041
FINAL SINGLE POINT ENERGY     -1339.853393951028

DIPOLE MOMENT
-------------
                                X             Y             Z
Electronic contribution:     -9.78128       6.99191      21.36923
Nuclear contribution   :     10.16326      -7.19745     -21.71116
                        -----------------------------------------
Total Dipole Moment    :      0.38198      -0.20554      -0.34193
                        -----------------------------------------
Magnitude (a.u.)       :      0.55234
Magnitude (Debye)      :      1.40393

Rotational constants in cm-1:     0.021684     0.007736     0.006779
Rotational constants in MHz :   650.081699   231.909969   203.232121

                             ****ORCA TERMINATED NORMALLY****
TOTAL RUN TIME: 0 days 0 hours 0 minutes 21 seconds 579 msec
