                         Program Version 4.2.1 -  RELEASE  -
|  1> ! wB97X-D3 SP def2-SVP
|  2> %pal
|  3> nprocs 24
|  4> end
|  5>
|  6> * xyz 0 1
|  7> S 	 42.3622 	 -19.1979 	 -114.405
|  8> C 	 41.1355 	 -18.9249 	 -115.64
|  9> C 	 39.972 	 -18.405 	 -115.114
| 10> C 	 40.2727 	 -17.9408 	 -113.802
| 11> C 	 41.5323 	 -18.1406 	 -113.344
| 12> H 	 39.5337 	 -17.3701 	 -113.131
| 13> C 	 38.5369 	 -18.2737 	 -115.724
| 14> H 	 38.8491 	 -18.0293 	 -116.733
| 15> H 	 37.9345 	 -17.4454 	 -115.251
| 16> C 	 37.8389 	 -19.6693 	 -115.635
| 17> H 	 38.3573 	 -20.3346 	 -116.39
| 18> H 	 37.795 	 -20.0944 	 -114.633
| 19> C 	 36.4213 	 -19.5036 	 -116.124
| 20> H 	 35.786 	 -19.1514 	 -115.36
| 21> H 	 36.3648 	 -18.6926 	 -116.859
| 22> H 	 35.9197 	 -20.3449 	 -116.572
| 23> S 	 42.995 	 -16.1602 	 -111.993
| 24> C 	 43.1316 	 -16.2076 	 -110.207
| 25> C 	 42.6686 	 -17.4425 	 -109.759
| 26> C 	 42.0507 	 -18.2522 	 -110.79
| 27> C 	 42.119 	 -17.7093 	 -112.056
| 28> H 	 42.6839 	 -17.8016 	 -108.738
| 29> C 	 41.3148 	 -19.5188 	 -110.469
| 30> H 	 42.0048 	 -20.0946 	 -109.795
| 31> H 	 41.0694 	 -20.2009 	 -111.363
| 32> C 	 39.9925 	 -19.2379 	 -109.773
| 33> H 	 39.5255 	 -18.4703 	 -110.275
| 34> H 	 40.1318 	 -18.9329 	 -108.738
| 35> C 	 39.0403 	 -20.4427 	 -109.818
| 36> H 	 39.5187 	 -21.3325 	 -109.419
| 37> H 	 38.7242 	 -20.6203 	 -110.856
| 38> H 	 38.1827 	 -20.159 	 -109.287
| 39> H 	 41.2131 	 -19.3469 	 -116.602
| 40> H 	 43.5186 	 -15.4791 	 -109.509
| 41> *
| 42>
| 43>                          ****END OF INPUT****

CARTESIAN COORDINATES (ANGSTROEM)
---------------------------------
  S     42.362200  -19.197900  -114.405000
  C     41.135500  -18.924900  -115.640000
  C     39.972000  -18.405000  -115.114000
  C     40.272700  -17.940800  -113.802000
  C     41.532300  -18.140600  -113.344000
  H     39.533700  -17.370100  -113.131000
  C     38.536900  -18.273700  -115.724000
  H     38.849100  -18.029300  -116.733000
  H     37.934500  -17.445400  -115.251000
  C     37.838900  -19.669300  -115.635000
  H     38.357300  -20.334600  -116.390000
  H     37.795000  -20.094400  -114.633000
  C     36.421300  -19.503600  -116.124000
  H     35.786000  -19.151400  -115.360000
  H     36.364800  -18.692600  -116.859000
  H     35.919700  -20.344900  -116.572000
  S     42.995000  -16.160200  -111.993000
  C     43.131600  -16.207600  -110.207000
  C     42.668600  -17.442500  -109.759000
  C     42.050700  -18.252200  -110.790000
  C     42.119000  -17.709300  -112.056000
  H     42.683900  -17.801600  -108.738000
  C     41.314800  -19.518800  -110.469000
  H     42.004800  -20.094600  -109.795000
  H     41.069400  -20.200900  -111.363000
  C     39.992500  -19.237900  -109.773000
  H     39.525500  -18.470300  -110.275000
  H     40.131800  -18.932900  -108.738000
  C     39.040300  -20.442700  -109.818000
  H     39.518700  -21.332500  -109.419000
  H     38.724200  -20.620300  -110.856000
  H     38.182700  -20.159000  -109.287000
  H     41.213100  -19.346900  -116.602000
  H     43.518600  -15.479100  -109.509000

 Total Charge           Charge          ....    0
 Multiplicity           Mult            ....    1
 Number of Electrons    NEL             ....  134
 Basis Dimension        Dim             ....  322

ORBITAL ENERGIES
----------------

  NO   OCC          E(Eh)            E(eV)
   0   2.0000     -88.963203     -2420.8118
   1   2.0000     -88.963000     -2420.8063
   2   2.0000     -10.326108      -280.9877
   3   2.0000     -10.324467      -280.9430
   4   2.0000     -10.322637      -280.8932
   5   2.0000     -10.312032      -280.6047
   6   2.0000     -10.307141      -280.4716
   7   2.0000     -10.303405      -280.3699
   8   2.0000     -10.300941      -280.3028
   9   2.0000     -10.296863      -280.1919
  10   2.0000     -10.295898      -280.1656
  11   2.0000     -10.294415      -280.1253
  12   2.0000     -10.293794      -280.1084
  13   2.0000     -10.275446      -279.6091
  14   2.0000     -10.272382      -279.5257
  15   2.0000     -10.271183      -279.4931
  16   2.0000      -8.078647      -219.8312
  17   2.0000      -8.076511      -219.7730
  18   2.0000      -6.037135      -164.2788
  19   2.0000      -6.035308      -164.2291
  20   2.0000      -6.033227      -164.1725
  21   2.0000      -6.031124      -164.1152
  22   2.0000      -6.029206      -164.0630
  23   2.0000      -6.027074      -164.0050
  24   2.0000      -1.007086       -27.4042
  25   2.0000      -0.980169       -26.6718
  26   2.0000      -0.913153       -24.8482
  27   2.0000      -0.910368       -24.7724
  28   2.0000      -0.868329       -23.6284
  29   2.0000      -0.847084       -23.0503
  30   2.0000      -0.845855       -23.0169
  31   2.0000      -0.813010       -22.1231
  32   2.0000      -0.781924       -21.2772
  33   2.0000      -0.768308       -20.9067
  34   2.0000      -0.702316       -19.1110
  35   2.0000      -0.701134       -19.0788
  36   2.0000      -0.693153       -18.8617
  37   2.0000      -0.661763       -18.0075
  38   2.0000      -0.642031       -17.4706
  39   2.0000      -0.613600       -16.6969
  40   2.0000      -0.593670       -16.1546
  41   2.0000      -0.573325       -15.6010
  42   2.0000      -0.568461       -15.4686
  43   2.0000      -0.562993       -15.3198
  44   2.0000      -0.529785       -14.4162
  45   2.0000      -0.525003       -14.2861
  46   2.0000      -0.521037       -14.1781
  47   2.0000      -0.514101       -13.9894
  48   2.0000      -0.505209       -13.7474
  49   2.0000      -0.500763       -13.6265
  50   2.0000      -0.487786       -13.2733
  51   2.0000      -0.470708       -12.8086
  52   2.0000      -0.469474       -12.7750
  53   2.0000      -0.464030       -12.6269
  54   2.0000      -0.455585       -12.3971
  55   2.0000      -0.445218       -12.1150
  56   2.0000      -0.438758       -11.9392
  57   2.0000      -0.438030       -11.9194
  58   2.0000      -0.437200       -11.8968
  59   2.0000      -0.428883       -11.6705
  60   2.0000      -0.423586       -11.5264
  61   2.0000      -0.417824       -11.3696
  62   2.0000      -0.409982       -11.1562
  63   2.0000      -0.332407        -9.0453
  64   2.0000      -0.325385        -8.8542
  65   2.0000      -0.318451        -8.6655
  66   2.0000      -0.314712        -8.5638
  67   0.0000       0.046564         1.2671
  68   0.0000       0.050519         1.3747
  69   0.0000       0.107357         2.9213
  70   0.0000       0.117034         3.1847
  71   0.0000       0.133312         3.6276

MULLIKEN ATOMIC CHARGES
-----------------------
   0 S :    0.118579
   1 C :   -0.122932
   2 C :   -0.079844
   3 C :    0.007422
   4 C :   -0.171326
   5 H :    0.032630
   6 C :    0.047066
   7 H :    0.036064
   8 H :    0.049126
   9 C :   -0.078956
  10 H :    0.041688
  11 H :    0.045324
  12 C :   -0.023080
  13 H :    0.017147
  14 H :    0.016503
  15 H :    0.032659
  16 S :    0.100062
  17 C :   -0.087440
  18 C :   -0.024134
  19 C :   -0.018625
  20 C :   -0.177078
  21 H :    0.017880
  22 C :    0.021205
  23 H :    0.031830
  24 H :    0.041080
  25 C :   -0.052384
  26 H :    0.007859
  27 H :    0.023997
  28 C :   -0.023176
  29 H :    0.032125
  30 H :    0.029344
  31 H :    0.021293
  32 H :    0.025980
  33 H :    0.062113
Sum of atomic charges:   -0.0000000

LOEWDIN ATOMIC CHARGES
----------------------
   0 S :    0.415353
   1 C :   -0.184926
   2 C :   -0.060878
   3 C :   -0.071978
   4 C :   -0.214683
   5 H :    0.039898
   6 C :   -0.024851
   7 H :    0.034818
   8 H :    0.037135
   9 C :   -0.037610
  10 H :    0.033837
  11 H :    0.027602
  12 C :   -0.070103
  13 H :    0.018679
  14 H :    0.024975
  15 H :    0.024059
  16 S :    0.379055
  17 C :   -0.171663
  18 C :   -0.069917
  19 C :   -0.056419
  20 C :   -0.197049
  21 H :    0.029334
  22 C :   -0.040025
  23 H :    0.033673
  24 H :    0.038337
  25 C :   -0.033696
  26 H :    0.012948
  27 H :    0.021594
  28 C :   -0.055031
  29 H :    0.024070
  30 H :    0.025776
  31 H :    0.019057
  32 H :    0.013839
  33 H :    0.034791

  Mayer bond orders larger than 0.100000
B(  0-S ,  1-C ) :   1.1477 B(  0-S ,  4-C ) :   1.1496 B(  1-C ,  2-C ) :   1.6096
B(  1-C , 32-H ) :   0.9753 B(  2-C ,  3-C ) :   1.2390 B(  2-C ,  6-C ) :   0.9927
B(  3-C ,  4-C ) :   1.6178 B(  3-C ,  5-H ) :   0.9819 B(  4-C , 20-C ) :   0.9952
B(  6-C ,  7-H ) :   0.9335 B(  6-C ,  8-H ) :   0.9542 B(  6-C ,  9-C ) :   1.0613
B(  9-C , 10-H ) :   0.9552 B(  9-C , 11-H ) :   0.9645 B(  9-C , 12-C ) :   1.0796
B( 12-C , 13-H ) :   0.9727 B( 12-C , 14-H ) :   0.9681 B( 12-C , 15-H ) :   0.9741
B( 16-S , 17-C ) :   1.1443 B( 16-S , 20-C ) :   1.1182 B( 17-C , 18-C ) :   1.6144
B( 17-C , 33-H ) :   0.9688 B( 18-C , 19-C ) :   1.2280 B( 18-C , 21-H ) :   0.9836
B( 19-C , 20-C ) :   1.6371 B( 19-C , 22-C ) :   1.0548 B( 22-C , 23-H ) :   0.9250
B( 22-C , 24-H ) :   0.9396 B( 22-C , 25-C ) :   1.0628 B( 25-C , 26-H ) :   0.9533
B( 25-C , 27-H ) :   0.9493 B( 25-C , 28-C ) :   1.0995 B( 28-C , 29-H ) :   0.9742
B( 28-C , 30-H ) :   0.9741 B( 28-C , 31-H ) :   0.9727

Dispersion correction           -0.014316883
FINAL SINGLE POINT ENERGY     -1339.864883841272

DIPOLE MOMENT
-------------
                                X             Y             Z
Electronic contribution:     27.03473      12.28861      -1.55858
Nuclear contribution   :    -27.78013     -12.53364       1.75348
                        -----------------------------------------
Total Dipole Moment    :     -0.74541      -0.24503       0.19490
                        -----------------------------------------
Magnitude (a.u.)       :      0.80849
Magnitude (Debye)      :      2.05502

Rotational constants in cm-1:     0.018668     0.008423     0.006738
Rotational constants in MHz :   559.662357   252.507637   202.001340

                             ****ORCA TERMINATED NORMALLY****
TOTAL RUN TIME: 0 days 0 hours 0 minutes 21 seconds 514 msec
