                         Program Version 4.2.1 -  RELEASE  -
|  1> ! wB97X-D3 SP def2-SVP
|  2> %pal
|  3> nprocs 24
|  4> end
|  5>
|  6> * xyz 0 1
|  7> S 	 -43.4258 	 -11.4874 	 14.2947
|  8> C 	 -43.6222 	 -12.5654 	 15.6463
|  9> C 	 -42.9388 	 -11.9863 	 16.7271
| 10> C 	 -42.5348 	 -10.6201 	 16.6019
| 11> C 	 -42.8951 	 -10.1959 	 15.3347
| 12> H 	 -42.0289 	 -9.92502 	 17.2891
| 13> C 	 -42.7033 	 -12.7738 	 18.0211
| 14> H 	 -42.2003 	 -13.688 	 17.7176
| 15> H 	 -43.6609 	 -12.8867 	 18.5281
| 16> C 	 -41.8398 	 -11.9849 	 19.0558
| 17> H 	 -40.8306 	 -11.7662 	 18.6996
| 18> H 	 -42.3069 	 -11.0474 	 19.1946
| 19> C 	 -41.6766 	 -12.7844 	 20.3332
| 20> H 	 -41.5625 	 -12.0902 	 21.151
| 21> H 	 -42.5969 	 -13.3671 	 20.5846
| 22> H 	 -40.894 	 -13.4819 	 20.1992
| 23> S 	 -41.1802 	 -8.47837 	 13.9868
| 24> C 	 -41.5679 	 -6.7664 	 13.8973
| 25> C 	 -42.7164 	 -6.53514 	 14.6275
| 26> C 	 -43.2213 	 -7.68162 	 15.2983
| 27> C 	 -42.6144 	 -8.8416 	 14.8701
| 28> H 	 -43.1013 	 -5.56754 	 14.6264
| 29> C 	 -44.5817 	 -7.55537 	 15.9897
| 30> H 	 -44.7548 	 -8.47856 	 16.602
| 31> H 	 -45.4243 	 -7.60681 	 15.2635
| 32> C 	 -44.7266 	 -6.39163 	 16.9666
| 33> H 	 -45.6874 	 -6.47352 	 17.5108
| 34> H 	 -44.8899 	 -5.49212 	 16.361
| 35> C 	 -43.4473 	 -6.09679 	 17.8039
| 36> H 	 -43.663 	 -5.32781 	 18.4922
| 37> H 	 -42.5852 	 -5.8537 	 17.1709
| 38> H 	 -43.2601 	 -7.07857 	 18.3047
| 39> H 	 -44.1198 	 -13.4828 	 15.6208
| 40> H 	 -40.9957 	 -5.94762 	 13.4021
| 41> *
| 42>
| 43>                          ****END OF INPUT****

CARTESIAN COORDINATES (ANGSTROEM)
---------------------------------
  S    -43.425800  -11.487400   14.294700
  C    -43.622200  -12.565400   15.646300
  C    -42.938800  -11.986300   16.727100
  C    -42.534800  -10.620100   16.601900
  C    -42.895100  -10.195900   15.334700
  H    -42.028900   -9.925020   17.289100
  C    -42.703300  -12.773800   18.021100
  H    -42.200300  -13.688000   17.717600
  H    -43.660900  -12.886700   18.528100
  C    -41.839800  -11.984900   19.055800
  H    -40.830600  -11.766200   18.699600
  H    -42.306900  -11.047400   19.194600
  C    -41.676600  -12.784400   20.333200
  H    -41.562500  -12.090200   21.151000
  H    -42.596900  -13.367100   20.584600
  H    -40.894000  -13.481900   20.199200
  S    -41.180200   -8.478370   13.986800
  C    -41.567900   -6.766400   13.897300
  C    -42.716400   -6.535140   14.627500
  C    -43.221300   -7.681620   15.298300
  C    -42.614400   -8.841600   14.870100
  H    -43.101300   -5.567540   14.626400
  C    -44.581700   -7.555370   15.989700
  H    -44.754800   -8.478560   16.602000
  H    -45.424300   -7.606810   15.263500
  C    -44.726600   -6.391630   16.966600
  H    -45.687400   -6.473520   17.510800
  H    -44.889900   -5.492120   16.361000
  C    -43.447300   -6.096790   17.803900
  H    -43.663000   -5.327810   18.492200
  H    -42.585200   -5.853700   17.170900
  H    -43.260100   -7.078570   18.304700
  H    -44.119800  -13.482800   15.620800
  H    -40.995700   -5.947620   13.402100

 Total Charge           Charge          ....    0
 Multiplicity           Mult            ....    1
 Number of Electrons    NEL             ....  134
 Basis Dimension        Dim             ....  322

ORBITAL ENERGIES
----------------

  NO   OCC          E(Eh)            E(eV)
   0   2.0000     -88.966801     -2420.9097
   1   2.0000     -88.964136     -2420.8372
   2   2.0000     -10.326545      -280.9996
   3   2.0000     -10.321826      -280.8712
   4   2.0000     -10.317957      -280.7659
   5   2.0000     -10.310556      -280.5645
   6   2.0000     -10.303003      -280.3590
   7   2.0000     -10.298546      -280.2377
   8   2.0000     -10.297184      -280.2006
   9   2.0000     -10.291159      -280.0367
  10   2.0000     -10.289205      -279.9835
  11   2.0000     -10.285887      -279.8932
  12   2.0000     -10.285728      -279.8889
  13   2.0000     -10.280668      -279.7512
  14   2.0000     -10.277112      -279.6544
  15   2.0000     -10.274033      -279.5707
  16   2.0000      -8.081680      -219.9137
  17   2.0000      -8.079159      -219.8451
  18   2.0000      -6.040125      -164.3602
  19   2.0000      -6.037682      -164.2937
  20   2.0000      -6.036194      -164.2532
  21   2.0000      -6.033556      -164.1814
  22   2.0000      -6.032478      -164.1521
  23   2.0000      -6.029951      -164.0833
  24   2.0000      -1.009781       -27.4775
  25   2.0000      -0.986634       -26.8477
  26   2.0000      -0.910609       -24.7789
  27   2.0000      -0.904985       -24.6259
  28   2.0000      -0.872336       -23.7375
  29   2.0000      -0.849057       -23.1040
  30   2.0000      -0.841307       -22.8931
  31   2.0000      -0.816531       -22.2189
  32   2.0000      -0.779433       -21.2094
  33   2.0000      -0.768158       -20.9026
  34   2.0000      -0.711947       -19.3731
  35   2.0000      -0.693227       -18.8637
  36   2.0000      -0.688143       -18.7253
  37   2.0000      -0.656063       -17.8524
  38   2.0000      -0.643584       -17.5128
  39   2.0000      -0.614159       -16.7121
  40   2.0000      -0.591292       -16.0899
  41   2.0000      -0.580362       -15.7925
  42   2.0000      -0.567408       -15.4400
  43   2.0000      -0.555262       -15.1095
  44   2.0000      -0.536756       -14.6059
  45   2.0000      -0.533376       -14.5139
  46   2.0000      -0.516609       -14.0576
  47   2.0000      -0.512442       -13.9443
  48   2.0000      -0.502486       -13.6733
  49   2.0000      -0.495135       -13.4733
  50   2.0000      -0.488998       -13.3063
  51   2.0000      -0.486570       -13.2403
  52   2.0000      -0.472467       -12.8565
  53   2.0000      -0.465788       -12.6747
  54   2.0000      -0.456487       -12.4216
  55   2.0000      -0.448530       -12.2051
  56   2.0000      -0.444178       -12.0867
  57   2.0000      -0.434400       -11.8206
  58   2.0000      -0.431336       -11.7372
  59   2.0000      -0.425682       -11.5834
  60   2.0000      -0.419905       -11.4262
  61   2.0000      -0.407166       -11.0795
  62   2.0000      -0.398783       -10.8514
  63   2.0000      -0.339027        -9.2254
  64   2.0000      -0.328290        -8.9332
  65   2.0000      -0.325021        -8.8443
  66   2.0000      -0.299673        -8.1545
  67   0.0000       0.038424         1.0456
  68   0.0000       0.056305         1.5321
  69   0.0000       0.111734         3.0404
  70   0.0000       0.122749         3.3402
  71   0.0000       0.132229         3.5981

MULLIKEN ATOMIC CHARGES
-----------------------
   0 S :    0.121857
   1 C :   -0.100519
   2 C :   -0.104116
   3 C :    0.018692
   4 C :   -0.166529
   5 H :    0.040057
   6 C :    0.060391
   7 H :    0.038833
   8 H :    0.041482
   9 C :   -0.122089
  10 H :    0.030109
  11 H :    0.022835
  12 C :    0.005837
  13 H :    0.029369
  14 H :    0.021104
  15 H :    0.029742
  16 S :    0.114782
  17 C :   -0.115451
  18 C :   -0.015133
  19 C :   -0.037821
  20 C :   -0.152583
  21 H :   -0.001367
  22 C :    0.039327
  23 H :    0.027341
  24 H :    0.050417
  25 C :   -0.111220
  26 H :    0.035898
  27 H :    0.015982
  28 C :   -0.030528
  29 H :    0.034510
  30 H :    0.048022
  31 H :    0.029450
  32 H :    0.029781
  33 H :    0.071537
Sum of atomic charges:   -0.0000000

LOEWDIN ATOMIC CHARGES
----------------------
   0 S :    0.420089
   1 C :   -0.199956
   2 C :   -0.057530
   3 C :   -0.064450
   4 C :   -0.194550
   5 H :    0.044131
   6 C :   -0.029928
   7 H :    0.031001
   8 H :    0.034453
   9 C :   -0.043386
  10 H :    0.023847
  11 H :    0.013878
  12 C :   -0.057949
  13 H :    0.026591
  14 H :    0.026306
  15 H :    0.021584
  16 S :    0.413744
  17 C :   -0.194774
  18 C :   -0.064612
  19 C :   -0.065137
  20 C :   -0.207406
  21 H :    0.021068
  22 C :   -0.038894
  23 H :    0.030043
  24 H :    0.038824
  25 C :   -0.050621
  26 H :    0.029165
  27 H :    0.015272
  28 C :   -0.060809
  29 H :    0.020397
  30 H :    0.030643
  31 H :    0.028057
  32 H :    0.019325
  33 H :    0.041582

  Mayer bond orders larger than 0.100000
B(  0-S ,  1-C ) :   1.1346 B(  0-S ,  4-C ) :   1.1766 B(  1-C ,  2-C ) :   1.5875
B(  1-C ,  4-C ) :   0.1058 B(  1-C , 32-H ) :   0.9905 B(  2-C ,  3-C ) :   1.2429
B(  2-C ,  6-C ) :   1.0034 B(  3-C ,  4-C ) :   1.5369 B(  3-C ,  5-H ) :   0.9925
B(  4-C , 20-C ) :   1.0074 B(  6-C ,  7-H ) :   0.9441 B(  6-C ,  8-H ) :   0.9357
B(  6-C ,  9-C ) :   1.1059 B(  9-C , 10-H ) :   0.9542 B(  9-C , 11-H ) :   0.9452
B(  9-C , 12-C ) :   1.0790 B( 12-C , 13-H ) :   0.9718 B( 12-C , 14-H ) :   0.9734
B( 12-C , 15-H ) :   0.9761 B( 16-S , 17-C ) :   1.1467 B( 16-S , 20-C ) :   1.1608
B( 17-C , 18-C ) :   1.6126 B( 17-C , 33-H ) :   0.9625 B( 18-C , 19-C ) :   1.2275
B( 18-C , 21-H ) :   0.9996 B( 19-C , 20-C ) :   1.5982 B( 19-C , 22-C ) :   1.0445
B( 22-C , 23-H ) :   0.9306 B( 22-C , 24-H ) :   0.9463 B( 22-C , 25-C ) :   1.0649
B( 25-C , 26-H ) :   0.9581 B( 25-C , 27-H ) :   0.9493 B( 25-C , 28-C ) :   1.0765
B( 28-C , 29-H ) :   0.9735 B( 28-C , 30-H ) :   0.9629 B( 28-C , 31-H ) :   0.9780

Dispersion correction           -0.014575669
FINAL SINGLE POINT ENERGY     -1339.864595454715

DIPOLE MOMENT
-------------
                                X             Y             Z
Electronic contribution:      4.10747      -3.05083     -26.79160
Nuclear contribution   :     -4.27108       3.18274      27.32635
                        -----------------------------------------
Total Dipole Moment    :     -0.16361       0.13191       0.53475
                        -----------------------------------------
Magnitude (a.u.)       :      0.57457
Magnitude (Debye)      :      1.46043

Rotational constants in cm-1:     0.017698     0.008799     0.007226
Rotational constants in MHz :   530.586599   263.798334   216.640077

                             ****ORCA TERMINATED NORMALLY****
TOTAL RUN TIME: 0 days 0 hours 0 minutes 20 seconds 914 msec
