                         Program Version 4.2.1 -  RELEASE  -
|  1> ! wB97X-D3 SP def2-SVP
|  2> %pal
|  3> nprocs 24
|  4> end
|  5>
|  6> * xyz 0 1
|  7> S 	 -104.672 	 55.4788 	 -80.6215
|  8> C 	 -105.495 	 56.0948 	 -82.0416
|  9> C 	 -106.631 	 55.2552 	 -82.2918
| 10> C 	 -106.857 	 54.2784 	 -81.3146
| 11> C 	 -105.763 	 54.0959 	 -80.4989
| 12> H 	 -107.627 	 53.5297 	 -81.1987
| 13> C 	 -107.678 	 55.5597 	 -83.3704
| 14> H 	 -107.339 	 56.5358 	 -83.7733
| 15> H 	 -108.646 	 55.8123 	 -82.8629
| 16> C 	 -107.928 	 54.4198 	 -84.4144
| 17> H 	 -106.98 	 54.3061 	 -85.0976
| 18> H 	 -107.993 	 53.4386 	 -83.8628
| 19> C 	 -109.091 	 54.6307 	 -85.364
| 20> H 	 -109.192 	 53.8475 	 -86.0904
| 21> H 	 -109.935 	 54.6396 	 -84.7197
| 22> H 	 -109.129 	 55.5476 	 -85.9104
| 23> S 	 -105.755 	 53.4971 	 -77.7686
| 24> C 	 -105.748 	 51.8036 	 -77.3795
| 25> C 	 -105.457 	 51.021 	 -78.4842
| 26> C 	 -105.479 	 51.7447 	 -79.724
| 27> C 	 -105.69 	 53.0844 	 -79.4782
| 28> H 	 -105.275 	 49.9618 	 -78.4044
| 29> C 	 -105.435 	 51.0516 	 -81.0849
| 30> H 	 -104.609 	 50.3341 	 -81.0464
| 31> H 	 -105.186 	 51.7106 	 -81.9359
| 32> C 	 -106.701 	 50.2939 	 -81.6339
| 33> H 	 -106.521 	 50.0036 	 -82.6819
| 34> H 	 -107.554 	 50.9958 	 -81.5868
| 35> C 	 -107.152 	 49.0866 	 -80.8502
| 36> H 	 -107.798 	 48.3586 	 -81.2704
| 37> H 	 -107.607 	 49.3765 	 -79.9
| 38> H 	 -106.285 	 48.5035 	 -80.6005
| 39> H 	 -105.337 	 57.0177 	 -82.5301
| 40> H 	 -105.951 	 51.3985 	 -76.4335
| 41> *
| 42>
| 43>                          ****END OF INPUT****

CARTESIAN COORDINATES (ANGSTROEM)
---------------------------------
  S    -104.672000   55.478800  -80.621500
  C    -105.495000   56.094800  -82.041600
  C    -106.631000   55.255200  -82.291800
  C    -106.857000   54.278400  -81.314600
  C    -105.763000   54.095900  -80.498900
  H    -107.627000   53.529700  -81.198700
  C    -107.678000   55.559700  -83.370400
  H    -107.339000   56.535800  -83.773300
  H    -108.646000   55.812300  -82.862900
  C    -107.928000   54.419800  -84.414400
  H    -106.980000   54.306100  -85.097600
  H    -107.993000   53.438600  -83.862800
  C    -109.091000   54.630700  -85.364000
  H    -109.192000   53.847500  -86.090400
  H    -109.935000   54.639600  -84.719700
  H    -109.129000   55.547600  -85.910400
  S    -105.755000   53.497100  -77.768600
  C    -105.748000   51.803600  -77.379500
  C    -105.457000   51.021000  -78.484200
  C    -105.479000   51.744700  -79.724000
  C    -105.690000   53.084400  -79.478200
  H    -105.275000   49.961800  -78.404400
  C    -105.435000   51.051600  -81.084900
  H    -104.609000   50.334100  -81.046400
  H    -105.186000   51.710600  -81.935900
  C    -106.701000   50.293900  -81.633900
  H    -106.521000   50.003600  -82.681900
  H    -107.554000   50.995800  -81.586800
  C    -107.152000   49.086600  -80.850200
  H    -107.798000   48.358600  -81.270400
  H    -107.607000   49.376500  -79.900000
  H    -106.285000   48.503500  -80.600500
  H    -105.337000   57.017700  -82.530100
  H    -105.951000   51.398500  -76.433500

 Total Charge           Charge          ....    0
 Multiplicity           Mult            ....    1
 Number of Electrons    NEL             ....  134
 Basis Dimension        Dim             ....  322

ORBITAL ENERGIES
----------------

  NO   OCC          E(Eh)            E(eV)
   0   2.0000     -88.969330     -2420.9785
   1   2.0000     -88.966752     -2420.9084
   2   2.0000     -10.323833      -280.9258
   3   2.0000     -10.323338      -280.9123
   4   2.0000     -10.316448      -280.7248
   5   2.0000     -10.316225      -280.7188
   6   2.0000     -10.306231      -280.4468
   7   2.0000     -10.303653      -280.3766
   8   2.0000     -10.299508      -280.2639
   9   2.0000     -10.298506      -280.2366
  10   2.0000     -10.298164      -280.2273
  11   2.0000     -10.295209      -280.1469
  12   2.0000     -10.293162      -280.0912
  13   2.0000     -10.289187      -279.9830
  14   2.0000     -10.271524      -279.5024
  15   2.0000     -10.270041      -279.4620
  16   2.0000      -8.084141      -219.9807
  17   2.0000      -8.080850      -219.8911
  18   2.0000      -6.042613      -164.4279
  19   2.0000      -6.039288      -164.3374
  20   2.0000      -6.038790      -164.3238
  21   2.0000      -6.035399      -164.2316
  22   2.0000      -6.034776      -164.2146
  23   2.0000      -6.031776      -164.1330
  24   2.0000      -1.007612       -27.4185
  25   2.0000      -0.982762       -26.7423
  26   2.0000      -0.906725       -24.6732
  27   2.0000      -0.902824       -24.5671
  28   2.0000      -0.871019       -23.7016
  29   2.0000      -0.853917       -23.2363
  30   2.0000      -0.849110       -23.1054
  31   2.0000      -0.815355       -22.1869
  32   2.0000      -0.787521       -21.4295
  33   2.0000      -0.768635       -20.9156
  34   2.0000      -0.710030       -19.3209
  35   2.0000      -0.695615       -18.9286
  36   2.0000      -0.691431       -18.8148
  37   2.0000      -0.662336       -18.0231
  38   2.0000      -0.644842       -17.5470
  39   2.0000      -0.613498       -16.6941
  40   2.0000      -0.597973       -16.2717
  41   2.0000      -0.564748       -15.3676
  42   2.0000      -0.555503       -15.1160
  43   2.0000      -0.551367       -15.0035
  44   2.0000      -0.545670       -14.8484
  45   2.0000      -0.525236       -14.2924
  46   2.0000      -0.519528       -14.1371
  47   2.0000      -0.511549       -13.9199
  48   2.0000      -0.504335       -13.7237
  49   2.0000      -0.502056       -13.6616
  50   2.0000      -0.495752       -13.4901
  51   2.0000      -0.483343       -13.1524
  52   2.0000      -0.472675       -12.8622
  53   2.0000      -0.467668       -12.7259
  54   2.0000      -0.458216       -12.4687
  55   2.0000      -0.448166       -12.1952
  56   2.0000      -0.438279       -11.9262
  57   2.0000      -0.434546       -11.8246
  58   2.0000      -0.433303       -11.7908
  59   2.0000      -0.426601       -11.6084
  60   2.0000      -0.421508       -11.4698
  61   2.0000      -0.418073       -11.3763
  62   2.0000      -0.405243       -11.0272
  63   2.0000      -0.340623        -9.2688
  64   2.0000      -0.332279        -9.0418
  65   2.0000      -0.326336        -8.8800
  66   2.0000      -0.295873        -8.0511
  67   0.0000       0.033931         0.9233
  68   0.0000       0.056336         1.5330
  69   0.0000       0.111814         3.0426
  70   0.0000       0.117747         3.2041
  71   0.0000       0.126528         3.4430

MULLIKEN ATOMIC CHARGES
-----------------------
   0 S :    0.112104
   1 C :   -0.100139
   2 C :   -0.091808
   3 C :    0.037555
   4 C :   -0.175089
   5 H :    0.018532
   6 C :    0.056347
   7 H :    0.012111
   8 H :    0.036720
   9 C :   -0.125190
  10 H :    0.037874
  11 H :    0.041009
  12 C :    0.001580
  13 H :    0.031872
  14 H :    0.013585
  15 H :    0.026063
  16 S :    0.129294
  17 C :   -0.075783
  18 C :   -0.025193
  19 C :   -0.004011
  20 C :   -0.193221
  21 H :    0.016039
  22 C :    0.046502
  23 H :    0.025926
  24 H :    0.042936
  25 C :   -0.067664
  26 H :    0.038580
  27 H :    0.026554
  28 C :   -0.039568
  29 H :    0.026914
  30 H :    0.032309
  31 H :    0.007466
  32 H :    0.040482
  33 H :    0.039312
Sum of atomic charges:    0.0000000

LOEWDIN ATOMIC CHARGES
----------------------
   0 S :    0.401994
   1 C :   -0.199910
   2 C :   -0.060236
   3 C :   -0.060280
   4 C :   -0.187974
   5 H :    0.032447
   6 C :   -0.038732
   7 H :    0.027689
   8 H :    0.034051
   9 C :   -0.050190
  10 H :    0.030816
  11 H :    0.028493
  12 C :   -0.062729
  13 H :    0.026614
  14 H :    0.020016
  15 H :    0.023891
  16 S :    0.408475
  17 C :   -0.177992
  18 C :   -0.063720
  19 C :   -0.049904
  20 C :   -0.201768
  21 H :    0.029116
  22 C :   -0.032128
  23 H :    0.030616
  24 H :    0.039133
  25 C :   -0.036437
  26 H :    0.028986
  27 H :    0.022506
  28 C :   -0.072852
  29 H :    0.023023
  30 H :    0.026805
  31 H :    0.018278
  32 H :    0.022021
  33 H :    0.019883

  Mayer bond orders larger than 0.100000
B(  0-S ,  1-C ) :   1.1447 B(  0-S ,  4-C ) :   1.1516 B(  1-C ,  2-C ) :   1.5712
B(  1-C ,  4-C ) :   0.1078 B(  1-C , 32-H ) :   0.9734 B(  2-C ,  3-C ) :   1.2542
B(  2-C ,  6-C ) :   1.0311 B(  3-C ,  4-C ) :   1.5643 B(  3-C ,  5-H ) :   0.9877
B(  4-C , 20-C ) :   1.0557 B(  6-C ,  7-H ) :   0.9400 B(  6-C ,  8-H ) :   0.9446
B(  6-C ,  9-C ) :   1.0412 B(  9-C , 10-H ) :   0.9548 B(  9-C , 11-H ) :   0.9591
B(  9-C , 12-C ) :   1.0790 B( 12-C , 13-H ) :   0.9732 B( 12-C , 14-H ) :   0.9726
B( 12-C , 15-H ) :   0.9743 B( 16-S , 17-C ) :   1.1492 B( 16-S , 20-C ) :   1.1370
B( 17-C , 18-C ) :   1.6141 B( 17-C , 33-H ) :   0.9750 B( 18-C , 19-C ) :   1.2314
B( 18-C , 21-H ) :   0.9878 B( 19-C , 20-C ) :   1.6084 B( 19-C , 22-C ) :   1.0478
B( 22-C , 23-H ) :   0.9342 B( 22-C , 24-H ) :   0.9295 B( 22-C , 25-C ) :   1.0719
B( 25-C , 26-H ) :   0.9552 B( 25-C , 27-H ) :   0.9539 B( 25-C , 28-C ) :   1.0787
B( 28-C , 29-H ) :   0.9722 B( 28-C , 30-H ) :   0.9716 B( 28-C , 31-H ) :   0.9714

Dispersion correction           -0.014849480
FINAL SINGLE POINT ENERGY     -1339.871025273181

DIPOLE MOMENT
-------------
                                X             Y             Z
Electronic contribution:     15.53563      13.95894      23.45849
Nuclear contribution   :    -15.94735     -14.39444     -23.77704
                        -----------------------------------------
Total Dipole Moment    :     -0.41172      -0.43550      -0.31855
                        -----------------------------------------
Magnitude (a.u.)       :      0.67871
Magnitude (Debye)      :      1.72514

Rotational constants in cm-1:     0.017188     0.009445     0.006718
Rotational constants in MHz :   515.271553   283.156401   201.392651

                             ****ORCA TERMINATED NORMALLY****
TOTAL RUN TIME: 0 days 0 hours 0 minutes 22 seconds 11 msec
