                         Program Version 4.2.1 -  RELEASE  -
|  1> ! wB97X-D3 SP def2-SVP
|  2> %pal
|  3> nprocs 24
|  4> end
|  5>
|  6> * xyz 0 1
|  7> S 	 -97.23 	 -0.739901 	 -120.612
|  8> C 	 -98.2034 	 -0.583605 	 -122.019
|  9> C 	 -99.1307 	 0.4258 	 -121.875
| 10> C 	 -99.0427 	 1.04902 	 -120.595
| 11> C 	 -98.126 	 0.526487 	 -119.801
| 12> H 	 -99.7153 	 1.83902 	 -120.299
| 13> C 	 -100.218 	 0.905441 	 -122.743
| 14> H 	 -101.199 	 0.80553 	 -122.147
| 15> H 	 -100.227 	 0.274718 	 -123.651
| 16> C 	 -100.099 	 2.34941 	 -123.292
| 17> H 	 -100.016 	 3.05175 	 -122.482
| 18> H 	 -99.1625 	 2.46003 	 -123.81
| 19> C 	 -101.108 	 2.75052 	 -124.459
| 20> H 	 -102.17 	 2.6055 	 -124.216
| 21> H 	 -100.915 	 3.76368 	 -124.827
| 22> H 	 -101.047 	 2.14086 	 -125.361
| 23> S 	 -98.2238 	 -0.425942 	 -117.276
| 24> C 	 -97.7888 	 0.630476 	 -115.943
| 25> C 	 -97.44 	 1.91208 	 -116.352
| 26> C 	 -97.4973 	 2.06206 	 -117.775
| 27> C 	 -97.8399 	 0.871087 	 -118.424
| 28> H 	 -97.0407 	 2.66216 	 -115.619
| 29> C 	 -97.2837 	 3.40895 	 -118.485
| 30> H 	 -96.6349 	 4.06797 	 -117.819
| 31> H 	 -98.2394 	 3.91813 	 -118.588
| 32> C 	 -96.7077 	 3.3786 	 -119.942
| 33> H 	 -97.4667 	 3.18648 	 -120.629
| 34> H 	 -96.1212 	 2.4409 	 -120.047
| 35> C 	 -95.8615 	 4.61453 	 -120.314
| 36> H 	 -94.8645 	 4.68149 	 -119.851
| 37> H 	 -96.3531 	 5.50807 	 -120.01
| 38> H 	 -95.738 	 4.69835 	 -121.368
| 39> H 	 -98.1026 	 -1.21698 	 -122.896
| 40> H 	 -97.7129 	 0.376449 	 -114.932
| 41> *
| 42>
| 43>                          ****END OF INPUT****

CARTESIAN COORDINATES (ANGSTROEM)
---------------------------------
  S    -97.230000   -0.739901  -120.612000
  C    -98.203400   -0.583605  -122.019000
  C    -99.130700    0.425800  -121.875000
  C    -99.042700    1.049020  -120.595000
  C    -98.126000    0.526487  -119.801000
  H    -99.715300    1.839020  -120.299000
  C    -100.218000    0.905441  -122.743000
  H    -101.199000    0.805530  -122.147000
  H    -100.227000    0.274718  -123.651000
  C    -100.099000    2.349410  -123.292000
  H    -100.016000    3.051750  -122.482000
  H    -99.162500    2.460030  -123.810000
  C    -101.108000    2.750520  -124.459000
  H    -102.170000    2.605500  -124.216000
  H    -100.915000    3.763680  -124.827000
  H    -101.047000    2.140860  -125.361000
  S    -98.223800   -0.425942  -117.276000
  C    -97.788800    0.630476  -115.943000
  C    -97.440000    1.912080  -116.352000
  C    -97.497300    2.062060  -117.775000
  C    -97.839900    0.871087  -118.424000
  H    -97.040700    2.662160  -115.619000
  C    -97.283700    3.408950  -118.485000
  H    -96.634900    4.067970  -117.819000
  H    -98.239400    3.918130  -118.588000
  C    -96.707700    3.378600  -119.942000
  H    -97.466700    3.186480  -120.629000
  H    -96.121200    2.440900  -120.047000
  C    -95.861500    4.614530  -120.314000
  H    -94.864500    4.681490  -119.851000
  H    -96.353100    5.508070  -120.010000
  H    -95.738000    4.698350  -121.368000
  H    -98.102600   -1.216980  -122.896000
  H    -97.712900    0.376449  -114.932000

 Total Charge           Charge          ....    0
 Multiplicity           Mult            ....    1
 Number of Electrons    NEL             ....  134
 Basis Dimension        Dim             ....  322

ORBITAL ENERGIES
----------------

  NO   OCC          E(Eh)            E(eV)
   0   2.0000     -88.966634     -2420.9052
   1   2.0000     -88.964126     -2420.8369
   2   2.0000     -10.325402      -280.9685
   3   2.0000     -10.321213      -280.8545
   4   2.0000     -10.314285      -280.6660
   5   2.0000     -10.313735      -280.6510
   6   2.0000     -10.308480      -280.5080
   7   2.0000     -10.298848      -280.2459
   8   2.0000     -10.298748      -280.2432
   9   2.0000     -10.298401      -280.2337
  10   2.0000     -10.295892      -280.1655
  11   2.0000     -10.292253      -280.0664
  12   2.0000     -10.286395      -279.9070
  13   2.0000     -10.284195      -279.8472
  14   2.0000     -10.279477      -279.7188
  15   2.0000     -10.272344      -279.5247
  16   2.0000      -8.080820      -219.8903
  17   2.0000      -8.079643      -219.8583
  18   2.0000      -6.039379      -164.3399
  19   2.0000      -6.038156      -164.3066
  20   2.0000      -6.035425      -164.2323
  21   2.0000      -6.034043      -164.1947
  22   2.0000      -6.031528      -164.1262
  23   2.0000      -6.030333      -164.0937
  24   2.0000      -1.012692       -27.5568
  25   2.0000      -0.983601       -26.7652
  26   2.0000      -0.910292       -24.7703
  27   2.0000      -0.899591       -24.4791
  28   2.0000      -0.870904       -23.6985
  29   2.0000      -0.851452       -23.1692
  30   2.0000      -0.846569       -23.0363
  31   2.0000      -0.815571       -22.1928
  32   2.0000      -0.781004       -21.2522
  33   2.0000      -0.770352       -20.9624
  34   2.0000      -0.713998       -19.4289
  35   2.0000      -0.707074       -19.2405
  36   2.0000      -0.691073       -18.8050
  37   2.0000      -0.659378       -17.9426
  38   2.0000      -0.645711       -17.5707
  39   2.0000      -0.628133       -17.0924
  40   2.0000      -0.592088       -16.1115
  41   2.0000      -0.566156       -15.4059
  42   2.0000      -0.557173       -15.1614
  43   2.0000      -0.553356       -15.0576
  44   2.0000      -0.525459       -14.2985
  45   2.0000      -0.519678       -14.1412
  46   2.0000      -0.516683       -14.0597
  47   2.0000      -0.508809       -13.8454
  48   2.0000      -0.504024       -13.7152
  49   2.0000      -0.495273       -13.4771
  50   2.0000      -0.492886       -13.4121
  51   2.0000      -0.480911       -13.0863
  52   2.0000      -0.476569       -12.9681
  53   2.0000      -0.469514       -12.7761
  54   2.0000      -0.461118       -12.5477
  55   2.0000      -0.452419       -12.3109
  56   2.0000      -0.445428       -12.1207
  57   2.0000      -0.436936       -11.8896
  58   2.0000      -0.429431       -11.6854
  59   2.0000      -0.426484       -11.6052
  60   2.0000      -0.423903       -11.5350
  61   2.0000      -0.414741       -11.2857
  62   2.0000      -0.411589       -11.1999
  63   2.0000      -0.345811        -9.4100
  64   2.0000      -0.329562        -8.9678
  65   2.0000      -0.325718        -8.8632
  66   2.0000      -0.299598        -8.1525
  67   0.0000       0.036753         1.0001
  68   0.0000       0.067931         1.8485
  69   0.0000       0.114494         3.1156
  70   0.0000       0.121723         3.3122
  71   0.0000       0.124252         3.3811

MULLIKEN ATOMIC CHARGES
-----------------------
   0 S :    0.117770
   1 C :   -0.124141
   2 C :   -0.069866
   3 C :    0.032572
   4 C :   -0.162081
   5 H :    0.011159
   6 C :    0.038761
   7 H :    0.055237
   8 H :    0.013804
   9 C :   -0.067008
  10 H :    0.025003
  11 H :    0.024559
  12 C :   -0.062691
  13 H :    0.030533
  14 H :    0.041212
  15 H :    0.026001
  16 S :    0.111369
  17 C :   -0.058227
  18 C :   -0.071917
  19 C :   -0.003577
  20 C :   -0.175594
  21 H :    0.041059
  22 C :    0.029737
  23 H :    0.030286
  24 H :    0.044013
  25 C :   -0.066585
  26 H :    0.013745
  27 H :    0.035559
  28 C :   -0.015796
  29 H :    0.037110
  30 H :    0.014771
  31 H :    0.023910
  32 H :    0.046023
  33 H :    0.033290
Sum of atomic charges:   -0.0000000

LOEWDIN ATOMIC CHARGES
----------------------
   0 S :    0.414291
   1 C :   -0.203264
   2 C :   -0.070395
   3 C :   -0.057831
   4 C :   -0.198291
   5 H :    0.032272
   6 C :   -0.039679
   7 H :    0.043884
   8 H :    0.029840
   9 C :   -0.038226
  10 H :    0.016549
  11 H :    0.025742
  12 C :   -0.070752
  13 H :    0.023647
  14 H :    0.029967
  15 H :    0.025400
  16 S :    0.401313
  17 C :   -0.175180
  18 C :   -0.077138
  19 C :   -0.052950
  20 C :   -0.195849
  21 H :    0.042353
  22 C :   -0.033011
  23 H :    0.034652
  24 H :    0.034131
  25 C :   -0.041529
  26 H :    0.013164
  27 H :    0.028324
  28 C :   -0.061149
  29 H :    0.029462
  30 H :    0.018664
  31 H :    0.023620
  32 H :    0.029945
  33 H :    0.018023

  Mayer bond orders larger than 0.100000
B(  0-S ,  1-C ) :   1.1325 B(  0-S ,  4-C ) :   1.1428 B(  1-C ,  2-C ) :   1.6200
B(  1-C , 32-H ) :   0.9687 B(  2-C ,  3-C ) :   1.2111 B(  2-C ,  6-C ) :   1.0427
B(  3-C ,  4-C ) :   1.6162 B(  3-C ,  5-H ) :   1.0034 B(  4-C , 20-C ) :   1.0050
B(  6-C ,  7-H ) :   0.9367 B(  6-C ,  8-H ) :   0.9346 B(  6-C ,  9-C ) :   1.0590
B(  9-C , 10-H ) :   0.9585 B(  9-C , 11-H ) :   0.9536 B(  9-C , 12-C ) :   1.0700
B( 12-C , 13-H ) :   0.9781 B( 12-C , 14-H ) :   0.9771 B( 12-C , 15-H ) :   0.9747
B( 16-S , 17-C ) :   1.1506 B( 16-S , 20-C ) :   1.1415 B( 17-C , 18-C ) :   1.6268
B( 17-C , 20-C ) :   0.1039 B( 17-C , 33-H ) :   0.9703 B( 18-C , 19-C ) :   1.2379
B( 18-C , 21-H ) :   0.9778 B( 19-C , 20-C ) :   1.6060 B( 19-C , 22-C ) :   1.0340
B( 22-C , 23-H ) :   0.9457 B( 22-C , 24-H ) :   0.9301 B( 22-C , 25-C ) :   1.0504
B( 25-C , 26-H ) :   0.9482 B( 25-C , 27-H ) :   0.9579 B( 25-C , 28-C ) :   1.0831
B( 28-C , 29-H ) :   0.9749 B( 28-C , 30-H ) :   0.9730 B( 28-C , 31-H ) :   0.9728

Dispersion correction           -0.014876352
FINAL SINGLE POINT ENERGY     -1339.879907772050

DIPOLE MOMENT
-------------
                                X             Y             Z
Electronic contribution:      5.07878     -23.52164      18.85158
Nuclear contribution   :     -5.27924      24.07039     -19.13019
                        -----------------------------------------
Total Dipole Moment    :     -0.20046       0.54875      -0.27860
                        -----------------------------------------
Magnitude (a.u.)       :      0.64724
Magnitude (Debye)      :      1.64516

Rotational constants in cm-1:     0.018358     0.008990     0.007241
Rotational constants in MHz :   550.346042   269.500148   217.093284

                             ****ORCA TERMINATED NORMALLY****
TOTAL RUN TIME: 0 days 0 hours 0 minutes 21 seconds 207 msec
