                         Program Version 4.2.1 -  RELEASE  -
|  1> ! wB97X-D3 SP def2-SVP
|  2> %pal
|  3> nprocs 24
|  4> end
|  5>
|  6> * xyz 0 1
|  7> S 	 -137.295 	 10.9215 	 -2.93133
|  8> C 	 -136.261 	 12.3024 	 -2.53605
|  9> C 	 -135.551 	 12.1728 	 -1.34699
| 10> C 	 -135.715 	 10.8508 	 -0.819192
| 11> C 	 -136.757 	 10.125 	 -1.39785
| 12> H 	 -135.236 	 10.3988 	 -0.0438373
| 13> C 	 -134.673 	 13.2218 	 -0.670864
| 14> H 	 -134.431 	 14.0868 	 -1.2605
| 15> H 	 -133.729 	 12.7503 	 -0.330615
| 16> C 	 -135.343 	 13.7871 	 0.562696
| 17> H 	 -136.255 	 14.2814 	 0.28659
| 18> H 	 -135.624 	 12.9707 	 1.17517
| 19> C 	 -134.586 	 14.7367 	 1.38682
| 20> H 	 -134.379 	 15.6188 	 0.863577
| 21> H 	 -135.252 	 14.9239 	 2.17024
| 22> H 	 -133.751 	 14.2985 	 1.80205
| 23> S 	 -137.553 	 7.70572 	 -2.43803
| 24> C 	 -137.565 	 6.25238 	 -1.43175
| 25> C 	 -137.405 	 6.70221 	 -0.136656
| 26> C 	 -137.153 	 8.0556 	 0.110311
| 27> C 	 -137.201 	 8.76358 	 -1.05217
| 28> H 	 -137.292 	 5.90671 	 0.658489
| 29> C 	 -137.018 	 8.70428 	 1.50163
| 30> H 	 -137.206 	 9.72212 	 1.57244
| 31> H 	 -135.975 	 8.60885 	 1.83749
| 32> C 	 -137.877 	 8.01181 	 2.57826
| 33> H 	 -137.574 	 8.4268 	 3.53971
| 34> H 	 -137.715 	 6.9279 	 2.55226
| 35> C 	 -139.375 	 8.41489 	 2.50126
| 36> H 	 -139.554 	 9.48241 	 2.59461
| 37> H 	 -139.951 	 7.92772 	 3.30546
| 38> H 	 -139.756 	 8.10637 	 1.57466
| 39> H 	 -136.344 	 13.329 	 -2.9501
| 40> H 	 -137.685 	 5.2328 	 -1.56205
| 41> *
| 42>
| 43>                          ****END OF INPUT****

CARTESIAN COORDINATES (ANGSTROEM)
---------------------------------
  S    -137.295000   10.921500   -2.931330
  C    -136.261000   12.302400   -2.536050
  C    -135.551000   12.172800   -1.346990
  C    -135.715000   10.850800   -0.819192
  C    -136.757000   10.125000   -1.397850
  H    -135.236000   10.398800   -0.043837
  C    -134.673000   13.221800   -0.670864
  H    -134.431000   14.086800   -1.260500
  H    -133.729000   12.750300   -0.330615
  C    -135.343000   13.787100    0.562696
  H    -136.255000   14.281400    0.286590
  H    -135.624000   12.970700    1.175170
  C    -134.586000   14.736700    1.386820
  H    -134.379000   15.618800    0.863577
  H    -135.252000   14.923900    2.170240
  H    -133.751000   14.298500    1.802050
  S    -137.553000    7.705720   -2.438030
  C    -137.565000    6.252380   -1.431750
  C    -137.405000    6.702210   -0.136656
  C    -137.153000    8.055600    0.110311
  C    -137.201000    8.763580   -1.052170
  H    -137.292000    5.906710    0.658489
  C    -137.018000    8.704280    1.501630
  H    -137.206000    9.722120    1.572440
  H    -135.975000    8.608850    1.837490
  C    -137.877000    8.011810    2.578260
  H    -137.574000    8.426800    3.539710
  H    -137.715000    6.927900    2.552260
  C    -139.375000    8.414890    2.501260
  H    -139.554000    9.482410    2.594610
  H    -139.951000    7.927720    3.305460
  H    -139.756000    8.106370    1.574660
  H    -136.344000   13.329000   -2.950100
  H    -137.685000    5.232800   -1.562050

 Total Charge           Charge          ....    0
 Multiplicity           Mult            ....    1
 Number of Electrons    NEL             ....  134
 Basis Dimension        Dim             ....  322

ORBITAL ENERGIES
----------------

  NO   OCC          E(Eh)            E(eV)
   0   2.0000     -88.969299     -2420.9777
   1   2.0000     -88.966904     -2420.9125
   2   2.0000     -10.337808      -281.3061
   3   2.0000     -10.330291      -281.1015
   4   2.0000     -10.317247      -280.7466
   5   2.0000     -10.316646      -280.7302
   6   2.0000     -10.305982      -280.4400
   7   2.0000     -10.303284      -280.3666
   8   2.0000     -10.295711      -280.1605
   9   2.0000     -10.293083      -280.0890
  10   2.0000     -10.293047      -280.0881
  11   2.0000     -10.292470      -280.0724
  12   2.0000     -10.288666      -279.9688
  13   2.0000     -10.272346      -279.5248
  14   2.0000     -10.271502      -279.5018
  15   2.0000     -10.259871      -279.1853
  16   2.0000      -8.082583      -219.9383
  17   2.0000      -8.080794      -219.8896
  18   2.0000      -6.041328      -164.3929
  19   2.0000      -6.039553      -164.3446
  20   2.0000      -6.037449      -164.2873
  21   2.0000      -6.035400      -164.2316
  22   2.0000      -6.033031      -164.1671
  23   2.0000      -6.031321      -164.1206
  24   2.0000      -1.005851       -27.3706
  25   2.0000      -0.980426       -26.6788
  26   2.0000      -0.923585       -25.1320
  27   2.0000      -0.909766       -24.7560
  28   2.0000      -0.873118       -23.7587
  29   2.0000      -0.856032       -23.2938
  30   2.0000      -0.843001       -22.9392
  31   2.0000      -0.818683       -22.2775
  32   2.0000      -0.787821       -21.4377
  33   2.0000      -0.780412       -21.2361
  34   2.0000      -0.709256       -19.2998
  35   2.0000      -0.701553       -19.0902
  36   2.0000      -0.695505       -18.9257
  37   2.0000      -0.656750       -17.8711
  38   2.0000      -0.643684       -17.5155
  39   2.0000      -0.622856       -16.9488
  40   2.0000      -0.607649       -16.5350
  41   2.0000      -0.581627       -15.8269
  42   2.0000      -0.565499       -15.3880
  43   2.0000      -0.550630       -14.9834
  44   2.0000      -0.540845       -14.7171
  45   2.0000      -0.531012       -14.4496
  46   2.0000      -0.523577       -14.2473
  47   2.0000      -0.514549       -14.0016
  48   2.0000      -0.509118       -13.8538
  49   2.0000      -0.501979       -13.6596
  50   2.0000      -0.490896       -13.3580
  51   2.0000      -0.478660       -13.0250
  52   2.0000      -0.477877       -13.0037
  53   2.0000      -0.472184       -12.8488
  54   2.0000      -0.460127       -12.5207
  55   2.0000      -0.448352       -12.2003
  56   2.0000      -0.446595       -12.1525
  57   2.0000      -0.433186       -11.7876
  58   2.0000      -0.430408       -11.7120
  59   2.0000      -0.427189       -11.6244
  60   2.0000      -0.425026       -11.5655
  61   2.0000      -0.420801       -11.4506
  62   2.0000      -0.408757       -11.1228
  63   2.0000      -0.357213        -9.7203
  64   2.0000      -0.335784        -9.1372
  65   2.0000      -0.329627        -8.9696
  66   2.0000      -0.285072        -7.7572
  67   0.0000       0.018862         0.5133
  68   0.0000       0.074588         2.0297
  69   0.0000       0.092344         2.5128
  70   0.0000       0.121748         3.3129
  71   0.0000       0.133667         3.6373

MULLIKEN ATOMIC CHARGES
-----------------------
   0 S :    0.094378
   1 C :   -0.106921
   2 C :   -0.086525
   3 C :    0.050317
   4 C :   -0.132624
   5 H :   -0.027659
   6 C :    0.092092
   7 H :    0.010441
   8 H :    0.026672
   9 C :   -0.116746
  10 H :    0.014787
  11 H :    0.006330
  12 C :    0.071874
  13 H :    0.016717
  14 H :    0.014466
  15 H :    0.004713
  16 S :    0.089972
  17 C :   -0.035716
  18 C :   -0.094050
  19 C :   -0.035556
  20 C :   -0.128506
  21 H :    0.033500
  22 C :    0.086873
  23 H :    0.011493
  24 H :    0.035498
  25 C :   -0.090930
  26 H :    0.022540
  27 H :    0.034025
  28 C :   -0.034461
  29 H :    0.028616
  30 H :    0.035527
  31 H :    0.025575
  32 H :    0.057637
  33 H :    0.025651
Sum of atomic charges:    0.0000000

LOEWDIN ATOMIC CHARGES
----------------------
   0 S :    0.367321
   1 C :   -0.199044
   2 C :   -0.054179
   3 C :   -0.046950
   4 C :   -0.162428
   5 H :    0.013341
   6 C :   -0.027559
   7 H :    0.025135
   8 H :    0.033852
   9 C :   -0.039675
  10 H :    0.021316
  11 H :    0.015104
  12 C :   -0.043204
  13 H :    0.018872
  14 H :    0.027869
  15 H :    0.014550
  16 S :    0.387732
  17 C :   -0.174992
  18 C :   -0.078360
  19 C :   -0.066557
  20 C :   -0.178447
  21 H :    0.034811
  22 C :   -0.022950
  23 H :    0.020546
  24 H :    0.034298
  25 C :   -0.035760
  26 H :    0.023870
  27 H :    0.021669
  28 C :   -0.060746
  29 H :    0.025031
  30 H :    0.028617
  31 H :    0.016705
  32 H :    0.035916
  33 H :    0.024296

  Mayer bond orders larger than 0.100000
B(  0-S ,  1-C ) :   1.1200 B(  0-S ,  4-C ) :   1.1234 B(  1-C ,  2-C ) :   1.6585
B(  1-C , 32-H ) :   0.9518 B(  2-C ,  3-C ) :   1.1971 B(  2-C ,  6-C ) :   1.0362
B(  3-C ,  4-C ) :   1.5976 B(  3-C ,  5-H ) :   0.9991 B(  4-C , 20-C ) :   1.0517
B(  6-C ,  7-H ) :   0.9395 B(  6-C ,  8-H ) :   0.9363 B(  6-C ,  9-C ) :   1.0668
B(  9-C , 10-H ) :   0.9501 B(  9-C , 11-H ) :   0.9537 B(  9-C , 12-C ) :   1.1040
B( 12-C , 13-H ) :   0.9683 B( 12-C , 14-H ) :   0.9647 B( 12-C , 15-H ) :   0.9657
B( 16-S , 17-C ) :   1.1334 B( 16-S , 20-C ) :   1.1283 B( 17-C , 18-C ) :   1.6325
B( 17-C , 33-H ) :   0.9718 B( 18-C , 19-C ) :   1.2560 B( 18-C , 21-H ) :   0.9660
B( 19-C , 20-C ) :   1.6139 B( 19-C , 22-C ) :   1.0193 B( 22-C , 23-H ) :   0.9451
B( 22-C , 24-H ) :   0.9245 B( 22-C , 25-C ) :   1.0845 B( 25-C , 26-H ) :   0.9535
B( 25-C , 27-H ) :   0.9529 B( 25-C , 28-C ) :   1.0750 B( 28-C , 29-H ) :   0.9736
B( 28-C , 30-H ) :   0.9755 B( 28-C , 31-H ) :   0.9782

Dispersion correction           -0.013825982
FINAL SINGLE POINT ENERGY     -1339.853762339650

DIPOLE MOMENT
-------------
                                X             Y             Z
Electronic contribution:     -4.32053     -12.43583     -26.95761
Nuclear contribution   :      4.61268      12.61685      27.81124
                        -----------------------------------------
Total Dipole Moment    :      0.29215       0.18102       0.85363
                        -----------------------------------------
Magnitude (a.u.)       :      0.92022
Magnitude (Debye)      :      2.33901

Rotational constants in cm-1:     0.018119     0.008738     0.006426
Rotational constants in MHz :   543.191467   261.957132   192.635048

                             ****ORCA TERMINATED NORMALLY****
TOTAL RUN TIME: 0 days 0 hours 0 minutes 20 seconds 506 msec
