                         Program Version 4.2.1 -  RELEASE  -
|  1> ! wB97X-D3 SP def2-SVP
|  2> %pal
|  3> nprocs 24
|  4> end
|  5>
|  6> * xyz 0 1
|  7> S 	 -43.2022 	 15.8724 	 -102.711
|  8> C 	 -43.5826 	 16.9825 	 -101.422
|  9> C 	 -43.6574 	 18.2751 	 -101.903
| 10> C 	 -43.459 	 18.3422 	 -103.328
| 11> C 	 -43.2825 	 17.0915 	 -103.944
| 12> H 	 -43.4284 	 19.1659 	 -103.988
| 13> C 	 -44.0897 	 19.506 	 -101.078
| 14> H 	 -43.6278 	 20.4513 	 -101.434
| 15> H 	 -43.7751 	 19.214 	 -100.086
| 16> C 	 -45.6097 	 19.7268 	 -100.926
| 17> H 	 -45.9987 	 18.7359 	 -100.802
| 18> H 	 -45.9134 	 20.2391 	 -99.9847
| 19> C 	 -46.215 	 20.3309 	 -102.2
| 20> H 	 -45.5817 	 21.1127 	 -102.642
| 21> H 	 -46.3545 	 19.5437 	 -102.953
| 22> H 	 -47.1562 	 20.7964 	 -102.075
| 23> S 	 -41.2253 	 16.1333 	 -105.391
| 24> C 	 -41.2917 	 16.2748 	 -107.217
| 25> C 	 -42.4851 	 16.653 	 -107.613
| 26> C 	 -43.315 	 17.1481 	 -106.537
| 27> C 	 -42.7843 	 16.8763 	 -105.283
| 28> H 	 -42.75 	 16.7018 	 -108.647
| 29> C 	 -44.7261 	 17.7833 	 -106.711
| 30> H 	 -44.6144 	 18.8186 	 -107.102
| 31> H 	 -45.1158 	 17.9462 	 -105.716
| 32> C 	 -45.7595 	 17.0481 	 -107.576
| 33> H 	 -45.4926 	 16.9159 	 -108.67
| 34> H 	 -46.6237 	 17.6285 	 -107.712
| 35> C 	 -46.1428 	 15.7879 	 -106.92
| 36> H 	 -46.772 	 15.1937 	 -107.527
| 37> H 	 -46.7558 	 15.9359 	 -106.051
| 38> H 	 -45.2541 	 15.18 	 -106.968
| 39> H 	 -43.7428 	 16.5644 	 -100.445
| 40> H 	 -40.6099 	 15.8476 	 -107.93
| 41> *
| 42>
| 43>                          ****END OF INPUT****

CARTESIAN COORDINATES (ANGSTROEM)
---------------------------------
  S    -43.202200   15.872400  -102.711000
  C    -43.582600   16.982500  -101.422000
  C    -43.657400   18.275100  -101.903000
  C    -43.459000   18.342200  -103.328000
  C    -43.282500   17.091500  -103.944000
  H    -43.428400   19.165900  -103.988000
  C    -44.089700   19.506000  -101.078000
  H    -43.627800   20.451300  -101.434000
  H    -43.775100   19.214000  -100.086000
  C    -45.609700   19.726800  -100.926000
  H    -45.998700   18.735900  -100.802000
  H    -45.913400   20.239100  -99.984700
  C    -46.215000   20.330900  -102.200000
  H    -45.581700   21.112700  -102.642000
  H    -46.354500   19.543700  -102.953000
  H    -47.156200   20.796400  -102.075000
  S    -41.225300   16.133300  -105.391000
  C    -41.291700   16.274800  -107.217000
  C    -42.485100   16.653000  -107.613000
  C    -43.315000   17.148100  -106.537000
  C    -42.784300   16.876300  -105.283000
  H    -42.750000   16.701800  -108.647000
  C    -44.726100   17.783300  -106.711000
  H    -44.614400   18.818600  -107.102000
  H    -45.115800   17.946200  -105.716000
  C    -45.759500   17.048100  -107.576000
  H    -45.492600   16.915900  -108.670000
  H    -46.623700   17.628500  -107.712000
  C    -46.142800   15.787900  -106.920000
  H    -46.772000   15.193700  -107.527000
  H    -46.755800   15.935900  -106.051000
  H    -45.254100   15.180000  -106.968000
  H    -43.742800   16.564400  -100.445000
  H    -40.609900   15.847600  -107.930000

 Total Charge           Charge          ....    0
 Multiplicity           Mult            ....    1
 Number of Electrons    NEL             ....  134
 Basis Dimension        Dim             ....  322

ORBITAL ENERGIES
----------------

  NO   OCC          E(Eh)            E(eV)
   0   2.0000     -88.966149     -2420.8920
   1   2.0000     -88.961743     -2420.7721
   2   2.0000     -10.328751      -281.0596
   3   2.0000     -10.325228      -280.9637
   4   2.0000     -10.318787      -280.7885
   5   2.0000     -10.313531      -280.6454
   6   2.0000     -10.309096      -280.5248
   7   2.0000     -10.304480      -280.3992
   8   2.0000     -10.295436      -280.1531
   9   2.0000     -10.295339      -280.1504
  10   2.0000     -10.291892      -280.0566
  11   2.0000     -10.289419      -279.9893
  12   2.0000     -10.286670      -279.9145
  13   2.0000     -10.280101      -279.7358
  14   2.0000     -10.274102      -279.5725
  15   2.0000     -10.260881      -279.2128
  16   2.0000      -8.081380      -219.9055
  17   2.0000      -8.076032      -219.7600
  18   2.0000      -6.039872      -164.3533
  19   2.0000      -6.035592      -164.2368
  20   2.0000      -6.034838      -164.2163
  21   2.0000      -6.032352      -164.1486
  22   2.0000      -6.030772      -164.1057
  23   2.0000      -6.026283      -163.9835
  24   2.0000      -1.008668       -27.4473
  25   2.0000      -0.983577       -26.7645
  26   2.0000      -0.911733       -24.8095
  27   2.0000      -0.910136       -24.7661
  28   2.0000      -0.878025       -23.8923
  29   2.0000      -0.847824       -23.0705
  30   2.0000      -0.841415       -22.8961
  31   2.0000      -0.821573       -22.3561
  32   2.0000      -0.782580       -21.2951
  33   2.0000      -0.771269       -20.9873
  34   2.0000      -0.706273       -19.2187
  35   2.0000      -0.701760       -19.0959
  36   2.0000      -0.694879       -18.9086
  37   2.0000      -0.660230       -17.9658
  38   2.0000      -0.650279       -17.6950
  39   2.0000      -0.610670       -16.6172
  40   2.0000      -0.593867       -16.1599
  41   2.0000      -0.575317       -15.6552
  42   2.0000      -0.559428       -15.2228
  43   2.0000      -0.552896       -15.0451
  44   2.0000      -0.551927       -15.0187
  45   2.0000      -0.539604       -14.6834
  46   2.0000      -0.517399       -14.0791
  47   2.0000      -0.514521       -14.0008
  48   2.0000      -0.505098       -13.7444
  49   2.0000      -0.490447       -13.3458
  50   2.0000      -0.486284       -13.2325
  51   2.0000      -0.483867       -13.1667
  52   2.0000      -0.468054       -12.7364
  53   2.0000      -0.465690       -12.6721
  54   2.0000      -0.460184       -12.5223
  55   2.0000      -0.439884       -11.9698
  56   2.0000      -0.438669       -11.9368
  57   2.0000      -0.434917       -11.8347
  58   2.0000      -0.432381       -11.7657
  59   2.0000      -0.427401       -11.6302
  60   2.0000      -0.418997       -11.4015
  61   2.0000      -0.410825       -11.1791
  62   2.0000      -0.409035       -11.1304
  63   2.0000      -0.354431        -9.6446
  64   2.0000      -0.329869        -8.9762
  65   2.0000      -0.326157        -8.8752
  66   2.0000      -0.296331        -8.0636
  67   0.0000       0.032394         0.8815
  68   0.0000       0.065623         1.7857
  69   0.0000       0.108271         2.9462
  70   0.0000       0.123381         3.3574
  71   0.0000       0.132003         3.5920

MULLIKEN ATOMIC CHARGES
-----------------------
   0 S :    0.105103
   1 C :   -0.135390
   2 C :   -0.064421
   3 C :    0.057247
   4 C :   -0.172391
   5 H :    0.000013
   6 C :    0.061365
   7 H :    0.038339
   8 H :    0.016846
   9 C :   -0.052400
  10 H :    0.013518
  11 H :    0.038443
  12 C :   -0.050491
  13 H :    0.022568
  14 H :    0.040235
  15 H :    0.023404
  16 S :    0.090303
  17 C :   -0.072436
  18 C :   -0.011243
  19 C :   -0.072496
  20 C :   -0.146560
  21 H :    0.014883
  22 C :    0.076178
  23 H :    0.032679
  24 H :    0.013864
  25 C :   -0.074386
  26 H :    0.025816
  27 H :    0.005058
  28 C :    0.006186
  29 H :   -0.000985
  30 H :    0.034824
  31 H :    0.031861
  32 H :    0.054941
  33 H :    0.049525
Sum of atomic charges:   -0.0000000

LOEWDIN ATOMIC CHARGES
----------------------
   0 S :    0.418597
   1 C :   -0.191974
   2 C :   -0.061878
   3 C :   -0.052215
   4 C :   -0.205331
   5 H :    0.024621
   6 C :   -0.027154
   7 H :    0.031473
   8 H :    0.029347
   9 C :   -0.041626
  10 H :    0.021427
  11 H :    0.027881
  12 C :   -0.068286
  13 H :    0.022848
  14 H :    0.029830
  15 H :    0.019961
  16 S :    0.373297
  17 C :   -0.157173
  18 C :   -0.064401
  19 C :   -0.058970
  20 C :   -0.199344
  21 H :    0.031744
  22 C :   -0.030530
  23 H :    0.032608
  24 H :    0.026781
  25 C :   -0.048549
  26 H :    0.027639
  27 H :    0.016563
  28 C :   -0.063734
  29 H :    0.019156
  30 H :    0.029257
  31 H :    0.031191
  32 H :    0.026799
  33 H :    0.030148

  Mayer bond orders larger than 0.100000
B(  0-S ,  1-C ) :   1.1558 B(  0-S ,  4-C ) :   1.1620 B(  1-C ,  2-C ) :   1.5720
B(  1-C , 32-H ) :   0.9777 B(  2-C ,  3-C ) :   1.2446 B(  2-C ,  6-C ) :   1.0272
B(  3-C ,  4-C ) :   1.5460 B(  3-C ,  5-H ) :   1.0007 B(  4-C , 20-C ) :   1.0374
B(  6-C ,  7-H ) :   0.9498 B(  6-C ,  8-H ) :   0.9325 B(  6-C ,  9-C ) :   1.0682
B(  9-C , 10-H ) :   0.9511 B(  9-C , 11-H ) :   0.9610 B(  9-C , 12-C ) :   1.0710
B( 12-C , 13-H ) :   0.9783 B( 12-C , 14-H ) :   0.9748 B( 12-C , 15-H ) :   0.9736
B( 16-S , 17-C ) :   1.0997 B( 16-S , 20-C ) :   1.1324 B( 17-C , 18-C ) :   1.6971
B( 17-C , 33-H ) :   0.9610 B( 18-C , 19-C ) :   1.1925 B( 18-C , 21-H ) :   0.9878
B( 19-C , 20-C ) :   1.6323 B( 19-C , 22-C ) :   1.0379 B( 22-C , 23-H ) :   0.9311
B( 22-C , 24-H ) :   0.9317 B( 22-C , 25-C ) :   1.0777 B( 25-C , 26-H ) :   0.9504
B( 25-C , 27-H ) :   0.9456 B( 25-C , 28-C ) :   1.0939 B( 28-C , 29-H ) :   0.9620
B( 28-C , 30-H ) :   0.9708 B( 28-C , 31-H ) :   0.9707

Dispersion correction           -0.014855762
FINAL SINGLE POINT ENERGY     -1339.863337511696

DIPOLE MOMENT
-------------
                                X             Y             Z
Electronic contribution:     22.24166     -13.49014       1.87181
Nuclear contribution   :    -22.76830      13.82408      -2.00421
                        -----------------------------------------
Total Dipole Moment    :     -0.52664       0.33393      -0.13240
                        -----------------------------------------
Magnitude (a.u.)       :      0.63749
Magnitude (Debye)      :      1.62037

Rotational constants in cm-1:     0.019126     0.009132     0.007282
Rotational constants in MHz :   573.396715   273.759089   218.294755

                             ****ORCA TERMINATED NORMALLY****
TOTAL RUN TIME: 0 days 0 hours 0 minutes 22 seconds 209 msec
