                         Program Version 4.2.1 -  RELEASE  -
|  1> ! wB97X-D3 SP def2-SVP
|  2> %pal
|  3> nprocs 24
|  4> end
|  5>
|  6> * xyz 0 1
|  7> S 	 -112.324 	 62.5368 	 -71.4734
|  8> C 	 -111.193 	 61.1767 	 -71.8215
|  9> C 	 -110.406 	 61.5305 	 -72.8917
| 10> C 	 -110.641 	 62.8657 	 -73.4122
| 11> C 	 -111.744 	 63.4266 	 -72.8354
| 12> H 	 -110.053 	 63.3281 	 -74.1328
| 13> C 	 -109.394 	 60.6728 	 -73.5046
| 14> H 	 -109.716 	 60.5038 	 -74.5674
| 15> H 	 -109.454 	 59.6948 	 -72.9733
| 16> C 	 -107.94 	 61.2225 	 -73.5109
| 17> H 	 -107.351 	 60.3839 	 -73.7628
| 18> H 	 -107.8 	 61.8827 	 -74.3845
| 19> C 	 -107.554 	 61.9941 	 -72.1543
| 20> H 	 -108.041 	 62.9242 	 -71.927
| 21> H 	 -107.69 	 61.4757 	 -71.2671
| 22> H 	 -106.483 	 62.2296 	 -72.2453
| 23> S 	 -112.58 	 65.8892 	 -71.9453
| 24> C 	 -113.168 	 67.0354 	 -73.0906
| 25> C 	 -112.938 	 66.5776 	 -74.3681
| 26> C 	 -112.488 	 65.2408 	 -74.4458
| 27> C 	 -112.345 	 64.6999 	 -73.2009
| 28> H 	 -113.174 	 67.2801 	 -75.1174
| 29> C 	 -112.114 	 64.6564 	 -75.7174
| 30> H 	 -110.997 	 64.4186 	 -75.8138
| 31> H 	 -112.294 	 65.339 	 -76.5531
| 32> C 	 -112.715 	 63.2747 	 -76.0303
| 33> H 	 -112.457 	 62.4352 	 -75.3824
| 34> H 	 -112.341 	 62.8991 	 -76.9896
| 35> C 	 -114.284 	 63.2808 	 -76.1337
| 36> H 	 -114.63 	 64.1008 	 -76.7392
| 37> H 	 -114.653 	 63.4209 	 -75.1225
| 38> H 	 -114.615 	 62.2729 	 -76.4071
| 39> H 	 -111.222 	 60.1908 	 -71.2691
| 40> H 	 -113.544 	 68.0597 	 -72.9574
| 41> *
| 42>
| 43>                          ****END OF INPUT****

CARTESIAN COORDINATES (ANGSTROEM)
---------------------------------
  S    -112.324000   62.536800  -71.473400
  C    -111.193000   61.176700  -71.821500
  C    -110.406000   61.530500  -72.891700
  C    -110.641000   62.865700  -73.412200
  C    -111.744000   63.426600  -72.835400
  H    -110.053000   63.328100  -74.132800
  C    -109.394000   60.672800  -73.504600
  H    -109.716000   60.503800  -74.567400
  H    -109.454000   59.694800  -72.973300
  C    -107.940000   61.222500  -73.510900
  H    -107.351000   60.383900  -73.762800
  H    -107.800000   61.882700  -74.384500
  C    -107.554000   61.994100  -72.154300
  H    -108.041000   62.924200  -71.927000
  H    -107.690000   61.475700  -71.267100
  H    -106.483000   62.229600  -72.245300
  S    -112.580000   65.889200  -71.945300
  C    -113.168000   67.035400  -73.090600
  C    -112.938000   66.577600  -74.368100
  C    -112.488000   65.240800  -74.445800
  C    -112.345000   64.699900  -73.200900
  H    -113.174000   67.280100  -75.117400
  C    -112.114000   64.656400  -75.717400
  H    -110.997000   64.418600  -75.813800
  H    -112.294000   65.339000  -76.553100
  C    -112.715000   63.274700  -76.030300
  H    -112.457000   62.435200  -75.382400
  H    -112.341000   62.899100  -76.989600
  C    -114.284000   63.280800  -76.133700
  H    -114.630000   64.100800  -76.739200
  H    -114.653000   63.420900  -75.122500
  H    -114.615000   62.272900  -76.407100
  H    -111.222000   60.190800  -71.269100
  H    -113.544000   68.059700  -72.957400

 Total Charge           Charge          ....    0
 Multiplicity           Mult            ....    1
 Number of Electrons    NEL             ....  134
 Basis Dimension        Dim             ....  322

ORBITAL ENERGIES
----------------

  NO   OCC          E(Eh)            E(eV)
   0   2.0000     -88.966657     -2420.9058
   1   2.0000     -88.962002     -2420.7791
   2   2.0000     -10.326542      -280.9995
   3   2.0000     -10.321464      -280.8613
   4   2.0000     -10.319902      -280.8188
   5   2.0000     -10.314368      -280.6682
   6   2.0000     -10.298511      -280.2367
   7   2.0000     -10.297015      -280.1960
   8   2.0000     -10.295055      -280.1427
   9   2.0000     -10.294726      -280.1337
  10   2.0000     -10.292529      -280.0739
  11   2.0000     -10.287710      -279.9428
  12   2.0000     -10.286153      -279.9004
  13   2.0000     -10.282088      -279.7898
  14   2.0000     -10.274892      -279.5940
  15   2.0000     -10.269090      -279.4361
  16   2.0000      -8.081841      -219.9181
  17   2.0000      -8.076685      -219.7778
  18   2.0000      -6.040349      -164.3662
  19   2.0000      -6.036302      -164.2561
  20   2.0000      -6.035368      -164.2307
  21   2.0000      -6.032553      -164.1541
  22   2.0000      -6.031218      -164.1178
  23   2.0000      -6.027240      -164.0095
  24   2.0000      -1.013769       -27.5861
  25   2.0000      -0.986600       -26.8467
  26   2.0000      -0.911468       -24.8023
  27   2.0000      -0.911040       -24.7907
  28   2.0000      -0.866536       -23.5796
  29   2.0000      -0.848705       -23.0944
  30   2.0000      -0.839149       -22.8344
  31   2.0000      -0.816445       -22.2166
  32   2.0000      -0.784886       -21.3578
  33   2.0000      -0.775723       -21.1085
  34   2.0000      -0.717089       -19.5130
  35   2.0000      -0.705208       -19.1897
  36   2.0000      -0.686934       -18.6924
  37   2.0000      -0.663147       -18.0451
  38   2.0000      -0.637073       -17.3356
  39   2.0000      -0.623708       -16.9720
  40   2.0000      -0.594580       -16.1794
  41   2.0000      -0.562512       -15.3067
  42   2.0000      -0.552054       -15.0221
  43   2.0000      -0.547471       -14.8974
  44   2.0000      -0.541491       -14.7347
  45   2.0000      -0.534894       -14.5552
  46   2.0000      -0.520449       -14.1621
  47   2.0000      -0.510114       -13.8809
  48   2.0000      -0.504857       -13.7379
  49   2.0000      -0.497739       -13.5442
  50   2.0000      -0.495251       -13.4765
  51   2.0000      -0.479026       -13.0350
  52   2.0000      -0.472182       -12.8487
  53   2.0000      -0.464309       -12.6345
  54   2.0000      -0.462454       -12.5840
  55   2.0000      -0.456069       -12.4103
  56   2.0000      -0.441194       -12.0055
  57   2.0000      -0.432864       -11.7788
  58   2.0000      -0.425912       -11.5896
  59   2.0000      -0.420276       -11.4363
  60   2.0000      -0.418412       -11.3856
  61   2.0000      -0.413966       -11.2646
  62   2.0000      -0.413070       -11.2402
  63   2.0000      -0.347227        -9.4485
  64   2.0000      -0.329619        -8.9694
  65   2.0000      -0.324909        -8.8412
  66   2.0000      -0.293164        -7.9774
  67   0.0000       0.026558         0.7227
  68   0.0000       0.077588         2.1113
  69   0.0000       0.106310         2.8928
  70   0.0000       0.112229         3.0539
  71   0.0000       0.131308         3.5731

MULLIKEN ATOMIC CHARGES
-----------------------
   0 S :    0.089669
   1 C :   -0.154176
   2 C :   -0.093090
   3 C :    0.045606
   4 C :   -0.139613
   5 H :   -0.017375
   6 C :    0.045554
   7 H :    0.042300
   8 H :    0.017925
   9 C :   -0.062649
  10 H :    0.026580
  11 H :    0.029142
  12 C :   -0.028370
  13 H :    0.036315
  14 H :    0.016988
  15 H :    0.033777
  16 S :    0.118905
  17 C :   -0.094154
  18 C :   -0.054062
  19 C :    0.025232
  20 C :   -0.127417
  21 H :   -0.001083
  22 C :    0.037425
  23 H :    0.044154
  24 H :    0.021319
  25 C :   -0.106133
  26 H :    0.045306
  27 H :    0.014379
  28 C :   -0.040209
  29 H :    0.028142
  30 H :    0.034659
  31 H :    0.031949
  32 H :    0.073537
  33 H :    0.059471
Sum of atomic charges:   -0.0000000

LOEWDIN ATOMIC CHARGES
----------------------
   0 S :    0.382915
   1 C :   -0.198642
   2 C :   -0.062969
   3 C :   -0.053526
   4 C :   -0.187082
   5 H :    0.019100
   6 C :   -0.041626
   7 H :    0.038338
   8 H :    0.030116
   9 C :   -0.032788
  10 H :    0.022033
  11 H :    0.024889
  12 C :   -0.063462
  13 H :    0.029099
  14 H :    0.016702
  15 H :    0.030078
  16 S :    0.421479
  17 C :   -0.197689
  18 C :   -0.067248
  19 C :   -0.062619
  20 C :   -0.196884
  21 H :    0.024450
  22 C :   -0.038384
  23 H :    0.041659
  24 H :    0.032932
  25 C :   -0.043984
  26 H :    0.025746
  27 H :    0.018995
  28 C :   -0.063682
  29 H :    0.019206
  30 H :    0.024620
  31 H :    0.026761
  32 H :    0.043438
  33 H :    0.038029

  Mayer bond orders larger than 0.100000
B(  0-S ,  1-C ) :   1.0952 B(  0-S ,  4-C ) :   1.1576 B(  1-C ,  2-C ) :   1.6375
B(  1-C , 32-H ) :   0.9610 B(  2-C ,  3-C ) :   1.1842 B(  2-C ,  6-C ) :   1.0523
B(  3-C ,  4-C ) :   1.5796 B(  3-C ,  5-H ) :   1.0112 B(  4-C , 20-C ) :   1.0271
B(  6-C ,  7-H ) :   0.9351 B(  6-C ,  8-H ) :   0.9368 B(  6-C ,  9-C ) :   1.0620
B(  9-C , 10-H ) :   0.9595 B(  9-C , 11-H ) :   0.9528 B(  9-C , 12-C ) :   1.0646
B( 12-C , 13-H ) :   0.9708 B( 12-C , 14-H ) :   0.9791 B( 12-C , 15-H ) :   0.9760
B( 16-S , 17-C ) :   1.1536 B( 16-S , 20-C ) :   1.1509 B( 17-C , 18-C ) :   1.6189
B( 17-C , 33-H ) :   0.9628 B( 18-C , 19-C ) :   1.2245 B( 18-C , 21-H ) :   0.9997
B( 19-C , 20-C ) :   1.5790 B( 19-C , 22-C ) :   1.0648 B( 22-C , 23-H ) :   0.9254
B( 22-C , 24-H ) :   0.9335 B( 22-C , 25-C ) :   1.0673 B( 25-C , 26-H ) :   0.9535
B( 25-C , 27-H ) :   0.9559 B( 25-C , 28-C ) :   1.0737 B( 28-C , 29-H ) :   0.9784
B( 28-C , 30-H ) :   0.9752 B( 28-C , 31-H ) :   0.9744

Dispersion correction           -0.016006023
FINAL SINGLE POINT ENERGY     -1339.870061370966

DIPOLE MOMENT
-------------
                                X             Y             Z
Electronic contribution:    -11.14743      10.78964      16.65893
Nuclear contribution   :     11.60821     -10.87133     -17.21495
                        -----------------------------------------
Total Dipole Moment    :      0.46078      -0.08169      -0.55602
                        -----------------------------------------
Magnitude (a.u.)       :      0.72674
Magnitude (Debye)      :      1.84722

Rotational constants in cm-1:     0.019796     0.009545     0.008312
Rotational constants in MHz :   593.470791   286.139452   249.176091

                             ****ORCA TERMINATED NORMALLY****
TOTAL RUN TIME: 0 days 0 hours 0 minutes 23 seconds 266 msec
