                         Program Version 4.2.1 -  RELEASE  -
|  1> ! wB97X-D3 SP def2-SVP
|  2> %pal
|  3> nprocs 24
|  4> end
|  5>
|  6> * xyz 0 1
|  7> S 	 -76.3587 	 5.4175 	 -109.999
|  8> C 	 -78.0697 	 5.21115 	 -110.043
|  9> C 	 -78.7916 	 6.3648 	 -110.16
| 10> C 	 -77.898 	 7.4639 	 -110.428
| 11> C 	 -76.527 	 7.16233 	 -110.268
| 12> H 	 -78.2471 	 8.4728 	 -110.654
| 13> C 	 -80.3076 	 6.4462 	 -110.474
| 14> H 	 -80.7167 	 7.481 	 -110.226
| 15> H 	 -80.9182 	 5.70105 	 -109.846
| 16> C 	 -80.5493 	 6.24611 	 -112.022
| 17> H 	 -81.6114 	 6.57162 	 -112.263
| 18> H 	 -80.0098 	 6.84182 	 -112.663
| 19> C 	 -80.2896 	 4.73791 	 -112.463
| 20> H 	 -79.1624 	 4.47934 	 -112.38
| 21> H 	 -80.8115 	 3.99057 	 -111.778
| 22> H 	 -80.7226 	 4.54667 	 -113.494
| 23> S 	 -74.1237 	 7.28387 	 -111.455
| 24> C 	 -73.0423 	 8.60484 	 -111.135
| 25> C 	 -73.7028 	 9.65442 	 -110.549
| 26> C 	 -75.1073 	 9.33197 	 -110.277
| 27> C 	 -75.3818 	 8.01294 	 -110.527
| 28> H 	 -73.2675 	 10.6096 	 -110.332
| 29> C 	 -75.962 	 10.3369 	 -109.546
| 30> H 	 -75.2643 	 10.8341 	 -108.836
| 31> H 	 -76.6051 	 9.76734 	 -108.905
| 32> C 	 -76.6518 	 11.371 	 -110.38
| 33> H 	 -77.0766 	 10.8516 	 -111.258
| 34> H 	 -76.0253 	 12.2236 	 -110.841
| 35> C 	 -77.9004 	 11.9186 	 -109.671
| 36> H 	 -78.4665 	 12.5433 	 -110.353
| 37> H 	 -77.7272 	 12.5844 	 -108.783
| 38> H 	 -78.4725 	 11.0579 	 -109.287
| 39> H 	 -78.5522 	 4.26866 	 -109.91
| 40> H 	 -72.0399 	 8.61924 	 -111.492
| 41> *
| 42>
| 43>                          ****END OF INPUT****

CARTESIAN COORDINATES (ANGSTROEM)
---------------------------------
  S    -76.358700    5.417500  -109.999000
  C    -78.069700    5.211150  -110.043000
  C    -78.791600    6.364800  -110.160000
  C    -77.898000    7.463900  -110.428000
  C    -76.527000    7.162330  -110.268000
  H    -78.247100    8.472800  -110.654000
  C    -80.307600    6.446200  -110.474000
  H    -80.716700    7.481000  -110.226000
  H    -80.918200    5.701050  -109.846000
  C    -80.549300    6.246110  -112.022000
  H    -81.611400    6.571620  -112.263000
  H    -80.009800    6.841820  -112.663000
  C    -80.289600    4.737910  -112.463000
  H    -79.162400    4.479340  -112.380000
  H    -80.811500    3.990570  -111.778000
  H    -80.722600    4.546670  -113.494000
  S    -74.123700    7.283870  -111.455000
  C    -73.042300    8.604840  -111.135000
  C    -73.702800    9.654420  -110.549000
  C    -75.107300    9.331970  -110.277000
  C    -75.381800    8.012940  -110.527000
  H    -73.267500   10.609600  -110.332000
  C    -75.962000   10.336900  -109.546000
  H    -75.264300   10.834100  -108.836000
  H    -76.605100    9.767340  -108.905000
  C    -76.651800   11.371000  -110.380000
  H    -77.076600   10.851600  -111.258000
  H    -76.025300   12.223600  -110.841000
  C    -77.900400   11.918600  -109.671000
  H    -78.466500   12.543300  -110.353000
  H    -77.727200   12.584400  -108.783000
  H    -78.472500   11.057900  -109.287000
  H    -78.552200    4.268660  -109.910000
  H    -72.039900    8.619240  -111.492000

 Total Charge           Charge          ....    0
 Multiplicity           Mult            ....    1
 Number of Electrons    NEL             ....  134
 Basis Dimension        Dim             ....  322

ORBITAL ENERGIES
----------------

  NO   OCC          E(Eh)            E(eV)
   0   2.0000     -88.970217     -2421.0027
   1   2.0000     -88.960816     -2420.7469
   2   2.0000     -10.334238      -281.2089
   3   2.0000     -10.323429      -280.9148
   4   2.0000     -10.313732      -280.6509
   5   2.0000     -10.313246      -280.6377
   6   2.0000     -10.311456      -280.5890
   7   2.0000     -10.303324      -280.3677
   8   2.0000     -10.301103      -280.3073
   9   2.0000     -10.300885      -280.3013
  10   2.0000     -10.295096      -280.1438
  11   2.0000     -10.294420      -280.1254
  12   2.0000     -10.294130      -280.1175
  13   2.0000     -10.294107      -280.1169
  14   2.0000     -10.288843      -279.9736
  15   2.0000     -10.283006      -279.8148
  16   2.0000      -8.084786      -219.9982
  17   2.0000      -8.076732      -219.7790
  18   2.0000      -6.043329      -164.4473
  19   2.0000      -6.039305      -164.3378
  20   2.0000      -6.035520      -164.2349
  21   2.0000      -6.035270      -164.2281
  22   2.0000      -6.031166      -164.1164
  23   2.0000      -6.027286      -164.0108
  24   2.0000      -1.010054       -27.4850
  25   2.0000      -0.986261       -26.8375
  26   2.0000      -0.914373       -24.8814
  27   2.0000      -0.901685       -24.5361
  28   2.0000      -0.868278       -23.6270
  29   2.0000      -0.851490       -23.1702
  30   2.0000      -0.840677       -22.8760
  31   2.0000      -0.810367       -22.0512
  32   2.0000      -0.777124       -21.1466
  33   2.0000      -0.770632       -20.9700
  34   2.0000      -0.707398       -19.2493
  35   2.0000      -0.696159       -18.9434
  36   2.0000      -0.693113       -18.8606
  37   2.0000      -0.668825       -18.1996
  38   2.0000      -0.639884       -17.4121
  39   2.0000      -0.618773       -16.8377
  40   2.0000      -0.598368       -16.2824
  41   2.0000      -0.567101       -15.4316
  42   2.0000      -0.561727       -15.2854
  43   2.0000      -0.539503       -14.6806
  44   2.0000      -0.532287       -14.4843
  45   2.0000      -0.528794       -14.3892
  46   2.0000      -0.520283       -14.1576
  47   2.0000      -0.511305       -13.9133
  48   2.0000      -0.502097       -13.6628
  49   2.0000      -0.494975       -13.4690
  50   2.0000      -0.485854       -13.2208
  51   2.0000      -0.480307       -13.0698
  52   2.0000      -0.468216       -12.7408
  53   2.0000      -0.463272       -12.6063
  54   2.0000      -0.454500       -12.3676
  55   2.0000      -0.452419       -12.3109
  56   2.0000      -0.448148       -12.1947
  57   2.0000      -0.442315       -12.0360
  58   2.0000      -0.433991       -11.8095
  59   2.0000      -0.421397       -11.4668
  60   2.0000      -0.417985       -11.3739
  61   2.0000      -0.416632       -11.3371
  62   2.0000      -0.409089       -11.1319
  63   2.0000      -0.354822        -9.6552
  64   2.0000      -0.332769        -9.0551
  65   2.0000      -0.326403        -8.8819
  66   2.0000      -0.289670        -7.8823
  67   0.0000       0.024913         0.6779
  68   0.0000       0.078462         2.1351
  69   0.0000       0.107493         2.9250
  70   0.0000       0.114680         3.1206
  71   0.0000       0.126978         3.4552

MULLIKEN ATOMIC CHARGES
-----------------------
   0 S :    0.121830
   1 C :   -0.113357
   2 C :   -0.059898
   3 C :    0.010060
   4 C :   -0.144455
   5 H :    0.009576
   6 C :   -0.004160
   7 H :    0.039677
   8 H :    0.051812
   9 C :   -0.035942
  10 H :    0.034150
  11 H :    0.019314
  12 C :   -0.134672
  13 H :    0.068918
  14 H :    0.033271
  15 H :    0.051200
  16 S :    0.095914
  17 C :   -0.075432
  18 C :   -0.013997
  19 C :   -0.058653
  20 C :   -0.138290
  21 H :    0.012811
  22 C :    0.061607
  23 H :    0.026895
  24 H :    0.018135
  25 C :   -0.079326
  26 H :    0.029845
  27 H :    0.047052
  28 C :   -0.066562
  29 H :    0.033658
  30 H :    0.034595
  31 H :    0.032906
  32 H :    0.041735
  33 H :    0.049786
Sum of atomic charges:    0.0000000

LOEWDIN ATOMIC CHARGES
----------------------
   0 S :    0.411361
   1 C :   -0.195860
   2 C :   -0.071517
   3 C :   -0.055431
   4 C :   -0.192458
   5 H :    0.027929
   6 C :   -0.035417
   7 H :    0.035114
   8 H :    0.039028
   9 C :   -0.035983
  10 H :    0.029432
  11 H :    0.013054
  12 C :   -0.086458
  13 H :    0.037422
  14 H :    0.023888
  15 H :    0.032151
  16 S :    0.409953
  17 C :   -0.181531
  18 C :   -0.062889
  19 C :   -0.056271
  20 C :   -0.204090
  21 H :    0.028073
  22 C :   -0.037225
  23 H :    0.036034
  24 H :    0.028233
  25 C :   -0.050174
  26 H :    0.025317
  27 H :    0.035122
  28 C :   -0.068721
  29 H :    0.023704
  30 H :    0.026563
  31 H :    0.025136
  32 H :    0.022862
  33 H :    0.023650

  Mayer bond orders larger than 0.100000
B(  0-S ,  1-C ) :   1.1502 B(  0-S ,  4-C ) :   1.1388 B(  1-C ,  2-C ) :   1.6117
B(  1-C , 32-H ) :   0.9586 B(  2-C ,  3-C ) :   1.2417 B(  2-C ,  6-C ) :   1.0356
B(  3-C ,  4-C ) :   1.5618 B(  3-C ,  5-H ) :   0.9872 B(  4-C , 20-C ) :   1.0617
B(  6-C ,  7-H ) :   0.9442 B(  6-C ,  8-H ) :   0.9495 B(  6-C ,  9-C ) :   1.0503
B(  9-C , 10-H ) :   0.9584 B(  9-C , 11-H ) :   0.9590 B(  9-C , 12-C ) :   1.0601
B( 12-C , 13-H ) :   0.9685 B( 12-C , 14-H ) :   0.9776 B( 12-C , 15-H ) :   0.9733
B( 16-S , 17-C ) :   1.1406 B( 16-S , 20-C ) :   1.1387 B( 17-C , 18-C ) :   1.6143
B( 17-C , 33-H ) :   0.9744 B( 18-C , 19-C ) :   1.2201 B( 18-C , 21-H ) :   0.9940
B( 19-C , 20-C ) :   1.6103 B( 19-C , 22-C ) :   1.0492 B( 22-C , 23-H ) :   0.9310
B( 22-C , 24-H ) :   0.9408 B( 22-C , 25-C ) :   1.0530 B( 25-C , 26-H ) :   0.9553
B( 25-C , 27-H ) :   0.9492 B( 25-C , 28-C ) :   1.0828 B( 28-C , 29-H ) :   0.9753
B( 28-C , 30-H ) :   0.9744 B( 28-C , 31-H ) :   0.9742

Dispersion correction           -0.014670924
FINAL SINGLE POINT ENERGY     -1339.876472529975

DIPOLE MOMENT
-------------
                                X             Y             Z
Electronic contribution:     22.64744     -12.53669       1.90215
Nuclear contribution   :    -23.06491      12.98604      -1.99123
                        -----------------------------------------
Total Dipole Moment    :     -0.41747       0.44935      -0.08907
                        -----------------------------------------
Magnitude (a.u.)       :      0.61978
Magnitude (Debye)      :      1.57536

Rotational constants in cm-1:     0.018139     0.009243     0.006845
Rotational constants in MHz :   543.786022   277.097140   205.208328

                             ****ORCA TERMINATED NORMALLY****
TOTAL RUN TIME: 0 days 0 hours 0 minutes 22 seconds 994 msec
