                         Program Version 4.2.1 -  RELEASE  -
|  1> ! wB97X-D3 SP def2-SVP
|  2> %pal
|  3> nprocs 24
|  4> end
|  5>
|  6> * xyz 0 1
|  7> S 	 -49.9162 	 9.99194 	 -16.8183
|  8> C 	 -51.0709 	 10.0946 	 -15.5107
|  9> C 	 -50.9556 	 11.3297 	 -14.898
| 10> C 	 -50.0193 	 12.2544 	 -15.4757
| 11> C 	 -49.2757 	 11.6081 	 -16.4669
| 12> H 	 -49.819 	 13.2001 	 -15.1142
| 13> C 	 -51.8547 	 11.7557 	 -13.7016
| 14> H 	 -51.2094 	 12.2168 	 -13.0256
| 15> H 	 -52.1711 	 10.8986 	 -13.1468
| 16> C 	 -52.982 	 12.7385 	 -14.003
| 17> H 	 -53.3927 	 13.2848 	 -13.126
| 18> H 	 -52.4678 	 13.5875 	 -14.4189
| 19> C 	 -54.044 	 12.1475 	 -14.9584
| 20> H 	 -54.3746 	 11.1273 	 -14.7417
| 21> H 	 -55.001 	 12.7149 	 -14.9682
| 22> H 	 -53.7082 	 12.0829 	 -16.0198
| 23> S 	 -46.8183 	 10.7748 	 -17.3871
| 24> C 	 -45.7685 	 11.9749 	 -18.1346
| 25> C 	 -46.3291 	 13.249 	 -18.0874
| 26> C 	 -47.6255 	 13.2591 	 -17.5505
| 27> C 	 -48.0078 	 12.0418 	 -17.0245
| 28> H 	 -45.7467 	 14.0609 	 -18.4544
| 29> C 	 -48.4006 	 14.5244 	 -17.416
| 30> H 	 -49.4821 	 14.3588 	 -17.5538
| 31> H 	 -48.1151 	 15.002 	 -18.3312
| 32> C 	 -48.1178 	 15.3591 	 -16.2617
| 33> H 	 -47.1233 	 15.7099 	 -16.2848
| 34> H 	 -48.2408 	 14.8662 	 -15.2733
| 35> C 	 -48.9043 	 16.6201 	 -16.2519
| 36> H 	 -49.7457 	 16.4559 	 -15.6973
| 37> H 	 -49.1409 	 16.9209 	 -17.2726
| 38> H 	 -48.2863 	 17.4267 	 -15.775
| 39> H 	 -51.7137 	 9.36035 	 -15.1004
| 40> H 	 -44.7001 	 11.8361 	 -18.4005
| 41> *
| 42>
| 43>                          ****END OF INPUT****

CARTESIAN COORDINATES (ANGSTROEM)
---------------------------------
  S    -49.916200    9.991940  -16.818300
  C    -51.070900   10.094600  -15.510700
  C    -50.955600   11.329700  -14.898000
  C    -50.019300   12.254400  -15.475700
  C    -49.275700   11.608100  -16.466900
  H    -49.819000   13.200100  -15.114200
  C    -51.854700   11.755700  -13.701600
  H    -51.209400   12.216800  -13.025600
  H    -52.171100   10.898600  -13.146800
  C    -52.982000   12.738500  -14.003000
  H    -53.392700   13.284800  -13.126000
  H    -52.467800   13.587500  -14.418900
  C    -54.044000   12.147500  -14.958400
  H    -54.374600   11.127300  -14.741700
  H    -55.001000   12.714900  -14.968200
  H    -53.708200   12.082900  -16.019800
  S    -46.818300   10.774800  -17.387100
  C    -45.768500   11.974900  -18.134600
  C    -46.329100   13.249000  -18.087400
  C    -47.625500   13.259100  -17.550500
  C    -48.007800   12.041800  -17.024500
  H    -45.746700   14.060900  -18.454400
  C    -48.400600   14.524400  -17.416000
  H    -49.482100   14.358800  -17.553800
  H    -48.115100   15.002000  -18.331200
  C    -48.117800   15.359100  -16.261700
  H    -47.123300   15.709900  -16.284800
  H    -48.240800   14.866200  -15.273300
  C    -48.904300   16.620100  -16.251900
  H    -49.745700   16.455900  -15.697300
  H    -49.140900   16.920900  -17.272600
  H    -48.286300   17.426700  -15.775000
  H    -51.713700    9.360350  -15.100400
  H    -44.700100   11.836100  -18.400500

 Total Charge           Charge          ....    0
 Multiplicity           Mult            ....    1
 Number of Electrons    NEL             ....  134
 Basis Dimension        Dim             ....  322

ORBITAL ENERGIES
----------------

  NO   OCC          E(Eh)            E(eV)
   0   2.0000     -88.968581     -2420.9582
   1   2.0000     -88.968205     -2420.9479
   2   2.0000     -10.334844      -281.2254
   3   2.0000     -10.326625      -281.0017
   4   2.0000     -10.320823      -280.8439
   5   2.0000     -10.310357      -280.5591
   6   2.0000     -10.302049      -280.3330
   7   2.0000     -10.298458      -280.2353
   8   2.0000     -10.293354      -280.0964
   9   2.0000     -10.292415      -280.0708
  10   2.0000     -10.288964      -279.9769
  11   2.0000     -10.283973      -279.8411
  12   2.0000     -10.283902      -279.8392
  13   2.0000     -10.280092      -279.7355
  14   2.0000     -10.276379      -279.6345
  15   2.0000     -10.270660      -279.4789
  16   2.0000      -8.082650      -219.9401
  17   2.0000      -8.082198      -219.9278
  18   2.0000      -6.041299      -164.3921
  19   2.0000      -6.040716      -164.3762
  20   2.0000      -6.037177      -164.2799
  21   2.0000      -6.036810      -164.2699
  22   2.0000      -6.033373      -164.1764
  23   2.0000      -6.032975      -164.1656
  24   2.0000      -1.006619       -27.3915
  25   2.0000      -0.982485       -26.7348
  26   2.0000      -0.929509       -25.2932
  27   2.0000      -0.907507       -24.6945
  28   2.0000      -0.868389       -23.6301
  29   2.0000      -0.862214       -23.4620
  30   2.0000      -0.843305       -22.9475
  31   2.0000      -0.813954       -22.1488
  32   2.0000      -0.785451       -21.3732
  33   2.0000      -0.774999       -21.0888
  34   2.0000      -0.711540       -19.3620
  35   2.0000      -0.701852       -19.0984
  36   2.0000      -0.696409       -18.9502
  37   2.0000      -0.667261       -18.1571
  38   2.0000      -0.642025       -17.4704
  39   2.0000      -0.624099       -16.9826
  40   2.0000      -0.599815       -16.3218
  41   2.0000      -0.581455       -15.8222
  42   2.0000      -0.565834       -15.3971
  43   2.0000      -0.549426       -14.9506
  44   2.0000      -0.538805       -14.6616
  45   2.0000      -0.535851       -14.5813
  46   2.0000      -0.520248       -14.1567
  47   2.0000      -0.510844       -13.9008
  48   2.0000      -0.506339       -13.7782
  49   2.0000      -0.499049       -13.5798
  50   2.0000      -0.492527       -13.4023
  51   2.0000      -0.481674       -13.1070
  52   2.0000      -0.474405       -12.9092
  53   2.0000      -0.463541       -12.6136
  54   2.0000      -0.456373       -12.4185
  55   2.0000      -0.452246       -12.3063
  56   2.0000      -0.445122       -12.1124
  57   2.0000      -0.443627       -12.0717
  58   2.0000      -0.432143       -11.7592
  59   2.0000      -0.426101       -11.5948
  60   2.0000      -0.420257       -11.4358
  61   2.0000      -0.410865       -11.1802
  62   2.0000      -0.405955       -11.0466
  63   2.0000      -0.354819        -9.6551
  64   2.0000      -0.336055        -9.1445
  65   2.0000      -0.330724        -8.9994
  66   2.0000      -0.284774        -7.7491
  67   0.0000       0.021038         0.5725
  68   0.0000       0.071727         1.9518
  69   0.0000       0.108160         2.9432
  70   0.0000       0.120895         3.2897
  71   0.0000       0.125254         3.4083

MULLIKEN ATOMIC CHARGES
-----------------------
   0 S :    0.106690
   1 C :   -0.087925
   2 C :   -0.120245
   3 C :    0.059334
   4 C :   -0.119155
   5 H :   -0.034231
   6 C :    0.092569
   7 H :    0.002203
   8 H :    0.010309
   9 C :   -0.038095
  10 H :    0.029746
  11 H :    0.007878
  12 C :   -0.074492
  13 H :    0.023643
  14 H :    0.034969
  15 H :    0.049800
  16 S :    0.103433
  17 C :   -0.108704
  18 C :   -0.034937
  19 C :   -0.033791
  20 C :   -0.139622
  21 H :    0.010637
  22 C :    0.064991
  23 H :    0.028007
  24 H :    0.009133
  25 C :   -0.048080
  26 H :    0.004315
  27 H :    0.030543
  28 C :   -0.002674
  29 H :    0.012500
  30 H :    0.024217
  31 H :    0.034226
  32 H :    0.032580
  33 H :    0.070227
Sum of atomic charges:    0.0000000

LOEWDIN ATOMIC CHARGES
----------------------
   0 S :    0.397146
   1 C :   -0.201586
   2 C :   -0.052695
   3 C :   -0.055438
   4 C :   -0.171140
   5 H :    0.015501
   6 C :   -0.026715
   7 H :    0.021752
   8 H :    0.022291
   9 C :   -0.045510
  10 H :    0.030236
  11 H :    0.021329
  12 C :   -0.076854
  13 H :    0.022489
  14 H :    0.028899
  15 H :    0.033952
  16 S :    0.394128
  17 C :   -0.187752
  18 C :   -0.067294
  19 C :   -0.054369
  20 C :   -0.187511
  21 H :    0.028838
  22 C :   -0.037850
  23 H :    0.033069
  24 H :    0.031400
  25 C :   -0.044805
  26 H :    0.019832
  27 H :    0.025747
  28 C :   -0.050119
  29 H :    0.010887
  30 H :    0.025031
  31 H :    0.033568
  32 H :    0.025744
  33 H :    0.037799

  Mayer bond orders larger than 0.100000
B(  0-S ,  1-C ) :   1.1107 B(  0-S ,  4-C ) :   1.1505 B(  1-C ,  2-C ) :   1.6276
B(  1-C , 32-H ) :   0.9711 B(  2-C ,  3-C ) :   1.2345 B(  2-C ,  6-C ) :   1.0219
B(  3-C ,  4-C ) :   1.5361 B(  3-C ,  5-H ) :   1.0050 B(  4-C , 20-C ) :   1.0756
B(  6-C ,  7-H ) :   0.9320 B(  6-C ,  8-H ) :   0.9452 B(  6-C ,  9-C ) :   1.0776
B(  9-C , 10-H ) :   0.9559 B(  9-C , 11-H ) :   0.9498 B(  9-C , 12-C ) :   1.0577
B( 12-C , 13-H ) :   0.9792 B( 12-C , 14-H ) :   0.9763 B( 12-C , 15-H ) :   0.9750
B( 16-S , 17-C ) :   1.1556 B( 16-S , 20-C ) :   1.1246 B( 17-C , 18-C ) :   1.6056
B( 17-C , 33-H ) :   0.9588 B( 18-C , 19-C ) :   1.2499 B( 18-C , 21-H ) :   0.9936
B( 19-C , 20-C ) :   1.5776 B( 19-C , 22-C ) :   1.0485 B( 22-C , 23-H ) :   0.9229
B( 22-C , 24-H ) :   0.9108 B( 22-C , 25-C ) :   1.0952 B( 25-C , 26-H ) :   0.9446
B( 25-C , 27-H ) :   0.9487 B( 25-C , 28-C ) :   1.0788 B( 28-C , 29-H ) :   0.9745
B( 28-C , 30-H ) :   0.9702 B( 28-C , 31-H ) :   0.9771

Dispersion correction           -0.014637025
FINAL SINGLE POINT ENERGY     -1339.865240036974

DIPOLE MOMENT
-------------
                                X             Y             Z
Electronic contribution:     16.35572     -22.87857     -10.54019
Nuclear contribution   :    -16.35692      23.55446      10.83020
                        -----------------------------------------
Total Dipole Moment    :     -0.00120       0.67589       0.29000
                        -----------------------------------------
Magnitude (a.u.)       :      0.73548
Magnitude (Debye)      :      1.86945

Rotational constants in cm-1:     0.018301     0.009626     0.006712
Rotational constants in MHz :   548.662938   288.588608   201.219451

                             ****ORCA TERMINATED NORMALLY****
TOTAL RUN TIME: 0 days 0 hours 0 minutes 20 seconds 986 msec
