                         Program Version 4.2.1 -  RELEASE  -
|  1> ! wB97X-D3 SP def2-SVP
|  2> %pal
|  3> nprocs 24
|  4> end
|  5>
|  6> * xyz 0 1
|  7> S 	 -44.761 	 22.0289 	 22.0231
|  8> C 	 -43.6517 	 21.885 	 20.6372
|  9> C 	 -43.2618 	 20.5416 	 20.4211
| 10> C 	 -43.5904 	 19.6919 	 21.5526
| 11> C 	 -44.4541 	 20.3264 	 22.4271
| 12> H 	 -43.3396 	 18.6195 	 21.6313
| 13> C 	 -42.4474 	 19.9526 	 19.2807
| 14> H 	 -42.2279 	 20.8015 	 18.6365
| 15> H 	 -43.0604 	 19.2385 	 18.6598
| 16> C 	 -41.1135 	 19.3299 	 19.7486
| 17> H 	 -41.305 	 18.4286 	 20.2374
| 18> H 	 -40.6036 	 19.1861 	 18.8499
| 19> C 	 -40.355 	 20.1175 	 20.7815
| 20> H 	 -40.8402 	 20.1351 	 21.6954
| 21> H 	 -39.2863 	 19.8045 	 20.7859
| 22> H 	 -40.2675 	 21.0765 	 20.3175
| 23> S 	 -46.7869 	 19.1284 	 23.4635
| 24> C 	 -46.7274 	 18.82 	 25.2395
| 25> C 	 -45.4919 	 19.0019 	 25.8199
| 26> C 	 -44.5423 	 19.4442 	 24.8151
| 27> C 	 -45.115 	 19.6908 	 23.5657
| 28> H 	 -45.4077 	 18.9872 	 26.8628
| 29> C 	 -43.065 	 19.7789 	 25.1667
| 30> H 	 -43.0154 	 20.1776 	 26.158
| 31> H 	 -42.5479 	 20.4636 	 24.5338
| 32> C 	 -42.227 	 18.5767 	 25.4497
| 33> H 	 -42.7255 	 17.8577 	 26.0257
| 34> H 	 -41.3088 	 19.0521 	 25.9385
| 35> C 	 -41.6629 	 17.9271 	 24.1853
| 36> H 	 -40.8726 	 17.3959 	 24.6754
| 37> H 	 -41.3275 	 18.8039 	 23.6061
| 38> H 	 -42.3053 	 17.2349 	 23.6169
| 39> H 	 -43.5115 	 22.7535 	 19.9297
| 40> H 	 -47.5229 	 18.5263 	 25.8655
| 41> *
| 42>
| 43>                          ****END OF INPUT****

CARTESIAN COORDINATES (ANGSTROEM)
---------------------------------
  S    -44.761000   22.028900   22.023100
  C    -43.651700   21.885000   20.637200
  C    -43.261800   20.541600   20.421100
  C    -43.590400   19.691900   21.552600
  C    -44.454100   20.326400   22.427100
  H    -43.339600   18.619500   21.631300
  C    -42.447400   19.952600   19.280700
  H    -42.227900   20.801500   18.636500
  H    -43.060400   19.238500   18.659800
  C    -41.113500   19.329900   19.748600
  H    -41.305000   18.428600   20.237400
  H    -40.603600   19.186100   18.849900
  C    -40.355000   20.117500   20.781500
  H    -40.840200   20.135100   21.695400
  H    -39.286300   19.804500   20.785900
  H    -40.267500   21.076500   20.317500
  S    -46.786900   19.128400   23.463500
  C    -46.727400   18.820000   25.239500
  C    -45.491900   19.001900   25.819900
  C    -44.542300   19.444200   24.815100
  C    -45.115000   19.690800   23.565700
  H    -45.407700   18.987200   26.862800
  C    -43.065000   19.778900   25.166700
  H    -43.015400   20.177600   26.158000
  H    -42.547900   20.463600   24.533800
  C    -42.227000   18.576700   25.449700
  H    -42.725500   17.857700   26.025700
  H    -41.308800   19.052100   25.938500
  C    -41.662900   17.927100   24.185300
  H    -40.872600   17.395900   24.675400
  H    -41.327500   18.803900   23.606100
  H    -42.305300   17.234900   23.616900
  H    -43.511500   22.753500   19.929700
  H    -47.522900   18.526300   25.865500

 Total Charge           Charge          ....    0
 Multiplicity           Mult            ....    1
 Number of Electrons    NEL             ....  134
 Basis Dimension        Dim             ....  322

ORBITAL ENERGIES
----------------

  NO   OCC          E(Eh)            E(eV)
   0   2.0000     -88.968439     -2420.9543
   1   2.0000     -88.967487     -2420.9284
   2   2.0000     -10.330298      -281.1017
   3   2.0000     -10.324507      -280.9441
   4   2.0000     -10.324025      -280.9310
   5   2.0000     -10.317621      -280.7568
   6   2.0000     -10.307658      -280.4856
   7   2.0000     -10.307110      -280.4707
   8   2.0000     -10.297878      -280.2195
   9   2.0000     -10.294993      -280.1410
  10   2.0000     -10.294478      -280.1270
  11   2.0000     -10.281291      -279.7682
  12   2.0000     -10.280708      -279.7523
  13   2.0000     -10.273801      -279.5643
  14   2.0000     -10.272029      -279.5161
  15   2.0000     -10.267035      -279.3802
  16   2.0000      -8.081887      -219.9193
  17   2.0000      -8.081222      -219.9012
  18   2.0000      -6.040549      -164.3717
  19   2.0000      -6.039783      -164.3508
  20   2.0000      -6.036787      -164.2693
  21   2.0000      -6.035955      -164.2467
  22   2.0000      -6.032361      -164.1489
  23   2.0000      -6.031897      -164.1363
  24   2.0000      -0.996360       -27.1123
  25   2.0000      -0.973301       -26.4849
  26   2.0000      -0.916594       -24.9418
  27   2.0000      -0.915229       -24.9046
  28   2.0000      -0.866046       -23.5663
  29   2.0000      -0.844899       -22.9909
  30   2.0000      -0.844281       -22.9741
  31   2.0000      -0.813904       -22.1475
  32   2.0000      -0.785363       -21.3708
  33   2.0000      -0.772128       -21.0107
  34   2.0000      -0.705428       -19.1957
  35   2.0000      -0.692209       -18.8360
  36   2.0000      -0.683677       -18.6038
  37   2.0000      -0.655906       -17.8481
  38   2.0000      -0.634944       -17.2777
  39   2.0000      -0.623518       -16.9668
  40   2.0000      -0.604865       -16.4592
  41   2.0000      -0.570288       -15.5183
  42   2.0000      -0.556539       -15.1442
  43   2.0000      -0.551158       -14.9978
  44   2.0000      -0.547445       -14.8967
  45   2.0000      -0.539851       -14.6901
  46   2.0000      -0.520561       -14.1652
  47   2.0000      -0.511352       -13.9146
  48   2.0000      -0.503757       -13.7079
  49   2.0000      -0.496057       -13.4984
  50   2.0000      -0.488523       -13.2934
  51   2.0000      -0.471936       -12.8420
  52   2.0000      -0.466853       -12.7037
  53   2.0000      -0.460675       -12.5356
  54   2.0000      -0.458888       -12.4870
  55   2.0000      -0.448897       -12.2151
  56   2.0000      -0.447394       -12.1742
  57   2.0000      -0.440736       -11.9930
  58   2.0000      -0.435736       -11.8570
  59   2.0000      -0.421937       -11.4815
  60   2.0000      -0.409901       -11.1540
  61   2.0000      -0.408668       -11.1204
  62   2.0000      -0.405546       -11.0355
  63   2.0000      -0.338182        -9.2024
  64   2.0000      -0.329166        -8.9571
  65   2.0000      -0.319756        -8.7010
  66   2.0000      -0.302254        -8.2248
  67   0.0000       0.040098         1.0911
  68   0.0000       0.054304         1.4777
  69   0.0000       0.105463         2.8698
  70   0.0000       0.113502         3.0886
  71   0.0000       0.114929         3.1274

MULLIKEN ATOMIC CHARGES
-----------------------
   0 S :    0.113740
   1 C :   -0.151086
   2 C :   -0.113788
   3 C :    0.021936
   4 C :   -0.172355
   5 H :    0.034434
   6 C :    0.058993
   7 H :    0.009127
   8 H :    0.054176
   9 C :   -0.057764
  10 H :    0.014097
  11 H :    0.018979
  12 C :   -0.002674
  13 H :    0.040441
  14 H :    0.036332
  15 H :    0.005097
  16 S :    0.113282
  17 C :   -0.076301
  18 C :   -0.014589
  19 C :   -0.014566
  20 C :   -0.180045
  21 H :    0.011036
  22 C :    0.116815
  23 H :    0.005676
  24 H :    0.022832
  25 C :   -0.120148
  26 H :    0.022117
  27 H :    0.033655
  28 C :   -0.038717
  29 H :    0.028916
  30 H :    0.021405
  31 H :    0.048282
  32 H :    0.073695
  33 H :    0.036968
Sum of atomic charges:    0.0000000

LOEWDIN ATOMIC CHARGES
----------------------
   0 S :    0.385341
   1 C :   -0.205318
   2 C :   -0.058629
   3 C :   -0.061956
   4 C :   -0.184315
   5 H :    0.039602
   6 C :   -0.034149
   7 H :    0.024778
   8 H :    0.041241
   9 C :   -0.032002
  10 H :    0.012927
  11 H :    0.019690
  12 C :   -0.053655
  13 H :    0.014117
  14 H :    0.035331
  15 H :    0.021989
  16 S :    0.375290
  17 C :   -0.156813
  18 C :   -0.061879
  19 C :   -0.041897
  20 C :   -0.206776
  21 H :    0.027103
  22 C :   -0.031522
  23 H :    0.028994
  24 H :    0.024477
  25 C :   -0.033295
  26 H :    0.014069
  27 H :    0.033472
  28 C :   -0.069300
  29 H :    0.025927
  30 H :    0.025420
  31 H :    0.023863
  32 H :    0.037765
  33 H :    0.020109

  Mayer bond orders larger than 0.100000
B(  0-S ,  1-C ) :   1.1269 B(  0-S ,  4-C ) :   1.1414 B(  1-C ,  2-C ) :   1.6236
B(  1-C , 32-H ) :   0.9575 B(  2-C ,  3-C ) :   1.2038 B(  2-C ,  6-C ) :   1.0335
B(  3-C ,  4-C ) :   1.6174 B(  3-C ,  5-H ) :   0.9813 B(  4-C , 20-C ) :   1.0318
B(  6-C ,  7-H ) :   0.9356 B(  6-C ,  8-H ) :   0.9398 B(  6-C ,  9-C ) :   1.0647
B(  9-C , 10-H ) :   0.9500 B(  9-C , 11-H ) :   0.9545 B(  9-C , 12-C ) :   1.0949
B( 12-C , 13-H ) :   0.9619 B( 12-C , 14-H ) :   0.9681 B( 12-C , 15-H ) :   0.9694
B( 16-S , 17-C ) :   1.1292 B( 16-S , 20-C ) :   1.1157 B( 17-C , 18-C ) :   1.6720
B( 17-C , 33-H ) :   0.9655 B( 18-C , 19-C ) :   1.1962 B( 18-C , 21-H ) :   0.9915
B( 19-C , 20-C ) :   1.6398 B( 19-C , 22-C ) :   1.0383 B( 22-C , 23-H ) :   0.9330
B( 22-C , 24-H ) :   0.9359 B( 22-C , 25-C ) :   1.0697 B( 25-C , 26-H ) :   0.9557
B( 25-C , 27-H ) :   0.9610 B( 25-C , 28-C ) :   1.0651 B( 28-C , 29-H ) :   0.9746
B( 28-C , 30-H ) :   0.9727 B( 28-C , 31-H ) :   0.9725

Dispersion correction           -0.016505460
FINAL SINGLE POINT ENERGY     -1339.844132583038

DIPOLE MOMENT
-------------
                                X             Y             Z
Electronic contribution:    -27.13379       8.32817       1.82778
Nuclear contribution   :     27.62107      -8.53179      -1.73048
                        -----------------------------------------
Total Dipole Moment    :      0.48727      -0.20362       0.09729
                        -----------------------------------------
Magnitude (a.u.)       :      0.53699
Magnitude (Debye)      :      1.36492

Rotational constants in cm-1:     0.019143     0.010268     0.007873
Rotational constants in MHz :   573.894311   307.821039   236.015430

                             ****ORCA TERMINATED NORMALLY****
TOTAL RUN TIME: 0 days 0 hours 0 minutes 22 seconds 370 msec
