                         Program Version 4.2.1 -  RELEASE  -
|  1> ! wB97X-D3 SP def2-SVP
|  2> %pal
|  3> nprocs 24
|  4> end
|  5>
|  6> * xyz 0 1
|  7> S 	 -110.273 	 61.3039 	 -6.16122
|  8> C 	 -109.534 	 62.0846 	 -4.75722
|  9> C 	 -110.379 	 63.1376 	 -4.29188
| 10> C 	 -111.615 	 63.2202 	 -5.02489
| 11> C 	 -111.802 	 62.2562 	 -5.9359
| 12> H 	 -112.427 	 63.8992 	 -4.82102
| 13> C 	 -110.129 	 63.9743 	 -3.07425
| 14> H 	 -111.053 	 64.073 	 -2.58553
| 15> H 	 -109.794 	 64.968 	 -3.31547
| 16> C 	 -109.041 	 63.4171 	 -2.14577
| 17> H 	 -109.199 	 62.388 	 -1.80368
| 18> H 	 -108.138 	 63.2881 	 -2.75704
| 19> C 	 -108.649 	 64.2837 	 -0.965054
| 20> H 	 -108.292 	 65.3202 	 -1.18372
| 21> H 	 -109.456 	 64.2557 	 -0.278627
| 22> H 	 -107.96 	 63.7738 	 -0.376786
| 23> S 	 -112.728 	 61.8538 	 -8.45326
| 24> C 	 -114.384 	 61.7247 	 -8.82137
| 25> C 	 -115.182 	 61.7379 	 -7.68536
| 26> C 	 -114.38 	 62.0314 	 -6.50539
| 27> C 	 -113.025 	 62.1304 	 -6.77875
| 28> H 	 -116.23 	 61.5955 	 -7.8236
| 29> C 	 -114.937 	 61.9553 	 -5.07816
| 30> H 	 -115.981 	 61.8577 	 -5.15349
| 31> H 	 -115.093 	 62.9505 	 -4.66767
| 32> C 	 -114.332 	 60.985 	 -4.06067
| 33> H 	 -113.257 	 61.1519 	 -4.01648
| 34> H 	 -114.464 	 59.9827 	 -4.38577
| 35> C 	 -115.023 	 61.416 	 -2.70088
| 36> H 	 -116.121 	 61.328 	 -2.70091
| 37> H 	 -114.881 	 62.4523 	 -2.43741
| 38> H 	 -114.638 	 60.718 	 -1.93565
| 39> H 	 -108.595 	 61.8268 	 -4.31089
| 40> H 	 -114.611 	 61.6612 	 -9.84397
| 41> *
| 42>
| 43>                          ****END OF INPUT****

CARTESIAN COORDINATES (ANGSTROEM)
---------------------------------
  S    -110.273000   61.303900   -6.161220
  C    -109.534000   62.084600   -4.757220
  C    -110.379000   63.137600   -4.291880
  C    -111.615000   63.220200   -5.024890
  C    -111.802000   62.256200   -5.935900
  H    -112.427000   63.899200   -4.821020
  C    -110.129000   63.974300   -3.074250
  H    -111.053000   64.073000   -2.585530
  H    -109.794000   64.968000   -3.315470
  C    -109.041000   63.417100   -2.145770
  H    -109.199000   62.388000   -1.803680
  H    -108.138000   63.288100   -2.757040
  C    -108.649000   64.283700   -0.965054
  H    -108.292000   65.320200   -1.183720
  H    -109.456000   64.255700   -0.278627
  H    -107.960000   63.773800   -0.376786
  S    -112.728000   61.853800   -8.453260
  C    -114.384000   61.724700   -8.821370
  C    -115.182000   61.737900   -7.685360
  C    -114.380000   62.031400   -6.505390
  C    -113.025000   62.130400   -6.778750
  H    -116.230000   61.595500   -7.823600
  C    -114.937000   61.955300   -5.078160
  H    -115.981000   61.857700   -5.153490
  H    -115.093000   62.950500   -4.667670
  C    -114.332000   60.985000   -4.060670
  H    -113.257000   61.151900   -4.016480
  H    -114.464000   59.982700   -4.385770
  C    -115.023000   61.416000   -2.700880
  H    -116.121000   61.328000   -2.700910
  H    -114.881000   62.452300   -2.437410
  H    -114.638000   60.718000   -1.935650
  H    -108.595000   61.826800   -4.310890
  H    -114.611000   61.661200   -9.843970

 Total Charge           Charge          ....    0
 Multiplicity           Mult            ....    1
 Number of Electrons    NEL             ....  134
 Basis Dimension        Dim             ....  322

ORBITAL ENERGIES
----------------

  NO   OCC          E(Eh)            E(eV)
   0   2.0000     -88.967100     -2420.9179
   1   2.0000     -88.959945     -2420.7232
   2   2.0000     -10.332712      -281.1674
   3   2.0000     -10.325208      -280.9632
   4   2.0000     -10.319249      -280.8010
   5   2.0000     -10.311099      -280.5793
   6   2.0000     -10.307738      -280.4878
   7   2.0000     -10.305873      -280.4371
   8   2.0000     -10.297433      -280.2074
   9   2.0000     -10.289519      -279.9920
  10   2.0000     -10.286944      -279.9220
  11   2.0000     -10.286782      -279.9176
  12   2.0000     -10.284346      -279.8513
  13   2.0000     -10.282983      -279.8142
  14   2.0000     -10.282244      -279.7941
  15   2.0000     -10.273227      -279.5487
  16   2.0000      -8.080265      -219.8752
  17   2.0000      -8.076663      -219.7772
  18   2.0000      -6.039066      -164.3313
  19   2.0000      -6.035066      -164.2225
  20   2.0000      -6.034914      -164.2184
  21   2.0000      -6.030791      -164.1062
  22   2.0000      -6.030723      -164.1043
  23   2.0000      -6.027687      -164.0217
  24   2.0000      -1.006658       -27.3926
  25   2.0000      -0.980874       -26.6909
  26   2.0000      -0.914190       -24.8764
  27   2.0000      -0.907054       -24.6822
  28   2.0000      -0.866913       -23.5899
  29   2.0000      -0.852725       -23.2038
  30   2.0000      -0.845669       -23.0118
  31   2.0000      -0.819102       -22.2889
  32   2.0000      -0.779404       -21.2086
  33   2.0000      -0.769198       -20.9309
  34   2.0000      -0.717559       -19.5258
  35   2.0000      -0.711896       -19.3717
  36   2.0000      -0.685557       -18.6550
  37   2.0000      -0.670189       -18.2368
  38   2.0000      -0.640727       -17.4351
  39   2.0000      -0.615532       -16.7495
  40   2.0000      -0.598852       -16.2956
  41   2.0000      -0.572935       -15.5904
  42   2.0000      -0.569294       -15.4913
  43   2.0000      -0.555367       -15.1123
  44   2.0000      -0.525256       -14.2929
  45   2.0000      -0.521816       -14.1993
  46   2.0000      -0.520993       -14.1769
  47   2.0000      -0.512262       -13.9393
  48   2.0000      -0.511750       -13.9254
  49   2.0000      -0.499598       -13.5947
  50   2.0000      -0.489175       -13.3111
  51   2.0000      -0.481492       -13.1021
  52   2.0000      -0.472203       -12.8493
  53   2.0000      -0.470166       -12.7939
  54   2.0000      -0.458256       -12.4698
  55   2.0000      -0.450515       -12.2591
  56   2.0000      -0.446983       -12.1630
  57   2.0000      -0.438664       -11.9366
  58   2.0000      -0.432771       -11.7763
  59   2.0000      -0.425330       -11.5738
  60   2.0000      -0.416258       -11.3270
  61   2.0000      -0.411833       -11.2065
  62   2.0000      -0.409337       -11.1386
  63   2.0000      -0.352470        -9.5912
  64   2.0000      -0.329461        -8.9651
  65   2.0000      -0.325886        -8.8678
  66   2.0000      -0.290515        -7.9053
  67   0.0000       0.032653         0.8885
  68   0.0000       0.067971         1.8496
  69   0.0000       0.112123         3.0510
  70   0.0000       0.120478         3.2784
  71   0.0000       0.130240         3.5440

MULLIKEN ATOMIC CHARGES
-----------------------
   0 S :    0.100779
   1 C :   -0.120273
   2 C :   -0.096249
   3 C :    0.019318
   4 C :   -0.118530
   5 H :    0.014534
   6 C :    0.142222
   7 H :    0.013377
   8 H :    0.027974
   9 C :   -0.155187
  10 H :    0.028191
  11 H :    0.025282
  12 C :    0.017438
  13 H :    0.045760
  14 H :    0.009580
  15 H :    0.006197
  16 S :    0.097323
  17 C :   -0.089306
  18 C :   -0.016229
  19 C :   -0.028168
  20 C :   -0.165685
  21 H :    0.016628
  22 C :    0.054670
  23 H :   -0.023202
  24 H :    0.004349
  25 C :   -0.016725
  26 H :    0.051323
  27 H :    0.033026
  28 C :   -0.067280
  29 H :    0.028404
  30 H :    0.029873
  31 H :    0.039865
  32 H :    0.046406
  33 H :    0.044317
Sum of atomic charges:    0.0000000

LOEWDIN ATOMIC CHARGES
----------------------
   0 S :    0.364914
   1 C :   -0.194180
   2 C :   -0.053342
   3 C :   -0.063584
   4 C :   -0.170596
   5 H :    0.034274
   6 C :   -0.026677
   7 H :    0.023872
   8 H :    0.034781
   9 C :   -0.044714
  10 H :    0.024602
  11 H :    0.020761
  12 C :   -0.061502
  13 H :    0.032041
  14 H :    0.021626
  15 H :    0.021196
  16 S :    0.434571
  17 C :   -0.186360
  18 C :   -0.069299
  19 C :   -0.056286
  20 C :   -0.203456
  21 H :    0.030720
  22 C :   -0.046505
  23 H :    0.022967
  24 H :    0.030321
  25 C :   -0.025573
  26 H :    0.029177
  27 H :    0.023184
  28 C :   -0.063775
  29 H :    0.024900
  30 H :    0.022765
  31 H :    0.028084
  32 H :    0.024802
  33 H :    0.016292

  Mayer bond orders larger than 0.100000
B(  0-S ,  1-C ) :   1.1178 B(  0-S ,  4-C ) :   1.1130 B(  1-C ,  2-C ) :   1.6177
B(  1-C , 32-H ) :   0.9662 B(  2-C ,  3-C ) :   1.2119 B(  2-C ,  6-C ) :   1.0254
B(  3-C ,  4-C ) :   1.6166 B(  3-C ,  5-H ) :   0.9973 B(  4-C , 20-C ) :   1.0331
B(  6-C ,  7-H ) :   0.9420 B(  6-C ,  8-H ) :   0.9193 B(  6-C ,  9-C ) :   1.0757
B(  9-C , 10-H ) :   0.9546 B(  9-C , 11-H ) :   0.9462 B(  9-C , 12-C ) :   1.0988
B( 12-C , 13-H ) :   0.9725 B( 12-C , 14-H ) :   0.9663 B( 12-C , 15-H ) :   0.9628
B( 16-S , 17-C ) :   1.1930 B( 16-S , 20-C ) :   1.1527 B( 17-C , 18-C ) :   1.5663
B( 17-C , 33-H ) :   0.9781 B( 18-C , 19-C ) :   1.2439 B( 18-C , 21-H ) :   1.0025
B( 19-C , 20-C ) :   1.5869 B( 19-C , 22-C ) :   1.0285 B( 22-C , 23-H ) :   0.9164
B( 22-C , 24-H ) :   0.9232 B( 22-C , 25-C ) :   1.0496 B( 25-C , 26-H ) :   0.9534
B( 25-C , 27-H ) :   0.9585 B( 25-C , 28-C ) :   1.0607 B( 28-C , 29-H ) :   0.9773
B( 28-C , 30-H ) :   0.9772 B( 28-C , 31-H ) :   0.9745

Dispersion correction           -0.014279392
FINAL SINGLE POINT ENERGY     -1339.862037980482

DIPOLE MOMENT
-------------
                                X             Y             Z
Electronic contribution:      1.97069      -6.49470     -30.02344
Nuclear contribution   :     -2.26712       6.71175      30.60576
                        -----------------------------------------
Total Dipole Moment    :     -0.29643       0.21705       0.58232
                        -----------------------------------------
Magnitude (a.u.)       :      0.68853
Magnitude (Debye)      :      1.75010

Rotational constants in cm-1:     0.021032     0.008203     0.006456
Rotational constants in MHz :   630.518601   245.929121   193.542152

                             ****ORCA TERMINATED NORMALLY****
TOTAL RUN TIME: 0 days 0 hours 0 minutes 20 seconds 583 msec
