                         Program Version 4.2.1 -  RELEASE  -
|  1> ! wB97X-D3 SP def2-SVP
|  2> %pal
|  3> nprocs 24
|  4> end
|  5>
|  6> * xyz 0 1
|  7> S 	 -54.9279 	 14.9816 	 -93.0179
|  8> C 	 -53.2693 	 14.5822 	 -92.4952
|  9> C 	 -53.1598 	 14.9439 	 -91.1523
| 10> C 	 -54.0946 	 15.9441 	 -90.7557
| 11> C 	 -54.9808 	 16.2406 	 -91.8036
| 12> H 	 -54.0753 	 16.4526 	 -89.8165
| 13> C 	 -51.9994 	 14.3367 	 -90.3537
| 14> H 	 -51.2876 	 15.1321 	 -90.5292
| 15> H 	 -51.5427 	 13.4124 	 -90.827
| 16> C 	 -52.3054 	 14.1813 	 -88.8642
| 17> H 	 -51.9008 	 15.0924 	 -88.3922
| 18> H 	 -53.375 	 14.0725 	 -88.7025
| 19> C 	 -51.5658 	 13.0625 	 -88.0537
| 20> H 	 -50.4934 	 13.084 	 -88.0722
| 21> H 	 -51.7542 	 13.152 	 -86.989
| 22> H 	 -51.8217 	 12.0334 	 -88.3656
| 23> S 	 -57.655 	 17.0853 	 -92.0568
| 24> C 	 -57.9321 	 18.8375 	 -91.9824
| 25> C 	 -56.7951 	 19.5496 	 -91.5975
| 26> C 	 -55.6197 	 18.7041 	 -91.5765
| 27> C 	 -55.9171 	 17.3599 	 -91.8812
| 28> H 	 -56.8465 	 20.6406 	 -91.4996
| 29> C 	 -54.2695 	 19.3239 	 -91.2852
| 30> H 	 -53.5795 	 18.4978 	 -91.1162
| 31> H 	 -54.363 	 19.9264 	 -90.3259
| 32> C 	 -53.6822 	 20.0508 	 -92.4894
| 33> H 	 -54.1806 	 21.0006 	 -92.7581
| 34> H 	 -53.7181 	 19.43 	 -93.4296
| 35> C 	 -52.1539 	 20.4052 	 -92.3067
| 36> H 	 -51.559 	 19.5235 	 -92.0898
| 37> H 	 -52.1174 	 21.0228 	 -91.4165
| 38> H 	 -51.7384 	 20.8332 	 -93.1713
| 39> H 	 -52.573 	 13.8825 	 -92.991
| 40> H 	 -58.9449 	 19.2832 	 -91.9925
| 41> *
| 42>
| 43>                          ****END OF INPUT****

CARTESIAN COORDINATES (ANGSTROEM)
---------------------------------
  S    -54.927900   14.981600  -93.017900
  C    -53.269300   14.582200  -92.495200
  C    -53.159800   14.943900  -91.152300
  C    -54.094600   15.944100  -90.755700
  C    -54.980800   16.240600  -91.803600
  H    -54.075300   16.452600  -89.816500
  C    -51.999400   14.336700  -90.353700
  H    -51.287600   15.132100  -90.529200
  H    -51.542700   13.412400  -90.827000
  C    -52.305400   14.181300  -88.864200
  H    -51.900800   15.092400  -88.392200
  H    -53.375000   14.072500  -88.702500
  C    -51.565800   13.062500  -88.053700
  H    -50.493400   13.084000  -88.072200
  H    -51.754200   13.152000  -86.989000
  H    -51.821700   12.033400  -88.365600
  S    -57.655000   17.085300  -92.056800
  C    -57.932100   18.837500  -91.982400
  C    -56.795100   19.549600  -91.597500
  C    -55.619700   18.704100  -91.576500
  C    -55.917100   17.359900  -91.881200
  H    -56.846500   20.640600  -91.499600
  C    -54.269500   19.323900  -91.285200
  H    -53.579500   18.497800  -91.116200
  H    -54.363000   19.926400  -90.325900
  C    -53.682200   20.050800  -92.489400
  H    -54.180600   21.000600  -92.758100
  H    -53.718100   19.430000  -93.429600
  C    -52.153900   20.405200  -92.306700
  H    -51.559000   19.523500  -92.089800
  H    -52.117400   21.022800  -91.416500
  H    -51.738400   20.833200  -93.171300
  H    -52.573000   13.882500  -92.991000
  H    -58.944900   19.283200  -91.992500

 Total Charge           Charge          ....    0
 Multiplicity           Mult            ....    1
 Number of Electrons    NEL             ....  134
 Basis Dimension        Dim             ....  322

ORBITAL ENERGIES
----------------

  NO   OCC          E(Eh)            E(eV)
   0   2.0000     -88.967950     -2420.9410
   1   2.0000     -88.962255     -2420.7860
   2   2.0000     -10.332713      -281.1674
   3   2.0000     -10.329629      -281.0835
   4   2.0000     -10.322524      -280.8902
   5   2.0000     -10.313781      -280.6523
   6   2.0000     -10.306896      -280.4649
   7   2.0000     -10.304817      -280.4083
   8   2.0000     -10.298758      -280.2434
   9   2.0000     -10.298639      -280.2402
  10   2.0000     -10.297372      -280.2057
  11   2.0000     -10.295767      -280.1621
  12   2.0000     -10.293593      -280.1029
  13   2.0000     -10.290244      -280.0118
  14   2.0000     -10.281353      -279.7699
  15   2.0000     -10.272163      -279.5198
  16   2.0000      -8.081935      -219.9206
  17   2.0000      -8.076761      -219.7798
  18   2.0000      -6.040524      -164.3710
  19   2.0000      -6.036730      -164.2678
  20   2.0000      -6.035264      -164.2279
  21   2.0000      -6.032480      -164.1521
  22   2.0000      -6.031781      -164.1331
  23   2.0000      -6.027064      -164.0047
  24   2.0000      -1.001290       -27.2465
  25   2.0000      -0.977790       -26.6070
  26   2.0000      -0.908536       -24.7225
  27   2.0000      -0.904363       -24.6090
  28   2.0000      -0.864090       -23.5131
  29   2.0000      -0.847254       -23.0549
  30   2.0000      -0.841604       -22.9012
  31   2.0000      -0.813037       -22.1239
  32   2.0000      -0.783229       -21.3128
  33   2.0000      -0.768130       -20.9019
  34   2.0000      -0.710437       -19.3320
  35   2.0000      -0.693121       -18.8608
  36   2.0000      -0.686660       -18.6850
  37   2.0000      -0.654368       -17.8063
  38   2.0000      -0.634731       -17.2719
  39   2.0000      -0.620476       -16.8840
  40   2.0000      -0.591507       -16.0957
  41   2.0000      -0.570667       -15.5286
  42   2.0000      -0.562745       -15.3131
  43   2.0000      -0.554523       -15.0893
  44   2.0000      -0.527786       -14.3618
  45   2.0000      -0.522738       -14.2244
  46   2.0000      -0.515216       -14.0197
  47   2.0000      -0.508068       -13.8252
  48   2.0000      -0.503145       -13.6913
  49   2.0000      -0.495436       -13.4815
  50   2.0000      -0.491305       -13.3691
  51   2.0000      -0.480096       -13.0641
  52   2.0000      -0.473902       -12.8955
  53   2.0000      -0.465492       -12.6667
  54   2.0000      -0.455403       -12.3921
  55   2.0000      -0.449720       -12.2375
  56   2.0000      -0.445735       -12.1291
  57   2.0000      -0.438668       -11.9368
  58   2.0000      -0.432437       -11.7672
  59   2.0000      -0.423709       -11.5297
  60   2.0000      -0.418494       -11.3878
  61   2.0000      -0.412613       -11.2278
  62   2.0000      -0.410596       -11.1729
  63   2.0000      -0.341838        -9.3019
  64   2.0000      -0.329859        -8.9759
  65   2.0000      -0.323236        -8.7957
  66   2.0000      -0.282105        -7.6765
  67   0.0000       0.019232         0.5233
  68   0.0000       0.060268         1.6400
  69   0.0000       0.094582         2.5737
  70   0.0000       0.116171         3.1612
  71   0.0000       0.127248         3.4626

MULLIKEN ATOMIC CHARGES
-----------------------
   0 S :    0.103898
   1 C :   -0.135699
   2 C :   -0.123846
   3 C :    0.056645
   4 C :   -0.172198
   5 H :    0.015582
   6 C :    0.063975
   7 H :    0.041169
   8 H :    0.036510
   9 C :   -0.089737
  10 H :    0.035109
  11 H :    0.049965
  12 C :   -0.054316
  13 H :    0.020617
  14 H :    0.030694
  15 H :    0.033937
  16 S :    0.102052
  17 C :   -0.108290
  18 C :   -0.034201
  19 C :   -0.067586
  20 C :   -0.117912
  21 H :    0.033416
  22 C :    0.075754
  23 H :    0.011832
  24 H :    0.048868
  25 C :   -0.108124
  26 H :    0.030749
  27 H :    0.045398
  28 C :   -0.030173
  29 H :    0.025008
  30 H :    0.024822
  31 H :    0.030931
  32 H :    0.055218
  33 H :    0.069930
Sum of atomic charges:    0.0000000

LOEWDIN ATOMIC CHARGES
----------------------
   0 S :    0.383238
   1 C :   -0.196277
   2 C :   -0.056972
   3 C :   -0.062785
   4 C :   -0.181575
   5 H :    0.030157
   6 C :   -0.038408
   7 H :    0.036525
   8 H :    0.034527
   9 C :   -0.044385
  10 H :    0.031648
  11 H :    0.027821
  12 C :   -0.068567
  13 H :    0.020488
  14 H :    0.028106
  15 H :    0.024519
  16 S :    0.385563
  17 C :   -0.181116
  18 C :   -0.069983
  19 C :   -0.050670
  20 C :   -0.200381
  21 H :    0.036756
  22 C :   -0.039894
  23 H :    0.028819
  24 H :    0.041119
  25 C :   -0.041433
  26 H :    0.021130
  27 H :    0.033385
  28 C :   -0.060269
  29 H :    0.021985
  30 H :    0.022312
  31 H :    0.019518
  32 H :    0.030812
  33 H :    0.034287

  Mayer bond orders larger than 0.100000
B(  0-S ,  1-C ) :   1.1153 B(  0-S ,  4-C ) :   1.1564 B(  1-C ,  2-C ) :   1.6095
B(  1-C ,  4-C ) :   0.1097 B(  1-C , 32-H ) :   0.9726 B(  2-C ,  3-C ) :   1.2236
B(  2-C ,  6-C ) :   1.0003 B(  3-C ,  4-C ) :   1.5325 B(  3-C ,  5-H ) :   1.0031
B(  4-C , 20-C ) :   1.0494 B(  6-C ,  7-H ) :   0.9396 B(  6-C ,  8-H ) :   0.9526
B(  6-C ,  9-C ) :   1.0463 B(  9-C , 10-H ) :   0.9489 B(  9-C , 11-H ) :   0.9693
B(  9-C , 12-C ) :   1.0886 B( 12-C , 13-H ) :   0.9748 B( 12-C , 14-H ) :   0.9747
B( 12-C , 15-H ) :   0.9767 B( 16-S , 17-C ) :   1.1442 B( 16-S , 20-C ) :   1.1294
B( 17-C , 18-C ) :   1.6268 B( 17-C , 33-H ) :   0.9619 B( 18-C , 19-C ) :   1.2238
B( 18-C , 21-H ) :   0.9859 B( 19-C , 20-C ) :   1.6011 B( 19-C , 22-C ) :   1.0514
B( 22-C , 23-H ) :   0.9240 B( 22-C , 24-H ) :   0.9318 B( 22-C , 25-C ) :   1.0590
B( 25-C , 26-H ) :   0.9571 B( 25-C , 27-H ) :   0.9569 B( 25-C , 28-C ) :   1.0797
B( 28-C , 29-H ) :   0.9764 B( 28-C , 30-H ) :   0.9759 B( 28-C , 31-H ) :   0.9766

Dispersion correction           -0.013841840
FINAL SINGLE POINT ENERGY     -1339.852524746277

DIPOLE MOMENT
-------------
                                X             Y             Z
Electronic contribution:    -24.88937      -4.75869     -13.09844
Nuclear contribution   :     25.45437       5.01743      13.61095
                        -----------------------------------------
Total Dipole Moment    :      0.56500       0.25874       0.51250
                        -----------------------------------------
Magnitude (a.u.)       :      0.80551
Magnitude (Debye)      :      2.04743

Rotational constants in cm-1:     0.017403     0.008183     0.006784
Rotational constants in MHz :   521.731477   245.326028   203.383159

                             ****ORCA TERMINATED NORMALLY****
TOTAL RUN TIME: 0 days 0 hours 0 minutes 21 seconds 414 msec
