                         Program Version 4.2.1 -  RELEASE  -
|  1> ! wB97X-D3 SP def2-SVP
|  2> %pal
|  3> nprocs 24
|  4> end
|  5>
|  6> * xyz 0 1
|  7> S 	 34.3506 	 -30.0231 	 -111.704
|  8> C 	 34.1238 	 -29.5461 	 -110.035
|  9> C 	 35.2188 	 -30.0211 	 -109.284
| 10> C 	 36.2201 	 -30.6892 	 -110.087
| 11> C 	 35.8957 	 -30.7086 	 -111.399
| 12> H 	 37.1423 	 -31.0883 	 -109.812
| 13> C 	 35.3779 	 -29.6561 	 -107.814
| 14> H 	 36.1828 	 -28.9671 	 -107.821
| 15> H 	 35.6746 	 -30.5442 	 -107.259
| 16> C 	 34.2282 	 -28.8803 	 -107.071
| 17> H 	 34.1654 	 -27.9364 	 -107.638
| 18> H 	 33.3461 	 -29.4492 	 -107.223
| 19> C 	 34.4818 	 -28.7159 	 -105.543
| 20> H 	 34.4489 	 -29.6009 	 -104.956
| 21> H 	 35.3495 	 -28.1771 	 -105.21
| 22> H 	 33.7237 	 -28.0285 	 -105.228
| 23> S 	 36.0048 	 -32.953 	 -112.895
| 24> C 	 37.305 	 -33.2561 	 -114.047
| 25> C 	 38.1721 	 -32.1528 	 -114.03
| 26> C 	 37.8324 	 -31.1142 	 -113.163
| 27> C 	 36.6423 	 -31.3853 	 -112.461
| 28> H 	 39.0773 	 -32.1805 	 -114.737
| 29> C 	 38.7018 	 -29.799 	 -113.052
| 30> H 	 39.6213 	 -29.9884 	 -113.545
| 31> H 	 38.9937 	 -29.699 	 -111.987
| 32> C 	 38.07 	 -28.5454 	 -113.729
| 33> H 	 37.1033 	 -28.335 	 -113.261
| 34> H 	 37.9075 	 -28.8851 	 -114.746
| 35> C 	 38.8688 	 -27.2385 	 -113.658
| 36> H 	 38.8691 	 -26.9549 	 -112.626
| 37> H 	 38.5608 	 -26.4801 	 -114.402
| 38> H 	 39.9186 	 -27.4335 	 -113.762
| 39> H 	 33.2542 	 -29.0721 	 -109.679
| 40> H 	 37.3831 	 -34.1957 	 -114.667
| 41> *
| 42>
| 43>                          ****END OF INPUT****

CARTESIAN COORDINATES (ANGSTROEM)
---------------------------------
  S     34.350600  -30.023100  -111.704000
  C     34.123800  -29.546100  -110.035000
  C     35.218800  -30.021100  -109.284000
  C     36.220100  -30.689200  -110.087000
  C     35.895700  -30.708600  -111.399000
  H     37.142300  -31.088300  -109.812000
  C     35.377900  -29.656100  -107.814000
  H     36.182800  -28.967100  -107.821000
  H     35.674600  -30.544200  -107.259000
  C     34.228200  -28.880300  -107.071000
  H     34.165400  -27.936400  -107.638000
  H     33.346100  -29.449200  -107.223000
  C     34.481800  -28.715900  -105.543000
  H     34.448900  -29.600900  -104.956000
  H     35.349500  -28.177100  -105.210000
  H     33.723700  -28.028500  -105.228000
  S     36.004800  -32.953000  -112.895000
  C     37.305000  -33.256100  -114.047000
  C     38.172100  -32.152800  -114.030000
  C     37.832400  -31.114200  -113.163000
  C     36.642300  -31.385300  -112.461000
  H     39.077300  -32.180500  -114.737000
  C     38.701800  -29.799000  -113.052000
  H     39.621300  -29.988400  -113.545000
  H     38.993700  -29.699000  -111.987000
  C     38.070000  -28.545400  -113.729000
  H     37.103300  -28.335000  -113.261000
  H     37.907500  -28.885100  -114.746000
  C     38.868800  -27.238500  -113.658000
  H     38.869100  -26.954900  -112.626000
  H     38.560800  -26.480100  -114.402000
  H     39.918600  -27.433500  -113.762000
  H     33.254200  -29.072100  -109.679000
  H     37.383100  -34.195700  -114.667000

 Total Charge           Charge          ....    0
 Multiplicity           Mult            ....    1
 Number of Electrons    NEL             ....  134
 Basis Dimension        Dim             ....  322

ORBITAL ENERGIES
----------------

  NO   OCC          E(Eh)            E(eV)
   0   2.0000     -88.965827     -2420.8832
   1   2.0000     -88.962230     -2420.7853
   2   2.0000     -10.327661      -281.0299
   3   2.0000     -10.324016      -280.9307
   4   2.0000     -10.323505      -280.9168
   5   2.0000     -10.311793      -280.5982
   6   2.0000     -10.307861      -280.4912
   7   2.0000     -10.307001      -280.4678
   8   2.0000     -10.299957      -280.2761
   9   2.0000     -10.295517      -280.1553
  10   2.0000     -10.292902      -280.0841
  11   2.0000     -10.289294      -279.9859
  12   2.0000     -10.287037      -279.9245
  13   2.0000     -10.283116      -279.8178
  14   2.0000     -10.277215      -279.6572
  15   2.0000     -10.273908      -279.5673
  16   2.0000      -8.080285      -219.8757
  17   2.0000      -8.077535      -219.8009
  18   2.0000      -6.038621      -164.3192
  19   2.0000      -6.035949      -164.2465
  20   2.0000      -6.034627      -164.2106
  21   2.0000      -6.031847      -164.1349
  22   2.0000      -6.031433      -164.1236
  23   2.0000      -6.028474      -164.0431
  24   2.0000      -1.007690       -27.4206
  25   2.0000      -0.982335       -26.7307
  26   2.0000      -0.907179       -24.6856
  27   2.0000      -0.900205       -24.4958
  28   2.0000      -0.866218       -23.5710
  29   2.0000      -0.850525       -23.1439
  30   2.0000      -0.847498       -23.0616
  31   2.0000      -0.813861       -22.1463
  32   2.0000      -0.782658       -21.2972
  33   2.0000      -0.770311       -20.9612
  34   2.0000      -0.715514       -19.4701
  35   2.0000      -0.700201       -19.0534
  36   2.0000      -0.687407       -18.7053
  37   2.0000      -0.656157       -17.8549
  38   2.0000      -0.649929       -17.6855
  39   2.0000      -0.608036       -16.5455
  40   2.0000      -0.588614       -16.0170
  41   2.0000      -0.574602       -15.6357
  42   2.0000      -0.562865       -15.3163
  43   2.0000      -0.560550       -15.2533
  44   2.0000      -0.528012       -14.3679
  45   2.0000      -0.523487       -14.2448
  46   2.0000      -0.516603       -14.0575
  47   2.0000      -0.511650       -13.9227
  48   2.0000      -0.506273       -13.7764
  49   2.0000      -0.503163       -13.6918
  50   2.0000      -0.490790       -13.3551
  51   2.0000      -0.481950       -13.1145
  52   2.0000      -0.476624       -12.9696
  53   2.0000      -0.461989       -12.5713
  54   2.0000      -0.457676       -12.4540
  55   2.0000      -0.451394       -12.2830
  56   2.0000      -0.440428       -11.9847
  57   2.0000      -0.436004       -11.8643
  58   2.0000      -0.432020       -11.7559
  59   2.0000      -0.420285       -11.4365
  60   2.0000      -0.419960       -11.4277
  61   2.0000      -0.413980       -11.2650
  62   2.0000      -0.412312       -11.2196
  63   2.0000      -0.340745        -9.2721
  64   2.0000      -0.329905        -8.9772
  65   2.0000      -0.320634        -8.7249
  66   2.0000      -0.305639        -8.3169
  67   0.0000       0.042017         1.1434
  68   0.0000       0.058217         1.5842
  69   0.0000       0.122407         3.3309
  70   0.0000       0.127782         3.4771
  71   0.0000       0.132200         3.5973

MULLIKEN ATOMIC CHARGES
-----------------------
   0 S :    0.115794
   1 C :   -0.127781
   2 C :   -0.079805
   3 C :    0.077950
   4 C :   -0.164292
   5 H :   -0.014128
   6 C :    0.049544
   7 H :    0.028308
   8 H :    0.029248
   9 C :   -0.096366
  10 H :    0.039403
  11 H :    0.031739
  12 C :   -0.012372
  13 H :    0.034535
  14 H :    0.021782
  15 H :    0.023521
  16 S :    0.117890
  17 C :   -0.131510
  18 C :   -0.074943
  19 C :   -0.014421
  20 C :   -0.199422
  21 H :    0.046104
  22 C :    0.093986
  23 H :   -0.001358
  24 H :    0.028930
  25 C :   -0.080846
  26 H :    0.036779
  27 H :    0.027377
  28 C :   -0.014073
  29 H :    0.020540
  30 H :    0.055507
  31 H :    0.007002
  32 H :    0.040981
  33 H :    0.084396
Sum of atomic charges:   -0.0000000

LOEWDIN ATOMIC CHARGES
----------------------
   0 S :    0.418081
   1 C :   -0.202100
   2 C :   -0.052721
   3 C :   -0.054535
   4 C :   -0.208822
   5 H :    0.024639
   6 C :   -0.035176
   7 H :    0.028619
   8 H :    0.027982
   9 C :   -0.033498
  10 H :    0.028476
  11 H :    0.018513
  12 C :   -0.061574
  13 H :    0.024272
  14 H :    0.024645
  15 H :    0.029302
  16 S :    0.418554
  17 C :   -0.201284
  18 C :   -0.086893
  19 C :   -0.058622
  20 C :   -0.203226
  21 H :    0.043907
  22 C :   -0.023566
  23 H :    0.020160
  24 H :    0.030275
  25 C :   -0.038751
  26 H :    0.024399
  27 H :    0.023096
  28 C :   -0.067454
  29 H :    0.025712
  30 H :    0.035779
  31 H :    0.019010
  32 H :    0.018743
  33 H :    0.044058

  Mayer bond orders larger than 0.100000
B(  0-S ,  1-C ) :   1.1321 B(  0-S ,  4-C ) :   1.1639 B(  1-C ,  2-C ) :   1.5999
B(  1-C , 32-H ) :   0.9725 B(  2-C ,  3-C ) :   1.2198 B(  2-C ,  6-C ) :   1.0128
B(  3-C ,  4-C ) :   1.6022 B(  3-C ,  5-H ) :   1.0088 B(  4-C , 20-C ) :   0.9898
B(  6-C ,  7-H ) :   0.9403 B(  6-C ,  8-H ) :   0.9402 B(  6-C ,  9-C ) :   1.0779
B(  9-C , 10-H ) :   0.9509 B(  9-C , 11-H ) :   0.9562 B(  9-C , 12-C ) :   1.0795
B( 12-C , 13-H ) :   0.9760 B( 12-C , 14-H ) :   0.9752 B( 12-C , 15-H ) :   0.9701
B( 16-S , 17-C ) :   1.1684 B( 16-S , 20-C ) :   1.1860 B( 17-C , 18-C ) :   1.5679
B( 17-C , 20-C ) :   0.1205 B( 17-C , 33-H ) :   0.9630 B( 18-C , 19-C ) :   1.2966
B( 18-C , 21-H ) :   0.9722 B( 19-C , 20-C ) :   1.5548 B( 19-C , 22-C ) :   1.0290
B( 22-C , 23-H ) :   0.9301 B( 22-C , 24-H ) :   0.9357 B( 22-C , 25-C ) :   1.0584
B( 25-C , 26-H ) :   0.9607 B( 25-C , 27-H ) :   0.9551 B( 25-C , 28-C ) :   1.0805
B( 28-C , 29-H ) :   0.9710 B( 28-C , 30-H ) :   0.9739 B( 28-C , 31-H ) :   0.9713

Dispersion correction           -0.013674133
FINAL SINGLE POINT ENERGY     -1339.873544987152

DIPOLE MOMENT
-------------
                                X             Y             Z
Electronic contribution:     -8.50890     -18.93637     -14.62935
Nuclear contribution   :      8.90254      19.17930      15.00105
                        -----------------------------------------
Total Dipole Moment    :      0.39365       0.24293       0.37170
                        -----------------------------------------
Magnitude (a.u.)       :      0.59341
Magnitude (Debye)      :      1.50833

Rotational constants in cm-1:     0.019723     0.007376     0.006164
Rotational constants in MHz :   591.267547   221.132591   184.793729

                             ****ORCA TERMINATED NORMALLY****
TOTAL RUN TIME: 0 days 0 hours 0 minutes 19 seconds 616 msec
