                         Program Version 4.2.1 -  RELEASE  -
|  1> ! wB97X-D3 SP def2-SVP
|  2> %pal
|  3> nprocs 24
|  4> end
|  5>
|  6> * xyz 0 1
|  7> S 	 -45.7314 	 9.52176 	 -15.9916
|  8> C 	 -46.3387 	 8.53511 	 -14.6546
|  9> C 	 -46.6728 	 9.34016 	 -13.5692
| 10> C 	 -46.5887 	 10.7118 	 -13.9324
| 11> C 	 -46.3631 	 10.9802 	 -15.2735
| 12> H 	 -46.6702 	 11.4961 	 -13.2488
| 13> C 	 -47.1168 	 8.9374 	 -12.2137
| 14> H 	 -47.7336 	 8.08264 	 -12.3771
| 15> H 	 -47.6654 	 9.7506 	 -11.7723
| 16> C 	 -45.8992 	 8.66079 	 -11.2986
| 17> H 	 -45.2952 	 7.78305 	 -11.6094
| 18> H 	 -45.2293 	 9.47173 	 -11.3742
| 19> C 	 -46.3056 	 8.58058 	 -9.78524
| 20> H 	 -47.1014 	 7.83401 	 -9.54072
| 21> H 	 -45.5043 	 8.48756 	 -9.03975
| 22> H 	 -46.7098 	 9.57407 	 -9.55658
| 23> S 	 -44.6556 	 12.4619 	 -17.0657
| 24> C 	 -45.0566 	 14.1394 	 -17.2862
| 25> C 	 -46.1401 	 14.5416 	 -16.5789
| 26> C 	 -46.76 	 13.47 	 -15.7867
| 27> C 	 -46.0841 	 12.299 	 -15.9693
| 28> H 	 -46.5261 	 15.5386 	 -16.5937
| 29> C 	 -47.9037 	 13.5822 	 -14.8613
| 30> H 	 -48.3876 	 12.7192 	 -14.3796
| 31> H 	 -48.7501 	 14.0586 	 -15.3859
| 32> C 	 -47.6407 	 14.5863 	 -13.7478
| 33> H 	 -47.3363 	 15.6016 	 -14.0999
| 34> H 	 -46.756 	 14.0891 	 -13.32
| 35> C 	 -48.8165 	 14.7336 	 -12.7183
| 36> H 	 -49.647 	 15.3376 	 -13.0645
| 37> H 	 -48.5166 	 15.0359 	 -11.7062
| 38> H 	 -49.3269 	 13.767 	 -12.4969
| 39> H 	 -46.1294 	 7.48951 	 -14.4593
| 40> H 	 -44.4239 	 14.8089 	 -17.9459
| 41> *
| 42>
| 43>                          ****END OF INPUT****

CARTESIAN COORDINATES (ANGSTROEM)
---------------------------------
  S    -45.731400    9.521760  -15.991600
  C    -46.338700    8.535110  -14.654600
  C    -46.672800    9.340160  -13.569200
  C    -46.588700   10.711800  -13.932400
  C    -46.363100   10.980200  -15.273500
  H    -46.670200   11.496100  -13.248800
  C    -47.116800    8.937400  -12.213700
  H    -47.733600    8.082640  -12.377100
  H    -47.665400    9.750600  -11.772300
  C    -45.899200    8.660790  -11.298600
  H    -45.295200    7.783050  -11.609400
  H    -45.229300    9.471730  -11.374200
  C    -46.305600    8.580580   -9.785240
  H    -47.101400    7.834010   -9.540720
  H    -45.504300    8.487560   -9.039750
  H    -46.709800    9.574070   -9.556580
  S    -44.655600   12.461900  -17.065700
  C    -45.056600   14.139400  -17.286200
  C    -46.140100   14.541600  -16.578900
  C    -46.760000   13.470000  -15.786700
  C    -46.084100   12.299000  -15.969300
  H    -46.526100   15.538600  -16.593700
  C    -47.903700   13.582200  -14.861300
  H    -48.387600   12.719200  -14.379600
  H    -48.750100   14.058600  -15.385900
  C    -47.640700   14.586300  -13.747800
  H    -47.336300   15.601600  -14.099900
  H    -46.756000   14.089100  -13.320000
  C    -48.816500   14.733600  -12.718300
  H    -49.647000   15.337600  -13.064500
  H    -48.516600   15.035900  -11.706200
  H    -49.326900   13.767000  -12.496900
  H    -46.129400    7.489510  -14.459300
  H    -44.423900   14.808900  -17.945900

 Total Charge           Charge          ....    0
 Multiplicity           Mult            ....    1
 Number of Electrons    NEL             ....  134
 Basis Dimension        Dim             ....  322

ORBITAL ENERGIES
----------------

  NO   OCC          E(Eh)            E(eV)
   0   2.0000     -88.967037     -2420.9162
   1   2.0000     -88.964696     -2420.8525
   2   2.0000     -10.332967      -281.1743
   3   2.0000     -10.332911      -281.1728
   4   2.0000     -10.324274      -280.9378
   5   2.0000     -10.313968      -280.6573
   6   2.0000     -10.305751      -280.4337
   7   2.0000     -10.299029      -280.2508
   8   2.0000     -10.298585      -280.2387
   9   2.0000     -10.294424      -280.1255
  10   2.0000     -10.291549      -280.0473
  11   2.0000     -10.291436      -280.0442
  12   2.0000     -10.291371      -280.0425
  13   2.0000     -10.289233      -279.9843
  14   2.0000     -10.286875      -279.9201
  15   2.0000     -10.285690      -279.8878
  16   2.0000      -8.081341      -219.9045
  17   2.0000      -8.079201      -219.8462
  18   2.0000      -6.040003      -164.3568
  19   2.0000      -6.037798      -164.2968
  20   2.0000      -6.036150      -164.2520
  21   2.0000      -6.033932      -164.1916
  22   2.0000      -6.031720      -164.1314
  23   2.0000      -6.029692      -164.0763
  24   2.0000      -1.004982       -27.3469
  25   2.0000      -0.985226       -26.8094
  26   2.0000      -0.916076       -24.9277
  27   2.0000      -0.915790       -24.9199
  28   2.0000      -0.864134       -23.5143
  29   2.0000      -0.851244       -23.1635
  30   2.0000      -0.841507       -22.8986
  31   2.0000      -0.815768       -22.1982
  32   2.0000      -0.786024       -21.3888
  33   2.0000      -0.774303       -21.0698
  34   2.0000      -0.708453       -19.2780
  35   2.0000      -0.701329       -19.0841
  36   2.0000      -0.694443       -18.8967
  37   2.0000      -0.660167       -17.9641
  38   2.0000      -0.638474       -17.3738
  39   2.0000      -0.626211       -17.0401
  40   2.0000      -0.607119       -16.5205
  41   2.0000      -0.573811       -15.6142
  42   2.0000      -0.568248       -15.4628
  43   2.0000      -0.556967       -15.1558
  44   2.0000      -0.529461       -14.4074
  45   2.0000      -0.518545       -14.1103
  46   2.0000      -0.516411       -14.0522
  47   2.0000      -0.511608       -13.9215
  48   2.0000      -0.503104       -13.6902
  49   2.0000      -0.500387       -13.6162
  50   2.0000      -0.488879       -13.3031
  51   2.0000      -0.477986       -13.0067
  52   2.0000      -0.471357       -12.8263
  53   2.0000      -0.464810       -12.6481
  54   2.0000      -0.458970       -12.4892
  55   2.0000      -0.453541       -12.3415
  56   2.0000      -0.446780       -12.1575
  57   2.0000      -0.440519       -11.9871
  58   2.0000      -0.434846       -11.8328
  59   2.0000      -0.430113       -11.7040
  60   2.0000      -0.426082       -11.5943
  61   2.0000      -0.420216       -11.4347
  62   2.0000      -0.413088       -11.2407
  63   2.0000      -0.353580        -9.6214
  64   2.0000      -0.332139        -9.0380
  65   2.0000      -0.324333        -8.8256
  66   2.0000      -0.291084        -7.9208
  67   0.0000       0.024386         0.6636
  68   0.0000       0.072447         1.9714
  69   0.0000       0.096756         2.6329
  70   0.0000       0.120856         3.2887
  71   0.0000       0.127493         3.4693

MULLIKEN ATOMIC CHARGES
-----------------------
   0 S :    0.083738
   1 C :   -0.091816
   2 C :   -0.131104
   3 C :    0.029436
   4 C :   -0.117695
   5 H :   -0.016134
   6 C :    0.107537
   7 H :    0.030614
   8 H :    0.014539
   9 C :   -0.064531
  10 H :    0.033891
  11 H :    0.018493
  12 C :   -0.066939
  13 H :    0.041543
  14 H :    0.038858
  15 H :    0.020223
  16 S :    0.094412
  17 C :   -0.102198
  18 C :   -0.001326
  19 C :   -0.035909
  20 C :   -0.134609
  21 H :    0.010707
  22 C :    0.052071
  23 H :    0.037092
  24 H :    0.019456
  25 C :   -0.115480
  26 H :    0.042326
  27 H :    0.029165
  28 C :   -0.048202
  29 H :    0.037057
  30 H :    0.040403
  31 H :    0.016999
  32 H :    0.046164
  33 H :    0.081218
Sum of atomic charges:   -0.0000000

LOEWDIN ATOMIC CHARGES
----------------------
   0 S :    0.398656
   1 C :   -0.198395
   2 C :   -0.059003
   3 C :   -0.061440
   4 C :   -0.181566
   5 H :    0.015803
   6 C :   -0.023198
   7 H :    0.032701
   8 H :    0.029449
   9 C :   -0.033036
  10 H :    0.025239
  11 H :    0.019501
  12 C :   -0.075116
  13 H :    0.028068
  14 H :    0.027185
  15 H :    0.023195
  16 S :    0.370627
  17 C :   -0.185279
  18 C :   -0.065694
  19 C :   -0.053355
  20 C :   -0.175092
  21 H :    0.028324
  22 C :   -0.041702
  23 H :    0.035473
  24 H :    0.031298
  25 C :   -0.041948
  26 H :    0.026227
  27 H :    0.022162
  28 C :   -0.074445
  29 H :    0.025879
  30 H :    0.029924
  31 H :    0.026298
  32 H :    0.029045
  33 H :    0.044217

  Mayer bond orders larger than 0.100000
B(  0-S ,  1-C ) :   1.1385 B(  0-S ,  4-C ) :   1.1545 B(  1-C ,  2-C ) :   1.6005
B(  1-C , 32-H ) :   0.9622 B(  2-C ,  3-C ) :   1.2680 B(  2-C ,  6-C ) :   1.0285
B(  3-C ,  4-C ) :   1.5414 B(  3-C ,  5-H ) :   0.9969 B(  4-C , 20-C ) :   1.0342
B(  6-C ,  7-H ) :   0.9338 B(  6-C ,  8-H ) :   0.9420 B(  6-C ,  9-C ) :   1.0531
B(  9-C , 10-H ) :   0.9585 B(  9-C , 11-H ) :   0.9583 B(  9-C , 12-C ) :   1.0705
B( 12-C , 13-H ) :   0.9774 B( 12-C , 14-H ) :   0.9765 B( 12-C , 15-H ) :   0.9744
B( 16-S , 17-C ) :   1.1337 B( 16-S , 20-C ) :   1.1039 B( 17-C , 18-C ) :   1.6562
B( 17-C , 33-H ) :   0.9566 B( 18-C , 19-C ) :   1.1869 B( 18-C , 21-H ) :   0.9927
B( 19-C , 20-C ) :   1.6701 B( 19-C , 22-C ) :   1.0619 B( 22-C , 23-H ) :   0.9388
B( 22-C , 24-H ) :   0.9194 B( 22-C , 25-C ) :   1.0360 B( 25-C , 26-H ) :   0.9566
B( 25-C , 27-H ) :   0.9597 B( 25-C , 28-C ) :   1.0705 B( 28-C , 29-H ) :   0.9754
B( 28-C , 30-H ) :   0.9768 B( 28-C , 31-H ) :   0.9718

Dispersion correction           -0.013967042
FINAL SINGLE POINT ENERGY     -1339.865869683618

DIPOLE MOMENT
-------------
                                X             Y             Z
Electronic contribution:     12.66160      -3.58137     -29.12605
Nuclear contribution   :    -12.85852       3.94273      29.82957
                        -----------------------------------------
Total Dipole Moment    :     -0.19693       0.36136       0.70352
                        -----------------------------------------
Magnitude (a.u.)       :      0.81505
Magnitude (Debye)      :      2.07168

Rotational constants in cm-1:     0.017234     0.008906     0.006384
Rotational constants in MHz :   516.663584   267.000082   191.396903

                             ****ORCA TERMINATED NORMALLY****
TOTAL RUN TIME: 0 days 0 hours 0 minutes 21 seconds 623 msec
