                         Program Version 4.2.1 -  RELEASE  -
|  1> ! wB97X-D3 SP def2-SVP
|  2> %pal
|  3> nprocs 24
|  4> end
|  5>
|  6> * xyz 0 1
|  7> S 	 -106.534 	 56.7337 	 -89.1094
|  8> C 	 -105.072 	 56.2649 	 -88.1159
|  9> C 	 -104.018 	 55.9394 	 -88.935
| 10> C 	 -104.389 	 56.0325 	 -90.334
| 11> C 	 -105.735 	 56.2283 	 -90.6355
| 12> H 	 -103.694 	 55.8649 	 -91.1411
| 13> C 	 -102.652 	 55.467 	 -88.6569
| 14> H 	 -102.125 	 54.9302 	 -89.4903
| 15> H 	 -102.885 	 54.7151 	 -87.9286
| 16> C 	 -101.599 	 56.4104 	 -88.1037
| 17> H 	 -101.161 	 57.1292 	 -88.846
| 18> H 	 -102.027 	 57.0389 	 -87.2849
| 19> C 	 -100.449 	 55.5945 	 -87.577
| 20> H 	 -99.9179 	 56.1151 	 -86.7989
| 21> H 	 -100.823 	 54.6871 	 -87.0778
| 22> H 	 -99.7412 	 55.1763 	 -88.3295
| 23> S 	 -107.871 	 54.8905 	 -91.8918
| 24> C 	 -108.023 	 55.0813 	 -93.6734
| 25> C 	 -107.163 	 55.9955 	 -94.1758
| 26> C 	 -106.231 	 56.4844 	 -93.1607
| 27> C 	 -106.472 	 55.9931 	 -91.8946
| 28> H 	 -107.13 	 56.2156 	 -95.3029
| 29> C 	 -105.063 	 57.3268 	 -93.5201
| 30> H 	 -104.761 	 57.9846 	 -92.6651
| 31> H 	 -105.385 	 58.1015 	 -94.2044
| 32> C 	 -103.927 	 56.6078 	 -94.1577
| 33> H 	 -104.277 	 55.8989 	 -94.9593
| 34> H 	 -103.614 	 56.0316 	 -93.3224
| 35> C 	 -102.767 	 57.4779 	 -94.6237
| 36> H 	 -102.004 	 56.9024 	 -95.175
| 37> H 	 -102.177 	 57.909 	 -93.8042
| 38> H 	 -103.175 	 58.2662 	 -95.3506
| 39> H 	 -105.109 	 56.2542 	 -87.0735
| 40> H 	 -108.774 	 54.5792 	 -94.2884
| 41> *
| 42>
| 43>                          ****END OF INPUT****

CARTESIAN COORDINATES (ANGSTROEM)
---------------------------------
  S    -106.534000   56.733700  -89.109400
  C    -105.072000   56.264900  -88.115900
  C    -104.018000   55.939400  -88.935000
  C    -104.389000   56.032500  -90.334000
  C    -105.735000   56.228300  -90.635500
  H    -103.694000   55.864900  -91.141100
  C    -102.652000   55.467000  -88.656900
  H    -102.125000   54.930200  -89.490300
  H    -102.885000   54.715100  -87.928600
  C    -101.599000   56.410400  -88.103700
  H    -101.161000   57.129200  -88.846000
  H    -102.027000   57.038900  -87.284900
  C    -100.449000   55.594500  -87.577000
  H    -99.917900   56.115100  -86.798900
  H    -100.823000   54.687100  -87.077800
  H    -99.741200   55.176300  -88.329500
  S    -107.871000   54.890500  -91.891800
  C    -108.023000   55.081300  -93.673400
  C    -107.163000   55.995500  -94.175800
  C    -106.231000   56.484400  -93.160700
  C    -106.472000   55.993100  -91.894600
  H    -107.130000   56.215600  -95.302900
  C    -105.063000   57.326800  -93.520100
  H    -104.761000   57.984600  -92.665100
  H    -105.385000   58.101500  -94.204400
  C    -103.927000   56.607800  -94.157700
  H    -104.277000   55.898900  -94.959300
  H    -103.614000   56.031600  -93.322400
  C    -102.767000   57.477900  -94.623700
  H    -102.004000   56.902400  -95.175000
  H    -102.177000   57.909000  -93.804200
  H    -103.175000   58.266200  -95.350600
  H    -105.109000   56.254200  -87.073500
  H    -108.774000   54.579200  -94.288400

 Total Charge           Charge          ....    0
 Multiplicity           Mult            ....    1
 Number of Electrons    NEL             ....  134
 Basis Dimension        Dim             ....  322

ORBITAL ENERGIES
----------------

  NO   OCC          E(Eh)            E(eV)
   0   2.0000     -88.966032     -2420.8888
   1   2.0000     -88.962822     -2420.8015
   2   2.0000     -10.336860      -281.2803
   3   2.0000     -10.332560      -281.1632
   4   2.0000     -10.322543      -280.8907
   5   2.0000     -10.319569      -280.8098
   6   2.0000     -10.305739      -280.4334
   7   2.0000     -10.304751      -280.4065
   8   2.0000     -10.303452      -280.3712
   9   2.0000     -10.295297      -280.1493
  10   2.0000     -10.292623      -280.0765
  11   2.0000     -10.292484      -280.0727
  12   2.0000     -10.287931      -279.9488
  13   2.0000     -10.285456      -279.8815
  14   2.0000     -10.284972      -279.8683
  15   2.0000     -10.278779      -279.6998
  16   2.0000      -8.079676      -219.8592
  17   2.0000      -8.075942      -219.7576
  18   2.0000      -6.038434      -164.3141
  19   2.0000      -6.034783      -164.2148
  20   2.0000      -6.034464      -164.2061
  21   2.0000      -6.030761      -164.1054
  22   2.0000      -6.030079      -164.0868
  23   2.0000      -6.026357      -163.9855
  24   2.0000      -0.997635       -27.1470
  25   2.0000      -0.976659       -26.5763
  26   2.0000      -0.918891       -25.0043
  27   2.0000      -0.916875       -24.9494
  28   2.0000      -0.871145       -23.7051
  29   2.0000      -0.848370       -23.0853
  30   2.0000      -0.843463       -22.9518
  31   2.0000      -0.816096       -22.2071
  32   2.0000      -0.780425       -21.2365
  33   2.0000      -0.772003       -21.0073
  34   2.0000      -0.706929       -19.2365
  35   2.0000      -0.703077       -19.1317
  36   2.0000      -0.693931       -18.8828
  37   2.0000      -0.658467       -17.9178
  38   2.0000      -0.645291       -17.5592
  39   2.0000      -0.618028       -16.8174
  40   2.0000      -0.597963       -16.2714
  41   2.0000      -0.581028       -15.8106
  42   2.0000      -0.570260       -15.5176
  43   2.0000      -0.556120       -15.1328
  44   2.0000      -0.526736       -14.3332
  45   2.0000      -0.522176       -14.2091
  46   2.0000      -0.518828       -14.1180
  47   2.0000      -0.515310       -14.0223
  48   2.0000      -0.509883       -13.8746
  49   2.0000      -0.498149       -13.5553
  50   2.0000      -0.494133       -13.4460
  51   2.0000      -0.479628       -13.0513
  52   2.0000      -0.469092       -12.7646
  53   2.0000      -0.466121       -12.6838
  54   2.0000      -0.452976       -12.3261
  55   2.0000      -0.450692       -12.2640
  56   2.0000      -0.442340       -12.0367
  57   2.0000      -0.434185       -11.8148
  58   2.0000      -0.430999       -11.7281
  59   2.0000      -0.425025       -11.5655
  60   2.0000      -0.418864       -11.3979
  61   2.0000      -0.411199       -11.1893
  62   2.0000      -0.408068       -11.1041
  63   2.0000      -0.346822        -9.4375
  64   2.0000      -0.330153        -8.9839
  65   2.0000      -0.325115        -8.8468
  66   2.0000      -0.297627        -8.0988
  67   0.0000       0.025826         0.7028
  68   0.0000       0.064282         1.7492
  69   0.0000       0.108117         2.9420
  70   0.0000       0.115753         3.1498
  71   0.0000       0.122198         3.3252

MULLIKEN ATOMIC CHARGES
-----------------------
   0 S :    0.079906
   1 C :   -0.118412
   2 C :   -0.021812
   3 C :    0.023620
   4 C :   -0.148234
   5 H :   -0.000529
   6 C :    0.025039
   7 H :    0.035360
   8 H :    0.028333
   9 C :   -0.066595
  10 H :    0.041172
  11 H :    0.032078
  12 C :   -0.056311
  13 H :    0.032570
  14 H :    0.015356
  15 H :    0.039739
  16 S :    0.100235
  17 C :   -0.098707
  18 C :   -0.038697
  19 C :   -0.040872
  20 C :   -0.138458
  21 H :    0.054723
  22 C :    0.044043
  23 H :    0.032948
  24 H :    0.002280
  25 C :   -0.048728
  26 H :    0.038677
  27 H :    0.001794
  28 C :   -0.056619
  29 H :    0.036618
  30 H :    0.037617
  31 H :    0.041960
  32 H :    0.027230
  33 H :    0.062674
Sum of atomic charges:    0.0000000

LOEWDIN ATOMIC CHARGES
----------------------
   0 S :    0.348819
   1 C :   -0.158739
   2 C :   -0.057945
   3 C :   -0.058259
   4 C :   -0.174474
   5 H :    0.022492
   6 C :   -0.041510
   7 H :    0.039187
   8 H :    0.035459
   9 C :   -0.044472
  10 H :    0.030882
  11 H :    0.027265
  12 C :   -0.071733
  13 H :    0.025497
  14 H :    0.023381
  15 H :    0.029445
  16 S :    0.370982
  17 C :   -0.165743
  18 C :   -0.077874
  19 C :   -0.049696
  20 C :   -0.189392
  21 H :    0.049821
  22 C :   -0.044513
  23 H :    0.037053
  24 H :    0.023454
  25 C :   -0.045910
  26 H :    0.032202
  27 H :    0.016292
  28 C :   -0.070747
  29 H :    0.029107
  30 H :    0.027995
  31 H :    0.032634
  32 H :    0.015127
  33 H :    0.033914

  Mayer bond orders larger than 0.100000
B(  0-S ,  1-C ) :   1.1077 B(  0-S ,  4-C ) :   1.1266 B(  1-C ,  2-C ) :   1.6204
B(  1-C , 32-H ) :   0.9836 B(  2-C ,  3-C ) :   1.2229 B(  2-C ,  6-C ) :   1.0078
B(  3-C ,  4-C ) :   1.5927 B(  3-C ,  5-H ) :   0.9898 B(  4-C , 20-C ) :   1.0450
B(  6-C ,  7-H ) :   0.9455 B(  6-C ,  8-H ) :   0.9335 B(  6-C ,  9-C ) :   1.0704
B(  9-C , 10-H ) :   0.9523 B(  9-C , 11-H ) :   0.9558 B(  9-C , 12-C ) :   1.0770
B( 12-C , 13-H ) :   0.9730 B( 12-C , 14-H ) :   0.9735 B( 12-C , 15-H ) :   0.9733
B( 16-S , 17-C ) :   1.1286 B( 16-S , 20-C ) :   1.1061 B( 17-C , 18-C ) :   1.6696
B( 17-C , 33-H ) :   0.9617 B( 18-C , 19-C ) :   1.1931 B( 18-C , 21-H ) :   0.9726
B( 19-C , 20-C ) :   1.6411 B( 19-C , 22-C ) :   1.0708 B( 22-C , 23-H ) :   0.9254
B( 22-C , 24-H ) :   0.9186 B( 22-C , 25-C ) :   1.0575 B( 25-C , 26-H ) :   0.9505
B( 25-C , 27-H ) :   0.9468 B( 25-C , 28-C ) :   1.0872 B( 28-C , 29-H ) :   0.9729
B( 28-C , 30-H ) :   0.9721 B( 28-C , 31-H ) :   0.9729

Dispersion correction           -0.013861067
FINAL SINGLE POINT ENERGY     -1339.865711703225

DIPOLE MOMENT
-------------
                                X             Y             Z
Electronic contribution:    -30.87095      -3.60441       3.39732
Nuclear contribution   :     31.59498       3.52515      -3.69358
                        -----------------------------------------
Total Dipole Moment    :      0.72404      -0.07926      -0.29625
                        -----------------------------------------
Magnitude (a.u.)       :      0.78631
Magnitude (Debye)      :      1.99864

Rotational constants in cm-1:     0.017916     0.008382     0.006231
Rotational constants in MHz :   537.103920   251.279522   186.791955

                             ****ORCA TERMINATED NORMALLY****
TOTAL RUN TIME: 0 days 0 hours 0 minutes 21 seconds 427 msec
