                         Program Version 4.2.1 -  RELEASE  -
|  1> ! wB97X-D3 SP def2-SVP
|  2> %pal
|  3> nprocs 24
|  4> end
|  5>
|  6> * xyz 0 1
|  7> S 	 -119.825 	 20.5244 	 -110.745
|  8> C 	 -121.003 	 21.7753 	 -111.164
|  9> C 	 -122.188 	 21.2161 	 -111.567
| 10> C 	 -122.21 	 19.8054 	 -111.355
| 11> C 	 -121.019 	 19.2061 	 -110.935
| 12> H 	 -123.083 	 19.3362 	 -111.416
| 13> C 	 -123.385 	 21.9915 	 -112.024
| 14> H 	 -123.17 	 23.0137 	 -111.773
| 15> H 	 -124.146 	 21.6985 	 -111.325
| 16> C 	 -123.765 	 21.6912 	 -113.471
| 17> H 	 -122.947 	 22.0634 	 -114.121
| 18> H 	 -123.836 	 20.6267 	 -113.856
| 19> C 	 -124.988 	 22.4356 	 -113.857
| 20> H 	 -124.675 	 23.5167 	 -113.888
| 21> H 	 -125.277 	 22.1142 	 -114.855
| 22> H 	 -125.782 	 22.3308 	 -113.113
| 23> S 	 -119.685 	 17.5034 	 -109.083
| 24> C 	 -119.573 	 15.804 	 -109.452
| 25> C 	 -120.416 	 15.4886 	 -110.484
| 26> C 	 -121.108 	 16.5986 	 -111.116
| 27> C 	 -120.681 	 17.8091 	 -110.536
| 28> H 	 -120.505 	 14.4756 	 -110.906
| 29> C 	 -122.165 	 16.4255 	 -112.178
| 30> H 	 -123.162 	 16.782 	 -111.983
| 31> H 	 -122.261 	 15.2936 	 -112.361
| 32> C 	 -121.745 	 16.9228 	 -113.56
| 33> H 	 -120.794 	 16.5478 	 -113.963
| 34> H 	 -121.759 	 17.9809 	 -113.58
| 35> C 	 -122.727 	 16.5543 	 -114.69
| 36> H 	 -122.597 	 15.562 	 -114.993
| 37> H 	 -122.507 	 17.1237 	 -115.581
| 38> H 	 -123.785 	 16.7694 	 -114.531
| 39> H 	 -120.674 	 22.7856 	 -111.242
| 40> H 	 -119.053 	 14.9991 	 -108.921
| 41> *
| 42>
| 43>                          ****END OF INPUT****

CARTESIAN COORDINATES (ANGSTROEM)
---------------------------------
  S    -119.825000   20.524400  -110.745000
  C    -121.003000   21.775300  -111.164000
  C    -122.188000   21.216100  -111.567000
  C    -122.210000   19.805400  -111.355000
  C    -121.019000   19.206100  -110.935000
  H    -123.083000   19.336200  -111.416000
  C    -123.385000   21.991500  -112.024000
  H    -123.170000   23.013700  -111.773000
  H    -124.146000   21.698500  -111.325000
  C    -123.765000   21.691200  -113.471000
  H    -122.947000   22.063400  -114.121000
  H    -123.836000   20.626700  -113.856000
  C    -124.988000   22.435600  -113.857000
  H    -124.675000   23.516700  -113.888000
  H    -125.277000   22.114200  -114.855000
  H    -125.782000   22.330800  -113.113000
  S    -119.685000   17.503400  -109.083000
  C    -119.573000   15.804000  -109.452000
  C    -120.416000   15.488600  -110.484000
  C    -121.108000   16.598600  -111.116000
  C    -120.681000   17.809100  -110.536000
  H    -120.505000   14.475600  -110.906000
  C    -122.165000   16.425500  -112.178000
  H    -123.162000   16.782000  -111.983000
  H    -122.261000   15.293600  -112.361000
  C    -121.745000   16.922800  -113.560000
  H    -120.794000   16.547800  -113.963000
  H    -121.759000   17.980900  -113.580000
  C    -122.727000   16.554300  -114.690000
  H    -122.597000   15.562000  -114.993000
  H    -122.507000   17.123700  -115.581000
  H    -123.785000   16.769400  -114.531000
  H    -120.674000   22.785600  -111.242000
  H    -119.053000   14.999100  -108.921000

 Total Charge           Charge          ....    0
 Multiplicity           Mult            ....    1
 Number of Electrons    NEL             ....  134
 Basis Dimension        Dim             ....  322

ORBITAL ENERGIES
----------------

  NO   OCC          E(Eh)            E(eV)
   0   2.0000     -88.969259     -2420.9766
   1   2.0000     -88.960950     -2420.7505
   2   2.0000     -10.338932      -281.3366
   3   2.0000     -10.336369      -281.2669
   4   2.0000     -10.318717      -280.7866
   5   2.0000     -10.312278      -280.6113
   6   2.0000     -10.309079      -280.5243
   7   2.0000     -10.299597      -280.2663
   8   2.0000     -10.297450      -280.2079
   9   2.0000     -10.296193      -280.1736
  10   2.0000     -10.291680      -280.0509
  11   2.0000     -10.291043      -280.0335
  12   2.0000     -10.286813      -279.9184
  13   2.0000     -10.280349      -279.7425
  14   2.0000     -10.279750      -279.7262
  15   2.0000     -10.269413      -279.4449
  16   2.0000      -8.083182      -219.9546
  17   2.0000      -8.075081      -219.7341
  18   2.0000      -6.041864      -164.4075
  19   2.0000      -6.037848      -164.2982
  20   2.0000      -6.033762      -164.1870
  21   2.0000      -6.033730      -164.1861
  22   2.0000      -6.029554      -164.0725
  23   2.0000      -6.025808      -163.9706
  24   2.0000      -0.999133       -27.1878
  25   2.0000      -0.981093       -26.6969
  26   2.0000      -0.919677       -25.0257
  27   2.0000      -0.910541       -24.7771
  28   2.0000      -0.869157       -23.6510
  29   2.0000      -0.852805       -23.2060
  30   2.0000      -0.845906       -23.0183
  31   2.0000      -0.817605       -22.2482
  32   2.0000      -0.784579       -21.3495
  33   2.0000      -0.771041       -20.9811
  34   2.0000      -0.709064       -19.2946
  35   2.0000      -0.697463       -18.9789
  36   2.0000      -0.689292       -18.7566
  37   2.0000      -0.659523       -17.9465
  38   2.0000      -0.644363       -17.5340
  39   2.0000      -0.628989       -17.1157
  40   2.0000      -0.600572       -16.3424
  41   2.0000      -0.571443       -15.5497
  42   2.0000      -0.569241       -15.4898
  43   2.0000      -0.561486       -15.2788
  44   2.0000      -0.539992       -14.6939
  45   2.0000      -0.520792       -14.1715
  46   2.0000      -0.516654       -14.0589
  47   2.0000      -0.512090       -13.9347
  48   2.0000      -0.510889       -13.9020
  49   2.0000      -0.499475       -13.5914
  50   2.0000      -0.492011       -13.3883
  51   2.0000      -0.486119       -13.2280
  52   2.0000      -0.465884       -12.6774
  53   2.0000      -0.463149       -12.6029
  54   2.0000      -0.458567       -12.4782
  55   2.0000      -0.450167       -12.2497
  56   2.0000      -0.443003       -12.0547
  57   2.0000      -0.442580       -12.0432
  58   2.0000      -0.434462       -11.8223
  59   2.0000      -0.427931       -11.6446
  60   2.0000      -0.414355       -11.2752
  61   2.0000      -0.411515       -11.1979
  62   2.0000      -0.409331       -11.1385
  63   2.0000      -0.351452        -9.5635
  64   2.0000      -0.330558        -8.9949
  65   2.0000      -0.326580        -8.8867
  66   2.0000      -0.289241        -7.8706
  67   0.0000       0.020287         0.5520
  68   0.0000       0.077469         2.1080
  69   0.0000       0.106689         2.9032
  70   0.0000       0.119243         3.2448
  71   0.0000       0.129170         3.5149

MULLIKEN ATOMIC CHARGES
-----------------------
   0 S :    0.080209
   1 C :   -0.127791
   2 C :   -0.104177
   3 C :    0.086133
   4 C :   -0.127592
   5 H :   -0.056856
   6 C :    0.104096
   7 H :    0.012800
   8 H :    0.026088
   9 C :   -0.113605
  10 H :    0.028780
  11 H :    0.041513
  12 C :   -0.025431
  13 H :    0.032446
  14 H :    0.033905
  15 H :    0.031906
  16 S :    0.117887
  17 C :   -0.085263
  18 C :   -0.043819
  19 C :   -0.009023
  20 C :   -0.146231
  21 H :    0.024803
  22 C :    0.040636
  23 H :    0.038217
  24 H :    0.023929
  25 C :   -0.073833
  26 H :    0.033094
  27 H :    0.030118
  28 C :   -0.041716
  29 H :    0.017662
  30 H :    0.019965
  31 H :    0.021760
  32 H :    0.043854
  33 H :    0.065537
Sum of atomic charges:   -0.0000000

LOEWDIN ATOMIC CHARGES
----------------------
   0 S :    0.376617
   1 C :   -0.185206
   2 C :   -0.060480
   3 C :   -0.050731
   4 C :   -0.170198
   5 H :    0.003577
   6 C :   -0.026041
   7 H :    0.031572
   8 H :    0.031449
   9 C :   -0.053544
  10 H :    0.029356
  11 H :    0.030640
  12 C :   -0.065480
  13 H :    0.031251
  14 H :    0.025836
  15 H :    0.022540
  16 S :    0.399335
  17 C :   -0.195936
  18 C :   -0.073648
  19 C :   -0.051270
  20 C :   -0.186551
  21 H :    0.032639
  22 C :   -0.034582
  23 H :    0.029867
  24 H :    0.039086
  25 C :   -0.035427
  26 H :    0.030078
  27 H :    0.016430
  28 C :   -0.064717
  29 H :    0.013777
  30 H :    0.026576
  31 H :    0.020987
  32 H :    0.021710
  33 H :    0.040486

  Mayer bond orders larger than 0.100000
B(  0-S ,  1-C ) :   1.1334 B(  0-S ,  4-C ) :   1.1472 B(  1-C ,  2-C ) :   1.6028
B(  1-C , 32-H ) :   0.9728 B(  2-C ,  3-C ) :   1.2524 B(  2-C ,  6-C ) :   1.0227
B(  3-C ,  4-C ) :   1.5431 B(  3-C ,  5-H ) :   1.0122 B(  4-C , 20-C ) :   1.0569
B(  6-C ,  7-H ) :   0.9385 B(  6-C ,  8-H ) :   0.9345 B(  6-C ,  9-C ) :   1.0479
B(  9-C , 10-H ) :   0.9505 B(  9-C , 11-H ) :   0.9601 B(  9-C , 12-C ) :   1.0888
B( 12-C , 13-H ) :   0.9730 B( 12-C , 14-H ) :   0.9719 B( 12-C , 15-H ) :   0.9748
B( 16-S , 17-C ) :   1.1346 B( 16-S , 20-C ) :   1.1415 B( 17-C , 18-C ) :   1.6234
B( 17-C , 33-H ) :   0.9620 B( 18-C , 19-C ) :   1.2590 B( 18-C , 21-H ) :   0.9764
B( 19-C , 20-C ) :   1.5741 B( 19-C , 22-C ) :   1.0377 B( 22-C , 23-H ) :   0.9376
B( 22-C , 24-H ) :   0.9377 B( 22-C , 25-C ) :   1.0651 B( 25-C , 26-H ) :   0.9559
B( 25-C , 27-H ) :   0.9557 B( 25-C , 28-C ) :   1.0886 B( 28-C , 29-H ) :   0.9770
B( 28-C , 30-H ) :   0.9722 B( 28-C , 31-H ) :   0.9715

Dispersion correction           -0.014135045
FINAL SINGLE POINT ENERGY     -1339.867066932368

DIPOLE MOMENT
-------------
                                X             Y             Z
Electronic contribution:     22.25739      -2.73445      24.21590
Nuclear contribution   :    -22.83045       2.66415     -24.69218
                        -----------------------------------------
Total Dipole Moment    :     -0.57306      -0.07030      -0.47628
                        -----------------------------------------
Magnitude (a.u.)       :      0.74845
Magnitude (Debye)      :      1.90241

Rotational constants in cm-1:     0.018538     0.009019     0.006514
Rotational constants in MHz :   555.743559   270.381646   195.276160

                             ****ORCA TERMINATED NORMALLY****
TOTAL RUN TIME: 0 days 0 hours 0 minutes 21 seconds 904 msec
