                         Program Version 4.2.1 -  RELEASE  -
|  1> ! wB97X-D3 SP def2-SVP
|  2> %pal
|  3> nprocs 24
|  4> end
|  5>
|  6> * xyz 0 1
|  7> S 	 -50.3882 	 13.3138 	 -103.299
|  8> C 	 -50.612 	 11.6729 	 -103.202
|  9> C 	 -51.9073 	 11.3716 	 -103.557
| 10> C 	 -52.5533 	 12.454 	 -104.21
| 11> C 	 -51.8634 	 13.6659 	 -104.171
| 12> H 	 -53.4511 	 12.4295 	 -104.789
| 13> C 	 -52.5715 	 10.0221 	 -103.478
| 14> H 	 -51.8319 	 9.36592 	 -103.008
| 15> H 	 -52.5909 	 9.79841 	 -104.55
| 16> C 	 -53.9195 	 9.85186 	 -102.664
| 17> H 	 -54.6886 	 10.4609 	 -103.059
| 18> H 	 -54.2061 	 8.80287 	 -102.684
| 19> C 	 -53.7763 	 10.0297 	 -101.106
| 20> H 	 -53.892 	 11.1077 	 -100.854
| 21> H 	 -54.697 	 9.67575 	 -100.595
| 22> H 	 -52.8987 	 9.67795 	 -100.682
| 23> S 	 -53.4684 	 15.7396 	 -104.644
| 24> C 	 -53.0271 	 17.0031 	 -105.75
| 25> C 	 -51.8378 	 16.756 	 -106.37
| 26> C 	 -51.3098 	 15.4951 	 -106.028
| 27> C 	 -52.1081 	 14.8201 	 -105.067
| 28> H 	 -51.3724 	 17.5145 	 -107.032
| 29> C 	 -49.902 	 15.1677 	 -106.535
| 30> H 	 -49.3727 	 14.5727 	 -105.828
| 31> H 	 -49.4333 	 16.1339 	 -106.889
| 32> C 	 -49.8834 	 14.3904 	 -107.785
| 33> H 	 -50.3273 	 15.0357 	 -108.484
| 34> H 	 -50.4956 	 13.4986 	 -107.805
| 35> C 	 -48.4321 	 14.1187 	 -108.196
| 36> H 	 -48.3227 	 13.5971 	 -109.118
| 37> H 	 -48.0094 	 13.4618 	 -107.373
| 38> H 	 -47.915 	 15.1244 	 -108.199
| 39> H 	 -49.9789 	 11.0009 	 -102.705
| 40> H 	 -53.4639 	 17.9685 	 -105.747
| 41> *
| 42>
| 43>                          ****END OF INPUT****

CARTESIAN COORDINATES (ANGSTROEM)
---------------------------------
  S    -50.388200   13.313800  -103.299000
  C    -50.612000   11.672900  -103.202000
  C    -51.907300   11.371600  -103.557000
  C    -52.553300   12.454000  -104.210000
  C    -51.863400   13.665900  -104.171000
  H    -53.451100   12.429500  -104.789000
  C    -52.571500   10.022100  -103.478000
  H    -51.831900    9.365920  -103.008000
  H    -52.590900    9.798410  -104.550000
  C    -53.919500    9.851860  -102.664000
  H    -54.688600   10.460900  -103.059000
  H    -54.206100    8.802870  -102.684000
  C    -53.776300   10.029700  -101.106000
  H    -53.892000   11.107700  -100.854000
  H    -54.697000    9.675750  -100.595000
  H    -52.898700    9.677950  -100.682000
  S    -53.468400   15.739600  -104.644000
  C    -53.027100   17.003100  -105.750000
  C    -51.837800   16.756000  -106.370000
  C    -51.309800   15.495100  -106.028000
  C    -52.108100   14.820100  -105.067000
  H    -51.372400   17.514500  -107.032000
  C    -49.902000   15.167700  -106.535000
  H    -49.372700   14.572700  -105.828000
  H    -49.433300   16.133900  -106.889000
  C    -49.883400   14.390400  -107.785000
  H    -50.327300   15.035700  -108.484000
  H    -50.495600   13.498600  -107.805000
  C    -48.432100   14.118700  -108.196000
  H    -48.322700   13.597100  -109.118000
  H    -48.009400   13.461800  -107.373000
  H    -47.915000   15.124400  -108.199000
  H    -49.978900   11.000900  -102.705000
  H    -53.463900   17.968500  -105.747000

 Total Charge           Charge          ....    0
 Multiplicity           Mult            ....    1
 Number of Electrons    NEL             ....  134
 Basis Dimension        Dim             ....  322

ORBITAL ENERGIES
----------------

  NO   OCC          E(Eh)            E(eV)
   0   2.0000     -88.967060     -2420.9168
   1   2.0000     -88.963267     -2420.8136
   2   2.0000     -10.328097      -281.0418
   3   2.0000     -10.327882      -281.0360
   4   2.0000     -10.309820      -280.5445
   5   2.0000     -10.306324      -280.4493
   6   2.0000     -10.303893      -280.3832
   7   2.0000     -10.296850      -280.1915
   8   2.0000     -10.294421      -280.1254
   9   2.0000     -10.292821      -280.0819
  10   2.0000     -10.292078      -280.0617
  11   2.0000     -10.289978      -280.0045
  12   2.0000     -10.285313      -279.8776
  13   2.0000     -10.279720      -279.7254
  14   2.0000     -10.277800      -279.6732
  15   2.0000     -10.268251      -279.4133
  16   2.0000      -8.082910      -219.9472
  17   2.0000      -8.079309      -219.8492
  18   2.0000      -6.041214      -164.3898
  19   2.0000      -6.037654      -164.2929
  20   2.0000      -6.037136      -164.2788
  21   2.0000      -6.033936      -164.1918
  22   2.0000      -6.033405      -164.1773
  23   2.0000      -6.030347      -164.0941
  24   2.0000      -1.015250       -27.6264
  25   2.0000      -0.996787       -27.1239
  26   2.0000      -0.920647       -25.0521
  27   2.0000      -0.904035       -24.6000
  28   2.0000      -0.875448       -23.8222
  29   2.0000      -0.850555       -23.1448
  30   2.0000      -0.847485       -23.0612
  31   2.0000      -0.817757       -22.2523
  32   2.0000      -0.778123       -21.1738
  33   2.0000      -0.767913       -20.8960
  34   2.0000      -0.709532       -19.3074
  35   2.0000      -0.699537       -19.0354
  36   2.0000      -0.686704       -18.6862
  37   2.0000      -0.666411       -18.1340
  38   2.0000      -0.645551       -17.5663
  39   2.0000      -0.620384       -16.8815
  40   2.0000      -0.600378       -16.3371
  41   2.0000      -0.578188       -15.7333
  42   2.0000      -0.571364       -15.5476
  43   2.0000      -0.550779       -14.9875
  44   2.0000      -0.540321       -14.7029
  45   2.0000      -0.520642       -14.1674
  46   2.0000      -0.519667       -14.1409
  47   2.0000      -0.511942       -13.9307
  48   2.0000      -0.508927       -13.8486
  49   2.0000      -0.501344       -13.6423
  50   2.0000      -0.486049       -13.2261
  51   2.0000      -0.480315       -13.0700
  52   2.0000      -0.471916       -12.8415
  53   2.0000      -0.469195       -12.7674
  54   2.0000      -0.458281       -12.4705
  55   2.0000      -0.444831       -12.1045
  56   2.0000      -0.441875       -12.0240
  57   2.0000      -0.438880       -11.9425
  58   2.0000      -0.434549       -11.8247
  59   2.0000      -0.424942       -11.5633
  60   2.0000      -0.417573       -11.3628
  61   2.0000      -0.415538       -11.3074
  62   2.0000      -0.404466       -11.0061
  63   2.0000      -0.349636        -9.5141
  64   2.0000      -0.333343        -9.0707
  65   2.0000      -0.318040        -8.6543
  66   2.0000      -0.297073        -8.0838
  67   0.0000       0.032105         0.8736
  68   0.0000       0.067433         1.8349
  69   0.0000       0.116999         3.1837
  70   0.0000       0.120841         3.2882
  71   0.0000       0.135606         3.6900

MULLIKEN ATOMIC CHARGES
-----------------------
   0 S :    0.118729
   1 C :   -0.090365
   2 C :   -0.106000
   3 C :    0.020691
   4 C :   -0.130233
   5 H :    0.006736
   6 C :    0.050577
   7 H :    0.007944
   8 H :    0.048251
   9 C :   -0.044533
  10 H :    0.029267
  11 H :    0.036297
  12 C :   -0.064462
  13 H :    0.032577
  14 H :    0.034786
  15 H :    0.027263
  16 S :    0.122422
  17 C :   -0.079278
  18 C :   -0.061800
  19 C :   -0.027696
  20 C :   -0.176456
  21 H :    0.036253
  22 C :    0.076954
  23 H :    0.007218
  24 H :    0.022877
  25 C :   -0.057660
  26 H :   -0.003977
  27 H :    0.026214
  28 C :   -0.044187
  29 H :    0.034954
  30 H :    0.037081
  31 H :    0.031300
  32 H :    0.032734
  33 H :    0.045520
Sum of atomic charges:   -0.0000000

LOEWDIN ATOMIC CHARGES
----------------------
   0 S :    0.448696
   1 C :   -0.215690
   2 C :   -0.074302
   3 C :   -0.058296
   4 C :   -0.212997
   5 H :    0.025765
   6 C :   -0.035506
   7 H :    0.026033
   8 H :    0.039574
   9 C :   -0.029590
  10 H :    0.018350
  11 H :    0.028288
  12 C :   -0.065351
  13 H :    0.029864
  14 H :    0.032033
  15 H :    0.013264
  16 S :    0.449850
  17 C :   -0.191270
  18 C :   -0.073314
  19 C :   -0.052127
  20 C :   -0.220617
  21 H :    0.039956
  22 C :   -0.026109
  23 H :    0.015219
  24 H :    0.038285
  25 C :   -0.043778
  26 H :    0.011343
  27 H :    0.020822
  28 C :   -0.063276
  29 H :    0.019558
  30 H :    0.031350
  31 H :    0.029813
  32 H :    0.021491
  33 H :    0.022670

  Mayer bond orders larger than 0.100000
B(  0-S ,  1-C ) :   1.1801 B(  0-S ,  4-C ) :   1.1614 B(  1-C ,  2-C ) :   1.5649
B(  1-C , 32-H ) :   0.9722 B(  2-C ,  3-C ) :   1.2665 B(  2-C ,  6-C ) :   1.0130
B(  3-C ,  4-C ) :   1.5506 B(  3-C ,  5-H ) :   0.9950 B(  4-C , 20-C ) :   0.9931
B(  6-C ,  7-H ) :   0.9410 B(  6-C ,  8-H ) :   0.9453 B(  6-C ,  9-C ) :   1.0634
B(  9-C , 10-H ) :   0.9616 B(  9-C , 11-H ) :   0.9622 B(  9-C , 12-C ) :   1.0644
B( 12-C , 13-H ) :   0.9762 B( 12-C , 14-H ) :   0.9761 B( 12-C , 15-H ) :   0.9797
B( 16-S , 17-C ) :   1.1733 B( 16-S , 20-C ) :   1.1818 B( 17-C , 18-C ) :   1.5927
B( 17-C , 33-H ) :   0.9681 B( 18-C , 19-C ) :   1.2811 B( 18-C , 21-H ) :   0.9821
B( 19-C , 20-C ) :   1.5535 B( 19-C , 22-C ) :   1.0368 B( 22-C , 23-H ) :   0.9341
B( 22-C , 24-H ) :   0.9363 B( 22-C , 25-C ) :   1.0646 B( 25-C , 26-H ) :   0.9496
B( 25-C , 27-H ) :   0.9514 B( 25-C , 28-C ) :   1.0859 B( 28-C , 29-H ) :   0.9740
B( 28-C , 30-H ) :   0.9748 B( 28-C , 31-H ) :   0.9689

Dispersion correction           -0.013896996
FINAL SINGLE POINT ENERGY     -1339.850362594761

DIPOLE MOMENT
-------------
                                X             Y             Z
Electronic contribution:     -4.09638      14.47547       5.33641
Nuclear contribution   :      4.09845     -14.71170      -5.48847
                        -----------------------------------------
Total Dipole Moment    :      0.00207      -0.23623      -0.15206
                        -----------------------------------------
Magnitude (a.u.)       :      0.28095
Magnitude (Debye)      :      0.71411

Rotational constants in cm-1:     0.020234     0.008150     0.006583
Rotational constants in MHz :   606.604116   244.321711   197.339610

                             ****ORCA TERMINATED NORMALLY****
TOTAL RUN TIME: 0 days 0 hours 0 minutes 21 seconds 375 msec
