                         Program Version 4.2.1 -  RELEASE  -
|  1> ! wB97X-D3 SP def2-SVP
|  2> %pal
|  3> nprocs 24
|  4> end
|  5>
|  6> * xyz 0 1
|  7> S 	 -46.6356 	 24.7015 	 29.5794
|  8> C 	 -45.8702 	 25.3626 	 28.1751
|  9> C 	 -46.5043 	 26.4306 	 27.6826
| 10> C 	 -47.5931 	 26.8061 	 28.5355
| 11> C 	 -47.8812 	 25.9261 	 29.5927
| 12> H 	 -48.1091 	 27.6807 	 28.2484
| 13> C 	 -46.1606 	 27.2895 	 26.4464
| 14> H 	 -45.0856 	 27.3169 	 26.2929
| 15> H 	 -46.5466 	 28.3022 	 26.4879
| 16> C 	 -46.6598 	 26.6629 	 25.1198
| 17> H 	 -46.1684 	 27.1394 	 24.3066
| 18> H 	 -46.2712 	 25.6315 	 25.0227
| 19> C 	 -48.1662 	 26.5868 	 25.1027
| 20> H 	 -48.6767 	 26.0359 	 25.9295
| 21> H 	 -48.5819 	 27.5969 	 24.9969
| 22> H 	 -48.4227 	 26.1014 	 24.1479
| 23> S 	 -49.4463 	 24.4982 	 31.3735
| 24> C 	 -50.8173 	 25.2322 	 32.1024
| 25> C 	 -50.9314 	 26.4992 	 31.8134
| 26> C 	 -49.9871 	 26.9689 	 30.8536
| 27> C 	 -49.0506 	 25.9812 	 30.4964
| 28> H 	 -51.6772 	 27.0494 	 32.3273
| 29> C 	 -50.1017 	 28.3623 	 30.2364
| 30> H 	 -51.0609 	 28.7747 	 30.4169
| 31> H 	 -50.0116 	 28.2114 	 29.1366
| 32> C 	 -49.1289 	 29.4023 	 30.7525
| 33> H 	 -48.1695 	 28.9181 	 30.9268
| 34> H 	 -49.4556 	 29.9313 	 31.7207
| 35> C 	 -49.0456 	 30.5661 	 29.7304
| 36> H 	 -48.1293 	 31.197 	 29.8054
| 37> H 	 -49.9492 	 31.1938 	 29.8262
| 38> H 	 -49.1117 	 30.1665 	 28.7288
| 39> H 	 -44.8925 	 25.0706 	 27.7893
| 40> H 	 -51.408 	 24.795 	 32.8076
| 41> *
| 42>
| 43>                          ****END OF INPUT****

CARTESIAN COORDINATES (ANGSTROEM)
---------------------------------
  S    -46.635600   24.701500   29.579400
  C    -45.870200   25.362600   28.175100
  C    -46.504300   26.430600   27.682600
  C    -47.593100   26.806100   28.535500
  C    -47.881200   25.926100   29.592700
  H    -48.109100   27.680700   28.248400
  C    -46.160600   27.289500   26.446400
  H    -45.085600   27.316900   26.292900
  H    -46.546600   28.302200   26.487900
  C    -46.659800   26.662900   25.119800
  H    -46.168400   27.139400   24.306600
  H    -46.271200   25.631500   25.022700
  C    -48.166200   26.586800   25.102700
  H    -48.676700   26.035900   25.929500
  H    -48.581900   27.596900   24.996900
  H    -48.422700   26.101400   24.147900
  S    -49.446300   24.498200   31.373500
  C    -50.817300   25.232200   32.102400
  C    -50.931400   26.499200   31.813400
  C    -49.987100   26.968900   30.853600
  C    -49.050600   25.981200   30.496400
  H    -51.677200   27.049400   32.327300
  C    -50.101700   28.362300   30.236400
  H    -51.060900   28.774700   30.416900
  H    -50.011600   28.211400   29.136600
  C    -49.128900   29.402300   30.752500
  H    -48.169500   28.918100   30.926800
  H    -49.455600   29.931300   31.720700
  C    -49.045600   30.566100   29.730400
  H    -48.129300   31.197000   29.805400
  H    -49.949200   31.193800   29.826200
  H    -49.111700   30.166500   28.728800
  H    -44.892500   25.070600   27.789300
  H    -51.408000   24.795000   32.807600

 Total Charge           Charge          ....    0
 Multiplicity           Mult            ....    1
 Number of Electrons    NEL             ....  134
 Basis Dimension        Dim             ....  322

ORBITAL ENERGIES
----------------

  NO   OCC          E(Eh)            E(eV)
   0   2.0000     -88.969418     -2420.9809
   1   2.0000     -88.961530     -2420.7663
   2   2.0000     -10.338694      -281.3302
   3   2.0000     -10.335172      -281.2343
   4   2.0000     -10.310583      -280.5652
   5   2.0000     -10.305677      -280.4317
   6   2.0000     -10.300095      -280.2798
   7   2.0000     -10.296646      -280.1860
   8   2.0000     -10.294605      -280.1304
   9   2.0000     -10.291524      -280.0466
  10   2.0000     -10.290598      -280.0214
  11   2.0000     -10.289421      -279.9894
  12   2.0000     -10.284227      -279.8481
  13   2.0000     -10.282076      -279.7895
  14   2.0000     -10.280812      -279.7551
  15   2.0000     -10.277526      -279.6657
  16   2.0000      -8.084281      -219.9845
  17   2.0000      -8.077083      -219.7886
  18   2.0000      -6.043011      -164.4387
  19   2.0000      -6.038673      -164.3207
  20   2.0000      -6.035609      -164.2373
  21   2.0000      -6.034904      -164.2181
  22   2.0000      -6.031551      -164.1269
  23   2.0000      -6.027719      -164.0226
  24   2.0000      -1.011013       -27.5111
  25   2.0000      -0.993292       -27.0289
  26   2.0000      -0.913743       -24.8642
  27   2.0000      -0.911293       -24.7975
  28   2.0000      -0.875533       -23.8245
  29   2.0000      -0.849942       -23.1281
  30   2.0000      -0.844250       -22.9732
  31   2.0000      -0.819366       -22.2961
  32   2.0000      -0.784129       -21.3372
  33   2.0000      -0.773693       -21.0532
  34   2.0000      -0.711840       -19.3701
  35   2.0000      -0.699452       -19.0331
  36   2.0000      -0.691735       -18.8231
  37   2.0000      -0.666127       -18.1262
  38   2.0000      -0.635002       -17.2793
  39   2.0000      -0.625310       -17.0155
  40   2.0000      -0.601088       -16.3564
  41   2.0000      -0.579332       -15.7644
  42   2.0000      -0.568346       -15.4655
  43   2.0000      -0.549957       -14.9651
  44   2.0000      -0.545204       -14.8358
  45   2.0000      -0.525538       -14.3006
  46   2.0000      -0.512118       -13.9354
  47   2.0000      -0.509361       -13.8604
  48   2.0000      -0.505604       -13.7582
  49   2.0000      -0.504965       -13.7408
  50   2.0000      -0.490701       -13.3527
  51   2.0000      -0.486730       -13.2446
  52   2.0000      -0.475003       -12.9255
  53   2.0000      -0.470366       -12.7993
  54   2.0000      -0.463277       -12.6064
  55   2.0000      -0.448064       -12.1924
  56   2.0000      -0.439731       -11.9657
  57   2.0000      -0.437246       -11.8981
  58   2.0000      -0.431019       -11.7286
  59   2.0000      -0.421759       -11.4767
  60   2.0000      -0.417955       -11.3731
  61   2.0000      -0.413718       -11.2578
  62   2.0000      -0.411415       -11.1952
  63   2.0000      -0.367384        -9.9970
  64   2.0000      -0.334632        -9.1058
  65   2.0000      -0.328808        -8.9473
  66   2.0000      -0.285334        -7.7643
  67   0.0000       0.022228         0.6049
  68   0.0000       0.087907         2.3921
  69   0.0000       0.105903         2.8818
  70   0.0000       0.120054         3.2668
  71   0.0000       0.139476         3.7953

MULLIKEN ATOMIC CHARGES
-----------------------
   0 S :    0.115764
   1 C :   -0.125107
   2 C :   -0.079816
   3 C :    0.003725
   4 C :   -0.078073
   5 H :   -0.034948
   6 C :    0.068261
   7 H :    0.021512
   8 H :    0.026784
   9 C :   -0.064543
  10 H :    0.021741
  11 H :    0.021338
  12 C :   -0.066964
  13 H :    0.067968
  14 H :    0.022068
  15 H :    0.029306
  16 S :    0.082312
  17 C :   -0.022459
  18 C :   -0.019979
  19 C :   -0.054999
  20 C :   -0.126288
  21 H :    0.000247
  22 C :    0.052288
  23 H :    0.004929
  24 H :    0.040569
  25 C :   -0.083685
  26 H :    0.041541
  27 H :    0.043424
  28 C :   -0.056441
  29 H :    0.048405
  30 H :    0.029656
  31 H :    0.014726
  32 H :    0.044479
  33 H :    0.012264
Sum of atomic charges:   -0.0000000

LOEWDIN ATOMIC CHARGES
----------------------
   0 S :    0.414756
   1 C :   -0.199660
   2 C :   -0.065359
   3 C :   -0.063480
   4 C :   -0.192911
   5 H :    0.015489
   6 C :   -0.025117
   7 H :    0.029239
   8 H :    0.027587
   9 C :   -0.040873
  10 H :    0.019841
  11 H :    0.024492
  12 C :   -0.073319
  13 H :    0.037286
  14 H :    0.022017
  15 H :    0.028115
  16 S :    0.398265
  17 C :   -0.171881
  18 C :   -0.069391
  19 C :   -0.052745
  20 C :   -0.181860
  21 H :    0.030154
  22 C :   -0.032213
  23 H :    0.024670
  24 H :    0.033768
  25 C :   -0.043994
  26 H :    0.023044
  27 H :    0.034262
  28 C :   -0.069346
  29 H :    0.031374
  30 H :    0.026809
  31 H :    0.014788
  32 H :    0.032961
  33 H :    0.013232

  Mayer bond orders larger than 0.100000
B(  0-S ,  1-C ) :   1.1356 B(  0-S ,  4-C ) :   1.1472 B(  1-C ,  2-C ) :   1.6384
B(  1-C , 32-H ) :   0.9558 B(  2-C ,  3-C ) :   1.2751 B(  2-C ,  6-C ) :   1.0176
B(  3-C ,  4-C ) :   1.5155 B(  3-C ,  5-H ) :   1.0000 B(  4-C , 20-C ) :   1.0827
B(  6-C ,  7-H ) :   0.9381 B(  6-C ,  8-H ) :   0.9480 B(  6-C ,  9-C ) :   1.0760
B(  9-C , 10-H ) :   0.9564 B(  9-C , 11-H ) :   0.9538 B(  9-C , 12-C ) :   1.0756
B( 12-C , 13-H ) :   0.9709 B( 12-C , 14-H ) :   0.9743 B( 12-C , 15-H ) :   0.9710
B( 16-S , 17-C ) :   1.1393 B( 16-S , 20-C ) :   1.1332 B( 17-C , 18-C ) :   1.6543
B( 17-C , 33-H ) :   0.9692 B( 18-C , 19-C ) :   1.2315 B( 18-C , 21-H ) :   0.9979
B( 19-C , 20-C ) :   1.5863 B( 19-C , 22-C ) :   1.0359 B( 22-C , 23-H ) :   0.9282
B( 22-C , 24-H ) :   0.9449 B( 22-C , 25-C ) :   1.0551 B( 25-C , 26-H ) :   0.9643
B( 25-C , 27-H ) :   0.9554 B( 25-C , 28-C ) :   1.0650 B( 28-C , 29-H ) :   0.9751
B( 28-C , 30-H ) :   0.9746 B( 28-C , 31-H ) :   0.9777

Dispersion correction           -0.014687646
FINAL SINGLE POINT ENERGY     -1339.874652126992

DIPOLE MOMENT
-------------
                                X             Y             Z
Electronic contribution:      1.66962     -22.97573      18.01312
Nuclear contribution   :     -1.78678      23.57423     -18.35095
                        -----------------------------------------
Total Dipole Moment    :     -0.11716       0.59850      -0.33783
                        -----------------------------------------
Magnitude (a.u.)       :      0.69718
Magnitude (Debye)      :      1.77210

Rotational constants in cm-1:     0.017426     0.009751     0.007277
Rotational constants in MHz :   522.419422   292.324025   218.150753

                             ****ORCA TERMINATED NORMALLY****
TOTAL RUN TIME: 0 days 0 hours 0 minutes 22 seconds 370 msec
