                         Program Version 4.2.1 -  RELEASE  -
|  1> ! wB97X-D3 SP def2-SVP
|  2> %pal
|  3> nprocs 24
|  4> end
|  5>
|  6> * xyz 0 1
|  7> S 	 -133.82 	 26.2793 	 -16.8622
|  8> C 	 -134.772 	 25.244 	 -17.949
|  9> C 	 -135.451 	 26.0155 	 -18.8773
| 10> C 	 -135.287 	 27.4193 	 -18.614
| 11> C 	 -134.551 	 27.7137 	 -17.5339
| 12> H 	 -135.846 	 28.231 	 -19.0829
| 13> C 	 -136.362 	 25.4968 	 -19.9718
| 14> H 	 -137.4 	 25.71 	 -19.683
| 15> H 	 -136.274 	 24.3975 	 -19.9313
| 16> C 	 -136.128 	 25.9993 	 -21.4442
| 17> H 	 -136.083 	 27.0907 	 -21.4527
| 18> H 	 -135.24 	 25.493 	 -21.6988
| 19> C 	 -137.234 	 25.5907 	 -22.3311
| 20> H 	 -137.35 	 24.5277 	 -22.4319
| 21> H 	 -138.203 	 26.0667 	 -22.0023
| 22> H 	 -137.012 	 25.8172 	 -23.3803
| 23> S 	 -134.193 	 29.0583 	 -15.1578
| 24> C 	 -134.231 	 30.7649 	 -15.2399
| 25> C 	 -134.218 	 31.2718 	 -16.497
| 26> C 	 -134.356 	 30.3265 	 -17.4869
| 27> C 	 -134.366 	 29.0056 	 -16.9435
| 28> H 	 -134.235 	 32.359 	 -16.596
| 29> C 	 -134.573 	 30.8115 	 -18.8909
| 30> H 	 -134.223 	 29.9151 	 -19.4522
| 31> H 	 -133.94 	 31.6739 	 -19.1049
| 32> C 	 -136.038 	 31.2121 	 -19.2491
| 33> H 	 -136.288 	 32.1058 	 -18.6989
| 34> H 	 -136.722 	 30.3536 	 -18.9925
| 35> C 	 -136.145 	 31.4972 	 -20.7858
| 36> H 	 -135.794 	 30.6396 	 -21.3983
| 37> H 	 -135.471 	 32.3334 	 -20.9391
| 38> H 	 -137.177 	 31.7582 	 -21.112
| 39> H 	 -134.758 	 24.1619 	 -17.88
| 40> H 	 -134.181 	 31.4228 	 -14.3925
| 41> *
| 42>
| 43>                          ****END OF INPUT****

CARTESIAN COORDINATES (ANGSTROEM)
---------------------------------
  S    -133.820000   26.279300  -16.862200
  C    -134.772000   25.244000  -17.949000
  C    -135.451000   26.015500  -18.877300
  C    -135.287000   27.419300  -18.614000
  C    -134.551000   27.713700  -17.533900
  H    -135.846000   28.231000  -19.082900
  C    -136.362000   25.496800  -19.971800
  H    -137.400000   25.710000  -19.683000
  H    -136.274000   24.397500  -19.931300
  C    -136.128000   25.999300  -21.444200
  H    -136.083000   27.090700  -21.452700
  H    -135.240000   25.493000  -21.698800
  C    -137.234000   25.590700  -22.331100
  H    -137.350000   24.527700  -22.431900
  H    -138.203000   26.066700  -22.002300
  H    -137.012000   25.817200  -23.380300
  S    -134.193000   29.058300  -15.157800
  C    -134.231000   30.764900  -15.239900
  C    -134.218000   31.271800  -16.497000
  C    -134.356000   30.326500  -17.486900
  C    -134.366000   29.005600  -16.943500
  H    -134.235000   32.359000  -16.596000
  C    -134.573000   30.811500  -18.890900
  H    -134.223000   29.915100  -19.452200
  H    -133.940000   31.673900  -19.104900
  C    -136.038000   31.212100  -19.249100
  H    -136.288000   32.105800  -18.698900
  H    -136.722000   30.353600  -18.992500
  C    -136.145000   31.497200  -20.785800
  H    -135.794000   30.639600  -21.398300
  H    -135.471000   32.333400  -20.939100
  H    -137.177000   31.758200  -21.112000
  H    -134.758000   24.161900  -17.880000
  H    -134.181000   31.422800  -14.392500

 Total Charge           Charge          ....    0
 Multiplicity           Mult            ....    1
 Number of Electrons    NEL             ....  134
 Basis Dimension        Dim             ....  322

ORBITAL ENERGIES
----------------

  NO   OCC          E(Eh)            E(eV)
   0   2.0000     -88.968766     -2420.9632
   1   2.0000     -88.961077     -2420.7540
   2   2.0000     -10.330350      -281.1031
   3   2.0000     -10.322884      -280.9000
   4   2.0000     -10.315344      -280.6948
   5   2.0000     -10.309262      -280.5293
   6   2.0000     -10.302802      -280.3535
   7   2.0000     -10.302755      -280.3522
   8   2.0000     -10.297683      -280.2142
   9   2.0000     -10.296148      -280.1724
  10   2.0000     -10.294035      -280.1149
  11   2.0000     -10.287270      -279.9308
  12   2.0000     -10.286603      -279.9127
  13   2.0000     -10.284735      -279.8619
  14   2.0000     -10.283899      -279.8391
  15   2.0000     -10.278770      -279.6995
  16   2.0000      -8.083505      -219.9634
  17   2.0000      -8.075969      -219.7583
  18   2.0000      -6.041839      -164.4068
  19   2.0000      -6.038125      -164.3057
  20   2.0000      -6.034630      -164.2106
  21   2.0000      -6.034342      -164.2028
  22   2.0000      -6.030585      -164.1005
  23   2.0000      -6.026425      -163.9874
  24   2.0000      -1.009821       -27.4786
  25   2.0000      -0.986404       -26.8414
  26   2.0000      -0.914401       -24.8821
  27   2.0000      -0.910452       -24.7747
  28   2.0000      -0.875118       -23.8132
  29   2.0000      -0.856573       -23.3085
  30   2.0000      -0.846945       -23.0465
  31   2.0000      -0.815423       -22.1888
  32   2.0000      -0.782088       -21.2817
  33   2.0000      -0.767986       -20.8980
  34   2.0000      -0.710253       -19.3270
  35   2.0000      -0.698507       -19.0074
  36   2.0000      -0.694348       -18.8942
  37   2.0000      -0.661342       -17.9960
  38   2.0000      -0.640919       -17.4403
  39   2.0000      -0.620979       -16.8977
  40   2.0000      -0.595038       -16.1918
  41   2.0000      -0.581289       -15.8177
  42   2.0000      -0.572230       -15.5712
  43   2.0000      -0.559826       -15.2336
  44   2.0000      -0.524545       -14.2736
  45   2.0000      -0.523134       -14.2352
  46   2.0000      -0.516549       -14.0560
  47   2.0000      -0.509561       -13.8659
  48   2.0000      -0.506479       -13.7820
  49   2.0000      -0.500398       -13.6165
  50   2.0000      -0.495415       -13.4809
  51   2.0000      -0.479755       -13.0548
  52   2.0000      -0.471869       -12.8402
  53   2.0000      -0.464693       -12.6450
  54   2.0000      -0.461774       -12.5655
  55   2.0000      -0.454083       -12.3562
  56   2.0000      -0.442994       -12.0545
  57   2.0000      -0.438487       -11.9318
  58   2.0000      -0.431893       -11.7524
  59   2.0000      -0.428757       -11.6671
  60   2.0000      -0.423901       -11.5349
  61   2.0000      -0.419977       -11.4282
  62   2.0000      -0.415058       -11.2943
  63   2.0000      -0.356931        -9.7126
  64   2.0000      -0.337139        -9.1740
  65   2.0000      -0.327259        -8.9052
  66   2.0000      -0.280976        -7.6457
  67   0.0000       0.023046         0.6271
  68   0.0000       0.078057         2.1240
  69   0.0000       0.105351         2.8667
  70   0.0000       0.119208         3.2438
  71   0.0000       0.126402         3.4396

MULLIKEN ATOMIC CHARGES
-----------------------
   0 S :    0.088374
   1 C :   -0.138097
   2 C :   -0.046310
   3 C :   -0.017010
   4 C :   -0.099728
   5 H :   -0.006077
   6 C :    0.026705
   7 H :    0.032232
   8 H :    0.014848
   9 C :   -0.039957
  10 H :    0.036269
  11 H :    0.025532
  12 C :   -0.048618
  13 H :    0.019223
  14 H :    0.039054
  15 H :    0.029967
  16 S :    0.118088
  17 C :   -0.072932
  18 C :   -0.046110
  19 C :   -0.008805
  20 C :   -0.160899
  21 H :    0.016234
  22 C :    0.021958
  23 H :    0.035049
  24 H :    0.028615
  25 C :   -0.076480
  26 H :    0.031769
  27 H :    0.045811
  28 C :   -0.053450
  29 H :    0.039309
  30 H :    0.027113
  31 H :    0.046645
  32 H :    0.048456
  33 H :    0.043223
Sum of atomic charges:    0.0000000

LOEWDIN ATOMIC CHARGES
----------------------
   0 S :    0.378399
   1 C :   -0.188712
   2 C :   -0.058353
   3 C :   -0.077190
   4 C :   -0.186497
   5 H :    0.029428
   6 C :   -0.033423
   7 H :    0.029613
   8 H :    0.028921
   9 C :   -0.033793
  10 H :    0.025727
  11 H :    0.022875
  12 C :   -0.068957
  13 H :    0.021512
  14 H :    0.031312
  15 H :    0.028964
  16 S :    0.412268
  17 C :   -0.188840
  18 C :   -0.078850
  19 C :   -0.051569
  20 C :   -0.185349
  21 H :    0.034400
  22 C :   -0.036207
  23 H :    0.034544
  24 H :    0.031402
  25 C :   -0.035202
  26 H :    0.022712
  27 H :    0.025845
  28 C :   -0.067775
  29 H :    0.027602
  30 H :    0.022906
  31 H :    0.029342
  32 H :    0.027565
  33 H :    0.025380

  Mayer bond orders larger than 0.100000
B(  0-S ,  1-C ) :   1.1097 B(  0-S ,  4-C ) :   1.1244 B(  1-C ,  2-C ) :   1.6322
B(  1-C , 32-H ) :   0.9706 B(  2-C ,  3-C ) :   1.2018 B(  2-C ,  6-C ) :   1.0289
B(  3-C ,  4-C ) :   1.6173 B(  3-C ,  5-H ) :   0.9889 B(  4-C , 20-C ) :   1.0863
B(  6-C ,  7-H ) :   0.9408 B(  6-C ,  8-H ) :   0.9414 B(  6-C ,  9-C ) :   1.0528
B(  9-C , 10-H ) :   0.9549 B(  9-C , 11-H ) :   0.9525 B(  9-C , 12-C ) :   1.1049
B( 12-C , 13-H ) :   0.9695 B( 12-C , 14-H ) :   0.9714 B( 12-C , 15-H ) :   0.9684
B( 16-S , 17-C ) :   1.1662 B( 16-S , 20-C ) :   1.1398 B( 17-C , 18-C ) :   1.6064
B( 17-C , 20-C ) :   0.1083 B( 17-C , 33-H ) :   0.9619 B( 18-C , 19-C ) :   1.2684
B( 18-C , 21-H ) :   0.9890 B( 19-C , 20-C ) :   1.5366 B( 19-C , 22-C ) :   1.0476
B( 22-C , 23-H ) :   0.9293 B( 22-C , 24-H ) :   0.9330 B( 22-C , 25-C ) :   1.0618
B( 25-C , 26-H ) :   0.9526 B( 25-C , 27-H ) :   0.9536 B( 25-C , 28-C ) :   1.0727
B( 28-C , 29-H ) :   0.9767 B( 28-C , 30-H ) :   0.9741 B( 28-C , 31-H ) :   0.9754

Dispersion correction           -0.013954507
FINAL SINGLE POINT ENERGY     -1339.884454344492

DIPOLE MOMENT
-------------
                                X             Y             Z
Electronic contribution:     15.04384      -4.71636      30.02604
Nuclear contribution   :    -15.44079       5.05946     -30.56293
                        -----------------------------------------
Total Dipole Moment    :     -0.39695       0.34310      -0.53689
                        -----------------------------------------
Magnitude (a.u.)       :      0.75069
Magnitude (Debye)      :      1.90811

Rotational constants in cm-1:     0.016795     0.009720     0.006392
Rotational constants in MHz :   503.510670   291.398660   191.626174

                             ****ORCA TERMINATED NORMALLY****
TOTAL RUN TIME: 0 days 0 hours 0 minutes 23 seconds 99 msec
