                         Program Version 4.2.1 -  RELEASE  -
|  1> ! wB97X-D3 SP def2-SVP
|  2> %pal
|  3> nprocs 24
|  4> end
|  5>
|  6> * xyz 0 1
|  7> S 	 -124.279 	 60.4227 	 -54.7438
|  8> C 	 -123.444 	 61.5712 	 -55.8629
|  9> C 	 -123.947 	 62.8206 	 -55.6336
| 10> C 	 -124.759 	 62.9249 	 -54.4184
| 11> C 	 -125.061 	 61.7639 	 -53.8384
| 12> H 	 -125.165 	 63.8262 	 -53.9728
| 13> C 	 -123.544 	 64.118 	 -56.2917
| 14> H 	 -122.557 	 63.9449 	 -56.727
| 15> H 	 -123.488 	 64.8485 	 -55.4975
| 16> C 	 -124.564 	 64.565 	 -57.3251
| 17> H 	 -124.255 	 65.4798 	 -57.8906
| 18> H 	 -124.625 	 63.7961 	 -58.0847
| 19> C 	 -126.056 	 64.741 	 -56.8788
| 20> H 	 -126.555 	 65.2897 	 -57.7381
| 21> H 	 -126.541 	 63.9175 	 -56.59
| 22> H 	 -126.014 	 65.3887 	 -56.0381
| 23> S 	 -127.482 	 61.5028 	 -52.3848
| 24> C 	 -127.363 	 61.0767 	 -50.6967
| 25> C 	 -126.03 	 61.0753 	 -50.27
| 26> C 	 -125.08 	 61.3792 	 -51.3257
| 27> C 	 -125.737 	 61.6339 	 -52.541
| 28> H 	 -125.832 	 61.0092 	 -49.2013
| 29> C 	 -123.536 	 61.4771 	 -51.1683
| 30> H 	 -123.007 	 60.9471 	 -52.0218
| 31> H 	 -123.183 	 60.8979 	 -50.2887
| 32> C 	 -123.011 	 62.8912 	 -51.0157
| 33> H 	 -123.651 	 63.4626 	 -50.3258
| 34> H 	 -123.116 	 63.3025 	 -51.9861
| 35> C 	 -121.501 	 62.9978 	 -50.8273
| 36> H 	 -121.128 	 63.9526 	 -51.1801
| 37> H 	 -121.054 	 62.2904 	 -51.5023
| 38> H 	 -121.171 	 62.7967 	 -49.7829
| 39> H 	 -122.714 	 61.414 	 -56.6607
| 40> H 	 -128.179 	 61.1069 	 -50.0018
| 41> *
| 42>
| 43>                          ****END OF INPUT****

CARTESIAN COORDINATES (ANGSTROEM)
---------------------------------
  S    -124.279000   60.422700  -54.743800
  C    -123.444000   61.571200  -55.862900
  C    -123.947000   62.820600  -55.633600
  C    -124.759000   62.924900  -54.418400
  C    -125.061000   61.763900  -53.838400
  H    -125.165000   63.826200  -53.972800
  C    -123.544000   64.118000  -56.291700
  H    -122.557000   63.944900  -56.727000
  H    -123.488000   64.848500  -55.497500
  C    -124.564000   64.565000  -57.325100
  H    -124.255000   65.479800  -57.890600
  H    -124.625000   63.796100  -58.084700
  C    -126.056000   64.741000  -56.878800
  H    -126.555000   65.289700  -57.738100
  H    -126.541000   63.917500  -56.590000
  H    -126.014000   65.388700  -56.038100
  S    -127.482000   61.502800  -52.384800
  C    -127.363000   61.076700  -50.696700
  C    -126.030000   61.075300  -50.270000
  C    -125.080000   61.379200  -51.325700
  C    -125.737000   61.633900  -52.541000
  H    -125.832000   61.009200  -49.201300
  C    -123.536000   61.477100  -51.168300
  H    -123.007000   60.947100  -52.021800
  H    -123.183000   60.897900  -50.288700
  C    -123.011000   62.891200  -51.015700
  H    -123.651000   63.462600  -50.325800
  H    -123.116000   63.302500  -51.986100
  C    -121.501000   62.997800  -50.827300
  H    -121.128000   63.952600  -51.180100
  H    -121.054000   62.290400  -51.502300
  H    -121.171000   62.796700  -49.782900
  H    -122.714000   61.414000  -56.660700
  H    -128.179000   61.106900  -50.001800

 Total Charge           Charge          ....    0
 Multiplicity           Mult            ....    1
 Number of Electrons    NEL             ....  134
 Basis Dimension        Dim             ....  322

ORBITAL ENERGIES
----------------

  NO   OCC          E(Eh)            E(eV)
   0   2.0000     -88.970557     -2421.0119
   1   2.0000     -88.965217     -2420.8666
   2   2.0000     -10.329446      -281.0785
   3   2.0000     -10.329179      -281.0712
   4   2.0000     -10.322354      -280.8855
   5   2.0000     -10.320761      -280.8422
   6   2.0000     -10.312524      -280.6181
   7   2.0000     -10.302114      -280.3348
   8   2.0000     -10.301314      -280.3130
   9   2.0000     -10.295839      -280.1640
  10   2.0000     -10.292462      -280.0721
  11   2.0000     -10.291778      -280.0535
  12   2.0000     -10.287660      -279.9415
  13   2.0000     -10.277470      -279.6642
  14   2.0000     -10.276373      -279.6343
  15   2.0000     -10.271049      -279.4894
  16   2.0000      -8.084934      -220.0022
  17   2.0000      -8.078104      -219.8164
  18   2.0000      -6.043452      -164.4507
  19   2.0000      -6.039390      -164.3402
  20   2.0000      -6.037043      -164.2763
  21   2.0000      -6.035814      -164.2428
  22   2.0000      -6.032932      -164.1644
  23   2.0000      -6.028396      -164.0410
  24   2.0000      -1.002057       -27.2674
  25   2.0000      -0.980088       -26.6696
  26   2.0000      -0.912504       -24.8305
  27   2.0000      -0.907446       -24.6929
  28   2.0000      -0.869997       -23.6738
  29   2.0000      -0.848203       -23.0808
  30   2.0000      -0.839242       -22.8369
  31   2.0000      -0.818941       -22.2845
  32   2.0000      -0.784077       -21.3358
  33   2.0000      -0.772779       -21.0284
  34   2.0000      -0.706976       -19.2378
  35   2.0000      -0.699852       -19.0439
  36   2.0000      -0.689117       -18.7518
  37   2.0000      -0.658520       -17.9192
  38   2.0000      -0.639166       -17.3926
  39   2.0000      -0.613628       -16.6977
  40   2.0000      -0.592468       -16.1219
  41   2.0000      -0.574771       -15.6403
  42   2.0000      -0.566353       -15.4113
  43   2.0000      -0.551146       -14.9974
  44   2.0000      -0.546237       -14.8639
  45   2.0000      -0.518169       -14.1001
  46   2.0000      -0.517056       -14.0698
  47   2.0000      -0.512912       -13.9571
  48   2.0000      -0.505987       -13.7686
  49   2.0000      -0.503588       -13.7033
  50   2.0000      -0.492406       -13.3991
  51   2.0000      -0.476135       -12.9563
  52   2.0000      -0.471453       -12.8289
  53   2.0000      -0.463767       -12.6197
  54   2.0000      -0.460523       -12.5315
  55   2.0000      -0.445242       -12.1157
  56   2.0000      -0.441919       -12.0252
  57   2.0000      -0.437955       -11.9174
  58   2.0000      -0.432145       -11.7593
  59   2.0000      -0.426431       -11.6038
  60   2.0000      -0.415692       -11.3115
  61   2.0000      -0.409868       -11.1531
  62   2.0000      -0.406859       -11.0712
  63   2.0000      -0.334745        -9.1089
  64   2.0000      -0.334229        -9.0948
  65   2.0000      -0.321936        -8.7603
  66   2.0000      -0.317175        -8.6308
  67   0.0000       0.036537         0.9942
  68   0.0000       0.055588         1.5126
  69   0.0000       0.111776         3.0416
  70   0.0000       0.117385         3.1942
  71   0.0000       0.120505         3.2791

MULLIKEN ATOMIC CHARGES
-----------------------
   0 S :    0.092507
   1 C :   -0.119856
   2 C :   -0.102869
   3 C :    0.028386
   4 C :   -0.133553
   5 H :    0.018876
   6 C :    0.093840
   7 H :    0.021368
   8 H :    0.024940
   9 C :   -0.092823
  10 H :    0.035841
  11 H :    0.016781
  12 C :   -0.020324
  13 H :    0.046888
  14 H :    0.026208
  15 H :    0.011016
  16 S :    0.119373
  17 C :   -0.094509
  18 C :   -0.039736
  19 C :   -0.025586
  20 C :   -0.194536
  21 H :    0.027783
  22 C :    0.045696
  23 H :    0.036932
  24 H :    0.019617
  25 C :   -0.061638
  26 H :    0.032086
  27 H :    0.012478
  28 C :   -0.024819
  29 H :    0.028881
  30 H :    0.018632
  31 H :    0.039267
  32 H :    0.053589
  33 H :    0.059265
Sum of atomic charges:   -0.0000000

LOEWDIN ATOMIC CHARGES
----------------------
   0 S :    0.356106
   1 C :   -0.180155
   2 C :   -0.062858
   3 C :   -0.058939
   4 C :   -0.175605
   5 H :    0.033246
   6 C :   -0.030312
   7 H :    0.031618
   8 H :    0.027294
   9 C :   -0.042213
  10 H :    0.027097
  11 H :    0.019528
  12 C :   -0.051640
  13 H :    0.040594
  14 H :    0.006360
  15 H :    0.016473
  16 S :    0.412789
  17 C :   -0.187660
  18 C :   -0.069984
  19 C :   -0.043218
  20 C :   -0.206934
  21 H :    0.033466
  22 C :   -0.038552
  23 H :    0.033490
  24 H :    0.026880
  25 C :   -0.045393
  26 H :    0.024518
  27 H :    0.020912
  28 C :   -0.060161
  29 H :    0.026165
  30 H :    0.025030
  31 H :    0.025710
  32 H :    0.038001
  33 H :    0.028348

  Mayer bond orders larger than 0.100000
B(  0-S ,  1-C ) :   1.1008 B(  0-S ,  4-C ) :   1.0939 B(  1-C ,  2-C ) :   1.6845
B(  1-C , 32-H ) :   0.9638 B(  2-C ,  3-C ) :   1.1640 B(  2-C ,  6-C ) :   1.0165
B(  3-C ,  4-C ) :   1.6779 B(  3-C ,  5-H ) :   0.9824 B(  4-C , 20-C ) :   1.0214
B(  6-C ,  7-H ) :   0.9404 B(  6-C ,  8-H ) :   0.9450 B(  6-C ,  9-C ) :   1.0715
B(  9-C , 10-H ) :   0.9603 B(  9-C , 11-H ) :   0.9535 B(  9-C , 12-C ) :   1.0756
B( 12-C , 13-H ) :   0.9730 B( 12-C , 14-H ) :   0.9734 B( 12-C , 15-H ) :   0.9752
B( 16-S , 17-C ) :   1.1639 B( 16-S , 20-C ) :   1.1484 B( 17-C , 18-C ) :   1.6031
B( 17-C , 33-H ) :   0.9648 B( 18-C , 19-C ) :   1.2583 B( 18-C , 21-H ) :   0.9850
B( 19-C , 20-C ) :   1.5763 B( 19-C , 22-C ) :   1.0379 B( 22-C , 23-H ) :   0.9197
B( 22-C , 24-H ) :   0.9411 B( 22-C , 25-C ) :   1.0715 B( 25-C , 26-H ) :   0.9565
B( 25-C , 27-H ) :   0.9471 B( 25-C , 28-C ) :   1.0830 B( 28-C , 29-H ) :   0.9756
B( 28-C , 30-H ) :   0.9676 B( 28-C , 31-H ) :   0.9764

Dispersion correction           -0.015485867
FINAL SINGLE POINT ENERGY     -1339.868936563532

DIPOLE MOMENT
-------------
                                X             Y             Z
Electronic contribution:    -13.84193     -17.14769       2.71484
Nuclear contribution   :     14.16904      17.71391      -2.61848
                        -----------------------------------------
Total Dipole Moment    :      0.32712       0.56622       0.09636
                        -----------------------------------------
Magnitude (a.u.)       :      0.66098
Magnitude (Debye)      :      1.68007

Rotational constants in cm-1:     0.017437     0.009477     0.007775
Rotational constants in MHz :   522.746543   284.107187   233.083045

                             ****ORCA TERMINATED NORMALLY****
TOTAL RUN TIME: 0 days 0 hours 0 minutes 21 seconds 143 msec
