                         Program Version 4.2.1 -  RELEASE  -
|  1> ! wB97X-D3 SP def2-SVP
|  2> %pal
|  3> nprocs 24
|  4> end
|  5>
|  6> * xyz 0 1
|  7> S 	 -34.9989 	 -8.43339 	 12.0588
|  8> C 	 -35.4322 	 -8.11604 	 13.7238
|  9> C 	 -36.8023 	 -8.13402 	 13.8798
| 10> C 	 -37.4916 	 -8.43262 	 12.6584
| 11> C 	 -36.6692 	 -8.69625 	 11.5545
| 12> H 	 -38.5774 	 -8.52628 	 12.5966
| 13> C 	 -37.4723 	 -8.0556 	 15.2199
| 14> H 	 -36.9492 	 -8.84201 	 15.7988
| 15> H 	 -38.5341 	 -8.37009 	 15.0672
| 16> C 	 -37.5055 	 -6.69135 	 15.9686
| 17> H 	 -37.9021 	 -6.78782 	 16.9465
| 18> H 	 -36.4409 	 -6.48412 	 16.1325
| 19> C 	 -38.2475 	 -5.57212 	 15.2748
| 20> H 	 -38.1496 	 -4.59462 	 15.7552
| 21> H 	 -37.7949 	 -5.33184 	 14.312
| 22> H 	 -39.3024 	 -5.76735 	 15.0755
| 23> S 	 -36.3574 	 -10.4861 	 9.46972
| 24> C 	 -37.3324 	 -10.3737 	 8.01064
| 25> C 	 -38.1272 	 -9.22245 	 8.09106
| 26> C 	 -37.9623 	 -8.46925 	 9.30754
| 27> C 	 -37.0432 	 -9.00493 	 10.18
| 28> H 	 -38.7968 	 -9.04648 	 7.2242
| 29> C 	 -38.8819 	 -7.3092 	 9.62743
| 30> H 	 -38.6751 	 -6.53547 	 8.89592
| 31> H 	 -38.7177 	 -6.89502 	 10.6328
| 32> C 	 -40.3785 	 -7.84225 	 9.56618
| 33> H 	 -40.3651 	 -8.76608 	 10.239
| 34> H 	 -40.6811 	 -8.16124 	 8.58884
| 35> C 	 -41.3627 	 -6.87115 	 10.1622
| 36> H 	 -42.2929 	 -7.36962 	 10.4305
| 37> H 	 -41.7258 	 -6.10926 	 9.46014
| 38> H 	 -40.9568 	 -6.33929 	 10.9843
| 39> H 	 -34.844 	 -7.92945 	 14.5957
| 40> H 	 -37.2785 	 -11.1068 	 7.18009
| 41> *
| 42>
| 43>                          ****END OF INPUT****

CARTESIAN COORDINATES (ANGSTROEM)
---------------------------------
  S    -34.998900   -8.433390   12.058800
  C    -35.432200   -8.116040   13.723800
  C    -36.802300   -8.134020   13.879800
  C    -37.491600   -8.432620   12.658400
  C    -36.669200   -8.696250   11.554500
  H    -38.577400   -8.526280   12.596600
  C    -37.472300   -8.055600   15.219900
  H    -36.949200   -8.842010   15.798800
  H    -38.534100   -8.370090   15.067200
  C    -37.505500   -6.691350   15.968600
  H    -37.902100   -6.787820   16.946500
  H    -36.440900   -6.484120   16.132500
  C    -38.247500   -5.572120   15.274800
  H    -38.149600   -4.594620   15.755200
  H    -37.794900   -5.331840   14.312000
  H    -39.302400   -5.767350   15.075500
  S    -36.357400  -10.486100    9.469720
  C    -37.332400  -10.373700    8.010640
  C    -38.127200   -9.222450    8.091060
  C    -37.962300   -8.469250    9.307540
  C    -37.043200   -9.004930   10.180000
  H    -38.796800   -9.046480    7.224200
  C    -38.881900   -7.309200    9.627430
  H    -38.675100   -6.535470    8.895920
  H    -38.717700   -6.895020   10.632800
  C    -40.378500   -7.842250    9.566180
  H    -40.365100   -8.766080   10.239000
  H    -40.681100   -8.161240    8.588840
  C    -41.362700   -6.871150   10.162200
  H    -42.292900   -7.369620   10.430500
  H    -41.725800   -6.109260    9.460140
  H    -40.956800   -6.339290   10.984300
  H    -34.844000   -7.929450   14.595700
  H    -37.278500  -11.106800    7.180090

 Total Charge           Charge          ....    0
 Multiplicity           Mult            ....    1
 Number of Electrons    NEL             ....  134
 Basis Dimension        Dim             ....  322

ORBITAL ENERGIES
----------------

  NO   OCC          E(Eh)            E(eV)
   0   2.0000     -88.968208     -2420.9480
   1   2.0000     -88.961489     -2420.7652
   2   2.0000     -10.334714      -281.2219
   3   2.0000     -10.329264      -281.0736
   4   2.0000     -10.326317      -280.9934
   5   2.0000     -10.312005      -280.6039
   6   2.0000     -10.307061      -280.4694
   7   2.0000     -10.301367      -280.3144
   8   2.0000     -10.298430      -280.2345
   9   2.0000     -10.298189      -280.2280
  10   2.0000     -10.296741      -280.1886
  11   2.0000     -10.294320      -280.1227
  12   2.0000     -10.292095      -280.0621
  13   2.0000     -10.287536      -279.9381
  14   2.0000     -10.277285      -279.6591
  15   2.0000     -10.273745      -279.5628
  16   2.0000      -8.082315      -219.9310
  17   2.0000      -8.075956      -219.7579
  18   2.0000      -6.040938      -164.3823
  19   2.0000      -6.036771      -164.2689
  20   2.0000      -6.034542      -164.2082
  21   2.0000      -6.033103      -164.1691
  22   2.0000      -6.030375      -164.0949
  23   2.0000      -6.026745      -163.9961
  24   2.0000      -1.002897       -27.2902
  25   2.0000      -0.981751       -26.7148
  26   2.0000      -0.911367       -24.7996
  27   2.0000      -0.906357       -24.6632
  28   2.0000      -0.869580       -23.6625
  29   2.0000      -0.851449       -23.1691
  30   2.0000      -0.844344       -22.9758
  31   2.0000      -0.814244       -22.1567
  32   2.0000      -0.781309       -21.2605
  33   2.0000      -0.771698       -20.9990
  34   2.0000      -0.707727       -19.2582
  35   2.0000      -0.705748       -19.2044
  36   2.0000      -0.699037       -19.0218
  37   2.0000      -0.657861       -17.9013
  38   2.0000      -0.634131       -17.2556
  39   2.0000      -0.614571       -16.7233
  40   2.0000      -0.592827       -16.1316
  41   2.0000      -0.573989       -15.6190
  42   2.0000      -0.564450       -15.3595
  43   2.0000      -0.551631       -15.0107
  44   2.0000      -0.546670       -14.8757
  45   2.0000      -0.527621       -14.3573
  46   2.0000      -0.516832       -14.0637
  47   2.0000      -0.511234       -13.9114
  48   2.0000      -0.505763       -13.7625
  49   2.0000      -0.501485       -13.6461
  50   2.0000      -0.491802       -13.3826
  51   2.0000      -0.475687       -12.9441
  52   2.0000      -0.472372       -12.8539
  53   2.0000      -0.469840       -12.7850
  54   2.0000      -0.456786       -12.4298
  55   2.0000      -0.450135       -12.2488
  56   2.0000      -0.444792       -12.1034
  57   2.0000      -0.435790       -11.8584
  58   2.0000      -0.433736       -11.8025
  59   2.0000      -0.424001       -11.5376
  60   2.0000      -0.415974       -11.3192
  61   2.0000      -0.414736       -11.2856
  62   2.0000      -0.410891       -11.1809
  63   2.0000      -0.345260        -9.3950
  64   2.0000      -0.330370        -8.9898
  65   2.0000      -0.326961        -8.8971
  66   2.0000      -0.295926        -8.0526
  67   0.0000       0.029177         0.7939
  68   0.0000       0.065978         1.7954
  69   0.0000       0.117977         3.2103
  70   0.0000       0.122922         3.3449
  71   0.0000       0.126884         3.4527

MULLIKEN ATOMIC CHARGES
-----------------------
   0 S :    0.122340
   1 C :   -0.095160
   2 C :   -0.110324
   3 C :    0.032715
   4 C :   -0.150508
   5 H :    0.012965
   6 C :    0.017317
   7 H :    0.048961
   8 H :    0.022118
   9 C :   -0.027524
  10 H :    0.023922
  11 H :    0.016235
  12 C :   -0.055069
  13 H :    0.033639
  14 H :    0.028332
  15 H :    0.032285
  16 S :    0.088832
  17 C :   -0.113234
  18 C :   -0.058595
  19 C :   -0.026215
  20 C :   -0.152576
  21 H :    0.037549
  22 C :    0.081758
  23 H :    0.035847
  24 H :    0.025585
  25 C :   -0.119419
  26 H :    0.043917
  27 H :    0.029734
  28 C :   -0.012242
  29 H :    0.029682
  30 H :    0.025046
  31 H :    0.018963
  32 H :    0.034949
  33 H :    0.078175
Sum of atomic charges:    0.0000000

LOEWDIN ATOMIC CHARGES
----------------------
   0 S :    0.411158
   1 C :   -0.197866
   2 C :   -0.071357
   3 C :   -0.063884
   4 C :   -0.193374
   5 H :    0.029871
   6 C :   -0.035586
   7 H :    0.040217
   8 H :    0.029759
   9 C :   -0.038686
  10 H :    0.020791
  11 H :    0.023040
  12 C :   -0.071266
  13 H :    0.030554
  14 H :    0.027013
  15 H :    0.025427
  16 S :    0.386813
  17 C :   -0.182224
  18 C :   -0.079216
  19 C :   -0.052684
  20 C :   -0.196971
  21 H :    0.037930
  22 C :   -0.025505
  23 H :    0.030749
  24 H :    0.029300
  25 C :   -0.037593
  26 H :    0.032708
  27 H :    0.018255
  28 C :   -0.068110
  29 H :    0.028048
  30 H :    0.026580
  31 H :    0.018900
  32 H :    0.027730
  33 H :    0.039477

  Mayer bond orders larger than 0.100000
B(  0-S ,  1-C ) :   1.1384 B(  0-S ,  4-C ) :   1.1565 B(  1-C ,  2-C ) :   1.6022
B(  1-C ,  4-C ) :   0.1031 B(  1-C , 32-H ) :   0.9670 B(  2-C ,  3-C ) :   1.2648
B(  2-C ,  6-C ) :   1.0078 B(  3-C ,  4-C ) :   1.5500 B(  3-C ,  5-H ) :   0.9909
B(  4-C , 20-C ) :   1.0345 B(  6-C ,  7-H ) :   0.9454 B(  6-C ,  8-H ) :   0.9450
B(  6-C ,  9-C ) :   1.0695 B(  9-C , 10-H ) :   0.9545 B(  9-C , 11-H ) :   0.9535
B(  9-C , 12-C ) :   1.0792 B( 12-C , 13-H ) :   0.9715 B( 12-C , 14-H ) :   0.9718
B( 12-C , 15-H ) :   0.9747 B( 16-S , 17-C ) :   1.1615 B( 16-S , 20-C ) :   1.1255
B( 17-C , 18-C ) :   1.6056 B( 17-C , 33-H ) :   0.9653 B( 18-C , 19-C ) :   1.2131
B( 18-C , 21-H ) :   0.9873 B( 19-C , 20-C ) :   1.6128 B( 19-C , 22-C ) :   1.0523
B( 22-C , 23-H ) :   0.9276 B( 22-C , 24-H ) :   0.9394 B( 22-C , 25-C ) :   1.0495
B( 25-C , 26-H ) :   0.9598 B( 25-C , 27-H ) :   0.9535 B( 25-C , 28-C ) :   1.0913
B( 28-C , 29-H ) :   0.9722 B( 28-C , 30-H ) :   0.9705 B( 28-C , 31-H ) :   0.9727

Dispersion correction           -0.014335373
FINAL SINGLE POINT ENERGY     -1339.889447483140

DIPOLE MOMENT
-------------
                                X             Y             Z
Electronic contribution:     22.67963     -16.35241     -12.50050
Nuclear contribution   :    -23.35442      16.62036      12.65948
                        -----------------------------------------
Total Dipole Moment    :     -0.67480       0.26795       0.15898
                        -----------------------------------------
Magnitude (a.u.)       :      0.74325
Magnitude (Debye)      :      1.88919

Rotational constants in cm-1:     0.017893     0.009187     0.006493
Rotational constants in MHz :   536.429024   275.426142   194.649685

                             ****ORCA TERMINATED NORMALLY****
TOTAL RUN TIME: 0 days 0 hours 0 minutes 21 seconds 617 msec
