                         Program Version 4.2.1 -  RELEASE  -
|  1> ! wB97X-D3 SP def2-SVP
|  2> %pal
|  3> nprocs 24
|  4> end
|  5>
|  6> * xyz 0 1
|  7> S 	 -110.022 	 3.34198 	 -113.929
|  8> C 	 -110.398 	 4.2706 	 -115.402
|  9> C 	 -109.16 	 4.43522 	 -116.075
| 10> C 	 -108.037 	 3.76128 	 -115.51
| 11> C 	 -108.327 	 3.14142 	 -114.352
| 12> H 	 -106.979 	 3.76845 	 -115.98
| 13> C 	 -109.019 	 5.09126 	 -117.371
| 14> H 	 -109.783 	 4.67543 	 -118.04
| 15> H 	 -108.034 	 4.94783 	 -117.812
| 16> C 	 -109.098 	 6.64913 	 -117.493
| 17> H 	 -110.073 	 7.03126 	 -117.369
| 18> H 	 -108.459 	 7.09209 	 -116.739
| 19> C 	 -108.827 	 7.07993 	 -118.902
| 20> H 	 -108.797 	 8.1224 	 -118.839
| 21> H 	 -107.888 	 6.72838 	 -119.306
| 22> H 	 -109.598 	 6.71616 	 -119.573
| 23> S 	 -107.119 	 3.31054 	 -111.875
| 24> C 	 -105.725 	 2.3622 	 -111.583
| 25> C 	 -105.446 	 1.48182 	 -112.608
| 26> C 	 -106.303 	 1.67318 	 -113.736
| 27> C 	 -107.364 	 2.5292 	 -113.423
| 28> H 	 -104.602 	 0.862613 	 -112.516
| 29> C 	 -106.111 	 1.01722 	 -115.102
| 30> H 	 -105.103 	 0.527763 	 -115.179
| 31> H 	 -106.266 	 1.7107 	 -115.939
| 32> C 	 -107.184 	 0.0262722 	 -115.456
| 33> H 	 -106.997 	 -0.238069 	 -116.556
| 34> H 	 -108.126 	 0.518407 	 -115.414
| 35> C 	 -107.149 	 -1.13389 	 -114.45
| 36> H 	 -107.529 	 -0.816656 	 -113.447
| 37> H 	 -106.23 	 -1.63817 	 -114.164
| 38> H 	 -107.869 	 -1.81645 	 -114.738
| 39> H 	 -111.345 	 4.77188 	 -115.616
| 40> H 	 -105.275 	 2.27088 	 -110.615
| 41> *
| 42>
| 43>                          ****END OF INPUT****

CARTESIAN COORDINATES (ANGSTROEM)
---------------------------------
  S    -110.022000    3.341980  -113.929000
  C    -110.398000    4.270600  -115.402000
  C    -109.160000    4.435220  -116.075000
  C    -108.037000    3.761280  -115.510000
  C    -108.327000    3.141420  -114.352000
  H    -106.979000    3.768450  -115.980000
  C    -109.019000    5.091260  -117.371000
  H    -109.783000    4.675430  -118.040000
  H    -108.034000    4.947830  -117.812000
  C    -109.098000    6.649130  -117.493000
  H    -110.073000    7.031260  -117.369000
  H    -108.459000    7.092090  -116.739000
  C    -108.827000    7.079930  -118.902000
  H    -108.797000    8.122400  -118.839000
  H    -107.888000    6.728380  -119.306000
  H    -109.598000    6.716160  -119.573000
  S    -107.119000    3.310540  -111.875000
  C    -105.725000    2.362200  -111.583000
  C    -105.446000    1.481820  -112.608000
  C    -106.303000    1.673180  -113.736000
  C    -107.364000    2.529200  -113.423000
  H    -104.602000    0.862613  -112.516000
  C    -106.111000    1.017220  -115.102000
  H    -105.103000    0.527763  -115.179000
  H    -106.266000    1.710700  -115.939000
  C    -107.184000    0.026272  -115.456000
  H    -106.997000   -0.238069  -116.556000
  H    -108.126000    0.518407  -115.414000
  C    -107.149000   -1.133890  -114.450000
  H    -107.529000   -0.816656  -113.447000
  H    -106.230000   -1.638170  -114.164000
  H    -107.869000   -1.816450  -114.738000
  H    -111.345000    4.771880  -115.616000
  H    -105.275000    2.270880  -110.615000

 Total Charge           Charge          ....    0
 Multiplicity           Mult            ....    1
 Number of Electrons    NEL             ....  134
 Basis Dimension        Dim             ....  322

ORBITAL ENERGIES
----------------

  NO   OCC          E(Eh)            E(eV)
   0   2.0000     -88.967090     -2420.9176
   1   2.0000     -88.965889     -2420.8849
   2   2.0000     -10.328807      -281.0611
   3   2.0000     -10.325434      -280.9693
   4   2.0000     -10.321458      -280.8612
   5   2.0000     -10.312347      -280.6132
   6   2.0000     -10.306425      -280.4521
   7   2.0000     -10.301526      -280.3188
   8   2.0000     -10.297052      -280.1970
   9   2.0000     -10.291260      -280.0394
  10   2.0000     -10.291177      -280.0372
  11   2.0000     -10.284624      -279.8589
  12   2.0000     -10.283765      -279.8355
  13   2.0000     -10.278737      -279.6987
  14   2.0000     -10.269918      -279.4587
  15   2.0000     -10.266102      -279.3548
  16   2.0000      -8.082447      -219.9346
  17   2.0000      -8.079851      -219.8639
  18   2.0000      -6.040843      -164.3797
  19   2.0000      -6.038437      -164.3142
  20   2.0000      -6.036814      -164.2700
  21   2.0000      -6.034340      -164.2028
  22   2.0000      -6.033341      -164.1756
  23   2.0000      -6.030697      -164.1036
  24   2.0000      -1.008524       -27.4433
  25   2.0000      -0.985113       -26.8063
  26   2.0000      -0.916519       -24.9397
  27   2.0000      -0.914073       -24.8732
  28   2.0000      -0.871206       -23.7067
  29   2.0000      -0.852952       -23.2100
  30   2.0000      -0.845863       -23.0171
  31   2.0000      -0.815478       -22.1903
  32   2.0000      -0.785084       -21.3632
  33   2.0000      -0.768666       -20.9165
  34   2.0000      -0.706966       -19.2375
  35   2.0000      -0.702404       -19.1134
  36   2.0000      -0.684263       -18.6197
  37   2.0000      -0.663169       -18.0457
  38   2.0000      -0.640112       -17.4183
  39   2.0000      -0.619433       -16.8556
  40   2.0000      -0.596317       -16.2266
  41   2.0000      -0.577388       -15.7115
  42   2.0000      -0.567710       -15.4482
  43   2.0000      -0.553830       -15.0705
  44   2.0000      -0.538224       -14.6458
  45   2.0000      -0.529035       -14.3958
  46   2.0000      -0.518339       -14.1047
  47   2.0000      -0.515397       -14.0247
  48   2.0000      -0.506523       -13.7832
  49   2.0000      -0.498634       -13.5685
  50   2.0000      -0.491871       -13.3845
  51   2.0000      -0.479463       -13.0468
  52   2.0000      -0.471083       -12.8188
  53   2.0000      -0.463759       -12.6195
  54   2.0000      -0.458462       -12.4754
  55   2.0000      -0.449147       -12.2219
  56   2.0000      -0.442665       -12.0455
  57   2.0000      -0.435426       -11.8485
  58   2.0000      -0.430319       -11.7096
  59   2.0000      -0.422730       -11.5031
  60   2.0000      -0.416355       -11.3296
  61   2.0000      -0.414262       -11.2726
  62   2.0000      -0.410944       -11.1824
  63   2.0000      -0.347221        -9.4484
  64   2.0000      -0.331269        -9.0143
  65   2.0000      -0.323955        -8.8153
  66   2.0000      -0.295187        -8.0325
  67   0.0000       0.029040         0.7902
  68   0.0000       0.064461         1.7541
  69   0.0000       0.111166         3.0250
  70   0.0000       0.116115         3.1596
  71   0.0000       0.132450         3.6042

MULLIKEN ATOMIC CHARGES
-----------------------
   0 S :    0.095509
   1 C :   -0.119168
   2 C :   -0.066103
   3 C :   -0.002533
   4 C :   -0.159799
   5 H :    0.060560
   6 C :    0.014872
   7 H :    0.034088
   8 H :    0.008989
   9 C :   -0.060616
  10 H :    0.009701
  11 H :    0.030181
  12 C :   -0.018830
  13 H :    0.025170
  14 H :    0.016660
  15 H :    0.029102
  16 S :    0.123593
  17 C :   -0.092868
  18 C :   -0.016995
  19 C :   -0.047291
  20 C :   -0.136611
  21 H :    0.000929
  22 C :    0.069863
  23 H :    0.031012
  24 H :    0.017242
  25 C :   -0.082708
  26 H :    0.038005
  27 H :    0.037115
  28 C :   -0.032217
  29 H :    0.033431
  30 H :    0.026096
  31 H :    0.013983
  32 H :    0.064607
  33 H :    0.055034
Sum of atomic charges:    0.0000000

LOEWDIN ATOMIC CHARGES
----------------------
   0 S :    0.390817
   1 C :   -0.196837
   2 C :   -0.063389
   3 C :   -0.076109
   4 C :   -0.193924
   5 H :    0.051531
   6 C :   -0.041775
   7 H :    0.035144
   8 H :    0.027054
   9 C :   -0.032600
  10 H :    0.015743
  11 H :    0.022887
  12 C :   -0.055053
  13 H :    0.022659
  14 H :    0.017610
  15 H :    0.026692
  16 S :    0.430712
  17 C :   -0.193856
  18 C :   -0.066328
  19 C :   -0.046948
  20 C :   -0.206633
  21 H :    0.024269
  22 C :   -0.037306
  23 H :    0.033250
  24 H :    0.030073
  25 C :   -0.035472
  26 H :    0.030632
  27 H :    0.023459
  28 C :   -0.070857
  29 H :    0.034594
  30 H :    0.022952
  31 H :    0.015137
  32 H :    0.035655
  33 H :    0.026219

  Mayer bond orders larger than 0.100000
B(  0-S ,  1-C ) :   1.1226 B(  0-S ,  4-C ) :   1.1523 B(  1-C ,  2-C ) :   1.5744
B(  1-C ,  4-C ) :   0.1008 B(  1-C , 32-H ) :   0.9749 B(  2-C ,  3-C ) :   1.2564
B(  2-C ,  6-C ) :   1.0426 B(  3-C ,  4-C ) :   1.5807 B(  3-C ,  5-H ) :   0.9687
B(  4-C , 20-C ) :   1.0036 B(  6-C ,  7-H ) :   0.9374 B(  6-C ,  8-H ) :   0.9477
B(  6-C ,  9-C ) :   1.0627 B(  9-C , 10-H ) :   0.9513 B(  9-C , 11-H ) :   0.9575
B(  9-C , 12-C ) :   1.0846 B( 12-C , 13-H ) :   0.9724 B( 12-C , 14-H ) :   0.9732
B( 12-C , 15-H ) :   0.9732 B( 16-S , 17-C ) :   1.1776 B( 16-S , 20-C ) :   1.1582
B( 17-C , 18-C ) :   1.6005 B( 17-C , 20-C ) :   0.1014 B( 17-C , 33-H ) :   0.9630
B( 18-C , 19-C ) :   1.2432 B( 18-C , 21-H ) :   0.9996 B( 19-C , 20-C ) :   1.5725
B( 19-C , 22-C ) :   1.0452 B( 22-C , 23-H ) :   0.9406 B( 22-C , 24-H ) :   0.9297
B( 22-C , 25-C ) :   1.0740 B( 25-C , 26-H ) :   0.9584 B( 25-C , 27-H ) :   0.9505
B( 25-C , 28-C ) :   1.0699 B( 28-C , 29-H ) :   0.9653 B( 28-C , 30-H ) :   0.9795
B( 28-C , 31-H ) :   0.9722

Dispersion correction           -0.014628632
FINAL SINGLE POINT ENERGY     -1339.863846239693

DIPOLE MOMENT
-------------
                                X             Y             Z
Electronic contribution:     -3.49268       0.75156      23.03578
Nuclear contribution   :      3.77517      -0.66055     -23.51146
                        -----------------------------------------
Total Dipole Moment    :      0.28249       0.09102      -0.47568
                        -----------------------------------------
Magnitude (a.u.)       :      0.56068
Magnitude (Debye)      :      1.42512

Rotational constants in cm-1:     0.021081     0.007737     0.007059
Rotational constants in MHz :   631.979227   231.935280   211.626752

                             ****ORCA TERMINATED NORMALLY****
TOTAL RUN TIME: 0 days 0 hours 0 minutes 20 seconds 728 msec
