                         Program Version 4.2.1 -  RELEASE  -
|  1> ! wB97X-D3 SP def2-SVP
|  2> %pal
|  3> nprocs 24
|  4> end
|  5>
|  6> * xyz 0 1
|  7> S 	 -130.736 	 26.8747 	 -22.2802
|  8> C 	 -131.903 	 27.6068 	 -21.2154
|  9> C 	 -131.819 	 26.9821 	 -19.9575
| 10> C 	 -130.739 	 26.0918 	 -19.7932
| 11> C 	 -130.046 	 25.905 	 -20.9587
| 12> H 	 -130.46 	 25.3841 	 -18.9964
| 13> C 	 -132.919 	 27.2657 	 -18.8371
| 14> H 	 -133.21 	 26.3326 	 -18.3181
| 15> H 	 -133.765 	 27.5552 	 -19.4676
| 16> C 	 -132.518 	 28.4225 	 -17.7554
| 17> H 	 -132.233 	 29.3072 	 -18.3985
| 18> H 	 -133.352 	 28.5851 	 -17.1753
| 19> C 	 -131.294 	 28.094 	 -16.9148
| 20> H 	 -131.138 	 28.9359 	 -16.2423
| 21> H 	 -131.49 	 27.1564 	 -16.399
| 22> H 	 -130.333 	 27.931 	 -17.4914
| 23> S 	 -127.38 	 25.6693 	 -21.359
| 24> C 	 -126.661 	 24.3013 	 -21.9797
| 25> C 	 -127.593 	 23.2782 	 -21.9841
| 26> C 	 -128.855 	 23.6229 	 -21.4046
| 27> C 	 -128.965 	 24.9787 	 -21.1363
| 28> H 	 -127.361 	 22.2922 	 -22.3553
| 29> C 	 -130.029 	 22.6023 	 -21.2345
| 30> H 	 -129.755 	 21.6859 	 -21.8267
| 31> H 	 -130.969 	 22.9349 	 -21.6397
| 32> C 	 -130.355 	 22.2639 	 -19.7736
| 33> H 	 -130.596 	 23.1261 	 -19.0892
| 34> H 	 -129.54 	 21.654 	 -19.4567
| 35> C 	 -131.552 	 21.3571 	 -19.5652
| 36> H 	 -131.474 	 20.4453 	 -20.1301
| 37> H 	 -132.347 	 21.9316 	 -19.9807
| 38> H 	 -131.847 	 21.0786 	 -18.5601
| 39> H 	 -132.606 	 28.3355 	 -21.428
| 40> H 	 -125.702 	 24.3484 	 -22.5752
| 41> *
| 42>
| 43>                          ****END OF INPUT****

CARTESIAN COORDINATES (ANGSTROEM)
---------------------------------
  S    -130.736000   26.874700  -22.280200
  C    -131.903000   27.606800  -21.215400
  C    -131.819000   26.982100  -19.957500
  C    -130.739000   26.091800  -19.793200
  C    -130.046000   25.905000  -20.958700
  H    -130.460000   25.384100  -18.996400
  C    -132.919000   27.265700  -18.837100
  H    -133.210000   26.332600  -18.318100
  H    -133.765000   27.555200  -19.467600
  C    -132.518000   28.422500  -17.755400
  H    -132.233000   29.307200  -18.398500
  H    -133.352000   28.585100  -17.175300
  C    -131.294000   28.094000  -16.914800
  H    -131.138000   28.935900  -16.242300
  H    -131.490000   27.156400  -16.399000
  H    -130.333000   27.931000  -17.491400
  S    -127.380000   25.669300  -21.359000
  C    -126.661000   24.301300  -21.979700
  C    -127.593000   23.278200  -21.984100
  C    -128.855000   23.622900  -21.404600
  C    -128.965000   24.978700  -21.136300
  H    -127.361000   22.292200  -22.355300
  C    -130.029000   22.602300  -21.234500
  H    -129.755000   21.685900  -21.826700
  H    -130.969000   22.934900  -21.639700
  C    -130.355000   22.263900  -19.773600
  H    -130.596000   23.126100  -19.089200
  H    -129.540000   21.654000  -19.456700
  C    -131.552000   21.357100  -19.565200
  H    -131.474000   20.445300  -20.130100
  H    -132.347000   21.931600  -19.980700
  H    -131.847000   21.078600  -18.560100
  H    -132.606000   28.335500  -21.428000
  H    -125.702000   24.348400  -22.575200

 Total Charge           Charge          ....    0
 Multiplicity           Mult            ....    1
 Number of Electrons    NEL             ....  134
 Basis Dimension        Dim             ....  322

ORBITAL ENERGIES
----------------

  NO   OCC          E(Eh)            E(eV)
   0   2.0000     -88.969550     -2420.9845
   1   2.0000     -88.958828     -2420.6928
   2   2.0000     -10.327714      -281.0314
   3   2.0000     -10.320943      -280.8471
   4   2.0000     -10.317180      -280.7447
   5   2.0000     -10.314703      -280.6773
   6   2.0000     -10.308732      -280.5149
   7   2.0000     -10.306420      -280.4520
   8   2.0000     -10.301160      -280.3088
   9   2.0000     -10.298496      -280.2363
  10   2.0000     -10.294979      -280.1406
  11   2.0000     -10.293787      -280.1082
  12   2.0000     -10.289723      -279.9976
  13   2.0000     -10.284743      -279.8621
  14   2.0000     -10.279118      -279.7090
  15   2.0000     -10.269497      -279.4472
  16   2.0000      -8.083587      -219.9656
  17   2.0000      -8.075867      -219.7555
  18   2.0000      -6.042035      -164.4121
  19   2.0000      -6.038140      -164.3061
  20   2.0000      -6.034482      -164.2066
  21   2.0000      -6.034111      -164.1965
  22   2.0000      -6.029707      -164.0767
  23   2.0000      -6.027074      -164.0050
  24   2.0000      -1.013236       -27.5716
  25   2.0000      -0.988371       -26.8949
  26   2.0000      -0.910588       -24.7784
  27   2.0000      -0.896168       -24.3860
  28   2.0000      -0.873704       -23.7747
  29   2.0000      -0.852587       -23.2001
  30   2.0000      -0.846670       -23.0391
  31   2.0000      -0.815097       -22.1799
  32   2.0000      -0.782663       -21.2973
  33   2.0000      -0.767297       -20.8792
  34   2.0000      -0.705495       -19.1975
  35   2.0000      -0.694928       -18.9099
  36   2.0000      -0.689826       -18.7711
  37   2.0000      -0.660883       -17.9836
  38   2.0000      -0.647377       -17.6160
  39   2.0000      -0.611570       -16.6417
  40   2.0000      -0.595696       -16.2097
  41   2.0000      -0.574418       -15.6307
  42   2.0000      -0.571109       -15.5407
  43   2.0000      -0.548283       -14.9195
  44   2.0000      -0.539283       -14.6746
  45   2.0000      -0.524072       -14.2607
  46   2.0000      -0.517928       -14.0935
  47   2.0000      -0.514806       -14.0086
  48   2.0000      -0.509287       -13.8584
  49   2.0000      -0.507744       -13.8164
  50   2.0000      -0.485104       -13.2004
  51   2.0000      -0.479865       -13.0578
  52   2.0000      -0.475332       -12.9344
  53   2.0000      -0.463783       -12.6202
  54   2.0000      -0.461202       -12.5499
  55   2.0000      -0.450624       -12.2621
  56   2.0000      -0.439555       -11.9609
  57   2.0000      -0.431900       -11.7526
  58   2.0000      -0.430645       -11.7184
  59   2.0000      -0.417901       -11.3717
  60   2.0000      -0.416558       -11.3351
  61   2.0000      -0.411788       -11.2053
  62   2.0000      -0.408590       -11.1183
  63   2.0000      -0.340160        -9.2562
  64   2.0000      -0.330391        -8.9904
  65   2.0000      -0.320164        -8.7121
  66   2.0000      -0.308701        -8.4002
  67   0.0000       0.032613         0.8874
  68   0.0000       0.056246         1.5305
  69   0.0000       0.109558         2.9812
  70   0.0000       0.125132         3.4050
  71   0.0000       0.136003         3.7008

MULLIKEN ATOMIC CHARGES
-----------------------
   0 S :    0.133917
   1 C :   -0.086646
   2 C :   -0.099654
   3 C :    0.040088
   4 C :   -0.156740
   5 H :    0.028761
   6 C :    0.026219
   7 H :    0.034236
   8 H :    0.022674
   9 C :   -0.047520
  10 H :    0.035095
  11 H :    0.025991
  12 C :   -0.071591
  13 H :    0.042547
  14 H :    0.026540
  15 H :    0.051486
  16 S :    0.112164
  17 C :   -0.103968
  18 C :   -0.055107
  19 C :   -0.001322
  20 C :   -0.218852
  21 H :    0.013624
  22 C :    0.072131
  23 H :    0.024745
  24 H :    0.021472
  25 C :   -0.085024
  26 H :    0.042344
  27 H :    0.021927
  28 C :   -0.031844
  29 H :    0.018158
  30 H :    0.012060
  31 H :    0.035590
  32 H :    0.024422
  33 H :    0.092076
Sum of atomic charges:   -0.0000000

LOEWDIN ATOMIC CHARGES
----------------------
   0 S :    0.409704
   1 C :   -0.190813
   2 C :   -0.061752
   3 C :   -0.064470
   4 C :   -0.194617
   5 H :    0.039827
   6 C :   -0.031963
   7 H :    0.026968
   8 H :    0.026615
   9 C :   -0.031224
  10 H :    0.030649
  11 H :    0.011760
  12 C :   -0.071527
  13 H :    0.028590
  14 H :    0.021197
  15 H :    0.034628
  16 S :    0.450538
  17 C :   -0.223385
  18 C :   -0.081943
  19 C :   -0.047847
  20 C :   -0.214624
  21 H :    0.027118
  22 C :   -0.026528
  23 H :    0.035149
  24 H :    0.025074
  25 C :   -0.043665
  26 H :    0.030775
  27 H :    0.019096
  28 C :   -0.063667
  29 H :    0.019293
  30 H :    0.018494
  31 H :    0.026719
  32 H :    0.016617
  33 H :    0.049215

  Mayer bond orders larger than 0.100000
B(  0-S ,  1-C ) :   1.1482 B(  0-S ,  4-C ) :   1.1440 B(  1-C ,  2-C ) :   1.5975
B(  1-C ,  4-C ) :   0.1045 B(  1-C , 32-H ) :   0.9768 B(  2-C ,  3-C ) :   1.2387
B(  2-C ,  6-C ) :   1.0037 B(  3-C ,  4-C ) :   1.5841 B(  3-C ,  5-H ) :   0.9850
B(  4-C , 20-C ) :   1.0450 B(  6-C ,  7-H ) :   0.9526 B(  6-C ,  8-H ) :   0.9477
B(  6-C ,  9-C ) :   1.0517 B(  9-C , 10-H ) :   0.9573 B(  9-C , 11-H ) :   0.9601
B(  9-C , 12-C ) :   1.0806 B( 12-C , 13-H ) :   0.9727 B( 12-C , 14-H ) :   0.9758
B( 12-C , 15-H ) :   0.9715 B( 16-S , 17-C ) :   1.2020 B( 16-S , 20-C ) :   1.1710
B( 17-C , 18-C ) :   1.5438 B( 17-C , 20-C ) :   0.1003 B( 17-C , 33-H ) :   0.9586
B( 18-C , 19-C ) :   1.2957 B( 18-C , 21-H ) :   0.9928 B( 19-C , 20-C ) :   1.5497
B( 19-C , 22-C ) :   1.0341 B( 22-C , 23-H ) :   0.9361 B( 22-C , 24-H ) :   0.9386
B( 22-C , 25-C ) :   1.0629 B( 25-C , 26-H ) :   0.9540 B( 25-C , 27-H ) :   0.9539
B( 25-C , 28-C ) :   1.0844 B( 28-C , 29-H ) :   0.9723 B( 28-C , 30-H ) :   0.9734
B( 28-C , 31-H ) :   0.9749

Dispersion correction           -0.014533467
FINAL SINGLE POINT ENERGY     -1339.856373176428

DIPOLE MOMENT
-------------
                                X             Y             Z
Electronic contribution:     15.34299       8.35422     -18.91296
Nuclear contribution   :    -15.70036      -8.64572      19.08564
                        -----------------------------------------
Total Dipole Moment    :     -0.35737      -0.29150       0.17268
                        -----------------------------------------
Magnitude (a.u.)       :      0.49245
Magnitude (Debye)      :      1.25170

Rotational constants in cm-1:     0.017226     0.008991     0.007385
Rotational constants in MHz :   516.431494   269.532450   221.382086

                             ****ORCA TERMINATED NORMALLY****
TOTAL RUN TIME: 0 days 0 hours 0 minutes 21 seconds 576 msec
