                         Program Version 4.2.1 -  RELEASE  -
|  1> ! wB97X-D3 SP def2-SVP
|  2> %pal
|  3> nprocs 24
|  4> end
|  5>
|  6> * xyz 0 1
|  7> S 	 -110.754 	 60.9091 	 -6.13268
|  8> C 	 -109.218 	 61.5966 	 -5.7172
|  9> C 	 -109.297 	 62.9374 	 -5.27184
| 10> C 	 -110.574 	 63.4895 	 -5.50958
| 11> C 	 -111.495 	 62.545 	 -5.87721
| 12> H 	 -110.796 	 64.5811 	 -5.30907
| 13> C 	 -108.087 	 63.7619 	 -4.90489
| 14> H 	 -107.779 	 64.4334 	 -5.66835
| 15> H 	 -107.148 	 63.195 	 -4.69238
| 16> C 	 -108.247 	 64.661 	 -3.74222
| 17> H 	 -109.165 	 65.2556 	 -3.91826
| 18> H 	 -108.385 	 63.9285 	 -2.92427
| 19> C 	 -106.989 	 65.5511 	 -3.5432
| 20> H 	 -106.093 	 64.9729 	 -3.56937
| 21> H 	 -106.921 	 66.2127 	 -4.43625
| 22> H 	 -106.971 	 66.2659 	 -2.73594
| 23> S 	 -113.544 	 61.7649 	 -7.516
| 24> C 	 -115.069 	 62.6679 	 -7.64594
| 25> C 	 -115.061 	 63.5678 	 -6.53713
| 26> C 	 -113.913 	 63.5011 	 -5.68285
| 27> C 	 -112.921 	 62.7533 	 -6.18027
| 28> H 	 -115.941 	 64.0702 	 -6.33285
| 29> C 	 -113.741 	 64.4218 	 -4.47743
| 30> H 	 -114.567 	 65.1656 	 -4.61151
| 31> H 	 -112.764 	 65.0099 	 -4.58574
| 32> C 	 -113.91 	 63.7171 	 -3.11611
| 33> H 	 -114.854 	 63.29 	 -2.77941
| 34> H 	 -113.706 	 64.5032 	 -2.4057
| 35> C 	 -112.805 	 62.7022 	 -2.67151
| 36> H 	 -111.751 	 63.0785 	 -2.92807
| 37> H 	 -112.948 	 61.7779 	 -3.29886
| 38> H 	 -112.772 	 62.5345 	 -1.67323
| 39> H 	 -108.321 	 61.0727 	 -5.81086
| 40> H 	 -115.914 	 62.5025 	 -8.34939
| 41> *
| 42>
| 43>                          ****END OF INPUT****

CARTESIAN COORDINATES (ANGSTROEM)
---------------------------------
  S    -110.754000   60.909100   -6.132680
  C    -109.218000   61.596600   -5.717200
  C    -109.297000   62.937400   -5.271840
  C    -110.574000   63.489500   -5.509580
  C    -111.495000   62.545000   -5.877210
  H    -110.796000   64.581100   -5.309070
  C    -108.087000   63.761900   -4.904890
  H    -107.779000   64.433400   -5.668350
  H    -107.148000   63.195000   -4.692380
  C    -108.247000   64.661000   -3.742220
  H    -109.165000   65.255600   -3.918260
  H    -108.385000   63.928500   -2.924270
  C    -106.989000   65.551100   -3.543200
  H    -106.093000   64.972900   -3.569370
  H    -106.921000   66.212700   -4.436250
  H    -106.971000   66.265900   -2.735940
  S    -113.544000   61.764900   -7.516000
  C    -115.069000   62.667900   -7.645940
  C    -115.061000   63.567800   -6.537130
  C    -113.913000   63.501100   -5.682850
  C    -112.921000   62.753300   -6.180270
  H    -115.941000   64.070200   -6.332850
  C    -113.741000   64.421800   -4.477430
  H    -114.567000   65.165600   -4.611510
  H    -112.764000   65.009900   -4.585740
  C    -113.910000   63.717100   -3.116110
  H    -114.854000   63.290000   -2.779410
  H    -113.706000   64.503200   -2.405700
  C    -112.805000   62.702200   -2.671510
  H    -111.751000   63.078500   -2.928070
  H    -112.948000   61.777900   -3.298860
  H    -112.772000   62.534500   -1.673230
  H    -108.321000   61.072700   -5.810860
  H    -115.914000   62.502500   -8.349390

 Total Charge           Charge          ....    0
 Multiplicity           Mult            ....    1
 Number of Electrons    NEL             ....  134
 Basis Dimension        Dim             ....  322

ORBITAL ENERGIES
----------------

  NO   OCC          E(Eh)            E(eV)
   0   2.0000     -88.972396     -2421.0620
   1   2.0000     -88.960198     -2420.7300
   2   2.0000     -10.337504      -281.2978
   3   2.0000     -10.328661      -281.0572
   4   2.0000     -10.325211      -280.9633
   5   2.0000     -10.314697      -280.6772
   6   2.0000     -10.305390      -280.4239
   7   2.0000     -10.304766      -280.4069
   8   2.0000     -10.302702      -280.3508
   9   2.0000     -10.298736      -280.2429
  10   2.0000     -10.294617      -280.1308
  11   2.0000     -10.289196      -279.9833
  12   2.0000     -10.286836      -279.9190
  13   2.0000     -10.285598      -279.8853
  14   2.0000     -10.283051      -279.8160
  15   2.0000     -10.271363      -279.4980
  16   2.0000      -8.086208      -220.0369
  17   2.0000      -8.074432      -219.7165
  18   2.0000      -6.044696      -164.4845
  19   2.0000      -6.040994      -164.3838
  20   2.0000      -6.036903      -164.2725
  21   2.0000      -6.033109      -164.1692
  22   2.0000      -6.028928      -164.0555
  23   2.0000      -6.025100      -163.9513
  24   2.0000      -1.005065       -27.3492
  25   2.0000      -0.982019       -26.7221
  26   2.0000      -0.922423       -25.1004
  27   2.0000      -0.901459       -24.5300
  28   2.0000      -0.866191       -23.5702
  29   2.0000      -0.854851       -23.2617
  30   2.0000      -0.843233       -22.9455
  31   2.0000      -0.813956       -22.1489
  32   2.0000      -0.780148       -21.2289
  33   2.0000      -0.773779       -21.0556
  34   2.0000      -0.708345       -19.2751
  35   2.0000      -0.692844       -18.8533
  36   2.0000      -0.691354       -18.8127
  37   2.0000      -0.667232       -18.1563
  38   2.0000      -0.644458       -17.5366
  39   2.0000      -0.629988       -17.1428
  40   2.0000      -0.587732       -15.9930
  41   2.0000      -0.578334       -15.7373
  42   2.0000      -0.566506       -15.4154
  43   2.0000      -0.551217       -14.9994
  44   2.0000      -0.539119       -14.6702
  45   2.0000      -0.521128       -14.1806
  46   2.0000      -0.514005       -13.9868
  47   2.0000      -0.511461       -13.9176
  48   2.0000      -0.502414       -13.6714
  49   2.0000      -0.499309       -13.5869
  50   2.0000      -0.493152       -13.4194
  51   2.0000      -0.479966       -13.0605
  52   2.0000      -0.476697       -12.9716
  53   2.0000      -0.473387       -12.8815
  54   2.0000      -0.454692       -12.3728
  55   2.0000      -0.451836       -12.2951
  56   2.0000      -0.437978       -11.9180
  57   2.0000      -0.433888       -11.8067
  58   2.0000      -0.429794       -11.6953
  59   2.0000      -0.423970       -11.5368
  60   2.0000      -0.418949       -11.4002
  61   2.0000      -0.417451       -11.3594
  62   2.0000      -0.394589       -10.7373
  63   2.0000      -0.354728        -9.6526
  64   2.0000      -0.334656        -9.1065
  65   2.0000      -0.327269        -8.9054
  66   2.0000      -0.285491        -7.7686
  67   0.0000       0.019130         0.5206
  68   0.0000       0.068620         1.8673
  69   0.0000       0.092597         2.5197
  70   0.0000       0.115826         3.1518
  71   0.0000       0.127295         3.4639

MULLIKEN ATOMIC CHARGES
-----------------------
   0 S :    0.116156
   1 C :   -0.093403
   2 C :   -0.048369
   3 C :   -0.018316
   4 C :   -0.106943
   5 H :    0.047577
   6 C :    0.044608
   7 H :    0.016057
   8 H :    0.018025
   9 C :   -0.113453
  10 H :    0.029580
  11 H :    0.036289
  12 C :   -0.023436
  13 H :    0.024314
  14 H :    0.020528
  15 H :    0.037409
  16 S :    0.072117
  17 C :   -0.104136
  18 C :   -0.027325
  19 C :   -0.035889
  20 C :   -0.135947
  21 H :   -0.004238
  22 C :    0.035817
  23 H :    0.026168
  24 H :    0.043088
  25 C :   -0.053987
  26 H :    0.035168
  27 H :    0.018474
  28 C :   -0.058353
  29 H :    0.028737
  30 H :    0.046663
  31 H :    0.018121
  32 H :    0.027627
  33 H :    0.081273
Sum of atomic charges:   -0.0000000

LOEWDIN ATOMIC CHARGES
----------------------
   0 S :    0.392776
   1 C :   -0.182841
   2 C :   -0.060746
   3 C :   -0.064197
   4 C :   -0.164368
   5 H :    0.042569
   6 C :   -0.040307
   7 H :    0.023254
   8 H :    0.031919
   9 C :   -0.043931
  10 H :    0.021022
  11 H :    0.025997
  12 C :   -0.062828
  13 H :    0.021735
  14 H :    0.029172
  15 H :    0.025827
  16 S :    0.375931
  17 C :   -0.182873
  18 C :   -0.064521
  19 C :   -0.072348
  20 C :   -0.181304
  21 H :    0.015539
  22 C :   -0.030006
  23 H :    0.035515
  24 H :    0.039540
  25 C :   -0.043303
  26 H :    0.027561
  27 H :    0.023700
  28 C :   -0.064163
  29 H :    0.030308
  30 H :    0.029235
  31 H :    0.007690
  32 H :    0.014698
  33 H :    0.043747

  Mayer bond orders larger than 0.100000
B(  0-S ,  1-C ) :   1.1460 B(  0-S ,  4-C ) :   1.1320 B(  1-C ,  2-C ) :   1.5941
B(  1-C ,  4-C ) :   0.1008 B(  1-C , 32-H ) :   0.9754 B(  2-C ,  3-C ) :   1.2426
B(  2-C ,  6-C ) :   1.0286 B(  3-C ,  4-C ) :   1.5980 B(  3-C ,  5-H ) :   0.9713
B(  4-C , 20-C ) :   1.0429 B(  6-C ,  7-H ) :   0.9418 B(  6-C ,  8-H ) :   0.9442
B(  6-C ,  9-C ) :   1.0423 B(  9-C , 10-H ) :   0.9556 B(  9-C , 11-H ) :   0.9591
B(  9-C , 12-C ) :   1.0774 B( 12-C , 13-H ) :   0.9736 B( 12-C , 14-H ) :   0.9696
B( 12-C , 15-H ) :   0.9758 B( 16-S , 17-C ) :   1.1489 B( 16-S , 20-C ) :   1.1199
B( 17-C , 18-C ) :   1.5942 B( 17-C , 20-C ) :   0.1049 B( 17-C , 33-H ) :   0.9666
B( 18-C , 19-C ) :   1.2447 B( 18-C , 21-H ) :   0.9923 B( 19-C , 20-C ) :   1.6142
B( 19-C , 22-C ) :   1.0211 B( 22-C , 23-H ) :   0.9338 B( 22-C , 24-H ) :   0.9451
B( 22-C , 25-C ) :   1.0692 B( 25-C , 26-H ) :   0.9584 B( 25-C , 27-H ) :   0.9528
B( 25-C , 28-C ) :   1.0761 B( 28-C , 29-H ) :   0.9723 B( 28-C , 30-H ) :   0.9729
B( 28-C , 31-H ) :   0.9750

Dispersion correction           -0.015286803
FINAL SINGLE POINT ENERGY     -1339.848520346436

DIPOLE MOMENT
-------------
                                X             Y             Z
Electronic contribution:    -11.83983     -17.48267     -20.48941
Nuclear contribution   :     11.98009      18.05854      20.83562
                        -----------------------------------------
Total Dipole Moment    :      0.14026       0.57587       0.34621
                        -----------------------------------------
Magnitude (a.u.)       :      0.68641
Magnitude (Debye)      :      1.74472

Rotational constants in cm-1:     0.020713     0.008824     0.007216
Rotational constants in MHz :   620.968720   264.535316   216.334505

                             ****ORCA TERMINATED NORMALLY****
TOTAL RUN TIME: 0 days 0 hours 0 minutes 22 seconds 568 msec
