                         Program Version 4.2.1 -  RELEASE  -
|  1> ! wB97X-D3 SP def2-SVP
|  2> %pal
|  3> nprocs 24
|  4> end
|  5>
|  6> * xyz 0 1
|  7> S 	 34.3578 	 -6.59534 	 -115.133
|  8> C 	 35.5115 	 -7.37951 	 -116.208
|  9> C 	 36.7652 	 -7.12111 	 -115.874
| 10> C 	 36.8654 	 -6.12408 	 -114.843
| 11> C 	 35.6368 	 -5.80636 	 -114.311
| 12> H 	 37.8359 	 -5.69445 	 -114.476
| 13> C 	 38.0473 	 -7.72876 	 -116.352
| 14> H 	 38.8732 	 -7.15567 	 -116.008
| 15> H 	 37.9756 	 -7.53535 	 -117.416
| 16> C 	 38.1857 	 -9.2331 	 -116.073
| 17> H 	 38.1934 	 -9.46728 	 -115.048
| 18> H 	 37.2502 	 -9.67291 	 -116.515
| 19> C 	 39.3212 	 -9.94606 	 -116.836
| 20> H 	 40.2909 	 -9.40404 	 -116.699
| 21> H 	 39.5802 	 -10.9267 	 -116.496
| 22> H 	 39.0913 	 -10.0782 	 -117.878
| 23> S 	 34.1183 	 -3.55202 	 -113.771
| 24> C 	 34.5456 	 -2.64159 	 -112.269
| 25> C 	 35.3928 	 -3.3716 	 -111.447
| 26> C 	 35.8764 	 -4.56276 	 -112.075
| 27> C 	 35.2942 	 -4.81622 	 -113.301
| 28> H 	 35.6447 	 -2.99773 	 -110.434
| 29> C 	 36.7936 	 -5.56933 	 -111.395
| 30> H 	 37.4174 	 -4.93618 	 -110.79
| 31> H 	 37.5437 	 -6.02139 	 -112.123
| 32> C 	 36.0772 	 -6.53259 	 -110.468
| 33> H 	 36.7964 	 -7.00398 	 -109.835
| 34> H 	 35.7049 	 -7.35703 	 -111.119
| 35> C 	 35.0342 	 -5.91618 	 -109.561
| 36> H 	 34.7083 	 -6.65145 	 -108.74
| 37> H 	 34.1315 	 -5.51271 	 -110.064
| 38> H 	 35.5881 	 -5.04804 	 -109.195
| 39> H 	 35.2368 	 -8.13457 	 -116.909
| 40> H 	 34.0725 	 -1.77018 	 -111.872
| 41> *
| 42>
| 43>                          ****END OF INPUT****

CARTESIAN COORDINATES (ANGSTROEM)
---------------------------------
  S     34.357800   -6.595340  -115.133000
  C     35.511500   -7.379510  -116.208000
  C     36.765200   -7.121110  -115.874000
  C     36.865400   -6.124080  -114.843000
  C     35.636800   -5.806360  -114.311000
  H     37.835900   -5.694450  -114.476000
  C     38.047300   -7.728760  -116.352000
  H     38.873200   -7.155670  -116.008000
  H     37.975600   -7.535350  -117.416000
  C     38.185700   -9.233100  -116.073000
  H     38.193400   -9.467280  -115.048000
  H     37.250200   -9.672910  -116.515000
  C     39.321200   -9.946060  -116.836000
  H     40.290900   -9.404040  -116.699000
  H     39.580200  -10.926700  -116.496000
  H     39.091300  -10.078200  -117.878000
  S     34.118300   -3.552020  -113.771000
  C     34.545600   -2.641590  -112.269000
  C     35.392800   -3.371600  -111.447000
  C     35.876400   -4.562760  -112.075000
  C     35.294200   -4.816220  -113.301000
  H     35.644700   -2.997730  -110.434000
  C     36.793600   -5.569330  -111.395000
  H     37.417400   -4.936180  -110.790000
  H     37.543700   -6.021390  -112.123000
  C     36.077200   -6.532590  -110.468000
  H     36.796400   -7.003980  -109.835000
  H     35.704900   -7.357030  -111.119000
  C     35.034200   -5.916180  -109.561000
  H     34.708300   -6.651450  -108.740000
  H     34.131500   -5.512710  -110.064000
  H     35.588100   -5.048040  -109.195000
  H     35.236800   -8.134570  -116.909000
  H     34.072500   -1.770180  -111.872000

 Total Charge           Charge          ....    0
 Multiplicity           Mult            ....    1
 Number of Electrons    NEL             ....  134
 Basis Dimension        Dim             ....  322

ORBITAL ENERGIES
----------------

  NO   OCC          E(Eh)            E(eV)
   0   2.0000     -88.966742     -2420.9081
   1   2.0000     -88.963751     -2420.8267
   2   2.0000     -10.326072      -280.9867
   3   2.0000     -10.325377      -280.9678
   4   2.0000     -10.320658      -280.8394
   5   2.0000     -10.304856      -280.4094
   6   2.0000     -10.302183      -280.3366
   7   2.0000     -10.300297      -280.2853
   8   2.0000     -10.294217      -280.1199
   9   2.0000     -10.292721      -280.0792
  10   2.0000     -10.291973      -280.0588
  11   2.0000     -10.289727      -279.9977
  12   2.0000     -10.287967      -279.9498
  13   2.0000     -10.282879      -279.8114
  14   2.0000     -10.281659      -279.7782
  15   2.0000     -10.279052      -279.7072
  16   2.0000      -8.079925      -219.8659
  17   2.0000      -8.079341      -219.8500
  18   2.0000      -6.038619      -164.3192
  19   2.0000      -6.037851      -164.2983
  20   2.0000      -6.034775      -164.2146
  21   2.0000      -6.033825      -164.1887
  22   2.0000      -6.030436      -164.0965
  23   2.0000      -6.029953      -164.0834
  24   2.0000      -1.010247       -27.4902
  25   2.0000      -0.981248       -26.7011
  26   2.0000      -0.916317       -24.9343
  27   2.0000      -0.910562       -24.7777
  28   2.0000      -0.870758       -23.6945
  29   2.0000      -0.849900       -23.1269
  30   2.0000      -0.841484       -22.8979
  31   2.0000      -0.814288       -22.1579
  32   2.0000      -0.786425       -21.3997
  33   2.0000      -0.773941       -21.0600
  34   2.0000      -0.711679       -19.3658
  35   2.0000      -0.706809       -19.2332
  36   2.0000      -0.686918       -18.6920
  37   2.0000      -0.662882       -18.0379
  38   2.0000      -0.639368       -17.3981
  39   2.0000      -0.615526       -16.7493
  40   2.0000      -0.583709       -15.8835
  41   2.0000      -0.574299       -15.6275
  42   2.0000      -0.561988       -15.2925
  43   2.0000      -0.555818       -15.1246
  44   2.0000      -0.547023       -14.8853
  45   2.0000      -0.525049       -14.2873
  46   2.0000      -0.519534       -14.1372
  47   2.0000      -0.511724       -13.9247
  48   2.0000      -0.502336       -13.6693
  49   2.0000      -0.499485       -13.5917
  50   2.0000      -0.485882       -13.2215
  51   2.0000      -0.478521       -13.0212
  52   2.0000      -0.474905       -12.9228
  53   2.0000      -0.461980       -12.5711
  54   2.0000      -0.456276       -12.4159
  55   2.0000      -0.449454       -12.2303
  56   2.0000      -0.442135       -12.0311
  57   2.0000      -0.440108       -11.9759
  58   2.0000      -0.434438       -11.8216
  59   2.0000      -0.423792       -11.5320
  60   2.0000      -0.420966       -11.4551
  61   2.0000      -0.417251       -11.3540
  62   2.0000      -0.405017       -11.0211
  63   2.0000      -0.347446        -9.4545
  64   2.0000      -0.331739        -9.0271
  65   2.0000      -0.329869        -8.9762
  66   2.0000      -0.293424        -7.9845
  67   0.0000       0.030191         0.8215
  68   0.0000       0.069187         1.8827
  69   0.0000       0.101608         2.7649
  70   0.0000       0.121442         3.3046
  71   0.0000       0.133324         3.6279

MULLIKEN ATOMIC CHARGES
-----------------------
   0 S :    0.101492
   1 C :   -0.128891
   2 C :   -0.091538
   3 C :    0.006464
   4 C :   -0.151619
   5 H :    0.033321
   6 C :    0.114601
   7 H :    0.005272
   8 H :    0.026278
   9 C :   -0.064488
  10 H :    0.026931
  11 H :    0.026088
  12 C :   -0.043003
  13 H :    0.029441
  14 H :    0.023219
  15 H :    0.032144
  16 S :    0.098826
  17 C :   -0.076046
  18 C :   -0.064590
  19 C :   -0.066506
  20 C :   -0.127511
  21 H :    0.036529
  22 C :    0.065347
  23 H :    0.003138
  24 H :    0.034738
  25 C :   -0.038425
  26 H :    0.020619
  27 H :    0.033286
  28 C :   -0.076395
  29 H :    0.055820
  30 H :    0.059294
  31 H :    0.015378
  32 H :    0.033015
  33 H :    0.047772
Sum of atomic charges:    0.0000000

LOEWDIN ATOMIC CHARGES
----------------------
   0 S :    0.410697
   1 C :   -0.190997
   2 C :   -0.062964
   3 C :   -0.069000
   4 C :   -0.198791
   5 H :    0.037802
   6 C :   -0.025776
   7 H :    0.021522
   8 H :    0.035834
   9 C :   -0.033436
  10 H :    0.018589
  11 H :    0.029457
  12 C :   -0.068102
  13 H :    0.027696
  14 H :    0.023138
  15 H :    0.023840
  16 S :    0.366618
  17 C :   -0.165980
  18 C :   -0.070186
  19 C :   -0.058712
  20 C :   -0.186938
  21 H :    0.037489
  22 C :   -0.036587
  23 H :    0.021102
  24 H :    0.039281
  25 C :   -0.042374
  26 H :    0.021896
  27 H :    0.026082
  28 C :   -0.070546
  29 H :    0.038869
  30 H :    0.031162
  31 H :    0.021616
  32 H :    0.021981
  33 H :    0.025720

  Mayer bond orders larger than 0.100000
B(  0-S ,  1-C ) :   1.1093 B(  0-S ,  4-C ) :   1.1619 B(  1-C ,  2-C ) :   1.6671
B(  1-C , 32-H ) :   0.9682 B(  2-C ,  3-C ) :   1.2211 B(  2-C ,  6-C ) :   1.0085
B(  3-C ,  4-C ) :   1.5952 B(  3-C ,  5-H ) :   0.9806 B(  4-C , 20-C ) :   1.0192
B(  6-C ,  7-H ) :   0.9370 B(  6-C ,  8-H ) :   0.9330 B(  6-C ,  9-C ) :   1.0563
B(  9-C , 10-H ) :   0.9620 B(  9-C , 11-H ) :   0.9586 B(  9-C , 12-C ) :   1.0790
B( 12-C , 13-H ) :   0.9746 B( 12-C , 14-H ) :   0.9741 B( 12-C , 15-H ) :   0.9777
B( 16-S , 17-C ) :   1.1309 B( 16-S , 20-C ) :   1.1163 B( 17-C , 18-C ) :   1.6480
B( 17-C , 20-C ) :   0.1006 B( 17-C , 33-H ) :   0.9641 B( 18-C , 19-C ) :   1.2139
B( 18-C , 21-H ) :   0.9784 B( 19-C , 20-C ) :   1.6277 B( 19-C , 22-C ) :   1.0460
B( 22-C , 23-H ) :   0.9200 B( 22-C , 24-H ) :   0.9341 B( 22-C , 25-C ) :   1.0749
B( 25-C , 26-H ) :   0.9522 B( 25-C , 27-H ) :   0.9523 B( 25-C , 28-C ) :   1.0784
B( 28-C , 29-H ) :   0.9704 B( 28-C , 30-H ) :   0.9658 B( 28-C , 31-H ) :   0.9707

Dispersion correction           -0.014479364
FINAL SINGLE POINT ENERGY     -1339.874472636107

DIPOLE MOMENT
-------------
                                X             Y             Z
Electronic contribution:    -18.40004      16.62520      -6.70190
Nuclear contribution   :     18.98963     -16.94369       6.98614
                        -----------------------------------------
Total Dipole Moment    :      0.58959      -0.31849       0.28425
                        -----------------------------------------
Magnitude (a.u.)       :      0.72791
Magnitude (Debye)      :      1.85019

Rotational constants in cm-1:     0.022512     0.007782     0.006551
Rotational constants in MHz :   674.894320   233.284562   196.387113

                             ****ORCA TERMINATED NORMALLY****
TOTAL RUN TIME: 0 days 0 hours 0 minutes 21 seconds 904 msec
