                         Program Version 4.2.1 -  RELEASE  -
|  1> ! wB97X-D3 SP def2-SVP
|  2> %pal
|  3> nprocs 24
|  4> end
|  5>
|  6> * xyz 0 1
|  7> S 	 -87.8882 	 -38.5273 	 -63.8747
|  8> C 	 -88.2928 	 -40.1494 	 -64.5701
|  9> C 	 -88.5347 	 -41.0704 	 -63.5387
| 10> C 	 -88.5553 	 -40.4521 	 -62.2182
| 11> C 	 -88.4589 	 -39.0668 	 -62.2824
| 12> H 	 -88.5914 	 -40.8965 	 -61.216
| 13> C 	 -88.5765 	 -42.5256 	 -63.6335
| 14> H 	 -87.7469 	 -42.9193 	 -63.0602
| 15> H 	 -88.3429 	 -42.7448 	 -64.7348
| 16> C 	 -89.9379 	 -43.2221 	 -63.3275
| 17> H 	 -90.464 	 -42.7499 	 -62.482
| 18> H 	 -90.5167 	 -42.9543 	 -64.2255
| 19> C 	 -89.7894 	 -44.7857 	 -63.1744
| 20> H 	 -89.1097 	 -45.0754 	 -62.31
| 21> H 	 -90.7439 	 -45.2726 	 -63.0986
| 22> H 	 -89.4291 	 -45.1039 	 -64.1167
| 23> S 	 -86.9905 	 -37.2249 	 -61.0211
| 24> C 	 -87.4282 	 -36.6691 	 -59.4651
| 25> C 	 -88.5964 	 -37.2224 	 -58.9308
| 26> C 	 -89.103 	 -38.1492 	 -59.9045
| 27> C 	 -88.3544 	 -38.2388 	 -61.097
| 28> H 	 -88.9779 	 -36.8736 	 -57.9362
| 29> C 	 -90.4791 	 -38.8244 	 -59.6293
| 30> H 	 -90.7425 	 -39.4375 	 -60.498
| 31> H 	 -91.2224 	 -38.06 	 -59.5392
| 32> C 	 -90.5372 	 -39.6718 	 -58.3726
| 33> H 	 -91.5617 	 -40.0437 	 -58.1343
| 34> H 	 -90.2337 	 -39.1786 	 -57.4447
| 35> C 	 -89.6536 	 -40.9372 	 -58.4526
| 36> H 	 -89.5124 	 -41.4811 	 -57.4514
| 37> H 	 -88.6147 	 -40.8614 	 -58.7464
| 38> H 	 -90.1505 	 -41.6986 	 -59.1458
| 39> H 	 -88.2475 	 -40.4262 	 -65.5892
| 40> H 	 -86.9107 	 -35.927 	 -58.818
| 41> *
| 42>
| 43>                          ****END OF INPUT****

CARTESIAN COORDINATES (ANGSTROEM)
---------------------------------
  S    -87.888200  -38.527300  -63.874700
  C    -88.292800  -40.149400  -64.570100
  C    -88.534700  -41.070400  -63.538700
  C    -88.555300  -40.452100  -62.218200
  C    -88.458900  -39.066800  -62.282400
  H    -88.591400  -40.896500  -61.216000
  C    -88.576500  -42.525600  -63.633500
  H    -87.746900  -42.919300  -63.060200
  H    -88.342900  -42.744800  -64.734800
  C    -89.937900  -43.222100  -63.327500
  H    -90.464000  -42.749900  -62.482000
  H    -90.516700  -42.954300  -64.225500
  C    -89.789400  -44.785700  -63.174400
  H    -89.109700  -45.075400  -62.310000
  H    -90.743900  -45.272600  -63.098600
  H    -89.429100  -45.103900  -64.116700
  S    -86.990500  -37.224900  -61.021100
  C    -87.428200  -36.669100  -59.465100
  C    -88.596400  -37.222400  -58.930800
  C    -89.103000  -38.149200  -59.904500
  C    -88.354400  -38.238800  -61.097000
  H    -88.977900  -36.873600  -57.936200
  C    -90.479100  -38.824400  -59.629300
  H    -90.742500  -39.437500  -60.498000
  H    -91.222400  -38.060000  -59.539200
  C    -90.537200  -39.671800  -58.372600
  H    -91.561700  -40.043700  -58.134300
  H    -90.233700  -39.178600  -57.444700
  C    -89.653600  -40.937200  -58.452600
  H    -89.512400  -41.481100  -57.451400
  H    -88.614700  -40.861400  -58.746400
  H    -90.150500  -41.698600  -59.145800
  H    -88.247500  -40.426200  -65.589200
  H    -86.910700  -35.927000  -58.818000

 Total Charge           Charge          ....    0
 Multiplicity           Mult            ....    1
 Number of Electrons    NEL             ....  134
 Basis Dimension        Dim             ....  322

ORBITAL ENERGIES
----------------

  NO   OCC          E(Eh)            E(eV)
   0   2.0000     -88.969324     -2420.9784
   1   2.0000     -88.968492     -2420.9558
   2   2.0000     -10.332219      -281.1540
   3   2.0000     -10.324481      -280.9434
   4   2.0000     -10.320081      -280.8237
   5   2.0000     -10.317028      -280.7406
   6   2.0000     -10.309033      -280.5231
   7   2.0000     -10.305263      -280.4204
   8   2.0000     -10.300157      -280.2815
   9   2.0000     -10.296116      -280.1716
  10   2.0000     -10.293982      -280.1135
  11   2.0000     -10.293646      -280.1043
  12   2.0000     -10.291332      -280.0414
  13   2.0000     -10.290412      -280.0163
  14   2.0000     -10.285470      -279.8819
  15   2.0000     -10.283756      -279.8352
  16   2.0000      -8.085453      -220.0163
  17   2.0000      -8.081793      -219.9168
  18   2.0000      -6.043798      -164.4601
  19   2.0000      -6.040616      -164.3735
  20   2.0000      -6.039656      -164.3474
  21   2.0000      -6.036756      -164.2685
  22   2.0000      -6.036411      -164.2591
  23   2.0000      -6.032061      -164.1407
  24   2.0000      -1.010586       -27.4994
  25   2.0000      -0.979141       -26.6438
  26   2.0000      -0.910939       -24.7879
  27   2.0000      -0.906713       -24.6729
  28   2.0000      -0.868533       -23.6340
  29   2.0000      -0.847272       -23.0554
  30   2.0000      -0.843039       -22.9403
  31   2.0000      -0.812221       -22.1017
  32   2.0000      -0.779400       -21.2086
  33   2.0000      -0.770116       -20.9559
  34   2.0000      -0.707972       -19.2649
  35   2.0000      -0.701548       -19.0901
  36   2.0000      -0.691389       -18.8136
  37   2.0000      -0.656588       -17.8667
  38   2.0000      -0.638115       -17.3640
  39   2.0000      -0.616441       -16.7742
  40   2.0000      -0.591071       -16.0839
  41   2.0000      -0.567336       -15.4380
  42   2.0000      -0.560317       -15.2470
  43   2.0000      -0.549488       -14.9523
  44   2.0000      -0.540455       -14.7065
  45   2.0000      -0.522037       -14.2054
  46   2.0000      -0.515670       -14.0321
  47   2.0000      -0.511229       -13.9112
  48   2.0000      -0.501757       -13.6535
  49   2.0000      -0.500544       -13.6205
  50   2.0000      -0.491459       -13.3733
  51   2.0000      -0.481770       -13.1096
  52   2.0000      -0.463030       -12.5997
  53   2.0000      -0.458285       -12.4706
  54   2.0000      -0.454994       -12.3810
  55   2.0000      -0.451207       -12.2780
  56   2.0000      -0.444734       -12.1018
  57   2.0000      -0.434863       -11.8332
  58   2.0000      -0.432520       -11.7695
  59   2.0000      -0.428190       -11.6516
  60   2.0000      -0.421942       -11.4816
  61   2.0000      -0.416208       -11.3256
  62   2.0000      -0.411245       -11.1905
  63   2.0000      -0.350566        -9.5394
  64   2.0000      -0.333591        -9.0775
  65   2.0000      -0.324787        -8.8379
  66   2.0000      -0.286385        -7.7929
  67   0.0000       0.025073         0.6823
  68   0.0000       0.068461         1.8629
  69   0.0000       0.096679         2.6308
  70   0.0000       0.120026         3.2661
  71   0.0000       0.128211         3.4888

MULLIKEN ATOMIC CHARGES
-----------------------
   0 S :    0.084667
   1 C :   -0.091728
   2 C :   -0.078977
   3 C :    0.013767
   4 C :   -0.121436
   5 H :    0.020057
   6 C :    0.033429
   7 H :    0.039467
   8 H :    0.018233
   9 C :   -0.100025
  10 H :    0.038435
  11 H :    0.032284
  12 C :   -0.027987
  13 H :    0.052154
  14 H :    0.032770
  15 H :    0.018650
  16 S :    0.129406
  17 C :   -0.102345
  18 C :   -0.061900
  19 C :   -0.067072
  20 C :   -0.151753
  21 H :    0.045865
  22 C :    0.108054
  23 H :    0.022152
  24 H :    0.030459
  25 C :   -0.070553
  26 H :    0.035654
  27 H :    0.027537
  28 C :   -0.126921
  29 H :    0.036345
  30 H :    0.050637
  31 H :    0.037235
  32 H :    0.033052
  33 H :    0.060390
Sum of atomic charges:   -0.0000000

LOEWDIN ATOMIC CHARGES
----------------------
   0 S :    0.362100
   1 C :   -0.176365
   2 C :   -0.057068
   3 C :   -0.058858
   4 C :   -0.181060
   5 H :    0.036584
   6 C :   -0.041231
   7 H :    0.032495
   8 H :    0.034156
   9 C :   -0.040577
  10 H :    0.020283
  11 H :    0.028218
  12 C :   -0.063402
  13 H :    0.035379
  14 H :    0.024840
  15 H :    0.019895
  16 S :    0.449096
  17 C :   -0.206563
  18 C :   -0.077834
  19 C :   -0.055692
  20 C :   -0.220781
  21 H :    0.045193
  22 C :   -0.027238
  23 H :    0.029759
  24 H :    0.029794
  25 C :   -0.045889
  26 H :    0.031408
  27 H :    0.021760
  28 C :   -0.084580
  29 H :    0.032908
  30 H :    0.020015
  31 H :    0.026812
  32 H :    0.021010
  33 H :    0.035435

  Mayer bond orders larger than 0.100000
B(  0-S ,  1-C ) :   1.1014 B(  0-S ,  4-C ) :   1.1298 B(  1-C ,  2-C ) :   1.6294
B(  1-C , 32-H ) :   0.9729 B(  2-C ,  3-C ) :   1.1913 B(  2-C ,  6-C ) :   1.0492
B(  3-C ,  4-C ) :   1.5867 B(  3-C ,  5-H ) :   0.9859 B(  4-C , 20-C ) :   1.0547
B(  6-C ,  7-H ) :   0.9397 B(  6-C ,  8-H ) :   0.9388 B(  6-C ,  9-C ) :   1.0339
B(  9-C , 10-H ) :   0.9676 B(  9-C , 11-H ) :   0.9558 B(  9-C , 12-C ) :   1.0697
B( 12-C , 13-H ) :   0.9773 B( 12-C , 14-H ) :   0.9753 B( 12-C , 15-H ) :   0.9732
B( 16-S , 17-C ) :   1.1813 B( 16-S , 20-C ) :   1.1517 B( 17-C , 18-C ) :   1.6027
B( 17-C , 33-H ) :   0.9592 B( 18-C , 19-C ) :   1.2480 B( 18-C , 21-H ) :   0.9845
B( 19-C , 20-C ) :   1.5796 B( 19-C , 22-C ) :   1.0314 B( 22-C , 23-H ) :   0.9387
B( 22-C , 24-H ) :   0.9384 B( 22-C , 25-C ) :   1.0670 B( 25-C , 26-H ) :   0.9548
B( 25-C , 27-H ) :   0.9589 B( 25-C , 28-C ) :   1.0670 B( 28-C , 29-H ) :   0.9716
B( 28-C , 30-H ) :   0.9695 B( 28-C , 31-H ) :   0.9732

Dispersion correction           -0.014652801
FINAL SINGLE POINT ENERGY     -1339.865057409367

DIPOLE MOMENT
-------------
                                X             Y             Z
Electronic contribution:     14.30372      26.89563      -9.18192
Nuclear contribution   :    -14.51254     -27.37237       9.55739
                        -----------------------------------------
Total Dipole Moment    :     -0.20882      -0.47674       0.37546
                        -----------------------------------------
Magnitude (a.u.)       :      0.64176
Magnitude (Debye)      :      1.63124

Rotational constants in cm-1:     0.017912     0.009531     0.006666
Rotational constants in MHz :   537.003152   285.723766   199.846981

                             ****ORCA TERMINATED NORMALLY****
TOTAL RUN TIME: 0 days 0 hours 0 minutes 22 seconds 63 msec
