                         Program Version 4.2.1 -  RELEASE  -
|  1> ! wB97X-D3 SP def2-SVP
|  2> %pal
|  3> nprocs 24
|  4> end
|  5>
|  6> * xyz 0 1
|  7> S 	 -126.6 	 64.817 	 -58.2596
|  8> C 	 -128.321 	 64.7131 	 -58.341
|  9> C 	 -128.805 	 63.4896 	 -57.9134
| 10> C 	 -127.769 	 62.6175 	 -57.5251
| 11> C 	 -126.478 	 63.1212 	 -57.7723
| 12> H 	 -127.856 	 61.5942 	 -57.2049
| 13> C 	 -130.217 	 63.0598 	 -57.7339
| 14> H 	 -130.598 	 63.6816 	 -56.9565
| 15> H 	 -130.112 	 62.1633 	 -57.11
| 16> C 	 -131.145 	 62.9839 	 -58.9652
| 17> H 	 -132.161 	 63.0082 	 -58.528
| 18> H 	 -130.987 	 63.9051 	 -59.4917
| 19> C 	 -130.891 	 61.765 	 -59.8389
| 20> H 	 -130.978 	 60.8514 	 -59.2427
| 21> H 	 -131.562 	 61.7354 	 -60.7189
| 22> H 	 -129.828 	 61.7047 	 -60.1141
| 23> S 	 -123.986 	 63.1851 	 -56.4916
| 24> C 	 -123.111 	 61.7076 	 -56.4667
| 25> C 	 -123.793 	 60.6183 	 -57.0218
| 26> C 	 -125.002 	 61.0852 	 -57.6523
| 27> C 	 -125.28 	 62.3861 	 -57.4118
| 28> H 	 -123.421 	 59.5986 	 -56.9346
| 29> C 	 -125.841 	 60.0825 	 -58.4598
| 30> H 	 -126.804 	 59.8811 	 -58.017
| 31> H 	 -125.383 	 59.0886 	 -58.4014
| 32> C 	 -126.119 	 60.4545 	 -59.9637
| 33> H 	 -126.765 	 61.3614 	 -59.8442
| 34> H 	 -126.691 	 59.6705 	 -60.4598
| 35> C 	 -124.927 	 60.9493 	 -60.7627
| 36> H 	 -125.115 	 61.313 	 -61.77
| 37> H 	 -124.183 	 60.1457 	 -60.8212
| 38> H 	 -124.449 	 61.7075 	 -60.1893
| 39> H 	 -129.021 	 65.5748 	 -58.5004
| 40> H 	 -122.29 	 61.629 	 -55.7905
| 41> *
| 42>
| 43>                          ****END OF INPUT****

CARTESIAN COORDINATES (ANGSTROEM)
---------------------------------
  S    -126.600000   64.817000  -58.259600
  C    -128.321000   64.713100  -58.341000
  C    -128.805000   63.489600  -57.913400
  C    -127.769000   62.617500  -57.525100
  C    -126.478000   63.121200  -57.772300
  H    -127.856000   61.594200  -57.204900
  C    -130.217000   63.059800  -57.733900
  H    -130.598000   63.681600  -56.956500
  H    -130.112000   62.163300  -57.110000
  C    -131.145000   62.983900  -58.965200
  H    -132.161000   63.008200  -58.528000
  H    -130.987000   63.905100  -59.491700
  C    -130.891000   61.765000  -59.838900
  H    -130.978000   60.851400  -59.242700
  H    -131.562000   61.735400  -60.718900
  H    -129.828000   61.704700  -60.114100
  S    -123.986000   63.185100  -56.491600
  C    -123.111000   61.707600  -56.466700
  C    -123.793000   60.618300  -57.021800
  C    -125.002000   61.085200  -57.652300
  C    -125.280000   62.386100  -57.411800
  H    -123.421000   59.598600  -56.934600
  C    -125.841000   60.082500  -58.459800
  H    -126.804000   59.881100  -58.017000
  H    -125.383000   59.088600  -58.401400
  C    -126.119000   60.454500  -59.963700
  H    -126.765000   61.361400  -59.844200
  H    -126.691000   59.670500  -60.459800
  C    -124.927000   60.949300  -60.762700
  H    -125.115000   61.313000  -61.770000
  H    -124.183000   60.145700  -60.821200
  H    -124.449000   61.707500  -60.189300
  H    -129.021000   65.574800  -58.500400
  H    -122.290000   61.629000  -55.790500

 Total Charge           Charge          ....    0
 Multiplicity           Mult            ....    1
 Number of Electrons    NEL             ....  134
 Basis Dimension        Dim             ....  322

ORBITAL ENERGIES
----------------

  NO   OCC          E(Eh)            E(eV)
   0   2.0000     -88.972137     -2421.0549
   1   2.0000     -88.967359     -2420.9249
   2   2.0000     -10.330403      -281.1046
   3   2.0000     -10.325873      -280.9813
   4   2.0000     -10.316214      -280.7184
   5   2.0000     -10.315026      -280.6861
   6   2.0000     -10.303760      -280.3796
   7   2.0000     -10.299330      -280.2590
   8   2.0000     -10.295433      -280.1530
   9   2.0000     -10.294070      -280.1159
  10   2.0000     -10.290711      -280.0245
  11   2.0000     -10.289985      -280.0047
  12   2.0000     -10.285733      -279.8890
  13   2.0000     -10.284011      -279.8422
  14   2.0000     -10.280376      -279.7433
  15   2.0000     -10.265389      -279.3354
  16   2.0000      -8.086373      -220.0414
  17   2.0000      -8.082573      -219.9380
  18   2.0000      -6.044846      -164.4886
  19   2.0000      -6.040980      -164.3834
  20   2.0000      -6.040917      -164.3817
  21   2.0000      -6.037254      -164.2820
  22   2.0000      -6.037136      -164.2788
  23   2.0000      -6.033297      -164.1744
  24   2.0000      -1.008541       -27.4438
  25   2.0000      -0.987002       -26.8577
  26   2.0000      -0.914134       -24.8749
  27   2.0000      -0.903896       -24.5963
  28   2.0000      -0.868394       -23.6302
  29   2.0000      -0.854880       -23.2625
  30   2.0000      -0.847532       -23.0625
  31   2.0000      -0.808602       -22.0032
  32   2.0000      -0.786170       -21.3928
  33   2.0000      -0.774873       -21.0854
  34   2.0000      -0.711831       -19.3699
  35   2.0000      -0.702313       -19.1109
  36   2.0000      -0.683495       -18.5989
  37   2.0000      -0.669585       -18.2203
  38   2.0000      -0.638203       -17.3664
  39   2.0000      -0.609984       -16.5985
  40   2.0000      -0.592365       -16.1191
  41   2.0000      -0.573682       -15.6107
  42   2.0000      -0.553496       -15.0614
  43   2.0000      -0.551705       -15.0127
  44   2.0000      -0.546443       -14.8695
  45   2.0000      -0.533598       -14.5199
  46   2.0000      -0.513038       -13.9605
  47   2.0000      -0.507296       -13.8042
  48   2.0000      -0.497637       -13.5414
  49   2.0000      -0.495620       -13.4865
  50   2.0000      -0.483173       -13.1478
  51   2.0000      -0.479646       -13.0518
  52   2.0000      -0.473409       -12.8821
  53   2.0000      -0.472490       -12.8571
  54   2.0000      -0.463740       -12.6190
  55   2.0000      -0.447279       -12.1711
  56   2.0000      -0.441566       -12.0156
  57   2.0000      -0.439843       -11.9687
  58   2.0000      -0.437146       -11.8953
  59   2.0000      -0.424352       -11.5472
  60   2.0000      -0.420035       -11.4297
  61   2.0000      -0.418987       -11.4012
  62   2.0000      -0.399296       -10.8654
  63   2.0000      -0.351419        -9.5626
  64   2.0000      -0.334426        -9.1002
  65   2.0000      -0.332031        -9.0350
  66   2.0000      -0.287157        -7.8140
  67   0.0000       0.023119         0.6291
  68   0.0000       0.070114         1.9079
  69   0.0000       0.104032         2.8309
  70   0.0000       0.124660         3.3922
  71   0.0000       0.125458         3.4139

MULLIKEN ATOMIC CHARGES
-----------------------
   0 S :    0.126621
   1 C :   -0.137126
   2 C :   -0.095897
   3 C :    0.012601
   4 C :   -0.169196
   5 H :    0.007213
   6 C :    0.055511
   7 H :    0.021726
   8 H :    0.002523
   9 C :   -0.022747
  10 H :    0.033061
  11 H :    0.023561
  12 C :   -0.045481
  13 H :    0.019632
  14 H :    0.049151
  15 H :    0.037621
  16 S :    0.110639
  17 C :   -0.084839
  18 C :   -0.037472
  19 C :   -0.067862
  20 C :   -0.138957
  21 H :    0.030898
  22 C :    0.078342
  23 H :    0.023454
  24 H :    0.010223
  25 C :   -0.106233
  26 H :    0.049643
  27 H :    0.033012
  28 C :   -0.021171
  29 H :    0.038671
  30 H :    0.015577
  31 H :    0.030269
  32 H :    0.063834
  33 H :    0.053198
Sum of atomic charges:    0.0000000

LOEWDIN ATOMIC CHARGES
----------------------
   0 S :    0.416302
   1 C :   -0.217916
   2 C :   -0.071151
   3 C :   -0.057837
   4 C :   -0.193778
   5 H :    0.028005
   6 C :   -0.039801
   7 H :    0.032160
   8 H :    0.030475
   9 C :   -0.033993
  10 H :    0.029089
  11 H :    0.021796
  12 C :   -0.068552
  13 H :    0.025128
  14 H :    0.030862
  15 H :    0.030473
  16 S :    0.405454
  17 C :   -0.185872
  18 C :   -0.066135
  19 C :   -0.058491
  20 C :   -0.190646
  21 H :    0.036040
  22 C :   -0.028599
  23 H :    0.025816
  24 H :    0.025917
  25 C :   -0.043288
  26 H :    0.029210
  27 H :    0.021963
  28 C :   -0.064554
  29 H :    0.027457
  30 H :    0.020980
  31 H :    0.023644
  32 H :    0.039356
  33 H :    0.020489

  Mayer bond orders larger than 0.100000
B(  0-S ,  1-C ) :   1.1467 B(  0-S ,  4-C ) :   1.1547 B(  1-C ,  2-C ) :   1.5840
B(  1-C , 32-H ) :   0.9569 B(  2-C ,  3-C ) :   1.2823 B(  2-C ,  6-C ) :   1.0142
B(  3-C ,  4-C ) :   1.5264 B(  3-C ,  5-H ) :   0.9883 B(  4-C , 20-C ) :   1.0780
B(  6-C ,  7-H ) :   0.9252 B(  6-C ,  8-H ) :   0.9382 B(  6-C ,  9-C ) :   1.0572
B(  9-C , 10-H ) :   0.9527 B(  9-C , 11-H ) :   0.9565 B(  9-C , 12-C ) :   1.0761
B( 12-C , 13-H ) :   0.9719 B( 12-C , 14-H ) :   0.9735 B( 12-C , 15-H ) :   0.9745
B( 16-S , 17-C ) :   1.1701 B( 16-S , 20-C ) :   1.1196 B( 17-C , 18-C ) :   1.6079
B( 17-C , 33-H ) :   0.9658 B( 18-C , 19-C ) :   1.2265 B( 18-C , 21-H ) :   0.9907
B( 19-C , 20-C ) :   1.6262 B( 19-C , 22-C ) :   1.0300 B( 22-C , 23-H ) :   0.9373
B( 22-C , 24-H ) :   0.9341 B( 22-C , 25-C ) :   1.0604 B( 25-C , 26-H ) :   0.9507
B( 25-C , 27-H ) :   0.9583 B( 25-C , 28-C ) :   1.0800 B( 28-C , 29-H ) :   0.9746
B( 28-C , 30-H ) :   0.9756 B( 28-C , 31-H ) :   0.9671

Dispersion correction           -0.015928514
FINAL SINGLE POINT ENERGY     -1339.884127944684

DIPOLE MOMENT
-------------
                                X             Y             Z
Electronic contribution:     17.86051      15.55826      13.78645
Nuclear contribution   :    -18.32033     -16.00198     -13.64618
                        -----------------------------------------
Total Dipole Moment    :     -0.45982      -0.44371       0.14028
                        -----------------------------------------
Magnitude (a.u.)       :      0.65421
Magnitude (Debye)      :      1.66287

Rotational constants in cm-1:     0.020897     0.009329     0.007596
Rotational constants in MHz :   626.486595   279.666933   227.722686

                             ****ORCA TERMINATED NORMALLY****
TOTAL RUN TIME: 0 days 0 hours 0 minutes 21 seconds 925 msec
