                         Program Version 4.2.1 -  RELEASE  -
|  1> ! wB97X-D3 SP def2-SVP
|  2> %pal
|  3> nprocs 24
|  4> end
|  5>
|  6> * xyz 0 1
|  7> S 	 -84.578 	 -42.0281 	 -91.25
|  8> C 	 -83.4392 	 -40.7592 	 -91.3563
|  9> C 	 -82.3418 	 -41.0387 	 -90.5279
| 10> C 	 -82.4997 	 -42.2779 	 -89.8208
| 11> C 	 -83.547 	 -43.0263 	 -90.2455
| 12> H 	 -81.7835 	 -42.6978 	 -89.1472
| 13> C 	 -81.1894 	 -40.0207 	 -90.35
| 14> H 	 -81.5839 	 -38.9864 	 -90.1219
| 15> H 	 -80.8641 	 -39.912 	 -91.3152
| 16> C 	 -79.9922 	 -40.3141 	 -89.4304
| 17> H 	 -80.3059 	 -40.048 	 -88.3847
| 18> H 	 -79.6163 	 -41.3448 	 -89.4641
| 19> C 	 -78.822 	 -39.3134 	 -89.6417
| 20> H 	 -77.9721 	 -39.6515 	 -89.04
| 21> H 	 -78.459 	 -39.1793 	 -90.6378
| 22> H 	 -79.0552 	 -38.388 	 -89.1368
| 23> S 	 -85.5655 	 -44.9563 	 -89.7773
| 24> C 	 -85.1269 	 -46.6021 	 -89.7655
| 25> C 	 -83.8526 	 -46.7072 	 -89.4301
| 26> C 	 -83.0694 	 -45.5235 	 -89.6624
| 27> C 	 -83.8804 	 -44.4287 	 -89.9464
| 28> H 	 -83.5208 	 -47.7503 	 -89.2217
| 29> C 	 -81.5942 	 -45.5133 	 -89.5312
| 30> H 	 -81.2088 	 -46.4269 	 -89.0434
| 31> H 	 -81.4665 	 -44.7856 	 -88.8085
| 32> C 	 -80.6774 	 -45.2557 	 -90.7168
| 33> H 	 -79.6387 	 -45.2783 	 -90.3754
| 34> H 	 -80.8378 	 -44.182 	 -90.8641
| 35> C 	 -81.029 	 -46.0245 	 -91.9898
| 36> H 	 -80.8089 	 -47.1008 	 -91.9418
| 37> H 	 -80.5205 	 -45.6662 	 -92.8533
| 38> H 	 -82.0905 	 -46.0812 	 -92.1985
| 39> H 	 -83.3828 	 -39.9007 	 -92.0117
| 40> H 	 -85.8237 	 -47.4364 	 -89.6984
| 41> *
| 42>
| 43>                          ****END OF INPUT****

CARTESIAN COORDINATES (ANGSTROEM)
---------------------------------
  S    -84.578000  -42.028100  -91.250000
  C    -83.439200  -40.759200  -91.356300
  C    -82.341800  -41.038700  -90.527900
  C    -82.499700  -42.277900  -89.820800
  C    -83.547000  -43.026300  -90.245500
  H    -81.783500  -42.697800  -89.147200
  C    -81.189400  -40.020700  -90.350000
  H    -81.583900  -38.986400  -90.121900
  H    -80.864100  -39.912000  -91.315200
  C    -79.992200  -40.314100  -89.430400
  H    -80.305900  -40.048000  -88.384700
  H    -79.616300  -41.344800  -89.464100
  C    -78.822000  -39.313400  -89.641700
  H    -77.972100  -39.651500  -89.040000
  H    -78.459000  -39.179300  -90.637800
  H    -79.055200  -38.388000  -89.136800
  S    -85.565500  -44.956300  -89.777300
  C    -85.126900  -46.602100  -89.765500
  C    -83.852600  -46.707200  -89.430100
  C    -83.069400  -45.523500  -89.662400
  C    -83.880400  -44.428700  -89.946400
  H    -83.520800  -47.750300  -89.221700
  C    -81.594200  -45.513300  -89.531200
  H    -81.208800  -46.426900  -89.043400
  H    -81.466500  -44.785600  -88.808500
  C    -80.677400  -45.255700  -90.716800
  H    -79.638700  -45.278300  -90.375400
  H    -80.837800  -44.182000  -90.864100
  C    -81.029000  -46.024500  -91.989800
  H    -80.808900  -47.100800  -91.941800
  H    -80.520500  -45.666200  -92.853300
  H    -82.090500  -46.081200  -92.198500
  H    -83.382800  -39.900700  -92.011700
  H    -85.823700  -47.436400  -89.698400

 Total Charge           Charge          ....    0
 Multiplicity           Mult            ....    1
 Number of Electrons    NEL             ....  134
 Basis Dimension        Dim             ....  322

ORBITAL ENERGIES
----------------

  NO   OCC          E(Eh)            E(eV)
   0   2.0000     -88.965836     -2420.8835
   1   2.0000     -88.959529     -2420.7119
   2   2.0000     -10.330453      -281.1059
   3   2.0000     -10.330052      -281.0950
   4   2.0000     -10.311561      -280.5918
   5   2.0000     -10.307515      -280.4818
   6   2.0000     -10.304797      -280.4078
   7   2.0000     -10.304459      -280.3986
   8   2.0000     -10.296659      -280.1863
   9   2.0000     -10.292661      -280.0775
  10   2.0000     -10.292217      -280.0655
  11   2.0000     -10.288945      -279.9764
  12   2.0000     -10.284083      -279.8441
  13   2.0000     -10.281684      -279.7788
  14   2.0000     -10.279108      -279.7087
  15   2.0000     -10.270390      -279.4715
  16   2.0000      -8.081015      -219.8956
  17   2.0000      -8.075226      -219.7381
  18   2.0000      -6.039539      -164.3442
  19   2.0000      -6.035308      -164.2291
  20   2.0000      -6.033812      -164.1884
  21   2.0000      -6.031875      -164.1357
  22   2.0000      -6.029819      -164.0797
  23   2.0000      -6.025613      -163.9653
  24   2.0000      -1.012917       -27.5629
  25   2.0000      -0.993162       -27.0253
  26   2.0000      -0.915081       -24.9006
  27   2.0000      -0.908679       -24.7264
  28   2.0000      -0.873334       -23.7646
  29   2.0000      -0.850639       -23.1471
  30   2.0000      -0.843711       -22.9585
  31   2.0000      -0.823868       -22.4186
  32   2.0000      -0.788413       -21.4538
  33   2.0000      -0.775692       -21.1077
  34   2.0000      -0.717574       -19.5262
  35   2.0000      -0.701317       -19.0838
  36   2.0000      -0.688232       -18.7277
  37   2.0000      -0.656729       -17.8705
  38   2.0000      -0.639880       -17.4120
  39   2.0000      -0.623733       -16.9726
  40   2.0000      -0.589444       -16.0396
  41   2.0000      -0.574116       -15.6225
  42   2.0000      -0.567251       -15.4357
  43   2.0000      -0.557804       -15.1786
  44   2.0000      -0.550581       -14.9821
  45   2.0000      -0.524460       -14.2713
  46   2.0000      -0.513701       -13.9785
  47   2.0000      -0.511462       -13.9176
  48   2.0000      -0.503395       -13.6981
  49   2.0000      -0.497701       -13.5431
  50   2.0000      -0.492815       -13.4102
  51   2.0000      -0.486730       -13.2446
  52   2.0000      -0.472232       -12.8501
  53   2.0000      -0.470694       -12.8082
  54   2.0000      -0.465053       -12.6547
  55   2.0000      -0.450020       -12.2457
  56   2.0000      -0.444062       -12.0836
  57   2.0000      -0.436595       -11.8803
  58   2.0000      -0.431405       -11.7391
  59   2.0000      -0.427754       -11.6398
  60   2.0000      -0.420108       -11.4317
  61   2.0000      -0.416307       -11.3283
  62   2.0000      -0.399462       -10.8699
  63   2.0000      -0.357805        -9.7364
  64   2.0000      -0.330055        -8.9813
  65   2.0000      -0.324141        -8.8203
  66   2.0000      -0.286487        -7.7957
  67   0.0000       0.021653         0.5892
  68   0.0000       0.079593         2.1658
  69   0.0000       0.102294         2.7836
  70   0.0000       0.128097         3.4857
  71   0.0000       0.135462         3.6861

MULLIKEN ATOMIC CHARGES
-----------------------
   0 S :    0.125363
   1 C :   -0.102574
   2 C :   -0.116858
   3 C :    0.025517
   4 C :   -0.134175
   5 H :    0.000768
   6 C :    0.076406
   7 H :    0.039030
   8 H :    0.005216
   9 C :   -0.102122
  10 H :    0.039349
  11 H :    0.042471
  12 C :   -0.043515
  13 H :    0.025964
  14 H :    0.034739
  15 H :    0.027671
  16 S :    0.091051
  17 C :   -0.085506
  18 C :   -0.045220
  19 C :   -0.062690
  20 C :   -0.120284
  21 H :    0.028846
  22 C :    0.057867
  23 H :    0.014769
  24 H :    0.009626
  25 C :   -0.038028
  26 H :    0.027570
  27 H :    0.016546
  28 C :   -0.027860
  29 H :    0.017773
  30 H :    0.029249
  31 H :    0.039315
  32 H :    0.044382
  33 H :    0.059342
Sum of atomic charges:    0.0000000

LOEWDIN ATOMIC CHARGES
----------------------
   0 S :    0.427942
   1 C :   -0.214780
   2 C :   -0.057886
   3 C :   -0.068778
   4 C :   -0.187872
   5 H :    0.025652
   6 C :   -0.037351
   7 H :    0.040421
   8 H :    0.018717
   9 C :   -0.043881
  10 H :    0.033126
  11 H :    0.023136
  12 C :   -0.062923
  13 H :    0.030095
  14 H :    0.019186
  15 H :    0.024839
  16 S :    0.397511
  17 C :   -0.192816
  18 C :   -0.080795
  19 C :   -0.052926
  20 C :   -0.187229
  21 H :    0.038062
  22 C :   -0.035717
  23 H :    0.031669
  24 H :    0.021098
  25 C :   -0.040318
  26 H :    0.027409
  27 H :    0.023042
  28 C :   -0.065315
  29 H :    0.025049
  30 H :    0.023449
  31 H :    0.030911
  32 H :    0.032850
  33 H :    0.034423

  Mayer bond orders larger than 0.100000
B(  0-S ,  1-C ) :   1.1513 B(  0-S ,  4-C ) :   1.1577 B(  1-C ,  2-C ) :   1.5990
B(  1-C ,  4-C ) :   0.1005 B(  1-C , 32-H ) :   0.9714 B(  2-C ,  3-C ) :   1.2636
B(  2-C ,  6-C ) :   0.9924 B(  3-C ,  4-C ) :   1.5489 B(  3-C ,  5-H ) :   0.9916
B(  4-C , 20-C ) :   1.0609 B(  6-C ,  7-H ) :   0.9445 B(  6-C ,  8-H ) :   0.9352
B(  6-C ,  9-C ) :   1.0720 B(  9-C , 10-H ) :   0.9548 B(  9-C , 11-H ) :   0.9586
B(  9-C , 12-C ) :   1.0823 B( 12-C , 13-H ) :   0.9721 B( 12-C , 14-H ) :   0.9785
B( 12-C , 15-H ) :   0.9773 B( 16-S , 17-C ) :   1.1465 B( 16-S , 20-C ) :   1.1297
B( 17-C , 18-C ) :   1.6470 B( 17-C , 33-H ) :   0.9618 B( 18-C , 19-C ) :   1.2179
B( 18-C , 21-H ) :   0.9822 B( 19-C , 20-C ) :   1.5922 B( 19-C , 22-C ) :   1.0323
B( 22-C , 23-H ) :   0.9304 B( 22-C , 24-H ) :   0.9292 B( 22-C , 25-C ) :   1.0799
B( 25-C , 26-H ) :   0.9515 B( 25-C , 27-H ) :   0.9460 B( 25-C , 28-C ) :   1.0766
B( 28-C , 29-H ) :   0.9737 B( 28-C , 30-H ) :   0.9749 B( 28-C , 31-H ) :   0.9702

Dispersion correction           -0.014741641
FINAL SINGLE POINT ENERGY     -1339.854870219130

DIPOLE MOMENT
-------------
                                X             Y             Z
Electronic contribution:    -29.95817      -5.30049      -0.35251
Nuclear contribution   :     30.73600       5.31784       0.48040
                        -----------------------------------------
Total Dipole Moment    :      0.77784       0.01735       0.12789
                        -----------------------------------------
Magnitude (a.u.)       :      0.78847
Magnitude (Debye)      :      2.00413

Rotational constants in cm-1:     0.020263     0.008708     0.006873
Rotational constants in MHz :   607.474851   261.051861   206.058236

                             ****ORCA TERMINATED NORMALLY****
TOTAL RUN TIME: 0 days 0 hours 0 minutes 21 seconds 126 msec
