                         Program Version 4.2.1 -  RELEASE  -
|  1> ! wB97X-D3 SP def2-SVP
|  2> %pal
|  3> nprocs 24
|  4> end
|  5>
|  6> * xyz 0 1
|  7> S 	 35.0383 	 -30.3418 	 -112.811
|  8> C 	 33.501 	 -31.115 	 -112.338
|  9> C 	 33.5644 	 -32.517 	 -112.453
| 10> C 	 34.8335 	 -32.9516 	 -112.968
| 11> C 	 35.6958 	 -31.9154 	 -113.264
| 12> H 	 35.2117 	 -33.9729 	 -113.139
| 13> C 	 32.4191 	 -33.471 	 -112.163
| 14> H 	 32.3507 	 -34.0758 	 -113.035
| 15> H 	 31.4848 	 -32.9576 	 -112.003
| 16> C 	 32.6501 	 -34.4725 	 -110.985
| 17> H 	 33.6361 	 -34.9264 	 -110.942
| 18> H 	 32.5533 	 -33.9713 	 -109.972
| 19> C 	 31.5785 	 -35.5855 	 -110.997
| 20> H 	 30.5882 	 -35.2512 	 -110.837
| 21> H 	 31.4634 	 -36.0492 	 -111.945
| 22> H 	 31.755 	 -36.345 	 -110.248
| 23> S 	 36.9568 	 -32.4516 	 -115.725
| 24> C 	 38.659 	 -32.1666 	 -115.924
| 25> C 	 39.2464 	 -31.8628 	 -114.724
| 26> C 	 38.3039 	 -31.7734 	 -113.629
| 27> C 	 36.9747 	 -32.0047 	 -113.99
| 28> H 	 40.3352 	 -31.8296 	 -114.659
| 29> C 	 38.7123 	 -31.2992 	 -112.268
| 30> H 	 37.8924 	 -30.7133 	 -111.848
| 31> H 	 39.4641 	 -30.5972 	 -112.425
| 32> C 	 39.0788 	 -32.342 	 -111.249
| 33> H 	 39.8265 	 -33.0765 	 -111.654
| 34> H 	 38.3004 	 -33.101 	 -111.103
| 35> C 	 39.5114 	 -31.6416 	 -109.97
| 36> H 	 40.167 	 -30.7882 	 -110.114
| 37> H 	 40.0873 	 -32.2888 	 -109.404
| 38> H 	 38.6327 	 -31.3193 	 -109.368
| 39> H 	 32.6479 	 -30.5942 	 -111.964
| 40> H 	 39.2906 	 -32.2679 	 -116.761
| 41> *
| 42>
| 43>                          ****END OF INPUT****

CARTESIAN COORDINATES (ANGSTROEM)
---------------------------------
  S     35.038300  -30.341800  -112.811000
  C     33.501000  -31.115000  -112.338000
  C     33.564400  -32.517000  -112.453000
  C     34.833500  -32.951600  -112.968000
  C     35.695800  -31.915400  -113.264000
  H     35.211700  -33.972900  -113.139000
  C     32.419100  -33.471000  -112.163000
  H     32.350700  -34.075800  -113.035000
  H     31.484800  -32.957600  -112.003000
  C     32.650100  -34.472500  -110.985000
  H     33.636100  -34.926400  -110.942000
  H     32.553300  -33.971300  -109.972000
  C     31.578500  -35.585500  -110.997000
  H     30.588200  -35.251200  -110.837000
  H     31.463400  -36.049200  -111.945000
  H     31.755000  -36.345000  -110.248000
  S     36.956800  -32.451600  -115.725000
  C     38.659000  -32.166600  -115.924000
  C     39.246400  -31.862800  -114.724000
  C     38.303900  -31.773400  -113.629000
  C     36.974700  -32.004700  -113.990000
  H     40.335200  -31.829600  -114.659000
  C     38.712300  -31.299200  -112.268000
  H     37.892400  -30.713300  -111.848000
  H     39.464100  -30.597200  -112.425000
  C     39.078800  -32.342000  -111.249000
  H     39.826500  -33.076500  -111.654000
  H     38.300400  -33.101000  -111.103000
  C     39.511400  -31.641600  -109.970000
  H     40.167000  -30.788200  -110.114000
  H     40.087300  -32.288800  -109.404000
  H     38.632700  -31.319300  -109.368000
  H     32.647900  -30.594200  -111.964000
  H     39.290600  -32.267900  -116.761000

 Total Charge           Charge          ....    0
 Multiplicity           Mult            ....    1
 Number of Electrons    NEL             ....  134
 Basis Dimension        Dim             ....  322

ORBITAL ENERGIES
----------------

  NO   OCC          E(Eh)            E(eV)
   0   2.0000     -88.968600     -2420.9587
   1   2.0000     -88.963040     -2420.8074
   2   2.0000     -10.332691      -281.1668
   3   2.0000     -10.328710      -281.0585
   4   2.0000     -10.318851      -280.7902
   5   2.0000     -10.313289      -280.6389
   6   2.0000     -10.308307      -280.5033
   7   2.0000     -10.302518      -280.3458
   8   2.0000     -10.299405      -280.2611
   9   2.0000     -10.294310      -280.1224
  10   2.0000     -10.294286      -280.1218
  11   2.0000     -10.292341      -280.0688
  12   2.0000     -10.283666      -279.8328
  13   2.0000     -10.277497      -279.6649
  14   2.0000     -10.271361      -279.4979
  15   2.0000     -10.271095      -279.4907
  16   2.0000      -8.082177      -219.9272
  17   2.0000      -8.077249      -219.7931
  18   2.0000      -6.040724      -164.3765
  19   2.0000      -6.036885      -164.2720
  20   2.0000      -6.035868      -164.2443
  21   2.0000      -6.032929      -164.1644
  22   2.0000      -6.031779      -164.1331
  23   2.0000      -6.027954      -164.0290
  24   2.0000      -0.999420       -27.1956
  25   2.0000      -0.978517       -26.6268
  26   2.0000      -0.912455       -24.8292
  27   2.0000      -0.908580       -24.7237
  28   2.0000      -0.866962       -23.5912
  29   2.0000      -0.848536       -23.0898
  30   2.0000      -0.846523       -23.0351
  31   2.0000      -0.815794       -22.1989
  32   2.0000      -0.783302       -21.3147
  33   2.0000      -0.770175       -20.9575
  34   2.0000      -0.710523       -19.3343
  35   2.0000      -0.704577       -19.1725
  36   2.0000      -0.695390       -18.9225
  37   2.0000      -0.661413       -17.9980
  38   2.0000      -0.641091       -17.4450
  39   2.0000      -0.617377       -16.7997
  40   2.0000      -0.595859       -16.2142
  41   2.0000      -0.570693       -15.5293
  42   2.0000      -0.561577       -15.2813
  43   2.0000      -0.555807       -15.1243
  44   2.0000      -0.528732       -14.3875
  45   2.0000      -0.523835       -14.2543
  46   2.0000      -0.514708       -14.0059
  47   2.0000      -0.508547       -13.8383
  48   2.0000      -0.508152       -13.8275
  49   2.0000      -0.502553       -13.6752
  50   2.0000      -0.491416       -13.3721
  51   2.0000      -0.475047       -12.9267
  52   2.0000      -0.470727       -12.8091
  53   2.0000      -0.464932       -12.6514
  54   2.0000      -0.460571       -12.5328
  55   2.0000      -0.454442       -12.3660
  56   2.0000      -0.447865       -12.1870
  57   2.0000      -0.442059       -12.0290
  58   2.0000      -0.438940       -11.9442
  59   2.0000      -0.426376       -11.6023
  60   2.0000      -0.418643       -11.3919
  61   2.0000      -0.411843       -11.2068
  62   2.0000      -0.403286       -10.9740
  63   2.0000      -0.334624        -9.1056
  64   2.0000      -0.332105        -9.0370
  65   2.0000      -0.325211        -8.8494
  66   2.0000      -0.302255        -8.2248
  67   0.0000       0.038093         1.0366
  68   0.0000       0.056550         1.5388
  69   0.0000       0.110273         3.0007
  70   0.0000       0.115497         3.1428
  71   0.0000       0.128202         3.4886

MULLIKEN ATOMIC CHARGES
-----------------------
   0 S :    0.115522
   1 C :   -0.118715
   2 C :   -0.073048
   3 C :    0.025990
   4 C :   -0.166131
   5 H :    0.027641
   6 C :    0.097042
   7 H :    0.024107
   8 H :    0.020260
   9 C :   -0.098030
  10 H :    0.033451
  11 H :    0.036215
  12 C :   -0.022798
  13 H :    0.011077
  14 H :    0.012571
  15 H :    0.033051
  16 S :    0.106662
  17 C :   -0.061059
  18 C :   -0.047698
  19 C :   -0.038515
  20 C :   -0.162341
  21 H :    0.024666
  22 C :    0.095250
  23 H :    0.008903
  24 H :    0.002579
  25 C :   -0.077615
  26 H :    0.016998
  27 H :    0.022952
  28 C :   -0.005205
  29 H :    0.023105
  30 H :    0.011042
  31 H :    0.044089
  32 H :    0.039446
  33 H :    0.038538
Sum of atomic charges:    0.0000000

LOEWDIN ATOMIC CHARGES
----------------------
   0 S :    0.392335
   1 C :   -0.184782
   2 C :   -0.056727
   3 C :   -0.062125
   4 C :   -0.189659
   5 H :    0.039285
   6 C :   -0.024180
   7 H :    0.029940
   8 H :    0.030076
   9 C :   -0.038579
  10 H :    0.022400
  11 H :    0.030381
  12 C :   -0.065004
  13 H :    0.019015
  14 H :    0.018413
  15 H :    0.027378
  16 S :    0.394990
  17 C :   -0.180885
  18 C :   -0.077605
  19 C :   -0.049744
  20 C :   -0.196052
  21 H :    0.033499
  22 C :   -0.032868
  23 H :    0.027110
  24 H :    0.021196
  25 C :   -0.044556
  26 H :    0.023978
  27 H :    0.026986
  28 C :   -0.059426
  29 H :    0.025613
  30 H :    0.016238
  31 H :    0.034174
  32 H :    0.022843
  33 H :    0.026341

  Mayer bond orders larger than 0.100000
B(  0-S ,  1-C ) :   1.1303 B(  0-S ,  4-C ) :   1.1430 B(  1-C ,  2-C ) :   1.6181
B(  1-C , 32-H ) :   0.9720 B(  2-C ,  3-C ) :   1.2078 B(  2-C ,  6-C ) :   1.0297
B(  3-C ,  4-C ) :   1.6077 B(  3-C ,  5-H ) :   0.9896 B(  4-C , 20-C ) :   1.0226
B(  6-C ,  7-H ) :   0.9398 B(  6-C ,  8-H ) :   0.9437 B(  6-C ,  9-C ) :   1.0515
B(  9-C , 10-H ) :   0.9626 B(  9-C , 11-H ) :   0.9556 B(  9-C , 12-C ) :   1.0767
B( 12-C , 13-H ) :   0.9729 B( 12-C , 14-H ) :   0.9744 B( 12-C , 15-H ) :   0.9744
B( 16-S , 17-C ) :   1.1561 B( 16-S , 20-C ) :   1.1171 B( 17-C , 18-C ) :   1.6255
B( 17-C , 33-H ) :   0.9668 B( 18-C , 19-C ) :   1.2394 B( 18-C , 21-H ) :   0.9855
B( 19-C , 20-C ) :   1.6012 B( 19-C , 22-C ) :   1.0425 B( 22-C , 23-H ) :   0.9281
B( 22-C , 24-H ) :   0.9327 B( 22-C , 25-C ) :   1.0642 B( 25-C , 26-H ) :   0.9542
B( 25-C , 27-H ) :   0.9495 B( 25-C , 28-C ) :   1.0765 B( 28-C , 29-H ) :   0.9733
B( 28-C , 30-H ) :   0.9707 B( 28-C , 31-H ) :   0.9733

Dispersion correction           -0.013783409
FINAL SINGLE POINT ENERGY     -1339.880405507051

DIPOLE MOMENT
-------------
                                X             Y             Z
Electronic contribution:      2.62787      12.32962     -20.72419
Nuclear contribution   :     -2.59072     -12.66575      21.09203
                        -----------------------------------------
Total Dipole Moment    :      0.03715      -0.33613       0.36783
                        -----------------------------------------
Magnitude (a.u.)       :      0.49967
Magnitude (Debye)      :      1.27005

Rotational constants in cm-1:     0.017770     0.007721     0.006742
Rotational constants in MHz :   532.727961   231.479587   202.127227

                             ****ORCA TERMINATED NORMALLY****
TOTAL RUN TIME: 0 days 0 hours 0 minutes 21 seconds 59 msec
