                         Program Version 4.2.1 -  RELEASE  -
|  1> ! wB97X-D3 SP def2-SVP
|  2> %pal
|  3> nprocs 24
|  4> end
|  5>
|  6> * xyz 0 1
|  7> S 	 -85.4233 	 -4.5386 	 -65.4667
|  8> C 	 -86.1804 	 -3.24622 	 -66.3262
|  9> C 	 -86.0248 	 -2.00767 	 -65.7166
| 10> C 	 -85.3857 	 -2.13859 	 -64.4405
| 11> C 	 -85.0157 	 -3.45444 	 -64.1671
| 12> H 	 -85.0287 	 -1.39658 	 -63.7397
| 13> C 	 -86.5122 	 -0.632152 	 -66.152
| 14> H 	 -87.3304 	 -0.269687 	 -65.5041
| 15> H 	 -86.9293 	 -0.686913 	 -67.1196
| 16> C 	 -85.4756 	 0.50071 	 -66.1967
| 17> H 	 -86.0735 	 1.29861 	 -66.715
| 18> H 	 -85.2438 	 0.622905 	 -65.1334
| 19> C 	 -84.1724 	 0.398986 	 -67.0699
| 20> H 	 -84.4831 	 0.174544 	 -68.1088
| 21> H 	 -83.7081 	 1.3992 	 -67.2585
| 22> H 	 -83.4881 	 -0.320807 	 -66.7092
| 23> S 	 -82.8018 	 -4.2919 	 -62.9358
| 24> C 	 -82.749 	 -4.37895 	 -61.2173
| 25> C 	 -83.9307 	 -4.11122 	 -60.6276
| 26> C 	 -84.9393 	 -3.67076 	 -61.5801
| 27> C 	 -84.4476 	 -3.82709 	 -62.906
| 28> H 	 -83.9565 	 -4.22594 	 -59.5866
| 29> C 	 -86.4397 	 -3.34273 	 -61.2814
| 30> H 	 -86.6953 	 -4.05248 	 -60.4674
| 31> H 	 -86.977 	 -3.73199 	 -62.2364
| 32> C 	 -86.8764 	 -1.8985 	 -60.9155
| 33> H 	 -87.9446 	 -1.95416 	 -60.6324
| 34> H 	 -86.885 	 -1.27881 	 -61.7748
| 35> C 	 -86.0801 	 -1.36119 	 -59.7764
| 36> H 	 -85.9542 	 -2.00322 	 -58.8606
| 37> H 	 -86.5712 	 -0.516395 	 -59.3728
| 38> H 	 -85.1224 	 -0.965224 	 -60.098
| 39> H 	 -86.5797 	 -3.31912 	 -67.3454
| 40> H 	 -81.988 	 -4.79618 	 -60.5366
| 41> *
| 42>
| 43>                          ****END OF INPUT****

CARTESIAN COORDINATES (ANGSTROEM)
---------------------------------
  S    -85.423300   -4.538600  -65.466700
  C    -86.180400   -3.246220  -66.326200
  C    -86.024800   -2.007670  -65.716600
  C    -85.385700   -2.138590  -64.440500
  C    -85.015700   -3.454440  -64.167100
  H    -85.028700   -1.396580  -63.739700
  C    -86.512200   -0.632152  -66.152000
  H    -87.330400   -0.269687  -65.504100
  H    -86.929300   -0.686913  -67.119600
  C    -85.475600    0.500710  -66.196700
  H    -86.073500    1.298610  -66.715000
  H    -85.243800    0.622905  -65.133400
  C    -84.172400    0.398986  -67.069900
  H    -84.483100    0.174544  -68.108800
  H    -83.708100    1.399200  -67.258500
  H    -83.488100   -0.320807  -66.709200
  S    -82.801800   -4.291900  -62.935800
  C    -82.749000   -4.378950  -61.217300
  C    -83.930700   -4.111220  -60.627600
  C    -84.939300   -3.670760  -61.580100
  C    -84.447600   -3.827090  -62.906000
  H    -83.956500   -4.225940  -59.586600
  C    -86.439700   -3.342730  -61.281400
  H    -86.695300   -4.052480  -60.467400
  H    -86.977000   -3.731990  -62.236400
  C    -86.876400   -1.898500  -60.915500
  H    -87.944600   -1.954160  -60.632400
  H    -86.885000   -1.278810  -61.774800
  C    -86.080100   -1.361190  -59.776400
  H    -85.954200   -2.003220  -58.860600
  H    -86.571200   -0.516395  -59.372800
  H    -85.122400   -0.965224  -60.098000
  H    -86.579700   -3.319120  -67.345400
  H    -81.988000   -4.796180  -60.536600

 Total Charge           Charge          ....    0
 Multiplicity           Mult            ....    1
 Number of Electrons    NEL             ....  134
 Basis Dimension        Dim             ....  322

ORBITAL ENERGIES
----------------

  NO   OCC          E(Eh)            E(eV)
   0   2.0000     -88.970940     -2421.0224
   1   2.0000     -88.963558     -2420.8215
   2   2.0000     -10.323874      -280.9269
   3   2.0000     -10.319983      -280.8210
   4   2.0000     -10.315520      -280.6996
   5   2.0000     -10.309256      -280.5291
   6   2.0000     -10.308234      -280.5013
   7   2.0000     -10.302692      -280.3505
   8   2.0000     -10.299384      -280.2605
   9   2.0000     -10.293693      -280.1056
  10   2.0000     -10.292646      -280.0771
  11   2.0000     -10.290781      -280.0264
  12   2.0000     -10.286876      -279.9201
  13   2.0000     -10.284619      -279.8587
  14   2.0000     -10.280952      -279.7589
  15   2.0000     -10.273091      -279.5450
  16   2.0000      -8.085938      -220.0296
  17   2.0000      -8.079511      -219.8547
  18   2.0000      -6.044394      -164.4763
  19   2.0000      -6.040397      -164.3676
  20   2.0000      -6.037960      -164.3012
  21   2.0000      -6.036754      -164.2684
  22   2.0000      -6.033812      -164.1884
  23   2.0000      -6.030312      -164.0931
  24   2.0000      -1.010348       -27.4930
  25   2.0000      -0.986228       -26.8366
  26   2.0000      -0.909613       -24.7518
  27   2.0000      -0.904309       -24.6075
  28   2.0000      -0.874494       -23.7962
  29   2.0000      -0.848956       -23.1013
  30   2.0000      -0.844893       -22.9907
  31   2.0000      -0.814310       -22.1585
  32   2.0000      -0.787066       -21.4172
  33   2.0000      -0.769861       -20.9490
  34   2.0000      -0.711036       -19.3483
  35   2.0000      -0.693402       -18.8684
  36   2.0000      -0.687235       -18.7006
  37   2.0000      -0.654837       -17.8190
  38   2.0000      -0.639920       -17.4131
  39   2.0000      -0.623108       -16.9556
  40   2.0000      -0.580487       -15.7959
  41   2.0000      -0.571245       -15.5444
  42   2.0000      -0.554001       -15.0751
  43   2.0000      -0.548481       -14.9249
  44   2.0000      -0.544862       -14.8265
  45   2.0000      -0.538387       -14.6502
  46   2.0000      -0.514576       -14.0023
  47   2.0000      -0.505171       -13.7464
  48   2.0000      -0.499141       -13.5823
  49   2.0000      -0.494795       -13.4641
  50   2.0000      -0.488691       -13.2980
  51   2.0000      -0.479160       -13.0386
  52   2.0000      -0.472514       -12.8578
  53   2.0000      -0.467182       -12.7127
  54   2.0000      -0.463557       -12.6140
  55   2.0000      -0.447101       -12.1662
  56   2.0000      -0.443604       -12.0711
  57   2.0000      -0.439188       -11.9509
  58   2.0000      -0.432034       -11.7562
  59   2.0000      -0.424422       -11.5491
  60   2.0000      -0.422255       -11.4901
  61   2.0000      -0.410632       -11.1739
  62   2.0000      -0.403347       -10.9756
  63   2.0000      -0.342845        -9.3293
  64   2.0000      -0.332206        -9.0398
  65   2.0000      -0.322242        -8.7687
  66   2.0000      -0.299513        -8.1502
  67   0.0000       0.037529         1.0212
  68   0.0000       0.068387         1.8609
  69   0.0000       0.112635         3.0650
  70   0.0000       0.123081         3.3492
  71   0.0000       0.126100         3.4314

MULLIKEN ATOMIC CHARGES
-----------------------
   0 S :    0.135684
   1 C :   -0.124774
   2 C :   -0.076972
   3 C :    0.020813
   4 C :   -0.177160
   5 H :    0.024437
   6 C :    0.100541
   7 H :    0.045439
   8 H :   -0.009911
   9 C :   -0.124668
  10 H :    0.040646
  11 H :    0.037512
  12 C :   -0.044400
  13 H :    0.018837
  14 H :    0.041073
  15 H :    0.046091
  16 S :    0.122003
  17 C :   -0.087169
  18 C :   -0.034170
  19 C :   -0.015039
  20 C :   -0.194721
  21 H :   -0.002630
  22 C :   -0.007323
  23 H :    0.033746
  24 H :    0.053438
  25 C :   -0.016242
  26 H :    0.029908
  27 H :    0.015978
  28 C :   -0.040142
  29 H :    0.034066
  30 H :    0.012977
  31 H :    0.033853
  32 H :    0.052205
  33 H :    0.056072
Sum of atomic charges:    0.0000000

LOEWDIN ATOMIC CHARGES
----------------------
   0 S :    0.424869
   1 C :   -0.209785
   2 C :   -0.065058
   3 C :   -0.056441
   4 C :   -0.210595
   5 H :    0.032723
   6 C :   -0.032708
   7 H :    0.040382
   8 H :    0.016530
   9 C :   -0.043221
  10 H :    0.034988
  11 H :    0.020675
  12 C :   -0.068454
  13 H :    0.026290
  14 H :    0.034576
  15 H :    0.020524
  16 S :    0.433478
  17 C :   -0.205581
  18 C :   -0.070254
  19 C :   -0.053054
  20 C :   -0.219252
  21 H :    0.023847
  22 C :   -0.039467
  23 H :    0.031803
  24 H :    0.042976
  25 C :   -0.039698
  26 H :    0.030365
  27 H :    0.018909
  28 C :   -0.069328
  29 H :    0.031642
  30 H :    0.020934
  31 H :    0.026744
  32 H :    0.032444
  33 H :    0.038200

  Mayer bond orders larger than 0.100000
B(  0-S ,  1-C ) :   1.1446 B(  0-S ,  4-C ) :   1.1531 B(  1-C ,  2-C ) :   1.6212
B(  1-C , 32-H ) :   0.9585 B(  2-C ,  3-C ) :   1.2189 B(  2-C ,  6-C ) :   1.0273
B(  3-C ,  4-C ) :   1.5824 B(  3-C ,  5-H ) :   0.9910 B(  4-C , 20-C ) :   1.0254
B(  6-C ,  7-H ) :   0.9413 B(  6-C ,  8-H ) :   0.9306 B(  6-C ,  9-C ) :   1.0659
B(  9-C , 10-H ) :   0.9578 B(  9-C , 11-H ) :   0.9593 B(  9-C , 12-C ) :   1.0734
B( 12-C , 13-H ) :   0.9720 B( 12-C , 14-H ) :   0.9752 B( 12-C , 15-H ) :   0.9767
B( 16-S , 17-C ) :   1.1444 B( 16-S , 20-C ) :   1.1669 B( 17-C , 18-C ) :   1.6584
B( 17-C , 33-H ) :   0.9555 B( 18-C , 19-C ) :   1.2120 B( 18-C , 21-H ) :   0.9957
B( 19-C , 20-C ) :   1.5837 B( 19-C , 22-C ) :   1.0134 B( 22-C , 23-H ) :   0.9462
B( 22-C , 24-H ) :   0.9423 B( 22-C , 25-C ) :   1.0702 B( 25-C , 26-H ) :   0.9518
B( 25-C , 27-H ) :   0.9499 B( 25-C , 28-C ) :   1.0852 B( 28-C , 29-H ) :   0.9742
B( 28-C , 30-H ) :   0.9673 B( 28-C , 31-H ) :   0.9688

Dispersion correction           -0.015086818
FINAL SINGLE POINT ENERGY     -1339.867912331128

DIPOLE MOMENT
-------------
                                X             Y             Z
Electronic contribution:      9.69680     -22.91117      -3.95840
Nuclear contribution   :    -10.00044      23.40559       4.12393
                        -----------------------------------------
Total Dipole Moment    :     -0.30364       0.49441       0.16553
                        -----------------------------------------
Magnitude (a.u.)       :      0.60336
Magnitude (Debye)      :      1.53362

Rotational constants in cm-1:     0.017569     0.009278     0.007763
Rotational constants in MHz :   526.707406   278.155065   232.738693

                             ****ORCA TERMINATED NORMALLY****
TOTAL RUN TIME: 0 days 0 hours 0 minutes 22 seconds 165 msec
