                         Program Version 4.2.1 -  RELEASE  -
|  1> ! wB97X-D3 SP def2-SVP
|  2> %pal
|  3> nprocs 24
|  4> end
|  5>
|  6> * xyz 0 1
|  7> S 	 -91.8418 	 -31.3033 	 -70.9898
|  8> C 	 -90.7224 	 -32.7072 	 -71.1213
|  9> C 	 -89.6246 	 -32.3652 	 -71.9293
| 10> C 	 -89.7782 	 -31.0851 	 -72.5176
| 11> C 	 -90.9642 	 -30.4331 	 -72.2037
| 12> H 	 -89.0425 	 -30.5838 	 -73.2104
| 13> C 	 -88.4413 	 -33.286 	 -72.1562
| 14> H 	 -88.1087 	 -33.6343 	 -71.1728
| 15> H 	 -87.7189 	 -32.5867 	 -72.5256
| 16> C 	 -88.5884 	 -34.5048 	 -73.1737
| 17> H 	 -87.6422 	 -34.9211 	 -73.4161
| 18> H 	 -89.133 	 -35.343 	 -72.7557
| 19> C 	 -89.3663 	 -34.1408 	 -74.4653
| 20> H 	 -89.6181 	 -35.0937 	 -75.0267
| 21> H 	 -90.39 	 -33.7531 	 -74.1891
| 22> H 	 -88.7283 	 -33.4925 	 -75.1044
| 23> S 	 -90.7527 	 -27.8714 	 -71.3226
| 24> C 	 -91.2589 	 -26.5718 	 -72.3373
| 25> C 	 -91.4946 	 -27.0488 	 -73.634
| 26> C 	 -91.5869 	 -28.4593 	 -73.6967
| 27> C 	 -91.3406 	 -29.0602 	 -72.4949
| 28> H 	 -91.7392 	 -26.2488 	 -74.3103
| 29> C 	 -91.9931 	 -29.1478 	 -75.0048
| 30> H 	 -93.0668 	 -28.8549 	 -75.0246
| 31> H 	 -91.9465 	 -30.2541 	 -75.04
| 32> C 	 -91.3394 	 -28.5943 	 -76.2558
| 33> H 	 -90.2824 	 -28.4646 	 -76.0284
| 34> H 	 -91.6733 	 -27.6044 	 -76.5207
| 35> C 	 -91.3128 	 -29.5377 	 -77.5463
| 36> H 	 -90.8621 	 -30.5382 	 -77.3108
| 37> H 	 -90.5525 	 -29.0886 	 -78.1767
| 38> H 	 -92.2743 	 -29.7076 	 -78.0788
| 39> H 	 -90.8951 	 -33.6494 	 -70.5979
| 40> H 	 -91.2327 	 -25.5082 	 -72.1017
| 41> *
| 42>
| 43>                          ****END OF INPUT****

CARTESIAN COORDINATES (ANGSTROEM)
---------------------------------
  S    -91.841800  -31.303300  -70.989800
  C    -90.722400  -32.707200  -71.121300
  C    -89.624600  -32.365200  -71.929300
  C    -89.778200  -31.085100  -72.517600
  C    -90.964200  -30.433100  -72.203700
  H    -89.042500  -30.583800  -73.210400
  C    -88.441300  -33.286000  -72.156200
  H    -88.108700  -33.634300  -71.172800
  H    -87.718900  -32.586700  -72.525600
  C    -88.588400  -34.504800  -73.173700
  H    -87.642200  -34.921100  -73.416100
  H    -89.133000  -35.343000  -72.755700
  C    -89.366300  -34.140800  -74.465300
  H    -89.618100  -35.093700  -75.026700
  H    -90.390000  -33.753100  -74.189100
  H    -88.728300  -33.492500  -75.104400
  S    -90.752700  -27.871400  -71.322600
  C    -91.258900  -26.571800  -72.337300
  C    -91.494600  -27.048800  -73.634000
  C    -91.586900  -28.459300  -73.696700
  C    -91.340600  -29.060200  -72.494900
  H    -91.739200  -26.248800  -74.310300
  C    -91.993100  -29.147800  -75.004800
  H    -93.066800  -28.854900  -75.024600
  H    -91.946500  -30.254100  -75.040000
  C    -91.339400  -28.594300  -76.255800
  H    -90.282400  -28.464600  -76.028400
  H    -91.673300  -27.604400  -76.520700
  C    -91.312800  -29.537700  -77.546300
  H    -90.862100  -30.538200  -77.310800
  H    -90.552500  -29.088600  -78.176700
  H    -92.274300  -29.707600  -78.078800
  H    -90.895100  -33.649400  -70.597900
  H    -91.232700  -25.508200  -72.101700

 Total Charge           Charge          ....    0
 Multiplicity           Mult            ....    1
 Number of Electrons    NEL             ....  134
 Basis Dimension        Dim             ....  322

ORBITAL ENERGIES
----------------

  NO   OCC          E(Eh)            E(eV)
   0   2.0000     -88.963767     -2420.8272
   1   2.0000     -88.961799     -2420.7736
   2   2.0000     -10.325312      -280.9660
   3   2.0000     -10.319646      -280.8119
   4   2.0000     -10.318906      -280.7917
   5   2.0000     -10.318061      -280.7687
   6   2.0000     -10.305992      -280.4403
   7   2.0000     -10.303379      -280.3692
   8   2.0000     -10.298143      -280.2267
   9   2.0000     -10.294607      -280.1305
  10   2.0000     -10.294305      -280.1223
  11   2.0000     -10.292145      -280.0635
  12   2.0000     -10.288789      -279.9722
  13   2.0000     -10.288562      -279.9660
  14   2.0000     -10.287959      -279.9496
  15   2.0000     -10.286541      -279.9110
  16   2.0000      -8.078077      -219.8156
  17   2.0000      -8.076910      -219.7839
  18   2.0000      -6.036464      -164.2605
  19   2.0000      -6.035395      -164.2314
  20   2.0000      -6.032535      -164.1536
  21   2.0000      -6.031465      -164.1245
  22   2.0000      -6.029094      -164.0600
  23   2.0000      -6.027543      -164.0178
  24   2.0000      -1.006933       -27.4001
  25   2.0000      -0.981274       -26.7018
  26   2.0000      -0.905781       -24.6476
  27   2.0000      -0.904068       -24.6009
  28   2.0000      -0.864381       -23.5210
  29   2.0000      -0.846732       -23.0408
  30   2.0000      -0.841891       -22.9090
  31   2.0000      -0.808489       -22.0001
  32   2.0000      -0.781871       -21.2758
  33   2.0000      -0.771143       -20.9839
  34   2.0000      -0.702470       -19.1152
  35   2.0000      -0.701242       -19.0818
  36   2.0000      -0.695527       -18.9263
  37   2.0000      -0.654025       -17.7969
  38   2.0000      -0.636603       -17.3229
  39   2.0000      -0.611777       -16.6473
  40   2.0000      -0.594143       -16.1675
  41   2.0000      -0.566846       -15.4247
  42   2.0000      -0.562421       -15.3043
  43   2.0000      -0.549336       -14.9482
  44   2.0000      -0.540644       -14.7117
  45   2.0000      -0.524320       -14.2675
  46   2.0000      -0.515896       -14.0383
  47   2.0000      -0.511700       -13.9241
  48   2.0000      -0.503803       -13.7092
  49   2.0000      -0.490379       -13.3439
  50   2.0000      -0.481046       -13.0899
  51   2.0000      -0.475882       -12.9494
  52   2.0000      -0.467833       -12.7304
  53   2.0000      -0.462820       -12.5940
  54   2.0000      -0.456049       -12.4097
  55   2.0000      -0.445322       -12.1178
  56   2.0000      -0.442158       -12.0317
  57   2.0000      -0.434219       -11.8157
  58   2.0000      -0.429231       -11.6800
  59   2.0000      -0.426222       -11.5981
  60   2.0000      -0.423818       -11.5327
  61   2.0000      -0.414031       -11.2664
  62   2.0000      -0.411628       -11.2010
  63   2.0000      -0.335766        -9.1366
  64   2.0000      -0.325400        -8.8546
  65   2.0000      -0.323429        -8.8010
  66   2.0000      -0.304421        -8.2837
  67   0.0000       0.035688         0.9711
  68   0.0000       0.053284         1.4499
  69   0.0000       0.108307         2.9472
  70   0.0000       0.117388         3.1943
  71   0.0000       0.130088         3.5399

MULLIKEN ATOMIC CHARGES
-----------------------
   0 S :    0.103725
   1 C :   -0.130446
   2 C :   -0.124662
   3 C :    0.030777
   4 C :   -0.190443
   5 H :    0.032684
   6 C :    0.095609
   7 H :    0.037324
   8 H :    0.014159
   9 C :   -0.044703
  10 H :    0.023874
  11 H :    0.021480
  12 C :   -0.106463
  13 H :    0.038722
  14 H :    0.060328
  15 H :    0.042755
  16 S :    0.110804
  17 C :   -0.096990
  18 C :   -0.059378
  19 C :   -0.010724
  20 C :   -0.152969
  21 H :    0.018812
  22 C :    0.089007
  23 H :    0.044766
  24 H :    0.035488
  25 C :   -0.107961
  26 H :    0.026915
  27 H :    0.028975
  28 C :   -0.069807
  29 H :    0.035038
  30 H :    0.033669
  31 H :    0.052256
  32 H :    0.056094
  33 H :    0.061283
Sum of atomic charges:    0.0000000

LOEWDIN ATOMIC CHARGES
----------------------
   0 S :    0.401726
   1 C :   -0.185030
   2 C :   -0.067479
   3 C :   -0.067984
   4 C :   -0.208800
   5 H :    0.041293
   6 C :   -0.028842
   7 H :    0.034647
   8 H :    0.027352
   9 C :   -0.036047
  10 H :    0.019167
  11 H :    0.021293
  12 C :   -0.076556
  13 H :    0.030969
  14 H :    0.034750
  15 H :    0.024818
  16 S :    0.410078
  17 C :   -0.184387
  18 C :   -0.080025
  19 C :   -0.048773
  20 C :   -0.210726
  21 H :    0.030482
  22 C :   -0.034756
  23 H :    0.042706
  24 H :    0.033977
  25 C :   -0.043593
  26 H :    0.024954
  27 H :    0.019656
  28 C :   -0.070066
  29 H :    0.029005
  30 H :    0.027337
  31 H :    0.027715
  32 H :    0.029094
  33 H :    0.032046

  Mayer bond orders larger than 0.100000
B(  0-S ,  1-C ) :   1.1469 B(  0-S ,  4-C ) :   1.1673 B(  1-C ,  2-C ) :   1.5701
B(  1-C ,  4-C ) :   0.1080 B(  1-C , 32-H ) :   0.9762 B(  2-C ,  3-C ) :   1.2606
B(  2-C ,  6-C ) :   1.0131 B(  3-C ,  4-C ) :   1.5672 B(  3-C ,  5-H ) :   0.9843
B(  4-C , 20-C ) :   1.0021 B(  6-C ,  7-H ) :   0.9433 B(  6-C ,  8-H ) :   0.9391
B(  6-C ,  9-C ) :   1.0520 B(  9-C , 10-H ) :   0.9594 B(  9-C , 11-H ) :   0.9592
B(  9-C , 12-C ) :   1.0821 B( 12-C , 13-H ) :   0.9747 B( 12-C , 14-H ) :   0.9672
B( 12-C , 15-H ) :   0.9787 B( 16-S , 17-C ) :   1.1762 B( 16-S , 20-C ) :   1.1371
B( 17-C , 18-C ) :   1.6071 B( 17-C , 33-H ) :   0.9658 B( 18-C , 19-C ) :   1.2229
B( 18-C , 21-H ) :   0.9959 B( 19-C , 20-C ) :   1.6166 B( 19-C , 22-C ) :   1.0274
B( 22-C , 23-H ) :   0.9310 B( 22-C , 24-H ) :   0.9455 B( 22-C , 25-C ) :   1.0570
B( 25-C , 26-H ) :   0.9636 B( 25-C , 27-H ) :   0.9487 B( 25-C , 28-C ) :   1.0805
B( 28-C , 29-H ) :   0.9736 B( 28-C , 30-H ) :   0.9762 B( 28-C , 31-H ) :   0.9778

Dispersion correction           -0.014315585
FINAL SINGLE POINT ENERGY     -1339.868026670032

DIPOLE MOMENT
-------------
                                X             Y             Z
Electronic contribution:     -7.35685      12.92817      25.36851
Nuclear contribution   :      7.69988     -13.02131     -25.92089
                        -----------------------------------------
Total Dipole Moment    :      0.34303      -0.09314      -0.55237
                        -----------------------------------------
Magnitude (a.u.)       :      0.65686
Magnitude (Debye)      :      1.66960

Rotational constants in cm-1:     0.016591     0.009544     0.006829
Rotational constants in MHz :   497.377973   286.106960   204.729954

                             ****ORCA TERMINATED NORMALLY****
TOTAL RUN TIME: 0 days 0 hours 0 minutes 21 seconds 643 msec
