                         Program Version 4.2.1 -  RELEASE  -
|  1> ! wB97X-D3 SP def2-SVP
|  2> %pal
|  3> nprocs 24
|  4> end
|  5>
|  6> * xyz 0 1
|  7> S 	 39.1287 	 -33.1934 	 -121.65
|  8> C 	 39.3759 	 -31.5392 	 -122.098
|  9> C 	 40.4327 	 -30.9155 	 -121.435
| 10> C 	 41.1556 	 -31.8312 	 -120.658
| 11> C 	 40.5258 	 -33.1177 	 -120.539
| 12> H 	 42.0061 	 -31.6071 	 -120.066
| 13> C 	 40.8534 	 -29.4855 	 -121.689
| 14> H 	 40.4691 	 -29.0417 	 -122.602
| 15> H 	 41.9409 	 -29.3952 	 -121.671
| 16> C 	 40.3591 	 -28.5153 	 -120.646
| 17> H 	 40.7529 	 -27.5499 	 -120.918
| 18> H 	 39.2809 	 -28.2928 	 -120.658
| 19> C 	 40.6752 	 -28.7875 	 -119.174
| 20> H 	 40.0422 	 -28.1621 	 -118.573
| 21> H 	 40.2936 	 -29.7893 	 -118.921
| 22> H 	 41.7393 	 -28.6443 	 -118.877
| 23> S 	 42.4258 	 -35.0073 	 -120.108
| 24> C 	 42.237 	 -36.0055 	 -118.736
| 25> C 	 40.9845 	 -35.9544 	 -118.193
| 26> C 	 40.144 	 -34.9163 	 -118.737
| 27> C 	 40.8802 	 -34.2343 	 -119.691
| 28> H 	 40.7461 	 -36.556 	 -117.292
| 29> C 	 38.7767 	 -34.5018 	 -118.221
| 30> H 	 38.5965 	 -33.4421 	 -118.197
| 31> H 	 38.7328 	 -34.8535 	 -117.201
| 32> C 	 37.5206 	 -35.0244 	 -119.029
| 33> H 	 37.5239 	 -34.5696 	 -119.998
| 34> H 	 36.7145 	 -34.6444 	 -118.455
| 35> C 	 37.5069 	 -36.6001 	 -119.126
| 36> H 	 38.2518 	 -37.0055 	 -119.824
| 37> H 	 36.4955 	 -36.8649 	 -119.42
| 38> H 	 37.6764 	 -37.2136 	 -118.199
| 39> H 	 38.7381 	 -30.8583 	 -122.702
| 40> H 	 42.9744 	 -36.5274 	 -118.146
| 41> *
| 42>
| 43>                          ****END OF INPUT****

CARTESIAN COORDINATES (ANGSTROEM)
---------------------------------
  S     39.128700  -33.193400  -121.650000
  C     39.375900  -31.539200  -122.098000
  C     40.432700  -30.915500  -121.435000
  C     41.155600  -31.831200  -120.658000
  C     40.525800  -33.117700  -120.539000
  H     42.006100  -31.607100  -120.066000
  C     40.853400  -29.485500  -121.689000
  H     40.469100  -29.041700  -122.602000
  H     41.940900  -29.395200  -121.671000
  C     40.359100  -28.515300  -120.646000
  H     40.752900  -27.549900  -120.918000
  H     39.280900  -28.292800  -120.658000
  C     40.675200  -28.787500  -119.174000
  H     40.042200  -28.162100  -118.573000
  H     40.293600  -29.789300  -118.921000
  H     41.739300  -28.644300  -118.877000
  S     42.425800  -35.007300  -120.108000
  C     42.237000  -36.005500  -118.736000
  C     40.984500  -35.954400  -118.193000
  C     40.144000  -34.916300  -118.737000
  C     40.880200  -34.234300  -119.691000
  H     40.746100  -36.556000  -117.292000
  C     38.776700  -34.501800  -118.221000
  H     38.596500  -33.442100  -118.197000
  H     38.732800  -34.853500  -117.201000
  C     37.520600  -35.024400  -119.029000
  H     37.523900  -34.569600  -119.998000
  H     36.714500  -34.644400  -118.455000
  C     37.506900  -36.600100  -119.126000
  H     38.251800  -37.005500  -119.824000
  H     36.495500  -36.864900  -119.420000
  H     37.676400  -37.213600  -118.199000
  H     38.738100  -30.858300  -122.702000
  H     42.974400  -36.527400  -118.146000

 Total Charge           Charge          ....    0
 Multiplicity           Mult            ....    1
 Number of Electrons    NEL             ....  134
 Basis Dimension        Dim             ....  322

ORBITAL ENERGIES
----------------

  NO   OCC          E(Eh)            E(eV)
   0   2.0000     -88.972974     -2421.0777
   1   2.0000     -88.964410     -2420.8447
   2   2.0000     -10.332564      -281.1633
   3   2.0000     -10.322839      -280.8987
   4   2.0000     -10.315930      -280.7107
   5   2.0000     -10.308460      -280.5075
   6   2.0000     -10.304656      -280.4039
   7   2.0000     -10.298889      -280.2470
   8   2.0000     -10.297334      -280.2047
   9   2.0000     -10.292817      -280.0818
  10   2.0000     -10.292468      -280.0723
  11   2.0000     -10.289512      -279.9919
  12   2.0000     -10.285084      -279.8714
  13   2.0000     -10.281593      -279.7764
  14   2.0000     -10.278735      -279.6986
  15   2.0000     -10.275257      -279.6040
  16   2.0000      -8.086436      -220.0431
  17   2.0000      -8.079559      -219.8560
  18   2.0000      -6.044824      -164.4880
  19   2.0000      -6.040982      -164.3835
  20   2.0000      -6.037984      -164.3019
  21   2.0000      -6.037539      -164.2898
  22   2.0000      -6.034197      -164.1989
  23   2.0000      -6.030188      -164.0898
  24   2.0000      -1.004371       -27.3303
  25   2.0000      -0.983220       -26.7548
  26   2.0000      -0.915660       -24.9164
  27   2.0000      -0.901163       -24.5219
  28   2.0000      -0.865928       -23.5631
  29   2.0000      -0.848789       -23.0967
  30   2.0000      -0.843871       -22.9629
  31   2.0000      -0.810489       -22.0545
  32   2.0000      -0.786852       -21.4113
  33   2.0000      -0.773143       -21.0383
  34   2.0000      -0.710271       -19.3275
  35   2.0000      -0.695716       -18.9314
  36   2.0000      -0.691761       -18.8238
  37   2.0000      -0.656613       -17.8673
  38   2.0000      -0.635430       -17.2909
  39   2.0000      -0.611581       -16.6420
  40   2.0000      -0.593285       -16.1441
  41   2.0000      -0.574460       -15.6319
  42   2.0000      -0.551032       -14.9943
  43   2.0000      -0.547459       -14.8971
  44   2.0000      -0.542786       -14.7700
  45   2.0000      -0.534326       -14.5398
  46   2.0000      -0.514399       -13.9975
  47   2.0000      -0.510731       -13.8977
  48   2.0000      -0.497640       -13.5415
  49   2.0000      -0.492768       -13.4089
  50   2.0000      -0.483812       -13.1652
  51   2.0000      -0.479257       -13.0412
  52   2.0000      -0.471963       -12.8428
  53   2.0000      -0.464996       -12.6532
  54   2.0000      -0.459861       -12.5135
  55   2.0000      -0.447230       -12.1697
  56   2.0000      -0.443104       -12.0575
  57   2.0000      -0.435802       -11.8588
  58   2.0000      -0.434806       -11.8317
  59   2.0000      -0.426088       -11.5944
  60   2.0000      -0.423759       -11.5311
  61   2.0000      -0.411974       -11.2104
  62   2.0000      -0.410967       -11.1830
  63   2.0000      -0.339006        -9.2248
  64   2.0000      -0.330415        -8.9911
  65   2.0000      -0.325438        -8.8556
  66   2.0000      -0.294507        -8.0139
  67   0.0000       0.025064         0.6820
  68   0.0000       0.066611         1.8126
  69   0.0000       0.104475         2.8429
  70   0.0000       0.116292         3.1645
  71   0.0000       0.123359         3.3568

MULLIKEN ATOMIC CHARGES
-----------------------
   0 S :    0.131011
   1 C :   -0.107434
   2 C :   -0.109315
   3 C :    0.064613
   4 C :   -0.186193
   5 H :    0.002812
   6 C :    0.107328
   7 H :    0.021446
   8 H :    0.029610
   9 C :   -0.097328
  10 H :    0.014712
  11 H :    0.020155
  12 C :   -0.055625
  13 H :    0.021183
  14 H :    0.038909
  15 H :    0.040930
  16 S :    0.123753
  17 C :   -0.070071
  18 C :   -0.072380
  19 C :   -0.005600
  20 C :   -0.192992
  21 H :    0.027210
  22 C :    0.059100
  23 H :    0.032637
  24 H :    0.016092
  25 C :   -0.040026
  26 H :    0.030974
  27 H :    0.024816
  28 C :   -0.081381
  29 H :    0.050068
  30 H :    0.030917
  31 H :    0.028911
  32 H :    0.050805
  33 H :    0.050352
Sum of atomic charges:   -0.0000000

LOEWDIN ATOMIC CHARGES
----------------------
   0 S :    0.426982
   1 C :   -0.210111
   2 C :   -0.069729
   3 C :   -0.045647
   4 C :   -0.195497
   5 H :    0.026156
   6 C :   -0.027579
   7 H :    0.033860
   8 H :    0.034549
   9 C :   -0.047085
  10 H :    0.019425
  11 H :    0.023918
  12 C :   -0.070854
  13 H :    0.024205
  14 H :    0.028270
  15 H :    0.026428
  16 S :    0.410789
  17 C :   -0.203113
  18 C :   -0.075209
  19 C :   -0.051574
  20 C :   -0.195271
  21 H :    0.034357
  22 C :   -0.029197
  23 H :    0.031357
  24 H :    0.027479
  25 C :   -0.025378
  26 H :    0.007165
  27 H :    0.020286
  28 C :   -0.076741
  29 H :    0.029491
  30 H :    0.023933
  31 H :    0.027185
  32 H :    0.035405
  33 H :    0.031743

  Mayer bond orders larger than 0.100000
B(  0-S ,  1-C ) :   1.1595 B(  0-S ,  4-C ) :   1.1474 B(  1-C ,  2-C ) :   1.5975
B(  1-C ,  4-C ) :   0.1068 B(  1-C , 32-H ) :   0.9519 B(  2-C ,  3-C ) :   1.2752
B(  2-C ,  6-C ) :   1.0238 B(  3-C ,  4-C ) :   1.5259 B(  3-C ,  5-H ) :   0.9941
B(  4-C , 20-C ) :   1.0540 B(  6-C ,  7-H ) :   0.9382 B(  6-C ,  8-H ) :   0.9415
B(  6-C ,  9-C ) :   1.0734 B(  9-C , 10-H ) :   0.9523 B(  9-C , 11-H ) :   0.9547
B(  9-C , 12-C ) :   1.0884 B( 12-C , 13-H ) :   0.9710 B( 12-C , 14-H ) :   0.9666
B( 12-C , 15-H ) :   0.9759 B( 16-S , 17-C ) :   1.1403 B( 16-S , 20-C ) :   1.1369
B( 17-C , 18-C ) :   1.6521 B( 17-C , 33-H ) :   0.9603 B( 18-C , 19-C ) :   1.2136
B( 18-C , 21-H ) :   0.9770 B( 19-C , 20-C ) :   1.6010 B( 19-C , 22-C ) :   1.0416
B( 22-C , 23-H ) :   0.9391 B( 22-C , 24-H ) :   0.9350 B( 22-C , 25-C ) :   1.0715
B( 25-C , 26-H ) :   0.9490 B( 25-C , 27-H ) :   0.9582 B( 25-C , 28-C ) :   1.0630
B( 28-C , 29-H ) :   0.9753 B( 28-C , 30-H ) :   0.9769 B( 28-C , 31-H ) :   0.9787

Dispersion correction           -0.015310162
FINAL SINGLE POINT ENERGY     -1339.872324353631

DIPOLE MOMENT
-------------
                                X             Y             Z
Electronic contribution:     10.47037     -11.70606      -9.05890
Nuclear contribution   :    -10.66145      12.16265       9.40885
                        -----------------------------------------
Total Dipole Moment    :     -0.19108       0.45659       0.34996
                        -----------------------------------------
Magnitude (a.u.)       :      0.60618
Magnitude (Debye)      :      1.54078

Rotational constants in cm-1:     0.020617     0.008609     0.007522
Rotational constants in MHz :   618.079181   258.082828   225.501306

                             ****ORCA TERMINATED NORMALLY****
TOTAL RUN TIME: 0 days 0 hours 0 minutes 22 seconds 130 msec
