                         Program Version 4.2.1 -  RELEASE  -
|  1> ! wB97X-D3 SP def2-SVP
|  2> %pal
|  3> nprocs 24
|  4> end
|  5>
|  6> * xyz 0 1
|  7> S 	 39.674 	 -23.1811 	 -121.301
|  8> C 	 38.0654 	 -22.6869 	 -121.875
|  9> C 	 37.4211 	 -23.7018 	 -122.591
| 10> C 	 38.2518 	 -24.918 	 -122.602
| 11> C 	 39.5253 	 -24.7928 	 -122.111
| 12> H 	 37.9134 	 -25.9105 	 -122.925
| 13> C 	 36.0747 	 -23.6579 	 -123.242
| 14> H 	 35.3557 	 -23.0446 	 -122.647
| 15> H 	 35.6547 	 -24.6686 	 -123.084
| 16> C 	 35.9441 	 -23.3091 	 -124.707
| 17> H 	 36.5389 	 -23.9258 	 -125.347
| 18> H 	 34.9263 	 -23.5897 	 -125.023
| 19> C 	 36.3837 	 -21.869 	 -124.931
| 20> H 	 37.4222 	 -21.7463 	 -124.854
| 21> H 	 36.0132 	 -21.3951 	 -125.939
| 22> H 	 35.9224 	 -21.2605 	 -124.178
| 23> S 	 42.1562 	 -25.2688 	 -122.69
| 24> C 	 42.806 	 -26.887 	 -122.497
| 25> C 	 41.8294 	 -27.669 	 -121.912
| 26> C 	 40.57 	 -27.0575 	 -121.715
| 27> C 	 40.6198 	 -25.7248 	 -122.064
| 28> H 	 42.0958 	 -28.7437 	 -121.725
| 29> C 	 39.3883 	 -27.8785 	 -121.122
| 30> H 	 38.7729 	 -27.1258 	 -120.557
| 31> H 	 39.8451 	 -28.4428 	 -120.389
| 32> C 	 38.5564 	 -28.7363 	 -122.098
| 33> H 	 38.2573 	 -28.3196 	 -123.051
| 34> H 	 37.6113 	 -28.915 	 -121.603
| 35> C 	 39.2551 	 -30.0427 	 -122.44
| 36> H 	 40.2361 	 -29.8882 	 -122.811
| 37> H 	 38.6826 	 -30.4986 	 -123.264
| 38> H 	 39.3443 	 -30.732 	 -121.698
| 39> H 	 37.4685 	 -21.7895 	 -121.853
| 40> H 	 43.6934 	 -27.312 	 -122.819
| 41> *
| 42>
| 43>                          ****END OF INPUT****

CARTESIAN COORDINATES (ANGSTROEM)
---------------------------------
  S     39.674000  -23.181100  -121.301000
  C     38.065400  -22.686900  -121.875000
  C     37.421100  -23.701800  -122.591000
  C     38.251800  -24.918000  -122.602000
  C     39.525300  -24.792800  -122.111000
  H     37.913400  -25.910500  -122.925000
  C     36.074700  -23.657900  -123.242000
  H     35.355700  -23.044600  -122.647000
  H     35.654700  -24.668600  -123.084000
  C     35.944100  -23.309100  -124.707000
  H     36.538900  -23.925800  -125.347000
  H     34.926300  -23.589700  -125.023000
  C     36.383700  -21.869000  -124.931000
  H     37.422200  -21.746300  -124.854000
  H     36.013200  -21.395100  -125.939000
  H     35.922400  -21.260500  -124.178000
  S     42.156200  -25.268800  -122.690000
  C     42.806000  -26.887000  -122.497000
  C     41.829400  -27.669000  -121.912000
  C     40.570000  -27.057500  -121.715000
  C     40.619800  -25.724800  -122.064000
  H     42.095800  -28.743700  -121.725000
  C     39.388300  -27.878500  -121.122000
  H     38.772900  -27.125800  -120.557000
  H     39.845100  -28.442800  -120.389000
  C     38.556400  -28.736300  -122.098000
  H     38.257300  -28.319600  -123.051000
  H     37.611300  -28.915000  -121.603000
  C     39.255100  -30.042700  -122.440000
  H     40.236100  -29.888200  -122.811000
  H     38.682600  -30.498600  -123.264000
  H     39.344300  -30.732000  -121.698000
  H     37.468500  -21.789500  -121.853000
  H     43.693400  -27.312000  -122.819000

 Total Charge           Charge          ....    0
 Multiplicity           Mult            ....    1
 Number of Electrons    NEL             ....  134
 Basis Dimension        Dim             ....  322

ORBITAL ENERGIES
----------------

  NO   OCC          E(Eh)            E(eV)
   0   2.0000     -88.968867     -2420.9659
   1   2.0000     -88.966842     -2420.9108
   2   2.0000     -10.331828      -281.1433
   3   2.0000     -10.324699      -280.9493
   4   2.0000     -10.316746      -280.7329
   5   2.0000     -10.314016      -280.6586
   6   2.0000     -10.304481      -280.3992
   7   2.0000     -10.302491      -280.3450
   8   2.0000     -10.298398      -280.2337
   9   2.0000     -10.295377      -280.1515
  10   2.0000     -10.295005      -280.1413
  11   2.0000     -10.294302      -280.1222
  12   2.0000     -10.289254      -279.9848
  13   2.0000     -10.285464      -279.8817
  14   2.0000     -10.277386      -279.6619
  15   2.0000     -10.268095      -279.4091
  16   2.0000      -8.083814      -219.9718
  17   2.0000      -8.079928      -219.8660
  18   2.0000      -6.042372      -164.4213
  19   2.0000      -6.038794      -164.3239
  20   2.0000      -6.038166      -164.3068
  21   2.0000      -6.034725      -164.2132
  22   2.0000      -6.034612      -164.2101
  23   2.0000      -6.030324      -164.0935
  24   2.0000      -1.008743       -27.4493
  25   2.0000      -0.977415       -26.5968
  26   2.0000      -0.916135       -24.9293
  27   2.0000      -0.911536       -24.8042
  28   2.0000      -0.871966       -23.7274
  29   2.0000      -0.854072       -23.2405
  30   2.0000      -0.840475       -22.8705
  31   2.0000      -0.815903       -22.2018
  32   2.0000      -0.786764       -21.4089
  33   2.0000      -0.777080       -21.1454
  34   2.0000      -0.717396       -19.5213
  35   2.0000      -0.706391       -19.2219
  36   2.0000      -0.699675       -19.0391
  37   2.0000      -0.661984       -18.0135
  38   2.0000      -0.637136       -17.3373
  39   2.0000      -0.612941       -16.6790
  40   2.0000      -0.595229       -16.1970
  41   2.0000      -0.571795       -15.5593
  42   2.0000      -0.551081       -14.9957
  43   2.0000      -0.548837       -14.9346
  44   2.0000      -0.545518       -14.8443
  45   2.0000      -0.541077       -14.7234
  46   2.0000      -0.528927       -14.3928
  47   2.0000      -0.510064       -13.8796
  48   2.0000      -0.506330       -13.7779
  49   2.0000      -0.504215       -13.7204
  50   2.0000      -0.492495       -13.4015
  51   2.0000      -0.477407       -12.9909
  52   2.0000      -0.472189       -12.8489
  53   2.0000      -0.465954       -12.6793
  54   2.0000      -0.457090       -12.4381
  55   2.0000      -0.448462       -12.2033
  56   2.0000      -0.441715       -12.0197
  57   2.0000      -0.435444       -11.8490
  58   2.0000      -0.432674       -11.7737
  59   2.0000      -0.426539       -11.6067
  60   2.0000      -0.418088       -11.3768
  61   2.0000      -0.417946       -11.3729
  62   2.0000      -0.414284       -11.2732
  63   2.0000      -0.349391        -9.5074
  64   2.0000      -0.333587        -9.0774
  65   2.0000      -0.326220        -8.8769
  66   2.0000      -0.294174        -8.0049
  67   0.0000       0.030348         0.8258
  68   0.0000       0.065840         1.7916
  69   0.0000       0.105711         2.8765
  70   0.0000       0.120925         3.2905
  71   0.0000       0.129487         3.5235

MULLIKEN ATOMIC CHARGES
-----------------------
   0 S :    0.099502
   1 C :   -0.076741
   2 C :   -0.121718
   3 C :    0.032375
   4 C :   -0.152888
   5 H :    0.004203
   6 C :    0.008597
   7 H :    0.032491
   8 H :    0.022923
   9 C :   -0.009155
  10 H :    0.017505
  11 H :    0.027707
  12 C :   -0.063989
  13 H :    0.042311
  14 H :    0.044362
  15 H :    0.012623
  16 S :    0.126675
  17 C :   -0.062326
  18 C :   -0.074487
  19 C :   -0.034675
  20 C :   -0.156690
  21 H :    0.034444
  22 C :    0.087247
  23 H :    0.037619
  24 H :    0.007945
  25 C :   -0.048388
  26 H :    0.035447
  27 H :    0.026728
  28 C :   -0.012349
  29 H :    0.018548
  30 H :    0.026588
  31 H :    0.007349
  32 H :    0.032994
  33 H :    0.027223
Sum of atomic charges:    0.0000000

LOEWDIN ATOMIC CHARGES
----------------------
   0 S :    0.366940
   1 C :   -0.193086
   2 C :   -0.063609
   3 C :   -0.059197
   4 C :   -0.172495
   5 H :    0.030317
   6 C :   -0.042624
   7 H :    0.033851
   8 H :    0.035019
   9 C :   -0.038914
  10 H :    0.021049
  11 H :    0.028406
  12 C :   -0.065494
  13 H :    0.021419
  14 H :    0.037689
  15 H :    0.016002
  16 S :    0.427275
  17 C :   -0.180464
  18 C :   -0.077273
  19 C :   -0.055910
  20 C :   -0.215666
  21 H :    0.036047
  22 C :   -0.021764
  23 H :    0.037845
  24 H :    0.021800
  25 C :   -0.035657
  26 H :    0.024554
  27 H :    0.026309
  28 C :   -0.054362
  29 H :    0.020451
  30 H :    0.031548
  31 H :    0.009228
  32 H :    0.031210
  33 H :    0.019557

  Mayer bond orders larger than 0.100000
B(  0-S ,  1-C ) :   1.1139 B(  0-S ,  4-C ) :   1.1061 B(  1-C ,  2-C ) :   1.6565
B(  1-C , 32-H ) :   0.9604 B(  2-C ,  3-C ) :   1.1972 B(  2-C ,  6-C ) :   1.0271
B(  3-C ,  4-C ) :   1.6386 B(  3-C ,  5-H ) :   0.9864 B(  4-C , 20-C ) :   1.0353
B(  6-C ,  7-H ) :   0.9428 B(  6-C ,  8-H ) :   0.9319 B(  6-C ,  9-C ) :   1.0809
B(  9-C , 10-H ) :   0.9522 B(  9-C , 11-H ) :   0.9520 B(  9-C , 12-C ) :   1.0649
B( 12-C , 13-H ) :   0.9752 B( 12-C , 14-H ) :   0.9727 B( 12-C , 15-H ) :   0.9764
B( 16-S , 17-C ) :   1.1474 B( 16-S , 20-C ) :   1.1564 B( 17-C , 18-C ) :   1.6094
B( 17-C , 20-C ) :   0.1026 B( 17-C , 33-H ) :   0.9761 B( 18-C , 19-C ) :   1.2591
B( 18-C , 21-H ) :   0.9741 B( 19-C , 20-C ) :   1.5834 B( 19-C , 22-C ) :   1.0204
B( 22-C , 23-H ) :   0.9356 B( 22-C , 24-H ) :   0.9370 B( 22-C , 25-C ) :   1.0593
B( 25-C , 26-H ) :   0.9585 B( 25-C , 27-H ) :   0.9535 B( 25-C , 28-C ) :   1.0797
B( 28-C , 29-H ) :   0.9722 B( 28-C , 30-H ) :   0.9714 B( 28-C , 31-H ) :   0.9753

Dispersion correction           -0.014718371
FINAL SINGLE POINT ENERGY     -1339.863031042580

DIPOLE MOMENT
-------------
                                X             Y             Z
Electronic contribution:     20.94028      10.58236       8.89662
Nuclear contribution   :    -21.44781     -11.24112      -9.10215
                        -----------------------------------------
Total Dipole Moment    :     -0.50753      -0.65876      -0.20553
                        -----------------------------------------
Magnitude (a.u.)       :      0.85662
Magnitude (Debye)      :      2.17735

Rotational constants in cm-1:     0.019526     0.008406     0.006774
Rotational constants in MHz :   585.379831   252.001418   203.080169

                             ****ORCA TERMINATED NORMALLY****
TOTAL RUN TIME: 0 days 0 hours 0 minutes 21 seconds 988 msec
