                         Program Version 4.2.1 -  RELEASE  -
|  1> ! wB97X-D3 SP def2-SVP
|  2> %pal
|  3> nprocs 24
|  4> end
|  5>
|  6> * xyz 0 1
|  7> S 	 -94.2038 	 50.7682 	 -100.208
|  8> C 	 -93.0209 	 51.5181 	 -99.0583
|  9> C 	 -93.5727 	 52.6746 	 -98.5818
| 10> C 	 -94.9104 	 52.9429 	 -99.0585
| 11> C 	 -95.4699 	 51.9725 	 -99.8765
| 12> H 	 -95.5529 	 53.7273 	 -98.5414
| 13> C 	 -92.8916 	 53.5913 	 -97.5704
| 14> H 	 -92.8079 	 54.5976 	 -97.9701
| 15> H 	 -91.9242 	 53.2565 	 -97.3758
| 16> C 	 -93.5994 	 53.7319 	 -96.2025
| 17> H 	 -94.364 	 54.4998 	 -96.2565
| 18> H 	 -94.101 	 52.7376 	 -96.087
| 19> C 	 -92.6442 	 53.926 	 -94.9939
| 20> H 	 -92.0163 	 53.0539 	 -94.7303
| 21> H 	 -91.9453 	 54.7195 	 -95.2874
| 22> H 	 -93.153 	 54.3001 	 -94.1134
| 23> S 	 -97.4799 	 50.2932 	 -100.787
| 24> C 	 -99.1651 	 50.7509 	 -100.676
| 25> C 	 -99.2596 	 52.1092 	 -100.332
| 26> C 	 -98.0049 	 52.6614 	 -100.163
| 27> C 	 -96.9048 	 51.837 	 -100.174
| 28> H 	 -100.195 	 52.625 	 -100.174
| 29> C 	 -97.9535 	 54.1867 	 -99.8938
| 30> H 	 -98.4448 	 54.7837 	 -100.661
| 31> H 	 -96.9648 	 54.5116 	 -99.9443
| 32> C 	 -98.5695 	 54.4795 	 -98.4932
| 33> H 	 -98.006 	 53.9131 	 -97.6918
| 34> H 	 -99.5888 	 54.2153 	 -98.4028
| 35> C 	 -98.4849 	 55.9684 	 -98.1261
| 36> H 	 -98.9978 	 56.5561 	 -98.8323
| 37> H 	 -97.4995 	 56.2635 	 -98.0531
| 38> H 	 -98.8735 	 56.1765 	 -97.123
| 39> H 	 -92.0585 	 51.075 	 -98.8009
| 40> H 	 -99.9481 	 50.0313 	 -100.803
| 41> *
| 42>
| 43>                          ****END OF INPUT****

CARTESIAN COORDINATES (ANGSTROEM)
---------------------------------
  S    -94.203800   50.768200  -100.208000
  C    -93.020900   51.518100  -99.058300
  C    -93.572700   52.674600  -98.581800
  C    -94.910400   52.942900  -99.058500
  C    -95.469900   51.972500  -99.876500
  H    -95.552900   53.727300  -98.541400
  C    -92.891600   53.591300  -97.570400
  H    -92.807900   54.597600  -97.970100
  H    -91.924200   53.256500  -97.375800
  C    -93.599400   53.731900  -96.202500
  H    -94.364000   54.499800  -96.256500
  H    -94.101000   52.737600  -96.087000
  C    -92.644200   53.926000  -94.993900
  H    -92.016300   53.053900  -94.730300
  H    -91.945300   54.719500  -95.287400
  H    -93.153000   54.300100  -94.113400
  S    -97.479900   50.293200  -100.787000
  C    -99.165100   50.750900  -100.676000
  C    -99.259600   52.109200  -100.332000
  C    -98.004900   52.661400  -100.163000
  C    -96.904800   51.837000  -100.174000
  H    -100.195000   52.625000  -100.174000
  C    -97.953500   54.186700  -99.893800
  H    -98.444800   54.783700  -100.661000
  H    -96.964800   54.511600  -99.944300
  C    -98.569500   54.479500  -98.493200
  H    -98.006000   53.913100  -97.691800
  H    -99.588800   54.215300  -98.402800
  C    -98.484900   55.968400  -98.126100
  H    -98.997800   56.556100  -98.832300
  H    -97.499500   56.263500  -98.053100
  H    -98.873500   56.176500  -97.123000
  H    -92.058500   51.075000  -98.800900
  H    -99.948100   50.031300  -100.803000

 Total Charge           Charge          ....    0
 Multiplicity           Mult            ....    1
 Number of Electrons    NEL             ....  134
 Basis Dimension        Dim             ....  322

ORBITAL ENERGIES
----------------

  NO   OCC          E(Eh)            E(eV)
   0   2.0000     -88.965876     -2420.8846
   1   2.0000     -88.964682     -2420.8521
   2   2.0000     -10.342466      -281.4328
   3   2.0000     -10.333172      -281.1799
   4   2.0000     -10.323074      -280.9051
   5   2.0000     -10.322324      -280.8847
   6   2.0000     -10.305500      -280.4269
   7   2.0000     -10.301447      -280.3166
   8   2.0000     -10.300702      -280.2964
   9   2.0000     -10.295228      -280.1474
  10   2.0000     -10.290624      -280.0221
  11   2.0000     -10.288950      -279.9766
  12   2.0000     -10.288867      -279.9743
  13   2.0000     -10.287810      -279.9455
  14   2.0000     -10.284062      -279.8435
  15   2.0000     -10.268420      -279.4179
  16   2.0000      -8.079574      -219.8564
  17   2.0000      -8.079309      -219.8492
  18   2.0000      -6.038266      -164.3096
  19   2.0000      -6.038041      -164.3035
  20   2.0000      -6.034000      -164.1935
  21   2.0000      -6.033980      -164.1929
  22   2.0000      -6.030418      -164.0960
  23   2.0000      -6.029658      -164.0753
  24   2.0000      -1.007930       -27.4272
  25   2.0000      -0.983130       -26.7523
  26   2.0000      -0.910825       -24.7848
  27   2.0000      -0.908161       -24.7123
  28   2.0000      -0.870908       -23.6986
  29   2.0000      -0.853952       -23.2372
  30   2.0000      -0.839269       -22.8377
  31   2.0000      -0.815566       -22.1927
  32   2.0000      -0.782757       -21.2999
  33   2.0000      -0.776260       -21.1231
  34   2.0000      -0.709397       -19.3037
  35   2.0000      -0.704131       -19.1604
  36   2.0000      -0.696346       -18.9485
  37   2.0000      -0.668205       -18.1828
  38   2.0000      -0.639044       -17.3893
  39   2.0000      -0.620151       -16.8752
  40   2.0000      -0.601420       -16.3655
  41   2.0000      -0.574241       -15.6259
  42   2.0000      -0.569675       -15.5017
  43   2.0000      -0.563522       -15.3342
  44   2.0000      -0.531034       -14.4502
  45   2.0000      -0.524671       -14.2770
  46   2.0000      -0.518434       -14.1073
  47   2.0000      -0.510937       -13.9033
  48   2.0000      -0.505432       -13.7535
  49   2.0000      -0.502515       -13.6741
  50   2.0000      -0.495492       -13.4830
  51   2.0000      -0.482340       -13.1251
  52   2.0000      -0.476821       -12.9750
  53   2.0000      -0.473142       -12.8749
  54   2.0000      -0.460884       -12.5413
  55   2.0000      -0.449700       -12.2370
  56   2.0000      -0.438933       -11.9440
  57   2.0000      -0.437916       -11.9163
  58   2.0000      -0.434853       -11.8330
  59   2.0000      -0.427386       -11.6298
  60   2.0000      -0.422139       -11.4870
  61   2.0000      -0.412189       -11.2162
  62   2.0000      -0.406442       -11.0598
  63   2.0000      -0.363979        -9.9044
  64   2.0000      -0.334916        -9.1135
  65   2.0000      -0.326890        -8.8951
  66   2.0000      -0.285104        -7.7581
  67   0.0000       0.014480         0.3940
  68   0.0000       0.082300         2.2395
  69   0.0000       0.098435         2.6786
  70   0.0000       0.118332         3.2200
  71   0.0000       0.123446         3.3591

MULLIKEN ATOMIC CHARGES
-----------------------
   0 S :    0.079096
   1 C :   -0.133352
   2 C :   -0.090042
   3 C :   -0.033228
   4 C :   -0.078444
   5 H :    0.038606
   6 C :    0.112438
   7 H :    0.033687
   8 H :   -0.008402
   9 C :   -0.110340
  10 H :    0.031237
  11 H :    0.043468
  12 C :   -0.059918
  13 H :    0.045316
  14 H :    0.025804
  15 H :    0.038033
  16 S :    0.088238
  17 C :   -0.086529
  18 C :   -0.019605
  19 C :   -0.062350
  20 C :   -0.117049
  21 H :    0.024187
  22 C :    0.083955
  23 H :    0.028048
  24 H :   -0.002138
  25 C :   -0.108614
  26 H :    0.037611
  27 H :    0.022682
  28 C :    0.008690
  29 H :    0.019658
  30 H :    0.003272
  31 H :    0.027502
  32 H :    0.059442
  33 H :    0.059042
Sum of atomic charges:   -0.0000000

LOEWDIN ATOMIC CHARGES
----------------------
   0 S :    0.358845
   1 C :   -0.175594
   2 C :   -0.061275
   3 C :   -0.081882
   4 C :   -0.171390
   5 H :    0.040001
   6 C :   -0.026461
   7 H :    0.032884
   8 H :    0.018150
   9 C :   -0.043247
  10 H :    0.019383
  11 H :    0.029310
  12 C :   -0.069049
  13 H :    0.030209
  14 H :    0.024380
  15 H :    0.027311
  16 S :    0.405734
  17 C :   -0.170443
  18 C :   -0.069236
  19 C :   -0.058151
  20 C :   -0.190397
  21 H :    0.034506
  22 C :   -0.022068
  23 H :    0.031506
  24 H :    0.014887
  25 C :   -0.035187
  26 H :    0.029545
  27 H :    0.014914
  28 C :   -0.056307
  29 H :    0.017598
  30 H :    0.011692
  31 H :    0.028884
  32 H :    0.035245
  33 H :    0.025704

  Mayer bond orders larger than 0.100000
B(  0-S ,  1-C ) :   1.0973 B(  0-S ,  4-C ) :   1.1288 B(  1-C ,  2-C ) :   1.6382
B(  1-C , 32-H ) :   0.9697 B(  2-C ,  3-C ) :   1.2239 B(  2-C ,  6-C ) :   1.0443
B(  3-C ,  4-C ) :   1.5834 B(  3-C ,  5-H ) :   0.9718 B(  4-C , 20-C ) :   1.0851
B(  6-C ,  7-H ) :   0.9338 B(  6-C ,  8-H ) :   0.9406 B(  6-C ,  9-C ) :   1.0426
B(  9-C , 10-H ) :   0.9551 B(  9-C , 11-H ) :   0.9656 B(  9-C , 12-C ) :   1.0844
B( 12-C , 13-H ) :   0.9749 B( 12-C , 14-H ) :   0.9747 B( 12-C , 15-H ) :   0.9754
B( 16-S , 17-C ) :   1.1875 B( 16-S , 20-C ) :   1.1244 B( 17-C , 18-C ) :   1.5340
B( 17-C , 20-C ) :   0.1079 B( 17-C , 33-H ) :   0.9747 B( 18-C , 19-C ) :   1.2870
B( 18-C , 21-H ) :   0.9978 B( 19-C , 20-C ) :   1.5679 B( 19-C , 22-C ) :   1.0323
B( 22-C , 23-H ) :   0.9370 B( 22-C , 24-H ) :   0.9374 B( 22-C , 25-C ) :   1.0559
B( 25-C , 26-H ) :   0.9542 B( 25-C , 27-H ) :   0.9591 B( 25-C , 28-C ) :   1.0889
B( 28-C , 29-H ) :   0.9728 B( 28-C , 30-H ) :   0.9734 B( 28-C , 31-H ) :   0.9714

Dispersion correction           -0.013946779
FINAL SINGLE POINT ENERGY     -1339.869900400180

DIPOLE MOMENT
-------------
                                X             Y             Z
Electronic contribution:     -1.20934     -24.75634     -22.10337
Nuclear contribution   :      1.03038      25.33591      22.69087
                        -----------------------------------------
Total Dipole Moment    :     -0.17897       0.57957       0.58749
                        -----------------------------------------
Magnitude (a.u.)       :      0.84444
Magnitude (Debye)      :      2.14639

Rotational constants in cm-1:     0.016461     0.009464     0.006447
Rotational constants in MHz :   493.502584   283.721420   193.278080

                             ****ORCA TERMINATED NORMALLY****
TOTAL RUN TIME: 0 days 0 hours 0 minutes 21 seconds 628 msec
