                         Program Version 4.2.1 -  RELEASE  -
|  1> ! wB97X-D3 SP def2-SVP
|  2> %pal
|  3> nprocs 24
|  4> end
|  5>
|  6> * xyz 0 1
|  7> S 	 40.8342 	 -22.7781 	 -125.271
|  8> C 	 39.5409 	 -21.5467 	 -124.924
|  9> C 	 38.6178 	 -22.1276 	 -124.043
| 10> C 	 39.0401 	 -23.4777 	 -123.679
| 11> C 	 40.1267 	 -24.0032 	 -124.278
| 12> H 	 38.4924 	 -24.1449 	 -123.016
| 13> C 	 37.2946 	 -21.5632 	 -123.604
| 14> H 	 36.7596 	 -22.3252 	 -122.986
| 15> H 	 36.6733 	 -21.4186 	 -124.54
| 16> C 	 37.4725 	 -20.1648 	 -122.847
| 17> H 	 37.9435 	 -20.3995 	 -121.926
| 18> H 	 38.238 	 -19.4572 	 -123.325
| 19> C 	 36.1469 	 -19.4856 	 -122.589
| 20> H 	 35.4769 	 -19.5231 	 -123.438
| 21> H 	 35.6435 	 -19.7774 	 -121.721
| 22> H 	 36.431 	 -18.3924 	 -122.426
| 23> S 	 39.4402 	 -26.6237 	 -124.535
| 24> C 	 40.6781 	 -27.8317 	 -124.53
| 25> C 	 41.8748 	 -27.3022 	 -124.25
| 26> C 	 41.8567 	 -25.8758 	 -124.065
| 27> C 	 40.6063 	 -25.3603 	 -124.254
| 28> H 	 42.7961 	 -27.8915 	 -124.264
| 29> C 	 43.1277 	 -25.0719 	 -123.914
| 30> H 	 42.9585 	 -24.2902 	 -123.151
| 31> H 	 43.3452 	 -24.6413 	 -124.936
| 32> C 	 44.3132 	 -25.8694 	 -123.415
| 33> H 	 44.7287 	 -26.4858 	 -124.181
| 34> H 	 44.052 	 -26.5073 	 -122.581
| 35> C 	 45.3854 	 -24.9064 	 -122.963
| 36> H 	 45.7602 	 -24.3585 	 -123.749
| 37> H 	 46.2385 	 -25.4241 	 -122.53
| 38> H 	 45.0306 	 -24.1163 	 -122.253
| 39> H 	 39.4768 	 -20.5025 	 -125.268
| 40> H 	 40.5687 	 -28.9106 	 -124.577
| 41> *
| 42>
| 43>                          ****END OF INPUT****

CARTESIAN COORDINATES (ANGSTROEM)
---------------------------------
  S     40.834200  -22.778100  -125.271000
  C     39.540900  -21.546700  -124.924000
  C     38.617800  -22.127600  -124.043000
  C     39.040100  -23.477700  -123.679000
  C     40.126700  -24.003200  -124.278000
  H     38.492400  -24.144900  -123.016000
  C     37.294600  -21.563200  -123.604000
  H     36.759600  -22.325200  -122.986000
  H     36.673300  -21.418600  -124.540000
  C     37.472500  -20.164800  -122.847000
  H     37.943500  -20.399500  -121.926000
  H     38.238000  -19.457200  -123.325000
  C     36.146900  -19.485600  -122.589000
  H     35.476900  -19.523100  -123.438000
  H     35.643500  -19.777400  -121.721000
  H     36.431000  -18.392400  -122.426000
  S     39.440200  -26.623700  -124.535000
  C     40.678100  -27.831700  -124.530000
  C     41.874800  -27.302200  -124.250000
  C     41.856700  -25.875800  -124.065000
  C     40.606300  -25.360300  -124.254000
  H     42.796100  -27.891500  -124.264000
  C     43.127700  -25.071900  -123.914000
  H     42.958500  -24.290200  -123.151000
  H     43.345200  -24.641300  -124.936000
  C     44.313200  -25.869400  -123.415000
  H     44.728700  -26.485800  -124.181000
  H     44.052000  -26.507300  -122.581000
  C     45.385400  -24.906400  -122.963000
  H     45.760200  -24.358500  -123.749000
  H     46.238500  -25.424100  -122.530000
  H     45.030600  -24.116300  -122.253000
  H     39.476800  -20.502500  -125.268000
  H     40.568700  -28.910600  -124.577000

 Total Charge           Charge          ....    0
 Multiplicity           Mult            ....    1
 Number of Electrons    NEL             ....  134
 Basis Dimension        Dim             ....  322

ORBITAL ENERGIES
----------------

  NO   OCC          E(Eh)            E(eV)
   0   2.0000     -88.964088     -2420.8359
   1   2.0000     -88.962097     -2420.7817
   2   2.0000     -10.322757      -280.8965
   3   2.0000     -10.321520      -280.8628
   4   2.0000     -10.320984      -280.8483
   5   2.0000     -10.311311      -280.5850
   6   2.0000     -10.305654      -280.4311
   7   2.0000     -10.302961      -280.3578
   8   2.0000     -10.298094      -280.2254
   9   2.0000     -10.293429      -280.0984
  10   2.0000     -10.293203      -280.0923
  11   2.0000     -10.288743      -279.9709
  12   2.0000     -10.288035      -279.9517
  13   2.0000     -10.280192      -279.7383
  14   2.0000     -10.276939      -279.6497
  15   2.0000     -10.269867      -279.4573
  16   2.0000      -8.079362      -219.8506
  17   2.0000      -8.075919      -219.7569
  18   2.0000      -6.037995      -164.3022
  19   2.0000      -6.034721      -164.2131
  20   2.0000      -6.033744      -164.1865
  21   2.0000      -6.030438      -164.0966
  22   2.0000      -6.030010      -164.0849
  23   2.0000      -6.026522      -163.9900
  24   2.0000      -1.011379       -27.5210
  25   2.0000      -0.982644       -26.7391
  26   2.0000      -0.917369       -24.9629
  27   2.0000      -0.907517       -24.6948
  28   2.0000      -0.872432       -23.7401
  29   2.0000      -0.853223       -23.2174
  30   2.0000      -0.843108       -22.9421
  31   2.0000      -0.815511       -22.1912
  32   2.0000      -0.780073       -21.2269
  33   2.0000      -0.768758       -20.9190
  34   2.0000      -0.709272       -19.3003
  35   2.0000      -0.702995       -19.1295
  36   2.0000      -0.699345       -19.0301
  37   2.0000      -0.656044       -17.8519
  38   2.0000      -0.631697       -17.1893
  39   2.0000      -0.612256       -16.6603
  40   2.0000      -0.600168       -16.3314
  41   2.0000      -0.579316       -15.7640
  42   2.0000      -0.567137       -15.4326
  43   2.0000      -0.558508       -15.1978
  44   2.0000      -0.527398       -14.3512
  45   2.0000      -0.522048       -14.2057
  46   2.0000      -0.518689       -14.1142
  47   2.0000      -0.516845       -14.0641
  48   2.0000      -0.507201       -13.8016
  49   2.0000      -0.500194       -13.6110
  50   2.0000      -0.486362       -13.2346
  51   2.0000      -0.476400       -12.9635
  52   2.0000      -0.474067       -12.9000
  53   2.0000      -0.462894       -12.5960
  54   2.0000      -0.457389       -12.4462
  55   2.0000      -0.452775       -12.3206
  56   2.0000      -0.451712       -12.2917
  57   2.0000      -0.433331       -11.7915
  58   2.0000      -0.429659       -11.6916
  59   2.0000      -0.429255       -11.6806
  60   2.0000      -0.417786       -11.3685
  61   2.0000      -0.415177       -11.2975
  62   2.0000      -0.409352       -11.1390
  63   2.0000      -0.345867        -9.4115
  64   2.0000      -0.330463        -8.9924
  65   2.0000      -0.323353        -8.7989
  66   2.0000      -0.297367        -8.0918
  67   0.0000       0.033557         0.9131
  68   0.0000       0.072712         1.9786
  69   0.0000       0.113166         3.0794
  70   0.0000       0.115655         3.1471
  71   0.0000       0.130902         3.5620

MULLIKEN ATOMIC CHARGES
-----------------------
   0 S :    0.088587
   1 C :   -0.134718
   2 C :   -0.082259
   3 C :    0.002488
   4 C :   -0.140580
   5 H :    0.002946
   6 C :    0.032649
   7 H :    0.037447
   8 H :    0.053561
   9 C :   -0.110567
  10 H :    0.026003
  11 H :    0.043266
  12 C :   -0.021897
  13 H :    0.029754
  14 H :    0.028572
  15 H :    0.033788
  16 S :    0.114825
  17 C :   -0.064351
  18 C :   -0.052480
  19 C :   -0.049577
  20 C :   -0.144088
  21 H :    0.023891
  22 C :    0.044205
  23 H :    0.038129
  24 H :    0.058686
  25 C :   -0.084863
  26 H :    0.026540
  27 H :    0.032524
  28 C :   -0.009802
  29 H :    0.004897
  30 H :    0.027802
  31 H :    0.030546
  32 H :    0.061663
  33 H :    0.052414
Sum of atomic charges:    0.0000000

LOEWDIN ATOMIC CHARGES
----------------------
   0 S :    0.387739
   1 C :   -0.187661
   2 C :   -0.060852
   3 C :   -0.077066
   4 C :   -0.199667
   5 H :    0.025402
   6 C :   -0.037340
   7 H :    0.035250
   8 H :    0.040000
   9 C :   -0.042946
  10 H :    0.021795
  11 H :    0.031361
  12 C :   -0.066301
  13 H :    0.022709
  14 H :    0.017916
  15 H :    0.037688
  16 S :    0.418619
  17 C :   -0.189422
  18 C :   -0.077109
  19 C :   -0.057629
  20 C :   -0.201736
  21 H :    0.034056
  22 C :   -0.036567
  23 H :    0.035929
  24 H :    0.042453
  25 C :   -0.042681
  26 H :    0.021111
  27 H :    0.024802
  28 C :   -0.058808
  29 H :    0.013295
  30 H :    0.025698
  31 H :    0.029645
  32 H :    0.035600
  33 H :    0.034717

  Mayer bond orders larger than 0.100000
B(  0-S ,  1-C ) :   1.1204 B(  0-S ,  4-C ) :   1.1325 B(  1-C ,  2-C ) :   1.6140
B(  1-C , 32-H ) :   0.9674 B(  2-C ,  3-C ) :   1.2194 B(  2-C ,  6-C ) :   1.0226
B(  3-C ,  4-C ) :   1.6118 B(  3-C ,  5-H ) :   0.9946 B(  4-C , 20-C ) :   1.0374
B(  6-C ,  7-H ) :   0.9473 B(  6-C ,  8-H ) :   0.9423 B(  6-C ,  9-C ) :   1.0381
B(  9-C , 10-H ) :   0.9542 B(  9-C , 11-H ) :   0.9683 B(  9-C , 12-C ) :   1.0753
B( 12-C , 13-H ) :   0.9766 B( 12-C , 14-H ) :   0.9758 B( 12-C , 15-H ) :   0.9729
B( 16-S , 17-C ) :   1.1461 B( 16-S , 20-C ) :   1.1321 B( 17-C , 18-C ) :   1.6295
B( 17-C , 33-H ) :   0.9584 B( 18-C , 19-C ) :   1.2393 B( 18-C , 21-H ) :   0.9827
B( 19-C , 20-C ) :   1.6117 B( 19-C , 22-C ) :   1.0378 B( 22-C , 23-H ) :   0.9325
B( 22-C , 24-H ) :   0.9250 B( 22-C , 25-C ) :   1.0935 B( 25-C , 26-H ) :   0.9369
B( 25-C , 27-H ) :   0.9575 B( 25-C , 28-C ) :   1.0959 B( 28-C , 29-H ) :   0.9672
B( 28-C , 30-H ) :   0.9701 B( 28-C , 31-H ) :   0.9732

Dispersion correction           -0.013325345
FINAL SINGLE POINT ENERGY     -1339.877997949379

DIPOLE MOMENT
-------------
                                X             Y             Z
Electronic contribution:     -3.65261     -13.55092     -11.22372
Nuclear contribution   :      3.73007      13.61297      11.49810
                        -----------------------------------------
Total Dipole Moment    :      0.07746       0.06204       0.27438
                        -----------------------------------------
Magnitude (a.u.)       :      0.29178
Magnitude (Debye)      :      0.74164

Rotational constants in cm-1:     0.022731     0.006825     0.005760
Rotational constants in MHz :   681.464118   204.599603   172.679045

                             ****ORCA TERMINATED NORMALLY****
TOTAL RUN TIME: 0 days 0 hours 0 minutes 19 seconds 585 msec
