                         Program Version 4.2.1 -  RELEASE  -
|  1> ! wB97X-D3 SP def2-SVP
|  2> %pal
|  3> nprocs 24
|  4> end
|  5>
|  6> * xyz 0 1
|  7> S 	 30.0883 	 -29.4355 	 -130.107
|  8> C 	 29.8029 	 -27.8165 	 -130.597
|  9> C 	 28.7096 	 -27.3077 	 -130.013
| 10> C 	 28.1802 	 -28.1946 	 -128.978
| 11> C 	 28.8286 	 -29.4023 	 -128.891
| 12> H 	 27.3007 	 -27.8745 	 -128.471
| 13> C 	 27.9999 	 -26.0402 	 -130.385
| 14> H 	 27.3391 	 -25.6809 	 -129.583
| 15> H 	 27.1205 	 -26.5064 	 -131.001
| 16> C 	 28.8425 	 -24.8706 	 -131.006
| 17> H 	 29.5097 	 -24.3218 	 -130.399
| 18> H 	 29.5957 	 -25.3235 	 -131.649
| 19> C 	 28.0285 	 -23.8393 	 -131.759
| 20> H 	 27.465 	 -23.2341 	 -131.038
| 21> H 	 28.6584 	 -23.0583 	 -132.146
| 22> H 	 27.3981 	 -24.1999 	 -132.587
| 23> S 	 28.067 	 -32.0596 	 -128.432
| 24> C 	 28.0989 	 -32.8017 	 -126.816
| 25> C 	 28.418 	 -31.8283 	 -125.884
| 26> C 	 28.6055 	 -30.5124 	 -126.44
| 27> C 	 28.5941 	 -30.4484 	 -127.877
| 28> H 	 28.3688 	 -32.1125 	 -124.833
| 29> C 	 29.0638 	 -29.3777 	 -125.577
| 30> H 	 29.5129 	 -28.5304 	 -126.196
| 31> H 	 29.9974 	 -29.7778 	 -125.045
| 32> C 	 28.173 	 -28.8785 	 -124.553
| 33> H 	 27.9797 	 -29.721 	 -123.816
| 34> H 	 27.1957 	 -28.6572 	 -125.064
| 35> C 	 28.6633 	 -27.691 	 -123.697
| 36> H 	 27.9476 	 -27.5089 	 -122.839
| 37> H 	 28.6202 	 -26.8212 	 -124.358
| 38> H 	 29.7061 	 -27.7315 	 -123.383
| 39> H 	 30.3846 	 -27.5117 	 -131.464
| 40> H 	 27.772 	 -33.7435 	 -126.669
| 41> *
| 42>
| 43>                          ****END OF INPUT****

CARTESIAN COORDINATES (ANGSTROEM)
---------------------------------
  S     30.088300  -29.435500  -130.107000
  C     29.802900  -27.816500  -130.597000
  C     28.709600  -27.307700  -130.013000
  C     28.180200  -28.194600  -128.978000
  C     28.828600  -29.402300  -128.891000
  H     27.300700  -27.874500  -128.471000
  C     27.999900  -26.040200  -130.385000
  H     27.339100  -25.680900  -129.583000
  H     27.120500  -26.506400  -131.001000
  C     28.842500  -24.870600  -131.006000
  H     29.509700  -24.321800  -130.399000
  H     29.595700  -25.323500  -131.649000
  C     28.028500  -23.839300  -131.759000
  H     27.465000  -23.234100  -131.038000
  H     28.658400  -23.058300  -132.146000
  H     27.398100  -24.199900  -132.587000
  S     28.067000  -32.059600  -128.432000
  C     28.098900  -32.801700  -126.816000
  C     28.418000  -31.828300  -125.884000
  C     28.605500  -30.512400  -126.440000
  C     28.594100  -30.448400  -127.877000
  H     28.368800  -32.112500  -124.833000
  C     29.063800  -29.377700  -125.577000
  H     29.512900  -28.530400  -126.196000
  H     29.997400  -29.777800  -125.045000
  C     28.173000  -28.878500  -124.553000
  H     27.979700  -29.721000  -123.816000
  H     27.195700  -28.657200  -125.064000
  C     28.663300  -27.691000  -123.697000
  H     27.947600  -27.508900  -122.839000
  H     28.620200  -26.821200  -124.358000
  H     29.706100  -27.731500  -123.383000
  H     30.384600  -27.511700  -131.464000
  H     27.772000  -33.743500  -126.669000

 Total Charge           Charge          ....    0
 Multiplicity           Mult            ....    1
 Number of Electrons    NEL             ....  134
 Basis Dimension        Dim             ....  322

ORBITAL ENERGIES
----------------

  NO   OCC          E(Eh)            E(eV)
   0   2.0000     -88.960602     -2420.7411
   1   2.0000     -88.960539     -2420.7393
   2   2.0000     -10.338033      -281.3122
   3   2.0000     -10.334663      -281.2205
   4   2.0000     -10.316440      -280.7246
   5   2.0000     -10.312181      -280.6087
   6   2.0000     -10.309300      -280.5303
   7   2.0000     -10.305891      -280.4376
   8   2.0000     -10.300723      -280.2969
   9   2.0000     -10.299150      -280.2541
  10   2.0000     -10.295702      -280.1603
  11   2.0000     -10.291568      -280.0478
  12   2.0000     -10.289655      -279.9958
  13   2.0000     -10.287566      -279.9389
  14   2.0000     -10.283579      -279.8304
  15   2.0000     -10.279984      -279.7326
  16   2.0000      -8.076484      -219.7723
  17   2.0000      -8.074630      -219.7219
  18   2.0000      -6.035106      -164.2236
  19   2.0000      -6.033170      -164.1709
  20   2.0000      -6.030730      -164.1045
  21   2.0000      -6.029066      -164.0592
  22   2.0000      -6.027134      -164.0067
  23   2.0000      -6.025559      -163.9638
  24   2.0000      -1.006260       -27.3817
  25   2.0000      -0.981061       -26.6960
  26   2.0000      -0.914014       -24.8716
  27   2.0000      -0.910165       -24.7668
  28   2.0000      -0.872454       -23.7407
  29   2.0000      -0.854657       -23.2564
  30   2.0000      -0.843028       -22.9400
  31   2.0000      -0.818419       -22.2703
  32   2.0000      -0.779597       -21.2139
  33   2.0000      -0.770491       -20.9661
  34   2.0000      -0.717863       -19.5340
  35   2.0000      -0.702168       -19.1070
  36   2.0000      -0.690602       -18.7922
  37   2.0000      -0.658985       -17.9319
  38   2.0000      -0.647170       -17.6104
  39   2.0000      -0.618118       -16.8198
  40   2.0000      -0.599584       -16.3155
  41   2.0000      -0.575238       -15.6530
  42   2.0000      -0.563711       -15.3394
  43   2.0000      -0.556329       -15.1385
  44   2.0000      -0.533142       -14.5075
  45   2.0000      -0.528877       -14.3915
  46   2.0000      -0.520098       -14.1526
  47   2.0000      -0.511430       -13.9167
  48   2.0000      -0.509079       -13.8527
  49   2.0000      -0.500184       -13.6107
  50   2.0000      -0.495477       -13.4826
  51   2.0000      -0.479068       -13.0361
  52   2.0000      -0.470909       -12.8141
  53   2.0000      -0.464853       -12.6493
  54   2.0000      -0.455933       -12.4066
  55   2.0000      -0.450748       -12.2655
  56   2.0000      -0.445896       -12.1334
  57   2.0000      -0.441912       -12.0250
  58   2.0000      -0.431835       -11.7508
  59   2.0000      -0.423973       -11.5369
  60   2.0000      -0.410590       -11.1727
  61   2.0000      -0.407722       -11.0947
  62   2.0000      -0.399570       -10.8729
  63   2.0000      -0.344639        -9.3781
  64   2.0000      -0.325868        -8.8673
  65   2.0000      -0.323376        -8.7995
  66   2.0000      -0.300411        -8.1746
  67   0.0000       0.031931         0.8689
  68   0.0000       0.065550         1.7837
  69   0.0000       0.116468         3.1692
  70   0.0000       0.119382         3.2485
  71   0.0000       0.130111         3.5405

MULLIKEN ATOMIC CHARGES
-----------------------
   0 S :    0.106594
   1 C :   -0.164494
   2 C :   -0.069201
   3 C :    0.042398
   4 C :   -0.123995
   5 H :   -0.001014
   6 C :    0.031763
   7 H :    0.016736
   8 H :    0.055667
   9 C :   -0.027799
  10 H :    0.021666
  11 H :    0.014524
  12 C :   -0.051698
  13 H :    0.025901
  14 H :    0.019291
  15 H :    0.045184
  16 S :    0.074832
  17 C :   -0.054485
  18 C :   -0.027050
  19 C :    0.002184
  20 C :   -0.151878
  21 H :    0.031996
  22 C :    0.001422
  23 H :    0.037466
  24 H :    0.034943
  25 C :   -0.107595
  26 H :    0.028331
  27 H :    0.033174
  28 C :   -0.042731
  29 H :    0.050560
  30 H :    0.025751
  31 H :    0.034194
  32 H :    0.063841
  33 H :    0.023523
Sum of atomic charges:    0.0000000

LOEWDIN ATOMIC CHARGES
----------------------
   0 S :    0.414472
   1 C :   -0.207442
   2 C :   -0.070802
   3 C :   -0.051154
   4 C :   -0.199307
   5 H :    0.026242
   6 C :   -0.043021
   7 H :    0.027747
   8 H :    0.054667
   9 C :   -0.039321
  10 H :    0.026496
  11 H :    0.022535
  12 C :   -0.067105
  13 H :    0.026998
  14 H :    0.025437
  15 H :    0.028145
  16 S :    0.379559
  17 C :   -0.150901
  18 C :   -0.069989
  19 C :   -0.051407
  20 C :   -0.187593
  21 H :    0.035717
  22 C :   -0.054030
  23 H :    0.035562
  24 H :    0.037984
  25 C :   -0.055727
  26 H :    0.024699
  27 H :    0.027894
  28 C :   -0.067756
  29 H :    0.036259
  30 H :    0.024364
  31 H :    0.025656
  32 H :    0.028489
  33 H :    0.006632

  Mayer bond orders larger than 0.100000
B(  0-S ,  1-C ) :   1.1362 B(  0-S ,  4-C ) :   1.1528 B(  1-C ,  2-C ) :   1.6191
B(  1-C , 32-H ) :   0.9679 B(  2-C ,  3-C ) :   1.2346 B(  2-C ,  6-C ) :   1.0206
B(  3-C ,  4-C ) :   1.5626 B(  3-C ,  5-H ) :   1.0081 B(  4-C , 20-C ) :   1.0247
B(  6-C ,  7-H ) :   0.9395 B(  6-C ,  8-H ) :   0.9356 B(  6-C ,  9-C ) :   1.0317
B(  9-C , 10-H ) :   0.9537 B(  9-C , 11-H ) :   0.9542 B(  9-C , 12-C ) :   1.0976
B( 12-C , 13-H ) :   0.9719 B( 12-C , 14-H ) :   0.9689 B( 12-C , 15-H ) :   0.9779
B( 16-S , 17-C ) :   1.1592 B( 16-S , 20-C ) :   1.1432 B( 17-C , 18-C ) :   1.5871
B( 17-C , 20-C ) :   0.1073 B( 17-C , 33-H ) :   0.9853 B( 18-C , 19-C ) :   1.2451
B( 18-C , 21-H ) :   0.9884 B( 19-C , 20-C ) :   1.5579 B( 19-C , 22-C ) :   1.0488
B( 22-C , 23-H ) :   0.9396 B( 22-C , 24-H ) :   0.9312 B( 22-C , 25-C ) :   1.0675
B( 25-C , 26-H ) :   0.9504 B( 25-C , 27-H ) :   0.9518 B( 25-C , 28-C ) :   1.0781
B( 28-C , 29-H ) :   0.9749 B( 28-C , 30-H ) :   0.9735 B( 28-C , 31-H ) :   0.9727

Dispersion correction           -0.013295002
FINAL SINGLE POINT ENERGY     -1339.857509620778

DIPOLE MOMENT
-------------
                                X             Y             Z
Electronic contribution:      4.11376     -27.20879      -8.70593
Nuclear contribution   :     -4.31861      27.82747       8.93663
                        -----------------------------------------
Total Dipole Moment    :     -0.20485       0.61868       0.23070
                        -----------------------------------------
Magnitude (a.u.)       :      0.69134
Magnitude (Debye)      :      1.75725

Rotational constants in cm-1:     0.018862     0.007460     0.005816
Rotational constants in MHz :   565.478407   223.644823   174.351293

                             ****ORCA TERMINATED NORMALLY****
TOTAL RUN TIME: 0 days 0 hours 0 minutes 21 seconds 887 msec
