                         Program Version 4.2.1 -  RELEASE  -
|  1> ! wB97X-D3 SP def2-SVP
|  2> %pal
|  3> nprocs 24
|  4> end
|  5>
|  6> * xyz 0 1
|  7> S 	 -120.951 	 26.233 	 -24.49
|  8> C 	 -120.209 	 25.5285 	 -25.8893
|  9> C 	 -121.027 	 25.9069 	 -26.923
| 10> C 	 -122.287 	 26.5724 	 -26.5376
| 11> C 	 -122.484 	 26.7088 	 -25.1964
| 12> H 	 -122.998 	 27.0064 	 -27.2163
| 13> C 	 -120.666 	 25.7536 	 -28.4275
| 14> H 	 -121.61 	 25.7399 	 -28.9429
| 15> H 	 -120.272 	 24.7659 	 -28.7207
| 16> C 	 -119.643 	 26.7929 	 -28.8872
| 17> H 	 -120.055 	 27.7275 	 -28.5954
| 18> H 	 -118.781 	 26.7221 	 -28.2419
| 19> C 	 -119.257 	 26.8036 	 -30.3299
| 20> H 	 -118.602 	 25.9208 	 -30.6219
| 21> H 	 -120.086 	 26.8168 	 -31.0153
| 22> H 	 -118.71 	 27.6475 	 -30.6519
| 23> S 	 -123.262 	 28.1272 	 -22.9928
| 24> C 	 -124.806 	 28.8617 	 -22.9668
| 25> C 	 -125.617 	 28.2066 	 -23.8708
| 26> C 	 -124.942 	 27.455 	 -24.8462
| 27> C 	 -123.581 	 27.3543 	 -24.4974
| 28> H 	 -126.641 	 28.4774 	 -23.9114
| 29> C 	 -125.514 	 26.806 	 -26.0623
| 30> H 	 -124.908 	 26.9621 	 -26.9281
| 31> H 	 -126.464 	 27.2547 	 -26.3638
| 32> C 	 -125.707 	 25.2859 	 -25.9597
| 33> H 	 -126.481 	 25.0688 	 -25.2188
| 34> H 	 -124.727 	 24.8068 	 -25.6257
| 35> C 	 -126.256 	 24.884 	 -27.2943
| 36> H 	 -126.669 	 23.8592 	 -27.3424
| 37> H 	 -125.439 	 25.0286 	 -28.0099
| 38> H 	 -127.123 	 25.4672 	 -27.6754
| 39> H 	 -119.182 	 25.1633 	 -26.0408
| 40> H 	 -125.317 	 29.5401 	 -22.298
| 41> *
| 42>
| 43>                          ****END OF INPUT****

CARTESIAN COORDINATES (ANGSTROEM)
---------------------------------
  S    -120.951000   26.233000  -24.490000
  C    -120.209000   25.528500  -25.889300
  C    -121.027000   25.906900  -26.923000
  C    -122.287000   26.572400  -26.537600
  C    -122.484000   26.708800  -25.196400
  H    -122.998000   27.006400  -27.216300
  C    -120.666000   25.753600  -28.427500
  H    -121.610000   25.739900  -28.942900
  H    -120.272000   24.765900  -28.720700
  C    -119.643000   26.792900  -28.887200
  H    -120.055000   27.727500  -28.595400
  H    -118.781000   26.722100  -28.241900
  C    -119.257000   26.803600  -30.329900
  H    -118.602000   25.920800  -30.621900
  H    -120.086000   26.816800  -31.015300
  H    -118.710000   27.647500  -30.651900
  S    -123.262000   28.127200  -22.992800
  C    -124.806000   28.861700  -22.966800
  C    -125.617000   28.206600  -23.870800
  C    -124.942000   27.455000  -24.846200
  C    -123.581000   27.354300  -24.497400
  H    -126.641000   28.477400  -23.911400
  C    -125.514000   26.806000  -26.062300
  H    -124.908000   26.962100  -26.928100
  H    -126.464000   27.254700  -26.363800
  C    -125.707000   25.285900  -25.959700
  H    -126.481000   25.068800  -25.218800
  H    -124.727000   24.806800  -25.625700
  C    -126.256000   24.884000  -27.294300
  H    -126.669000   23.859200  -27.342400
  H    -125.439000   25.028600  -28.009900
  H    -127.123000   25.467200  -27.675400
  H    -119.182000   25.163300  -26.040800
  H    -125.317000   29.540100  -22.298000

 Total Charge           Charge          ....    0
 Multiplicity           Mult            ....    1
 Number of Electrons    NEL             ....  134
 Basis Dimension        Dim             ....  322

ORBITAL ENERGIES
----------------

  NO   OCC          E(Eh)            E(eV)
   0   2.0000     -88.971609     -2421.0406
   1   2.0000     -88.960180     -2420.7296
   2   2.0000     -10.333556      -281.1903
   3   2.0000     -10.329453      -281.0787
   4   2.0000     -10.316752      -280.7331
   5   2.0000     -10.315721      -280.7050
   6   2.0000     -10.305668      -280.4315
   7   2.0000     -10.305169      -280.4179
   8   2.0000     -10.293772      -280.1078
   9   2.0000     -10.289892      -280.0022
  10   2.0000     -10.289757      -279.9985
  11   2.0000     -10.289252      -279.9848
  12   2.0000     -10.288052      -279.9521
  13   2.0000     -10.279656      -279.7237
  14   2.0000     -10.279167      -279.7104
  15   2.0000     -10.275814      -279.6191
  16   2.0000      -8.087169      -220.0630
  17   2.0000      -8.075304      -219.7402
  18   2.0000      -6.045584      -164.5087
  19   2.0000      -6.041569      -164.3995
  20   2.0000      -6.037953      -164.3010
  21   2.0000      -6.034091      -164.1960
  22   2.0000      -6.029726      -164.0772
  23   2.0000      -6.025710      -163.9679
  24   2.0000      -1.017317       -27.6826
  25   2.0000      -0.992892       -27.0180
  26   2.0000      -0.920850       -25.0576
  27   2.0000      -0.911328       -24.7985
  28   2.0000      -0.878220       -23.8976
  29   2.0000      -0.859060       -23.3762
  30   2.0000      -0.840092       -22.8601
  31   2.0000      -0.822472       -22.3806
  32   2.0000      -0.781265       -21.2593
  33   2.0000      -0.771579       -20.9957
  34   2.0000      -0.710281       -19.3277
  35   2.0000      -0.705353       -19.1936
  36   2.0000      -0.695682       -18.9305
  37   2.0000      -0.666738       -18.1429
  38   2.0000      -0.640486       -17.4285
  39   2.0000      -0.623953       -16.9786
  40   2.0000      -0.602877       -16.4051
  41   2.0000      -0.573390       -15.6027
  42   2.0000      -0.569377       -15.4935
  43   2.0000      -0.557623       -15.1737
  44   2.0000      -0.527599       -14.3567
  45   2.0000      -0.523762       -14.2523
  46   2.0000      -0.520924       -14.1751
  47   2.0000      -0.518459       -14.1080
  48   2.0000      -0.516919       -14.0661
  49   2.0000      -0.501824       -13.6553
  50   2.0000      -0.495897       -13.4940
  51   2.0000      -0.489151       -13.3105
  52   2.0000      -0.471031       -12.8174
  53   2.0000      -0.466327       -12.6894
  54   2.0000      -0.456735       -12.4284
  55   2.0000      -0.454793       -12.3756
  56   2.0000      -0.449867       -12.2415
  57   2.0000      -0.438658       -11.9365
  58   2.0000      -0.434751       -11.8302
  59   2.0000      -0.423293       -11.5184
  60   2.0000      -0.416496       -11.3334
  61   2.0000      -0.412491       -11.2245
  62   2.0000      -0.396742       -10.7959
  63   2.0000      -0.366995        -9.9864
  64   2.0000      -0.335538        -9.1304
  65   2.0000      -0.319059        -8.6820
  66   2.0000      -0.287053        -7.8111
  67   0.0000       0.018209         0.4955
  68   0.0000       0.078723         2.1422
  69   0.0000       0.109707         2.9853
  70   0.0000       0.116021         3.1571
  71   0.0000       0.135849         3.6966

MULLIKEN ATOMIC CHARGES
-----------------------
   0 S :    0.074228
   1 C :   -0.096029
   2 C :   -0.120880
   3 C :   -0.018251
   4 C :   -0.080376
   5 H :    0.009085
   6 C :    0.055813
   7 H :    0.009831
   8 H :    0.018390
   9 C :   -0.030783
  10 H :    0.010304
  11 H :    0.013610
  12 C :   -0.021835
  13 H :    0.032537
  14 H :    0.018664
  15 H :    0.022672
  16 S :    0.133915
  17 C :   -0.073743
  18 C :   -0.045037
  19 C :   -0.005476
  20 C :   -0.152293
  21 H :    0.002923
  22 C :    0.045998
  23 H :   -0.000842
  24 H :    0.009321
  25 C :   -0.072531
  26 H :    0.027921
  27 H :    0.064376
  28 C :   -0.047793
  29 H :    0.036739
  30 H :    0.026987
  31 H :    0.028557
  32 H :    0.070242
  33 H :    0.053755
Sum of atomic charges:    0.0000000

LOEWDIN ATOMIC CHARGES
----------------------
   0 S :    0.396214
   1 C :   -0.206199
   2 C :   -0.061561
   3 C :   -0.080584
   4 C :   -0.183380
   5 H :    0.024500
   6 C :   -0.033155
   7 H :    0.022872
   8 H :    0.027258
   9 C :   -0.042097
  10 H :    0.020827
  11 H :    0.023002
  12 C :   -0.067313
  13 H :    0.031870
  14 H :    0.022927
  15 H :    0.023519
  16 S :    0.446670
  17 C :   -0.200055
  18 C :   -0.067592
  19 C :   -0.050194
  20 C :   -0.204118
  21 H :    0.024045
  22 C :   -0.032910
  23 H :    0.022311
  24 H :    0.029530
  25 C :   -0.039351
  26 H :    0.023322
  27 H :    0.038961
  28 C :   -0.071480
  29 H :    0.027322
  30 H :    0.024819
  31 H :    0.028358
  32 H :    0.045330
  33 H :    0.036333

  Mayer bond orders larger than 0.100000
B(  0-S ,  1-C ) :   1.1214 B(  0-S ,  4-C ) :   1.1378 B(  1-C ,  2-C ) :   1.6141
B(  1-C , 32-H ) :   0.9693 B(  2-C ,  3-C ) :   1.2372 B(  2-C ,  6-C ) :   1.0244
B(  3-C ,  4-C ) :   1.5553 B(  3-C ,  5-H ) :   0.9958 B(  4-C , 20-C ) :   1.0923
B(  6-C ,  7-H ) :   0.9425 B(  6-C ,  8-H ) :   0.9461 B(  6-C ,  9-C ) :   1.0547
B(  9-C , 10-H ) :   0.9503 B(  9-C , 11-H ) :   0.9521 B(  9-C , 12-C ) :   1.0921
B( 12-C , 13-H ) :   0.9711 B( 12-C , 14-H ) :   0.9711 B( 12-C , 15-H ) :   0.9707
B( 16-S , 17-C ) :   1.1677 B( 16-S , 20-C ) :   1.1569 B( 17-C , 18-C ) :   1.5813
B( 17-C , 20-C ) :   0.1059 B( 17-C , 33-H ) :   0.9668 B( 18-C , 19-C ) :   1.2965
B( 18-C , 21-H ) :   0.9868 B( 19-C , 20-C ) :   1.5209 B( 19-C , 22-C ) :   1.0419
B( 22-C , 23-H ) :   0.9377 B( 22-C , 24-H ) :   0.9243 B( 22-C , 25-C ) :   1.0574
B( 25-C , 26-H ) :   0.9518 B( 25-C , 27-H ) :   0.9538 B( 25-C , 28-C ) :   1.0774
B( 28-C , 29-H ) :   0.9711 B( 28-C , 30-H ) :   0.9722 B( 28-C , 31-H ) :   0.9686

Dispersion correction           -0.014116348
FINAL SINGLE POINT ENERGY     -1339.859167821885

DIPOLE MOMENT
-------------
                                X             Y             Z
Electronic contribution:      3.57290       7.30234      28.40780
Nuclear contribution   :     -3.96178      -7.15300     -29.01315
                        -----------------------------------------
Total Dipole Moment    :     -0.38888       0.14934      -0.60535
                        -----------------------------------------
Magnitude (a.u.)       :      0.73483
Magnitude (Debye)      :      1.86780

Rotational constants in cm-1:     0.018862     0.008442     0.006675
Rotational constants in MHz :   565.455551   253.079434   200.124243

                             ****ORCA TERMINATED NORMALLY****
TOTAL RUN TIME: 0 days 0 hours 0 minutes 20 seconds 683 msec
