                         Program Version 4.2.1 -  RELEASE  -
|  1> ! wB97X-D3 SP def2-SVP
|  2> %pal
|  3> nprocs 24
|  4> end
|  5>
|  6> * xyz 0 1
|  7> S 	 -48.9535 	 27.8068 	 27.11
|  8> C 	 -47.6021 	 28.5762 	 26.324
|  9> C 	 -47.3516 	 29.735 	 27.0252
| 10> C 	 -48.0553 	 29.9466 	 28.2454
| 11> C 	 -48.9414 	 28.9001 	 28.4919
| 12> H 	 -47.9275 	 30.6902 	 28.9783
| 13> C 	 -46.4091 	 30.8435 	 26.6503
| 14> H 	 -46.9952 	 31.7558 	 26.4756
| 15> H 	 -46.0591 	 30.5752 	 25.6344
| 16> C 	 -45.1386 	 31.195 	 27.4597
| 17> H 	 -45.256 	 31.6136 	 28.4978
| 18> H 	 -44.6176 	 30.2792 	 27.6095
| 19> C 	 -44.1637 	 32.1972 	 26.8244
| 20> H 	 -43.2639 	 32.1793 	 27.4049
| 21> H 	 -43.9968 	 31.9765 	 25.7749
| 22> H 	 -44.5663 	 33.1618 	 26.7507
| 23> S 	 -49.9614 	 27.1755 	 30.4289
| 24> C 	 -51.331 	 27.6204 	 31.3612
| 25> C 	 -51.8589 	 28.8258 	 30.9757
| 26> C 	 -51.0713 	 29.5329 	 29.9703
| 27> C 	 -49.942 	 28.7821 	 29.5561
| 28> H 	 -52.8276 	 29.1196 	 31.334
| 29> C 	 -51.4038 	 30.883 	 29.3777
| 30> H 	 -52.3567 	 30.8933 	 28.8317
| 31> H 	 -50.5911 	 31.1828 	 28.6524
| 32> C 	 -51.3672 	 31.912 	 30.4794
| 33> H 	 -50.3621 	 31.6906 	 30.9224
| 34> H 	 -52.0166 	 31.6546 	 31.2913
| 35> C 	 -51.4849 	 33.4015 	 30.0892
| 36> H 	 -51.6327 	 34.0205 	 30.9049
| 37> H 	 -52.2629 	 33.6731 	 29.3321
| 38> H 	 -50.5302 	 33.6707 	 29.7067
| 39> H 	 -47.2643 	 28.2332 	 25.3688
| 40> H 	 -51.9232 	 26.904 	 31.8878
| 41> *
| 42>
| 43>                          ****END OF INPUT****

CARTESIAN COORDINATES (ANGSTROEM)
---------------------------------
  S    -48.953500   27.806800   27.110000
  C    -47.602100   28.576200   26.324000
  C    -47.351600   29.735000   27.025200
  C    -48.055300   29.946600   28.245400
  C    -48.941400   28.900100   28.491900
  H    -47.927500   30.690200   28.978300
  C    -46.409100   30.843500   26.650300
  H    -46.995200   31.755800   26.475600
  H    -46.059100   30.575200   25.634400
  C    -45.138600   31.195000   27.459700
  H    -45.256000   31.613600   28.497800
  H    -44.617600   30.279200   27.609500
  C    -44.163700   32.197200   26.824400
  H    -43.263900   32.179300   27.404900
  H    -43.996800   31.976500   25.774900
  H    -44.566300   33.161800   26.750700
  S    -49.961400   27.175500   30.428900
  C    -51.331000   27.620400   31.361200
  C    -51.858900   28.825800   30.975700
  C    -51.071300   29.532900   29.970300
  C    -49.942000   28.782100   29.556100
  H    -52.827600   29.119600   31.334000
  C    -51.403800   30.883000   29.377700
  H    -52.356700   30.893300   28.831700
  H    -50.591100   31.182800   28.652400
  C    -51.367200   31.912000   30.479400
  H    -50.362100   31.690600   30.922400
  H    -52.016600   31.654600   31.291300
  C    -51.484900   33.401500   30.089200
  H    -51.632700   34.020500   30.904900
  H    -52.262900   33.673100   29.332100
  H    -50.530200   33.670700   29.706700
  H    -47.264300   28.233200   25.368800
  H    -51.923200   26.904000   31.887800

 Total Charge           Charge          ....    0
 Multiplicity           Mult            ....    1
 Number of Electrons    NEL             ....  134
 Basis Dimension        Dim             ....  322

ORBITAL ENERGIES
----------------

  NO   OCC          E(Eh)            E(eV)
   0   2.0000     -88.963737     -2420.8263
   1   2.0000     -88.962402     -2420.7900
   2   2.0000     -10.335794      -281.2513
   3   2.0000     -10.333764      -281.1960
   4   2.0000     -10.317853      -280.7630
   5   2.0000     -10.315324      -280.6942
   6   2.0000     -10.314929      -280.6835
   7   2.0000     -10.303163      -280.3633
   8   2.0000     -10.296984      -280.1952
   9   2.0000     -10.294505      -280.1277
  10   2.0000     -10.292706      -280.0788
  11   2.0000     -10.292018      -280.0600
  12   2.0000     -10.287392      -279.9342
  13   2.0000     -10.284443      -279.8539
  14   2.0000     -10.274221      -279.5758
  15   2.0000     -10.271849      -279.5112
  16   2.0000      -8.078642      -219.8310
  17   2.0000      -8.076906      -219.7838
  18   2.0000      -6.037165      -164.2796
  19   2.0000      -6.035394      -164.2314
  20   2.0000      -6.032989      -164.1660
  21   2.0000      -6.031438      -164.1238
  22   2.0000      -6.029474      -164.0703
  23   2.0000      -6.027684      -164.0216
  24   2.0000      -1.003806       -27.3150
  25   2.0000      -0.982296       -26.7296
  26   2.0000      -0.913370       -24.8541
  27   2.0000      -0.907700       -24.6998
  28   2.0000      -0.871847       -23.7242
  29   2.0000      -0.852976       -23.2107
  30   2.0000      -0.845653       -23.0114
  31   2.0000      -0.817321       -22.2404
  32   2.0000      -0.785656       -21.3788
  33   2.0000      -0.771644       -20.9975
  34   2.0000      -0.707922       -19.2635
  35   2.0000      -0.699426       -19.0323
  36   2.0000      -0.696713       -18.9585
  37   2.0000      -0.657332       -17.8869
  38   2.0000      -0.649899       -17.6847
  39   2.0000      -0.621266       -16.9055
  40   2.0000      -0.598480       -16.2855
  41   2.0000      -0.569919       -15.5083
  42   2.0000      -0.565793       -15.3960
  43   2.0000      -0.556852       -15.1527
  44   2.0000      -0.533616       -14.5204
  45   2.0000      -0.527725       -14.3601
  46   2.0000      -0.522470       -14.2171
  47   2.0000      -0.518114       -14.0986
  48   2.0000      -0.506827       -13.7915
  49   2.0000      -0.502657       -13.6780
  50   2.0000      -0.497498       -13.5376
  51   2.0000      -0.474457       -12.9106
  52   2.0000      -0.469840       -12.7850
  53   2.0000      -0.463957       -12.6249
  54   2.0000      -0.459912       -12.5148
  55   2.0000      -0.454210       -12.3597
  56   2.0000      -0.446545       -12.1511
  57   2.0000      -0.435500       -11.8506
  58   2.0000      -0.433095       -11.7851
  59   2.0000      -0.419054       -11.4030
  60   2.0000      -0.415983       -11.3195
  61   2.0000      -0.411026       -11.1846
  62   2.0000      -0.410378       -11.1670
  63   2.0000      -0.343207        -9.3391
  64   2.0000      -0.331680        -9.0255
  65   2.0000      -0.325877        -8.8676
  66   2.0000      -0.300307        -8.1718
  67   0.0000       0.027106         0.7376
  68   0.0000       0.063179         1.7192
  69   0.0000       0.111517         3.0345
  70   0.0000       0.117097         3.1864
  71   0.0000       0.126291         3.4366

MULLIKEN ATOMIC CHARGES
-----------------------
   0 S :    0.101439
   1 C :   -0.109592
   2 C :   -0.073796
   3 C :    0.043787
   4 C :   -0.124864
   5 H :    0.004151
   6 C :    0.054209
   7 H :    0.032534
   8 H :    0.002796
   9 C :   -0.073254
  10 H :    0.030617
  11 H :    0.022283
  12 C :   -0.025183
  13 H :    0.039565
  14 H :    0.016001
  15 H :    0.016455
  16 S :    0.087244
  17 C :   -0.061080
  18 C :   -0.041755
  19 C :   -0.035735
  20 C :   -0.188820
  21 H :    0.017359
  22 C :    0.086682
  23 H :    0.037330
  24 H :    0.029938
  25 C :   -0.133649
  26 H :    0.028193
  27 H :    0.022707
  28 C :    0.015161
  29 H :    0.016800
  30 H :    0.037379
  31 H :    0.017173
  32 H :    0.049181
  33 H :    0.058744
Sum of atomic charges:   -0.0000000

LOEWDIN ATOMIC CHARGES
----------------------
   0 S :    0.407550
   1 C :   -0.193936
   2 C :   -0.065504
   3 C :   -0.054646
   4 C :   -0.188125
   5 H :    0.027253
   6 C :   -0.040276
   7 H :    0.032156
   8 H :    0.027867
   9 C :   -0.043134
  10 H :    0.026945
  11 H :    0.020052
  12 C :   -0.057129
  13 H :    0.029094
  14 H :    0.021788
  15 H :    0.016839
  16 S :    0.387795
  17 C :   -0.187868
  18 C :   -0.072700
  19 C :   -0.039905
  20 C :   -0.183858
  21 H :    0.028823
  22 C :   -0.033780
  23 H :    0.030416
  24 H :    0.036576
  25 C :   -0.047043
  26 H :    0.030254
  27 H :    0.015026
  28 C :   -0.060549
  29 H :    0.018454
  30 H :    0.031751
  31 H :    0.022687
  32 H :    0.028548
  33 H :    0.028579

  Mayer bond orders larger than 0.100000
B(  0-S ,  1-C ) :   1.1315 B(  0-S ,  4-C ) :   1.1695 B(  1-C ,  2-C ) :   1.5846
B(  1-C , 32-H ) :   0.9791 B(  2-C ,  3-C ) :   1.2250 B(  2-C ,  6-C ) :   1.0401
B(  3-C ,  4-C ) :   1.5518 B(  3-C ,  5-H ) :   1.0129 B(  4-C , 20-C ) :   1.0388
B(  6-C ,  7-H ) :   0.9365 B(  6-C ,  8-H ) :   0.9350 B(  6-C ,  9-C ) :   1.0580
B(  9-C , 10-H ) :   0.9530 B(  9-C , 11-H ) :   0.9556 B(  9-C , 12-C ) :   1.0882
B( 12-C , 13-H ) :   0.9744 B( 12-C , 14-H ) :   0.9726 B( 12-C , 15-H ) :   0.9752
B( 16-S , 17-C ) :   1.1631 B( 16-S , 20-C ) :   1.1255 B( 17-C , 18-C ) :   1.6234
B( 17-C , 33-H ) :   0.9619 B( 18-C , 19-C ) :   1.2224 B( 18-C , 21-H ) :   0.9893
B( 19-C , 20-C ) :   1.5857 B( 19-C , 22-C ) :   1.0491 B( 22-C , 23-H ) :   0.9284
B( 22-C , 24-H ) :   0.9381 B( 22-C , 25-C ) :   1.0446 B( 25-C , 26-H ) :   0.9540
B( 25-C , 27-H ) :   0.9635 B( 25-C , 28-C ) :   1.0744 B( 28-C , 29-H ) :   0.9719
B( 28-C , 30-H ) :   0.9749 B( 28-C , 31-H ) :   0.9727

Dispersion correction           -0.013593956
FINAL SINGLE POINT ENERGY     -1339.869600906870

DIPOLE MOMENT
-------------
                                X             Y             Z
Electronic contribution:     -8.78320     -28.68990       2.10108
Nuclear contribution   :      8.66726      29.31684      -2.21601
                        -----------------------------------------
Total Dipole Moment    :     -0.11595       0.62693      -0.11494
                        -----------------------------------------
Magnitude (a.u.)       :      0.64784
Magnitude (Debye)      :      1.64669

Rotational constants in cm-1:     0.017030     0.008282     0.006292
Rotational constants in MHz :   510.541137   248.292677   188.624694

                             ****ORCA TERMINATED NORMALLY****
TOTAL RUN TIME: 0 days 0 hours 0 minutes 20 seconds 906 msec
