                         Program Version 4.2.1 -  RELEASE  -
|  1> ! wB97X-D3 SP def2-SVP
|  2> %pal
|  3> nprocs 24
|  4> end
|  5>
|  6> * xyz 0 1
|  7> S 	 -108.506 	 3.21033 	 -107.661
|  8> C 	 -107.679 	 4.78859 	 -107.578
|  9> C 	 -106.511 	 4.76691 	 -106.729
| 10> C 	 -106.304 	 3.49476 	 -106.157
| 11> C 	 -107.17 	 2.56553 	 -106.651
| 12> H 	 -105.549 	 3.18045 	 -105.548
| 13> C 	 -105.646 	 5.93453 	 -106.299
| 14> H 	 -105.743 	 6.00746 	 -105.247
| 15> H 	 -106.025 	 6.82537 	 -106.735
| 16> C 	 -104.232 	 5.71988 	 -106.617
| 17> H 	 -103.883 	 4.87839 	 -105.968
| 18> H 	 -103.936 	 5.3999 	 -107.652
| 19> C 	 -103.31 	 6.75217 	 -106.023
| 20> H 	 -103.408 	 6.84773 	 -104.925
| 21> H 	 -102.286 	 6.49518 	 -105.933
| 22> H 	 -103.445 	 7.66727 	 -106.573
| 23> S 	 -105.769 	 0.330983 	 -106.11
| 24> C 	 -106.496 	 -1.02035 	 -105.295
| 25> C 	 -107.833 	 -0.768034 	 -105.128
| 26> C 	 -108.292 	 0.451739 	 -105.662
| 27> C 	 -107.229 	 1.2144 	 -106.175
| 28> H 	 -108.4 	 -1.49575 	 -104.578
| 29> C 	 -109.744 	 0.741482 	 -105.554
| 30> H 	 -109.866 	 1.85943 	 -105.81
| 31> H 	 -109.954 	 0.61503 	 -104.472
| 32> C 	 -110.705 	 -0.20978 	 -106.332
| 33> H 	 -110.582 	 -1.23395 	 -105.999
| 34> H 	 -110.346 	 -0.250499 	 -107.365
| 35> C 	 -112.17 	 0.331415 	 -106.385
| 36> H 	 -112.327 	 1.42703 	 -106.346
| 37> H 	 -112.688 	 0.0117642 	 -105.514
| 38> H 	 -112.675 	 -0.036534 	 -107.273
| 39> H 	 -107.931 	 5.69947 	 -108.111
| 40> H 	 -105.967 	 -1.82598 	 -104.713
| 41> *
| 42>
| 43>                          ****END OF INPUT****

CARTESIAN COORDINATES (ANGSTROEM)
---------------------------------
  S    -108.506000    3.210330  -107.661000
  C    -107.679000    4.788590  -107.578000
  C    -106.511000    4.766910  -106.729000
  C    -106.304000    3.494760  -106.157000
  C    -107.170000    2.565530  -106.651000
  H    -105.549000    3.180450  -105.548000
  C    -105.646000    5.934530  -106.299000
  H    -105.743000    6.007460  -105.247000
  H    -106.025000    6.825370  -106.735000
  C    -104.232000    5.719880  -106.617000
  H    -103.883000    4.878390  -105.968000
  H    -103.936000    5.399900  -107.652000
  C    -103.310000    6.752170  -106.023000
  H    -103.408000    6.847730  -104.925000
  H    -102.286000    6.495180  -105.933000
  H    -103.445000    7.667270  -106.573000
  S    -105.769000    0.330983  -106.110000
  C    -106.496000   -1.020350  -105.295000
  C    -107.833000   -0.768034  -105.128000
  C    -108.292000    0.451739  -105.662000
  C    -107.229000    1.214400  -106.175000
  H    -108.400000   -1.495750  -104.578000
  C    -109.744000    0.741482  -105.554000
  H    -109.866000    1.859430  -105.810000
  H    -109.954000    0.615030  -104.472000
  C    -110.705000   -0.209780  -106.332000
  H    -110.582000   -1.233950  -105.999000
  H    -110.346000   -0.250499  -107.365000
  C    -112.170000    0.331415  -106.385000
  H    -112.327000    1.427030  -106.346000
  H    -112.688000    0.011764  -105.514000
  H    -112.675000   -0.036534  -107.273000
  H    -107.931000    5.699470  -108.111000
  H    -105.967000   -1.825980  -104.713000

 Total Charge           Charge          ....    0
 Multiplicity           Mult            ....    1
 Number of Electrons    NEL             ....  134
 Basis Dimension        Dim             ....  322

ORBITAL ENERGIES
----------------

  NO   OCC          E(Eh)            E(eV)
   0   2.0000     -88.974263     -2421.1128
   1   2.0000     -88.963242     -2420.8129
   2   2.0000     -10.328382      -281.0496
   3   2.0000     -10.322020      -280.8765
   4   2.0000     -10.321103      -280.8515
   5   2.0000     -10.313553      -280.6460
   6   2.0000     -10.305507      -280.4271
   7   2.0000     -10.295841      -280.1641
   8   2.0000     -10.293254      -280.0937
   9   2.0000     -10.289211      -279.9837
  10   2.0000     -10.285941      -279.8947
  11   2.0000     -10.285719      -279.8886
  12   2.0000     -10.285340      -279.8783
  13   2.0000     -10.285290      -279.8770
  14   2.0000     -10.276641      -279.6416
  15   2.0000     -10.273642      -279.5600
  16   2.0000      -8.086978      -220.0579
  17   2.0000      -8.078839      -219.8364
  18   2.0000      -6.045523      -164.5071
  19   2.0000      -6.041960      -164.4101
  20   2.0000      -6.037634      -164.2924
  21   2.0000      -6.037316      -164.2837
  22   2.0000      -6.033110      -164.1693
  23   2.0000      -6.029694      -164.0763
  24   2.0000      -1.010470       -27.4963
  25   2.0000      -0.981607       -26.7109
  26   2.0000      -0.925470       -25.1833
  27   2.0000      -0.904318       -24.6078
  28   2.0000      -0.871389       -23.7117
  29   2.0000      -0.857407       -23.3312
  30   2.0000      -0.846591       -23.0369
  31   2.0000      -0.815972       -22.2037
  32   2.0000      -0.783790       -21.3280
  33   2.0000      -0.766717       -20.8634
  34   2.0000      -0.709784       -19.3142
  35   2.0000      -0.699557       -19.0359
  36   2.0000      -0.690509       -18.7897
  37   2.0000      -0.666060       -18.1244
  38   2.0000      -0.639655       -17.4059
  39   2.0000      -0.625936       -17.0326
  40   2.0000      -0.590424       -16.0663
  41   2.0000      -0.580570       -15.7981
  42   2.0000      -0.563652       -15.3377
  43   2.0000      -0.555799       -15.1241
  44   2.0000      -0.531632       -14.4665
  45   2.0000      -0.524015       -14.2592
  46   2.0000      -0.518385       -14.1060
  47   2.0000      -0.512894       -13.9566
  48   2.0000      -0.507687       -13.8149
  49   2.0000      -0.503867       -13.7109
  50   2.0000      -0.491039       -13.3619
  51   2.0000      -0.479169       -13.0389
  52   2.0000      -0.473998       -12.8981
  53   2.0000      -0.467218       -12.7136
  54   2.0000      -0.459687       -12.5087
  55   2.0000      -0.450393       -12.2558
  56   2.0000      -0.438126       -11.9220
  57   2.0000      -0.435055       -11.8384
  58   2.0000      -0.430464       -11.7135
  59   2.0000      -0.428228       -11.6527
  60   2.0000      -0.420927       -11.4540
  61   2.0000      -0.411757       -11.2045
  62   2.0000      -0.404007       -10.9936
  63   2.0000      -0.350837        -9.5468
  64   2.0000      -0.334834        -9.1113
  65   2.0000      -0.325789        -8.8652
  66   2.0000      -0.283229        -7.7071
  67   0.0000       0.024827         0.6756
  68   0.0000       0.077313         2.1038
  69   0.0000       0.095174         2.5898
  70   0.0000       0.122965         3.3461
  71   0.0000       0.134017         3.6468

MULLIKEN ATOMIC CHARGES
-----------------------
   0 S :    0.114243
   1 C :   -0.114704
   2 C :   -0.095378
   3 C :    0.036770
   4 C :   -0.126788
   5 H :   -0.014719
   6 C :    0.169894
   7 H :    0.019340
   8 H :   -0.000782
   9 C :   -0.131364
  10 H :    0.022952
  11 H :    0.047459
  12 C :   -0.028711
  13 H :    0.019000
  14 H :    0.019687
  15 H :    0.032024
  16 S :    0.104692
  17 C :   -0.113862
  18 C :   -0.053531
  19 C :   -0.013762
  20 C :   -0.164248
  21 H :    0.012177
  22 C :    0.014461
  23 H :    0.036459
  24 H :    0.034349
  25 C :   -0.064015
  26 H :    0.031031
  27 H :    0.027711
  28 C :   -0.038663
  29 H :    0.035554
  30 H :    0.022531
  31 H :    0.038351
  32 H :    0.044652
  33 H :    0.077190
Sum of atomic charges:    0.0000000

LOEWDIN ATOMIC CHARGES
----------------------
   0 S :    0.392354
   1 C :   -0.197575
   2 C :   -0.045661
   3 C :   -0.047891
   4 C :   -0.167788
   5 H :    0.014878
   6 C :   -0.023599
   7 H :    0.034032
   8 H :    0.022164
   9 C :   -0.052236
  10 H :    0.029334
  11 H :    0.032651
  12 C :   -0.068617
  13 H :    0.030614
  14 H :    0.023637
  15 H :    0.019762
  16 S :    0.431312
  17 C :   -0.211255
  18 C :   -0.070431
  19 C :   -0.069863
  20 C :   -0.211988
  21 H :    0.027784
  22 C :   -0.046700
  23 H :    0.025277
  24 H :    0.034581
  25 C :   -0.037054
  26 H :    0.023642
  27 H :    0.024581
  28 C :   -0.066002
  29 H :    0.031613
  30 H :    0.020231
  31 H :    0.027807
  32 H :    0.025926
  33 H :    0.044479

  Mayer bond orders larger than 0.100000
B(  0-S ,  1-C ) :   1.1243 B(  0-S ,  4-C ) :   1.1257 B(  1-C ,  2-C ) :   1.6099
B(  1-C , 32-H ) :   0.9645 B(  2-C ,  3-C ) :   1.2224 B(  2-C ,  6-C ) :   1.0314
B(  3-C ,  4-C ) :   1.5879 B(  3-C ,  5-H ) :   0.9967 B(  4-C , 20-C ) :   1.0465
B(  6-C ,  7-H ) :   0.9273 B(  6-C ,  8-H ) :   0.9319 B(  6-C ,  9-C ) :   1.0657
B(  9-C , 10-H ) :   0.9500 B(  9-C , 11-H ) :   0.9579 B(  9-C , 12-C ) :   1.0849
B( 12-C , 13-H ) :   0.9664 B( 12-C , 14-H ) :   0.9704 B( 12-C , 15-H ) :   0.9739
B( 16-S , 17-C ) :   1.1502 B( 16-S , 20-C ) :   1.1660 B( 17-C , 18-C ) :   1.6035
B( 17-C , 33-H ) :   0.9575 B( 18-C , 19-C ) :   1.2600 B( 18-C , 21-H ) :   0.9908
B( 19-C , 20-C ) :   1.5266 B( 19-C , 22-C ) :   1.0511 B( 22-C , 23-H ) :   0.9295
B( 22-C , 24-H ) :   0.9290 B( 22-C , 25-C ) :   1.0510 B( 25-C , 26-H ) :   0.9551
B( 25-C , 27-H ) :   0.9612 B( 25-C , 28-C ) :   1.0672 B( 28-C , 29-H ) :   0.9770
B( 28-C , 30-H ) :   0.9767 B( 28-C , 31-H ) :   0.9789

Dispersion correction           -0.013727546
FINAL SINGLE POINT ENERGY     -1339.853263179645

DIPOLE MOMENT
-------------
                                X             Y             Z
Electronic contribution:      2.95931      -9.34502      -4.85636
Nuclear contribution   :     -2.94792       9.53170       5.29037
                        -----------------------------------------
Total Dipole Moment    :      0.01140       0.18669       0.43401
                        -----------------------------------------
Magnitude (a.u.)       :      0.47260
Magnitude (Debye)      :      1.20125

Rotational constants in cm-1:     0.022386     0.007736     0.006068
Rotational constants in MHz :   671.128535   231.923299   181.921193

                             ****ORCA TERMINATED NORMALLY****
TOTAL RUN TIME: 0 days 0 hours 0 minutes 21 seconds 225 msec
