                         Program Version 4.2.1 -  RELEASE  -
|  1> ! wB97X-D3 SP def2-SVP
|  2> %pal
|  3> nprocs 24
|  4> end
|  5>
|  6> * xyz 0 1
|  7> S 	 19.9087 	 -20.8081 	 -122.558
|  8> C 	 20.772 	 -21.0172 	 -123.963
|  9> C 	 21.8533 	 -20.1543 	 -124.083
| 10> C 	 21.9738 	 -19.3664 	 -122.921
| 11> C 	 21.0883 	 -19.6211 	 -121.969
| 12> H 	 22.7999 	 -18.6665 	 -122.774
| 13> C 	 22.8668 	 -20.0584 	 -125.143
| 14> H 	 23.8322 	 -19.7653 	 -124.724
| 15> H 	 22.7183 	 -19.1966 	 -125.742
| 16> C 	 23.0249 	 -21.3208 	 -125.972
| 17> H 	 23.0865 	 -22.1635 	 -125.262
| 18> H 	 22.1055 	 -21.6009 	 -126.539
| 19> C 	 24.1917 	 -21.4012 	 -126.96
| 20> H 	 24.2399 	 -20.4956 	 -127.634
| 21> H 	 25.1891 	 -21.3881 	 -126.541
| 22> H 	 24.0177 	 -22.2421 	 -127.628
| 23> S 	 20.7955 	 -20.1583 	 -119.298
| 24> C 	 20.8156 	 -18.939 	 -118.086
| 25> C 	 21.1317 	 -17.7165 	 -118.658
| 26> C 	 21.329 	 -17.7632 	 -120.112
| 27> C 	 21.0547 	 -19.0135 	 -120.657
| 28> H 	 21.2049 	 -16.8868 	 -118.02
| 29> C 	 21.7062 	 -16.5133 	 -120.895
| 30> H 	 20.7514 	 -16.0018 	 -121.035
| 31> H 	 22.0293 	 -16.6745 	 -121.908
| 32> C 	 22.7682 	 -15.5658 	 -120.243
| 33> H 	 23.7784 	 -16.0242 	 -120.388
| 34> H 	 22.5261 	 -15.3953 	 -119.187
| 35> C 	 22.8303 	 -14.139 	 -120.937
| 36> H 	 23.4654 	 -13.461 	 -120.371
| 37> H 	 21.7907 	 -13.7039 	 -120.866
| 38> H 	 23.1431 	 -14.1989 	 -121.968
| 39> H 	 20.2913 	 -21.4668 	 -124.816
| 40> H 	 20.6627 	 -19.0035 	 -117.03
| 41> *
| 42>
| 43>                          ****END OF INPUT****

CARTESIAN COORDINATES (ANGSTROEM)
---------------------------------
  S     19.908700  -20.808100  -122.558000
  C     20.772000  -21.017200  -123.963000
  C     21.853300  -20.154300  -124.083000
  C     21.973800  -19.366400  -122.921000
  C     21.088300  -19.621100  -121.969000
  H     22.799900  -18.666500  -122.774000
  C     22.866800  -20.058400  -125.143000
  H     23.832200  -19.765300  -124.724000
  H     22.718300  -19.196600  -125.742000
  C     23.024900  -21.320800  -125.972000
  H     23.086500  -22.163500  -125.262000
  H     22.105500  -21.600900  -126.539000
  C     24.191700  -21.401200  -126.960000
  H     24.239900  -20.495600  -127.634000
  H     25.189100  -21.388100  -126.541000
  H     24.017700  -22.242100  -127.628000
  S     20.795500  -20.158300  -119.298000
  C     20.815600  -18.939000  -118.086000
  C     21.131700  -17.716500  -118.658000
  C     21.329000  -17.763200  -120.112000
  C     21.054700  -19.013500  -120.657000
  H     21.204900  -16.886800  -118.020000
  C     21.706200  -16.513300  -120.895000
  H     20.751400  -16.001800  -121.035000
  H     22.029300  -16.674500  -121.908000
  C     22.768200  -15.565800  -120.243000
  H     23.778400  -16.024200  -120.388000
  H     22.526100  -15.395300  -119.187000
  C     22.830300  -14.139000  -120.937000
  H     23.465400  -13.461000  -120.371000
  H     21.790700  -13.703900  -120.866000
  H     23.143100  -14.198900  -121.968000
  H     20.291300  -21.466800  -124.816000
  H     20.662700  -19.003500  -117.030000

 Total Charge           Charge          ....    0
 Multiplicity           Mult            ....    1
 Number of Electrons    NEL             ....  134
 Basis Dimension        Dim             ....  322

ORBITAL ENERGIES
----------------

  NO   OCC          E(Eh)            E(eV)
   0   2.0000     -88.965587     -2420.8767
   1   2.0000     -88.959692     -2420.7163
   2   2.0000     -10.329078      -281.0685
   3   2.0000     -10.324268      -280.9376
   4   2.0000     -10.314170      -280.6628
   5   2.0000     -10.310599      -280.5657
   6   2.0000     -10.306912      -280.4653
   7   2.0000     -10.297516      -280.2097
   8   2.0000     -10.295687      -280.1599
   9   2.0000     -10.293137      -280.0905
  10   2.0000     -10.291968      -280.0587
  11   2.0000     -10.289660      -279.9959
  12   2.0000     -10.287114      -279.9266
  13   2.0000     -10.285943      -279.8947
  14   2.0000     -10.285873      -279.8928
  15   2.0000     -10.282288      -279.7953
  16   2.0000      -8.081795      -219.9168
  17   2.0000      -8.074391      -219.7153
  18   2.0000      -6.040201      -164.3622
  19   2.0000      -6.036087      -164.2503
  20   2.0000      -6.033099      -164.1690
  21   2.0000      -6.032560      -164.1543
  22   2.0000      -6.028750      -164.0506
  23   2.0000      -6.025094      -163.9511
  24   2.0000      -1.015496       -27.6331
  25   2.0000      -0.985235       -26.8096
  26   2.0000      -0.916866       -24.9492
  27   2.0000      -0.901815       -24.5396
  28   2.0000      -0.876419       -23.8486
  29   2.0000      -0.858082       -23.3496
  30   2.0000      -0.841957       -22.9108
  31   2.0000      -0.818344       -22.2683
  32   2.0000      -0.782205       -21.2849
  33   2.0000      -0.771101       -20.9827
  34   2.0000      -0.714546       -19.4438
  35   2.0000      -0.701684       -19.0938
  36   2.0000      -0.692655       -18.8481
  37   2.0000      -0.661734       -18.0067
  38   2.0000      -0.643533       -17.5114
  39   2.0000      -0.623737       -16.9728
  40   2.0000      -0.597484       -16.2584
  41   2.0000      -0.573790       -15.6136
  42   2.0000      -0.564245       -15.3539
  43   2.0000      -0.562514       -15.3068
  44   2.0000      -0.529785       -14.4162
  45   2.0000      -0.522564       -14.2197
  46   2.0000      -0.521171       -14.1818
  47   2.0000      -0.517380       -14.0786
  48   2.0000      -0.504360       -13.7243
  49   2.0000      -0.499711       -13.5978
  50   2.0000      -0.489108       -13.3093
  51   2.0000      -0.485487       -13.2108
  52   2.0000      -0.470817       -12.8116
  53   2.0000      -0.466196       -12.6858
  54   2.0000      -0.461341       -12.5537
  55   2.0000      -0.452873       -12.3233
  56   2.0000      -0.448645       -12.2083
  57   2.0000      -0.434377       -11.8200
  58   2.0000      -0.431429       -11.7398
  59   2.0000      -0.427601       -11.6356
  60   2.0000      -0.424441       -11.5496
  61   2.0000      -0.412614       -11.2278
  62   2.0000      -0.409577       -11.1451
  63   2.0000      -0.360838        -9.8189
  64   2.0000      -0.328964        -8.9516
  65   2.0000      -0.323395        -8.8000
  66   2.0000      -0.288052        -7.8383
  67   0.0000       0.031350         0.8531
  68   0.0000       0.074097         2.0163
  69   0.0000       0.111398         3.0313
  70   0.0000       0.122144         3.3237
  71   0.0000       0.134034         3.6473

MULLIKEN ATOMIC CHARGES
-----------------------
   0 S :    0.132810
   1 C :   -0.118677
   2 C :   -0.099391
   3 C :   -0.010421
   4 C :   -0.116466
   5 H :    0.015143
   6 C :    0.117812
   7 H :    0.011806
   8 H :    0.017625
   9 C :   -0.117583
  10 H :    0.034085
  11 H :    0.029626
  12 C :   -0.036538
  13 H :    0.022285
  14 H :    0.034129
  15 H :    0.037129
  16 S :    0.086514
  17 C :   -0.064594
  18 C :   -0.045637
  19 C :   -0.006779
  20 C :   -0.150868
  21 H :   -0.000088
  22 C :    0.060388
  23 H :    0.036408
  24 H :    0.007518
  25 C :   -0.113414
  26 H :    0.046732
  27 H :    0.039558
  28 C :   -0.066319
  29 H :    0.038635
  30 H :    0.034678
  31 H :    0.038369
  32 H :    0.055833
  33 H :    0.049693
Sum of atomic charges:    0.0000000

LOEWDIN ATOMIC CHARGES
----------------------
   0 S :    0.435660
   1 C :   -0.225767
   2 C :   -0.063207
   3 C :   -0.058306
   4 C :   -0.191411
   5 H :    0.033706
   6 C :   -0.036148
   7 H :    0.033382
   8 H :    0.029747
   9 C :   -0.048269
  10 H :    0.027756
  11 H :    0.026434
  12 C :   -0.068883
  13 H :    0.027514
  14 H :    0.022757
  15 H :    0.029801
  16 S :    0.393389
  17 C :   -0.189738
  18 C :   -0.070956
  19 C :   -0.052320
  20 C :   -0.180355
  21 H :    0.019636
  22 C :   -0.036793
  23 H :    0.036387
  24 H :    0.023322
  25 C :   -0.037775
  26 H :    0.029474
  27 H :    0.021987
  28 C :   -0.067129
  29 H :    0.025670
  30 H :    0.029550
  31 H :    0.021491
  32 H :    0.028163
  33 H :    0.031232

  Mayer bond orders larger than 0.100000
B(  0-S ,  1-C ) :   1.1607 B(  0-S ,  4-C ) :   1.1410 B(  1-C ,  2-C ) :   1.5933
B(  1-C , 32-H ) :   0.9582 B(  2-C ,  3-C ) :   1.2646 B(  2-C ,  6-C ) :   1.0320
B(  3-C ,  4-C ) :   1.5887 B(  3-C ,  5-H ) :   0.9940 B(  4-C , 20-C ) :   1.0465
B(  6-C ,  7-H ) :   0.9388 B(  6-C ,  8-H ) :   0.9075 B(  6-C ,  9-C ) :   1.0726
B(  9-C , 10-H ) :   0.9566 B(  9-C , 11-H ) :   0.9479 B(  9-C , 12-C ) :   1.0870
B( 12-C , 13-H ) :   0.9726 B( 12-C , 14-H ) :   0.9752 B( 12-C , 15-H ) :   0.9734
B( 16-S , 17-C ) :   1.1518 B( 16-S , 20-C ) :   1.1235 B( 17-C , 18-C ) :   1.6291
B( 17-C , 33-H ) :   0.9677 B( 18-C , 19-C ) :   1.2078 B( 18-C , 21-H ) :   0.9949
B( 19-C , 20-C ) :   1.6114 B( 19-C , 22-C ) :   1.0350 B( 22-C , 23-H ) :   0.9348
B( 22-C , 24-H ) :   0.9416 B( 22-C , 25-C ) :   1.0510 B( 25-C , 26-H ) :   0.9595
B( 25-C , 27-H ) :   0.9579 B( 25-C , 28-C ) :   1.0779 B( 28-C , 29-H ) :   0.9766
B( 28-C , 30-H ) :   0.9763 B( 28-C , 31-H ) :   0.9776

Dispersion correction           -0.013182533
FINAL SINGLE POINT ENERGY     -1339.878889759129

DIPOLE MOMENT
-------------
                                X             Y             Z
Electronic contribution:    -17.41115     -15.03447      16.55260
Nuclear contribution   :     17.80080      15.61867     -16.88744
                        -----------------------------------------
Total Dipole Moment    :      0.38965       0.58420      -0.33483
                        -----------------------------------------
Magnitude (a.u.)       :      0.77796
Magnitude (Debye)      :      1.97743

Rotational constants in cm-1:     0.018219     0.007644     0.005794
Rotational constants in MHz :   546.191372   229.159531   173.698354

                             ****ORCA TERMINATED NORMALLY****
TOTAL RUN TIME: 0 days 0 hours 0 minutes 20 seconds 774 msec
