                         Program Version 4.2.1 -  RELEASE  -
|  1> ! wB97X-D3 SP def2-SVP
|  2> %pal
|  3> nprocs 24
|  4> end
|  5>
|  6> * xyz 0 1
|  7> S 	 -38.7806 	 -51.1328 	 -72.8702
|  8> C 	 -38.6344 	 -50.0487 	 -74.202
|  9> C 	 -39.4189 	 -48.9111 	 -74.0564
| 10> C 	 -40.2999 	 -49.0551 	 -72.924
| 11> C 	 -40.1354 	 -50.2362 	 -72.1855
| 12> H 	 -41.0393 	 -48.3339 	 -72.5751
| 13> C 	 -39.5363 	 -47.772 	 -75.0464
| 14> H 	 -38.5293 	 -47.517 	 -75.4281
| 15> H 	 -39.783 	 -46.8735 	 -74.4695
| 16> C 	 -40.6495 	 -47.8753 	 -76.0588
| 17> H 	 -40.5721 	 -47.0095 	 -76.665
| 18> H 	 -40.5843 	 -48.7109 	 -76.7688
| 19> C 	 -42.0605 	 -47.8979 	 -75.4873
| 20> H 	 -42.802 	 -48.0625 	 -76.289
| 21> H 	 -42.3463 	 -48.5542 	 -74.7074
| 22> H 	 -42.3505 	 -46.9576 	 -75.0552
| 23> S 	 -39.7895 	 -51.1138 	 -69.671
| 24> C 	 -41.081 	 -50.8127 	 -68.4504
| 25> C 	 -42.3156 	 -50.5326 	 -69.075
| 26> C 	 -42.143 	 -50.2984 	 -70.4947
| 27> C 	 -40.8463 	 -50.5539 	 -70.9728
| 28> H 	 -43.2004 	 -50.4617 	 -68.4833
| 29> C 	 -43.2417 	 -49.7923 	 -71.3785
| 30> H 	 -42.9803 	 -50.1281 	 -72.3327
| 31> H 	 -43.1837 	 -48.6729 	 -71.4078
| 32> C 	 -44.5753 	 -50.3513 	 -71.0907
| 33> H 	 -44.7854 	 -50.1451 	 -70.0219
| 34> H 	 -44.5433 	 -51.4585 	 -70.9937
| 35> C 	 -45.6506 	 -49.9093 	 -71.9552
| 36> H 	 -45.6008 	 -50.4239 	 -72.9068
| 37> H 	 -45.391 	 -48.7985 	 -72.2185
| 38> H 	 -46.6152 	 -50.0003 	 -71.4619
| 39> H 	 -37.8644 	 -50.1619 	 -74.9973
| 40> H 	 -40.9897 	 -51.0406 	 -67.4486
| 41> *
| 42>
| 43>                          ****END OF INPUT****

CARTESIAN COORDINATES (ANGSTROEM)
---------------------------------
  S    -38.780600  -51.132800  -72.870200
  C    -38.634400  -50.048700  -74.202000
  C    -39.418900  -48.911100  -74.056400
  C    -40.299900  -49.055100  -72.924000
  C    -40.135400  -50.236200  -72.185500
  H    -41.039300  -48.333900  -72.575100
  C    -39.536300  -47.772000  -75.046400
  H    -38.529300  -47.517000  -75.428100
  H    -39.783000  -46.873500  -74.469500
  C    -40.649500  -47.875300  -76.058800
  H    -40.572100  -47.009500  -76.665000
  H    -40.584300  -48.710900  -76.768800
  C    -42.060500  -47.897900  -75.487300
  H    -42.802000  -48.062500  -76.289000
  H    -42.346300  -48.554200  -74.707400
  H    -42.350500  -46.957600  -75.055200
  S    -39.789500  -51.113800  -69.671000
  C    -41.081000  -50.812700  -68.450400
  C    -42.315600  -50.532600  -69.075000
  C    -42.143000  -50.298400  -70.494700
  C    -40.846300  -50.553900  -70.972800
  H    -43.200400  -50.461700  -68.483300
  C    -43.241700  -49.792300  -71.378500
  H    -42.980300  -50.128100  -72.332700
  H    -43.183700  -48.672900  -71.407800
  C    -44.575300  -50.351300  -71.090700
  H    -44.785400  -50.145100  -70.021900
  H    -44.543300  -51.458500  -70.993700
  C    -45.650600  -49.909300  -71.955200
  H    -45.600800  -50.423900  -72.906800
  H    -45.391000  -48.798500  -72.218500
  H    -46.615200  -50.000300  -71.461900
  H    -37.864400  -50.161900  -74.997300
  H    -40.989700  -51.040600  -67.448600

 Total Charge           Charge          ....    0
 Multiplicity           Mult            ....    1
 Number of Electrons    NEL             ....  134
 Basis Dimension        Dim             ....  322

ORBITAL ENERGIES
----------------

  NO   OCC          E(Eh)            E(eV)
   0   2.0000     -88.968294     -2420.9504
   1   2.0000     -88.963966     -2420.8326
   2   2.0000     -10.331285      -281.1285
   3   2.0000     -10.329581      -281.0822
   4   2.0000     -10.320564      -280.8368
   5   2.0000     -10.317010      -280.7401
   6   2.0000     -10.307891      -280.4920
   7   2.0000     -10.302753      -280.3522
   8   2.0000     -10.301531      -280.3189
   9   2.0000     -10.296473      -280.1813
  10   2.0000     -10.294948      -280.1398
  11   2.0000     -10.286114      -279.8994
  12   2.0000     -10.285211      -279.8748
  13   2.0000     -10.281412      -279.7714
  14   2.0000     -10.279809      -279.7278
  15   2.0000     -10.272881      -279.5393
  16   2.0000      -8.083056      -219.9511
  17   2.0000      -8.077913      -219.8112
  18   2.0000      -6.041611      -164.4006
  19   2.0000      -6.037515      -164.2891
  20   2.0000      -6.036593      -164.2641
  21   2.0000      -6.033819      -164.1886
  22   2.0000      -6.032559      -164.1543
  23   2.0000      -6.028500      -164.0438
  24   2.0000      -1.003561       -27.3083
  25   2.0000      -0.978197       -26.6181
  26   2.0000      -0.925875       -25.1944
  27   2.0000      -0.915708       -24.9177
  28   2.0000      -0.871627       -23.7182
  29   2.0000      -0.855737       -23.2858
  30   2.0000      -0.844979       -22.9930
  31   2.0000      -0.815158       -22.1816
  32   2.0000      -0.786264       -21.3953
  33   2.0000      -0.771955       -21.0060
  34   2.0000      -0.709202       -19.2984
  35   2.0000      -0.702988       -19.1293
  36   2.0000      -0.701509       -19.0890
  37   2.0000      -0.658766       -17.9259
  38   2.0000      -0.640210       -17.4210
  39   2.0000      -0.614663       -16.7258
  40   2.0000      -0.600331       -16.3358
  41   2.0000      -0.576102       -15.6765
  42   2.0000      -0.573216       -15.5980
  43   2.0000      -0.550908       -14.9910
  44   2.0000      -0.545552       -14.8452
  45   2.0000      -0.535545       -14.5729
  46   2.0000      -0.515373       -14.0240
  47   2.0000      -0.513898       -13.9839
  48   2.0000      -0.507814       -13.8183
  49   2.0000      -0.501329       -13.6419
  50   2.0000      -0.487136       -13.2557
  51   2.0000      -0.482798       -13.1376
  52   2.0000      -0.475298       -12.9335
  53   2.0000      -0.470116       -12.7925
  54   2.0000      -0.455643       -12.3987
  55   2.0000      -0.452555       -12.3147
  56   2.0000      -0.443433       -12.0664
  57   2.0000      -0.438286       -11.9264
  58   2.0000      -0.432602       -11.7717
  59   2.0000      -0.428491       -11.6598
  60   2.0000      -0.419154       -11.4058
  61   2.0000      -0.412205       -11.2167
  62   2.0000      -0.401942       -10.9374
  63   2.0000      -0.354805        -9.6547
  64   2.0000      -0.332346        -9.0436
  65   2.0000      -0.326177        -8.8757
  66   2.0000      -0.283279        -7.7084
  67   0.0000       0.022144         0.6026
  68   0.0000       0.067357         1.8329
  69   0.0000       0.104375         2.8402
  70   0.0000       0.116699         3.1756
  71   0.0000       0.128577         3.4988

MULLIKEN ATOMIC CHARGES
-----------------------
   0 S :    0.116342
   1 C :   -0.130312
   2 C :   -0.085394
   3 C :   -0.008309
   4 C :   -0.130527
   5 H :    0.012765
   6 C :    0.064070
   7 H :    0.028460
   8 H :    0.016524
   9 C :   -0.005650
  10 H :    0.019869
  11 H :    0.028906
  12 C :   -0.061124
  13 H :    0.030597
  14 H :    0.026877
  15 H :    0.007913
  16 S :    0.079493
  17 C :   -0.066235
  18 C :   -0.031399
  19 C :   -0.082340
  20 C :   -0.120750
  21 H :    0.022423
  22 C :    0.089467
  23 H :    0.012709
  24 H :    0.048844
  25 C :   -0.116682
  26 H :    0.013619
  27 H :    0.029158
  28 C :   -0.013474
  29 H :    0.035220
  30 H :    0.028567
  31 H :    0.043126
  32 H :    0.063461
  33 H :    0.033786
Sum of atomic charges:    0.0000000

LOEWDIN ATOMIC CHARGES
----------------------
   0 S :    0.410259
   1 C :   -0.206847
   2 C :   -0.066071
   3 C :   -0.061223
   4 C :   -0.199461
   5 H :    0.029566
   6 C :   -0.036319
   7 H :    0.033728
   8 H :    0.033786
   9 C :   -0.033767
  10 H :    0.024565
  11 H :    0.025615
  12 C :   -0.068171
  13 H :    0.032294
  14 H :    0.018712
  15 H :    0.019466
  16 S :    0.376685
  17 C :   -0.152871
  18 C :   -0.062083
  19 C :   -0.051436
  20 C :   -0.187530
  21 H :    0.029598
  22 C :   -0.035818
  23 H :    0.023346
  24 H :    0.035932
  25 C :   -0.059257
  26 H :    0.019740
  27 H :    0.030184
  28 C :   -0.063123
  29 H :    0.026053
  30 H :    0.035354
  31 H :    0.030858
  32 H :    0.037067
  33 H :    0.011168

  Mayer bond orders larger than 0.100000
B(  0-S ,  1-C ) :   1.1513 B(  0-S ,  4-C ) :   1.1393 B(  1-C ,  2-C ) :   1.5982
B(  1-C , 32-H ) :   0.9623 B(  2-C ,  3-C ) :   1.2487 B(  2-C ,  6-C ) :   1.0356
B(  3-C ,  4-C ) :   1.5512 B(  3-C ,  5-H ) :   0.9878 B(  4-C , 20-C ) :   1.0686
B(  6-C ,  7-H ) :   0.9388 B(  6-C ,  8-H ) :   0.9326 B(  6-C ,  9-C ) :   1.0742
B(  9-C , 10-H ) :   0.9480 B(  9-C , 11-H ) :   0.9573 B(  9-C , 12-C ) :   1.0778
B( 12-C , 13-H ) :   0.9703 B( 12-C , 14-H ) :   0.9732 B( 12-C , 15-H ) :   0.9704
B( 16-S , 17-C ) :   1.1513 B( 16-S , 20-C ) :   1.1174 B( 17-C , 18-C ) :   1.6125
B( 17-C , 20-C ) :   0.1007 B( 17-C , 33-H ) :   0.9729 B( 18-C , 19-C ) :   1.2172
B( 18-C , 21-H ) :   0.9929 B( 19-C , 20-C ) :   1.6025 B( 19-C , 22-C ) :   1.0387
B( 22-C , 23-H ) :   0.9296 B( 22-C , 24-H ) :   0.9119 B( 22-C , 25-C ) :   1.0802
B( 25-C , 26-H ) :   0.9413 B( 25-C , 27-H ) :   0.9465 B( 25-C , 28-C ) :   1.0932
B( 28-C , 29-H ) :   0.9691 B( 28-C , 30-H ) :   0.9685 B( 28-C , 31-H ) :   0.9685

Dispersion correction           -0.014551575
FINAL SINGLE POINT ENERGY     -1339.867309113952

DIPOLE MOMENT
-------------
                                X             Y             Z
Electronic contribution:     23.56089     -14.15842      14.49146
Nuclear contribution   :    -24.07216      14.62715     -14.71301
                        -----------------------------------------
Total Dipole Moment    :     -0.51127       0.46872      -0.22155
                        -----------------------------------------
Magnitude (a.u.)       :      0.72813
Magnitude (Debye)      :      1.85077

Rotational constants in cm-1:     0.016235     0.010356     0.006799
Rotational constants in MHz :   486.722299   310.460697   203.837282

                             ****ORCA TERMINATED NORMALLY****
TOTAL RUN TIME: 0 days 0 hours 0 minutes 22 seconds 239 msec
