                         Program Version 4.2.1 -  RELEASE  -
|  1> ! wB97X-D3 SP def2-SVP
|  2> %pal
|  3> nprocs 24
|  4> end
|  5>
|  6> * xyz 0 1
|  7> S 	 -103.908 	 -0.273552 	 -121.912
|  8> C 	 -105.076 	 -1.23715 	 -122.722
|  9> C 	 -104.81 	 -2.58837 	 -122.615
| 10> C 	 -103.721 	 -2.84985 	 -121.734
| 11> C 	 -103.085 	 -1.70807 	 -121.344
| 12> H 	 -103.273 	 -3.78275 	 -121.424
| 13> C 	 -105.616 	 -3.53653 	 -123.474
| 14> H 	 -105.057 	 -4.37477 	 -123.992
| 15> H 	 -105.808 	 -2.9135 	 -124.393
| 16> C 	 -106.893 	 -4.18003 	 -122.862
| 17> H 	 -106.572 	 -4.62115 	 -121.927
| 18> H 	 -107.484 	 -3.28696 	 -122.489
| 19> C 	 -107.756 	 -5.07431 	 -123.782
| 20> H 	 -107.988 	 -4.5316 	 -124.707
| 21> H 	 -107.145 	 -5.95587 	 -124.11
| 22> H 	 -108.731 	 -5.26294 	 -123.325
| 23> S 	 -100.459 	 -0.736777 	 -121.138
| 24> C 	 -99.5513 	 -1.25809 	 -119.754
| 25> C 	 -100.256 	 -2.07319 	 -118.91
| 26> C 	 -101.588 	 -2.23733 	 -119.374
| 27> C 	 -101.828 	 -1.65658 	 -120.583
| 28> H 	 -99.8498 	 -2.22637 	 -117.87
| 29> C 	 -102.642 	 -2.9013 	 -118.423
| 30> H 	 -103.685 	 -2.38369 	 -118.425
| 31> H 	 -102.435 	 -2.69039 	 -117.43
| 32> C 	 -102.928 	 -4.41632 	 -118.578
| 33> H 	 -103.48 	 -4.47116 	 -119.556
| 34> H 	 -103.628 	 -4.81033 	 -117.802
| 35> C 	 -101.75 	 -5.36208 	 -118.509
| 36> H 	 -101.109 	 -5.30532 	 -119.393
| 37> H 	 -102.082 	 -6.3836 	 -118.643
| 38> H 	 -101.032 	 -5.17754 	 -117.703
| 39> H 	 -105.853 	 -0.800489 	 -123.327
| 40> H 	 -98.6435 	 -0.889046 	 -119.457
| 41> *
| 42>
| 43>                          ****END OF INPUT****

CARTESIAN COORDINATES (ANGSTROEM)
---------------------------------
  S    -103.908000   -0.273552  -121.912000
  C    -105.076000   -1.237150  -122.722000
  C    -104.810000   -2.588370  -122.615000
  C    -103.721000   -2.849850  -121.734000
  C    -103.085000   -1.708070  -121.344000
  H    -103.273000   -3.782750  -121.424000
  C    -105.616000   -3.536530  -123.474000
  H    -105.057000   -4.374770  -123.992000
  H    -105.808000   -2.913500  -124.393000
  C    -106.893000   -4.180030  -122.862000
  H    -106.572000   -4.621150  -121.927000
  H    -107.484000   -3.286960  -122.489000
  C    -107.756000   -5.074310  -123.782000
  H    -107.988000   -4.531600  -124.707000
  H    -107.145000   -5.955870  -124.110000
  H    -108.731000   -5.262940  -123.325000
  S    -100.459000   -0.736777  -121.138000
  C    -99.551300   -1.258090  -119.754000
  C    -100.256000   -2.073190  -118.910000
  C    -101.588000   -2.237330  -119.374000
  C    -101.828000   -1.656580  -120.583000
  H    -99.849800   -2.226370  -117.870000
  C    -102.642000   -2.901300  -118.423000
  H    -103.685000   -2.383690  -118.425000
  H    -102.435000   -2.690390  -117.430000
  C    -102.928000   -4.416320  -118.578000
  H    -103.480000   -4.471160  -119.556000
  H    -103.628000   -4.810330  -117.802000
  C    -101.750000   -5.362080  -118.509000
  H    -101.109000   -5.305320  -119.393000
  H    -102.082000   -6.383600  -118.643000
  H    -101.032000   -5.177540  -117.703000
  H    -105.853000   -0.800489  -123.327000
  H    -98.643500   -0.889046  -119.457000

 Total Charge           Charge          ....    0
 Multiplicity           Mult            ....    1
 Number of Electrons    NEL             ....  134
 Basis Dimension        Dim             ....  322

ORBITAL ENERGIES
----------------

  NO   OCC          E(Eh)            E(eV)
   0   2.0000     -88.969227     -2420.9758
   1   2.0000     -88.966950     -2420.9138
   2   2.0000     -10.326390      -280.9954
   3   2.0000     -10.323993      -280.9301
   4   2.0000     -10.311774      -280.5976
   5   2.0000     -10.309496      -280.5356
   6   2.0000     -10.303304      -280.3672
   7   2.0000     -10.303292      -280.3668
   8   2.0000     -10.298261      -280.2299
   9   2.0000     -10.295178      -280.1460
  10   2.0000     -10.293964      -280.1130
  11   2.0000     -10.293619      -280.1036
  12   2.0000     -10.291033      -280.0333
  13   2.0000     -10.289817      -280.0002
  14   2.0000     -10.287680      -279.9420
  15   2.0000     -10.272839      -279.5381
  16   2.0000      -8.084368      -219.9868
  17   2.0000      -8.082433      -219.9342
  18   2.0000      -6.042838      -164.4340
  19   2.0000      -6.040770      -164.3777
  20   2.0000      -6.038882      -164.3263
  21   2.0000      -6.036819      -164.2702
  22   2.0000      -6.035086      -164.2230
  23   2.0000      -6.033363      -164.1761
  24   2.0000      -1.013108       -27.5681
  25   2.0000      -0.992038       -26.9947
  26   2.0000      -0.905308       -24.6347
  27   2.0000      -0.901550       -24.5324
  28   2.0000      -0.871188       -23.7062
  29   2.0000      -0.852725       -23.2038
  30   2.0000      -0.847902       -23.0726
  31   2.0000      -0.820651       -22.3311
  32   2.0000      -0.785471       -21.3738
  33   2.0000      -0.771052       -20.9814
  34   2.0000      -0.707716       -19.2579
  35   2.0000      -0.696669       -18.9573
  36   2.0000      -0.687419       -18.7056
  37   2.0000      -0.662252       -18.0208
  38   2.0000      -0.648943       -17.6586
  39   2.0000      -0.616623       -16.7792
  40   2.0000      -0.594505       -16.1773
  41   2.0000      -0.572708       -15.5842
  42   2.0000      -0.551620       -15.0103
  43   2.0000      -0.546279       -14.8650
  44   2.0000      -0.543202       -14.7813
  45   2.0000      -0.523374       -14.2417
  46   2.0000      -0.518664       -14.1136
  47   2.0000      -0.510371       -13.8879
  48   2.0000      -0.503768       -13.7082
  49   2.0000      -0.498089       -13.5537
  50   2.0000      -0.489348       -13.3158
  51   2.0000      -0.482695       -13.1348
  52   2.0000      -0.472351       -12.8533
  53   2.0000      -0.470172       -12.7940
  54   2.0000      -0.457707       -12.4548
  55   2.0000      -0.446349       -12.1458
  56   2.0000      -0.439527       -11.9601
  57   2.0000      -0.434252       -11.8166
  58   2.0000      -0.433134       -11.7862
  59   2.0000      -0.430833       -11.7235
  60   2.0000      -0.415394       -11.3034
  61   2.0000      -0.406201       -11.0533
  62   2.0000      -0.403348       -10.9756
  63   2.0000      -0.349452        -9.5091
  64   2.0000      -0.335680        -9.1343
  65   2.0000      -0.333102        -9.0642
  66   2.0000      -0.296541        -8.0693
  67   0.0000       0.033510         0.9118
  68   0.0000       0.071403         1.9430
  69   0.0000       0.116362         3.1664
  70   0.0000       0.121607         3.3091
  71   0.0000       0.125407         3.4125

MULLIKEN ATOMIC CHARGES
-----------------------
   0 S :    0.120313
   1 C :   -0.118333
   2 C :   -0.059478
   3 C :    0.040518
   4 C :   -0.165903
   5 H :    0.016714
   6 C :   -0.000253
   7 H :    0.028056
   8 H :    0.024161
   9 C :   -0.075063
  10 H :    0.025592
  11 H :    0.021177
  12 C :   -0.031374
  13 H :    0.026596
  14 H :    0.044582
  15 H :    0.047507
  16 S :    0.123524
  17 C :   -0.057368
  18 C :   -0.052668
  19 C :   -0.024552
  20 C :   -0.160092
  21 H :    0.046805
  22 C :    0.058557
  23 H :    0.041126
  24 H :   -0.000497
  25 C :   -0.092811
  26 H :    0.022705
  27 H :    0.035102
  28 C :   -0.035276
  29 H :    0.017769
  30 H :    0.028937
  31 H :    0.034401
  32 H :    0.049931
  33 H :    0.019592
Sum of atomic charges:    0.0000000

LOEWDIN ATOMIC CHARGES
----------------------
   0 S :    0.417639
   1 C :   -0.197831
   2 C :   -0.065499
   3 C :   -0.055384
   4 C :   -0.190327
   5 H :    0.032619
   6 C :   -0.047086
   7 H :    0.031070
   8 H :    0.032769
   9 C :   -0.049682
  10 H :    0.020801
  11 H :    0.025890
  12 C :   -0.068372
  13 H :    0.026989
  14 H :    0.032501
  15 H :    0.032598
  16 S :    0.416790
  17 C :   -0.173505
  18 C :   -0.076312
  19 C :   -0.057689
  20 C :   -0.204291
  21 H :    0.045424
  22 C :   -0.034107
  23 H :    0.045278
  24 H :    0.015102
  25 C :   -0.049223
  26 H :    0.024455
  27 H :    0.029303
  28 C :   -0.077266
  29 H :    0.024651
  30 H :    0.028502
  31 H :    0.026934
  32 H :    0.026409
  33 H :    0.010847

  Mayer bond orders larger than 0.100000
B(  0-S ,  1-C ) :   1.1514 B(  0-S ,  4-C ) :   1.1532 B(  1-C ,  2-C ) :   1.6048
B(  1-C , 32-H ) :   0.9683 B(  2-C ,  3-C ) :   1.2309 B(  2-C ,  6-C ) :   1.0148
B(  3-C ,  4-C ) :   1.5882 B(  3-C ,  5-H ) :   0.9904 B(  4-C , 20-C ) :   1.0223
B(  6-C ,  7-H ) :   0.9453 B(  6-C ,  8-H ) :   0.9443 B(  6-C ,  9-C ) :   1.0450
B(  9-C , 10-H ) :   0.9577 B(  9-C , 11-H ) :   0.9538 B(  9-C , 12-C ) :   1.0723
B( 12-C , 13-H ) :   0.9737 B( 12-C , 14-H ) :   0.9733 B( 12-C , 15-H ) :   0.9734
B( 16-S , 17-C ) :   1.1557 B( 16-S , 20-C ) :   1.1347 B( 17-C , 18-C ) :   1.6359
B( 17-C , 33-H ) :   0.9710 B( 18-C , 19-C ) :   1.2414 B( 18-C , 21-H ) :   0.9749
B( 19-C , 20-C ) :   1.6283 B( 19-C , 22-C ) :   1.0149 B( 22-C , 23-H ) :   0.9400
B( 22-C , 24-H ) :   0.9421 B( 22-C , 25-C ) :   1.0710 B( 25-C , 26-H ) :   0.9515
B( 25-C , 27-H ) :   0.9534 B( 25-C , 28-C ) :   1.0817 B( 28-C , 29-H ) :   0.9659
B( 28-C , 30-H ) :   0.9700 B( 28-C , 31-H ) :   0.9735

Dispersion correction           -0.014607512
FINAL SINGLE POINT ENERGY     -1339.869964597091

DIPOLE MOMENT
-------------
                                X             Y             Z
Electronic contribution:     16.19816      25.13914      -2.82290
Nuclear contribution   :    -16.40862     -25.44997       2.97867
                        -----------------------------------------
Total Dipole Moment    :     -0.21045      -0.31083       0.15577
                        -----------------------------------------
Magnitude (a.u.)       :      0.40641
Magnitude (Debye)      :      1.03301

Rotational constants in cm-1:     0.019831     0.008374     0.006397
Rotational constants in MHz :   594.520152   251.054919   191.784443

                             ****ORCA TERMINATED NORMALLY****
TOTAL RUN TIME: 0 days 0 hours 0 minutes 21 seconds 642 msec
