                         Program Version 4.2.1 -  RELEASE  -
|  1> ! wB97X-D3 SP def2-SVP
|  2> %pal
|  3> nprocs 24
|  4> end
|  5>
|  6> * xyz 0 1
|  7> S 	 -51.1763 	 2.6668 	 -17.4506
|  8> C 	 -51.4998 	 1.17742 	 -18.2686
|  9> C 	 -51.4053 	 0.0675471 	 -17.4227
| 10> C 	 -51.0089 	 0.543489 	 -16.1178
| 11> C 	 -50.8954 	 1.85545 	 -15.8718
| 12> H 	 -50.9395 	 -0.0932664 	 -15.2481
| 13> C 	 -51.7385 	 -1.34525 	 -17.7821
| 14> H 	 -50.7854 	 -1.90925 	 -17.8165
| 15> H 	 -52.0615 	 -1.27939 	 -18.8336
| 16> C 	 -52.5964 	 -2.18636 	 -16.7797
| 17> H 	 -52.2747 	 -1.90969 	 -15.7679
| 18> H 	 -53.6461 	 -1.91142 	 -16.8461
| 19> C 	 -52.5287 	 -3.70892 	 -17.0281
| 20> H 	 -52.8037 	 -3.89522 	 -18.0375
| 21> H 	 -51.5392 	 -4.13523 	 -16.8839
| 22> H 	 -53.116 	 -4.31918 	 -16.3494
| 23> S 	 -48.6454 	 2.74798 	 -14.6516
| 24> C 	 -48.7135 	 3.48439 	 -13.0798
| 25> C 	 -49.9329 	 3.14881 	 -12.4822
| 26> C 	 -50.9242 	 2.60245 	 -13.3915
| 27> C 	 -50.3945 	 2.50144 	 -14.6739
| 28> H 	 -50.1298 	 3.44684 	 -11.4121
| 29> C 	 -52.3129 	 2.20375 	 -12.9392
| 30> H 	 -52.5179 	 2.13806 	 -11.8381
| 31> H 	 -52.3575 	 1.18116 	 -13.2175
| 32> C 	 -53.5911 	 2.90701 	 -13.5346
| 33> H 	 -53.2707 	 3.3664 	 -14.5199
| 34> H 	 -53.7748 	 3.73009 	 -12.8816
| 35> C 	 -54.8736 	 2.00507 	 -13.7004
| 36> H 	 -54.7895 	 1.15724 	 -14.3295
| 37> H 	 -55.7632 	 2.6795 	 -13.8879
| 38> H 	 -55.1318 	 1.66691 	 -12.669
| 39> H 	 -51.7092 	 1.06035 	 -19.3284
| 40> H 	 -47.8215 	 3.88248 	 -12.5189
| 41> *
| 42>
| 43>                          ****END OF INPUT****

CARTESIAN COORDINATES (ANGSTROEM)
---------------------------------
  S    -51.176300    2.666800  -17.450600
  C    -51.499800    1.177420  -18.268600
  C    -51.405300    0.067547  -17.422700
  C    -51.008900    0.543489  -16.117800
  C    -50.895400    1.855450  -15.871800
  H    -50.939500   -0.093266  -15.248100
  C    -51.738500   -1.345250  -17.782100
  H    -50.785400   -1.909250  -17.816500
  H    -52.061500   -1.279390  -18.833600
  C    -52.596400   -2.186360  -16.779700
  H    -52.274700   -1.909690  -15.767900
  H    -53.646100   -1.911420  -16.846100
  C    -52.528700   -3.708920  -17.028100
  H    -52.803700   -3.895220  -18.037500
  H    -51.539200   -4.135230  -16.883900
  H    -53.116000   -4.319180  -16.349400
  S    -48.645400    2.747980  -14.651600
  C    -48.713500    3.484390  -13.079800
  C    -49.932900    3.148810  -12.482200
  C    -50.924200    2.602450  -13.391500
  C    -50.394500    2.501440  -14.673900
  H    -50.129800    3.446840  -11.412100
  C    -52.312900    2.203750  -12.939200
  H    -52.517900    2.138060  -11.838100
  H    -52.357500    1.181160  -13.217500
  C    -53.591100    2.907010  -13.534600
  H    -53.270700    3.366400  -14.519900
  H    -53.774800    3.730090  -12.881600
  C    -54.873600    2.005070  -13.700400
  H    -54.789500    1.157240  -14.329500
  H    -55.763200    2.679500  -13.887900
  H    -55.131800    1.666910  -12.669000
  H    -51.709200    1.060350  -19.328400
  H    -47.821500    3.882480  -12.518900

 Total Charge           Charge          ....    0
 Multiplicity           Mult            ....    1
 Number of Electrons    NEL             ....  134
 Basis Dimension        Dim             ....  322

ORBITAL ENERGIES
----------------

  NO   OCC          E(Eh)            E(eV)
   0   2.0000     -88.964088     -2420.8359
   1   2.0000     -88.962145     -2420.7830
   2   2.0000     -10.327817      -281.0342
   3   2.0000     -10.325792      -280.9791
   4   2.0000     -10.323115      -280.9063
   5   2.0000     -10.316126      -280.7161
   6   2.0000     -10.313141      -280.6348
   7   2.0000     -10.302522      -280.3459
   8   2.0000     -10.301414      -280.3157
   9   2.0000     -10.298889      -280.2470
  10   2.0000     -10.295076      -280.1433
  11   2.0000     -10.293870      -280.1104
  12   2.0000     -10.290938      -280.0307
  13   2.0000     -10.290106      -280.0080
  14   2.0000     -10.285807      -279.8910
  15   2.0000     -10.278775      -279.6997
  16   2.0000      -8.078955      -219.8395
  17   2.0000      -8.076530      -219.7735
  18   2.0000      -6.037471      -164.2879
  19   2.0000      -6.035126      -164.2241
  20   2.0000      -6.033582      -164.1821
  21   2.0000      -6.031015      -164.1123
  22   2.0000      -6.029532      -164.0719
  23   2.0000      -6.027274      -164.0105
  24   2.0000      -1.005314       -27.3560
  25   2.0000      -0.982562       -26.7369
  26   2.0000      -0.909194       -24.7404
  27   2.0000      -0.900113       -24.4933
  28   2.0000      -0.871623       -23.7181
  29   2.0000      -0.847217       -23.0539
  30   2.0000      -0.844617       -22.9832
  31   2.0000      -0.814227       -22.1562
  32   2.0000      -0.781614       -21.2688
  33   2.0000      -0.770751       -20.9732
  34   2.0000      -0.713776       -19.4228
  35   2.0000      -0.700576       -19.0636
  36   2.0000      -0.689166       -18.7532
  37   2.0000      -0.656150       -17.8547
  38   2.0000      -0.643946       -17.5227
  39   2.0000      -0.618963       -16.8429
  40   2.0000      -0.592894       -16.1335
  41   2.0000      -0.568894       -15.4804
  42   2.0000      -0.560671       -15.2566
  43   2.0000      -0.556586       -15.1455
  44   2.0000      -0.530289       -14.4299
  45   2.0000      -0.517813       -14.0904
  46   2.0000      -0.513028       -13.9602
  47   2.0000      -0.503200       -13.6928
  48   2.0000      -0.501909       -13.6576
  49   2.0000      -0.499214       -13.5843
  50   2.0000      -0.493418       -13.4266
  51   2.0000      -0.482305       -13.1242
  52   2.0000      -0.476929       -12.9779
  53   2.0000      -0.465728       -12.6731
  54   2.0000      -0.456483       -12.4215
  55   2.0000      -0.450914       -12.2700
  56   2.0000      -0.437720       -11.9110
  57   2.0000      -0.434891       -11.8340
  58   2.0000      -0.433949       -11.8084
  59   2.0000      -0.426576       -11.6077
  60   2.0000      -0.423357       -11.5201
  61   2.0000      -0.416350       -11.3294
  62   2.0000      -0.409217       -11.1354
  63   2.0000      -0.338878        -9.2214
  64   2.0000      -0.325246        -8.8504
  65   2.0000      -0.317542        -8.6408
  66   2.0000      -0.309345        -8.4177
  67   0.0000       0.034447         0.9374
  68   0.0000       0.057111         1.5541
  69   0.0000       0.103157         2.8071
  70   0.0000       0.122449         3.3320
  71   0.0000       0.129800         3.5320

MULLIKEN ATOMIC CHARGES
-----------------------
   0 S :    0.103984
   1 C :   -0.119591
   2 C :   -0.097275
   3 C :    0.038279
   4 C :   -0.184329
   5 H :    0.007272
   6 C :    0.077498
   7 H :    0.035302
   8 H :    0.017680
   9 C :   -0.070142
  10 H :    0.029563
  11 H :    0.034797
  12 C :   -0.040723
  13 H :    0.028667
  14 H :    0.023829
  15 H :    0.032926
  16 S :    0.113485
  17 C :   -0.108438
  18 C :   -0.067565
  19 C :   -0.009651
  20 C :   -0.166304
  21 H :    0.040397
  22 C :    0.066617
  23 H :    0.028597
  24 H :    0.011749
  25 C :   -0.081550
  26 H :    0.041876
  27 H :    0.027194
  28 C :   -0.062083
  29 H :    0.048299
  30 H :    0.045646
  31 H :    0.021775
  32 H :    0.049133
  33 H :    0.083088
Sum of atomic charges:    0.0000000

LOEWDIN ATOMIC CHARGES
----------------------
   0 S :    0.390243
   1 C :   -0.196551
   2 C :   -0.070816
   3 C :   -0.058454
   4 C :   -0.197227
   5 H :    0.025886
   6 C :   -0.037506
   7 H :    0.038016
   8 H :    0.031944
   9 C :   -0.035346
  10 H :    0.023583
  11 H :    0.025037
  12 C :   -0.063042
  13 H :    0.022468
  14 H :    0.023529
  15 H :    0.028037
  16 S :    0.412984
  17 C :   -0.199346
  18 C :   -0.080809
  19 C :   -0.045027
  20 C :   -0.199009
  21 H :    0.038395
  22 C :   -0.041441
  23 H :    0.036079
  24 H :    0.026810
  25 C :   -0.037789
  26 H :    0.027676
  27 H :    0.019327
  28 C :   -0.067205
  29 H :    0.021175
  30 H :    0.038357
  31 H :    0.026044
  32 H :    0.030229
  33 H :    0.043749

  Mayer bond orders larger than 0.100000
B(  0-S ,  1-C ) :   1.1617 B(  0-S ,  4-C ) :   1.1048 B(  1-C ,  2-C ) :   1.6088
B(  1-C , 32-H ) :   0.9598 B(  2-C ,  3-C ) :   1.2190 B(  2-C ,  6-C ) :   1.0392
B(  3-C ,  4-C ) :   1.6411 B(  3-C ,  5-H ) :   0.9845 B(  4-C , 20-C ) :   1.0236
B(  6-C ,  7-H ) :   0.9330 B(  6-C ,  8-H ) :   0.9344 B(  6-C ,  9-C ) :   1.0425
B(  9-C , 10-H ) :   0.9571 B(  9-C , 11-H ) :   0.9570 B(  9-C , 12-C ) :   1.0825
B( 12-C , 13-H ) :   0.9765 B( 12-C , 14-H ) :   0.9742 B( 12-C , 15-H ) :   0.9746
B( 16-S , 17-C ) :   1.1596 B( 16-S , 20-C ) :   1.1530 B( 17-C , 18-C ) :   1.6009
B( 17-C , 20-C ) :   0.1021 B( 17-C , 33-H ) :   0.9614 B( 18-C , 19-C ) :   1.2454
B( 18-C , 21-H ) :   0.9789 B( 19-C , 20-C ) :   1.5859 B( 19-C , 22-C ) :   1.0359
B( 22-C , 23-H ) :   0.9429 B( 22-C , 24-H ) :   0.9278 B( 22-C , 25-C ) :   1.0390
B( 25-C , 26-H ) :   0.9641 B( 25-C , 27-H ) :   0.9603 B( 25-C , 28-C ) :   1.0738
B( 28-C , 29-H ) :   0.9785 B( 28-C , 30-H ) :   0.9725 B( 28-C , 31-H ) :   0.9743

Dispersion correction           -0.014128160
FINAL SINGLE POINT ENERGY     -1339.865289111675

DIPOLE MOMENT
-------------
                                X             Y             Z
Electronic contribution:     20.63931      19.28242      -4.62598
Nuclear contribution   :    -20.97058     -19.91101       4.99348
                        -----------------------------------------
Total Dipole Moment    :     -0.33127      -0.62860       0.36750
                        -----------------------------------------
Magnitude (a.u.)       :      0.79996
Magnitude (Debye)      :      2.03333

Rotational constants in cm-1:     0.016581     0.008639     0.007376
Rotational constants in MHz :   497.088040   258.996459   221.137622

                             ****ORCA TERMINATED NORMALLY****
TOTAL RUN TIME: 0 days 0 hours 0 minutes 20 seconds 264 msec
