                         Program Version 4.2.1 -  RELEASE  -
|  1> ! wB97X-D3 SP def2-SVP
|  2> %pal
|  3> nprocs 24
|  4> end
|  5>
|  6> * xyz 0 1
|  7> S 	 -132.49 	 1.95907 	 4.09784
|  8> C 	 -131.445 	 0.589131 	 4.58832
|  9> C 	 -130.76 	 0.852158 	 5.76102
| 10> C 	 -131.14 	 2.1367 	 6.3165
| 11> C 	 -132.055 	 2.82634 	 5.61817
| 12> H 	 -130.911 	 2.46418 	 7.26029
| 13> C 	 -130.066 	 -0.126951 	 6.55572
| 14> H 	 -130.709 	 -0.989549 	 6.69443
| 15> H 	 -129.98 	 0.0783236 	 7.618
| 16> C 	 -128.652 	 -0.617286 	 6.08767
| 17> H 	 -128.085 	 0.333389 	 5.9783
| 18> H 	 -128.169 	 -1.20609 	 6.83778
| 19> C 	 -128.688 	 -1.49692 	 4.78148
| 20> H 	 -128.944 	 -0.955643 	 3.93394
| 21> H 	 -127.723 	 -1.97213 	 4.5631
| 22> H 	 -129.275 	 -2.34312 	 4.83326
| 23> S 	 -132.182 	 5.50417 	 5.19048
| 24> C 	 -133.197 	 6.51918 	 6.173
| 25> C 	 -133.693 	 5.88193 	 7.26419
| 26> C 	 -133.453 	 4.46245 	 7.15222
| 27> C 	 -132.625 	 4.14071 	 6.04714
| 28> H 	 -134.384 	 6.34012 	 7.95569
| 29> C 	 -133.922 	 3.50669 	 8.1845
| 30> H 	 -133.596 	 2.50369 	 8.0223
| 31> H 	 -134.997 	 3.49753 	 8.09192
| 32> C 	 -133.468 	 3.803 	 9.66416
| 33> H 	 -133.995 	 3.28029 	 10.3847
| 34> H 	 -133.693 	 4.82857 	 9.84662
| 35> C 	 -131.906 	 3.46125 	 9.81658
| 36> H 	 -131.416 	 3.89176 	 10.7361
| 37> H 	 -131.402 	 3.97951 	 8.98669
| 38> H 	 -131.678 	 2.3892 	 9.73655
| 39> H 	 -131.503 	 -0.373456 	 4.07942
| 40> H 	 -133.411 	 7.53847 	 5.97804
| 41> *
| 42>
| 43>                          ****END OF INPUT****

CARTESIAN COORDINATES (ANGSTROEM)
---------------------------------
  S    -132.490000    1.959070    4.097840
  C    -131.445000    0.589131    4.588320
  C    -130.760000    0.852158    5.761020
  C    -131.140000    2.136700    6.316500
  C    -132.055000    2.826340    5.618170
  H    -130.911000    2.464180    7.260290
  C    -130.066000   -0.126951    6.555720
  H    -130.709000   -0.989549    6.694430
  H    -129.980000    0.078324    7.618000
  C    -128.652000   -0.617286    6.087670
  H    -128.085000    0.333389    5.978300
  H    -128.169000   -1.206090    6.837780
  C    -128.688000   -1.496920    4.781480
  H    -128.944000   -0.955643    3.933940
  H    -127.723000   -1.972130    4.563100
  H    -129.275000   -2.343120    4.833260
  S    -132.182000    5.504170    5.190480
  C    -133.197000    6.519180    6.173000
  C    -133.693000    5.881930    7.264190
  C    -133.453000    4.462450    7.152220
  C    -132.625000    4.140710    6.047140
  H    -134.384000    6.340120    7.955690
  C    -133.922000    3.506690    8.184500
  H    -133.596000    2.503690    8.022300
  H    -134.997000    3.497530    8.091920
  C    -133.468000    3.803000    9.664160
  H    -133.995000    3.280290   10.384700
  H    -133.693000    4.828570    9.846620
  C    -131.906000    3.461250    9.816580
  H    -131.416000    3.891760   10.736100
  H    -131.402000    3.979510    8.986690
  H    -131.678000    2.389200    9.736550
  H    -131.503000   -0.373456    4.079420
  H    -133.411000    7.538470    5.978040

 Total Charge           Charge          ....    0
 Multiplicity           Mult            ....    1
 Number of Electrons    NEL             ....  134
 Basis Dimension        Dim             ....  322

ORBITAL ENERGIES
----------------

  NO   OCC          E(Eh)            E(eV)
   0   2.0000     -88.964803     -2420.8554
   1   2.0000     -88.964585     -2420.8494
   2   2.0000     -10.329620      -281.0832
   3   2.0000     -10.323169      -280.9077
   4   2.0000     -10.319787      -280.8157
   5   2.0000     -10.311595      -280.5928
   6   2.0000     -10.303222      -280.3649
   7   2.0000     -10.300470      -280.2900
   8   2.0000     -10.293095      -280.0893
   9   2.0000     -10.292089      -280.0620
  10   2.0000     -10.287010      -279.9238
  11   2.0000     -10.286692      -279.9151
  12   2.0000     -10.285867      -279.8927
  13   2.0000     -10.285456      -279.8815
  14   2.0000     -10.284759      -279.8625
  15   2.0000     -10.268529      -279.4209
  16   2.0000      -8.081333      -219.9042
  17   2.0000      -8.078039      -219.8146
  18   2.0000      -6.039669      -164.3478
  19   2.0000      -6.036755      -164.2685
  20   2.0000      -6.035511      -164.2346
  21   2.0000      -6.032798      -164.1608
  22   2.0000      -6.032238      -164.1455
  23   2.0000      -6.028590      -164.0463
  24   2.0000      -1.009666       -27.4744
  25   2.0000      -0.983741       -26.7690
  26   2.0000      -0.909807       -24.7571
  27   2.0000      -0.906190       -24.6587
  28   2.0000      -0.868661       -23.6375
  29   2.0000      -0.847113       -23.0511
  30   2.0000      -0.843123       -22.9426
  31   2.0000      -0.820157       -22.3176
  32   2.0000      -0.784382       -21.3441
  33   2.0000      -0.769897       -20.9500
  34   2.0000      -0.713449       -19.4139
  35   2.0000      -0.707523       -19.2527
  36   2.0000      -0.695478       -18.9249
  37   2.0000      -0.659312       -17.9408
  38   2.0000      -0.647545       -17.6206
  39   2.0000      -0.621934       -16.9237
  40   2.0000      -0.601177       -16.3588
  41   2.0000      -0.579265       -15.7626
  42   2.0000      -0.553204       -15.0534
  43   2.0000      -0.546479       -14.8704
  44   2.0000      -0.541863       -14.7448
  45   2.0000      -0.532961       -14.5026
  46   2.0000      -0.514935       -14.0121
  47   2.0000      -0.506938       -13.7945
  48   2.0000      -0.503689       -13.7061
  49   2.0000      -0.500292       -13.6136
  50   2.0000      -0.487225       -13.2581
  51   2.0000      -0.480497       -13.0750
  52   2.0000      -0.471446       -12.8287
  53   2.0000      -0.467726       -12.7275
  54   2.0000      -0.461186       -12.5495
  55   2.0000      -0.450130       -12.2487
  56   2.0000      -0.446087       -12.1387
  57   2.0000      -0.437854       -11.9146
  58   2.0000      -0.427957       -11.6453
  59   2.0000      -0.425740       -11.5850
  60   2.0000      -0.423472       -11.5233
  61   2.0000      -0.418539       -11.3890
  62   2.0000      -0.415062       -11.2944
  63   2.0000      -0.345065        -9.3897
  64   2.0000      -0.330667        -8.9979
  65   2.0000      -0.321765        -8.7557
  66   2.0000      -0.301419        -8.2020
  67   0.0000       0.041427         1.1273
  68   0.0000       0.059813         1.6276
  69   0.0000       0.108399         2.9497
  70   0.0000       0.116933         3.1819
  71   0.0000       0.127723         3.4755

MULLIKEN ATOMIC CHARGES
-----------------------
   0 S :    0.095623
   1 C :   -0.134644
   2 C :   -0.017633
   3 C :    0.094795
   4 C :   -0.145523
   5 H :   -0.055422
   6 C :    0.013438
   7 H :    0.023645
   8 H :    0.014557
   9 C :   -0.061298
  10 H :    0.039651
  11 H :    0.025187
  12 C :   -0.021318
  13 H :    0.026245
  14 H :    0.023287
  15 H :    0.006445
  16 S :    0.130606
  17 C :   -0.080819
  18 C :   -0.024087
  19 C :   -0.062340
  20 C :   -0.173745
  21 H :    0.027700
  22 C :    0.064786
  23 H :    0.014664
  24 H :    0.030829
  25 C :   -0.021749
  26 H :    0.016350
  27 H :    0.014939
  28 C :   -0.112906
  29 H :    0.045398
  30 H :    0.055114
  31 H :    0.044866
  32 H :    0.062220
  33 H :    0.041142
Sum of atomic charges:    0.0000000

LOEWDIN ATOMIC CHARGES
----------------------
   0 S :    0.358895
   1 C :   -0.171779
   2 C :   -0.064029
   3 C :   -0.042810
   4 C :   -0.175456
   5 H :    0.014933
   6 C :   -0.047297
   7 H :    0.033131
   8 H :    0.032057
   9 C :   -0.026874
  10 H :    0.029937
  11 H :    0.019956
  12 C :   -0.062879
  13 H :    0.016114
  14 H :    0.030936
  15 H :    0.013987
  16 S :    0.449248
  17 C :   -0.179998
  18 C :   -0.069124
  19 C :   -0.056124
  20 C :   -0.230403
  21 H :    0.033729
  22 C :   -0.032049
  23 H :    0.024916
  24 H :    0.032468
  25 C :   -0.021056
  26 H :    0.013062
  27 H :    0.016177
  28 C :   -0.074532
  29 H :    0.032017
  30 H :    0.026384
  31 H :    0.024030
  32 H :    0.030575
  33 H :    0.021860

  Mayer bond orders larger than 0.100000
B(  0-S ,  1-C ) :   1.1272 B(  0-S ,  4-C ) :   1.1127 B(  1-C ,  2-C ) :   1.6317
B(  1-C , 32-H ) :   0.9625 B(  2-C ,  3-C ) :   1.1959 B(  2-C ,  6-C ) :   1.0270
B(  3-C ,  4-C ) :   1.6431 B(  3-C ,  5-H ) :   1.0033 B(  4-C , 20-C ) :   0.9936
B(  6-C ,  7-H ) :   0.9383 B(  6-C ,  8-H ) :   0.9421 B(  6-C ,  9-C ) :   1.0664
B(  9-C , 10-H ) :   0.9594 B(  9-C , 11-H ) :   0.9578 B(  9-C , 12-C ) :   1.0751
B( 12-C , 13-H ) :   0.9758 B( 12-C , 14-H ) :   0.9718 B( 12-C , 15-H ) :   0.9738
B( 16-S , 17-C ) :   1.1658 B( 16-S , 20-C ) :   1.1791 B( 17-C , 18-C ) :   1.6086
B( 17-C , 33-H ) :   0.9705 B( 18-C , 19-C ) :   1.2460 B( 18-C , 21-H ) :   0.9849
B( 19-C , 20-C ) :   1.5733 B( 19-C , 22-C ) :   1.0618 B( 22-C , 23-H ) :   0.9375
B( 22-C , 24-H ) :   0.9243 B( 22-C , 25-C ) :   1.0658 B( 25-C , 26-H ) :   0.9588
B( 25-C , 27-H ) :   0.9590 B( 25-C , 28-C ) :   1.0572 B( 28-C , 29-H ) :   0.9729
B( 28-C , 30-H ) :   0.9716 B( 28-C , 31-H ) :   0.9746

Dispersion correction           -0.015401600
FINAL SINGLE POINT ENERGY     -1339.860561483593

DIPOLE MOMENT
-------------
                                X             Y             Z
Electronic contribution:     -9.72511      16.03748     -17.66566
Nuclear contribution   :      9.65974     -16.33312      18.32799
                        -----------------------------------------
Total Dipole Moment    :     -0.06537      -0.29564       0.66233
                        -----------------------------------------
Magnitude (a.u.)       :      0.72826
Magnitude (Debye)      :      1.85109

Rotational constants in cm-1:     0.021737     0.008234     0.006733
Rotational constants in MHz :   651.662654   246.855900   201.853614

                             ****ORCA TERMINATED NORMALLY****
TOTAL RUN TIME: 0 days 0 hours 0 minutes 22 seconds 194 msec
