                         Program Version 4.2.1 -  RELEASE  -
|  1> ! wB97X-D3 SP def2-SVP
|  2> %pal
|  3> nprocs 24
|  4> end
|  5>
|  6> * xyz 0 1
|  7> S 	 -69.2104 	 -39.6614 	 -92.8376
|  8> C 	 -67.8248 	 -39.2039 	 -93.86
|  9> C 	 -67.3752 	 -40.2714 	 -94.5674
| 10> C 	 -68.2016 	 -41.4033 	 -94.4046
| 11> C 	 -69.3147 	 -41.2539 	 -93.5689
| 12> H 	 -68.0656 	 -42.2731 	 -95.0337
| 13> C 	 -66.1237 	 -40.2365 	 -95.3367
| 14> H 	 -66.1907 	 -39.3881 	 -96.0489
| 15> H 	 -66.1554 	 -41.1097 	 -96.0096
| 16> C 	 -64.7762 	 -40.0068 	 -94.5025
| 17> H 	 -63.962 	 -40.4891 	 -95.1153
| 18> H 	 -64.4719 	 -38.9552 	 -94.3896
| 19> C 	 -64.6323 	 -40.602 	 -93.0721
| 20> H 	 -64.5764 	 -41.7072 	 -93.2022
| 21> H 	 -63.71 	 -40.2458 	 -92.5613
| 22> H 	 -65.4487 	 -40.3337 	 -92.3607
| 23> S 	 -71.1141 	 -42.2942 	 -91.6938
| 24> C 	 -72.4652 	 -43.2932 	 -92.2373
| 25> C 	 -72.5053 	 -43.3531 	 -93.6342
| 26> C 	 -71.4434 	 -42.5809 	 -94.3011
| 27> C 	 -70.5514 	 -42.0258 	 -93.3342
| 28> H 	 -73.4898 	 -43.7381 	 -94.0417
| 29> C 	 -71.3508 	 -42.3606 	 -95.7771
| 30> H 	 -70.9671 	 -41.3904 	 -96.0248
| 31> H 	 -72.4265 	 -42.4053 	 -95.9931
| 32> C 	 -70.5847 	 -43.4876 	 -96.4739
| 33> H 	 -70.5966 	 -44.427 	 -95.9046
| 34> H 	 -69.5135 	 -43.2483 	 -96.4256
| 35> C 	 -71.1362 	 -43.7899 	 -97.9137
| 36> H 	 -72.1849 	 -44.0358 	 -97.9699
| 37> H 	 -70.5505 	 -44.5844 	 -98.3589
| 38> H 	 -71.0574 	 -42.9684 	 -98.5996
| 39> H 	 -67.3051 	 -38.1771 	 -93.8593
| 40> H 	 -73.1781 	 -43.8163 	 -91.6125
| 41> *
| 42>
| 43>                          ****END OF INPUT****

CARTESIAN COORDINATES (ANGSTROEM)
---------------------------------
  S    -69.210400  -39.661400  -92.837600
  C    -67.824800  -39.203900  -93.860000
  C    -67.375200  -40.271400  -94.567400
  C    -68.201600  -41.403300  -94.404600
  C    -69.314700  -41.253900  -93.568900
  H    -68.065600  -42.273100  -95.033700
  C    -66.123700  -40.236500  -95.336700
  H    -66.190700  -39.388100  -96.048900
  H    -66.155400  -41.109700  -96.009600
  C    -64.776200  -40.006800  -94.502500
  H    -63.962000  -40.489100  -95.115300
  H    -64.471900  -38.955200  -94.389600
  C    -64.632300  -40.602000  -93.072100
  H    -64.576400  -41.707200  -93.202200
  H    -63.710000  -40.245800  -92.561300
  H    -65.448700  -40.333700  -92.360700
  S    -71.114100  -42.294200  -91.693800
  C    -72.465200  -43.293200  -92.237300
  C    -72.505300  -43.353100  -93.634200
  C    -71.443400  -42.580900  -94.301100
  C    -70.551400  -42.025800  -93.334200
  H    -73.489800  -43.738100  -94.041700
  C    -71.350800  -42.360600  -95.777100
  H    -70.967100  -41.390400  -96.024800
  H    -72.426500  -42.405300  -95.993100
  C    -70.584700  -43.487600  -96.473900
  H    -70.596600  -44.427000  -95.904600
  H    -69.513500  -43.248300  -96.425600
  C    -71.136200  -43.789900  -97.913700
  H    -72.184900  -44.035800  -97.969900
  H    -70.550500  -44.584400  -98.358900
  H    -71.057400  -42.968400  -98.599600
  H    -67.305100  -38.177100  -93.859300
  H    -73.178100  -43.816300  -91.612500

 Total Charge           Charge          ....    0
 Multiplicity           Mult            ....    1
 Number of Electrons    NEL             ....  134
 Basis Dimension        Dim             ....  322

ORBITAL ENERGIES
----------------

  NO   OCC          E(Eh)            E(eV)
   0   2.0000     -88.967978     -2420.9418
   1   2.0000     -88.963642     -2420.8238
   2   2.0000     -10.335483      -281.2428
   3   2.0000     -10.332728      -281.1678
   4   2.0000     -10.322769      -280.8968
   5   2.0000     -10.318161      -280.7714
   6   2.0000     -10.312295      -280.6118
   7   2.0000     -10.305380      -280.4236
   8   2.0000     -10.299724      -280.2697
   9   2.0000     -10.299405      -280.2611
  10   2.0000     -10.296741      -280.1886
  11   2.0000     -10.293894      -280.1111
  12   2.0000     -10.290987      -280.0320
  13   2.0000     -10.289309      -279.9863
  14   2.0000     -10.283089      -279.8171
  15   2.0000     -10.276860      -279.6476
  16   2.0000      -8.082121      -219.9257
  17   2.0000      -8.078032      -219.8144
  18   2.0000      -6.040676      -164.3751
  19   2.0000      -6.036661      -164.2659
  20   2.0000      -6.036624      -164.2649
  21   2.0000      -6.032919      -164.1641
  22   2.0000      -6.032498      -164.1526
  23   2.0000      -6.028794      -164.0518
  24   2.0000      -1.002209       -27.2715
  25   2.0000      -0.979473       -26.6528
  26   2.0000      -0.909184       -24.7402
  27   2.0000      -0.906415       -24.6648
  28   2.0000      -0.861145       -23.4330
  29   2.0000      -0.845573       -23.0092
  30   2.0000      -0.841128       -22.8883
  31   2.0000      -0.814250       -22.1569
  32   2.0000      -0.783868       -21.3301
  33   2.0000      -0.770240       -20.9593
  34   2.0000      -0.710935       -19.3455
  35   2.0000      -0.697906       -18.9910
  36   2.0000      -0.696003       -18.9392
  37   2.0000      -0.655088       -17.8259
  38   2.0000      -0.630066       -17.1450
  39   2.0000      -0.618451       -16.8289
  40   2.0000      -0.592210       -16.1148
  41   2.0000      -0.566246       -15.4083
  42   2.0000      -0.556879       -15.1534
  43   2.0000      -0.547740       -14.9048
  44   2.0000      -0.536346       -14.5947
  45   2.0000      -0.522835       -14.2271
  46   2.0000      -0.513962       -13.9856
  47   2.0000      -0.508024       -13.8240
  48   2.0000      -0.505594       -13.7579
  49   2.0000      -0.498324       -13.5601
  50   2.0000      -0.492235       -13.3944
  51   2.0000      -0.473843       -12.8939
  52   2.0000      -0.469135       -12.7658
  53   2.0000      -0.467508       -12.7216
  54   2.0000      -0.456959       -12.4345
  55   2.0000      -0.444807       -12.1038
  56   2.0000      -0.443163       -12.0591
  57   2.0000      -0.441869       -12.0239
  58   2.0000      -0.432816       -11.7775
  59   2.0000      -0.420794       -11.4504
  60   2.0000      -0.419672       -11.4199
  61   2.0000      -0.415281       -11.3004
  62   2.0000      -0.408244       -11.1089
  63   2.0000      -0.345635        -9.4052
  64   2.0000      -0.331374        -9.0171
  65   2.0000      -0.326242        -8.8775
  66   2.0000      -0.290394        -7.9020
  67   0.0000       0.026930         0.7328
  68   0.0000       0.063090         1.7168
  69   0.0000       0.103674         2.8211
  70   0.0000       0.121433         3.3044
  71   0.0000       0.125131         3.4050

MULLIKEN ATOMIC CHARGES
-----------------------
   0 S :    0.094396
   1 C :   -0.155583
   2 C :   -0.109934
   3 C :    0.035436
   4 C :   -0.136659
   5 H :   -0.000855
   6 C :    0.085794
   7 H :    0.039595
   8 H :    0.019169
   9 C :   -0.101522
  10 H :    0.040313
  11 H :    0.034591
  12 C :   -0.079597
  13 H :    0.039425
  14 H :    0.039868
  15 H :    0.051389
  16 S :    0.109456
  17 C :   -0.103578
  18 C :   -0.058932
  19 C :   -0.069813
  20 C :   -0.153455
  21 H :    0.048860
  22 C :    0.102593
  23 H :    0.038468
  24 H :    0.023265
  25 C :   -0.076814
  26 H :    0.038002
  27 H :    0.024277
  28 C :   -0.037310
  29 H :    0.031154
  30 H :    0.029650
  31 H :    0.020950
  32 H :    0.074728
  33 H :    0.062673
Sum of atomic charges:   -0.0000000

LOEWDIN ATOMIC CHARGES
----------------------
   0 S :    0.391268
   1 C :   -0.193500
   2 C :   -0.082369
   3 C :   -0.066046
   4 C :   -0.185906
   5 H :    0.025306
   6 C :   -0.037007
   7 H :    0.041974
   8 H :    0.031028
   9 C :   -0.045989
  10 H :    0.032775
  11 H :    0.023602
  12 C :   -0.077763
  13 H :    0.027776
  14 H :    0.030462
  15 H :    0.029673
  16 S :    0.398745
  17 C :   -0.183929
  18 C :   -0.084964
  19 C :   -0.045856
  20 C :   -0.210290
  21 H :    0.043982
  22 C :   -0.030052
  23 H :    0.032548
  24 H :    0.035962
  25 C :   -0.038740
  26 H :    0.028401
  27 H :    0.023285
  28 C :   -0.064331
  29 H :    0.024252
  30 H :    0.025788
  31 H :    0.021032
  32 H :    0.046498
  33 H :    0.032386

  Mayer bond orders larger than 0.100000
B(  0-S ,  1-C ) :   1.1337 B(  0-S ,  4-C ) :   1.1588 B(  1-C ,  2-C ) :   1.6001
B(  1-C ,  4-C ) :   0.1029 B(  1-C , 32-H ) :   0.9605 B(  2-C ,  3-C ) :   1.2596
B(  2-C ,  6-C ) :   1.0335 B(  3-C ,  4-C ) :   1.5519 B(  3-C ,  5-H ) :   0.9972
B(  4-C , 20-C ) :   1.0263 B(  6-C ,  7-H ) :   0.9377 B(  6-C ,  8-H ) :   0.9401
B(  6-C ,  9-C ) :   1.0340 B(  9-C , 10-H ) :   0.9607 B(  9-C , 11-H ) :   0.9608
B(  9-C , 12-C ) :   1.0832 B( 12-C , 13-H ) :   0.9798 B( 12-C , 14-H ) :   0.9741
B( 12-C , 15-H ) :   0.9685 B( 16-S , 17-C ) :   1.1491 B( 16-S , 20-C ) :   1.1414
B( 17-C , 18-C ) :   1.6326 B( 17-C , 33-H ) :   0.9662 B( 18-C , 19-C ) :   1.2305
B( 18-C , 21-H ) :   0.9707 B( 19-C , 20-C ) :   1.5674 B( 19-C , 22-C ) :   1.0435
B( 22-C , 23-H ) :   0.9303 B( 22-C , 24-H ) :   0.9388 B( 22-C , 25-C ) :   1.0456
B( 25-C , 26-H ) :   0.9627 B( 25-C , 27-H ) :   0.9472 B( 25-C , 28-C ) :   1.0722
B( 28-C , 29-H ) :   0.9782 B( 28-C , 30-H ) :   0.9751 B( 28-C , 31-H ) :   0.9757

Dispersion correction           -0.014625998
FINAL SINGLE POINT ENERGY     -1339.869952189959

DIPOLE MOMENT
-------------
                                X             Y             Z
Electronic contribution:    -13.89740       5.34793      20.03109
Nuclear contribution   :     14.01433      -5.44236     -20.66076
                        -----------------------------------------
Total Dipole Moment    :      0.11693      -0.09443      -0.62967
                        -----------------------------------------
Magnitude (a.u.)       :      0.64736
Magnitude (Debye)      :      1.64546

Rotational constants in cm-1:     0.018808     0.008638     0.006614
Rotational constants in MHz :   563.861644   258.970873   198.291409

                             ****ORCA TERMINATED NORMALLY****
TOTAL RUN TIME: 0 days 0 hours 0 minutes 21 seconds 517 msec
