                         Program Version 4.2.1 -  RELEASE  -
|  1> ! wB97X-D3 SP def2-SVP
|  2> %pal
|  3> nprocs 24
|  4> end
|  5>
|  6> * xyz 0 1
|  7> S 	 45.4769 	 -17.2729 	 -103.997
|  8> C 	 44.2675 	 -17.198 	 -105.32
|  9> C 	 44.8557 	 -16.7012 	 -106.499
| 10> C 	 46.2473 	 -16.4479 	 -106.388
| 11> C 	 46.6983 	 -16.7049 	 -105.178
| 12> H 	 46.9057 	 -16.0028 	 -107.134
| 13> C 	 44.0077 	 -16.3518 	 -107.764
| 14> H 	 42.941 	 -16.4527 	 -107.665
| 15> H 	 44.1864 	 -17.1669 	 -108.509
| 16> C 	 44.3806 	 -14.9493 	 -108.334
| 17> H 	 44.0277 	 -14.2708 	 -107.582
| 18> H 	 45.416 	 -14.6773 	 -108.33
| 19> C 	 43.804 	 -14.6971 	 -109.639
| 20> H 	 43.6813 	 -13.6359 	 -109.825
| 21> H 	 44.3387 	 -15.2936 	 -110.383
| 22> H 	 42.8434 	 -15.1481 	 -109.695
| 23> S 	 48.5775 	 -15.8118 	 -103.397
| 24> C 	 50.2564 	 -15.9964 	 -103.673
| 25> C 	 50.4306 	 -16.8272 	 -104.737
| 26> C 	 49.2764 	 -17.2464 	 -105.395
| 27> C 	 48.1368 	 -16.6355 	 -104.856
| 28> H 	 51.4826 	 -17.0915 	 -104.887
| 29> C 	 49.2972 	 -18.1147 	 -106.676
| 30> H 	 49.9318 	 -17.6606 	 -107.388
| 31> H 	 48.2446 	 -18.0426 	 -106.998
| 32> C 	 49.6533 	 -19.5198 	 -106.579
| 33> H 	 50.7537 	 -19.6197 	 -106.518
| 34> H 	 49.4623 	 -20.0034 	 -107.513
| 35> C 	 48.9504 	 -20.2506 	 -105.389
| 36> H 	 47.8742 	 -20.1049 	 -105.239
| 37> H 	 49.3849 	 -19.9513 	 -104.432
| 38> H 	 49.2087 	 -21.3577 	 -105.441
| 39> H 	 43.2658 	 -17.3358 	 -105.107
| 40> H 	 51.0923 	 -15.7362 	 -103.089
| 41> *
| 42>
| 43>                          ****END OF INPUT****

CARTESIAN COORDINATES (ANGSTROEM)
---------------------------------
  S     45.476900  -17.272900  -103.997000
  C     44.267500  -17.198000  -105.320000
  C     44.855700  -16.701200  -106.499000
  C     46.247300  -16.447900  -106.388000
  C     46.698300  -16.704900  -105.178000
  H     46.905700  -16.002800  -107.134000
  C     44.007700  -16.351800  -107.764000
  H     42.941000  -16.452700  -107.665000
  H     44.186400  -17.166900  -108.509000
  C     44.380600  -14.949300  -108.334000
  H     44.027700  -14.270800  -107.582000
  H     45.416000  -14.677300  -108.330000
  C     43.804000  -14.697100  -109.639000
  H     43.681300  -13.635900  -109.825000
  H     44.338700  -15.293600  -110.383000
  H     42.843400  -15.148100  -109.695000
  S     48.577500  -15.811800  -103.397000
  C     50.256400  -15.996400  -103.673000
  C     50.430600  -16.827200  -104.737000
  C     49.276400  -17.246400  -105.395000
  C     48.136800  -16.635500  -104.856000
  H     51.482600  -17.091500  -104.887000
  C     49.297200  -18.114700  -106.676000
  H     49.931800  -17.660600  -107.388000
  H     48.244600  -18.042600  -106.998000
  C     49.653300  -19.519800  -106.579000
  H     50.753700  -19.619700  -106.518000
  H     49.462300  -20.003400  -107.513000
  C     48.950400  -20.250600  -105.389000
  H     47.874200  -20.104900  -105.239000
  H     49.384900  -19.951300  -104.432000
  H     49.208700  -21.357700  -105.441000
  H     43.265800  -17.335800  -105.107000
  H     51.092300  -15.736200  -103.089000

 Total Charge           Charge          ....    0
 Multiplicity           Mult            ....    1
 Number of Electrons    NEL             ....  134
 Basis Dimension        Dim             ....  322

ORBITAL ENERGIES
----------------

  NO   OCC          E(Eh)            E(eV)
   0   2.0000     -88.967384     -2420.9256
   1   2.0000     -88.962434     -2420.7909
   2   2.0000     -10.328446      -281.0513
   3   2.0000     -10.325074      -280.9596
   4   2.0000     -10.315560      -280.7007
   5   2.0000     -10.309649      -280.5398
   6   2.0000     -10.306262      -280.4477
   7   2.0000     -10.301959      -280.3306
   8   2.0000     -10.299061      -280.2517
   9   2.0000     -10.290891      -280.0294
  10   2.0000     -10.284775      -279.8629
  11   2.0000     -10.281350      -279.7698
  12   2.0000     -10.280380      -279.7434
  13   2.0000     -10.277527      -279.6657
  14   2.0000     -10.276772      -279.6452
  15   2.0000     -10.270154      -279.4651
  16   2.0000      -8.080946      -219.8937
  17   2.0000      -8.078153      -219.8177
  18   2.0000      -6.039582      -164.3454
  19   2.0000      -6.036505      -164.2616
  20   2.0000      -6.035803      -164.2426
  21   2.0000      -6.032436      -164.1509
  22   2.0000      -6.031459      -164.1243
  23   2.0000      -6.029113      -164.0605
  24   2.0000      -1.011395       -27.5215
  25   2.0000      -0.986480       -26.8435
  26   2.0000      -0.916165       -24.9301
  27   2.0000      -0.914053       -24.8726
  28   2.0000      -0.873126       -23.7590
  29   2.0000      -0.853973       -23.2378
  30   2.0000      -0.841875       -22.9086
  31   2.0000      -0.820419       -22.3247
  32   2.0000      -0.781575       -21.2677
  33   2.0000      -0.771383       -20.9904
  34   2.0000      -0.712837       -19.3973
  35   2.0000      -0.700410       -19.0591
  36   2.0000      -0.696092       -18.9416
  37   2.0000      -0.653713       -17.7884
  38   2.0000      -0.649250       -17.6670
  39   2.0000      -0.626791       -17.0558
  40   2.0000      -0.589858       -16.0508
  41   2.0000      -0.566442       -15.4137
  42   2.0000      -0.563824       -15.3424
  43   2.0000      -0.558508       -15.1978
  44   2.0000      -0.542424       -14.7601
  45   2.0000      -0.532952       -14.5024
  46   2.0000      -0.519304       -14.1310
  47   2.0000      -0.514017       -13.9871
  48   2.0000      -0.509095       -13.8532
  49   2.0000      -0.498043       -13.5524
  50   2.0000      -0.495495       -13.4831
  51   2.0000      -0.476494       -12.9661
  52   2.0000      -0.467902       -12.7323
  53   2.0000      -0.464594       -12.6422
  54   2.0000      -0.460244       -12.5239
  55   2.0000      -0.454652       -12.3717
  56   2.0000      -0.442452       -12.0397
  57   2.0000      -0.440818       -11.9953
  58   2.0000      -0.427628       -11.6363
  59   2.0000      -0.421474       -11.4689
  60   2.0000      -0.415649       -11.3104
  61   2.0000      -0.410179       -11.1616
  62   2.0000      -0.403232       -10.9725
  63   2.0000      -0.348661        -9.4875
  64   2.0000      -0.333506        -9.0752
  65   2.0000      -0.330471        -8.9926
  66   2.0000      -0.294948        -8.0260
  67   0.0000       0.032833         0.8934
  68   0.0000       0.067896         1.8475
  69   0.0000       0.108620         2.9557
  70   0.0000       0.128470         3.4958
  71   0.0000       0.133480         3.6322

MULLIKEN ATOMIC CHARGES
-----------------------
   0 S :    0.095860
   1 C :   -0.107551
   2 C :   -0.051214
   3 C :   -0.002504
   4 C :   -0.096805
   5 H :    0.034340
   6 C :    0.052276
   7 H :    0.016445
   8 H :    0.032517
   9 C :   -0.085073
  10 H :    0.021682
  11 H :    0.022895
  12 C :    0.005542
  13 H :    0.038983
  14 H :    0.025997
  15 H :    0.004963
  16 S :    0.105860
  17 C :   -0.063203
  18 C :   -0.073578
  19 C :   -0.020308
  20 C :   -0.209490
  21 H :    0.017461
  22 C :    0.105832
  23 H :    0.020262
  24 H :    0.017254
  25 C :   -0.047683
  26 H :    0.019000
  27 H :    0.021936
  28 C :   -0.079163
  29 H :    0.045295
  30 H :    0.034144
  31 H :    0.037275
  32 H :    0.024780
  33 H :    0.035973
Sum of atomic charges:   -0.0000000

LOEWDIN ATOMIC CHARGES
----------------------
   0 S :    0.361736
   1 C :   -0.171945
   2 C :   -0.048100
   3 C :   -0.067833
   4 C :   -0.171612
   5 H :    0.041946
   6 C :   -0.027677
   7 H :    0.026135
   8 H :    0.031543
   9 C :   -0.047666
  10 H :    0.024950
  11 H :    0.020599
  12 C :   -0.060801
  13 H :    0.031001
  14 H :    0.029034
  15 H :    0.019780
  16 S :    0.429032
  17 C :   -0.195803
  18 C :   -0.080756
  19 C :   -0.056291
  20 C :   -0.202449
  21 H :    0.033378
  22 C :   -0.030610
  23 H :    0.026292
  24 H :    0.032257
  25 C :   -0.043335
  26 H :    0.024374
  27 H :    0.023484
  28 C :   -0.073313
  29 H :    0.028380
  30 H :    0.026443
  31 H :    0.031731
  32 H :    0.010421
  33 H :    0.025674

  Mayer bond orders larger than 0.100000
B(  0-S ,  1-C ) :   1.1112 B(  0-S ,  4-C ) :   1.1249 B(  1-C ,  2-C ) :   1.6287
B(  1-C , 32-H ) :   0.9834 B(  2-C ,  3-C ) :   1.1949 B(  2-C ,  6-C ) :   1.0104
B(  3-C ,  4-C ) :   1.6333 B(  3-C ,  5-H ) :   0.9921 B(  4-C , 20-C ) :   1.0171
B(  6-C ,  7-H ) :   0.9453 B(  6-C ,  8-H ) :   0.9423 B(  6-C ,  9-C ) :   1.0463
B(  9-C , 10-H ) :   0.9500 B(  9-C , 11-H ) :   0.9549 B(  9-C , 12-C ) :   1.1005
B( 12-C , 13-H ) :   0.9680 B( 12-C , 14-H ) :   0.9689 B( 12-C , 15-H ) :   0.9663
B( 16-S , 17-C ) :   1.1615 B( 16-S , 20-C ) :   1.1654 B( 17-C , 18-C ) :   1.6077
B( 17-C , 20-C ) :   0.1064 B( 17-C , 33-H ) :   0.9711 B( 18-C , 19-C ) :   1.2532
B( 18-C , 21-H ) :   0.9910 B( 19-C , 20-C ) :   1.5501 B( 19-C , 22-C ) :   1.0213
B( 22-C , 23-H ) :   0.9348 B( 22-C , 24-H ) :   0.9242 B( 22-C , 25-C ) :   1.1043
B( 25-C , 26-H ) :   0.9470 B( 25-C , 27-H ) :   0.9512 B( 25-C , 28-C ) :   1.0683
B( 28-C , 29-H ) :   0.9785 B( 28-C , 30-H ) :   0.9682 B( 28-C , 31-H ) :   0.9751

Dispersion correction           -0.014602817
FINAL SINGLE POINT ENERGY     -1339.860657854045

DIPOLE MOMENT
-------------
                                X             Y             Z
Electronic contribution:      2.83797       5.36958      22.93953
Nuclear contribution   :     -2.77948      -5.38014     -23.53544
                        -----------------------------------------
Total Dipole Moment    :      0.05849      -0.01057      -0.59590
                        -----------------------------------------
Magnitude (a.u.)       :      0.59886
Magnitude (Debye)      :      1.52218

Rotational constants in cm-1:     0.019207     0.008113     0.007493
Rotational constants in MHz :   575.821323   243.209383   224.634688

                             ****ORCA TERMINATED NORMALLY****
TOTAL RUN TIME: 0 days 0 hours 0 minutes 20 seconds 885 msec
