                         Program Version 4.2.1 -  RELEASE  -
|  1> ! wB97X-D3 SP def2-SVP
|  2> %pal
|  3> nprocs 24
|  4> end
|  5>
|  6> * xyz 0 1
|  7> S 	 -103.009 	 13.743 	 -121.303
|  8> C 	 -101.698 	 14.8965 	 -121.297
|  9> C 	 -100.611 	 14.4155 	 -122.011
| 10> C 	 -100.825 	 13.0608 	 -122.491
| 11> C 	 -102.051 	 12.4564 	 -122.109
| 12> H 	 -100.133 	 12.4335 	 -123.023
| 13> C 	 -99.3699 	 15.1406 	 -122.388
| 14> H 	 -98.6718 	 14.4347 	 -122.636
| 15> H 	 -99.0161 	 15.5568 	 -121.463
| 16> C 	 -99.4861 	 16.2346 	 -123.487
| 17> H 	 -100.302 	 15.91 	 -124.114
| 18> H 	 -99.8411 	 17.0517 	 -122.836
| 19> C 	 -98.1461 	 16.6568 	 -124.183
| 20> H 	 -97.9973 	 15.9595 	 -124.991
| 21> H 	 -98.276 	 17.7108 	 -124.406
| 22> H 	 -97.2154 	 16.55 	 -123.589
| 23> S 	 -103.678 	 10.8523 	 -123.559
| 24> C 	 -103.424 	 9.1254 	 -123.583
| 25> C 	 -102.482 	 8.8143 	 -122.607
| 26> C 	 -101.907 	 9.87959 	 -121.941
| 27> C 	 -102.418 	 11.0707 	 -122.391
| 28> H 	 -102.143 	 7.78175 	 -122.485
| 29> C 	 -100.699 	 9.70268 	 -121.018
| 30> H 	 -100.625 	 10.5082 	 -120.317
| 31> H 	 -99.8275 	 9.77115 	 -121.611
| 32> C 	 -100.55 	 8.41773 	 -120.219
| 33> H 	 -99.5224 	 8.47143 	 -119.729
| 34> H 	 -100.442 	 7.5166 	 -120.862
| 35> C 	 -101.452 	 8.17887 	 -119.05
| 36> H 	 -102.499 	 7.98177 	 -119.291
| 37> H 	 -101.287 	 8.91118 	 -118.324
| 38> H 	 -101.142 	 7.26525 	 -118.522
| 39> H 	 -101.807 	 15.9192 	 -120.944
| 40> H 	 -103.909 	 8.34414 	 -124.222
| 41> *
| 42>
| 43>                          ****END OF INPUT****

CARTESIAN COORDINATES (ANGSTROEM)
---------------------------------
  S    -103.009000   13.743000  -121.303000
  C    -101.698000   14.896500  -121.297000
  C    -100.611000   14.415500  -122.011000
  C    -100.825000   13.060800  -122.491000
  C    -102.051000   12.456400  -122.109000
  H    -100.133000   12.433500  -123.023000
  C    -99.369900   15.140600  -122.388000
  H    -98.671800   14.434700  -122.636000
  H    -99.016100   15.556800  -121.463000
  C    -99.486100   16.234600  -123.487000
  H    -100.302000   15.910000  -124.114000
  H    -99.841100   17.051700  -122.836000
  C    -98.146100   16.656800  -124.183000
  H    -97.997300   15.959500  -124.991000
  H    -98.276000   17.710800  -124.406000
  H    -97.215400   16.550000  -123.589000
  S    -103.678000   10.852300  -123.559000
  C    -103.424000    9.125400  -123.583000
  C    -102.482000    8.814300  -122.607000
  C    -101.907000    9.879590  -121.941000
  C    -102.418000   11.070700  -122.391000
  H    -102.143000    7.781750  -122.485000
  C    -100.699000    9.702680  -121.018000
  H    -100.625000   10.508200  -120.317000
  H    -99.827500    9.771150  -121.611000
  C    -100.550000    8.417730  -120.219000
  H    -99.522400    8.471430  -119.729000
  H    -100.442000    7.516600  -120.862000
  C    -101.452000    8.178870  -119.050000
  H    -102.499000    7.981770  -119.291000
  H    -101.287000    8.911180  -118.324000
  H    -101.142000    7.265250  -118.522000
  H    -101.807000   15.919200  -120.944000
  H    -103.909000    8.344140  -124.222000

 Total Charge           Charge          ....    0
 Multiplicity           Mult            ....    1
 Number of Electrons    NEL             ....  134
 Basis Dimension        Dim             ....  322

ORBITAL ENERGIES
----------------

  NO   OCC          E(Eh)            E(eV)
   0   2.0000     -88.966412     -2420.8992
   1   2.0000     -88.964666     -2420.8516
   2   2.0000     -10.333328      -281.1842
   3   2.0000     -10.323599      -280.9194
   4   2.0000     -10.321057      -280.8502
   5   2.0000     -10.316072      -280.7146
   6   2.0000     -10.300652      -280.2950
   7   2.0000     -10.299072      -280.2520
   8   2.0000     -10.296018      -280.1689
   9   2.0000     -10.290573      -280.0207
  10   2.0000     -10.288881      -279.9747
  11   2.0000     -10.288674      -279.9691
  12   2.0000     -10.287057      -279.9251
  13   2.0000     -10.284524      -279.8561
  14   2.0000     -10.277443      -279.6634
  15   2.0000     -10.269694      -279.4526
  16   2.0000      -8.081453      -219.9075
  17   2.0000      -8.078494      -219.8270
  18   2.0000      -6.039850      -164.3527
  19   2.0000      -6.037133      -164.2787
  20   2.0000      -6.035800      -164.2425
  21   2.0000      -6.032969      -164.1654
  22   2.0000      -6.032416      -164.1504
  23   2.0000      -6.029329      -164.0664
  24   2.0000      -1.007666       -27.4200
  25   2.0000      -0.980466       -26.6798
  26   2.0000      -0.913143       -24.8479
  27   2.0000      -0.908658       -24.7258
  28   2.0000      -0.867214       -23.5981
  29   2.0000      -0.855446       -23.2779
  30   2.0000      -0.843929       -22.9645
  31   2.0000      -0.811008       -22.0687
  32   2.0000      -0.789232       -21.4761
  33   2.0000      -0.774154       -21.0658
  34   2.0000      -0.706682       -19.2298
  35   2.0000      -0.701173       -19.0799
  36   2.0000      -0.693017       -18.8579
  37   2.0000      -0.657068       -17.8797
  38   2.0000      -0.642224       -17.4758
  39   2.0000      -0.612193       -16.6586
  40   2.0000      -0.598563       -16.2877
  41   2.0000      -0.567357       -15.4386
  42   2.0000      -0.562663       -15.3108
  43   2.0000      -0.558299       -15.1921
  44   2.0000      -0.542254       -14.7555
  45   2.0000      -0.523594       -14.2477
  46   2.0000      -0.521193       -14.1824
  47   2.0000      -0.511620       -13.9219
  48   2.0000      -0.505108       -13.7447
  49   2.0000      -0.502529       -13.6745
  50   2.0000      -0.489513       -13.3203
  51   2.0000      -0.480049       -13.0628
  52   2.0000      -0.476283       -12.9603
  53   2.0000      -0.471856       -12.8399
  54   2.0000      -0.459285       -12.4978
  55   2.0000      -0.445592       -12.1252
  56   2.0000      -0.441138       -12.0040
  57   2.0000      -0.436356       -11.8739
  58   2.0000      -0.429259       -11.6807
  59   2.0000      -0.421655       -11.4738
  60   2.0000      -0.416833       -11.3426
  61   2.0000      -0.413339       -11.2475
  62   2.0000      -0.409389       -11.1400
  63   2.0000      -0.339220        -9.2306
  64   2.0000      -0.330096        -8.9824
  65   2.0000      -0.323552        -8.8043
  66   2.0000      -0.299418        -8.1476
  67   0.0000       0.035979         0.9790
  68   0.0000       0.055991         1.5236
  69   0.0000       0.121645         3.3101
  70   0.0000       0.128368         3.4931
  71   0.0000       0.132018         3.5924

MULLIKEN ATOMIC CHARGES
-----------------------
   0 S :    0.108219
   1 C :   -0.124534
   2 C :   -0.117672
   3 C :    0.037015
   4 C :   -0.164504
   5 H :    0.008634
   6 C :    0.121395
   7 H :   -0.016126
   8 H :    0.018070
   9 C :   -0.089609
  10 H :    0.044776
  11 H :    0.025680
  12 C :   -0.042522
  13 H :    0.040286
  14 H :    0.047517
  15 H :    0.035816
  16 S :    0.123758
  17 C :   -0.105923
  18 C :   -0.068786
  19 C :    0.015016
  20 C :   -0.211116
  21 H :    0.018238
  22 C :    0.132556
  23 H :    0.017828
  24 H :    0.027529
  25 C :   -0.141436
  26 H :    0.028202
  27 H :    0.028718
  28 C :   -0.003219
  29 H :    0.038812
  30 H :    0.017882
  31 H :    0.020445
  32 H :    0.055035
  33 H :    0.074018
Sum of atomic charges:   -0.0000000

LOEWDIN ATOMIC CHARGES
----------------------
   0 S :    0.390244
   1 C :   -0.198736
   2 C :   -0.065820
   3 C :   -0.056057
   4 C :   -0.193618
   5 H :    0.026510
   6 C :   -0.031693
   7 H :    0.012094
   8 H :    0.029636
   9 C :   -0.036880
  10 H :    0.025721
  11 H :    0.024775
  12 C :   -0.065212
  13 H :    0.027186
  14 H :    0.031824
  15 H :    0.030375
  16 S :    0.427879
  17 C :   -0.198530
  18 C :   -0.078324
  19 C :   -0.056748
  20 C :   -0.207543
  21 H :    0.030988
  22 C :   -0.023394
  23 H :    0.030353
  24 H :    0.032510
  25 C :   -0.050743
  26 H :    0.035651
  27 H :    0.020829
  28 C :   -0.064507
  29 H :    0.026116
  30 H :    0.019122
  31 H :    0.030768
  32 H :    0.031656
  33 H :    0.043569

  Mayer bond orders larger than 0.100000
B(  0-S ,  1-C ) :   1.1459 B(  0-S ,  4-C ) :   1.1383 B(  1-C ,  2-C ) :   1.5887
B(  1-C , 32-H ) :   0.9701 B(  2-C ,  3-C ) :   1.2448 B(  2-C ,  6-C ) :   1.0330
B(  3-C ,  4-C ) :   1.5678 B(  3-C ,  5-H ) :   0.9914 B(  4-C , 20-C ) :   1.0349
B(  6-C ,  7-H ) :   0.9330 B(  6-C ,  8-H ) :   0.9320 B(  6-C ,  9-C ) :   1.0359
B(  9-C , 10-H ) :   0.9668 B(  9-C , 11-H ) :   0.9627 B(  9-C , 12-C ) :   1.0613
B( 12-C , 13-H ) :   0.9778 B( 12-C , 14-H ) :   0.9772 B( 12-C , 15-H ) :   0.9779
B( 16-S , 17-C ) :   1.1658 B( 16-S , 20-C ) :   1.1679 B( 17-C , 18-C ) :   1.5791
B( 17-C , 20-C ) :   0.1096 B( 17-C , 33-H ) :   0.9621 B( 18-C , 19-C ) :   1.2792
B( 18-C , 21-H ) :   0.9823 B( 19-C , 20-C ) :   1.5785 B( 19-C , 22-C ) :   1.0270
B( 22-C , 23-H ) :   0.9266 B( 22-C , 24-H ) :   0.9261 B( 22-C , 25-C ) :   1.0902
B( 25-C , 26-H ) :   0.9488 B( 25-C , 27-H ) :   0.9481 B( 25-C , 28-C ) :   1.0923
B( 28-C , 29-H ) :   0.9736 B( 28-C , 30-H ) :   0.9697 B( 28-C , 31-H ) :   0.9672

Dispersion correction           -0.013681187
FINAL SINGLE POINT ENERGY     -1339.865051244383

DIPOLE MOMENT
-------------
                                X             Y             Z
Electronic contribution:    -21.99705      -0.61286      -4.81533
Nuclear contribution   :     22.75210       0.46788       4.80138
                        -----------------------------------------
Total Dipole Moment    :      0.75505      -0.14498      -0.01395
                        -----------------------------------------
Magnitude (a.u.)       :      0.76897
Magnitude (Debye)      :      1.95457

Rotational constants in cm-1:     0.020260     0.006958     0.006352
Rotational constants in MHz :   607.374179   208.582929   190.429823

                             ****ORCA TERMINATED NORMALLY****
TOTAL RUN TIME: 0 days 0 hours 0 minutes 20 seconds 816 msec
