                         Program Version 4.2.1 -  RELEASE  -
|  1> ! wB97X-D3 SP def2-SVP
|  2> %pal
|  3> nprocs 24
|  4> end
|  5>
|  6> * xyz 0 1
|  7> S 	 -116.055 	 17.4863 	 -109.23
|  8> C 	 -115.807 	 19.0946 	 -108.684
|  9> C 	 -116.836 	 19.4958 	 -107.827
| 10> C 	 -117.808 	 18.4534 	 -107.63
| 11> C 	 -117.378 	 17.2859 	 -108.235
| 12> H 	 -118.685 	 18.5956 	 -107.034
| 13> C 	 -116.891 	 20.7779 	 -107.026
| 14> H 	 -117.802 	 21.2506 	 -107.365
| 15> H 	 -116.112 	 21.4671 	 -107.46
| 16> C 	 -116.694 	 20.6889 	 -105.473
| 17> H 	 -117.276 	 19.8813 	 -105.065
| 18> H 	 -115.675 	 20.2887 	 -105.233
| 19> C 	 -116.836 	 22.0482 	 -104.781
| 20> H 	 -117.056 	 22.049 	 -103.7
| 21> H 	 -115.861 	 22.5106 	 -104.915
| 22> H 	 -117.574 	 22.8286 	 -105.083
| 23> S 	 -118.821 	 15.6279 	 -106.685
| 24> C 	 -119.564 	 14.196 	 -107.423
| 25> C 	 -119.414 	 14.2173 	 -108.825
| 26> C 	 -118.653 	 15.2645 	 -109.29
| 27> C 	 -118.226 	 16.0448 	 -108.243
| 28> H 	 -119.818 	 13.3629 	 -109.489
| 29> C 	 -118.377 	 15.5438 	 -110.788
| 30> H 	 -118.175 	 16.6601 	 -110.803
| 31> H 	 -119.282 	 15.1848 	 -111.299
| 32> C 	 -117.148 	 14.8403 	 -111.317
| 33> H 	 -117.41 	 13.8584 	 -111.496
| 34> H 	 -116.346 	 14.6256 	 -110.535
| 35> C 	 -116.49 	 15.4562 	 -112.572
| 36> H 	 -117.159 	 15.7675 	 -113.381
| 37> H 	 -115.664 	 14.8336 	 -112.941
| 38> H 	 -116.049 	 16.4278 	 -112.303
| 39> H 	 -115.078 	 19.9261 	 -108.943
| 40> H 	 -120.23 	 13.4719 	 -106.959
| 41> *
| 42>
| 43>                          ****END OF INPUT****

CARTESIAN COORDINATES (ANGSTROEM)
---------------------------------
  S    -116.055000   17.486300  -109.230000
  C    -115.807000   19.094600  -108.684000
  C    -116.836000   19.495800  -107.827000
  C    -117.808000   18.453400  -107.630000
  C    -117.378000   17.285900  -108.235000
  H    -118.685000   18.595600  -107.034000
  C    -116.891000   20.777900  -107.026000
  H    -117.802000   21.250600  -107.365000
  H    -116.112000   21.467100  -107.460000
  C    -116.694000   20.688900  -105.473000
  H    -117.276000   19.881300  -105.065000
  H    -115.675000   20.288700  -105.233000
  C    -116.836000   22.048200  -104.781000
  H    -117.056000   22.049000  -103.700000
  H    -115.861000   22.510600  -104.915000
  H    -117.574000   22.828600  -105.083000
  S    -118.821000   15.627900  -106.685000
  C    -119.564000   14.196000  -107.423000
  C    -119.414000   14.217300  -108.825000
  C    -118.653000   15.264500  -109.290000
  C    -118.226000   16.044800  -108.243000
  H    -119.818000   13.362900  -109.489000
  C    -118.377000   15.543800  -110.788000
  H    -118.175000   16.660100  -110.803000
  H    -119.282000   15.184800  -111.299000
  C    -117.148000   14.840300  -111.317000
  H    -117.410000   13.858400  -111.496000
  H    -116.346000   14.625600  -110.535000
  C    -116.490000   15.456200  -112.572000
  H    -117.159000   15.767500  -113.381000
  H    -115.664000   14.833600  -112.941000
  H    -116.049000   16.427800  -112.303000
  H    -115.078000   19.926100  -108.943000
  H    -120.230000   13.471900  -106.959000

 Total Charge           Charge          ....    0
 Multiplicity           Mult            ....    1
 Number of Electrons    NEL             ....  134
 Basis Dimension        Dim             ....  322

ORBITAL ENERGIES
----------------

  NO   OCC          E(Eh)            E(eV)
   0   2.0000     -88.973971     -2421.1048
   1   2.0000     -88.971102     -2421.0268
   2   2.0000     -10.325148      -280.9615
   3   2.0000     -10.322982      -280.9026
   4   2.0000     -10.317332      -280.7489
   5   2.0000     -10.313334      -280.6401
   6   2.0000     -10.298028      -280.2236
   7   2.0000     -10.297571      -280.2112
   8   2.0000     -10.297452      -280.2079
   9   2.0000     -10.296460      -280.1809
  10   2.0000     -10.295276      -280.1487
  11   2.0000     -10.295000      -280.1412
  12   2.0000     -10.289588      -279.9939
  13   2.0000     -10.282868      -279.8111
  14   2.0000     -10.281564      -279.7756
  15   2.0000     -10.277837      -279.6742
  16   2.0000      -8.089492      -220.1263
  17   2.0000      -8.085464      -220.0167
  18   2.0000      -6.047872      -164.5710
  19   2.0000      -6.043789      -164.4599
  20   2.0000      -6.043769      -164.4593
  21   2.0000      -6.040453      -164.3691
  22   2.0000      -6.040127      -164.3602
  23   2.0000      -6.036350      -164.2574
  24   2.0000      -1.016453       -27.6591
  25   2.0000      -0.990974       -26.9658
  26   2.0000      -0.908663       -24.7260
  27   2.0000      -0.906357       -24.6632
  28   2.0000      -0.864840       -23.5335
  29   2.0000      -0.856181       -23.2979
  30   2.0000      -0.847309       -23.0564
  31   2.0000      -0.807829       -21.9821
  32   2.0000      -0.781946       -21.2778
  33   2.0000      -0.770019       -20.9533
  34   2.0000      -0.710013       -19.3204
  35   2.0000      -0.700336       -19.0571
  36   2.0000      -0.688905       -18.7460
  37   2.0000      -0.665442       -18.1076
  38   2.0000      -0.636314       -17.3150
  39   2.0000      -0.613043       -16.6817
  40   2.0000      -0.591323       -16.0907
  41   2.0000      -0.564857       -15.3705
  42   2.0000      -0.560460       -15.2509
  43   2.0000      -0.551809       -15.0155
  44   2.0000      -0.525224       -14.2921
  45   2.0000      -0.523504       -14.2453
  46   2.0000      -0.516907       -14.0658
  47   2.0000      -0.509260       -13.8577
  48   2.0000      -0.499115       -13.5816
  49   2.0000      -0.493410       -13.4264
  50   2.0000      -0.487587       -13.2679
  51   2.0000      -0.476275       -12.9601
  52   2.0000      -0.473518       -12.8851
  53   2.0000      -0.465589       -12.6693
  54   2.0000      -0.462758       -12.5923
  55   2.0000      -0.447944       -12.1892
  56   2.0000      -0.444618       -12.0987
  57   2.0000      -0.443734       -12.0746
  58   2.0000      -0.437210       -11.8971
  59   2.0000      -0.424280       -11.5452
  60   2.0000      -0.421108       -11.4589
  61   2.0000      -0.410296       -11.1647
  62   2.0000      -0.406794       -11.0694
  63   2.0000      -0.345468        -9.4007
  64   2.0000      -0.338515        -9.2115
  65   2.0000      -0.328326        -8.9342
  66   2.0000      -0.289282        -7.8718
  67   0.0000       0.033663         0.9160
  68   0.0000       0.074178         2.0185
  69   0.0000       0.101378         2.7586
  70   0.0000       0.127049         3.4572
  71   0.0000       0.134504         3.6600

MULLIKEN ATOMIC CHARGES
-----------------------
   0 S :    0.136922
   1 C :   -0.120717
   2 C :   -0.128261
   3 C :    0.012200
   4 C :   -0.122979
   5 H :    0.013579
   6 C :    0.051818
   7 H :    0.031840
   8 H :    0.011884
   9 C :   -0.038208
  10 H :    0.024378
  11 H :    0.034813
  12 C :   -0.078590
  13 H :    0.037194
  14 H :    0.034258
  15 H :    0.036926
  16 S :    0.122256
  17 C :   -0.097083
  18 C :   -0.086421
  19 C :   -0.036413
  20 C :   -0.176940
  21 H :    0.044905
  22 C :    0.072377
  23 H :    0.045030
  24 H :    0.035629
  25 C :   -0.059541
  26 H :   -0.001184
  27 H :    0.036036
  28 C :   -0.043506
  29 H :    0.031302
  30 H :    0.040613
  31 H :    0.020190
  32 H :    0.061539
  33 H :    0.054155
Sum of atomic charges:   -0.0000000

LOEWDIN ATOMIC CHARGES
----------------------
   0 S :    0.478562
   1 C :   -0.238428
   2 C :   -0.063326
   3 C :   -0.071403
   4 C :   -0.220023
   5 H :    0.026009
   6 C :   -0.037099
   7 H :    0.031402
   8 H :    0.029991
   9 C :   -0.039169
  10 H :    0.019002
  11 H :    0.035231
  12 C :   -0.081021
  13 H :    0.030727
  14 H :    0.028263
  15 H :    0.030319
  16 S :    0.426611
  17 C :   -0.194808
  18 C :   -0.076952
  19 C :   -0.073038
  20 C :   -0.196741
  21 H :    0.045080
  22 C :   -0.029110
  23 H :    0.032062
  24 H :    0.035964
  25 C :   -0.052972
  26 H :    0.011175
  27 H :    0.031339
  28 C :   -0.069313
  29 H :    0.025535
  30 H :    0.030081
  31 H :    0.020948
  32 H :    0.046473
  33 H :    0.028630

  Mayer bond orders larger than 0.100000
B(  0-S ,  1-C ) :   1.1339 B(  0-S ,  4-C ) :   1.1913 B(  1-C ,  2-C ) :   1.6075
B(  1-C , 32-H ) :   0.9527 B(  2-C ,  3-C ) :   1.2711 B(  2-C ,  6-C ) :   1.0317
B(  3-C ,  4-C ) :   1.5193 B(  3-C ,  5-H ) :   0.9963 B(  4-C , 20-C ) :   0.9808
B(  6-C ,  7-H ) :   0.9367 B(  6-C ,  8-H ) :   0.9401 B(  6-C ,  9-C ) :   1.0439
B(  9-C , 10-H ) :   0.9632 B(  9-C , 11-H ) :   0.9558 B(  9-C , 12-C ) :   1.0556
B( 12-C , 13-H ) :   0.9756 B( 12-C , 14-H ) :   0.9796 B( 12-C , 15-H ) :   0.9797
B( 16-S , 17-C ) :   1.1482 B( 16-S , 20-C ) :   1.1750 B( 17-C , 18-C ) :   1.5951
B( 17-C , 20-C ) :   0.1105 B( 17-C , 33-H ) :   0.9668 B( 18-C , 19-C ) :   1.2866
B( 18-C , 21-H ) :   0.9687 B( 19-C , 20-C ) :   1.5784 B( 19-C , 22-C ) :   1.0206
B( 22-C , 23-H ) :   0.9380 B( 22-C , 24-H ) :   0.9300 B( 22-C , 25-C ) :   1.0542
B( 25-C , 26-H ) :   0.9471 B( 25-C , 27-H ) :   0.9551 B( 25-C , 28-C ) :   1.0785
B( 28-C , 29-H ) :   0.9741 B( 28-C , 30-H ) :   0.9738 B( 28-C , 31-H ) :   0.9726

Dispersion correction           -0.014449353
FINAL SINGLE POINT ENERGY     -1339.861576734214

DIPOLE MOMENT
-------------
                                X             Y             Z
Electronic contribution:     -4.02307     -12.12188       3.88663
Nuclear contribution   :      3.89730      12.35803      -3.95823
                        -----------------------------------------
Total Dipole Moment    :     -0.12577       0.23615      -0.07159
                        -----------------------------------------
Magnitude (a.u.)       :      0.27696
Magnitude (Debye)      :      0.70398

Rotational constants in cm-1:     0.021248     0.008380     0.006277
Rotational constants in MHz :   637.008273   251.213229   188.191295

                             ****ORCA TERMINATED NORMALLY****
TOTAL RUN TIME: 0 days 0 hours 0 minutes 20 seconds 234 msec
