                         Program Version 4.2.1 -  RELEASE  -
|  1> ! wB97X-D3 SP def2-SVP
|  2> %pal
|  3> nprocs 24
|  4> end
|  5>
|  6> * xyz 0 1
|  7> S 	 -56.1277 	 -0.859083 	 -29.4036
|  8> C 	 -57.8117 	 -1.10867 	 -29.6386
|  9> C 	 -58.3412 	 -0.205205 	 -30.5683
| 10> C 	 -57.2683 	 0.561981 	 -31.1591
| 11> C 	 -56.0224 	 0.428552 	 -30.5754
| 12> H 	 -57.415 	 1.22082 	 -31.9273
| 13> C 	 -59.7985 	 -0.0757185 	 -30.9185
| 14> H 	 -59.8618 	 0.80967 	 -31.563
| 15> H 	 -60.3685 	 0.076185 	 -30.0387
| 16> C 	 -60.4308 	 -1.2141 	 -31.6838
| 17> H 	 -60.1832 	 -2.21222 	 -31.2197
| 18> H 	 -61.5173 	 -1.14752 	 -31.6146
| 19> C 	 -60.0019 	 -1.19261 	 -33.2225
| 20> H 	 -58.9202 	 -1.37151 	 -33.3689
| 21> H 	 -60.506 	 -2.02858 	 -33.7134
| 22> H 	 -60.3836 	 -0.294634 	 -33.7271
| 23> S 	 -53.7613 	 0.06272 	 -32.0674
| 24> C 	 -52.6166 	 1.39691 	 -32.2448
| 25> C 	 -53.2674 	 2.59014 	 -31.8572
| 26> C 	 -54.4719 	 2.40837 	 -31.0065
| 27> C 	 -54.8555 	 1.06902 	 -31.0979
| 28> H 	 -52.6482 	 3.4866 	 -31.8553
| 29> C 	 -55.2223 	 3.54911 	 -30.2807
| 30> H 	 -54.4992 	 4.19956 	 -29.8259
| 31> H 	 -55.8455 	 3.14188 	 -29.5157
| 32> C 	 -56.0702 	 4.4139 	 -31.0852
| 33> H 	 -56.9056 	 3.80696 	 -31.2633
| 34> H 	 -55.5036 	 4.73768 	 -31.965
| 35> C 	 -56.5957 	 5.6394 	 -30.3043
| 36> H 	 -57.088 	 5.38725 	 -29.3919
| 37> H 	 -57.3383 	 6.23485 	 -30.8708
| 38> H 	 -55.8239 	 6.35743 	 -29.9804
| 39> H 	 -58.4085 	 -1.82078 	 -29.0817
| 40> H 	 -51.7268 	 1.36856 	 -32.7419
| 41> *
| 42>
| 43>                          ****END OF INPUT****

CARTESIAN COORDINATES (ANGSTROEM)
---------------------------------
  S    -56.127700   -0.859083  -29.403600
  C    -57.811700   -1.108670  -29.638600
  C    -58.341200   -0.205205  -30.568300
  C    -57.268300    0.561981  -31.159100
  C    -56.022400    0.428552  -30.575400
  H    -57.415000    1.220820  -31.927300
  C    -59.798500   -0.075718  -30.918500
  H    -59.861800    0.809670  -31.563000
  H    -60.368500    0.076185  -30.038700
  C    -60.430800   -1.214100  -31.683800
  H    -60.183200   -2.212220  -31.219700
  H    -61.517300   -1.147520  -31.614600
  C    -60.001900   -1.192610  -33.222500
  H    -58.920200   -1.371510  -33.368900
  H    -60.506000   -2.028580  -33.713400
  H    -60.383600   -0.294634  -33.727100
  S    -53.761300    0.062720  -32.067400
  C    -52.616600    1.396910  -32.244800
  C    -53.267400    2.590140  -31.857200
  C    -54.471900    2.408370  -31.006500
  C    -54.855500    1.069020  -31.097900
  H    -52.648200    3.486600  -31.855300
  C    -55.222300    3.549110  -30.280700
  H    -54.499200    4.199560  -29.825900
  H    -55.845500    3.141880  -29.515700
  C    -56.070200    4.413900  -31.085200
  H    -56.905600    3.806960  -31.263300
  H    -55.503600    4.737680  -31.965000
  C    -56.595700    5.639400  -30.304300
  H    -57.088000    5.387250  -29.391900
  H    -57.338300    6.234850  -30.870800
  H    -55.823900    6.357430  -29.980400
  H    -58.408500   -1.820780  -29.081700
  H    -51.726800    1.368560  -32.741900

 Total Charge           Charge          ....    0
 Multiplicity           Mult            ....    1
 Number of Electrons    NEL             ....  134
 Basis Dimension        Dim             ....  322

ORBITAL ENERGIES
----------------

  NO   OCC          E(Eh)            E(eV)
   0   2.0000     -88.966836     -2420.9107
   1   2.0000     -88.964107     -2420.8364
   2   2.0000     -10.327725      -281.0317
   3   2.0000     -10.323353      -280.9127
   4   2.0000     -10.317679      -280.7583
   5   2.0000     -10.315130      -280.6890
   6   2.0000     -10.313220      -280.6370
   7   2.0000     -10.301610      -280.3210
   8   2.0000     -10.301479      -280.3175
   9   2.0000     -10.293622      -280.1037
  10   2.0000     -10.288790      -279.9722
  11   2.0000     -10.288310      -279.9591
  12   2.0000     -10.284859      -279.8652
  13   2.0000     -10.282443      -279.7995
  14   2.0000     -10.278916      -279.7035
  15   2.0000     -10.278113      -279.6817
  16   2.0000      -8.081921      -219.9203
  17   2.0000      -8.078303      -219.8218
  18   2.0000      -6.040357      -164.3665
  19   2.0000      -6.036920      -164.2729
  20   2.0000      -6.036161      -164.2523
  21   2.0000      -6.032953      -164.1650
  22   2.0000      -6.032882      -164.1631
  23   2.0000      -6.028972      -164.0567
  24   2.0000      -1.005346       -27.3569
  25   2.0000      -0.977786       -26.6069
  26   2.0000      -0.921769       -25.0826
  27   2.0000      -0.911896       -24.8140
  28   2.0000      -0.870626       -23.6909
  29   2.0000      -0.844794       -22.9880
  30   2.0000      -0.842131       -22.9155
  31   2.0000      -0.810461       -22.0538
  32   2.0000      -0.784916       -21.3586
  33   2.0000      -0.774955       -21.0876
  34   2.0000      -0.706642       -19.2287
  35   2.0000      -0.701711       -19.0945
  36   2.0000      -0.695871       -18.9356
  37   2.0000      -0.661675       -18.0051
  38   2.0000      -0.647210       -17.6115
  39   2.0000      -0.614327       -16.7167
  40   2.0000      -0.599299       -16.3078
  41   2.0000      -0.580915       -15.8075
  42   2.0000      -0.572245       -15.5716
  43   2.0000      -0.553187       -15.0530
  44   2.0000      -0.539354       -14.6766
  45   2.0000      -0.522005       -14.2045
  46   2.0000      -0.516132       -14.0447
  47   2.0000      -0.513091       -13.9619
  48   2.0000      -0.506889       -13.7932
  49   2.0000      -0.498569       -13.5668
  50   2.0000      -0.491682       -13.3793
  51   2.0000      -0.473218       -12.8769
  52   2.0000      -0.470884       -12.8134
  53   2.0000      -0.463702       -12.6180
  54   2.0000      -0.460438       -12.5292
  55   2.0000      -0.448055       -12.1922
  56   2.0000      -0.439717       -11.9653
  57   2.0000      -0.436118       -11.8674
  58   2.0000      -0.430302       -11.7091
  59   2.0000      -0.425788       -11.5863
  60   2.0000      -0.425667       -11.5830
  61   2.0000      -0.418235       -11.3807
  62   2.0000      -0.416602       -11.3363
  63   2.0000      -0.337505        -9.1840
  64   2.0000      -0.326780        -8.8921
  65   2.0000      -0.321971        -8.7613
  66   2.0000      -0.305969        -8.3258
  67   0.0000       0.033404         0.9090
  68   0.0000       0.060230         1.6389
  69   0.0000       0.109756         2.9866
  70   0.0000       0.119409         3.2493
  71   0.0000       0.125648         3.4190

MULLIKEN ATOMIC CHARGES
-----------------------
   0 S :    0.129530
   1 C :   -0.127338
   2 C :   -0.099734
   3 C :    0.059983
   4 C :   -0.170086
   5 H :   -0.021559
   6 C :    0.111722
   7 H :    0.013514
   8 H :    0.025655
   9 C :   -0.093180
  10 H :    0.033078
  11 H :    0.029592
  12 C :   -0.078736
  13 H :    0.054708
  14 H :    0.031090
  15 H :    0.036964
  16 S :    0.108880
  17 C :   -0.069885
  18 C :   -0.034468
  19 C :   -0.045165
  20 C :   -0.168384
  21 H :    0.028660
  22 C :    0.096927
  23 H :    0.007490
  24 H :    0.018085
  25 C :   -0.030520
  26 H :    0.010708
  27 H :    0.033028
  28 C :   -0.057236
  29 H :    0.018049
  30 H :    0.037579
  31 H :    0.027445
  32 H :    0.050629
  33 H :    0.032975
Sum of atomic charges:   -0.0000000

LOEWDIN ATOMIC CHARGES
----------------------
   0 S :    0.429168
   1 C :   -0.201945
   2 C :   -0.063980
   3 C :   -0.043556
   4 C :   -0.217500
   5 H :    0.012635
   6 C :   -0.034020
   7 H :    0.031636
   8 H :    0.029412
   9 C :   -0.039543
  10 H :    0.025843
  11 H :    0.022907
  12 C :   -0.070772
  13 H :    0.031452
  14 H :    0.025673
  15 H :    0.025186
  16 S :    0.388642
  17 C :   -0.164300
  18 C :   -0.070819
  19 C :   -0.041436
  20 C :   -0.191025
  21 H :    0.027593
  22 C :   -0.026134
  23 H :    0.025884
  24 H :    0.029421
  25 C :   -0.034928
  26 H :    0.018963
  27 H :    0.027514
  28 C :   -0.066804
  29 H :    0.020173
  30 H :    0.030236
  31 H :    0.025050
  32 H :    0.028206
  33 H :    0.011167

  Mayer bond orders larger than 0.100000
B(  0-S ,  1-C ) :   1.1733 B(  0-S ,  4-C ) :   1.1435 B(  1-C ,  2-C ) :   1.5656
B(  1-C , 32-H ) :   0.9689 B(  2-C ,  3-C ) :   1.2684 B(  2-C ,  6-C ) :   1.0252
B(  3-C ,  4-C ) :   1.5500 B(  3-C ,  5-H ) :   1.0015 B(  4-C , 20-C ) :   1.0530
B(  6-C ,  7-H ) :   0.9384 B(  6-C ,  8-H ) :   0.9317 B(  6-C ,  9-C ) :   1.0779
B(  9-C , 10-H ) :   0.9580 B(  9-C , 11-H ) :   0.9554 B(  9-C , 12-C ) :   1.0682
B( 12-C , 13-H ) :   0.9786 B( 12-C , 14-H ) :   0.9760 B( 12-C , 15-H ) :   0.9755
B( 16-S , 17-C ) :   1.1385 B( 16-S , 20-C ) :   1.1370 B( 17-C , 18-C ) :   1.6472
B( 17-C , 33-H ) :   0.9784 B( 18-C , 19-C ) :   1.2044 B( 18-C , 21-H ) :   0.9710
B( 19-C , 20-C ) :   1.6235 B( 19-C , 22-C ) :   1.0509 B( 22-C , 23-H ) :   0.9289
B( 22-C , 24-H ) :   0.9254 B( 22-C , 25-C ) :   1.0841 B( 25-C , 26-H ) :   0.9471
B( 25-C , 27-H ) :   0.9531 B( 25-C , 28-C ) :   1.0861 B( 28-C , 29-H ) :   0.9717
B( 28-C , 30-H ) :   0.9751 B( 28-C , 31-H ) :   0.9733

Dispersion correction           -0.014222513
FINAL SINGLE POINT ENERGY     -1339.866695058330

DIPOLE MOMENT
-------------
                                X             Y             Z
Electronic contribution:     20.48484     -14.43194       4.70099
Nuclear contribution   :    -20.97906      14.81090      -4.75969
                        -----------------------------------------
Total Dipole Moment    :     -0.49422       0.37896      -0.05870
                        -----------------------------------------
Magnitude (a.u.)       :      0.62554
Magnitude (Debye)      :      1.59000

Rotational constants in cm-1:     0.016778     0.008729     0.007111
Rotational constants in MHz :   502.989663   261.700826   213.168812

                             ****ORCA TERMINATED NORMALLY****
TOTAL RUN TIME: 0 days 0 hours 0 minutes 20 seconds 120 msec
