                         Program Version 4.2.1 -  RELEASE  -
|  1> ! wB97X-D3 SP def2-SVP
|  2> %pal
|  3> nprocs 24
|  4> end
|  5>
|  6> * xyz 0 1
|  7> S 	 -65.4138 	 -51.2891 	 -81.7723
|  8> C 	 -64.2356 	 -52.4853 	 -82.3981
|  9> C 	 -63.1606 	 -52.6402 	 -81.4934
| 10> C 	 -63.3218 	 -51.8104 	 -80.2841
| 11> C 	 -64.3302 	 -50.912 	 -80.4378
| 12> H 	 -62.6598 	 -51.8508 	 -79.3865
| 13> C 	 -62.0912 	 -53.7288 	 -81.7003
| 14> H 	 -62.643 	 -54.7091 	 -81.8586
| 15> H 	 -61.5038 	 -53.8333 	 -80.8287
| 16> C 	 -61.1503 	 -53.5129 	 -82.8673
| 17> H 	 -60.5821 	 -54.4773 	 -82.8694
| 18> H 	 -61.7957 	 -53.3964 	 -83.7027
| 19> C 	 -60.1165 	 -52.4228 	 -82.6974
| 20> H 	 -60.4721 	 -51.6621 	 -81.9654
| 21> H 	 -59.271 	 -52.7896 	 -82.2005
| 22> H 	 -59.9344 	 -51.9575 	 -83.7101
| 23> S 	 -64.9729 	 -48.3537 	 -79.541
| 24> C 	 -65.6687 	 -48.1821 	 -78.027
| 25> C 	 -65.6986 	 -49.3224 	 -77.3471
| 26> C 	 -65.36 	 -50.4754 	 -78.1074
| 27> C 	 -64.7727 	 -50.1056 	 -79.2744
| 28> H 	 -66.0127 	 -49.292 	 -76.3005
| 29> C 	 -65.5163 	 -51.8734 	 -77.5519
| 30> H 	 -65.0513 	 -51.8804 	 -76.5242
| 31> H 	 -64.8603 	 -52.5385 	 -78.1363
| 32> C 	 -66.9757 	 -52.2679 	 -77.4103
| 33> H 	 -67.5266 	 -51.6586 	 -76.7032
| 34> H 	 -67.0278 	 -53.2583 	 -76.8838
| 35> C 	 -67.7961 	 -52.3267 	 -78.69
| 36> H 	 -67.8251 	 -51.4538 	 -79.3598
| 37> H 	 -68.8128 	 -52.5067 	 -78.2339
| 38> H 	 -67.4234 	 -53.1895 	 -79.3126
| 39> H 	 -64.4329 	 -53.1412 	 -83.1942
| 40> H 	 -65.971 	 -47.1883 	 -77.6312
| 41> *
| 42>
| 43>                          ****END OF INPUT****

CARTESIAN COORDINATES (ANGSTROEM)
---------------------------------
  S    -65.413800  -51.289100  -81.772300
  C    -64.235600  -52.485300  -82.398100
  C    -63.160600  -52.640200  -81.493400
  C    -63.321800  -51.810400  -80.284100
  C    -64.330200  -50.912000  -80.437800
  H    -62.659800  -51.850800  -79.386500
  C    -62.091200  -53.728800  -81.700300
  H    -62.643000  -54.709100  -81.858600
  H    -61.503800  -53.833300  -80.828700
  C    -61.150300  -53.512900  -82.867300
  H    -60.582100  -54.477300  -82.869400
  H    -61.795700  -53.396400  -83.702700
  C    -60.116500  -52.422800  -82.697400
  H    -60.472100  -51.662100  -81.965400
  H    -59.271000  -52.789600  -82.200500
  H    -59.934400  -51.957500  -83.710100
  S    -64.972900  -48.353700  -79.541000
  C    -65.668700  -48.182100  -78.027000
  C    -65.698600  -49.322400  -77.347100
  C    -65.360000  -50.475400  -78.107400
  C    -64.772700  -50.105600  -79.274400
  H    -66.012700  -49.292000  -76.300500
  C    -65.516300  -51.873400  -77.551900
  H    -65.051300  -51.880400  -76.524200
  H    -64.860300  -52.538500  -78.136300
  C    -66.975700  -52.267900  -77.410300
  H    -67.526600  -51.658600  -76.703200
  H    -67.027800  -53.258300  -76.883800
  C    -67.796100  -52.326700  -78.690000
  H    -67.825100  -51.453800  -79.359800
  H    -68.812800  -52.506700  -78.233900
  H    -67.423400  -53.189500  -79.312600
  H    -64.432900  -53.141200  -83.194200
  H    -65.971000  -47.188300  -77.631200

 Total Charge           Charge          ....    0
 Multiplicity           Mult            ....    1
 Number of Electrons    NEL             ....  134
 Basis Dimension        Dim             ....  322

ORBITAL ENERGIES
----------------

  NO   OCC          E(Eh)            E(eV)
   0   2.0000     -88.968817     -2420.9646
   1   2.0000     -88.956107     -2420.6187
   2   2.0000     -10.327297      -281.0200
   3   2.0000     -10.320462      -280.8340
   4   2.0000     -10.317905      -280.7645
   5   2.0000     -10.309962      -280.5483
   6   2.0000     -10.307095      -280.4703
   7   2.0000     -10.302360      -280.3415
   8   2.0000     -10.298124      -280.2262
   9   2.0000     -10.293847      -280.1098
  10   2.0000     -10.292156      -280.0638
  11   2.0000     -10.286513      -279.9102
  12   2.0000     -10.282696      -279.8064
  13   2.0000     -10.281824      -279.7827
  14   2.0000     -10.279194      -279.7111
  15   2.0000     -10.275615      -279.6137
  16   2.0000      -8.082378      -219.9327
  17   2.0000      -8.072565      -219.6657
  18   2.0000      -6.041045      -164.3852
  19   2.0000      -6.037167      -164.2797
  20   2.0000      -6.032905      -164.1637
  21   2.0000      -6.030877      -164.1085
  22   2.0000      -6.026942      -164.0014
  23   2.0000      -6.023304      -163.9024
  24   2.0000      -1.010297       -27.4916
  25   2.0000      -0.982358       -26.7313
  26   2.0000      -0.914999       -24.8984
  27   2.0000      -0.910374       -24.7725
  28   2.0000      -0.867248       -23.5990
  29   2.0000      -0.848605       -23.0917
  30   2.0000      -0.842143       -22.9159
  31   2.0000      -0.813948       -22.1487
  32   2.0000      -0.783933       -21.3319
  33   2.0000      -0.772850       -21.0303
  34   2.0000      -0.702109       -19.1054
  35   2.0000      -0.696179       -18.9440
  36   2.0000      -0.687016       -18.6947
  37   2.0000      -0.651049       -17.7160
  38   2.0000      -0.640650       -17.4330
  39   2.0000      -0.611521       -16.6403
  40   2.0000      -0.596384       -16.2284
  41   2.0000      -0.577930       -15.7263
  42   2.0000      -0.553223       -15.0540
  43   2.0000      -0.545141       -14.8340
  44   2.0000      -0.541336       -14.7305
  45   2.0000      -0.531719       -14.4688
  46   2.0000      -0.520905       -14.1745
  47   2.0000      -0.519258       -14.1297
  48   2.0000      -0.502052       -13.6615
  49   2.0000      -0.496882       -13.5208
  50   2.0000      -0.488648       -13.2968
  51   2.0000      -0.474729       -12.9180
  52   2.0000      -0.469454       -12.7745
  53   2.0000      -0.460875       -12.5410
  54   2.0000      -0.458003       -12.4629
  55   2.0000      -0.444428       -12.0935
  56   2.0000      -0.443094       -12.0572
  57   2.0000      -0.432880       -11.7793
  58   2.0000      -0.430948       -11.7267
  59   2.0000      -0.424331       -11.5466
  60   2.0000      -0.419495       -11.4150
  61   2.0000      -0.407749       -11.0954
  62   2.0000      -0.402308       -10.9474
  63   2.0000      -0.335945        -9.1415
  64   2.0000      -0.333070        -9.0633
  65   2.0000      -0.324683        -8.8351
  66   2.0000      -0.304703        -8.2914
  67   0.0000       0.038737         1.0541
  68   0.0000       0.063871         1.7380
  69   0.0000       0.100061         2.7228
  70   0.0000       0.123090         3.3495
  71   0.0000       0.129501         3.5239

MULLIKEN ATOMIC CHARGES
-----------------------
   0 S :    0.110729
   1 C :   -0.107562
   2 C :   -0.103364
   3 C :   -0.001441
   4 C :   -0.092357
   5 H :    0.043072
   6 C :    0.038051
   7 H :    0.045430
   8 H :    0.000228
   9 C :   -0.057809
  10 H :    0.033683
  11 H :    0.019291
  12 C :   -0.036746
  13 H :    0.030900
  14 H :    0.018170
  15 H :    0.053520
  16 S :    0.095994
  17 C :   -0.089928
  18 C :   -0.034491
  19 C :   -0.034851
  20 C :   -0.221682
  21 H :    0.017141
  22 C :    0.088677
  23 H :    0.032895
  24 H :    0.021610
  25 C :   -0.083835
  26 H :    0.020186
  27 H :    0.030226
  28 C :   -0.073818
  29 H :    0.051560
  30 H :    0.039787
  31 H :    0.042229
  32 H :    0.039915
  33 H :    0.064591
Sum of atomic charges:    0.0000000

LOEWDIN ATOMIC CHARGES
----------------------
   0 S :    0.391629
   1 C :   -0.181291
   2 C :   -0.056193
   3 C :   -0.062983
   4 C :   -0.195349
   5 H :    0.042339
   6 C :   -0.035368
   7 H :    0.040285
   8 H :    0.016919
   9 C :   -0.041890
  10 H :    0.031594
  11 H :    0.015810
  12 C :   -0.067504
  13 H :    0.029934
  14 H :    0.018033
  15 H :    0.039961
  16 S :    0.406348
  17 C :   -0.201982
  18 C :   -0.083416
  19 C :   -0.052101
  20 C :   -0.194915
  21 H :    0.032563
  22 C :   -0.035191
  23 H :    0.039499
  24 H :    0.030035
  25 C :   -0.049384
  26 H :    0.020444
  27 H :    0.030772
  28 C :   -0.072864
  29 H :    0.024939
  30 H :    0.035165
  31 H :    0.029936
  32 H :    0.017442
  33 H :    0.036783

  Mayer bond orders larger than 0.100000
B(  0-S ,  1-C ) :   1.1226 B(  0-S ,  4-C ) :   1.1469 B(  1-C ,  2-C ) :   1.6229
B(  1-C , 32-H ) :   0.9740 B(  2-C ,  3-C ) :   1.2063 B(  2-C ,  6-C ) :   1.0171
B(  3-C ,  4-C ) :   1.5997 B(  3-C ,  5-H ) :   0.9894 B(  4-C , 20-C ) :   1.0040
B(  6-C ,  7-H ) :   0.9433 B(  6-C ,  8-H ) :   0.9446 B(  6-C ,  9-C ) :   1.0746
B(  9-C , 10-H ) :   0.9559 B(  9-C , 11-H ) :   0.9620 B(  9-C , 12-C ) :   1.0684
B( 12-C , 13-H ) :   0.9789 B( 12-C , 14-H ) :   0.9728 B( 12-C , 15-H ) :   0.9742
B( 16-S , 17-C ) :   1.1671 B( 16-S , 20-C ) :   1.1234 B( 17-C , 18-C ) :   1.6383
B( 17-C , 33-H ) :   0.9581 B( 18-C , 19-C ) :   1.2033 B( 18-C , 21-H ) :   0.9882
B( 19-C , 20-C ) :   1.6354 B( 19-C , 22-C ) :   1.0382 B( 22-C , 23-H ) :   0.9303
B( 22-C , 24-H ) :   0.9357 B( 22-C , 25-C ) :   1.0692 B( 25-C , 26-H ) :   0.9580
B( 25-C , 27-H ) :   0.9510 B( 25-C , 28-C ) :   1.0668 B( 28-C , 29-H ) :   0.9749
B( 28-C , 30-H ) :   0.9731 B( 28-C , 31-H ) :   0.9748

Dispersion correction           -0.015302643
FINAL SINGLE POINT ENERGY     -1339.866431795936

DIPOLE MOMENT
-------------
                                X             Y             Z
Electronic contribution:     -6.89855      17.87948      -2.08628
Nuclear contribution   :      7.02523     -18.46771       2.52763
                        -----------------------------------------
Total Dipole Moment    :      0.12668      -0.58823       0.44135
                        -----------------------------------------
Magnitude (a.u.)       :      0.74623
Magnitude (Debye)      :      1.89675

Rotational constants in cm-1:     0.022291     0.008105     0.007245
Rotational constants in MHz :   668.269070   242.987120   217.205330

                             ****ORCA TERMINATED NORMALLY****
TOTAL RUN TIME: 0 days 0 hours 0 minutes 22 seconds 21 msec
