                         Program Version 4.2.1 -  RELEASE  -
|  1> ! wB97X-D3 SP def2-SVP
|  2> %pal
|  3> nprocs 24
|  4> end
|  5>
|  6> * xyz 0 1
|  7> S 	 -37.144 	 4.89703 	 -3.6578
|  8> C 	 -38.8093 	 4.76448 	 -4.24536
|  9> C 	 -39.7464 	 4.75781 	 -3.19669
| 10> C 	 -39.0909 	 4.79417 	 -1.94956
| 11> C 	 -37.6913 	 4.93439 	 -2.00948
| 12> H 	 -39.5099 	 4.63743 	 -0.989705
| 13> C 	 -41.2042 	 4.49616 	 -3.26579
| 14> H 	 -41.5984 	 4.55868 	 -4.30404
| 15> H 	 -41.8111 	 5.21134 	 -2.61505
| 16> C 	 -41.5201 	 3.07153 	 -2.73074
| 17> H 	 -41.1536 	 2.9633 	 -1.73712
| 18> H 	 -42.6114 	 2.91772 	 -2.66874
| 19> C 	 -40.792 	 1.94646 	 -3.5629
| 20> H 	 -41.0607 	 0.894386 	 -3.23906
| 21> H 	 -40.9593 	 2.00995 	 -4.64015
| 22> H 	 -39.754 	 2.08854 	 -3.23407
| 23> S 	 -35.3386 	 3.83158 	 -1.34224
| 24> C 	 -34.8114 	 3.9906 	 0.349729
| 25> C 	 -35.6714 	 4.73513 	 1.1545
| 26> C 	 -36.801 	 5.27986 	 0.403623
| 27> C 	 -36.7615 	 4.81036 	 -0.901085
| 28> H 	 -35.4401 	 4.6685 	 2.16139
| 29> C 	 -38.0143 	 5.98009 	 1.01706
| 30> H 	 -38.8 	 6.27636 	 0.301704
| 31> H 	 -37.7727 	 6.91732 	 1.50795
| 32> C 	 -38.7075 	 5.18768 	 2.13255
| 33> H 	 -39.352 	 5.80676 	 2.65732
| 34> H 	 -37.9497 	 5.09823 	 2.91129
| 35> C 	 -39.2643 	 3.86135 	 1.76002
| 36> H 	 -38.4383 	 3.22323 	 1.48421
| 37> H 	 -39.9248 	 4.00428 	 0.914205
| 38> H 	 -39.9114 	 3.46052 	 2.54275
| 39> H 	 -39.1267 	 4.63325 	 -5.25413
| 40> H 	 -33.9576 	 3.49858 	 0.837844
| 41> *
| 42>
| 43>                          ****END OF INPUT****

CARTESIAN COORDINATES (ANGSTROEM)
---------------------------------
  S    -37.144000    4.897030   -3.657800
  C    -38.809300    4.764480   -4.245360
  C    -39.746400    4.757810   -3.196690
  C    -39.090900    4.794170   -1.949560
  C    -37.691300    4.934390   -2.009480
  H    -39.509900    4.637430   -0.989705
  C    -41.204200    4.496160   -3.265790
  H    -41.598400    4.558680   -4.304040
  H    -41.811100    5.211340   -2.615050
  C    -41.520100    3.071530   -2.730740
  H    -41.153600    2.963300   -1.737120
  H    -42.611400    2.917720   -2.668740
  C    -40.792000    1.946460   -3.562900
  H    -41.060700    0.894386   -3.239060
  H    -40.959300    2.009950   -4.640150
  H    -39.754000    2.088540   -3.234070
  S    -35.338600    3.831580   -1.342240
  C    -34.811400    3.990600    0.349729
  C    -35.671400    4.735130    1.154500
  C    -36.801000    5.279860    0.403623
  C    -36.761500    4.810360   -0.901085
  H    -35.440100    4.668500    2.161390
  C    -38.014300    5.980090    1.017060
  H    -38.800000    6.276360    0.301704
  H    -37.772700    6.917320    1.507950
  C    -38.707500    5.187680    2.132550
  H    -39.352000    5.806760    2.657320
  H    -37.949700    5.098230    2.911290
  C    -39.264300    3.861350    1.760020
  H    -38.438300    3.223230    1.484210
  H    -39.924800    4.004280    0.914205
  H    -39.911400    3.460520    2.542750
  H    -39.126700    4.633250   -5.254130
  H    -33.957600    3.498580    0.837844

 Total Charge           Charge          ....    0
 Multiplicity           Mult            ....    1
 Number of Electrons    NEL             ....  134
 Basis Dimension        Dim             ....  322

ORBITAL ENERGIES
----------------

  NO   OCC          E(Eh)            E(eV)
   0   2.0000     -88.971464     -2421.0366
   1   2.0000     -88.970149     -2421.0008
   2   2.0000     -10.331664      -281.1389
   3   2.0000     -10.329454      -281.0787
   4   2.0000     -10.322021      -280.8765
   5   2.0000     -10.316066      -280.7144
   6   2.0000     -10.313781      -280.6522
   7   2.0000     -10.301951      -280.3303
   8   2.0000     -10.301086      -280.3068
   9   2.0000     -10.297676      -280.2140
  10   2.0000     -10.294402      -280.1249
  11   2.0000     -10.289789      -279.9994
  12   2.0000     -10.288810      -279.9727
  13   2.0000     -10.281003      -279.7603
  14   2.0000     -10.277132      -279.6550
  15   2.0000     -10.274562      -279.5850
  16   2.0000      -8.085669      -220.0222
  17   2.0000      -8.083964      -219.9758
  18   2.0000      -6.044220      -164.4716
  19   2.0000      -6.042553      -164.4262
  20   2.0000      -6.040240      -164.3633
  21   2.0000      -6.038820      -164.3247
  22   2.0000      -6.036426      -164.2595
  23   2.0000      -6.034444      -164.2056
  24   2.0000      -1.005897       -27.3718
  25   2.0000      -0.978725       -26.6325
  26   2.0000      -0.917651       -24.9706
  27   2.0000      -0.912306       -24.8251
  28   2.0000      -0.865922       -23.5629
  29   2.0000      -0.853446       -23.2234
  30   2.0000      -0.841506       -22.8985
  31   2.0000      -0.812597       -22.1119
  32   2.0000      -0.786530       -21.4026
  33   2.0000      -0.775377       -21.0991
  34   2.0000      -0.713484       -19.4149
  35   2.0000      -0.696180       -18.9440
  36   2.0000      -0.694293       -18.8927
  37   2.0000      -0.659405       -17.9433
  38   2.0000      -0.639551       -17.4031
  39   2.0000      -0.626697       -17.0533
  40   2.0000      -0.598492       -16.2858
  41   2.0000      -0.569380       -15.4936
  42   2.0000      -0.559131       -15.2147
  43   2.0000      -0.549932       -14.9644
  44   2.0000      -0.541493       -14.7348
  45   2.0000      -0.538942       -14.6654
  46   2.0000      -0.519075       -14.1248
  47   2.0000      -0.510427       -13.8894
  48   2.0000      -0.497114       -13.5271
  49   2.0000      -0.494902       -13.4670
  50   2.0000      -0.491218       -13.3667
  51   2.0000      -0.477924       -13.0050
  52   2.0000      -0.470152       -12.7935
  53   2.0000      -0.464736       -12.6461
  54   2.0000      -0.461355       -12.5541
  55   2.0000      -0.455333       -12.3902
  56   2.0000      -0.443592       -12.0707
  57   2.0000      -0.439189       -11.9509
  58   2.0000      -0.432232       -11.7616
  59   2.0000      -0.428548       -11.6614
  60   2.0000      -0.424625       -11.5546
  61   2.0000      -0.415980       -11.3194
  62   2.0000      -0.409997       -11.1566
  63   2.0000      -0.351276        -9.5587
  64   2.0000      -0.335465        -9.1285
  65   2.0000      -0.331583        -9.0228
  66   2.0000      -0.283554        -7.7159
  67   0.0000       0.021229         0.5777
  68   0.0000       0.070675         1.9232
  69   0.0000       0.093290         2.5385
  70   0.0000       0.112375         3.0579
  71   0.0000       0.133410         3.6303

MULLIKEN ATOMIC CHARGES
-----------------------
   0 S :    0.111538
   1 C :   -0.107705
   2 C :   -0.061971
   3 C :    0.030311
   4 C :   -0.124974
   5 H :   -0.047966
   6 C :    0.047897
   7 H :    0.029183
   8 H :    0.047757
   9 C :   -0.089939
  10 H :    0.023818
  11 H :    0.034601
  12 C :   -0.085255
  13 H :    0.039872
  14 H :    0.038164
  15 H :    0.056099
  16 S :    0.100369
  17 C :   -0.097680
  18 C :   -0.027278
  19 C :   -0.008388
  20 C :   -0.143667
  21 H :    0.000505
  22 C :    0.045620
  23 H :    0.032587
  24 H :    0.024482
  25 C :   -0.067602
  26 H :    0.001184
  27 H :    0.007472
  28 C :   -0.011606
  29 H :    0.049641
  30 H :    0.026710
  31 H :    0.033451
  32 H :    0.033811
  33 H :    0.058960
Sum of atomic charges:   -0.0000000

LOEWDIN ATOMIC CHARGES
----------------------
   0 S :    0.407501
   1 C :   -0.191102
   2 C :   -0.062324
   3 C :   -0.061913
   4 C :   -0.195130
   5 H :    0.015713
   6 C :   -0.035867
   7 H :    0.031392
   8 H :    0.041232
   9 C :   -0.037372
  10 H :    0.016828
  11 H :    0.021719
  12 C :   -0.071891
  13 H :    0.030865
  14 H :    0.021252
  15 H :    0.032243
  16 S :    0.375384
  17 C :   -0.177344
  18 C :   -0.060055
  19 C :   -0.052232
  20 C :   -0.175426
  21 H :    0.021762
  22 C :   -0.030738
  23 H :    0.031347
  24 H :    0.033815
  25 C :   -0.042293
  26 H :    0.014407
  27 H :    0.019908
  28 C :   -0.060007
  29 H :    0.031820
  30 H :    0.019796
  31 H :    0.031388
  32 H :    0.022023
  33 H :    0.033295

  Mayer bond orders larger than 0.100000
B(  0-S ,  1-C ) :   1.1361 B(  0-S ,  4-C ) :   1.1533 B(  1-C ,  2-C ) :   1.5799
B(  1-C , 32-H ) :   0.9689 B(  2-C ,  3-C ) :   1.2496 B(  2-C ,  6-C ) :   1.0441
B(  3-C ,  4-C ) :   1.5458 B(  3-C ,  5-H ) :   0.9915 B(  4-C , 20-C ) :   1.0666
B(  6-C ,  7-H ) :   0.9429 B(  6-C ,  8-H ) :   0.9366 B(  6-C ,  9-C ) :   1.0626
B(  9-C , 10-H ) :   0.9594 B(  9-C , 11-H ) :   0.9599 B(  9-C , 12-C ) :   1.0567
B( 12-C , 13-H ) :   0.9753 B( 12-C , 14-H ) :   0.9800 B( 12-C , 15-H ) :   0.9745
B( 16-S , 17-C ) :   1.1194 B( 16-S , 20-C ) :   1.1206 B( 17-C , 18-C ) :   1.6863
B( 17-C , 33-H ) :   0.9612 B( 18-C , 19-C ) :   1.1562 B( 18-C , 21-H ) :   0.9959
B( 19-C , 20-C ) :   1.6285 B( 19-C , 22-C ) :   1.0480 B( 22-C , 23-H ) :   0.9387
B( 22-C , 24-H ) :   0.9251 B( 22-C , 25-C ) :   1.0859 B( 25-C , 26-H ) :   0.9480
B( 25-C , 27-H ) :   0.9445 B( 25-C , 28-C ) :   1.0801 B( 28-C , 29-H ) :   0.9721
B( 28-C , 30-H ) :   0.9657 B( 28-C , 31-H ) :   0.9638

Dispersion correction           -0.016063305
FINAL SINGLE POINT ENERGY     -1339.871908841096

DIPOLE MOMENT
-------------
                                X             Y             Z
Electronic contribution:     23.47537       5.99013     -10.88035
Nuclear contribution   :    -23.99782      -6.17070      11.42935
                        -----------------------------------------
Total Dipole Moment    :     -0.52244      -0.18057       0.54901
                        -----------------------------------------
Magnitude (a.u.)       :      0.77908
Magnitude (Debye)      :      1.98026

Rotational constants in cm-1:     0.018851     0.010385     0.007910
Rotational constants in MHz :   565.129152   311.340035   237.143329

                             ****ORCA TERMINATED NORMALLY****
TOTAL RUN TIME: 0 days 0 hours 0 minutes 23 seconds 427 msec
