                         Program Version 4.2.1 -  RELEASE  -
|  1> ! wB97X-D3 SP def2-SVP
|  2> %pal
|  3> nprocs 24
|  4> end
|  5>
|  6> * xyz 0 1
|  7> S 	 -121.796 	 29.8191 	 -113.951
|  8> C 	 -120.307 	 28.9343 	 -114.173
|  9> C 	 -119.243 	 29.7662 	 -114.247
| 10> C 	 -119.557 	 31.0906 	 -113.922
| 11> C 	 -120.911 	 31.2783 	 -113.7
| 12> H 	 -118.888 	 31.9225 	 -113.794
| 13> C 	 -117.767 	 29.3611 	 -114.486
| 14> H 	 -117.378 	 30.2183 	 -115.026
| 15> H 	 -117.658 	 28.5075 	 -115.189
| 16> C 	 -116.93 	 29.171 	 -113.283
| 17> H 	 -117.307 	 28.3601 	 -112.588
| 18> H 	 -115.936 	 28.8283 	 -113.695
| 19> C 	 -116.712 	 30.4238 	 -112.371
| 20> H 	 -115.987 	 30.3166 	 -111.583
| 21> H 	 -116.262 	 31.2183 	 -113.021
| 22> H 	 -117.662 	 30.8004 	 -111.892
| 23> S 	 -123.41 	 32.3157 	 -112.834
| 24> C 	 -123.529 	 34.0735 	 -112.503
| 25> C 	 -122.371 	 34.7225 	 -112.755
| 26> C 	 -121.226 	 33.8578 	 -113.055
| 27> C 	 -121.611 	 32.5083 	 -113.209
| 28> H 	 -122.192 	 35.7773 	 -112.676
| 29> C 	 -119.901 	 34.4713 	 -113.213
| 30> H 	 -120.003 	 35.4839 	 -113.594
| 31> H 	 -119.488 	 33.925 	 -114.087
| 32> C 	 -118.901 	 34.3532 	 -112.012
| 33> H 	 -117.947 	 34.7897 	 -112.328
| 34> H 	 -118.558 	 33.3278 	 -111.656
| 35> C 	 -119.437 	 34.9803 	 -110.691
| 36> H 	 -119.679 	 36.0257 	 -110.797
| 37> H 	 -118.687 	 34.8434 	 -109.936
| 38> H 	 -120.332 	 34.4518 	 -110.248
| 39> H 	 -120.38 	 27.8881 	 -114.39
| 40> H 	 -124.476 	 34.5203 	 -112.239
| 41> *
| 42>
| 43>                          ****END OF INPUT****

CARTESIAN COORDINATES (ANGSTROEM)
---------------------------------
  S    -121.796000   29.819100  -113.951000
  C    -120.307000   28.934300  -114.173000
  C    -119.243000   29.766200  -114.247000
  C    -119.557000   31.090600  -113.922000
  C    -120.911000   31.278300  -113.700000
  H    -118.888000   31.922500  -113.794000
  C    -117.767000   29.361100  -114.486000
  H    -117.378000   30.218300  -115.026000
  H    -117.658000   28.507500  -115.189000
  C    -116.930000   29.171000  -113.283000
  H    -117.307000   28.360100  -112.588000
  H    -115.936000   28.828300  -113.695000
  C    -116.712000   30.423800  -112.371000
  H    -115.987000   30.316600  -111.583000
  H    -116.262000   31.218300  -113.021000
  H    -117.662000   30.800400  -111.892000
  S    -123.410000   32.315700  -112.834000
  C    -123.529000   34.073500  -112.503000
  C    -122.371000   34.722500  -112.755000
  C    -121.226000   33.857800  -113.055000
  C    -121.611000   32.508300  -113.209000
  H    -122.192000   35.777300  -112.676000
  C    -119.901000   34.471300  -113.213000
  H    -120.003000   35.483900  -113.594000
  H    -119.488000   33.925000  -114.087000
  C    -118.901000   34.353200  -112.012000
  H    -117.947000   34.789700  -112.328000
  H    -118.558000   33.327800  -111.656000
  C    -119.437000   34.980300  -110.691000
  H    -119.679000   36.025700  -110.797000
  H    -118.687000   34.843400  -109.936000
  H    -120.332000   34.451800  -110.248000
  H    -120.380000   27.888100  -114.390000
  H    -124.476000   34.520300  -112.239000

 Total Charge           Charge          ....    0
 Multiplicity           Mult            ....    1
 Number of Electrons    NEL             ....  134
 Basis Dimension        Dim             ....  322

ORBITAL ENERGIES
----------------

  NO   OCC          E(Eh)            E(eV)
   0   2.0000     -88.964318     -2420.8422
   1   2.0000     -88.962735     -2420.7991
   2   2.0000     -10.340291      -281.3736
   3   2.0000     -10.331356      -281.1305
   4   2.0000     -10.320312      -280.8300
   5   2.0000     -10.309385      -280.5326
   6   2.0000     -10.306965      -280.4668
   7   2.0000     -10.300872      -280.3010
   8   2.0000     -10.298113      -280.2259
   9   2.0000     -10.298007      -280.2230
  10   2.0000     -10.295305      -280.1495
  11   2.0000     -10.294097      -280.1166
  12   2.0000     -10.293972      -280.1132
  13   2.0000     -10.289609      -279.9945
  14   2.0000     -10.285779      -279.8903
  15   2.0000     -10.279128      -279.7093
  16   2.0000      -8.079917      -219.8657
  17   2.0000      -8.075712      -219.7513
  18   2.0000      -6.038368      -164.3123
  19   2.0000      -6.034585      -164.2094
  20   2.0000      -6.034398      -164.2043
  21   2.0000      -6.030686      -164.1033
  22   2.0000      -6.030604      -164.1011
  23   2.0000      -6.025993      -163.9756
  24   2.0000      -1.007306       -27.4102
  25   2.0000      -0.976292       -26.5663
  26   2.0000      -0.914355       -24.8809
  27   2.0000      -0.905573       -24.6419
  28   2.0000      -0.864748       -23.5310
  29   2.0000      -0.850243       -23.1363
  30   2.0000      -0.841421       -22.8962
  31   2.0000      -0.813584       -22.1387
  32   2.0000      -0.786337       -21.3973
  33   2.0000      -0.774882       -21.0856
  34   2.0000      -0.709586       -19.3088
  35   2.0000      -0.697571       -18.9819
  36   2.0000      -0.686822       -18.6894
  37   2.0000      -0.666490       -18.1361
  38   2.0000      -0.644503       -17.5378
  39   2.0000      -0.616260       -16.7693
  40   2.0000      -0.592961       -16.1353
  41   2.0000      -0.568821       -15.4784
  42   2.0000      -0.555723       -15.1220
  43   2.0000      -0.547096       -14.8872
  44   2.0000      -0.545451       -14.8425
  45   2.0000      -0.537254       -14.6194
  46   2.0000      -0.516460       -14.0536
  47   2.0000      -0.513707       -13.9787
  48   2.0000      -0.497201       -13.5295
  49   2.0000      -0.494117       -13.4456
  50   2.0000      -0.489096       -13.3090
  51   2.0000      -0.483001       -13.1431
  52   2.0000      -0.475188       -12.9305
  53   2.0000      -0.463643       -12.6164
  54   2.0000      -0.453699       -12.3458
  55   2.0000      -0.450001       -12.2452
  56   2.0000      -0.449535       -12.2325
  57   2.0000      -0.442691       -12.0462
  58   2.0000      -0.429125       -11.6771
  59   2.0000      -0.420481       -11.4419
  60   2.0000      -0.418184       -11.3794
  61   2.0000      -0.409079       -11.1316
  62   2.0000      -0.406909       -11.0726
  63   2.0000      -0.361819        -9.8456
  64   2.0000      -0.337307        -9.1786
  65   2.0000      -0.326391        -8.8816
  66   2.0000      -0.281931        -7.6717
  67   0.0000       0.018102         0.4926
  68   0.0000       0.077955         2.1213
  69   0.0000       0.095035         2.5860
  70   0.0000       0.121556         3.3077
  71   0.0000       0.128385         3.4935

MULLIKEN ATOMIC CHARGES
-----------------------
   0 S :    0.096014
   1 C :   -0.138317
   2 C :   -0.043591
   3 C :   -0.021288
   4 C :   -0.096656
   5 H :   -0.007717
   6 C :    0.076950
   7 H :    0.016830
   8 H :    0.033584
   9 C :   -0.077377
  10 H :    0.040113
  11 H :    0.036988
  12 C :   -0.093582
  13 H :    0.034324
  14 H :    0.025083
  15 H :    0.064973
  16 S :    0.056784
  17 C :   -0.075826
  18 C :    0.006440
  19 C :   -0.090237
  20 C :   -0.099128
  21 H :    0.010927
  22 C :    0.040963
  23 H :    0.027007
  24 H :    0.031529
  25 C :   -0.076799
  26 H :    0.031067
  27 H :    0.042103
  28 C :   -0.064883
  29 H :    0.028395
  30 H :    0.026908
  31 H :    0.055098
  32 H :    0.043664
  33 H :    0.059661
Sum of atomic charges:    0.0000000

LOEWDIN ATOMIC CHARGES
----------------------
   0 S :    0.410933
   1 C :   -0.188826
   2 C :   -0.064000
   3 C :   -0.071328
   4 C :   -0.187879
   5 H :    0.025987
   6 C :   -0.033439
   7 H :    0.030128
   8 H :    0.035300
   9 C :   -0.046423
  10 H :    0.029416
  11 H :    0.031058
  12 C :   -0.076448
  13 H :    0.023786
  14 H :    0.024442
  15 H :    0.032397
  16 S :    0.331367
  17 C :   -0.161135
  18 C :   -0.066730
  19 C :   -0.056218
  20 C :   -0.157000
  21 H :    0.028423
  22 C :   -0.041875
  23 H :    0.034504
  24 H :    0.036719
  25 C :   -0.041825
  26 H :    0.024656
  27 H :    0.033054
  28 C :   -0.070223
  29 H :    0.018075
  30 H :    0.023423
  31 H :    0.037132
  32 H :    0.023291
  33 H :    0.029257

  Mayer bond orders larger than 0.100000
B(  0-S ,  1-C ) :   1.1361 B(  0-S ,  4-C ) :   1.1623 B(  1-C ,  2-C ) :   1.6066
B(  1-C , 32-H ) :   0.9770 B(  2-C ,  3-C ) :   1.2471 B(  2-C ,  6-C ) :   1.0062
B(  3-C ,  4-C ) :   1.5553 B(  3-C ,  5-H ) :   0.9928 B(  4-C , 20-C ) :   1.0669
B(  6-C ,  7-H ) :   0.9339 B(  6-C ,  8-H ) :   0.9424 B(  6-C ,  9-C ) :   1.0833
B(  9-C , 10-H ) :   0.9524 B(  9-C , 11-H ) :   0.9518 B(  9-C , 12-C ) :   1.0773
B( 12-C , 13-H ) :   0.9726 B( 12-C , 14-H ) :   0.9722 B( 12-C , 15-H ) :   0.9662
B( 16-S , 17-C ) :   1.1181 B( 16-S , 20-C ) :   1.1046 B( 17-C , 18-C ) :   1.6417
B( 17-C , 33-H ) :   0.9683 B( 18-C , 19-C ) :   1.2130 B( 18-C , 21-H ) :   0.9865
B( 19-C , 20-C ) :   1.6161 B( 19-C , 22-C ) :   1.0473 B( 22-C , 23-H ) :   0.9339
B( 22-C , 24-H ) :   0.9266 B( 22-C , 25-C ) :   1.0584 B( 25-C , 26-H ) :   0.9558
B( 25-C , 27-H ) :   0.9549 B( 25-C , 28-C ) :   1.0742 B( 28-C , 29-H ) :   0.9777
B( 28-C , 30-H ) :   0.9740 B( 28-C , 31-H ) :   0.9723

Dispersion correction           -0.015392974
FINAL SINGLE POINT ENERGY     -1339.881134639523

DIPOLE MOMENT
-------------
                                X             Y             Z
Electronic contribution:    -27.78989      -7.47635      -7.56853
Nuclear contribution   :     28.51417       7.80244       7.60108
                        -----------------------------------------
Total Dipole Moment    :      0.72429       0.32609       0.03255
                        -----------------------------------------
Magnitude (a.u.)       :      0.79498
Magnitude (Debye)      :      2.02067

Rotational constants in cm-1:     0.018300     0.010287     0.007058
Rotational constants in MHz :   548.624937   308.406265   211.587564

                             ****ORCA TERMINATED NORMALLY****
TOTAL RUN TIME: 0 days 0 hours 0 minutes 23 seconds 757 msec
