                         Program Version 4.2.1 -  RELEASE  -
|  1> ! wB97X-D3 SP def2-SVP
|  2> %pal
|  3> nprocs 24
|  4> end
|  5>
|  6> * xyz 0 1
|  7> S 	 -83.1165 	 -12.9082 	 -59.2758
|  8> C 	 -83.342 	 -11.2598 	 -59.6687
|  9> C 	 -83.5239 	 -10.3695 	 -58.6309
| 10> C 	 -83.552 	 -11.0595 	 -57.4012
| 11> C 	 -83.4446 	 -12.4714 	 -57.5958
| 12> H 	 -83.6397 	 -10.5359 	 -56.465
| 13> C 	 -83.4037 	 -8.86284 	 -58.7049
| 14> H 	 -84.2334 	 -8.3705 	 -58.1036
| 15> H 	 -83.9614 	 -8.5602 	 -59.6364
| 16> C 	 -82.0317 	 -8.26043 	 -58.5327
| 17> H 	 -81.5915 	 -8.67859 	 -57.6298
| 18> H 	 -81.3768 	 -8.58297 	 -59.3767
| 19> C 	 -81.9667 	 -6.75429 	 -58.3796
| 20> H 	 -82.5672 	 -6.55963 	 -57.4689
| 21> H 	 -80.8972 	 -6.42343 	 -58.2596
| 22> H 	 -82.462 	 -6.32491 	 -59.2761
| 23> S 	 -81.655 	 -13.7995 	 -55.9762
| 24> C 	 -82.1101 	 -14.2839 	 -54.3732
| 25> C 	 -83.5053 	 -14.3327 	 -54.2617
| 26> C 	 -84.1446 	 -13.819 	 -55.4468
| 27> C 	 -83.2806 	 -13.3872 	 -56.458
| 28> H 	 -83.9396 	 -14.7269 	 -53.3569
| 29> C 	 -85.6185 	 -13.8872 	 -55.6219
| 30> H 	 -85.8142 	 -13.0081 	 -56.2379
| 31> H 	 -86.131 	 -13.7496 	 -54.6823
| 32> C 	 -86.2064 	 -15.0388 	 -56.422
| 33> H 	 -87.281 	 -14.9701 	 -56.544
| 34> H 	 -85.9409 	 -15.9658 	 -55.8299
| 35> C 	 -85.6616 	 -15.2351 	 -57.821
| 36> H 	 -84.5894 	 -15.4916 	 -57.935
| 37> H 	 -85.8236 	 -14.4485 	 -58.4482
| 38> H 	 -86.2722 	 -16.074 	 -58.2471
| 39> H 	 -83.2408 	 -10.9274 	 -60.7261
| 40> H 	 -81.5204 	 -14.7725 	 -53.6591
| 41> *
| 42>
| 43>                          ****END OF INPUT****

CARTESIAN COORDINATES (ANGSTROEM)
---------------------------------
  S    -83.116500  -12.908200  -59.275800
  C    -83.342000  -11.259800  -59.668700
  C    -83.523900  -10.369500  -58.630900
  C    -83.552000  -11.059500  -57.401200
  C    -83.444600  -12.471400  -57.595800
  H    -83.639700  -10.535900  -56.465000
  C    -83.403700   -8.862840  -58.704900
  H    -84.233400   -8.370500  -58.103600
  H    -83.961400   -8.560200  -59.636400
  C    -82.031700   -8.260430  -58.532700
  H    -81.591500   -8.678590  -57.629800
  H    -81.376800   -8.582970  -59.376700
  C    -81.966700   -6.754290  -58.379600
  H    -82.567200   -6.559630  -57.468900
  H    -80.897200   -6.423430  -58.259600
  H    -82.462000   -6.324910  -59.276100
  S    -81.655000  -13.799500  -55.976200
  C    -82.110100  -14.283900  -54.373200
  C    -83.505300  -14.332700  -54.261700
  C    -84.144600  -13.819000  -55.446800
  C    -83.280600  -13.387200  -56.458000
  H    -83.939600  -14.726900  -53.356900
  C    -85.618500  -13.887200  -55.621900
  H    -85.814200  -13.008100  -56.237900
  H    -86.131000  -13.749600  -54.682300
  C    -86.206400  -15.038800  -56.422000
  H    -87.281000  -14.970100  -56.544000
  H    -85.940900  -15.965800  -55.829900
  C    -85.661600  -15.235100  -57.821000
  H    -84.589400  -15.491600  -57.935000
  H    -85.823600  -14.448500  -58.448200
  H    -86.272200  -16.074000  -58.247100
  H    -83.240800  -10.927400  -60.726100
  H    -81.520400  -14.772500  -53.659100

 Total Charge           Charge          ....    0
 Multiplicity           Mult            ....    1
 Number of Electrons    NEL             ....  134
 Basis Dimension        Dim             ....  322

ORBITAL ENERGIES
----------------

  NO   OCC          E(Eh)            E(eV)
   0   2.0000     -88.976671     -2421.1783
   1   2.0000     -88.960133     -2420.7283
   2   2.0000     -10.335068      -281.2315
   3   2.0000     -10.322928      -280.9011
   4   2.0000     -10.315836      -280.7082
   5   2.0000     -10.312476      -280.6167
   6   2.0000     -10.300446      -280.2894
   7   2.0000     -10.300065      -280.2790
   8   2.0000     -10.299203      -280.2556
   9   2.0000     -10.298824      -280.2453
  10   2.0000     -10.293069      -280.0886
  11   2.0000     -10.287959      -279.9496
  12   2.0000     -10.286937      -279.9218
  13   2.0000     -10.282834      -279.8101
  14   2.0000     -10.277620      -279.6683
  15   2.0000     -10.264303      -279.3059
  16   2.0000      -8.091297      -220.1754
  17   2.0000      -8.075285      -219.7397
  18   2.0000      -6.049514      -164.6156
  19   2.0000      -6.045963      -164.5190
  20   2.0000      -6.042239      -164.4177
  21   2.0000      -6.033759      -164.1869
  22   2.0000      -6.029557      -164.0726
  23   2.0000      -6.026227      -163.9820
  24   2.0000      -1.006073       -27.3766
  25   2.0000      -0.985099       -26.8059
  26   2.0000      -0.914740       -24.8913
  27   2.0000      -0.908033       -24.7088
  28   2.0000      -0.867052       -23.5937
  29   2.0000      -0.859156       -23.3788
  30   2.0000      -0.844459       -22.9789
  31   2.0000      -0.810574       -22.0568
  32   2.0000      -0.782214       -21.2851
  33   2.0000      -0.768459       -20.9108
  34   2.0000      -0.702941       -19.1280
  35   2.0000      -0.696206       -18.9447
  36   2.0000      -0.689318       -18.7573
  37   2.0000      -0.658709       -17.9244
  38   2.0000      -0.641509       -17.4563
  39   2.0000      -0.622227       -16.9317
  40   2.0000      -0.587068       -15.9749
  41   2.0000      -0.571388       -15.5482
  42   2.0000      -0.560850       -15.2615
  43   2.0000      -0.549777       -14.9602
  44   2.0000      -0.545466       -14.8429
  45   2.0000      -0.532484       -14.4896
  46   2.0000      -0.516744       -14.0613
  47   2.0000      -0.510711       -13.8971
  48   2.0000      -0.500072       -13.6077
  49   2.0000      -0.497972       -13.5505
  50   2.0000      -0.490913       -13.3584
  51   2.0000      -0.474467       -12.9109
  52   2.0000      -0.463813       -12.6210
  53   2.0000      -0.462276       -12.5792
  54   2.0000      -0.453705       -12.3459
  55   2.0000      -0.450317       -12.2537
  56   2.0000      -0.446093       -12.1388
  57   2.0000      -0.439694       -11.9647
  58   2.0000      -0.431143       -11.7320
  59   2.0000      -0.427128       -11.6227
  60   2.0000      -0.415406       -11.3038
  61   2.0000      -0.406236       -11.0542
  62   2.0000      -0.402367       -10.9490
  63   2.0000      -0.342765        -9.3271
  64   2.0000      -0.329197        -8.9579
  65   2.0000      -0.319862        -8.7039
  66   2.0000      -0.298218        -8.1149
  67   0.0000       0.036330         0.9886
  68   0.0000       0.051467         1.4005
  69   0.0000       0.106110         2.8874
  70   0.0000       0.120912         3.2902
  71   0.0000       0.125433         3.4132

MULLIKEN ATOMIC CHARGES
-----------------------
   0 S :    0.139826
   1 C :   -0.129150
   2 C :   -0.077332
   3 C :    0.054712
   4 C :   -0.182252
   5 H :    0.018530
   6 C :    0.014495
   7 H :    0.020838
   8 H :    0.014139
   9 C :   -0.044512
  10 H :    0.025584
  11 H :    0.033494
  12 C :   -0.057284
  13 H :    0.036211
  14 H :    0.055027
  15 H :    0.038777
  16 S :    0.105293
  17 C :   -0.075125
  18 C :   -0.042108
  19 C :   -0.063648
  20 C :   -0.151995
  21 H :    0.019024
  22 C :    0.092737
  23 H :    0.013135
  24 H :    0.014884
  25 C :   -0.056825
  26 H :    0.032780
  27 H :    0.024505
  28 C :   -0.044515
  29 H :    0.040070
  30 H :    0.006357
  31 H :    0.028971
  32 H :    0.054644
  33 H :    0.040712
Sum of atomic charges:   -0.0000000

LOEWDIN ATOMIC CHARGES
----------------------
   0 S :    0.434933
   1 C :   -0.204788
   2 C :   -0.074259
   3 C :   -0.033873
   4 C :   -0.203884
   5 H :    0.034454
   6 C :   -0.053124
   7 H :    0.035426
   8 H :    0.033947
   9 C :   -0.047177
  10 H :    0.024547
  11 H :    0.028518
  12 C :   -0.066476
  13 H :    0.028018
  14 H :    0.036360
  15 H :    0.027172
  16 S :    0.414649
  17 C :   -0.185177
  18 C :   -0.071897
  19 C :   -0.054267
  20 C :   -0.212856
  21 H :    0.031078
  22 C :   -0.041193
  23 H :    0.030573
  24 H :    0.026169
  25 C :   -0.037441
  26 H :    0.026857
  27 H :    0.026436
  28 C :   -0.066633
  29 H :    0.025115
  30 H :    0.004610
  31 H :    0.033914
  32 H :    0.030202
  33 H :    0.020065

  Mayer bond orders larger than 0.100000
B(  0-S ,  1-C ) :   1.1680 B(  0-S ,  4-C ) :   1.1598 B(  1-C ,  2-C ) :   1.5918
B(  1-C , 32-H ) :   0.9574 B(  2-C ,  3-C ) :   1.2820 B(  2-C ,  6-C ) :   1.0367
B(  3-C ,  4-C ) :   1.5310 B(  3-C ,  5-H ) :   0.9967 B(  4-C , 20-C ) :   1.0173
B(  6-C ,  7-H ) :   0.9333 B(  6-C ,  8-H ) :   0.9251 B(  6-C ,  9-C ) :   1.0495
B(  9-C , 10-H ) :   0.9554 B(  9-C , 11-H ) :   0.9500 B(  9-C , 12-C ) :   1.0788
B( 12-C , 13-H ) :   0.9749 B( 12-C , 14-H ) :   0.9725 B( 12-C , 15-H ) :   0.9757
B( 16-S , 17-C ) :   1.1800 B( 16-S , 20-C ) :   1.1355 B( 17-C , 18-C ) :   1.5788
B( 17-C , 20-C ) :   0.1014 B( 17-C , 33-H ) :   0.9687 B( 18-C , 19-C ) :   1.2560
B( 18-C , 21-H ) :   0.9957 B( 19-C , 20-C ) :   1.5775 B( 19-C , 22-C ) :   1.0564
B( 22-C , 23-H ) :   0.9200 B( 22-C , 24-H ) :   0.9323 B( 22-C , 25-C ) :   1.0779
B( 25-C , 26-H ) :   0.9535 B( 25-C , 27-H ) :   0.9510 B( 25-C , 28-C ) :   1.0917
B( 28-C , 29-H ) :   0.9679 B( 28-C , 30-H ) :   0.9720 B( 28-C , 31-H ) :   0.9694

Dispersion correction           -0.015209206
FINAL SINGLE POINT ENERGY     -1339.865344927528

DIPOLE MOMENT
-------------
                                X             Y             Z
Electronic contribution:      9.63967     -13.17599       1.40005
Nuclear contribution   :     -9.82175      13.55198      -1.32242
                        -----------------------------------------
Total Dipole Moment    :     -0.18209       0.37600       0.07763
                        -----------------------------------------
Magnitude (a.u.)       :      0.42492
Magnitude (Debye)      :      1.08006

Rotational constants in cm-1:     0.021430     0.008022     0.007121
Rotational constants in MHz :   642.446195   240.480292   213.477253

                             ****ORCA TERMINATED NORMALLY****
TOTAL RUN TIME: 0 days 0 hours 0 minutes 22 seconds 63 msec
