                         Program Version 4.2.1 -  RELEASE  -
|  1> ! wB97X-D3 SP def2-SVP
|  2> %pal
|  3> nprocs 24
|  4> end
|  5>
|  6> * xyz 0 1
|  7> S 	 -112.852 	 55.3791 	 -93.3512
|  8> C 	 -112.378 	 56.4485 	 -91.9885
|  9> C 	 -112.092 	 57.7343 	 -92.3359
| 10> C 	 -112.079 	 57.725 	 -93.7791
| 11> C 	 -112.318 	 56.5543 	 -94.4463
| 12> H 	 -111.861 	 58.5554 	 -94.3929
| 13> C 	 -111.708 	 58.8704 	 -91.4544
| 14> H 	 -110.629 	 58.809 	 -91.4406
| 15> H 	 -111.906 	 58.6675 	 -90.4078
| 16> C 	 -112.369 	 60.2898 	 -91.7723
| 17> H 	 -112.215 	 60.9129 	 -90.9368
| 18> H 	 -111.904 	 60.7631 	 -92.6539
| 19> C 	 -113.893 	 60.1648 	 -91.798
| 20> H 	 -114.219 	 59.7006 	 -92.6988
| 21> H 	 -114.267 	 59.5656 	 -90.9931
| 22> H 	 -114.33 	 61.1608 	 -91.7182
| 23> S 	 -113.782 	 55.7606 	 -96.6171
| 24> C 	 -113.152 	 56.03 	 -98.2289
| 25> C 	 -111.781 	 56.4449 	 -98.1951
| 26> C 	 -111.346 	 56.5614 	 -96.8172
| 27> C 	 -112.316 	 56.4265 	 -95.8858
| 28> H 	 -111.153 	 56.4297 	 -99.0194
| 29> C 	 -109.908 	 56.9396 	 -96.6195
| 30> H 	 -109.729 	 56.8655 	 -95.558
| 31> H 	 -109.721 	 57.9379 	 -96.9536
| 32> C 	 -108.878 	 56.1444 	 -97.3592
| 33> H 	 -108.946 	 56.3386 	 -98.3802
| 34> H 	 -109.007 	 55.0527 	 -97.1195
| 35> C 	 -107.458 	 56.5234 	 -96.9444
| 36> H 	 -106.819 	 55.9554 	 -97.6435
| 37> H 	 -107.213 	 56.2216 	 -95.9277
| 38> H 	 -107.31 	 57.5444 	 -97.004
| 39> H 	 -112.573 	 56.1298 	 -90.9721
| 40> H 	 -113.73 	 55.7578 	 -99.0819
| 41> *
| 42>
| 43>                          ****END OF INPUT****

CARTESIAN COORDINATES (ANGSTROEM)
---------------------------------
  S    -112.852000   55.379100  -93.351200
  C    -112.378000   56.448500  -91.988500
  C    -112.092000   57.734300  -92.335900
  C    -112.079000   57.725000  -93.779100
  C    -112.318000   56.554300  -94.446300
  H    -111.861000   58.555400  -94.392900
  C    -111.708000   58.870400  -91.454400
  H    -110.629000   58.809000  -91.440600
  H    -111.906000   58.667500  -90.407800
  C    -112.369000   60.289800  -91.772300
  H    -112.215000   60.912900  -90.936800
  H    -111.904000   60.763100  -92.653900
  C    -113.893000   60.164800  -91.798000
  H    -114.219000   59.700600  -92.698800
  H    -114.267000   59.565600  -90.993100
  H    -114.330000   61.160800  -91.718200
  S    -113.782000   55.760600  -96.617100
  C    -113.152000   56.030000  -98.228900
  C    -111.781000   56.444900  -98.195100
  C    -111.346000   56.561400  -96.817200
  C    -112.316000   56.426500  -95.885800
  H    -111.153000   56.429700  -99.019400
  C    -109.908000   56.939600  -96.619500
  H    -109.729000   56.865500  -95.558000
  H    -109.721000   57.937900  -96.953600
  C    -108.878000   56.144400  -97.359200
  H    -108.946000   56.338600  -98.380200
  H    -109.007000   55.052700  -97.119500
  C    -107.458000   56.523400  -96.944400
  H    -106.819000   55.955400  -97.643500
  H    -107.213000   56.221600  -95.927700
  H    -107.310000   57.544400  -97.004000
  H    -112.573000   56.129800  -90.972100
  H    -113.730000   55.757800  -99.081900

 Total Charge           Charge          ....    0
 Multiplicity           Mult            ....    1
 Number of Electrons    NEL             ....  134
 Basis Dimension        Dim             ....  322

ORBITAL ENERGIES
----------------

  NO   OCC          E(Eh)            E(eV)
   0   2.0000     -88.962647     -2420.7967
   1   2.0000     -88.962547     -2420.7940
   2   2.0000     -10.323109      -280.9061
   3   2.0000     -10.322090      -280.8783
   4   2.0000     -10.319931      -280.8196
   5   2.0000     -10.312043      -280.6050
   6   2.0000     -10.302670      -280.3499
   7   2.0000     -10.298571      -280.2384
   8   2.0000     -10.297224      -280.2017
   9   2.0000     -10.294915      -280.1389
  10   2.0000     -10.292095      -280.0622
  11   2.0000     -10.285489      -279.8824
  12   2.0000     -10.279648      -279.7234
  13   2.0000     -10.279038      -279.7068
  14   2.0000     -10.271949      -279.5139
  15   2.0000     -10.271862      -279.5116
  16   2.0000      -8.078097      -219.8162
  17   2.0000      -8.077377      -219.7966
  18   2.0000      -6.036638      -164.2653
  19   2.0000      -6.035937      -164.2462
  20   2.0000      -6.032738      -164.1591
  21   2.0000      -6.031913      -164.1367
  22   2.0000      -6.028539      -164.0449
  23   2.0000      -6.028055      -164.0317
  24   2.0000      -1.009713       -27.4757
  25   2.0000      -0.983208       -26.7544
  26   2.0000      -0.918507       -24.9938
  27   2.0000      -0.913132       -24.8476
  28   2.0000      -0.870735       -23.6939
  29   2.0000      -0.854774       -23.2596
  30   2.0000      -0.843659       -22.9571
  31   2.0000      -0.811407       -22.0795
  32   2.0000      -0.786405       -21.3992
  33   2.0000      -0.776640       -21.1335
  34   2.0000      -0.710758       -19.3407
  35   2.0000      -0.700679       -19.0665
  36   2.0000      -0.694127       -18.8881
  37   2.0000      -0.665315       -18.1041
  38   2.0000      -0.642793       -17.4913
  39   2.0000      -0.620461       -16.8836
  40   2.0000      -0.599542       -16.3144
  41   2.0000      -0.581986       -15.8367
  42   2.0000      -0.565446       -15.3866
  43   2.0000      -0.557020       -15.1573
  44   2.0000      -0.546981       -14.8841
  45   2.0000      -0.527701       -14.3595
  46   2.0000      -0.522492       -14.2177
  47   2.0000      -0.510783       -13.8991
  48   2.0000      -0.501297       -13.6410
  49   2.0000      -0.497832       -13.5467
  50   2.0000      -0.489366       -13.3163
  51   2.0000      -0.479787       -13.0557
  52   2.0000      -0.470089       -12.7918
  53   2.0000      -0.467525       -12.7220
  54   2.0000      -0.460527       -12.5316
  55   2.0000      -0.448303       -12.1990
  56   2.0000      -0.444344       -12.0912
  57   2.0000      -0.437824       -11.9138
  58   2.0000      -0.427782       -11.6405
  59   2.0000      -0.427205       -11.6248
  60   2.0000      -0.424507       -11.5514
  61   2.0000      -0.423002       -11.5105
  62   2.0000      -0.412148       -11.2151
  63   2.0000      -0.342455        -9.3187
  64   2.0000      -0.328371        -8.9354
  65   2.0000      -0.327016        -8.8986
  66   2.0000      -0.293942        -7.9986
  67   0.0000       0.035920         0.9774
  68   0.0000       0.064616         1.7583
  69   0.0000       0.105434         2.8690
  70   0.0000       0.119285         3.2459
  71   0.0000       0.134550         3.6613

MULLIKEN ATOMIC CHARGES
-----------------------
   0 S :    0.102963
   1 C :   -0.137225
   2 C :   -0.050342
   3 C :    0.015283
   4 C :   -0.146813
   5 H :   -0.013919
   6 C :    0.066843
   7 H :    0.043413
   8 H :    0.008692
   9 C :   -0.066231
  10 H :    0.023306
  11 H :    0.045935
  12 C :   -0.035646
  13 H :    0.035940
  14 H :    0.024995
  15 H :    0.034734
  16 S :    0.089100
  17 C :   -0.087548
  18 C :   -0.000324
  19 C :   -0.031614
  20 C :   -0.153175
  21 H :    0.001887
  22 C :    0.088787
  23 H :    0.017341
  24 H :    0.019498
  25 C :   -0.114169
  26 H :    0.018033
  27 H :    0.040600
  28 C :   -0.008090
  29 H :    0.035052
  30 H :    0.028508
  31 H :    0.010061
  32 H :    0.038318
  33 H :    0.055807
Sum of atomic charges:   -0.0000000

LOEWDIN ATOMIC CHARGES
----------------------
   0 S :    0.399224
   1 C :   -0.177294
   2 C :   -0.058955
   3 C :   -0.058734
   4 C :   -0.216327
   5 H :    0.018515
   6 C :   -0.033038
   7 H :    0.038232
   8 H :    0.029845
   9 C :   -0.031675
  10 H :    0.021039
  11 H :    0.026968
  12 C :   -0.057528
  13 H :    0.022816
  14 H :    0.024629
  15 H :    0.028304
  16 S :    0.391159
  17 C :   -0.168297
  18 C :   -0.058887
  19 C :   -0.052045
  20 C :   -0.192426
  21 H :    0.018143
  22 C :   -0.032956
  23 H :    0.027248
  24 H :    0.028670
  25 C :   -0.037169
  26 H :    0.011687
  27 H :    0.031652
  28 C :   -0.051714
  29 H :    0.031788
  30 H :    0.024916
  31 H :    0.011374
  32 H :    0.019836
  33 H :    0.021000

  Mayer bond orders larger than 0.100000
B(  0-S ,  1-C ) :   1.1297 B(  0-S ,  4-C ) :   1.1341 B(  1-C ,  2-C ) :   1.6303
B(  1-C , 32-H ) :   0.9633 B(  2-C ,  3-C ) :   1.1980 B(  2-C ,  6-C ) :   1.0244
B(  3-C ,  4-C ) :   1.6035 B(  3-C ,  5-H ) :   1.0018 B(  4-C , 20-C ) :   1.0397
B(  6-C ,  7-H ) :   0.9371 B(  6-C ,  8-H ) :   0.9341 B(  6-C ,  9-C ) :   1.0617
B(  9-C , 10-H ) :   0.9606 B(  9-C , 11-H ) :   0.9578 B(  9-C , 12-C ) :   1.0737
B( 12-C , 13-H ) :   0.9734 B( 12-C , 14-H ) :   0.9740 B( 12-C , 15-H ) :   0.9753
B( 16-S , 17-C ) :   1.1731 B( 16-S , 20-C ) :   1.1056 B( 17-C , 18-C ) :   1.5855
B( 17-C , 33-H ) :   0.9730 B( 18-C , 19-C ) :   1.2166 B( 18-C , 21-H ) :   0.9983
B( 19-C , 20-C ) :   1.6432 B( 19-C , 22-C ) :   1.0559 B( 22-C , 23-H ) :   0.9321
B( 22-C , 24-H ) :   0.9263 B( 22-C , 25-C ) :   1.0779 B( 25-C , 26-H ) :   0.9474
B( 25-C , 27-H ) :   0.9552 B( 25-C , 28-C ) :   1.0970 B( 28-C , 29-H ) :   0.9741
B( 28-C , 30-H ) :   0.9745 B( 28-C , 31-H ) :   0.9707

Dispersion correction           -0.013882817
FINAL SINGLE POINT ENERGY     -1339.862931800373

DIPOLE MOMENT
-------------
                                X             Y             Z
Electronic contribution:    -16.27916     -16.06694      -4.11526
Nuclear contribution   :     16.72189      16.57229       4.19171
                        -----------------------------------------
Total Dipole Moment    :      0.44274       0.50535       0.07645
                        -----------------------------------------
Magnitude (a.u.)       :      0.67619
Magnitude (Debye)      :      1.71875

Rotational constants in cm-1:     0.017732     0.008356     0.007022
Rotational constants in MHz :   531.598218   250.520427   210.515100

                             ****ORCA TERMINATED NORMALLY****
TOTAL RUN TIME: 0 days 0 hours 0 minutes 21 seconds 541 msec
