                         Program Version 4.2.1 -  RELEASE  -
|  1> ! wB97X-D3 SP def2-SVP
|  2> %pal
|  3> nprocs 24
|  4> end
|  5>
|  6> * xyz 0 1
|  7> S 	 -98.4877 	 -30.1953 	 -63.7136
|  8> C 	 -98.6474 	 -28.7388 	 -64.668
|  9> C 	 -97.9917 	 -27.7074 	 -64.0171
| 10> C 	 -97.4464 	 -28.0862 	 -62.7444
| 11> C 	 -97.7739 	 -29.3915 	 -62.3237
| 12> H 	 -96.8438 	 -27.4411 	 -62.0848
| 13> C 	 -97.8279 	 -26.3089 	 -64.5985
| 14> H 	 -97.2382 	 -26.4042 	 -65.5176
| 15> H 	 -97.1242 	 -25.6629 	 -64.0034
| 16> C 	 -99.0605 	 -25.4129 	 -64.7948
| 17> H 	 -99.7337 	 -25.9926 	 -65.3669
| 18> H 	 -99.5699 	 -25.1823 	 -63.8654
| 19> C 	 -98.6587 	 -24.1178 	 -65.5776
| 20> H 	 -99.2939 	 -23.2701 	 -65.3897
| 21> H 	 -97.5499 	 -23.9618 	 -65.5761
| 22> H 	 -98.8157 	 -24.2421 	 -66.5823
| 23> S 	 -96.8783 	 -31.7587 	 -61.1744
| 24> C 	 -96.5566 	 -31.777 	 -59.4511
| 25> C 	 -97.065 	 -30.6787 	 -58.8134
| 26> C 	 -97.4484 	 -29.6438 	 -59.7573
| 27> C 	 -97.4605 	 -30.1042 	 -61.0544
| 28> H 	 -97.1207 	 -30.654 	 -57.7721
| 29> C 	 -97.8803 	 -28.3008 	 -59.2785
| 30> H 	 -98.4729 	 -28.4484 	 -58.3857
| 31> H 	 -98.5663 	 -27.9323 	 -59.9823
| 32> C 	 -96.8307 	 -27.2807 	 -58.7934
| 33> H 	 -96.0891 	 -27.1189 	 -59.6146
| 34> H 	 -96.2231 	 -27.4107 	 -57.8714
| 35> C 	 -97.4384 	 -25.8878 	 -58.5456
| 36> H 	 -98.0549 	 -25.8741 	 -57.7033
| 37> H 	 -97.964 	 -25.502 	 -59.4397
| 38> H 	 -96.6433 	 -25.1765 	 -58.3774
| 39> H 	 -99.2019 	 -28.7183 	 -65.5633
| 40> H 	 -96.3138 	 -32.6154 	 -58.8764
| 41> *
| 42>
| 43>                          ****END OF INPUT****

CARTESIAN COORDINATES (ANGSTROEM)
---------------------------------
  S    -98.487700  -30.195300  -63.713600
  C    -98.647400  -28.738800  -64.668000
  C    -97.991700  -27.707400  -64.017100
  C    -97.446400  -28.086200  -62.744400
  C    -97.773900  -29.391500  -62.323700
  H    -96.843800  -27.441100  -62.084800
  C    -97.827900  -26.308900  -64.598500
  H    -97.238200  -26.404200  -65.517600
  H    -97.124200  -25.662900  -64.003400
  C    -99.060500  -25.412900  -64.794800
  H    -99.733700  -25.992600  -65.366900
  H    -99.569900  -25.182300  -63.865400
  C    -98.658700  -24.117800  -65.577600
  H    -99.293900  -23.270100  -65.389700
  H    -97.549900  -23.961800  -65.576100
  H    -98.815700  -24.242100  -66.582300
  S    -96.878300  -31.758700  -61.174400
  C    -96.556600  -31.777000  -59.451100
  C    -97.065000  -30.678700  -58.813400
  C    -97.448400  -29.643800  -59.757300
  C    -97.460500  -30.104200  -61.054400
  H    -97.120700  -30.654000  -57.772100
  C    -97.880300  -28.300800  -59.278500
  H    -98.472900  -28.448400  -58.385700
  H    -98.566300  -27.932300  -59.982300
  C    -96.830700  -27.280700  -58.793400
  H    -96.089100  -27.118900  -59.614600
  H    -96.223100  -27.410700  -57.871400
  C    -97.438400  -25.887800  -58.545600
  H    -98.054900  -25.874100  -57.703300
  H    -97.964000  -25.502000  -59.439700
  H    -96.643300  -25.176500  -58.377400
  H    -99.201900  -28.718300  -65.563300
  H    -96.313800  -32.615400  -58.876400

 Total Charge           Charge          ....    0
 Multiplicity           Mult            ....    1
 Number of Electrons    NEL             ....  134
 Basis Dimension        Dim             ....  322

ORBITAL ENERGIES
----------------

  NO   OCC          E(Eh)            E(eV)
   0   2.0000     -88.966414     -2420.8992
   1   2.0000     -88.964381     -2420.8439
   2   2.0000     -10.337119      -281.2873
   3   2.0000     -10.331712      -281.1402
   4   2.0000     -10.314536      -280.6728
   5   2.0000     -10.312546      -280.6186
   6   2.0000     -10.305601      -280.4297
   7   2.0000     -10.304247      -280.3928
   8   2.0000     -10.300371      -280.2873
   9   2.0000     -10.295089      -280.1436
  10   2.0000     -10.293603      -280.1032
  11   2.0000     -10.291375      -280.0426
  12   2.0000     -10.287423      -279.9350
  13   2.0000     -10.286125      -279.8997
  14   2.0000     -10.275463      -279.6096
  15   2.0000     -10.273694      -279.5614
  16   2.0000      -8.081103      -219.8980
  17   2.0000      -8.079127      -219.8442
  18   2.0000      -6.039787      -164.3510
  19   2.0000      -6.037668      -164.2933
  20   2.0000      -6.035776      -164.2418
  21   2.0000      -6.033547      -164.1811
  22   2.0000      -6.031523      -164.1261
  23   2.0000      -6.029936      -164.0829
  24   2.0000      -1.005063       -27.3492
  25   2.0000      -0.984487       -26.7893
  26   2.0000      -0.911176       -24.7944
  27   2.0000      -0.908469       -24.7207
  28   2.0000      -0.869678       -23.6651
  29   2.0000      -0.855673       -23.2840
  30   2.0000      -0.843684       -22.9578
  31   2.0000      -0.818487       -22.2722
  32   2.0000      -0.783492       -21.3199
  33   2.0000      -0.774150       -21.0657
  34   2.0000      -0.709772       -19.3139
  35   2.0000      -0.704522       -19.1710
  36   2.0000      -0.696558       -18.9543
  37   2.0000      -0.667351       -18.1596
  38   2.0000      -0.645281       -17.5590
  39   2.0000      -0.616595       -16.7784
  40   2.0000      -0.597677       -16.2636
  41   2.0000      -0.576392       -15.6844
  42   2.0000      -0.568423       -15.4676
  43   2.0000      -0.556145       -15.1335
  44   2.0000      -0.532631       -14.4936
  45   2.0000      -0.527795       -14.3620
  46   2.0000      -0.520455       -14.1623
  47   2.0000      -0.515552       -14.0289
  48   2.0000      -0.505115       -13.7449
  49   2.0000      -0.500138       -13.6094
  50   2.0000      -0.496767       -13.5177
  51   2.0000      -0.480757       -13.0821
  52   2.0000      -0.471219       -12.8225
  53   2.0000      -0.463608       -12.6154
  54   2.0000      -0.457578       -12.4513
  55   2.0000      -0.450910       -12.2699
  56   2.0000      -0.446377       -12.1465
  57   2.0000      -0.442097       -12.0301
  58   2.0000      -0.436722       -11.8838
  59   2.0000      -0.423755       -11.5310
  60   2.0000      -0.417253       -11.3540
  61   2.0000      -0.414057       -11.2671
  62   2.0000      -0.409264       -11.1366
  63   2.0000      -0.355089        -9.6625
  64   2.0000      -0.330774        -9.0008
  65   2.0000      -0.326949        -8.8967
  66   2.0000      -0.290749        -7.9117
  67   0.0000       0.025374         0.6905
  68   0.0000       0.070389         1.9154
  69   0.0000       0.107563         2.9269
  70   0.0000       0.116188         3.1616
  71   0.0000       0.132904         3.6165

MULLIKEN ATOMIC CHARGES
-----------------------
   0 S :    0.092177
   1 C :   -0.109879
   2 C :   -0.059438
   3 C :    0.020926
   4 C :   -0.145549
   5 H :    0.014871
   6 C :   -0.005489
   7 H :    0.037612
   8 H :    0.021705
   9 C :   -0.033722
  10 H :    0.011575
  11 H :    0.034670
  12 C :   -0.025479
  13 H :    0.033090
  14 H :    0.034695
  15 H :    0.003687
  16 S :    0.100976
  17 C :   -0.055898
  18 C :   -0.012987
  19 C :   -0.047387
  20 C :   -0.122398
  21 H :    0.000432
  22 C :    0.090852
  23 H :    0.013931
  24 H :    0.016602
  25 C :   -0.093067
  26 H :    0.027513
  27 H :    0.040179
  28 C :   -0.044060
  29 H :    0.022851
  30 H :    0.029629
  31 H :    0.027267
  32 H :    0.042776
  33 H :    0.037336
Sum of atomic charges:    0.0000000

LOEWDIN ATOMIC CHARGES
----------------------
   0 S :    0.401965
   1 C :   -0.187850
   2 C :   -0.065391
   3 C :   -0.069184
   4 C :   -0.187669
   5 H :    0.032551
   6 C :   -0.041135
   7 H :    0.032354
   8 H :    0.030269
   9 C :   -0.030728
  10 H :    0.014118
  11 H :    0.024848
  12 C :   -0.065552
  13 H :    0.028293
  14 H :    0.033079
  15 H :    0.016225
  16 S :    0.395153
  17 C :   -0.171172
  18 C :   -0.053380
  19 C :   -0.051163
  20 C :   -0.193027
  21 H :    0.023137
  22 C :   -0.033855
  23 H :    0.034220
  24 H :    0.027407
  25 C :   -0.042622
  26 H :    0.021591
  27 H :    0.031421
  28 C :   -0.060258
  29 H :    0.013534
  30 H :    0.025482
  31 H :    0.025953
  32 H :    0.022135
  33 H :    0.019254

  Mayer bond orders larger than 0.100000
B(  0-S ,  1-C ) :   1.1439 B(  0-S ,  4-C ) :   1.1653 B(  1-C ,  2-C ) :   1.5714
B(  1-C ,  4-C ) :   0.1060 B(  1-C , 32-H ) :   0.9846 B(  2-C ,  3-C ) :   1.2699
B(  2-C ,  6-C ) :   1.0096 B(  3-C ,  4-C ) :   1.5351 B(  3-C ,  5-H ) :   0.9914
B(  4-C , 20-C ) :   1.0330 B(  6-C ,  7-H ) :   0.9467 B(  6-C ,  8-H ) :   0.9458
B(  6-C ,  9-C ) :   1.0610 B(  9-C , 10-H ) :   0.9615 B(  9-C , 11-H ) :   0.9620
B(  9-C , 12-C ) :   1.0623 B( 12-C , 13-H ) :   0.9744 B( 12-C , 14-H ) :   0.9758
B( 12-C , 15-H ) :   0.9698 B( 16-S , 17-C ) :   1.1378 B( 16-S , 20-C ) :   1.1206
B( 17-C , 18-C ) :   1.6562 B( 17-C , 33-H ) :   0.9654 B( 18-C , 19-C ) :   1.1988
B( 18-C , 21-H ) :   0.9965 B( 19-C , 20-C ) :   1.6307 B( 19-C , 22-C ) :   1.0628
B( 22-C , 23-H ) :   0.9248 B( 22-C , 24-H ) :   0.9327 B( 22-C , 25-C ) :   1.0483
B( 25-C , 26-H ) :   0.9562 B( 25-C , 27-H ) :   0.9567 B( 25-C , 28-C ) :   1.0852
B( 28-C , 29-H ) :   0.9774 B( 28-C , 30-H ) :   0.9744 B( 28-C , 31-H ) :   0.9739

Dispersion correction           -0.013514137
FINAL SINGLE POINT ENERGY     -1339.863094857667

DIPOLE MOMENT
-------------
                                X             Y             Z
Electronic contribution:      1.70447     -33.00841      -2.29811
Nuclear contribution   :     -1.77481      33.65131       2.55320
                        -----------------------------------------
Total Dipole Moment    :     -0.07034       0.64290       0.25509
                        -----------------------------------------
Magnitude (a.u.)       :      0.69523
Magnitude (Debye)      :      1.76714

Rotational constants in cm-1:     0.018160     0.008420     0.005969
Rotational constants in MHz :   544.437143   252.410271   178.958160

                             ****ORCA TERMINATED NORMALLY****
TOTAL RUN TIME: 0 days 0 hours 0 minutes 21 seconds 73 msec
