                         Program Version 4.2.1 -  RELEASE  -
|  1> ! wB97X-D3 SP def2-SVP
|  2> %pal
|  3> nprocs 24
|  4> end
|  5>
|  6> * xyz 0 1
|  7> S 	 -53.1432 	 4.04736 	 -31.7207
|  8> C 	 -54.4609 	 3.64907 	 -30.6221
|  9> C 	 -55.4356 	 4.6292 	 -30.4538
| 10> C 	 -55.0871 	 5.80443 	 -31.2097
| 11> C 	 -53.8353 	 5.61673 	 -31.8791
| 12> H 	 -55.7105 	 6.64542 	 -31.454
| 13> C 	 -56.8577 	 4.43042 	 -29.8477
| 14> H 	 -56.8172 	 3.67065 	 -29.0807
| 15> H 	 -57.4307 	 3.88282 	 -30.5734
| 16> C 	 -57.7005 	 5.62346 	 -29.2914
| 17> H 	 -56.9832 	 6.30086 	 -28.8408
| 18> H 	 -57.9973 	 6.16777 	 -30.1917
| 19> C 	 -58.9535 	 5.26782 	 -28.4418
| 20> H 	 -59.4928 	 4.78218 	 -29.1626
| 21> H 	 -58.8326 	 4.73763 	 -27.5056
| 22> H 	 -59.5273 	 6.17979 	 -28.2494
| 23> S 	 -51.5527 	 6.73238 	 -32.5853
| 24> C 	 -51.4356 	 8.00545 	 -33.7788
| 25> C 	 -52.6729 	 8.23042 	 -34.3623
| 26> C 	 -53.6902 	 7.36301 	 -33.8679
| 27> C 	 -53.2308 	 6.55749 	 -32.8094
| 28> H 	 -52.8229 	 8.84297 	 -35.2901
| 29> C 	 -55.141 	 7.368 	 -34.3522
| 30> H 	 -55.5481 	 8.39062 	 -34.5334
| 31> H 	 -55.8051 	 7.023 	 -33.537
| 32> C 	 -55.4868 	 6.59254 	 -35.6139
| 33> H 	 -56.5099 	 6.34488 	 -35.6466
| 34> H 	 -55.0774 	 5.59844 	 -35.6326
| 35> C 	 -55.3275 	 7.42785 	 -36.8329
| 36> H 	 -54.3241 	 7.85071 	 -36.8386
| 37> H 	 -55.9486 	 8.3154 	 -36.9702
| 38> H 	 -55.3762 	 6.82807 	 -37.717
| 39> H 	 -54.5832 	 2.58965 	 -30.3145
| 40> H 	 -50.5406 	 8.5117 	 -34.1511
| 41> *
| 42>
| 43>                          ****END OF INPUT****

CARTESIAN COORDINATES (ANGSTROEM)
---------------------------------
  S    -53.143200    4.047360  -31.720700
  C    -54.460900    3.649070  -30.622100
  C    -55.435600    4.629200  -30.453800
  C    -55.087100    5.804430  -31.209700
  C    -53.835300    5.616730  -31.879100
  H    -55.710500    6.645420  -31.454000
  C    -56.857700    4.430420  -29.847700
  H    -56.817200    3.670650  -29.080700
  H    -57.430700    3.882820  -30.573400
  C    -57.700500    5.623460  -29.291400
  H    -56.983200    6.300860  -28.840800
  H    -57.997300    6.167770  -30.191700
  C    -58.953500    5.267820  -28.441800
  H    -59.492800    4.782180  -29.162600
  H    -58.832600    4.737630  -27.505600
  H    -59.527300    6.179790  -28.249400
  S    -51.552700    6.732380  -32.585300
  C    -51.435600    8.005450  -33.778800
  C    -52.672900    8.230420  -34.362300
  C    -53.690200    7.363010  -33.867900
  C    -53.230800    6.557490  -32.809400
  H    -52.822900    8.842970  -35.290100
  C    -55.141000    7.368000  -34.352200
  H    -55.548100    8.390620  -34.533400
  H    -55.805100    7.023000  -33.537000
  C    -55.486800    6.592540  -35.613900
  H    -56.509900    6.344880  -35.646600
  H    -55.077400    5.598440  -35.632600
  C    -55.327500    7.427850  -36.832900
  H    -54.324100    7.850710  -36.838600
  H    -55.948600    8.315400  -36.970200
  H    -55.376200    6.828070  -37.717000
  H    -54.583200    2.589650  -30.314500
  H    -50.540600    8.511700  -34.151100

 Total Charge           Charge          ....    0
 Multiplicity           Mult            ....    1
 Number of Electrons    NEL             ....  134
 Basis Dimension        Dim             ....  322

ORBITAL ENERGIES
----------------

  NO   OCC          E(Eh)            E(eV)
   0   2.0000     -88.974460     -2421.1182
   1   2.0000     -88.965326     -2420.8696
   2   2.0000     -10.331672      -281.1391
   3   2.0000     -10.322800      -280.8977
   4   2.0000     -10.317232      -280.7461
   5   2.0000     -10.316370      -280.7227
   6   2.0000     -10.311960      -280.6027
   7   2.0000     -10.303650      -280.3766
   8   2.0000     -10.299477      -280.2630
   9   2.0000     -10.296628      -280.1855
  10   2.0000     -10.295274      -280.1486
  11   2.0000     -10.292564      -280.0749
  12   2.0000     -10.292057      -280.0611
  13   2.0000     -10.279864      -279.7293
  14   2.0000     -10.273761      -279.5632
  15   2.0000     -10.269996      -279.4608
  16   2.0000      -8.089255      -220.1198
  17   2.0000      -8.080919      -219.8930
  18   2.0000      -6.047544      -164.5620
  19   2.0000      -6.043939      -164.4639
  20   2.0000      -6.040051      -164.3581
  21   2.0000      -6.039325      -164.3384
  22   2.0000      -6.035142      -164.2246
  23   2.0000      -6.031892      -164.1361
  24   2.0000      -1.010366       -27.4935
  25   2.0000      -0.982475       -26.7345
  26   2.0000      -0.913836       -24.8667
  27   2.0000      -0.907415       -24.6920
  28   2.0000      -0.870846       -23.6969
  29   2.0000      -0.852988       -23.2110
  30   2.0000      -0.848238       -23.0817
  31   2.0000      -0.810772       -22.0622
  32   2.0000      -0.786748       -21.4085
  33   2.0000      -0.772066       -21.0090
  34   2.0000      -0.713253       -19.4086
  35   2.0000      -0.701700       -19.0942
  36   2.0000      -0.687210       -18.6999
  37   2.0000      -0.662906       -18.0386
  38   2.0000      -0.638790       -17.3823
  39   2.0000      -0.620804       -16.8929
  40   2.0000      -0.596149       -16.2220
  41   2.0000      -0.569316       -15.4919
  42   2.0000      -0.556673       -15.1478
  43   2.0000      -0.552305       -15.0290
  44   2.0000      -0.541477       -14.7343
  45   2.0000      -0.521930       -14.2024
  46   2.0000      -0.517937       -14.0938
  47   2.0000      -0.512185       -13.9373
  48   2.0000      -0.503090       -13.6898
  49   2.0000      -0.496868       -13.5205
  50   2.0000      -0.489294       -13.3144
  51   2.0000      -0.480260       -13.0685
  52   2.0000      -0.474580       -12.9140
  53   2.0000      -0.471316       -12.8252
  54   2.0000      -0.460624       -12.5342
  55   2.0000      -0.456643       -12.4259
  56   2.0000      -0.442175       -12.0322
  57   2.0000      -0.439809       -11.9678
  58   2.0000      -0.435665       -11.8551
  59   2.0000      -0.425337       -11.5740
  60   2.0000      -0.420972       -11.4552
  61   2.0000      -0.420337       -11.4380
  62   2.0000      -0.401951       -10.9377
  63   2.0000      -0.346519        -9.4293
  64   2.0000      -0.336134        -9.1467
  65   2.0000      -0.329333        -8.9616
  66   2.0000      -0.285227        -7.7614
  67   0.0000       0.027306         0.7430
  68   0.0000       0.068186         1.8554
  69   0.0000       0.099161         2.6983
  70   0.0000       0.116372         3.1666
  71   0.0000       0.132002         3.5919

MULLIKEN ATOMIC CHARGES
-----------------------
   0 S :    0.134370
   1 C :   -0.144843
   2 C :   -0.049037
   3 C :    0.008929
   4 C :   -0.144948
   5 H :    0.024368
   6 C :    0.045093
   7 H :    0.009823
   8 H :    0.030540
   9 C :   -0.098887
  10 H :    0.032408
  11 H :    0.027569
  12 C :   -0.005215
  13 H :    0.013674
  14 H :    0.050238
  15 H :    0.033781
  16 S :    0.110505
  17 C :   -0.093708
  18 C :   -0.053406
  19 C :   -0.009575
  20 C :   -0.174088
  21 H :    0.041669
  22 C :    0.016002
  23 H :    0.023961
  24 H :    0.008956
  25 C :   -0.006401
  26 H :    0.006593
  27 H :    0.024350
  28 C :   -0.039441
  29 H :    0.003243
  30 H :    0.030838
  31 H :    0.023783
  32 H :    0.057894
  33 H :    0.060962
Sum of atomic charges:   -0.0000000

LOEWDIN ATOMIC CHARGES
----------------------
   0 S :    0.425345
   1 C :   -0.206640
   2 C :   -0.051839
   3 C :   -0.062131
   4 C :   -0.202877
   5 H :    0.028251
   6 C :   -0.036017
   7 H :    0.025771
   8 H :    0.030117
   9 C :   -0.040238
  10 H :    0.020336
  11 H :    0.023403
  12 C :   -0.054524
  13 H :    0.017429
  14 H :    0.029112
  15 H :    0.034374
  16 S :    0.433018
  17 C :   -0.199205
  18 C :   -0.076353
  19 C :   -0.063487
  20 C :   -0.214087
  21 H :    0.039121
  22 C :   -0.036200
  23 H :    0.033428
  24 H :    0.030188
  25 C :   -0.042593
  26 H :    0.021752
  27 H :    0.027560
  28 C :   -0.065633
  29 H :    0.018800
  30 H :    0.026046
  31 H :    0.023828
  32 H :    0.029390
  33 H :    0.034558

  Mayer bond orders larger than 0.100000
B(  0-S ,  1-C ) :   1.1364 B(  0-S ,  4-C ) :   1.1823 B(  1-C ,  2-C ) :   1.6163
B(  1-C ,  4-C ) :   0.1001 B(  1-C , 32-H ) :   0.9636 B(  2-C ,  3-C ) :   1.2463
B(  2-C ,  6-C ) :   1.0148 B(  3-C ,  4-C ) :   1.5457 B(  3-C ,  5-H ) :   0.9909
B(  4-C , 20-C ) :   1.0258 B(  6-C ,  7-H ) :   0.9396 B(  6-C ,  8-H ) :   0.9378
B(  6-C ,  9-C ) :   1.0502 B(  9-C , 10-H ) :   0.9659 B(  9-C , 11-H ) :   0.9526
B(  9-C , 12-C ) :   1.0695 B( 12-C , 13-H ) :   0.9746 B( 12-C , 14-H ) :   0.9786
B( 12-C , 15-H ) :   0.9714 B( 16-S , 17-C ) :   1.1566 B( 16-S , 20-C ) :   1.1685
B( 17-C , 18-C ) :   1.5886 B( 17-C , 20-C ) :   0.1049 B( 17-C , 33-H ) :   0.9664
B( 18-C , 19-C ) :   1.2815 B( 18-C , 21-H ) :   0.9721 B( 19-C , 20-C ) :   1.5581
B( 19-C , 22-C ) :   1.0385 B( 22-C , 23-H ) :   0.9410 B( 22-C , 24-H ) :   0.9337
B( 22-C , 25-C ) :   1.0769 B( 25-C , 26-H ) :   0.9450 B( 25-C , 27-H ) :   0.9497
B( 25-C , 28-C ) :   1.0858 B( 28-C , 29-H ) :   0.9730 B( 28-C , 30-H ) :   0.9716
B( 28-C , 31-H ) :   0.9678

Dispersion correction           -0.013739153
FINAL SINGLE POINT ENERGY     -1339.857591841819

DIPOLE MOMENT
-------------
                                X             Y             Z
Electronic contribution:     28.19375      -4.69378       3.18383
Nuclear contribution   :    -28.95777       4.65175      -3.43674
                        -----------------------------------------
Total Dipole Moment    :     -0.76403      -0.04203      -0.25292
                        -----------------------------------------
Magnitude (a.u.)       :      0.80590
Magnitude (Debye)      :      2.04843

Rotational constants in cm-1:     0.018233     0.007971     0.006433
Rotational constants in MHz :   546.624047   238.973404   192.858660

                             ****ORCA TERMINATED NORMALLY****
TOTAL RUN TIME: 0 days 0 hours 0 minutes 21 seconds 137 msec
