                         Program Version 4.2.1 -  RELEASE  -
|  1> ! wB97X-D3 SP def2-SVP
|  2> %pal
|  3> nprocs 24
|  4> end
|  5>
|  6> * xyz 0 1
|  7> S 	 -28.6111 	 -3.37535 	 -6.4393
|  8> C 	 -27.1986 	 -4.33403 	 -6.32611
|  9> C 	 -27.4594 	 -5.68322 	 -5.94399
| 10> C 	 -28.8091 	 -5.79992 	 -5.60154
| 11> C 	 -29.6088 	 -4.69967 	 -5.83001
| 12> H 	 -29.3007 	 -6.67101 	 -5.18197
| 13> C 	 -26.3611 	 -6.72432 	 -5.66024
| 14> H 	 -25.489 	 -6.5363 	 -6.33261
| 15> H 	 -26.7716 	 -7.66975 	 -5.97322
| 16> C 	 -25.7616 	 -6.68826 	 -4.1788
| 17> H 	 -25.525 	 -5.68425 	 -3.99743
| 18> H 	 -26.5454 	 -6.94965 	 -3.51124
| 19> C 	 -24.6591 	 -7.71789 	 -3.96452
| 20> H 	 -24.2969 	 -7.50177 	 -2.98313
| 21> H 	 -25.1884 	 -8.6956 	 -3.98747
| 22> H 	 -23.9398 	 -7.6603 	 -4.79275
| 23> S 	 -31.9287 	 -4.2981 	 -6.99842
| 24> C 	 -33.4131 	 -4.25912 	 -6.05
| 25> C 	 -33.1958 	 -4.55565 	 -4.75396
| 26> C 	 -31.8164 	 -4.85487 	 -4.42626
| 27> C 	 -31.0519 	 -4.71982 	 -5.58363
| 28> H 	 -34.0917 	 -4.53318 	 -4.10515
| 29> C 	 -31.2143 	 -5.16457 	 -3.02141
| 30> H 	 -30.2011 	 -4.88214 	 -3.11152
| 31> H 	 -31.3767 	 -6.28162 	 -2.85863
| 32> C 	 -31.8781 	 -4.40885 	 -1.88915
| 33> H 	 -32.839 	 -4.83166 	 -1.67872
| 34> H 	 -32.0244 	 -3.27369 	 -2.13507
| 35> C 	 -31.1055 	 -4.54862 	 -0.594174
| 36> H 	 -31.8134 	 -4.63636 	 0.206177
| 37> H 	 -30.5599 	 -3.65802 	 -0.303727
| 38> H 	 -30.4706 	 -5.39549 	 -0.546623
| 39> H 	 -26.2803 	 -4.02081 	 -6.70434
| 40> H 	 -34.3752 	 -3.89014 	 -6.46994
| 41> *
| 42>
| 43>                          ****END OF INPUT****

CARTESIAN COORDINATES (ANGSTROEM)
---------------------------------
  S    -28.611100   -3.375350   -6.439300
  C    -27.198600   -4.334030   -6.326110
  C    -27.459400   -5.683220   -5.943990
  C    -28.809100   -5.799920   -5.601540
  C    -29.608800   -4.699670   -5.830010
  H    -29.300700   -6.671010   -5.181970
  C    -26.361100   -6.724320   -5.660240
  H    -25.489000   -6.536300   -6.332610
  H    -26.771600   -7.669750   -5.973220
  C    -25.761600   -6.688260   -4.178800
  H    -25.525000   -5.684250   -3.997430
  H    -26.545400   -6.949650   -3.511240
  C    -24.659100   -7.717890   -3.964520
  H    -24.296900   -7.501770   -2.983130
  H    -25.188400   -8.695600   -3.987470
  H    -23.939800   -7.660300   -4.792750
  S    -31.928700   -4.298100   -6.998420
  C    -33.413100   -4.259120   -6.050000
  C    -33.195800   -4.555650   -4.753960
  C    -31.816400   -4.854870   -4.426260
  C    -31.051900   -4.719820   -5.583630
  H    -34.091700   -4.533180   -4.105150
  C    -31.214300   -5.164570   -3.021410
  H    -30.201100   -4.882140   -3.111520
  H    -31.376700   -6.281620   -2.858630
  C    -31.878100   -4.408850   -1.889150
  H    -32.839000   -4.831660   -1.678720
  H    -32.024400   -3.273690   -2.135070
  C    -31.105500   -4.548620   -0.594174
  H    -31.813400   -4.636360    0.206177
  H    -30.559900   -3.658020   -0.303727
  H    -30.470600   -5.395490   -0.546623
  H    -26.280300   -4.020810   -6.704340
  H    -34.375200   -3.890140   -6.469940

 Total Charge           Charge          ....    0
 Multiplicity           Mult            ....    1
 Number of Electrons    NEL             ....  134
 Basis Dimension        Dim             ....  322

ORBITAL ENERGIES
----------------

  NO   OCC          E(Eh)            E(eV)
   0   2.0000     -88.970291     -2421.0047
   1   2.0000     -88.959782     -2420.7187
   2   2.0000     -10.323631      -280.9203
   3   2.0000     -10.321237      -280.8552
   4   2.0000     -10.312837      -280.6266
   5   2.0000     -10.310354      -280.5590
   6   2.0000     -10.306658      -280.4584
   7   2.0000     -10.301575      -280.3201
   8   2.0000     -10.297020      -280.1962
   9   2.0000     -10.296453      -280.1807
  10   2.0000     -10.294070      -280.1159
  11   2.0000     -10.288345      -279.9601
  12   2.0000     -10.287560      -279.9387
  13   2.0000     -10.281171      -279.7649
  14   2.0000     -10.281103      -279.7630
  15   2.0000     -10.268835      -279.4292
  16   2.0000      -8.084890      -220.0010
  17   2.0000      -8.075422      -219.7434
  18   2.0000      -6.043269      -164.4457
  19   2.0000      -6.039299      -164.3377
  20   2.0000      -6.035925      -164.2459
  21   2.0000      -6.033864      -164.1898
  22   2.0000      -6.029874      -164.0812
  23   2.0000      -6.026128      -163.9793
  24   2.0000      -1.007159       -27.4062
  25   2.0000      -0.983994       -26.7758
  26   2.0000      -0.910803       -24.7842
  27   2.0000      -0.905183       -24.6313
  28   2.0000      -0.870361       -23.6837
  29   2.0000      -0.855152       -23.2699
  30   2.0000      -0.847778       -23.0692
  31   2.0000      -0.814857       -22.1734
  32   2.0000      -0.780163       -21.2293
  33   2.0000      -0.767250       -20.8779
  34   2.0000      -0.702094       -19.1049
  35   2.0000      -0.699038       -19.0218
  36   2.0000      -0.694436       -18.8966
  37   2.0000      -0.651096       -17.7172
  38   2.0000      -0.641169       -17.4471
  39   2.0000      -0.617661       -16.8074
  40   2.0000      -0.592194       -16.1144
  41   2.0000      -0.571998       -15.5649
  42   2.0000      -0.567754       -15.4494
  43   2.0000      -0.560039       -15.2394
  44   2.0000      -0.531951       -14.4751
  45   2.0000      -0.528040       -14.3687
  46   2.0000      -0.518844       -14.1185
  47   2.0000      -0.509090       -13.8531
  48   2.0000      -0.498739       -13.5714
  49   2.0000      -0.495821       -13.4920
  50   2.0000      -0.482107       -13.1188
  51   2.0000      -0.481232       -13.0950
  52   2.0000      -0.475328       -12.9343
  53   2.0000      -0.461645       -12.5620
  54   2.0000      -0.458870       -12.4865
  55   2.0000      -0.448829       -12.2133
  56   2.0000      -0.443658       -12.0725
  57   2.0000      -0.435348       -11.8464
  58   2.0000      -0.431840       -11.7510
  59   2.0000      -0.427066       -11.6211
  60   2.0000      -0.423392       -11.5211
  61   2.0000      -0.421596       -11.4722
  62   2.0000      -0.412957       -11.2371
  63   2.0000      -0.344782        -9.3820
  64   2.0000      -0.330792        -9.0013
  65   2.0000      -0.326250        -8.8777
  66   2.0000      -0.292690        -7.9645
  67   0.0000       0.036516         0.9937
  68   0.0000       0.068375         1.8606
  69   0.0000       0.119649         3.2558
  70   0.0000       0.127139         3.4596
  71   0.0000       0.131013         3.5650

MULLIKEN ATOMIC CHARGES
-----------------------
   0 S :    0.138819
   1 C :   -0.105697
   2 C :   -0.071365
   3 C :    0.016630
   4 C :   -0.161235
   5 H :    0.010282
   6 C :    0.036307
   7 H :    0.021769
   8 H :    0.021198
   9 C :   -0.052767
  10 H :    0.017006
  11 H :    0.016349
  12 C :   -0.021405
  13 H :    0.038967
  14 H :    0.035848
  15 H :    0.036055
  16 S :    0.099941
  17 C :   -0.107980
  18 C :   -0.048799
  19 C :   -0.033773
  20 C :   -0.201570
  21 H :    0.028473
  22 C :    0.098118
  23 H :    0.030932
  24 H :    0.052245
  25 C :   -0.127091
  26 H :    0.025033
  27 H :    0.052813
  28 C :   -0.004146
  29 H :    0.011898
  30 H :    0.031891
  31 H :    0.021622
  32 H :    0.027967
  33 H :    0.065665
Sum of atomic charges:   -0.0000000

LOEWDIN ATOMIC CHARGES
----------------------
   0 S :    0.426680
   1 C :   -0.199783
   2 C :   -0.064297
   3 C :   -0.061468
   4 C :   -0.211776
   5 H :    0.031463
   6 C :   -0.030767
   7 H :    0.029959
   8 H :    0.024056
   9 C :   -0.029586
  10 H :    0.014448
  11 H :    0.018637
  12 C :   -0.058262
  13 H :    0.026655
  14 H :    0.032219
  15 H :    0.024778
  16 S :    0.408006
  17 C :   -0.189824
  18 C :   -0.077748
  19 C :   -0.056097
  20 C :   -0.204149
  21 H :    0.038143
  22 C :   -0.026328
  23 H :    0.026556
  24 H :    0.043399
  25 C :   -0.049163
  26 H :    0.018835
  27 H :    0.038458
  28 C :   -0.062996
  29 H :    0.024232
  30 H :    0.028000
  31 H :    0.020028
  32 H :    0.012313
  33 H :    0.035377

  Mayer bond orders larger than 0.100000
B(  0-S ,  1-C ) :   1.1800 B(  0-S ,  4-C ) :   1.1447 B(  1-C ,  2-C ) :   1.5409
B(  1-C ,  4-C ) :   0.1067 B(  1-C , 32-H ) :   0.9723 B(  2-C ,  3-C ) :   1.2800
B(  2-C ,  6-C ) :   1.0386 B(  3-C ,  4-C ) :   1.5497 B(  3-C ,  5-H ) :   0.9953
B(  4-C , 20-C ) :   1.0313 B(  6-C ,  7-H ) :   0.9412 B(  6-C ,  8-H ) :   0.9417
B(  6-C ,  9-C ) :   1.0492 B(  9-C , 10-H ) :   0.9586 B(  9-C , 11-H ) :   0.9574
B(  9-C , 12-C ) :   1.0724 B( 12-C , 13-H ) :   0.9731 B( 12-C , 14-H ) :   0.9765
B( 12-C , 15-H ) :   0.9779 B( 16-S , 17-C ) :   1.1299 B( 16-S , 20-C ) :   1.1617
B( 17-C , 18-C ) :   1.6583 B( 17-C , 33-H ) :   0.9608 B( 18-C , 19-C ) :   1.2006
B( 18-C , 21-H ) :   0.9853 B( 19-C , 20-C ) :   1.6150 B( 19-C , 22-C ) :   1.0247
B( 22-C , 23-H ) :   0.9373 B( 22-C , 24-H ) :   0.9244 B( 22-C , 25-C ) :   1.0862
B( 25-C , 26-H ) :   0.9521 B( 25-C , 27-H ) :   0.9596 B( 25-C , 28-C ) :   1.0813
B( 28-C , 29-H ) :   0.9740 B( 28-C , 30-H ) :   0.9742 B( 28-C , 31-H ) :   0.9725

Dispersion correction           -0.013561159
FINAL SINGLE POINT ENERGY     -1339.871675799432

DIPOLE MOMENT
-------------
                                X             Y             Z
Electronic contribution:    -12.31278      12.58078     -24.14265
Nuclear contribution   :     12.41906     -12.84008      24.74544
                        -----------------------------------------
Total Dipole Moment    :      0.10629      -0.25930       0.60279
                        -----------------------------------------
Magnitude (a.u.)       :      0.66475
Magnitude (Debye)      :      1.68966

Rotational constants in cm-1:     0.016974     0.008445     0.006335
Rotational constants in MHz :   508.862535   253.173748   189.919207

                             ****ORCA TERMINATED NORMALLY****
TOTAL RUN TIME: 0 days 0 hours 0 minutes 21 seconds 95 msec
