                         Program Version 4.2.1 -  RELEASE  -
|  1> ! wB97X-D3 SP def2-SVP
|  2> %pal
|  3> nprocs 24
|  4> end
|  5>
|  6> * xyz 0 1
|  7> S 	 -128.471 	 58.7282 	 -62.8293
|  8> C 	 -129.688 	 59.4264 	 -63.7914
|  9> C 	 -130.885 	 58.7269 	 -63.6848
| 10> C 	 -130.758 	 57.5718 	 -62.8128
| 11> C 	 -129.54 	 57.4476 	 -62.2295
| 12> H 	 -131.493 	 56.7879 	 -62.693
| 13> C 	 -132.175 	 59.0671 	 -64.3544
| 14> H 	 -131.942 	 59.0117 	 -65.4274
| 15> H 	 -132.387 	 60.1225 	 -64.3041
| 16> C 	 -133.422 	 58.2481 	 -63.9957
| 17> H 	 -133.357 	 57.3045 	 -64.4691
| 18> H 	 -133.444 	 58.2093 	 -62.9171
| 19> C 	 -134.698 	 58.9736 	 -64.3979
| 20> H 	 -135.651 	 58.6855 	 -63.8821
| 21> H 	 -134.655 	 60.052 	 -64.2419
| 22> H 	 -134.883 	 58.794 	 -65.4732
| 23> S 	 -128.69 	 56.844 	 -59.7172
| 24> C 	 -128.351 	 55.1339 	 -59.296
| 25> C 	 -128.836 	 54.2823 	 -60.2458
| 26> C 	 -129.215 	 55.0128 	 -61.4527
| 27> C 	 -129.146 	 56.3705 	 -61.2746
| 28> H 	 -128.996 	 53.2606 	 -60.1083
| 29> C 	 -129.806 	 54.1933 	 -62.6626
| 30> H 	 -129.013 	 53.4563 	 -63.0055
| 31> H 	 -130.035 	 54.8143 	 -63.5411
| 32> C 	 -131.096 	 53.5446 	 -62.2332
| 33> H 	 -131.756 	 54.4661 	 -62.0722
| 34> H 	 -130.932 	 53.0964 	 -61.2892
| 35> C 	 -131.549 	 52.5333 	 -63.3288
| 36> H 	 -132.545 	 52.2285 	 -63.2146
| 37> H 	 -130.957 	 51.591 	 -63.2393
| 38> H 	 -131.33 	 52.891 	 -64.3401
| 39> H 	 -129.57 	 60.2826 	 -64.3918
| 40> H 	 -128.146 	 54.7777 	 -58.3102
| 41> *
| 42>
| 43>                          ****END OF INPUT****

CARTESIAN COORDINATES (ANGSTROEM)
---------------------------------
  S    -128.471000   58.728200  -62.829300
  C    -129.688000   59.426400  -63.791400
  C    -130.885000   58.726900  -63.684800
  C    -130.758000   57.571800  -62.812800
  C    -129.540000   57.447600  -62.229500
  H    -131.493000   56.787900  -62.693000
  C    -132.175000   59.067100  -64.354400
  H    -131.942000   59.011700  -65.427400
  H    -132.387000   60.122500  -64.304100
  C    -133.422000   58.248100  -63.995700
  H    -133.357000   57.304500  -64.469100
  H    -133.444000   58.209300  -62.917100
  C    -134.698000   58.973600  -64.397900
  H    -135.651000   58.685500  -63.882100
  H    -134.655000   60.052000  -64.241900
  H    -134.883000   58.794000  -65.473200
  S    -128.690000   56.844000  -59.717200
  C    -128.351000   55.133900  -59.296000
  C    -128.836000   54.282300  -60.245800
  C    -129.215000   55.012800  -61.452700
  C    -129.146000   56.370500  -61.274600
  H    -128.996000   53.260600  -60.108300
  C    -129.806000   54.193300  -62.662600
  H    -129.013000   53.456300  -63.005500
  H    -130.035000   54.814300  -63.541100
  C    -131.096000   53.544600  -62.233200
  H    -131.756000   54.466100  -62.072200
  H    -130.932000   53.096400  -61.289200
  C    -131.549000   52.533300  -63.328800
  H    -132.545000   52.228500  -63.214600
  H    -130.957000   51.591000  -63.239300
  H    -131.330000   52.891000  -64.340100
  H    -129.570000   60.282600  -64.391800
  H    -128.146000   54.777700  -58.310200

 Total Charge           Charge          ....    0
 Multiplicity           Mult            ....    1
 Number of Electrons    NEL             ....  134
 Basis Dimension        Dim             ....  322

ORBITAL ENERGIES
----------------

  NO   OCC          E(Eh)            E(eV)
   0   2.0000     -88.964654     -2420.8513
   1   2.0000     -88.963944     -2420.8320
   2   2.0000     -10.326785      -281.0061
   3   2.0000     -10.323896      -280.9275
   4   2.0000     -10.315930      -280.7107
   5   2.0000     -10.307289      -280.4756
   6   2.0000     -10.303261      -280.3660
   7   2.0000     -10.300756      -280.2978
   8   2.0000     -10.296607      -280.1849
   9   2.0000     -10.293132      -280.0904
  10   2.0000     -10.291034      -280.0333
  11   2.0000     -10.290935      -280.0306
  12   2.0000     -10.288302      -279.9589
  13   2.0000     -10.285894      -279.8934
  14   2.0000     -10.282881      -279.8114
  15   2.0000     -10.282101      -279.7902
  16   2.0000      -8.080015      -219.8684
  17   2.0000      -8.079051      -219.8421
  18   2.0000      -6.038571      -164.3179
  19   2.0000      -6.037555      -164.2902
  20   2.0000      -6.034593      -164.2096
  21   2.0000      -6.033416      -164.1776
  22   2.0000      -6.030509      -164.0985
  23   2.0000      -6.029881      -164.0814
  24   2.0000      -1.007747       -27.4222
  25   2.0000      -0.986614       -26.8471
  26   2.0000      -0.915406       -24.9095
  27   2.0000      -0.910877       -24.7862
  28   2.0000      -0.872764       -23.7491
  29   2.0000      -0.848939       -23.1008
  30   2.0000      -0.844025       -22.9671
  31   2.0000      -0.819693       -22.3050
  32   2.0000      -0.778525       -21.1847
  33   2.0000      -0.769225       -20.9317
  34   2.0000      -0.713144       -19.4056
  35   2.0000      -0.697556       -18.9815
  36   2.0000      -0.690240       -18.7824
  37   2.0000      -0.665411       -18.1068
  38   2.0000      -0.644834       -17.5468
  39   2.0000      -0.621688       -16.9170
  40   2.0000      -0.598973       -16.2989
  41   2.0000      -0.579128       -15.7589
  42   2.0000      -0.569309       -15.4917
  43   2.0000      -0.561203       -15.2711
  44   2.0000      -0.527192       -14.3456
  45   2.0000      -0.521168       -14.1817
  46   2.0000      -0.517692       -14.0871
  47   2.0000      -0.510034       -13.8787
  48   2.0000      -0.503513       -13.7013
  49   2.0000      -0.498318       -13.5599
  50   2.0000      -0.493164       -13.4197
  51   2.0000      -0.478885       -13.0311
  52   2.0000      -0.471435       -12.8284
  53   2.0000      -0.463558       -12.6140
  54   2.0000      -0.457624       -12.4526
  55   2.0000      -0.454856       -12.3773
  56   2.0000      -0.450258       -12.2521
  57   2.0000      -0.441892       -12.0245
  58   2.0000      -0.435875       -11.8608
  59   2.0000      -0.422785       -11.5046
  60   2.0000      -0.420097       -11.4314
  61   2.0000      -0.417910       -11.3719
  62   2.0000      -0.416099       -11.3226
  63   2.0000      -0.346858        -9.4385
  64   2.0000      -0.330405        -8.9908
  65   2.0000      -0.323062        -8.7910
  66   2.0000      -0.298139        -8.1128
  67   0.0000       0.041982         1.1424
  68   0.0000       0.067819         1.8454
  69   0.0000       0.106696         2.9034
  70   0.0000       0.121584         3.3085
  71   0.0000       0.136484         3.7139

MULLIKEN ATOMIC CHARGES
-----------------------
   0 S :    0.121450
   1 C :   -0.102318
   2 C :   -0.089124
   3 C :    0.018999
   4 C :   -0.138569
   5 H :    0.008286
   6 C :    0.037262
   7 H :    0.028516
   8 H :    0.015468
   9 C :   -0.040119
  10 H :    0.035581
  11 H :    0.038731
  12 C :   -0.067363
  13 H :    0.039198
  14 H :    0.029987
  15 H :    0.031542
  16 S :    0.111020
  17 C :   -0.070625
  18 C :   -0.025295
  19 C :   -0.041095
  20 C :   -0.167390
  21 H :    0.010381
  22 C :    0.016190
  23 H :    0.040182
  24 H :    0.032391
  25 C :   -0.086212
  26 H :    0.041675
  27 H :    0.017521
  28 C :   -0.013153
  29 H :    0.028806
  30 H :    0.031702
  31 H :    0.032061
  32 H :    0.027175
  33 H :    0.047137
Sum of atomic charges:    0.0000000

LOEWDIN ATOMIC CHARGES
----------------------
   0 S :    0.417615
   1 C :   -0.207077
   2 C :   -0.061612
   3 C :   -0.065349
   4 C :   -0.190771
   5 H :    0.028495
   6 C :   -0.041671
   7 H :    0.036952
   8 H :    0.028796
   9 C :   -0.036430
  10 H :    0.023209
  11 H :    0.027070
  12 C :   -0.069741
  13 H :    0.030928
  14 H :    0.023666
  15 H :    0.026538
  16 S :    0.412312
  17 C :   -0.169354
  18 C :   -0.055031
  19 C :   -0.056453
  20 C :   -0.215896
  21 H :    0.022380
  22 C :   -0.034703
  23 H :    0.032255
  24 H :    0.026885
  25 C :   -0.041078
  26 H :    0.031896
  27 H :    0.014337
  28 C :   -0.060730
  29 H :    0.018095
  30 H :    0.033031
  31 H :    0.027053
  32 H :    0.020926
  33 H :    0.023455

  Mayer bond orders larger than 0.100000
B(  0-S ,  1-C ) :   1.1489 B(  0-S ,  4-C ) :   1.1529 B(  1-C ,  2-C ) :   1.6020
B(  1-C , 32-H ) :   0.9790 B(  2-C ,  3-C ) :   1.2460 B(  2-C ,  6-C ) :   1.0129
B(  3-C ,  4-C ) :   1.5851 B(  3-C ,  5-H ) :   0.9902 B(  4-C , 20-C ) :   0.9857
B(  6-C ,  7-H ) :   0.9222 B(  6-C ,  8-H ) :   0.9388 B(  6-C ,  9-C ) :   1.0813
B(  9-C , 10-H ) :   0.9481 B(  9-C , 11-H ) :   0.9524 B(  9-C , 12-C ) :   1.0819
B( 12-C , 13-H ) :   0.9756 B( 12-C , 14-H ) :   0.9754 B( 12-C , 15-H ) :   0.9757
B( 16-S , 17-C ) :   1.1287 B( 16-S , 20-C ) :   1.1574 B( 17-C , 18-C ) :   1.6491
B( 17-C , 33-H ) :   0.9677 B( 18-C , 19-C ) :   1.2068 B( 18-C , 21-H ) :   0.9904
B( 19-C , 20-C ) :   1.6472 B( 19-C , 22-C ) :   1.0313 B( 22-C , 23-H ) :   0.9426
B( 22-C , 24-H ) :   0.9394 B( 22-C , 25-C ) :   1.0500 B( 25-C , 26-H ) :   0.9507
B( 25-C , 27-H ) :   0.9605 B( 25-C , 28-C ) :   1.0657 B( 28-C , 29-H ) :   0.9751
B( 28-C , 30-H ) :   0.9724 B( 28-C , 31-H ) :   0.9748

Dispersion correction           -0.014076332
FINAL SINGLE POINT ENERGY     -1339.874057310861

DIPOLE MOMENT
-------------
                                X             Y             Z
Electronic contribution:     25.18644      11.08997      14.80071
Nuclear contribution   :    -25.86463     -11.47824     -15.11942
                        -----------------------------------------
Total Dipole Moment    :     -0.67820      -0.38827      -0.31870
                        -----------------------------------------
Magnitude (a.u.)       :      0.84396
Magnitude (Debye)      :      2.14519

Rotational constants in cm-1:     0.015951     0.009391     0.006799
Rotational constants in MHz :   478.195637   281.533314   203.840744

                             ****ORCA TERMINATED NORMALLY****
TOTAL RUN TIME: 0 days 0 hours 0 minutes 21 seconds 844 msec
