                         Program Version 4.2.1 -  RELEASE  -
|  1> ! wB97X-D3 SP def2-SVP
|  2> %pal
|  3> nprocs 24
|  4> end
|  5>
|  6> * xyz 0 1
|  7> S 	 -94.0563 	 44.3694 	 -93.9451
|  8> C 	 -94.0153 	 42.6501 	 -93.903
|  9> C 	 -94.6138 	 42.1482 	 -92.7792
| 10> C 	 -95.1006 	 43.1634 	 -91.9443
| 11> C 	 -95.0693 	 44.431 	 -92.5308
| 12> H 	 -95.5343 	 43.0554 	 -90.9551
| 13> C 	 -94.9706 	 40.755 	 -92.4702
| 14> H 	 -95.0121 	 40.6298 	 -91.3942
| 15> H 	 -94.1745 	 40.2151 	 -92.8747
| 16> C 	 -96.2942 	 40.3126 	 -93.1741
| 17> H 	 -96.3185 	 40.4679 	 -94.2597
| 18> H 	 -96.4222 	 39.2702 	 -93.0562
| 19> C 	 -97.5722 	 40.9396 	 -92.4545
| 20> H 	 -98.4369 	 40.4275 	 -92.8456
| 21> H 	 -97.6159 	 40.7372 	 -91.3489
| 22> H 	 -97.739 	 42.0205 	 -92.5699
| 23> S 	 -94.2174 	 46.6417 	 -91.1015
| 24> C 	 -95.3698 	 47.8971 	 -90.7818
| 25> C 	 -96.6366 	 47.3965 	 -90.8534
| 26> C 	 -96.8017 	 46.1831 	 -91.6273
| 27> C 	 -95.4934 	 45.6845 	 -91.8641
| 28> H 	 -97.5128 	 47.9771 	 -90.5795
| 29> C 	 -98.088 	 45.6064 	 -92.1653
| 30> H 	 -97.9377 	 45.0793 	 -93.0992
| 31> H 	 -98.6827 	 46.4375 	 -92.4987
| 32> C 	 -98.9679 	 44.7751 	 -91.1398
| 33> H 	 -99.0819 	 45.2342 	 -90.0878
| 34> H 	 -98.498 	 43.8309 	 -90.9176
| 35> C 	 -100.424 	 44.4431 	 -91.6709
| 36> H 	 -101.044 	 45.311 	 -91.6613
| 37> H 	 -100.967 	 43.7814 	 -90.899
| 38> H 	 -100.495 	 44.031 	 -92.6924
| 39> H 	 -93.6897 	 42.0661 	 -94.708
| 40> H 	 -95.2142 	 48.7309 	 -90.1655
| 41> *
| 42>
| 43>                          ****END OF INPUT****

CARTESIAN COORDINATES (ANGSTROEM)
---------------------------------
  S    -94.056300   44.369400  -93.945100
  C    -94.015300   42.650100  -93.903000
  C    -94.613800   42.148200  -92.779200
  C    -95.100600   43.163400  -91.944300
  C    -95.069300   44.431000  -92.530800
  H    -95.534300   43.055400  -90.955100
  C    -94.970600   40.755000  -92.470200
  H    -95.012100   40.629800  -91.394200
  H    -94.174500   40.215100  -92.874700
  C    -96.294200   40.312600  -93.174100
  H    -96.318500   40.467900  -94.259700
  H    -96.422200   39.270200  -93.056200
  C    -97.572200   40.939600  -92.454500
  H    -98.436900   40.427500  -92.845600
  H    -97.615900   40.737200  -91.348900
  H    -97.739000   42.020500  -92.569900
  S    -94.217400   46.641700  -91.101500
  C    -95.369800   47.897100  -90.781800
  C    -96.636600   47.396500  -90.853400
  C    -96.801700   46.183100  -91.627300
  C    -95.493400   45.684500  -91.864100
  H    -97.512800   47.977100  -90.579500
  C    -98.088000   45.606400  -92.165300
  H    -97.937700   45.079300  -93.099200
  H    -98.682700   46.437500  -92.498700
  C    -98.967900   44.775100  -91.139800
  H    -99.081900   45.234200  -90.087800
  H    -98.498000   43.830900  -90.917600
  C    -100.424000   44.443100  -91.670900
  H    -101.044000   45.311000  -91.661300
  H    -100.967000   43.781400  -90.899000
  H    -100.495000   44.031000  -92.692400
  H    -93.689700   42.066100  -94.708000
  H    -95.214200   48.730900  -90.165500

 Total Charge           Charge          ....    0
 Multiplicity           Mult            ....    1
 Number of Electrons    NEL             ....  134
 Basis Dimension        Dim             ....  322

ORBITAL ENERGIES
----------------

  NO   OCC          E(Eh)            E(eV)
   0   2.0000     -88.964073     -2420.8355
   1   2.0000     -88.963560     -2420.8215
   2   2.0000     -10.328429      -281.0508
   3   2.0000     -10.324232      -280.9366
   4   2.0000     -10.308073      -280.4969
   5   2.0000     -10.307901      -280.4923
   6   2.0000     -10.304935      -280.4115
   7   2.0000     -10.300843      -280.3002
   8   2.0000     -10.297029      -280.1964
   9   2.0000     -10.292593      -280.0757
  10   2.0000     -10.292266      -280.0668
  11   2.0000     -10.289870      -280.0016
  12   2.0000     -10.288285      -279.9585
  13   2.0000     -10.287546      -279.9384
  14   2.0000     -10.284678      -279.8603
  15   2.0000     -10.282510      -279.8013
  16   2.0000      -8.079384      -219.8512
  17   2.0000      -8.078425      -219.8251
  18   2.0000      -6.037759      -164.2958
  19   2.0000      -6.036926      -164.2731
  20   2.0000      -6.033756      -164.1868
  21   2.0000      -6.033125      -164.1697
  22   2.0000      -6.030321      -164.0934
  23   2.0000      -6.028960      -164.0563
  24   2.0000      -1.006672       -27.3929
  25   2.0000      -0.986053       -26.8319
  26   2.0000      -0.911531       -24.8040
  27   2.0000      -0.899445       -24.4751
  28   2.0000      -0.863430       -23.4951
  29   2.0000      -0.846343       -23.0302
  30   2.0000      -0.843885       -22.9633
  31   2.0000      -0.812538       -22.1103
  32   2.0000      -0.783155       -21.3107
  33   2.0000      -0.770974       -20.9793
  34   2.0000      -0.709209       -19.2986
  35   2.0000      -0.705419       -19.1954
  36   2.0000      -0.696323       -18.9479
  37   2.0000      -0.655053       -17.8249
  38   2.0000      -0.644990       -17.5511
  39   2.0000      -0.612503       -16.6670
  40   2.0000      -0.596038       -16.2190
  41   2.0000      -0.572152       -15.5690
  42   2.0000      -0.552818       -15.0430
  43   2.0000      -0.550145       -14.9702
  44   2.0000      -0.537631       -14.6297
  45   2.0000      -0.522144       -14.2083
  46   2.0000      -0.509808       -13.8726
  47   2.0000      -0.507793       -13.8178
  48   2.0000      -0.504265       -13.7218
  49   2.0000      -0.492692       -13.4068
  50   2.0000      -0.486925       -13.2499
  51   2.0000      -0.482307       -13.1242
  52   2.0000      -0.467015       -12.7081
  53   2.0000      -0.463827       -12.6214
  54   2.0000      -0.455439       -12.3931
  55   2.0000      -0.447902       -12.1880
  56   2.0000      -0.443847       -12.0777
  57   2.0000      -0.442328       -12.0364
  58   2.0000      -0.436788       -11.8856
  59   2.0000      -0.428227       -11.6526
  60   2.0000      -0.424135       -11.5413
  61   2.0000      -0.418950       -11.4002
  62   2.0000      -0.417706       -11.3664
  63   2.0000      -0.335302        -9.1240
  64   2.0000      -0.324983        -8.8432
  65   2.0000      -0.321591        -8.7509
  66   2.0000      -0.302578        -8.2336
  67   0.0000       0.037264         1.0140
  68   0.0000       0.057638         1.5684
  69   0.0000       0.111221         3.0265
  70   0.0000       0.124294         3.3822
  71   0.0000       0.125853         3.4246

MULLIKEN ATOMIC CHARGES
-----------------------
   0 S :    0.120915
   1 C :   -0.104600
   2 C :   -0.086034
   3 C :    0.031018
   4 C :   -0.185960
   5 H :    0.015301
   6 C :    0.115911
   7 H :    0.025425
   8 H :    0.003949
   9 C :   -0.045720
  10 H :    0.035183
  11 H :    0.023603
  12 C :   -0.093803
  13 H :    0.026557
  14 H :    0.030751
  15 H :    0.055220
  16 S :    0.113835
  17 C :   -0.051217
  18 C :   -0.049400
  19 C :   -0.030474
  20 C :   -0.189609
  21 H :    0.017365
  22 C :    0.101349
  23 H :    0.032555
  24 H :    0.014105
  25 C :   -0.096420
  26 H :    0.041834
  27 H :    0.027145
  28 C :   -0.078121
  29 H :    0.024641
  30 H :    0.043444
  31 H :    0.044238
  32 H :    0.023076
  33 H :    0.043936
Sum of atomic charges:   -0.0000000

LOEWDIN ATOMIC CHARGES
----------------------
   0 S :    0.425702
   1 C :   -0.196836
   2 C :   -0.068932
   3 C :   -0.053578
   4 C :   -0.211808
   5 H :    0.031160
   6 C :   -0.024229
   7 H :    0.032484
   8 H :    0.022232
   9 C :   -0.025896
  10 H :    0.027986
  11 H :    0.018980
  12 C :   -0.073540
  13 H :    0.022829
  14 H :    0.027628
  15 H :    0.024917
  16 S :    0.403183
  17 C :   -0.190857
  18 C :   -0.064774
  19 C :   -0.051581
  20 C :   -0.191321
  21 H :    0.027327
  22 C :   -0.031343
  23 H :    0.036074
  24 H :    0.030275
  25 C :   -0.041072
  26 H :    0.034805
  27 H :    0.016932
  28 C :   -0.076224
  29 H :    0.017285
  30 H :    0.037341
  31 H :    0.027240
  32 H :    0.016355
  33 H :    0.021253

  Mayer bond orders larger than 0.100000
B(  0-S ,  1-C ) :   1.1558 B(  0-S ,  4-C ) :   1.1670 B(  1-C ,  2-C ) :   1.5844
B(  1-C ,  4-C ) :   0.1014 B(  1-C , 32-H ) :   0.9742 B(  2-C ,  3-C ) :   1.2640
B(  2-C ,  6-C ) :   1.0318 B(  3-C ,  4-C ) :   1.5561 B(  3-C ,  5-H ) :   0.9916
B(  4-C , 20-C ) :   1.0150 B(  6-C ,  7-H ) :   0.9423 B(  6-C ,  8-H ) :   0.9228
B(  6-C ,  9-C ) :   1.0737 B(  9-C , 10-H ) :   0.9570 B(  9-C , 11-H ) :   0.9573
B(  9-C , 12-C ) :   1.0680 B( 12-C , 13-H ) :   0.9731 B( 12-C , 14-H ) :   0.9765
B( 12-C , 15-H ) :   0.9739 B( 16-S , 17-C ) :   1.1313 B( 16-S , 20-C ) :   1.1657
B( 17-C , 18-C ) :   1.6491 B( 17-C , 33-H ) :   0.9651 B( 18-C , 19-C ) :   1.2364
B( 18-C , 21-H ) :   0.9746 B( 19-C , 20-C ) :   1.5931 B( 19-C , 22-C ) :   1.0508
B( 22-C , 23-H ) :   0.9312 B( 22-C , 24-H ) :   0.9321 B( 22-C , 25-C ) :   1.0402
B( 25-C , 26-H ) :   0.9592 B( 25-C , 27-H ) :   0.9583 B( 25-C , 28-C ) :   1.0695
B( 28-C , 29-H ) :   0.9771 B( 28-C , 30-H ) :   0.9748 B( 28-C , 31-H ) :   0.9761

Dispersion correction           -0.015618550
FINAL SINGLE POINT ENERGY     -1339.864835474460

DIPOLE MOMENT
-------------
                                X             Y             Z
Electronic contribution:     26.09536      17.48649      -2.70499
Nuclear contribution   :    -26.72251     -17.93807       2.84819
                        -----------------------------------------
Total Dipole Moment    :     -0.62715      -0.45158       0.14320
                        -----------------------------------------
Magnitude (a.u.)       :      0.78597
Magnitude (Debye)      :      1.99777

Rotational constants in cm-1:     0.015941     0.011085     0.007273
Rotational constants in MHz :   477.904616   332.306395   218.038307

                             ****ORCA TERMINATED NORMALLY****
TOTAL RUN TIME: 0 days 0 hours 0 minutes 22 seconds 523 msec
