                         Program Version 4.2.1 -  RELEASE  -
|  1> ! wB97X-D3 SP def2-SVP
|  2> %pal
|  3> nprocs 24
|  4> end
|  5>
|  6> * xyz 0 1
|  7> S 	 -52.136 	 23.4253 	 -92.3553
|  8> C 	 -50.5074 	 24.1651 	 -92.188
|  9> C 	 -49.4947 	 23.4367 	 -92.8629
| 10> C 	 -50.044 	 22.2997 	 -93.4777
| 11> C 	 -51.4239 	 22.1861 	 -93.4264
| 12> H 	 -49.5545 	 21.5327 	 -94.0803
| 13> C 	 -48.0234 	 23.7986 	 -92.9211
| 14> H 	 -47.9644 	 24.9448 	 -92.9064
| 15> H 	 -47.6568 	 23.5817 	 -93.9765
| 16> C 	 -46.919 	 23.1408 	 -92.0686
| 17> H 	 -47.1011 	 22.0573 	 -92.1323
| 18> H 	 -45.9324 	 23.317 	 -92.4595
| 19> C 	 -46.9812 	 23.6841 	 -90.6162
| 20> H 	 -47.9698 	 23.5527 	 -90.1375
| 21> H 	 -46.1704 	 23.2915 	 -90.0103
| 22> H 	 -46.8889 	 24.7981 	 -90.6737
| 23> S 	 -53.3009 	 21.8412 	 -95.2708
| 24> C 	 -53.8013 	 20.2288 	 -95.7947
| 25> C 	 -53.1402 	 19.2172 	 -95.1229
| 26> C 	 -52.2132 	 19.8034 	 -94.2402
| 27> C 	 -52.2581 	 21.2198 	 -94.1359
| 28> H 	 -53.3855 	 18.2011 	 -95.233
| 29> C 	 -51.2768 	 18.9331 	 -93.3714
| 30> H 	 -51.6271 	 19.0738 	 -92.3619
| 31> H 	 -50.2469 	 19.2468 	 -93.3699
| 32> C 	 -51.347 	 17.3739 	 -93.5504
| 33> H 	 -52.3606 	 17.1001 	 -93.6865
| 34> H 	 -50.9709 	 16.7852 	 -92.7526
| 35> C 	 -50.548 	 16.9393 	 -94.8342
| 36> H 	 -50.9338 	 17.3853 	 -95.8018
| 37> H 	 -50.6746 	 15.8974 	 -94.85
| 38> H 	 -49.4478 	 17.0506 	 -94.7434
| 39> H 	 -50.2738 	 25.1064 	 -91.6574
| 40> H 	 -54.5905 	 19.9643 	 -96.5238
| 41> *
| 42>
| 43>                          ****END OF INPUT****

CARTESIAN COORDINATES (ANGSTROEM)
---------------------------------
  S    -52.136000   23.425300  -92.355300
  C    -50.507400   24.165100  -92.188000
  C    -49.494700   23.436700  -92.862900
  C    -50.044000   22.299700  -93.477700
  C    -51.423900   22.186100  -93.426400
  H    -49.554500   21.532700  -94.080300
  C    -48.023400   23.798600  -92.921100
  H    -47.964400   24.944800  -92.906400
  H    -47.656800   23.581700  -93.976500
  C    -46.919000   23.140800  -92.068600
  H    -47.101100   22.057300  -92.132300
  H    -45.932400   23.317000  -92.459500
  C    -46.981200   23.684100  -90.616200
  H    -47.969800   23.552700  -90.137500
  H    -46.170400   23.291500  -90.010300
  H    -46.888900   24.798100  -90.673700
  S    -53.300900   21.841200  -95.270800
  C    -53.801300   20.228800  -95.794700
  C    -53.140200   19.217200  -95.122900
  C    -52.213200   19.803400  -94.240200
  C    -52.258100   21.219800  -94.135900
  H    -53.385500   18.201100  -95.233000
  C    -51.276800   18.933100  -93.371400
  H    -51.627100   19.073800  -92.361900
  H    -50.246900   19.246800  -93.369900
  C    -51.347000   17.373900  -93.550400
  H    -52.360600   17.100100  -93.686500
  H    -50.970900   16.785200  -92.752600
  C    -50.548000   16.939300  -94.834200
  H    -50.933800   17.385300  -95.801800
  H    -50.674600   15.897400  -94.850000
  H    -49.447800   17.050600  -94.743400
  H    -50.273800   25.106400  -91.657400
  H    -54.590500   19.964300  -96.523800

 Total Charge           Charge          ....    0
 Multiplicity           Mult            ....    1
 Number of Electrons    NEL             ....  134
 Basis Dimension        Dim             ....  322

ORBITAL ENERGIES
----------------

  NO   OCC          E(Eh)            E(eV)
   0   2.0000     -88.972244     -2421.0578
   1   2.0000     -88.969006     -2420.9697
   2   2.0000     -10.332245      -281.1547
   3   2.0000     -10.324735      -280.9503
   4   2.0000     -10.320833      -280.8442
   5   2.0000     -10.318794      -280.7887
   6   2.0000     -10.308500      -280.5085
   7   2.0000     -10.306141      -280.4444
   8   2.0000     -10.303806      -280.3808
   9   2.0000     -10.294431      -280.1257
  10   2.0000     -10.292487      -280.0728
  11   2.0000     -10.291766      -280.0532
  12   2.0000     -10.286773      -279.9173
  13   2.0000     -10.286004      -279.8964
  14   2.0000     -10.280674      -279.7514
  15   2.0000     -10.278532      -279.6931
  16   2.0000      -8.085333      -220.0131
  17   2.0000      -8.084756      -219.9974
  18   2.0000      -6.043846      -164.4614
  19   2.0000      -6.043112      -164.4414
  20   2.0000      -6.040159      -164.3611
  21   2.0000      -6.038935      -164.3278
  22   2.0000      -6.036105      -164.2508
  23   2.0000      -6.035782      -164.2420
  24   2.0000      -1.010845       -27.5065
  25   2.0000      -0.980824       -26.6896
  26   2.0000      -0.907987       -24.7076
  27   2.0000      -0.902232       -24.5510
  28   2.0000      -0.871206       -23.7067
  29   2.0000      -0.847951       -23.0739
  30   2.0000      -0.844903       -22.9910
  31   2.0000      -0.812930       -22.1209
  32   2.0000      -0.779160       -21.2020
  33   2.0000      -0.767044       -20.8723
  34   2.0000      -0.709421       -19.3043
  35   2.0000      -0.698819       -19.0158
  36   2.0000      -0.693997       -18.8846
  37   2.0000      -0.661404       -17.9977
  38   2.0000      -0.639202       -17.3936
  39   2.0000      -0.617945       -16.8151
  40   2.0000      -0.596216       -16.2239
  41   2.0000      -0.570092       -15.5130
  42   2.0000      -0.551746       -15.0138
  43   2.0000      -0.545270       -14.8375
  44   2.0000      -0.536932       -14.6107
  45   2.0000      -0.535382       -14.5685
  46   2.0000      -0.521718       -14.1967
  47   2.0000      -0.508863       -13.8469
  48   2.0000      -0.503710       -13.7066
  49   2.0000      -0.494035       -13.4434
  50   2.0000      -0.483893       -13.1674
  51   2.0000      -0.473817       -12.8932
  52   2.0000      -0.470701       -12.8084
  53   2.0000      -0.462049       -12.5730
  54   2.0000      -0.458686       -12.4815
  55   2.0000      -0.453569       -12.3422
  56   2.0000      -0.449436       -12.2298
  57   2.0000      -0.437992       -11.9184
  58   2.0000      -0.435096       -11.8396
  59   2.0000      -0.425354       -11.5745
  60   2.0000      -0.423113       -11.5135
  61   2.0000      -0.413634       -11.2555
  62   2.0000      -0.406816       -11.0700
  63   2.0000      -0.350175        -9.5287
  64   2.0000      -0.334838        -9.1114
  65   2.0000      -0.322875        -8.7859
  66   2.0000      -0.290551        -7.9063
  67   0.0000       0.028617         0.7787
  68   0.0000       0.063028         1.7151
  69   0.0000       0.110226         2.9994
  70   0.0000       0.115700         3.1484
  71   0.0000       0.128537         3.4977

MULLIKEN ATOMIC CHARGES
-----------------------
   0 S :    0.114100
   1 C :   -0.129187
   2 C :   -0.052669
   3 C :    0.040258
   4 C :   -0.177214
   5 H :    0.016858
   6 C :   -0.024575
   7 H :    0.034890
   8 H :    0.035448
   9 C :   -0.024767
  10 H :    0.031027
  11 H :    0.031005
  12 C :   -0.071564
  13 H :    0.042385
  14 H :    0.040569
  15 H :    0.022757
  16 S :    0.136221
  17 C :   -0.098356
  18 C :   -0.030469
  19 C :   -0.046457
  20 C :   -0.153930
  21 H :    0.007446
  22 C :    0.085252
  23 H :    0.033028
  24 H :    0.019520
  25 C :   -0.062139
  26 H :    0.015134
  27 H :    0.025354
  28 C :   -0.079238
  29 H :    0.049569
  30 H :    0.017774
  31 H :    0.035464
  32 H :    0.057801
  33 H :    0.058703
Sum of atomic charges:   -0.0000000

LOEWDIN ATOMIC CHARGES
----------------------
   0 S :    0.379468
   1 C :   -0.187604
   2 C :   -0.066169
   3 C :   -0.058526
   4 C :   -0.186779
   5 H :    0.034605
   6 C :   -0.045893
   7 H :    0.035411
   8 H :    0.038742
   9 C :   -0.036636
  10 H :    0.026289
  11 H :    0.024901
  12 C :   -0.072632
  13 H :    0.028696
  14 H :    0.023618
  15 H :    0.026027
  16 S :    0.457752
  17 C :   -0.188420
  18 C :   -0.068684
  19 C :   -0.050812
  20 C :   -0.244435
  21 H :    0.027975
  22 C :   -0.032156
  23 H :    0.034233
  24 H :    0.023551
  25 C :   -0.029937
  26 H :    0.015115
  27 H :    0.023546
  28 C :   -0.071788
  29 H :    0.030889
  30 H :    0.015745
  31 H :    0.026597
  32 H :    0.032824
  33 H :    0.034488

  Mayer bond orders larger than 0.100000
B(  0-S ,  1-C ) :   1.1381 B(  0-S ,  4-C ) :   1.1357 B(  1-C ,  2-C ) :   1.5959
B(  1-C ,  4-C ) :   0.1088 B(  1-C , 32-H ) :   0.9620 B(  2-C ,  3-C ) :   1.2431
B(  2-C ,  6-C ) :   1.0238 B(  3-C ,  4-C ) :   1.5958 B(  3-C ,  5-H ) :   0.9862
B(  4-C , 20-C ) :   1.0167 B(  6-C ,  7-H ) :   0.9438 B(  6-C ,  8-H ) :   0.9397
B(  6-C ,  9-C ) :   1.0670 B(  9-C , 10-H ) :   0.9522 B(  9-C , 11-H ) :   0.9540
B(  9-C , 12-C ) :   1.0730 B( 12-C , 13-H ) :   0.9774 B( 12-C , 14-H ) :   0.9755
B( 12-C , 15-H ) :   0.9747 B( 16-S , 17-C ) :   1.1810 B( 16-S , 20-C ) :   1.1815
B( 17-C , 18-C ) :   1.5672 B( 17-C , 20-C ) :   0.1068 B( 17-C , 33-H ) :   0.9583
B( 18-C , 19-C ) :   1.2961 B( 18-C , 21-H ) :   0.9930 B( 19-C , 20-C ) :   1.5467
B( 19-C , 22-C ) :   1.0124 B( 22-C , 23-H ) :   0.9313 B( 22-C , 24-H ) :   0.9413
B( 22-C , 25-C ) :   1.0846 B( 25-C , 26-H ) :   0.9510 B( 25-C , 27-H ) :   0.9562
B( 25-C , 28-C ) :   1.0772 B( 28-C , 29-H ) :   0.9760 B( 28-C , 30-H ) :   0.9760
B( 28-C , 31-H ) :   0.9757

Dispersion correction           -0.014043786
FINAL SINGLE POINT ENERGY     -1339.864772497586

DIPOLE MOMENT
-------------
                                X             Y             Z
Electronic contribution:    -23.28599      13.11716      -5.96199
Nuclear contribution   :     23.75201     -13.54196       5.96482
                        -----------------------------------------
Total Dipole Moment    :      0.46602      -0.42480       0.00283
                        -----------------------------------------
Magnitude (a.u.)       :      0.63058
Magnitude (Debye)      :      1.60282

Rotational constants in cm-1:     0.019048     0.008113     0.006268
Rotational constants in MHz :   571.036554   243.208063   187.920263

                             ****ORCA TERMINATED NORMALLY****
TOTAL RUN TIME: 0 days 0 hours 0 minutes 21 seconds 90 msec
