                         Program Version 4.2.1 -  RELEASE  -
|  1> ! wB97X-D3 SP def2-SVP
|  2> %pal
|  3> nprocs 24
|  4> end
|  5>
|  6> * xyz 0 1
|  7> S 	 -16.025 	 -25.2029 	 -93.3513
|  8> C 	 -14.6948 	 -25.8208 	 -92.3737
|  9> C 	 -14.1664 	 -26.9318 	 -92.9312
| 10> C 	 -14.7818 	 -27.318 	 -94.1677
| 11> C 	 -15.6835 	 -26.3827 	 -94.6373
| 12> H 	 -14.4668 	 -28.1065 	 -94.8037
| 13> C 	 -12.9608 	 -27.6583 	 -92.3882
| 14> H 	 -13.1924 	 -28.7147 	 -92.4683
| 15> H 	 -12.9865 	 -27.6503 	 -91.3287
| 16> C 	 -11.5794 	 -27.4209 	 -93.0049
| 17> H 	 -10.9593 	 -28.1788 	 -92.3468
| 18> H 	 -11.5481 	 -27.6829 	 -94.0876
| 19> C 	 -10.9972 	 -26.0465 	 -92.8576
| 20> H 	 -9.96021 	 -26.0374 	 -93.0659
| 21> H 	 -11.3688 	 -25.3558 	 -93.6263
| 22> H 	 -11.1676 	 -25.5993 	 -91.883
| 23> S 	 -18.2287 	 -26.5855 	 -95.4969
| 24> C 	 -18.5449 	 -26.6674 	 -97.2108
| 25> C 	 -17.4373 	 -26.6807 	 -98.0194
| 26> C 	 -16.2765 	 -26.6955 	 -97.2038
| 27> C 	 -16.5341 	 -26.4344 	 -95.8507
| 28> H 	 -17.4842 	 -26.8376 	 -99.1216
| 29> C 	 -14.9256 	 -26.8316 	 -97.8733
| 30> H 	 -15.0387 	 -27.7101 	 -98.4476
| 31> H 	 -14.1691 	 -27.1665 	 -97.1518
| 32> C 	 -14.4334 	 -25.5656 	 -98.5733
| 33> H 	 -14.2776 	 -24.7557 	 -97.897
| 34> H 	 -15.2022 	 -25.1007 	 -99.2554
| 35> C 	 -13.1546 	 -25.9229 	 -99.3479
| 36> H 	 -12.4519 	 -25.1374 	 -99.3619
| 37> H 	 -13.3961 	 -26.1437 	 -100.377
| 38> H 	 -12.6492 	 -26.8522 	 -98.9793
| 39> H 	 -14.2308 	 -25.3683 	 -91.5838
| 40> H 	 -19.6126 	 -26.723 	 -97.4854
| 41> *
| 42>
| 43>                          ****END OF INPUT****

CARTESIAN COORDINATES (ANGSTROEM)
---------------------------------
  S    -16.025000  -25.202900  -93.351300
  C    -14.694800  -25.820800  -92.373700
  C    -14.166400  -26.931800  -92.931200
  C    -14.781800  -27.318000  -94.167700
  C    -15.683500  -26.382700  -94.637300
  H    -14.466800  -28.106500  -94.803700
  C    -12.960800  -27.658300  -92.388200
  H    -13.192400  -28.714700  -92.468300
  H    -12.986500  -27.650300  -91.328700
  C    -11.579400  -27.420900  -93.004900
  H    -10.959300  -28.178800  -92.346800
  H    -11.548100  -27.682900  -94.087600
  C    -10.997200  -26.046500  -92.857600
  H     -9.960210  -26.037400  -93.065900
  H    -11.368800  -25.355800  -93.626300
  H    -11.167600  -25.599300  -91.883000
  S    -18.228700  -26.585500  -95.496900
  C    -18.544900  -26.667400  -97.210800
  C    -17.437300  -26.680700  -98.019400
  C    -16.276500  -26.695500  -97.203800
  C    -16.534100  -26.434400  -95.850700
  H    -17.484200  -26.837600  -99.121600
  C    -14.925600  -26.831600  -97.873300
  H    -15.038700  -27.710100  -98.447600
  H    -14.169100  -27.166500  -97.151800
  C    -14.433400  -25.565600  -98.573300
  H    -14.277600  -24.755700  -97.897000
  H    -15.202200  -25.100700  -99.255400
  C    -13.154600  -25.922900  -99.347900
  H    -12.451900  -25.137400  -99.361900
  H    -13.396100  -26.143700  -100.377000
  H    -12.649200  -26.852200  -98.979300
  H    -14.230800  -25.368300  -91.583800
  H    -19.612600  -26.723000  -97.485400

 Total Charge           Charge          ....    0
 Multiplicity           Mult            ....    1
 Number of Electrons    NEL             ....  134
 Basis Dimension        Dim             ....  322

ORBITAL ENERGIES
----------------

  NO   OCC          E(Eh)            E(eV)
   0   2.0000     -88.963791     -2420.8278
   1   2.0000     -88.962005     -2420.7792
   2   2.0000     -10.332049      -281.1494
   3   2.0000     -10.325218      -280.9635
   4   2.0000     -10.317598      -280.7561
   5   2.0000     -10.303152      -280.3630
   6   2.0000     -10.302712      -280.3511
   7   2.0000     -10.298614      -280.2395
   8   2.0000     -10.297015      -280.1960
   9   2.0000     -10.293742      -280.1070
  10   2.0000     -10.289793      -279.9995
  11   2.0000     -10.288114      -279.9538
  12   2.0000     -10.287792      -279.9451
  13   2.0000     -10.285217      -279.8750
  14   2.0000     -10.275036      -279.5979
  15   2.0000     -10.271765      -279.5089
  16   2.0000      -8.079210      -219.8465
  17   2.0000      -8.076276      -219.7667
  18   2.0000      -6.037530      -164.2896
  19   2.0000      -6.034969      -164.2199
  20   2.0000      -6.033769      -164.1872
  21   2.0000      -6.030867      -164.1082
  22   2.0000      -6.029967      -164.0838
  23   2.0000      -6.026842      -163.9987
  24   2.0000      -1.005988       -27.3743
  25   2.0000      -0.984477       -26.7890
  26   2.0000      -0.912737       -24.8368
  27   2.0000      -0.909740       -24.7553
  28   2.0000      -0.869396       -23.6575
  29   2.0000      -0.851792       -23.1784
  30   2.0000      -0.844904       -22.9910
  31   2.0000      -0.816042       -22.2056
  32   2.0000      -0.787046       -21.4166
  33   2.0000      -0.773249       -21.0412
  34   2.0000      -0.710495       -19.3336
  35   2.0000      -0.697380       -18.9767
  36   2.0000      -0.692491       -18.8436
  37   2.0000      -0.662213       -18.0197
  38   2.0000      -0.642027       -17.4704
  39   2.0000      -0.620305       -16.8794
  40   2.0000      -0.601213       -16.3598
  41   2.0000      -0.569711       -15.5026
  42   2.0000      -0.555496       -15.1158
  43   2.0000      -0.550729       -14.9861
  44   2.0000      -0.536813       -14.6074
  45   2.0000      -0.532614       -14.4932
  46   2.0000      -0.521628       -14.1942
  47   2.0000      -0.506896       -13.7933
  48   2.0000      -0.504307       -13.7229
  49   2.0000      -0.496142       -13.5007
  50   2.0000      -0.488436       -13.2910
  51   2.0000      -0.480641       -13.0789
  52   2.0000      -0.469749       -12.7825
  53   2.0000      -0.464256       -12.6330
  54   2.0000      -0.459513       -12.5040
  55   2.0000      -0.453883       -12.3508
  56   2.0000      -0.449332       -12.2270
  57   2.0000      -0.444080       -12.0840
  58   2.0000      -0.433117       -11.7857
  59   2.0000      -0.423550       -11.5254
  60   2.0000      -0.416688       -11.3387
  61   2.0000      -0.410486       -11.1699
  62   2.0000      -0.403954       -10.9921
  63   2.0000      -0.346987        -9.4420
  64   2.0000      -0.330186        -8.9848
  65   2.0000      -0.327400        -8.9090
  66   2.0000      -0.292794        -7.9673
  67   0.0000       0.034592         0.9413
  68   0.0000       0.067455         1.8355
  69   0.0000       0.107672         2.9299
  70   0.0000       0.122061         3.3215
  71   0.0000       0.129641         3.5277

MULLIKEN ATOMIC CHARGES
-----------------------
   0 S :    0.087586
   1 C :   -0.063012
   2 C :   -0.103137
   3 C :    0.063105
   4 C :   -0.161792
   5 H :    0.001308
   6 C :    0.076018
   7 H :    0.013046
   8 H :    0.004657
   9 C :   -0.086348
  10 H :    0.042618
  11 H :    0.037355
  12 C :   -0.024892
  13 H :    0.023398
  14 H :    0.034605
  15 H :    0.024831
  16 S :    0.105548
  17 C :   -0.105380
  18 C :   -0.027010
  19 C :   -0.076882
  20 C :   -0.136698
  21 H :    0.041698
  22 C :    0.073787
  23 H :    0.016841
  24 H :    0.011530
  25 C :   -0.057308
  26 H :    0.028267
  27 H :    0.031849
  28 C :   -0.029811
  29 H :    0.024180
  30 H :    0.027968
  31 H :    0.031857
  32 H :    0.005824
  33 H :    0.064396
Sum of atomic charges:   -0.0000000

LOEWDIN ATOMIC CHARGES
----------------------
   0 S :    0.377973
   1 C :   -0.177388
   2 C :   -0.063791
   3 C :   -0.060040
   4 C :   -0.178401
   5 H :    0.024333
   6 C :   -0.043218
   7 H :    0.034835
   8 H :    0.025562
   9 C :   -0.042221
  10 H :    0.037729
  11 H :    0.028761
  12 C :   -0.070466
  13 H :    0.023434
  14 H :    0.030683
  15 H :    0.022876
  16 S :    0.414950
  17 C :   -0.179635
  18 C :   -0.076898
  19 C :   -0.053113
  20 C :   -0.209787
  21 H :    0.044640
  22 C :   -0.032961
  23 H :    0.026504
  24 H :    0.029158
  25 C :   -0.036239
  26 H :    0.024063
  27 H :    0.029260
  28 C :   -0.063028
  29 H :    0.018652
  30 H :    0.025282
  31 H :    0.029381
  32 H :    0.012031
  33 H :    0.027081

  Mayer bond orders larger than 0.100000
B(  0-S ,  1-C ) :   1.1100 B(  0-S ,  4-C ) :   1.1425 B(  1-C ,  2-C ) :   1.6526
B(  1-C , 32-H ) :   0.9770 B(  2-C ,  3-C ) :   1.2089 B(  2-C ,  6-C ) :   1.0229
B(  3-C ,  4-C ) :   1.5972 B(  3-C ,  5-H ) :   0.9951 B(  4-C , 20-C ) :   1.0054
B(  6-C ,  7-H ) :   0.9276 B(  6-C ,  8-H ) :   0.9346 B(  6-C ,  9-C ) :   1.0701
B(  9-C , 10-H ) :   0.9511 B(  9-C , 11-H ) :   0.9545 B(  9-C , 12-C ) :   1.0857
B( 12-C , 13-H ) :   0.9692 B( 12-C , 14-H ) :   0.9688 B( 12-C , 15-H ) :   0.9741
B( 16-S , 17-C ) :   1.1741 B( 16-S , 20-C ) :   1.1513 B( 17-C , 18-C ) :   1.5943
B( 17-C , 33-H ) :   0.9642 B( 18-C , 19-C ) :   1.2381 B( 18-C , 21-H ) :   0.9872
B( 19-C , 20-C ) :   1.6049 B( 19-C , 22-C ) :   1.0446 B( 22-C , 23-H ) :   0.9335
B( 22-C , 24-H ) :   0.9266 B( 22-C , 25-C ) :   1.0601 B( 25-C , 26-H ) :   0.9586
B( 25-C , 27-H ) :   0.9615 B( 25-C , 28-C ) :   1.0596 B( 28-C , 29-H ) :   0.9763
B( 28-C , 30-H ) :   0.9767 B( 28-C , 31-H ) :   0.9754

Dispersion correction           -0.014063064
FINAL SINGLE POINT ENERGY     -1339.866384329419

DIPOLE MOMENT
-------------
                                X             Y             Z
Electronic contribution:    -28.12291       3.05324       8.49572
Nuclear contribution   :     28.68696      -3.38008      -8.86843
                        -----------------------------------------
Total Dipole Moment    :      0.56405      -0.32685      -0.37271
                        -----------------------------------------
Magnitude (a.u.)       :      0.75093
Magnitude (Debye)      :      1.90870

Rotational constants in cm-1:     0.017291     0.009282     0.006704
Rotational constants in MHz :   518.374010   278.260516   200.969019

                             ****ORCA TERMINATED NORMALLY****
TOTAL RUN TIME: 0 days 0 hours 0 minutes 21 seconds 533 msec
