                         Program Version 4.2.1 -  RELEASE  -
|  1> ! wB97X-D3 SP def2-SVP
|  2> %pal
|  3> nprocs 24
|  4> end
|  5>
|  6> * xyz 0 1
|  7> S 	 -60.4419 	 19.5185 	 19.754
|  8> C 	 -61.2869 	 18.5258 	 20.8701
|  9> C 	 -61.2791 	 19.0371 	 22.1495
| 10> C 	 -60.4131 	 20.1294 	 22.2916
| 11> C 	 -59.6865 	 20.3779 	 21.1217
| 12> H 	 -60.2921 	 20.8341 	 23.0659
| 13> C 	 -62.1827 	 18.5723 	 23.2143
| 14> H 	 -62.6082 	 17.5664 	 23.0137
| 15> H 	 -63.0416 	 19.2941 	 23.2659
| 16> C 	 -61.4802 	 18.4803 	 24.6602
| 17> H 	 -60.514 	 18.0104 	 24.6287
| 18> H 	 -61.2276 	 19.2796 	 25.1964
| 19> C 	 -62.322 	 17.7868 	 25.6466
| 20> H 	 -62.4573 	 16.7564 	 25.3642
| 21> H 	 -61.8786 	 17.753 	 26.6388
| 22> H 	 -63.3234 	 18.2752 	 25.7206
| 23> S 	 -58.6372 	 22.2039 	 19.397
| 24> C 	 -57.2377 	 23.1451 	 19.9101
| 25> C 	 -56.8897 	 22.8426 	 21.2164
| 26> C 	 -57.7027 	 21.8281 	 21.8346
| 27> C 	 -58.6789 	 21.3887 	 20.9486
| 28> H 	 -56.0378 	 23.3918 	 21.5812
| 29> C 	 -57.577 	 21.4422 	 23.3363
| 30> H 	 -58.5508 	 21.7053 	 23.77
| 31> H 	 -56.9063 	 22.1412 	 23.812
| 32> C 	 -57.0826 	 19.9802 	 23.6355
| 33> H 	 -56.0446 	 20.0464 	 23.3079
| 34> H 	 -57.6029 	 19.3816 	 22.9062
| 35> C 	 -57.3705 	 19.4799 	 25.0715
| 36> H 	 -56.662 	 19.9415 	 25.6867
| 37> H 	 -57.104 	 18.412 	 25.0011
| 38> H 	 -58.3767 	 19.6563 	 25.5175
| 39> H 	 -61.9405 	 17.6963 	 20.6181
| 40> H 	 -56.778 	 23.9641 	 19.3354
| 41> *
| 42>
| 43>                          ****END OF INPUT****

CARTESIAN COORDINATES (ANGSTROEM)
---------------------------------
  S    -60.441900   19.518500   19.754000
  C    -61.286900   18.525800   20.870100
  C    -61.279100   19.037100   22.149500
  C    -60.413100   20.129400   22.291600
  C    -59.686500   20.377900   21.121700
  H    -60.292100   20.834100   23.065900
  C    -62.182700   18.572300   23.214300
  H    -62.608200   17.566400   23.013700
  H    -63.041600   19.294100   23.265900
  C    -61.480200   18.480300   24.660200
  H    -60.514000   18.010400   24.628700
  H    -61.227600   19.279600   25.196400
  C    -62.322000   17.786800   25.646600
  H    -62.457300   16.756400   25.364200
  H    -61.878600   17.753000   26.638800
  H    -63.323400   18.275200   25.720600
  S    -58.637200   22.203900   19.397000
  C    -57.237700   23.145100   19.910100
  C    -56.889700   22.842600   21.216400
  C    -57.702700   21.828100   21.834600
  C    -58.678900   21.388700   20.948600
  H    -56.037800   23.391800   21.581200
  C    -57.577000   21.442200   23.336300
  H    -58.550800   21.705300   23.770000
  H    -56.906300   22.141200   23.812000
  C    -57.082600   19.980200   23.635500
  H    -56.044600   20.046400   23.307900
  H    -57.602900   19.381600   22.906200
  C    -57.370500   19.479900   25.071500
  H    -56.662000   19.941500   25.686700
  H    -57.104000   18.412000   25.001100
  H    -58.376700   19.656300   25.517500
  H    -61.940500   17.696300   20.618100
  H    -56.778000   23.964100   19.335400

 Total Charge           Charge          ....    0
 Multiplicity           Mult            ....    1
 Number of Electrons    NEL             ....  134
 Basis Dimension        Dim             ....  322

ORBITAL ENERGIES
----------------

  NO   OCC          E(Eh)            E(eV)
   0   2.0000     -88.966836     -2420.9107
   1   2.0000     -88.965999     -2420.8879
   2   2.0000     -10.329401      -281.0773
   3   2.0000     -10.326367      -280.9947
   4   2.0000     -10.318284      -280.7748
   5   2.0000     -10.307892      -280.4920
   6   2.0000     -10.307605      -280.4842
   7   2.0000     -10.302140      -280.3355
   8   2.0000     -10.295056      -280.1427
   9   2.0000     -10.294897      -280.1384
  10   2.0000     -10.294651      -280.1317
  11   2.0000     -10.289092      -279.9804
  12   2.0000     -10.286477      -279.9093
  13   2.0000     -10.281336      -279.7694
  14   2.0000     -10.272921      -279.5404
  15   2.0000     -10.272539      -279.5300
  16   2.0000      -8.081585      -219.9111
  17   2.0000      -8.080637      -219.8853
  18   2.0000      -6.040010      -164.3570
  19   2.0000      -6.039169      -164.3342
  20   2.0000      -6.036414      -164.2592
  21   2.0000      -6.035247      -164.2274
  22   2.0000      -6.032122      -164.1424
  23   2.0000      -6.031304      -164.1201
  24   2.0000      -1.008262       -27.4362
  25   2.0000      -0.983685       -26.7674
  26   2.0000      -0.914046       -24.8725
  27   2.0000      -0.901565       -24.5328
  28   2.0000      -0.875151       -23.8141
  29   2.0000      -0.858549       -23.3623
  30   2.0000      -0.847788       -23.0695
  31   2.0000      -0.816519       -22.2186
  32   2.0000      -0.782497       -21.2928
  33   2.0000      -0.765997       -20.8438
  34   2.0000      -0.714922       -19.4540
  35   2.0000      -0.702061       -19.1040
  36   2.0000      -0.691853       -18.8263
  37   2.0000      -0.664446       -18.0805
  38   2.0000      -0.639696       -17.4070
  39   2.0000      -0.621455       -16.9107
  40   2.0000      -0.587904       -15.9977
  41   2.0000      -0.569672       -15.5016
  42   2.0000      -0.566383       -15.4121
  43   2.0000      -0.561125       -15.2690
  44   2.0000      -0.529620       -14.4117
  45   2.0000      -0.525854       -14.3092
  46   2.0000      -0.514916       -14.0116
  47   2.0000      -0.511258       -13.9120
  48   2.0000      -0.502728       -13.6799
  49   2.0000      -0.498152       -13.5554
  50   2.0000      -0.494377       -13.4527
  51   2.0000      -0.488571       -13.2947
  52   2.0000      -0.475666       -12.9435
  53   2.0000      -0.468937       -12.7604
  54   2.0000      -0.458005       -12.4629
  55   2.0000      -0.446291       -12.1442
  56   2.0000      -0.443499       -12.0682
  57   2.0000      -0.436631       -11.8813
  58   2.0000      -0.434165       -11.8142
  59   2.0000      -0.425187       -11.5699
  60   2.0000      -0.418762       -11.3951
  61   2.0000      -0.417045       -11.3484
  62   2.0000      -0.415045       -11.2939
  63   2.0000      -0.356658        -9.7052
  64   2.0000      -0.334754        -9.1091
  65   2.0000      -0.326074        -8.8729
  66   2.0000      -0.277454        -7.5499
  67   0.0000       0.017232         0.4689
  68   0.0000       0.074956         2.0397
  69   0.0000       0.096932         2.6377
  70   0.0000       0.126546         3.4435
  71   0.0000       0.129493         3.5237

MULLIKEN ATOMIC CHARGES
-----------------------
   0 S :    0.108490
   1 C :   -0.104593
   2 C :   -0.055147
   3 C :    0.012052
   4 C :   -0.129923
   5 H :   -0.004602
   6 C :    0.054269
   7 H :    0.024702
   8 H :    0.053219
   9 C :   -0.032324
  10 H :    0.017724
  11 H :   -0.008639
  12 C :   -0.060912
  13 H :    0.019044
  14 H :    0.028618
  15 H :    0.030377
  16 S :    0.096914
  17 C :   -0.106859
  18 C :   -0.039253
  19 C :   -0.044136
  20 C :   -0.146169
  21 H :    0.015449
  22 C :    0.047191
  23 H :    0.026319
  24 H :    0.009039
  25 C :   -0.080017
  26 H :    0.035834
  27 H :    0.041393
  28 C :   -0.024590
  29 H :    0.019816
  30 H :    0.044143
  31 H :    0.045626
  32 H :    0.041023
  33 H :    0.065922
Sum of atomic charges:    0.0000000

LOEWDIN ATOMIC CHARGES
----------------------
   0 S :    0.401347
   1 C :   -0.207996
   2 C :   -0.071077
   3 C :   -0.054208
   4 C :   -0.174676
   5 H :    0.024878
   6 C :   -0.023717
   7 H :    0.033656
   8 H :    0.042437
   9 C :   -0.043839
  10 H :    0.025432
  11 H :    0.005657
  12 C :   -0.061738
  13 H :    0.016826
  14 H :    0.025985
  15 H :    0.027650
  16 S :    0.392280
  17 C :   -0.188893
  18 C :   -0.070439
  19 C :   -0.058054
  20 C :   -0.191369
  21 H :    0.031230
  22 C :   -0.030781
  23 H :    0.024743
  24 H :    0.023499
  25 C :   -0.036135
  26 H :    0.029989
  27 H :    0.021750
  28 C :   -0.063125
  29 H :    0.017535
  30 H :    0.035676
  31 H :    0.031548
  32 H :    0.028416
  33 H :    0.035513

  Mayer bond orders larger than 0.100000
B(  0-S ,  1-C ) :   1.1355 B(  0-S ,  4-C ) :   1.1459 B(  1-C ,  2-C ) :   1.5965
B(  1-C , 32-H ) :   0.9659 B(  2-C ,  3-C ) :   1.2341 B(  2-C ,  6-C ) :   1.0489
B(  3-C ,  4-C ) :   1.5297 B(  3-C ,  5-H ) :   1.0074 B(  4-C , 20-C ) :   1.1061
B(  6-C ,  7-H ) :   0.9449 B(  6-C ,  8-H ) :   0.9279 B(  6-C ,  9-C ) :   1.0381
B(  9-C , 10-H ) :   0.9535 B(  9-C , 11-H ) :   0.9446 B(  9-C , 12-C ) :   1.1062
B( 12-C , 13-H ) :   0.9738 B( 12-C , 14-H ) :   0.9715 B( 12-C , 15-H ) :   0.9694
B( 16-S , 17-C ) :   1.1354 B( 16-S , 20-C ) :   1.1351 B( 17-C , 18-C ) :   1.6341
B( 17-C , 33-H ) :   0.9640 B( 18-C , 19-C ) :   1.2253 B( 18-C , 21-H ) :   0.9910
B( 19-C , 20-C ) :   1.5885 B( 19-C , 22-C ) :   1.0261 B( 22-C , 23-H ) :   0.9443
B( 22-C , 24-H ) :   0.9342 B( 22-C , 25-C ) :   1.0368 B( 25-C , 26-H ) :   0.9546
B( 25-C , 27-H ) :   0.9670 B( 25-C , 28-C ) :   1.0661 B( 28-C , 29-H ) :   0.9736
B( 28-C , 30-H ) :   0.9733 B( 28-C , 31-H ) :   0.9749

Dispersion correction           -0.015140607
FINAL SINGLE POINT ENERGY     -1339.856030851772

DIPOLE MOMENT
-------------
                                X             Y             Z
Electronic contribution:      1.61762      11.41218     -31.71657
Nuclear contribution   :     -1.59015     -11.32634      32.43389
                        -----------------------------------------
Total Dipole Moment    :      0.02747       0.08584       0.71732
                        -----------------------------------------
Magnitude (a.u.)       :      0.72296
Magnitude (Debye)      :      1.83762

Rotational constants in cm-1:     0.019203     0.009640     0.006882
Rotational constants in MHz :   575.696590   289.010492   206.311609

                             ****ORCA TERMINATED NORMALLY****
TOTAL RUN TIME: 0 days 0 hours 0 minutes 21 seconds 446 msec
