                         Program Version 4.2.1 -  RELEASE  -
|  1> ! wB97X-D3 SP def2-SVP
|  2> %pal
|  3> nprocs 24
|  4> end
|  5>
|  6> * xyz 0 1
|  7> S 	 -1.01696 	 -17.6156 	 -102.897
|  8> C 	 0.056531 	 -18.9107 	 -102.295
|  9> C 	 1.25457 	 -18.8904 	 -102.997
| 10> C 	 1.36544 	 -17.6847 	 -103.748
| 11> C 	 0.250969 	 -16.8668 	 -103.843
| 12> H 	 2.22781 	 -17.2997 	 -104.338
| 13> C 	 2.16811 	 -20.1506 	 -103.006
| 14> H 	 1.96136 	 -20.5837 	 -103.977
| 15> H 	 1.83491 	 -20.8567 	 -102.262
| 16> C 	 3.6433 	 -19.9882 	 -102.577
| 17> H 	 4.24972 	 -19.2953 	 -103.195
| 18> H 	 3.56219 	 -19.4942 	 -101.612
| 19> C 	 4.44707 	 -21.2334 	 -102.397
| 20> H 	 5.42416 	 -21.0297 	 -102.091
| 21> H 	 4.05216 	 -22.009 	 -101.667
| 22> H 	 4.57869 	 -21.8182 	 -103.32
| 23> S 	 0.371708 	 -15.7563 	 -106.24
| 24> C 	 0.0579041 	 -13.9551 	 -106.416
| 25> C 	 -0.096928 	 -13.3718 	 -105.188
| 26> C 	 -0.0882877 	 -14.2889 	 -104.127
| 27> C 	 0.189006 	 -15.5827 	 -104.522
| 28> H 	 -0.0965712 	 -12.3155 	 -105.019
| 29> C 	 -0.247009 	 -13.8953 	 -102.651
| 30> H 	 -0.475285 	 -14.7876 	 -102.013
| 31> H 	 -1.04845 	 -13.223 	 -102.598
| 32> C 	 1.00281 	 -13.2894 	 -101.997
| 33> H 	 1.26277 	 -12.4266 	 -102.488
| 34> H 	 1.76787 	 -14.0133 	 -102.228
| 35> C 	 0.916341 	 -13.0038 	 -100.55
| 36> H 	 0.546515 	 -11.9694 	 -100.395
| 37> H 	 1.93103 	 -12.9533 	 -100.162
| 38> H 	 0.268483 	 -13.8056 	 -100.039
| 39> H 	 -0.373882 	 -19.7915 	 -101.804
| 40> H 	 0.237263 	 -13.4068 	 -107.354
| 41> *
| 42>
| 43>                          ****END OF INPUT****

CARTESIAN COORDINATES (ANGSTROEM)
---------------------------------
  S     -1.016960  -17.615600  -102.897000
  C      0.056531  -18.910700  -102.295000
  C      1.254570  -18.890400  -102.997000
  C      1.365440  -17.684700  -103.748000
  C      0.250969  -16.866800  -103.843000
  H      2.227810  -17.299700  -104.338000
  C      2.168110  -20.150600  -103.006000
  H      1.961360  -20.583700  -103.977000
  H      1.834910  -20.856700  -102.262000
  C      3.643300  -19.988200  -102.577000
  H      4.249720  -19.295300  -103.195000
  H      3.562190  -19.494200  -101.612000
  C      4.447070  -21.233400  -102.397000
  H      5.424160  -21.029700  -102.091000
  H      4.052160  -22.009000  -101.667000
  H      4.578690  -21.818200  -103.320000
  S      0.371708  -15.756300  -106.240000
  C      0.057904  -13.955100  -106.416000
  C     -0.096928  -13.371800  -105.188000
  C     -0.088288  -14.288900  -104.127000
  C      0.189006  -15.582700  -104.522000
  H     -0.096571  -12.315500  -105.019000
  C     -0.247009  -13.895300  -102.651000
  H     -0.475285  -14.787600  -102.013000
  H     -1.048450  -13.223000  -102.598000
  C      1.002810  -13.289400  -101.997000
  H      1.262770  -12.426600  -102.488000
  H      1.767870  -14.013300  -102.228000
  C      0.916341  -13.003800  -100.550000
  H      0.546515  -11.969400  -100.395000
  H      1.931030  -12.953300  -100.162000
  H      0.268483  -13.805600  -100.039000
  H     -0.373882  -19.791500  -101.804000
  H      0.237263  -13.406800  -107.354000

 Total Charge           Charge          ....    0
 Multiplicity           Mult            ....    1
 Number of Electrons    NEL             ....  134
 Basis Dimension        Dim             ....  322

ORBITAL ENERGIES
----------------

  NO   OCC          E(Eh)            E(eV)
   0   2.0000     -88.966992     -2420.9149
   1   2.0000     -88.964333     -2420.8426
   2   2.0000     -10.330465      -281.1062
   3   2.0000     -10.326544      -280.9995
   4   2.0000     -10.325158      -280.9618
   5   2.0000     -10.318538      -280.7817
   6   2.0000     -10.309509      -280.5360
   7   2.0000     -10.301879      -280.3284
   8   2.0000     -10.298164      -280.2273
   9   2.0000     -10.297347      -280.2051
  10   2.0000     -10.295314      -280.1497
  11   2.0000     -10.288898      -279.9752
  12   2.0000     -10.285686      -279.8877
  13   2.0000     -10.279764      -279.7266
  14   2.0000     -10.278438      -279.6905
  15   2.0000     -10.268738      -279.4266
  16   2.0000      -8.080818      -219.8902
  17   2.0000      -8.078234      -219.8199
  18   2.0000      -6.039411      -164.3407
  19   2.0000      -6.036750      -164.2683
  20   2.0000      -6.035535      -164.2353
  21   2.0000      -6.032797      -164.1608
  22   2.0000      -6.031434      -164.1237
  23   2.0000      -6.029066      -164.0592
  24   2.0000      -1.006136       -27.3784
  25   2.0000      -0.981723       -26.7140
  26   2.0000      -0.912438       -24.8287
  27   2.0000      -0.910705       -24.7815
  28   2.0000      -0.876463       -23.8498
  29   2.0000      -0.853199       -23.2167
  30   2.0000      -0.842763       -22.9327
  31   2.0000      -0.816738       -22.2246
  32   2.0000      -0.784713       -21.3531
  33   2.0000      -0.769552       -20.9406
  34   2.0000      -0.707282       -19.2461
  35   2.0000      -0.695283       -18.9196
  36   2.0000      -0.689163       -18.7531
  37   2.0000      -0.672824       -18.3085
  38   2.0000      -0.639835       -17.4108
  39   2.0000      -0.612929       -16.6786
  40   2.0000      -0.597420       -16.2566
  41   2.0000      -0.574714       -15.6387
  42   2.0000      -0.567227       -15.4350
  43   2.0000      -0.564195       -15.3525
  44   2.0000      -0.528235       -14.3740
  45   2.0000      -0.523098       -14.2342
  46   2.0000      -0.517246       -14.0750
  47   2.0000      -0.512536       -13.9468
  48   2.0000      -0.504372       -13.7247
  49   2.0000      -0.501219       -13.6388
  50   2.0000      -0.493701       -13.4343
  51   2.0000      -0.478923       -13.0322
  52   2.0000      -0.476033       -12.9535
  53   2.0000      -0.465009       -12.6535
  54   2.0000      -0.455759       -12.4018
  55   2.0000      -0.448774       -12.2118
  56   2.0000      -0.445807       -12.1310
  57   2.0000      -0.429559       -11.6889
  58   2.0000      -0.426762       -11.6128
  59   2.0000      -0.425126       -11.5683
  60   2.0000      -0.419513       -11.4155
  61   2.0000      -0.413419       -11.2497
  62   2.0000      -0.410958       -11.1827
  63   2.0000      -0.346917        -9.4401
  64   2.0000      -0.332594        -9.0503
  65   2.0000      -0.326491        -8.8843
  66   2.0000      -0.300213        -8.1692
  67   0.0000       0.029847         0.8122
  68   0.0000       0.062570         1.7026
  69   0.0000       0.101284         2.7561
  70   0.0000       0.117265         3.1910
  71   0.0000       0.125494         3.4149

MULLIKEN ATOMIC CHARGES
-----------------------
   0 S :    0.101620
   1 C :   -0.137345
   2 C :   -0.082101
   3 C :    0.007411
   4 C :   -0.143428
   5 H :    0.022101
   6 C :    0.089715
   7 H :    0.045854
   8 H :    0.009593
   9 C :   -0.077662
  10 H :    0.033284
  11 H :    0.029784
  12 C :   -0.046195
  13 H :    0.022013
  14 H :    0.031603
  15 H :    0.026243
  16 S :    0.097393
  17 C :   -0.100450
  18 C :   -0.016162
  19 C :   -0.027107
  20 C :   -0.186679
  21 H :    0.016879
  22 C :    0.069287
  23 H :    0.025314
  24 H :    0.007406
  25 C :   -0.039508
  26 H :   -0.006160
  27 H :    0.020748
  28 C :   -0.041864
  29 H :    0.031078
  30 H :    0.034116
  31 H :    0.047067
  32 H :    0.067043
  33 H :    0.069110
Sum of atomic charges:    0.0000000

LOEWDIN ATOMIC CHARGES
----------------------
   0 S :    0.391688
   1 C :   -0.190125
   2 C :   -0.060420
   3 C :   -0.075334
   4 C :   -0.202325
   5 H :    0.033785
   6 C :   -0.022858
   7 H :    0.033252
   8 H :    0.029817
   9 C :   -0.047188
  10 H :    0.025945
  11 H :    0.028814
  12 C :   -0.069719
  13 H :    0.020691
  14 H :    0.029572
  15 H :    0.026219
  16 S :    0.387620
  17 C :   -0.161960
  18 C :   -0.062385
  19 C :   -0.055717
  20 C :   -0.196253
  21 H :    0.032772
  22 C :   -0.024655
  23 H :    0.029216
  24 H :    0.017181
  25 C :   -0.041689
  26 H :    0.008969
  27 H :    0.023856
  28 C :   -0.067441
  29 H :    0.028229
  30 H :    0.029867
  31 H :    0.035794
  32 H :    0.031121
  33 H :    0.033662

  Mayer bond orders larger than 0.100000
B(  0-S ,  1-C ) :   1.1389 B(  0-S ,  4-C ) :   1.1383 B(  1-C ,  2-C ) :   1.6055
B(  1-C ,  4-C ) :   0.1002 B(  1-C , 32-H ) :   0.9610 B(  2-C ,  3-C ) :   1.2304
B(  2-C ,  6-C ) :   1.0184 B(  3-C ,  4-C ) :   1.5859 B(  3-C ,  5-H ) :   0.9866
B(  4-C , 20-C ) :   1.0130 B(  6-C ,  7-H ) :   0.9397 B(  6-C ,  8-H ) :   0.9401
B(  6-C ,  9-C ) :   1.0486 B(  9-C , 10-H ) :   0.9539 B(  9-C , 11-H ) :   0.9532
B(  9-C , 12-C ) :   1.1022 B( 12-C , 13-H ) :   0.9704 B( 12-C , 14-H ) :   0.9700
B( 12-C , 15-H ) :   0.9713 B( 16-S , 17-C ) :   1.1287 B( 16-S , 20-C ) :   1.1490
B( 17-C , 18-C ) :   1.6185 B( 17-C , 20-C ) :   0.1056 B( 17-C , 33-H ) :   0.9636
B( 18-C , 19-C ) :   1.2412 B( 18-C , 21-H ) :   0.9873 B( 19-C , 20-C ) :   1.6103
B( 19-C , 22-C ) :   1.0473 B( 22-C , 23-H ) :   0.9286 B( 22-C , 24-H ) :   0.9286
B( 22-C , 25-C ) :   1.0720 B( 25-C , 26-H ) :   0.9468 B( 25-C , 27-H ) :   0.9530
B( 25-C , 28-C ) :   1.0956 B( 28-C , 29-H ) :   0.9722 B( 28-C , 30-H ) :   0.9699
B( 28-C , 31-H ) :   0.9715

Dispersion correction           -0.013614409
FINAL SINGLE POINT ENERGY     -1339.866912950139

DIPOLE MOMENT
-------------
                                X             Y             Z
Electronic contribution:    -16.64226       2.71308     -16.66510
Nuclear contribution   :     17.14190      -2.64829      16.80628
                        -----------------------------------------
Total Dipole Moment    :      0.49964       0.06479       0.14118
                        -----------------------------------------
Magnitude (a.u.)       :      0.52323
Magnitude (Debye)      :      1.32994

Rotational constants in cm-1:     0.018138     0.007549     0.006633
Rotational constants in MHz :   543.775773   226.315025   198.841903

                             ****ORCA TERMINATED NORMALLY****
TOTAL RUN TIME: 0 days 0 hours 0 minutes 20 seconds 982 msec
