                         Program Version 4.2.1 -  RELEASE  -
|  1> ! wB97X-D3 SP def2-SVP
|  2> %pal
|  3> nprocs 24
|  4> end
|  5>
|  6> * xyz 0 1
|  7> S 	 -127.639 	 59.2075 	 -57.9691
|  8> C 	 -128.975 	 58.1142 	 -58.0592
|  9> C 	 -129.782 	 58.1496 	 -56.939
| 10> C 	 -129.438 	 59.2431 	 -56.1493
| 11> C 	 -128.256 	 59.8572 	 -56.3993
| 12> H 	 -130.179 	 59.5412 	 -55.42
| 13> C 	 -131.073 	 57.3769 	 -56.7655
| 14> H 	 -131.792 	 57.6116 	 -57.4395
| 15> H 	 -131.409 	 57.7176 	 -55.8169
| 16> C 	 -130.969 	 55.7982 	 -56.7827
| 17> H 	 -130.282 	 55.3575 	 -57.4819
| 18> H 	 -130.463 	 55.5527 	 -55.8729
| 19> C 	 -132.395 	 55.1414 	 -56.8319
| 20> H 	 -132.914 	 55.3506 	 -57.8161
| 21> H 	 -132.278 	 54.1288 	 -56.7058
| 22> H 	 -133.045 	 55.4921 	 -56.0687
| 23> S 	 -127.829 	 62.5421 	 -56.6405
| 24> C 	 -127.318 	 63.4702 	 -55.2991
| 25> C 	 -127.014 	 62.6292 	 -54.1922
| 26> C 	 -127.307 	 61.2962 	 -54.4431
| 27> C 	 -127.842 	 61.0628 	 -55.7295
| 28> H 	 -126.697 	 63.0859 	 -53.2207
| 29> C 	 -127.089 	 60.2936 	 -53.3191
| 30> H 	 -126.249 	 60.6258 	 -52.7243
| 31> H 	 -126.773 	 59.3153 	 -53.7771
| 32> C 	 -128.312 	 60.1078 	 -52.3787
| 33> H 	 -129.18 	 59.866 	 -52.9015
| 34> H 	 -128.577 	 61.0339 	 -52.0315
| 35> C 	 -128.046 	 59.1043 	 -51.2527
| 36> H 	 -128.896 	 59.0853 	 -50.5645
| 37> H 	 -127.153 	 59.3329 	 -50.6512
| 38> H 	 -127.726 	 58.105 	 -51.6644
| 39> H 	 -128.981 	 57.4621 	 -58.9866
| 40> H 	 -127.103 	 64.5521 	 -55.2735
| 41> *
| 42>
| 43>                          ****END OF INPUT****

CARTESIAN COORDINATES (ANGSTROEM)
---------------------------------
  S    -127.639000   59.207500  -57.969100
  C    -128.975000   58.114200  -58.059200
  C    -129.782000   58.149600  -56.939000
  C    -129.438000   59.243100  -56.149300
  C    -128.256000   59.857200  -56.399300
  H    -130.179000   59.541200  -55.420000
  C    -131.073000   57.376900  -56.765500
  H    -131.792000   57.611600  -57.439500
  H    -131.409000   57.717600  -55.816900
  C    -130.969000   55.798200  -56.782700
  H    -130.282000   55.357500  -57.481900
  H    -130.463000   55.552700  -55.872900
  C    -132.395000   55.141400  -56.831900
  H    -132.914000   55.350600  -57.816100
  H    -132.278000   54.128800  -56.705800
  H    -133.045000   55.492100  -56.068700
  S    -127.829000   62.542100  -56.640500
  C    -127.318000   63.470200  -55.299100
  C    -127.014000   62.629200  -54.192200
  C    -127.307000   61.296200  -54.443100
  C    -127.842000   61.062800  -55.729500
  H    -126.697000   63.085900  -53.220700
  C    -127.089000   60.293600  -53.319100
  H    -126.249000   60.625800  -52.724300
  H    -126.773000   59.315300  -53.777100
  C    -128.312000   60.107800  -52.378700
  H    -129.180000   59.866000  -52.901500
  H    -128.577000   61.033900  -52.031500
  C    -128.046000   59.104300  -51.252700
  H    -128.896000   59.085300  -50.564500
  H    -127.153000   59.332900  -50.651200
  H    -127.726000   58.105000  -51.664400
  H    -128.981000   57.462100  -58.986600
  H    -127.103000   64.552100  -55.273500

 Total Charge           Charge          ....    0
 Multiplicity           Mult            ....    1
 Number of Electrons    NEL             ....  134
 Basis Dimension        Dim             ....  322

ORBITAL ENERGIES
----------------

  NO   OCC          E(Eh)            E(eV)
   0   2.0000     -88.967568     -2420.9306
   1   2.0000     -88.965192     -2420.8659
   2   2.0000     -10.325664      -280.9756
   3   2.0000     -10.323089      -280.9055
   4   2.0000     -10.319320      -280.8030
   5   2.0000     -10.317472      -280.7527
   6   2.0000     -10.300207      -280.2829
   7   2.0000     -10.294836      -280.1367
   8   2.0000     -10.293227      -280.0929
   9   2.0000     -10.290518      -280.0192
  10   2.0000     -10.288471      -279.9635
  11   2.0000     -10.287344      -279.9329
  12   2.0000     -10.284036      -279.8428
  13   2.0000     -10.281763      -279.7810
  14   2.0000     -10.277597      -279.6676
  15   2.0000     -10.273403      -279.5535
  16   2.0000      -8.082825      -219.9449
  17   2.0000      -8.079660      -219.8587
  18   2.0000      -6.041109      -164.3869
  19   2.0000      -6.038129      -164.3058
  20   2.0000      -6.037057      -164.2767
  21   2.0000      -6.034155      -164.1977
  22   2.0000      -6.033995      -164.1933
  23   2.0000      -6.030523      -164.0989
  24   2.0000      -1.008430       -27.4408
  25   2.0000      -0.987759       -26.8783
  26   2.0000      -0.907625       -24.6977
  27   2.0000      -0.905844       -24.6493
  28   2.0000      -0.868145       -23.6234
  29   2.0000      -0.854371       -23.2486
  30   2.0000      -0.851488       -23.1702
  31   2.0000      -0.809123       -22.0173
  32   2.0000      -0.780388       -21.2354
  33   2.0000      -0.766749       -20.8643
  34   2.0000      -0.713914       -19.4266
  35   2.0000      -0.710016       -19.3205
  36   2.0000      -0.694477       -18.8977
  37   2.0000      -0.659234       -17.9387
  38   2.0000      -0.641883       -17.4665
  39   2.0000      -0.627087       -17.0639
  40   2.0000      -0.593037       -16.1374
  41   2.0000      -0.563535       -15.3346
  42   2.0000      -0.559785       -15.2325
  43   2.0000      -0.554618       -15.0919
  44   2.0000      -0.526878       -14.3371
  45   2.0000      -0.523876       -14.2554
  46   2.0000      -0.516487       -14.0543
  47   2.0000      -0.510394       -13.8885
  48   2.0000      -0.502352       -13.6697
  49   2.0000      -0.499784       -13.5998
  50   2.0000      -0.493442       -13.4272
  51   2.0000      -0.475363       -12.9353
  52   2.0000      -0.469768       -12.7830
  53   2.0000      -0.468108       -12.7379
  54   2.0000      -0.458238       -12.4693
  55   2.0000      -0.453408       -12.3379
  56   2.0000      -0.444094       -12.0844
  57   2.0000      -0.438286       -11.9264
  58   2.0000      -0.434619       -11.8266
  59   2.0000      -0.429436       -11.6855
  60   2.0000      -0.423505       -11.5242
  61   2.0000      -0.416281       -11.3276
  62   2.0000      -0.414702       -11.2846
  63   2.0000      -0.342773        -9.3273
  64   2.0000      -0.332070        -9.0361
  65   2.0000      -0.324390        -8.8271
  66   2.0000      -0.294231        -8.0064
  67   0.0000       0.031052         0.8450
  68   0.0000       0.060190         1.6379
  69   0.0000       0.117463         3.1963
  70   0.0000       0.127204         3.4614
  71   0.0000       0.132221         3.5979

MULLIKEN ATOMIC CHARGES
-----------------------
   0 S :    0.102651
   1 C :   -0.171333
   2 C :   -0.058038
   3 C :    0.013527
   4 C :   -0.135376
   5 H :    0.020048
   6 C :    0.125057
   7 H :    0.012203
   8 H :    0.000286
   9 C :   -0.088213
  10 H :    0.027492
  11 H :    0.017021
  12 C :   -0.030499
  13 H :    0.040946
  14 H :    0.021299
  15 H :    0.025713
  16 S :    0.135137
  17 C :   -0.112133
  18 C :   -0.072231
  19 C :   -0.017352
  20 C :   -0.187768
  21 H :    0.036270
  22 C :    0.048554
  23 H :    0.015434
  24 H :    0.033418
  25 C :    0.016430
  26 H :   -0.001051
  27 H :   -0.011166
  28 C :   -0.050310
  29 H :    0.041420
  30 H :    0.021447
  31 H :    0.033986
  32 H :    0.079407
  33 H :    0.067723
Sum of atomic charges:   -0.0000000

LOEWDIN ATOMIC CHARGES
----------------------
   0 S :    0.389015
   1 C :   -0.192464
   2 C :   -0.075559
   3 C :   -0.049335
   4 C :   -0.195669
   5 H :    0.031943
   6 C :   -0.014887
   7 H :    0.016079
   8 H :    0.024624
   9 C :   -0.032704
  10 H :    0.020990
  11 H :    0.021180
  12 C :   -0.057785
  13 H :    0.032508
  14 H :    0.016019
  15 H :    0.021573
  16 S :    0.447024
  17 C :   -0.210386
  18 C :   -0.083153
  19 C :   -0.055379
  20 C :   -0.212944
  21 H :    0.038897
  22 C :   -0.026165
  23 H :    0.027147
  24 H :    0.033482
  25 C :   -0.030522
  26 H :    0.016015
  27 H :    0.012006
  28 C :   -0.068110
  29 H :    0.028026
  30 H :    0.024013
  31 H :    0.031348
  32 H :    0.037395
  33 H :    0.035776

  Mayer bond orders larger than 0.100000
B(  0-S ,  1-C ) :   1.1730 B(  0-S ,  4-C ) :   1.1176 B(  1-C ,  2-C ) :   1.5605
B(  1-C , 32-H ) :   0.9596 B(  2-C ,  3-C ) :   1.2869 B(  2-C ,  6-C ) :   1.0124
B(  3-C ,  4-C ) :   1.5739 B(  3-C ,  5-H ) :   0.9802 B(  4-C , 20-C ) :   1.0604
B(  6-C ,  7-H ) :   0.9485 B(  6-C ,  8-H ) :   0.9360 B(  6-C ,  9-C ) :   1.0432
B(  9-C , 10-H ) :   0.9666 B(  9-C , 11-H ) :   0.9551 B(  9-C , 12-C ) :   1.0778
B( 12-C , 13-H ) :   0.9762 B( 12-C , 14-H ) :   0.9745 B( 12-C , 15-H ) :   0.9754
B( 16-S , 17-C ) :   1.2004 B( 16-S , 20-C ) :   1.1662 B( 17-C , 18-C ) :   1.5380
B( 17-C , 20-C ) :   0.1175 B( 17-C , 33-H ) :   0.9637 B( 18-C , 19-C ) :   1.3153
B( 18-C , 21-H ) :   0.9821 B( 19-C , 20-C ) :   1.5304 B( 19-C , 22-C ) :   1.0481
B( 22-C , 23-H ) :   0.9355 B( 22-C , 24-H ) :   0.9310 B( 22-C , 25-C ) :   1.0652
B( 25-C , 26-H ) :   0.9468 B( 25-C , 27-H ) :   0.9449 B( 25-C , 28-C ) :   1.0835
B( 28-C , 29-H ) :   0.9737 B( 28-C , 30-H ) :   0.9733 B( 28-C , 31-H ) :   0.9738

Dispersion correction           -0.013640198
FINAL SINGLE POINT ENERGY     -1339.860780432134

DIPOLE MOMENT
-------------
                                X             Y             Z
Electronic contribution:     13.60720      20.16372     -18.21075
Nuclear contribution   :    -13.99135     -20.38930      18.59048
                        -----------------------------------------
Total Dipole Moment    :     -0.38415      -0.22559       0.37973
                        -----------------------------------------
Magnitude (a.u.)       :      0.58537
Magnitude (Debye)      :      1.48789

Rotational constants in cm-1:     0.017985     0.008162     0.006174
Rotational constants in MHz :   539.163432   244.701374   185.087944

                             ****ORCA TERMINATED NORMALLY****
TOTAL RUN TIME: 0 days 0 hours 0 minutes 19 seconds 996 msec
