                         Program Version 4.2.1 -  RELEASE  -
|  1> ! wB97X-D3 SP def2-SVP
|  2> %pal
|  3> nprocs 24
|  4> end
|  5>
|  6> * xyz 0 1
|  7> S 	 -70.2006 	 10.754 	 -75.0222
|  8> C 	 -69.7305 	 12.1845 	 -76.0265
|  9> C 	 -69.7105 	 13.3566 	 -75.2903
| 10> C 	 -69.9197 	 12.9976 	 -73.9811
| 11> C 	 -70.0429 	 11.6732 	 -73.6016
| 12> H 	 -69.7954 	 13.7135 	 -73.2019
| 13> C 	 -69.4954 	 14.7307 	 -75.8868
| 14> H 	 -69.281 	 14.6904 	 -76.9771
| 15> H 	 -68.6439 	 15.1804 	 -75.4365
| 16> C 	 -70.6555 	 15.712 	 -75.5255
| 17> H 	 -70.6836 	 15.9883 	 -74.4965
| 18> H 	 -70.4879 	 16.6128 	 -76.1147
| 19> C 	 -71.9994 	 15.1235 	 -75.9364
| 20> H 	 -72.6328 	 15.9374 	 -76.3889
| 21> H 	 -71.9139 	 14.1486 	 -76.4949
| 22> H 	 -72.5088 	 14.9141 	 -74.996
| 23> S 	 -69.8658 	 9.41949 	 -72.039
| 24> C 	 -69.8395 	 9.52585 	 -70.2706
| 25> C 	 -70.0158 	 10.8261 	 -69.917
| 26> C 	 -70.0896 	 11.7474 	 -70.995
| 27> C 	 -69.921 	 11.1781 	 -72.2626
| 28> H 	 -69.9685 	 10.996 	 -68.8599
| 29> C 	 -70.424 	 13.2138 	 -70.6545
| 30> H 	 -71.0581 	 13.1651 	 -69.8056
| 31> H 	 -71.0681 	 13.5289 	 -71.4438
| 32> C 	 -69.1744 	 14.0943 	 -70.3298
| 33> H 	 -68.3549 	 13.859 	 -71.0349
| 34> H 	 -68.8721 	 13.9447 	 -69.3134
| 35> C 	 -69.3816 	 15.653 	 -70.5628
| 36> H 	 -69.8511 	 15.8946 	 -71.5457
| 37> H 	 -68.4841 	 16.2841 	 -70.4759
| 38> H 	 -70.0277 	 16.0736 	 -69.8412
| 39> H 	 -69.5151 	 12.1174 	 -77.1049
| 40> H 	 -69.4968 	 8.70922 	 -69.644
| 41> *
| 42>
| 43>                          ****END OF INPUT****

CARTESIAN COORDINATES (ANGSTROEM)
---------------------------------
  S    -70.200600   10.754000  -75.022200
  C    -69.730500   12.184500  -76.026500
  C    -69.710500   13.356600  -75.290300
  C    -69.919700   12.997600  -73.981100
  C    -70.042900   11.673200  -73.601600
  H    -69.795400   13.713500  -73.201900
  C    -69.495400   14.730700  -75.886800
  H    -69.281000   14.690400  -76.977100
  H    -68.643900   15.180400  -75.436500
  C    -70.655500   15.712000  -75.525500
  H    -70.683600   15.988300  -74.496500
  H    -70.487900   16.612800  -76.114700
  C    -71.999400   15.123500  -75.936400
  H    -72.632800   15.937400  -76.388900
  H    -71.913900   14.148600  -76.494900
  H    -72.508800   14.914100  -74.996000
  S    -69.865800    9.419490  -72.039000
  C    -69.839500    9.525850  -70.270600
  C    -70.015800   10.826100  -69.917000
  C    -70.089600   11.747400  -70.995000
  C    -69.921000   11.178100  -72.262600
  H    -69.968500   10.996000  -68.859900
  C    -70.424000   13.213800  -70.654500
  H    -71.058100   13.165100  -69.805600
  H    -71.068100   13.528900  -71.443800
  C    -69.174400   14.094300  -70.329800
  H    -68.354900   13.859000  -71.034900
  H    -68.872100   13.944700  -69.313400
  C    -69.381600   15.653000  -70.562800
  H    -69.851100   15.894600  -71.545700
  H    -68.484100   16.284100  -70.475900
  H    -70.027700   16.073600  -69.841200
  H    -69.515100   12.117400  -77.104900
  H    -69.496800    8.709220  -69.644000

 Total Charge           Charge          ....    0
 Multiplicity           Mult            ....    1
 Number of Electrons    NEL             ....  134
 Basis Dimension        Dim             ....  322

ORBITAL ENERGIES
----------------

  NO   OCC          E(Eh)            E(eV)
   0   2.0000     -88.968211     -2420.9481
   1   2.0000     -88.960834     -2420.7474
   2   2.0000     -10.334093      -281.2050
   3   2.0000     -10.328199      -281.0446
   4   2.0000     -10.319202      -280.7998
   5   2.0000     -10.318160      -280.7714
   6   2.0000     -10.306806      -280.4624
   7   2.0000     -10.300673      -280.2956
   8   2.0000     -10.298437      -280.2347
   9   2.0000     -10.296292      -280.1764
  10   2.0000     -10.291915      -280.0573
  11   2.0000     -10.291358      -280.0421
  12   2.0000     -10.285646      -279.8866
  13   2.0000     -10.285274      -279.8765
  14   2.0000     -10.282733      -279.8074
  15   2.0000     -10.276991      -279.6511
  16   2.0000      -8.082938      -219.9479
  17   2.0000      -8.075347      -219.7414
  18   2.0000      -6.041468      -164.3967
  19   2.0000      -6.037585      -164.2910
  20   2.0000      -6.034008      -164.1937
  21   2.0000      -6.033516      -164.1803
  22   2.0000      -6.029886      -164.0815
  23   2.0000      -6.025963      -163.9748
  24   2.0000      -1.013080       -27.5673
  25   2.0000      -0.987149       -26.8617
  26   2.0000      -0.918163       -24.9845
  27   2.0000      -0.901908       -24.5422
  28   2.0000      -0.874785       -23.8041
  29   2.0000      -0.849771       -23.1234
  30   2.0000      -0.842510       -22.9259
  31   2.0000      -0.814863       -22.1736
  32   2.0000      -0.786530       -21.4026
  33   2.0000      -0.775842       -21.1117
  34   2.0000      -0.714903       -19.4535
  35   2.0000      -0.702645       -19.1199
  36   2.0000      -0.693740       -18.8776
  37   2.0000      -0.663788       -18.0626
  38   2.0000      -0.638492       -17.3743
  39   2.0000      -0.627159       -17.0659
  40   2.0000      -0.592049       -16.1105
  41   2.0000      -0.572277       -15.5724
  42   2.0000      -0.566610       -15.4182
  43   2.0000      -0.558830       -15.2065
  44   2.0000      -0.545874       -14.8540
  45   2.0000      -0.526977       -14.3398
  46   2.0000      -0.522958       -14.2304
  47   2.0000      -0.510402       -13.8887
  48   2.0000      -0.503005       -13.6875
  49   2.0000      -0.499003       -13.5786
  50   2.0000      -0.491077       -13.3629
  51   2.0000      -0.485881       -13.2215
  52   2.0000      -0.473436       -12.8829
  53   2.0000      -0.467574       -12.7233
  54   2.0000      -0.458850       -12.4859
  55   2.0000      -0.444191       -12.0871
  56   2.0000      -0.441363       -12.0101
  57   2.0000      -0.434436       -11.8216
  58   2.0000      -0.428970       -11.6729
  59   2.0000      -0.428195       -11.6518
  60   2.0000      -0.423462       -11.5230
  61   2.0000      -0.416260       -11.3270
  62   2.0000      -0.406583       -11.0637
  63   2.0000      -0.363881        -9.9017
  64   2.0000      -0.337116        -9.1734
  65   2.0000      -0.329196        -8.9579
  66   2.0000      -0.279347        -7.6014
  67   0.0000       0.011856         0.3226
  68   0.0000       0.084455         2.2981
  69   0.0000       0.096515         2.6263
  70   0.0000       0.116770         3.1775
  71   0.0000       0.128446         3.4952

MULLIKEN ATOMIC CHARGES
-----------------------
   0 S :    0.109714
   1 C :   -0.166341
   2 C :   -0.060460
   3 C :   -0.004009
   4 C :   -0.094896
   5 H :   -0.038439
   6 C :    0.107616
   7 H :    0.032173
   8 H :    0.023339
   9 C :   -0.092680
  10 H :    0.031688
  11 H :    0.031819
  12 C :   -0.074909
  13 H :    0.041707
  14 H :    0.059331
  15 H :    0.026201
  16 S :    0.062488
  17 C :   -0.098363
  18 C :   -0.019913
  19 C :   -0.087017
  20 C :   -0.096969
  21 H :    0.016214
  22 C :    0.086991
  23 H :    0.013446
  24 H :    0.022307
  25 C :   -0.050856
  26 H :    0.047713
  27 H :    0.031837
  28 C :   -0.071018
  29 H :    0.031918
  30 H :    0.037585
  31 H :    0.018337
  32 H :    0.054151
  33 H :    0.069294
Sum of atomic charges:   -0.0000000

LOEWDIN ATOMIC CHARGES
----------------------
   0 S :    0.402808
   1 C :   -0.178351
   2 C :   -0.062343
   3 C :   -0.070095
   4 C :   -0.205496
   5 H :    0.018454
   6 C :   -0.021263
   7 H :    0.036487
   8 H :    0.028745
   9 C :   -0.039451
  10 H :    0.018720
  11 H :    0.025134
  12 C :   -0.080961
  13 H :    0.032365
  14 H :    0.035609
  15 H :    0.027050
  16 S :    0.374726
  17 C :   -0.173725
  18 C :   -0.072529
  19 C :   -0.056331
  20 C :   -0.177609
  21 H :    0.031549
  22 C :   -0.027085
  23 H :    0.027192
  24 H :    0.025269
  25 C :   -0.031541
  26 H :    0.029417
  27 H :    0.023541
  28 C :   -0.072725
  29 H :    0.024625
  30 H :    0.028855
  31 H :    0.015557
  32 H :    0.028836
  33 H :    0.034566

  Mayer bond orders larger than 0.100000
B(  0-S ,  1-C ) :   1.1388 B(  0-S ,  4-C ) :   1.1358 B(  1-C ,  2-C ) :   1.5652
B(  1-C , 32-H ) :   0.9625 B(  2-C ,  3-C ) :   1.2868 B(  2-C ,  6-C ) :   1.0258
B(  3-C ,  4-C ) :   1.5336 B(  3-C ,  5-H ) :   0.9929 B(  4-C , 20-C ) :   1.1182
B(  6-C ,  7-H ) :   0.9441 B(  6-C ,  8-H ) :   0.9290 B(  6-C ,  9-C ) :   1.0759
B(  9-C , 10-H ) :   0.9606 B(  9-C , 11-H ) :   0.9618 B(  9-C , 12-C ) :   1.0590
B( 12-C , 13-H ) :   0.9769 B( 12-C , 14-H ) :   0.9753 B( 12-C , 15-H ) :   0.9766
B( 16-S , 17-C ) :   1.1438 B( 16-S , 20-C ) :   1.1221 B( 17-C , 18-C ) :   1.6166
B( 17-C , 33-H ) :   0.9651 B( 18-C , 19-C ) :   1.2488 B( 18-C , 21-H ) :   0.9929
B( 19-C , 20-C ) :   1.5598 B( 19-C , 22-C ) :   1.0334 B( 22-C , 23-H ) :   0.9329
B( 22-C , 24-H ) :   0.9383 B( 22-C , 25-C ) :   1.0433 B( 25-C , 26-H ) :   0.9668
B( 25-C , 27-H ) :   0.9567 B( 25-C , 28-C ) :   1.0700 B( 28-C , 29-H ) :   0.9787
B( 28-C , 30-H ) :   0.9761 B( 28-C , 31-H ) :   0.9751

Dispersion correction           -0.014950227
FINAL SINGLE POINT ENERGY     -1339.859662249981

DIPOLE MOMENT
-------------
                                X             Y             Z
Electronic contribution:      1.97653     -30.86430      -2.08891
Nuclear contribution   :     -1.83355      31.64795       2.42151
                        -----------------------------------------
Total Dipole Moment    :      0.14298       0.78365       0.33260
                        -----------------------------------------
Magnitude (a.u.)       :      0.86323
Magnitude (Debye)      :      2.19417

Rotational constants in cm-1:     0.017618     0.010314     0.006989
Rotational constants in MHz :   528.181720   309.191576   209.516407

                             ****ORCA TERMINATED NORMALLY****
TOTAL RUN TIME: 0 days 0 hours 0 minutes 22 seconds 906 msec
