                         Program Version 4.2.1 -  RELEASE  -
|  1> ! wB97X-D3 SP def2-SVP
|  2> %pal
|  3> nprocs 24
|  4> end
|  5>
|  6> * xyz 0 1
|  7> S 	 -47.577 	 16.376 	 25.2351
|  8> C 	 -47.5595 	 17.5998 	 26.48
|  9> C 	 -48.0774 	 18.7687 	 26.0743
| 10> C 	 -48.343 	 18.7407 	 24.6786
| 11> C 	 -48.217 	 17.4792 	 24.1022
| 12> H 	 -48.6779 	 19.5861 	 24.2251
| 13> C 	 -48.2358 	 19.959 	 26.9441
| 14> H 	 -48.4061 	 19.7678 	 27.9921
| 15> H 	 -49.1591 	 20.3882 	 26.584
| 16> C 	 -46.9954 	 20.8069 	 26.855
| 17> H 	 -46.8426 	 21.1829 	 25.9128
| 18> H 	 -47.0258 	 21.5982 	 27.602
| 19> C 	 -45.6389 	 20.1916 	 27.1672
| 20> H 	 -45.5831 	 19.8653 	 28.1653
| 21> H 	 -45.4516 	 19.3931 	 26.4129
| 22> H 	 -44.7675 	 20.8914 	 27.0167
| 23> S 	 -50.3219 	 16.3247 	 22.6967
| 24> C 	 -50.2061 	 16.2103 	 20.9247
| 25> C 	 -48.9538 	 16.684 	 20.5204
| 26> C 	 -48.1593 	 17.1889 	 21.5841
| 27> C 	 -48.7445 	 17.0164 	 22.7921
| 28> H 	 -48.7285 	 16.5908 	 19.4309
| 29> C 	 -46.807 	 17.8132 	 21.3025
| 30> H 	 -46.7509 	 18.627 	 21.9848
| 31> H 	 -46.7206 	 18.4001 	 20.3874
| 32> C 	 -45.571 	 16.8662 	 21.4976
| 33> H 	 -45.5982 	 16.1456 	 20.659
| 34> H 	 -45.7174 	 16.2701 	 22.4225
| 35> C 	 -44.2402 	 17.6277 	 21.4584
| 36> H 	 -44.3257 	 18.5016 	 20.8283
| 37> H 	 -43.3623 	 17.0243 	 21.0985
| 38> H 	 -43.9372 	 18.0913 	 22.3855
| 39> H 	 -47.2204 	 17.3096 	 27.4702
| 40> H 	 -50.9354 	 15.5627 	 20.3698
| 41> *
| 42>
| 43>                          ****END OF INPUT****

CARTESIAN COORDINATES (ANGSTROEM)
---------------------------------
  S    -47.577000   16.376000   25.235100
  C    -47.559500   17.599800   26.480000
  C    -48.077400   18.768700   26.074300
  C    -48.343000   18.740700   24.678600
  C    -48.217000   17.479200   24.102200
  H    -48.677900   19.586100   24.225100
  C    -48.235800   19.959000   26.944100
  H    -48.406100   19.767800   27.992100
  H    -49.159100   20.388200   26.584000
  C    -46.995400   20.806900   26.855000
  H    -46.842600   21.182900   25.912800
  H    -47.025800   21.598200   27.602000
  C    -45.638900   20.191600   27.167200
  H    -45.583100   19.865300   28.165300
  H    -45.451600   19.393100   26.412900
  H    -44.767500   20.891400   27.016700
  S    -50.321900   16.324700   22.696700
  C    -50.206100   16.210300   20.924700
  C    -48.953800   16.684000   20.520400
  C    -48.159300   17.188900   21.584100
  C    -48.744500   17.016400   22.792100
  H    -48.728500   16.590800   19.430900
  C    -46.807000   17.813200   21.302500
  H    -46.750900   18.627000   21.984800
  H    -46.720600   18.400100   20.387400
  C    -45.571000   16.866200   21.497600
  H    -45.598200   16.145600   20.659000
  H    -45.717400   16.270100   22.422500
  C    -44.240200   17.627700   21.458400
  H    -44.325700   18.501600   20.828300
  H    -43.362300   17.024300   21.098500
  H    -43.937200   18.091300   22.385500
  H    -47.220400   17.309600   27.470200
  H    -50.935400   15.562700   20.369800

 Total Charge           Charge          ....    0
 Multiplicity           Mult            ....    1
 Number of Electrons    NEL             ....  134
 Basis Dimension        Dim             ....  322

ORBITAL ENERGIES
----------------

  NO   OCC          E(Eh)            E(eV)
   0   2.0000     -88.963756     -2420.8269
   1   2.0000     -88.963433     -2420.8181
   2   2.0000     -10.327453      -281.0243
   3   2.0000     -10.322695      -280.8948
   4   2.0000     -10.322377      -280.8862
   5   2.0000     -10.306980      -280.4672
   6   2.0000     -10.298646      -280.2404
   7   2.0000     -10.297809      -280.2176
   8   2.0000     -10.292023      -280.0602
   9   2.0000     -10.289420      -279.9893
  10   2.0000     -10.288922      -279.9758
  11   2.0000     -10.287809      -279.9455
  12   2.0000     -10.286650      -279.9140
  13   2.0000     -10.276627      -279.6412
  14   2.0000     -10.276611      -279.6408
  15   2.0000     -10.275625      -279.6140
  16   2.0000      -8.079199      -219.8462
  17   2.0000      -8.078646      -219.8311
  18   2.0000      -6.037519      -164.2892
  19   2.0000      -6.037125      -164.2785
  20   2.0000      -6.033441      -164.1783
  21   2.0000      -6.033109      -164.1693
  22   2.0000      -6.030240      -164.0912
  23   2.0000      -6.029441      -164.0694
  24   2.0000      -1.012171       -27.5426
  25   2.0000      -0.989755       -26.9326
  26   2.0000      -0.924142       -25.1472
  27   2.0000      -0.901543       -24.5322
  28   2.0000      -0.866386       -23.5756
  29   2.0000      -0.850685       -23.1483
  30   2.0000      -0.847553       -23.0631
  31   2.0000      -0.813619       -22.1397
  32   2.0000      -0.788855       -21.4658
  33   2.0000      -0.773193       -21.0396
  34   2.0000      -0.705324       -19.1928
  35   2.0000      -0.697949       -18.9922
  36   2.0000      -0.691017       -18.8035
  37   2.0000      -0.660083       -17.9618
  38   2.0000      -0.648650       -17.6507
  39   2.0000      -0.629376       -17.1262
  40   2.0000      -0.597628       -16.2623
  41   2.0000      -0.575042       -15.6477
  42   2.0000      -0.561377       -15.2759
  43   2.0000      -0.554689       -15.0939
  44   2.0000      -0.543605       -14.7922
  45   2.0000      -0.521589       -14.1932
  46   2.0000      -0.515362       -14.0237
  47   2.0000      -0.510137       -13.8815
  48   2.0000      -0.504969       -13.7409
  49   2.0000      -0.496167       -13.5014
  50   2.0000      -0.493206       -13.4208
  51   2.0000      -0.475590       -12.9414
  52   2.0000      -0.471032       -12.8174
  53   2.0000      -0.463935       -12.6243
  54   2.0000      -0.459543       -12.5048
  55   2.0000      -0.452781       -12.3208
  56   2.0000      -0.439829       -11.9684
  57   2.0000      -0.437335       -11.9005
  58   2.0000      -0.432828       -11.7779
  59   2.0000      -0.431317       -11.7367
  60   2.0000      -0.424032       -11.5385
  61   2.0000      -0.411207       -11.1895
  62   2.0000      -0.399451       -10.8696
  63   2.0000      -0.337178        -9.1751
  64   2.0000      -0.329390        -8.9632
  65   2.0000      -0.323909        -8.8140
  66   2.0000      -0.311528        -8.4771
  67   0.0000       0.045920         1.2495
  68   0.0000       0.058094         1.5808
  69   0.0000       0.120413         3.2766
  70   0.0000       0.124159         3.3785
  71   0.0000       0.127804         3.4777

MULLIKEN ATOMIC CHARGES
-----------------------
   0 S :    0.116684
   1 C :   -0.141024
   2 C :   -0.113602
   3 C :    0.095555
   4 C :   -0.181137
   5 H :   -0.037478
   6 C :    0.127284
   7 H :    0.016862
   8 H :    0.024525
   9 C :   -0.035518
  10 H :    0.005761
  11 H :    0.024433
  12 C :   -0.082706
  13 H :    0.018927
  14 H :    0.047552
  15 H :    0.038395
  16 S :    0.112249
  17 C :   -0.138138
  18 C :   -0.043749
  19 C :   -0.020064
  20 C :   -0.156069
  21 H :    0.038129
  22 C :    0.085820
  23 H :    0.001962
  24 H :    0.017868
  25 C :   -0.056662
  26 H :    0.028538
  27 H :    0.034773
  28 C :   -0.046577
  29 H :    0.016964
  30 H :    0.043188
  31 H :    0.028789
  32 H :    0.045038
  33 H :    0.083427
Sum of atomic charges:   -0.0000000

LOEWDIN ATOMIC CHARGES
----------------------
   0 S :    0.427388
   1 C :   -0.190434
   2 C :   -0.066405
   3 C :   -0.047034
   4 C :   -0.205506
   5 H :    0.012148
   6 C :   -0.025479
   7 H :    0.031114
   8 H :    0.034678
   9 C :   -0.034700
  10 H :    0.012735
  11 H :    0.024332
  12 C :   -0.063887
  13 H :    0.012028
  14 H :    0.028083
  15 H :    0.033791
  16 S :    0.406087
  17 C :   -0.190763
  18 C :   -0.071560
  19 C :   -0.060868
  20 C :   -0.210291
  21 H :    0.040308
  22 C :   -0.034103
  23 H :    0.023823
  24 H :    0.029935
  25 C :   -0.036413
  26 H :    0.024727
  27 H :    0.025383
  28 C :   -0.072325
  29 H :    0.022031
  30 H :    0.033346
  31 H :    0.024444
  32 H :    0.023958
  33 H :    0.039432

  Mayer bond orders larger than 0.100000
B(  0-S ,  1-C ) :   1.1453 B(  0-S ,  4-C ) :   1.1846 B(  1-C ,  2-C ) :   1.6022
B(  1-C , 32-H ) :   0.9714 B(  2-C ,  3-C ) :   1.2610 B(  2-C ,  6-C ) :   1.0209
B(  3-C ,  4-C ) :   1.5512 B(  3-C ,  5-H ) :   1.0119 B(  4-C , 20-C ) :   0.9801
B(  6-C ,  7-H ) :   0.9400 B(  6-C ,  8-H ) :   0.9319 B(  6-C ,  9-C ) :   1.0701
B(  9-C , 10-H ) :   0.9556 B(  9-C , 11-H ) :   0.9562 B(  9-C , 12-C ) :   1.0863
B( 12-C , 13-H ) :   0.9752 B( 12-C , 14-H ) :   0.9680 B( 12-C , 15-H ) :   0.9722
B( 16-S , 17-C ) :   1.1522 B( 16-S , 20-C ) :   1.1574 B( 17-C , 18-C ) :   1.6048
B( 17-C , 33-H ) :   0.9605 B( 18-C , 19-C ) :   1.2402 B( 18-C , 21-H ) :   0.9862
B( 19-C , 20-C ) :   1.6219 B( 19-C , 22-C ) :   1.0353 B( 22-C , 23-H ) :   0.9218
B( 22-C , 24-H ) :   0.9343 B( 22-C , 25-C ) :   1.0572 B( 25-C , 26-H ) :   0.9587
B( 25-C , 27-H ) :   0.9577 B( 25-C , 28-C ) :   1.0697 B( 28-C , 29-H ) :   0.9725
B( 28-C , 30-H ) :   0.9757 B( 28-C , 31-H ) :   0.9748

Dispersion correction           -0.014948295
FINAL SINGLE POINT ENERGY     -1339.871969683031

DIPOLE MOMENT
-------------
                                X             Y             Z
Electronic contribution:    -20.45029     -15.75564      -2.14195
Nuclear contribution   :     20.67825      16.18066       2.15413
                        -----------------------------------------
Total Dipole Moment    :      0.22796       0.42503       0.01217
                        -----------------------------------------
Magnitude (a.u.)       :      0.48245
Magnitude (Debye)      :      1.22630

Rotational constants in cm-1:     0.019049     0.009131     0.007264
Rotational constants in MHz :   571.068980   273.732955   217.770144

                             ****ORCA TERMINATED NORMALLY****
TOTAL RUN TIME: 0 days 0 hours 0 minutes 22 seconds 179 msec
