                         Program Version 4.2.1 -  RELEASE  -
|  1> ! wB97X-D3 SP def2-SVP
|  2> %pal
|  3> nprocs 24
|  4> end
|  5>
|  6> * xyz 0 1
|  7> S 	 -49.584 	 15.8475 	 26.7789
|  8> C 	 -49.7961 	 15.9538 	 24.9807
|  9> C 	 -48.6138 	 15.9378 	 24.3636
| 10> C 	 -47.4717 	 15.9102 	 25.2946
| 11> C 	 -47.8353 	 16.1207 	 26.6235
| 12> H 	 -46.4165 	 15.9491 	 24.9658
| 13> C 	 -48.3654 	 16.0188 	 22.8534
| 14> H 	 -49.3096 	 16.1783 	 22.3631
| 15> H 	 -47.8602 	 15.1415 	 22.4612
| 16> C 	 -47.5637 	 17.2462 	 22.3223
| 17> H 	 -46.8073 	 17.3363 	 23.0583
| 18> H 	 -46.9415 	 17.0484 	 21.4156
| 19> C 	 -48.2065 	 18.6057 	 22.2563
| 20> H 	 -48.9216 	 18.6502 	 21.3571
| 21> H 	 -48.8775 	 18.7768 	 23.1198
| 22> H 	 -47.4664 	 19.4311 	 22.1397
| 23> S 	 -47.1279 	 15.1456 	 29.125
| 24> C 	 -45.6674 	 15.8133 	 29.8131
| 25> C 	 -45.2471 	 16.9587 	 29.1812
| 26> C 	 -45.9472 	 17.2562 	 28.0109
| 27> C 	 -46.9242 	 16.2957 	 27.7587
| 28> H 	 -44.3875 	 17.492 	 29.6362
| 29> C 	 -45.491 	 18.3461 	 26.9786
| 30> H 	 -45.292 	 17.8155 	 26.026
| 31> H 	 -44.5124 	 18.9207 	 27.2728
| 32> C 	 -46.5491 	 19.4725 	 26.6868
| 33> H 	 -47.4162 	 19.1039 	 26.1205
| 34> H 	 -45.9663 	 20.2113 	 26.0337
| 35> C 	 -46.9249 	 20.2568 	 27.9338
| 36> H 	 -46.0617 	 20.8998 	 28.0751
| 37> H 	 -47.0756 	 19.5999 	 28.8309
| 38> H 	 -47.7399 	 20.9426 	 27.689
| 39> H 	 -50.7853 	 16.1046 	 24.4323
| 40> H 	 -45.2804 	 15.4563 	 30.7255
| 41> *
| 42>
| 43>                          ****END OF INPUT****

CARTESIAN COORDINATES (ANGSTROEM)
---------------------------------
  S    -49.584000   15.847500   26.778900
  C    -49.796100   15.953800   24.980700
  C    -48.613800   15.937800   24.363600
  C    -47.471700   15.910200   25.294600
  C    -47.835300   16.120700   26.623500
  H    -46.416500   15.949100   24.965800
  C    -48.365400   16.018800   22.853400
  H    -49.309600   16.178300   22.363100
  H    -47.860200   15.141500   22.461200
  C    -47.563700   17.246200   22.322300
  H    -46.807300   17.336300   23.058300
  H    -46.941500   17.048400   21.415600
  C    -48.206500   18.605700   22.256300
  H    -48.921600   18.650200   21.357100
  H    -48.877500   18.776800   23.119800
  H    -47.466400   19.431100   22.139700
  S    -47.127900   15.145600   29.125000
  C    -45.667400   15.813300   29.813100
  C    -45.247100   16.958700   29.181200
  C    -45.947200   17.256200   28.010900
  C    -46.924200   16.295700   27.758700
  H    -44.387500   17.492000   29.636200
  C    -45.491000   18.346100   26.978600
  H    -45.292000   17.815500   26.026000
  H    -44.512400   18.920700   27.272800
  C    -46.549100   19.472500   26.686800
  H    -47.416200   19.103900   26.120500
  H    -45.966300   20.211300   26.033700
  C    -46.924900   20.256800   27.933800
  H    -46.061700   20.899800   28.075100
  H    -47.075600   19.599900   28.830900
  H    -47.739900   20.942600   27.689000
  H    -50.785300   16.104600   24.432300
  H    -45.280400   15.456300   30.725500

 Total Charge           Charge          ....    0
 Multiplicity           Mult            ....    1
 Number of Electrons    NEL             ....  134
 Basis Dimension        Dim             ....  322

ORBITAL ENERGIES
----------------

  NO   OCC          E(Eh)            E(eV)
   0   2.0000     -88.969046     -2420.9708
   1   2.0000     -88.964533     -2420.8480
   2   2.0000     -10.337168      -281.2886
   3   2.0000     -10.333337      -281.1844
   4   2.0000     -10.322206      -280.8815
   5   2.0000     -10.315781      -280.7067
   6   2.0000     -10.310979      -280.5760
   7   2.0000     -10.309599      -280.5385
   8   2.0000     -10.304798      -280.4078
   9   2.0000     -10.301509      -280.3183
  10   2.0000     -10.296260      -280.1755
  11   2.0000     -10.295863      -280.1647
  12   2.0000     -10.289837      -280.0007
  13   2.0000     -10.287183      -279.9285
  14   2.0000     -10.284493      -279.8553
  15   2.0000     -10.274730      -279.5896
  16   2.0000      -8.083398      -219.9604
  17   2.0000      -8.078257      -219.8206
  18   2.0000      -6.041766      -164.4048
  19   2.0000      -6.038135      -164.3060
  20   2.0000      -6.037171      -164.2798
  21   2.0000      -6.034144      -164.1974
  22   2.0000      -6.033148      -164.1703
  23   2.0000      -6.028381      -164.0406
  24   2.0000      -1.003528       -27.3074
  25   2.0000      -0.981167       -26.6989
  26   2.0000      -0.910435       -24.7742
  27   2.0000      -0.901204       -24.5230
  28   2.0000      -0.870261       -23.6810
  29   2.0000      -0.851738       -23.1770
  30   2.0000      -0.838285       -22.8109
  31   2.0000      -0.811350       -22.0780
  32   2.0000      -0.783039       -21.3076
  33   2.0000      -0.774294       -21.0696
  34   2.0000      -0.710039       -19.3211
  35   2.0000      -0.691750       -18.8235
  36   2.0000      -0.679140       -18.4803
  37   2.0000      -0.660287       -17.9673
  38   2.0000      -0.633214       -17.2306
  39   2.0000      -0.617942       -16.8150
  40   2.0000      -0.592339       -16.1184
  41   2.0000      -0.566580       -15.4174
  42   2.0000      -0.557148       -15.1608
  43   2.0000      -0.550754       -14.9868
  44   2.0000      -0.545340       -14.8395
  45   2.0000      -0.534689       -14.5496
  46   2.0000      -0.513507       -13.9732
  47   2.0000      -0.507898       -13.8206
  48   2.0000      -0.499937       -13.6040
  49   2.0000      -0.492060       -13.3896
  50   2.0000      -0.486204       -13.2303
  51   2.0000      -0.480744       -13.0817
  52   2.0000      -0.471646       -12.8342
  53   2.0000      -0.468784       -12.7563
  54   2.0000      -0.456349       -12.4179
  55   2.0000      -0.445320       -12.1178
  56   2.0000      -0.441300       -12.0084
  57   2.0000      -0.437017       -11.8918
  58   2.0000      -0.431159       -11.7324
  59   2.0000      -0.421413       -11.4672
  60   2.0000      -0.420762       -11.4495
  61   2.0000      -0.412125       -11.2145
  62   2.0000      -0.400025       -10.8852
  63   2.0000      -0.347495        -9.4558
  64   2.0000      -0.338454        -9.2098
  65   2.0000      -0.328433        -8.9371
  66   2.0000      -0.294048        -8.0014
  67   0.0000       0.024009         0.6533
  68   0.0000       0.059362         1.6153
  69   0.0000       0.095457         2.5975
  70   0.0000       0.117252         3.1906
  71   0.0000       0.121558         3.3078

MULLIKEN ATOMIC CHARGES
-----------------------
   0 S :    0.083124
   1 C :   -0.152120
   2 C :   -0.075737
   3 C :    0.019817
   4 C :   -0.138668
   5 H :    0.034326
   6 C :    0.092295
   7 H :    0.007225
   8 H :    0.042824
   9 C :   -0.077719
  10 H :   -0.003325
  11 H :    0.032302
  12 C :   -0.082638
  13 H :    0.032285
  14 H :    0.041223
  15 H :    0.049195
  16 S :    0.104821
  17 C :   -0.072581
  18 C :   -0.056262
  19 C :    0.013591
  20 C :   -0.175880
  21 H :    0.032068
  22 C :    0.013169
  23 H :    0.040597
  24 H :    0.041266
  25 C :   -0.115967
  26 H :    0.053542
  27 H :    0.034059
  28 C :   -0.046889
  29 H :    0.016277
  30 H :    0.060281
  31 H :    0.039675
  32 H :    0.075193
  33 H :    0.038630
Sum of atomic charges:   -0.0000000

LOEWDIN ATOMIC CHARGES
----------------------
   0 S :    0.352315
   1 C :   -0.183939
   2 C :   -0.068045
   3 C :   -0.064730
   4 C :   -0.177830
   5 H :    0.032628
   6 C :   -0.024117
   7 H :    0.024211
   8 H :    0.037976
   9 C :   -0.054533
  10 H :    0.012628
  11 H :    0.030017
  12 C :   -0.073880
  13 H :    0.027005
  14 H :    0.028203
  15 H :    0.033522
  16 S :    0.389812
  17 C :   -0.171082
  18 C :   -0.076353
  19 C :   -0.056286
  20 C :   -0.180406
  21 H :    0.040551
  22 C :   -0.034195
  23 H :    0.032485
  24 H :    0.040027
  25 C :   -0.048025
  26 H :    0.022462
  27 H :    0.029531
  28 C :   -0.071614
  29 H :    0.022729
  30 H :    0.033066
  31 H :    0.029397
  32 H :    0.048622
  33 H :    0.017849

  Mayer bond orders larger than 0.100000
B(  0-S ,  1-C ) :   1.0908 B(  0-S ,  4-C ) :   1.1176 B(  1-C ,  2-C ) :   1.6993
B(  1-C , 32-H ) :   0.9527 B(  2-C ,  3-C ) :   1.1688 B(  2-C ,  6-C ) :   1.0316
B(  3-C ,  4-C ) :   1.6194 B(  3-C ,  5-H ) :   0.9810 B(  4-C , 20-C ) :   1.0529
B(  6-C ,  7-H ) :   0.9470 B(  6-C ,  8-H ) :   0.9369 B(  6-C ,  9-C ) :   1.0551
B(  9-C , 10-H ) :   0.9526 B(  9-C , 11-H ) :   0.9533 B(  9-C , 12-C ) :   1.0821
B( 12-C , 13-H ) :   0.9722 B( 12-C , 14-H ) :   0.9737 B( 12-C , 15-H ) :   0.9725
B( 16-S , 17-C ) :   1.1545 B( 16-S , 20-C ) :   1.1383 B( 17-C , 18-C ) :   1.6173
B( 17-C , 20-C ) :   0.1095 B( 17-C , 33-H ) :   0.9723 B( 18-C , 19-C ) :   1.2363
B( 18-C , 21-H ) :   0.9872 B( 19-C , 20-C ) :   1.5909 B( 19-C , 22-C ) :   1.0097
B( 22-C , 23-H ) :   0.9423 B( 22-C , 24-H ) :   0.9490 B( 22-C , 25-C ) :   1.0629
B( 25-C , 26-H ) :   0.9581 B( 25-C , 27-H ) :   0.9617 B( 25-C , 28-C ) :   1.0623
B( 28-C , 29-H ) :   0.9764 B( 28-C , 30-H ) :   0.9751 B( 28-C , 31-H ) :   0.9730

Dispersion correction           -0.015450789
FINAL SINGLE POINT ENERGY     -1339.861994580870

DIPOLE MOMENT
-------------
                                X             Y             Z
Electronic contribution:     -6.55954     -20.98586      19.66632
Nuclear contribution   :      7.04992      21.38488     -20.06457
                        -----------------------------------------
Total Dipole Moment    :      0.49038       0.39903      -0.39825
                        -----------------------------------------
Magnitude (a.u.)       :      0.74719
Magnitude (Debye)      :      1.89922

Rotational constants in cm-1:     0.019066     0.009664     0.007586
Rotational constants in MHz :   571.584576   289.724276   227.427734

                             ****ORCA TERMINATED NORMALLY****
TOTAL RUN TIME: 0 days 0 hours 0 minutes 22 seconds 641 msec
