                         Program Version 4.2.1 -  RELEASE  -
|  1> ! wB97X-D3 SP def2-SVP
|  2> %pal
|  3> nprocs 24
|  4> end
|  5>
|  6> * xyz 0 1
|  7> S 	 -101.317 	 -5.62808 	 -108.094
|  8> C 	 -102.803 	 -5.1625 	 -107.266
|  9> C 	 -102.498 	 -4.75912 	 -105.991
| 10> C 	 -101.119 	 -4.58449 	 -105.761
| 11> C 	 -100.351 	 -4.73057 	 -106.874
| 12> H 	 -100.648 	 -4.29113 	 -104.86
| 13> C 	 -103.506 	 -4.574 	 -104.839
| 14> H 	 -104.318 	 -4.01297 	 -105.164
| 15> H 	 -102.993 	 -3.93698 	 -104.13
| 16> C 	 -104.07 	 -5.82232 	 -104.093
| 17> H 	 -104.585 	 -6.44108 	 -104.828
| 18> H 	 -103.393 	 -6.47991 	 -103.541
| 19> C 	 -105.084 	 -5.3081 	 -103.043
| 20> H 	 -105.528 	 -6.15747 	 -102.465
| 21> H 	 -104.503 	 -4.70126 	 -102.361
| 22> H 	 -105.819 	 -4.64744 	 -103.436
| 23> S 	 -97.869 	 -6.10865 	 -106.831
| 24> C 	 -96.4262 	 -5.11252 	 -106.693
| 25> C 	 -96.756 	 -3.78489 	 -106.652
| 26> C 	 -98.1053 	 -3.54318 	 -106.844
| 27> C 	 -98.9179 	 -4.67385 	 -106.922
| 28> H 	 -95.9555 	 -3.11779 	 -106.426
| 29> C 	 -98.4921 	 -2.08238 	 -106.841
| 30> H 	 -99.4211 	 -2.03882 	 -107.451
| 31> H 	 -97.7265 	 -1.59311 	 -107.382
| 32> C 	 -98.6705 	 -1.43394 	 -105.443
| 33> H 	 -97.9942 	 -0.543966 	 -105.293
| 34> H 	 -98.2128 	 -2.08959 	 -104.721
| 35> C 	 -100.1 	 -1.0399 	 -105.094
| 36> H 	 -100.531 	 -0.501702 	 -105.887
| 37> H 	 -100.099 	 -0.39799 	 -104.194
| 38> H 	 -100.783 	 -1.91408 	 -105.02
| 39> H 	 -103.83 	 -5.33317 	 -107.601
| 40> H 	 -95.4587 	 -5.5164 	 -106.52
| 41> *
| 42>
| 43>                          ****END OF INPUT****

CARTESIAN COORDINATES (ANGSTROEM)
---------------------------------
  S    -101.317000   -5.628080  -108.094000
  C    -102.803000   -5.162500  -107.266000
  C    -102.498000   -4.759120  -105.991000
  C    -101.119000   -4.584490  -105.761000
  C    -100.351000   -4.730570  -106.874000
  H    -100.648000   -4.291130  -104.860000
  C    -103.506000   -4.574000  -104.839000
  H    -104.318000   -4.012970  -105.164000
  H    -102.993000   -3.936980  -104.130000
  C    -104.070000   -5.822320  -104.093000
  H    -104.585000   -6.441080  -104.828000
  H    -103.393000   -6.479910  -103.541000
  C    -105.084000   -5.308100  -103.043000
  H    -105.528000   -6.157470  -102.465000
  H    -104.503000   -4.701260  -102.361000
  H    -105.819000   -4.647440  -103.436000
  S    -97.869000   -6.108650  -106.831000
  C    -96.426200   -5.112520  -106.693000
  C    -96.756000   -3.784890  -106.652000
  C    -98.105300   -3.543180  -106.844000
  C    -98.917900   -4.673850  -106.922000
  H    -95.955500   -3.117790  -106.426000
  C    -98.492100   -2.082380  -106.841000
  H    -99.421100   -2.038820  -107.451000
  H    -97.726500   -1.593110  -107.382000
  C    -98.670500   -1.433940  -105.443000
  H    -97.994200   -0.543966  -105.293000
  H    -98.212800   -2.089590  -104.721000
  C    -100.100000   -1.039900  -105.094000
  H    -100.531000   -0.501702  -105.887000
  H    -100.099000   -0.397990  -104.194000
  H    -100.783000   -1.914080  -105.020000
  H    -103.830000   -5.333170  -107.601000
  H    -95.458700   -5.516400  -106.520000

 Total Charge           Charge          ....    0
 Multiplicity           Mult            ....    1
 Number of Electrons    NEL             ....  134
 Basis Dimension        Dim             ....  322

ORBITAL ENERGIES
----------------

  NO   OCC          E(Eh)            E(eV)
   0   2.0000     -88.964176     -2420.8383
   1   2.0000     -88.963577     -2420.8220
   2   2.0000     -10.327734      -281.0319
   3   2.0000     -10.325244      -280.9642
   4   2.0000     -10.317680      -280.7584
   5   2.0000     -10.314726      -280.6780
   6   2.0000     -10.299426      -280.2616
   7   2.0000     -10.296722      -280.1880
   8   2.0000     -10.291261      -280.0394
   9   2.0000     -10.290680      -280.0236
  10   2.0000     -10.290505      -280.0189
  11   2.0000     -10.286825      -279.9187
  12   2.0000     -10.285409      -279.8802
  13   2.0000     -10.284482      -279.8550
  14   2.0000     -10.278686      -279.6973
  15   2.0000     -10.275354      -279.6066
  16   2.0000      -8.078409      -219.8247
  17   2.0000      -8.077677      -219.8048
  18   2.0000      -6.036955      -164.2739
  19   2.0000      -6.036283      -164.2556
  20   2.0000      -6.032968      -164.1654
  21   2.0000      -6.032557      -164.1542
  22   2.0000      -6.029175      -164.0622
  23   2.0000      -6.028068      -164.0321
  24   2.0000      -1.007050       -27.4032
  25   2.0000      -0.986092       -26.8329
  26   2.0000      -0.909182       -24.7401
  27   2.0000      -0.905551       -24.6413
  28   2.0000      -0.874055       -23.7842
  29   2.0000      -0.850666       -23.1478
  30   2.0000      -0.848370       -23.0853
  31   2.0000      -0.816803       -22.2263
  32   2.0000      -0.780464       -21.2375
  33   2.0000      -0.769203       -20.9311
  34   2.0000      -0.710673       -19.3384
  35   2.0000      -0.704734       -19.1768
  36   2.0000      -0.698417       -19.0049
  37   2.0000      -0.660405       -17.9705
  38   2.0000      -0.646451       -17.5908
  39   2.0000      -0.622832       -16.9481
  40   2.0000      -0.595116       -16.1939
  41   2.0000      -0.569973       -15.5098
  42   2.0000      -0.565212       -15.3802
  43   2.0000      -0.554741       -15.0953
  44   2.0000      -0.529434       -14.4066
  45   2.0000      -0.523336       -14.2407
  46   2.0000      -0.518273       -14.1029
  47   2.0000      -0.513569       -13.9749
  48   2.0000      -0.507891       -13.8204
  49   2.0000      -0.503549       -13.7023
  50   2.0000      -0.491392       -13.3715
  51   2.0000      -0.482689       -13.1346
  52   2.0000      -0.469426       -12.7737
  53   2.0000      -0.466079       -12.6827
  54   2.0000      -0.459870       -12.5137
  55   2.0000      -0.449045       -12.2191
  56   2.0000      -0.443701       -12.0737
  57   2.0000      -0.440866       -11.9966
  58   2.0000      -0.430376       -11.7111
  59   2.0000      -0.424645       -11.5552
  60   2.0000      -0.423826       -11.5329
  61   2.0000      -0.416766       -11.3408
  62   2.0000      -0.404942       -11.0190
  63   2.0000      -0.341937        -9.3046
  64   2.0000      -0.329483        -8.9657
  65   2.0000      -0.325501        -8.8573
  66   2.0000      -0.299459        -8.1487
  67   0.0000       0.029107         0.7921
  68   0.0000       0.052103         1.4178
  69   0.0000       0.107212         2.9174
  70   0.0000       0.126806         3.4506
  71   0.0000       0.131339         3.5739

MULLIKEN ATOMIC CHARGES
-----------------------
   0 S :    0.090672
   1 C :   -0.104369
   2 C :   -0.078837
   3 C :    0.058092
   4 C :   -0.183478
   5 H :    0.009460
   6 C :    0.076843
   7 H :    0.007964
   8 H :    0.008854
   9 C :   -0.053560
  10 H :    0.024946
  11 H :    0.035058
  12 C :   -0.052263
  13 H :    0.046415
  14 H :    0.019101
  15 H :    0.023816
  16 S :    0.101290
  17 C :   -0.086378
  18 C :   -0.027713
  19 C :   -0.056382
  20 C :   -0.143685
  21 H :    0.012549
  22 C :    0.087289
  23 H :    0.035941
  24 H :    0.017318
  25 C :   -0.063001
  26 H :    0.023355
  27 H :    0.019187
  28 C :   -0.031363
  29 H :    0.019273
  30 H :    0.038977
  31 H :    0.027123
  32 H :    0.050534
  33 H :    0.046971
Sum of atomic charges:   -0.0000000

LOEWDIN ATOMIC CHARGES
----------------------
   0 S :    0.376450
   1 C :   -0.182234
   2 C :   -0.068778
   3 C :   -0.043732
   4 C :   -0.179478
   5 H :    0.028264
   6 C :   -0.024567
   7 H :    0.022754
   8 H :    0.025445
   9 C :   -0.033457
  10 H :    0.019882
  11 H :    0.026099
  12 C :   -0.063697
  13 H :    0.032404
  14 H :    0.021958
  15 H :    0.017394
  16 S :    0.389200
  17 C :   -0.167901
  18 C :   -0.075008
  19 C :   -0.055990
  20 C :   -0.202415
  21 H :    0.031417
  22 C :   -0.027641
  23 H :    0.035483
  24 H :    0.027581
  25 C :   -0.045288
  26 H :    0.028888
  27 H :    0.019335
  28 C :   -0.063967
  29 H :    0.018650
  30 H :    0.030177
  31 H :    0.026313
  32 H :    0.033223
  33 H :    0.023235

  Mayer bond orders larger than 0.100000
B(  0-S ,  1-C ) :   1.1336 B(  0-S ,  4-C ) :   1.1207 B(  1-C ,  2-C ) :   1.6157
B(  1-C ,  4-C ) :   0.1016 B(  1-C , 32-H ) :   0.9713 B(  2-C ,  3-C ) :   1.2345
B(  2-C ,  6-C ) :   1.0122 B(  3-C ,  4-C ) :   1.5916 B(  3-C ,  5-H ) :   0.9947
B(  4-C , 20-C ) :   1.0543 B(  6-C ,  7-H ) :   0.9388 B(  6-C ,  8-H ) :   0.9443
B(  6-C ,  9-C ) :   1.0593 B(  9-C , 10-H ) :   0.9567 B(  9-C , 11-H ) :   0.9594
B(  9-C , 12-C ) :   1.0731 B( 12-C , 13-H ) :   0.9736 B( 12-C , 14-H ) :   0.9757
B( 12-C , 15-H ) :   0.9761 B( 16-S , 17-C ) :   1.1617 B( 16-S , 20-C ) :   1.1269
B( 17-C , 18-C ) :   1.5990 B( 17-C , 20-C ) :   0.1015 B( 17-C , 33-H ) :   0.9693
B( 18-C , 19-C ) :   1.2496 B( 18-C , 21-H ) :   0.9997 B( 19-C , 20-C ) :   1.5861
B( 19-C , 22-C ) :   1.0516 B( 22-C , 23-H ) :   0.9392 B( 22-C , 24-H ) :   0.9330
B( 22-C , 25-C ) :   1.0356 B( 25-C , 26-H ) :   0.9537 B( 25-C , 27-H ) :   0.9606
B( 25-C , 28-C ) :   1.0844 B( 28-C , 29-H ) :   0.9742 B( 28-C , 30-H ) :   0.9718
B( 28-C , 31-H ) :   0.9687

Dispersion correction           -0.014742232
FINAL SINGLE POINT ENERGY     -1339.864327845253

DIPOLE MOMENT
-------------
                                X             Y             Z
Electronic contribution:     15.07074     -15.47306     -19.00107
Nuclear contribution   :    -15.18297      15.86475      19.61346
                        -----------------------------------------
Total Dipole Moment    :     -0.11223       0.39169       0.61239
                        -----------------------------------------
Magnitude (a.u.)       :      0.73555
Magnitude (Debye)      :      1.86963

Rotational constants in cm-1:     0.019252     0.008326     0.006905
Rotational constants in MHz :   577.161671   249.610060   207.008245

                             ****ORCA TERMINATED NORMALLY****
TOTAL RUN TIME: 0 days 0 hours 0 minutes 22 seconds 227 msec
