                         Program Version 4.2.1 -  RELEASE  -
|  1> ! wB97X-D3 SP def2-SVP
|  2> %pal
|  3> nprocs 24
|  4> end
|  5>
|  6> * xyz 0 1
|  7> S 	 -65.5542 	 7.08372 	 -76.0045
|  8> C 	 -66.0624 	 6.4589 	 -74.4346
|  9> C 	 -67.1891 	 5.66265 	 -74.6774
| 10> C 	 -67.8022 	 5.72715 	 -75.9619
| 11> C 	 -66.9961 	 6.37901 	 -76.8614
| 12> H 	 -68.8243 	 5.18912 	 -76.1632
| 13> C 	 -67.7307 	 4.72219 	 -73.6783
| 14> H 	 -68.8318 	 4.768 	 -73.588
| 15> H 	 -67.2628 	 4.977 	 -72.776
| 16> C 	 -67.4077 	 3.18773 	 -73.9712
| 17> H 	 -67.9551 	 2.61239 	 -73.1783
| 18> H 	 -67.8584 	 2.87408 	 -74.9567
| 19> C 	 -65.9046 	 2.87623 	 -74.0037
| 20> H 	 -65.4802 	 3.07359 	 -73.0258
| 21> H 	 -65.7169 	 1.83945 	 -74.0799
| 22> H 	 -65.2807 	 3.50844 	 -74.6475
| 23> S 	 -66.759 	 8.07133 	 -78.9763
| 24> C 	 -67.2061 	 7.43262 	 -80.563
| 25> C 	 -67.6397 	 6.09794 	 -80.5087
| 26> C 	 -67.6117 	 5.6087 	 -79.1972
| 27> C 	 -67.0728 	 6.50202 	 -78.3085
| 28> H 	 -67.8091 	 5.55178 	 -81.3738
| 29> C 	 -68.1079 	 4.1869 	 -78.9883
| 30> H 	 -69.1003 	 4.12145 	 -79.4474
| 31> H 	 -68.0582 	 3.88441 	 -77.9224
| 32> C 	 -67.2996 	 3.1316 	 -79.7018
| 33> H 	 -66.425 	 2.94043 	 -79.1903
| 34> H 	 -67.0593 	 3.409 	 -80.6681
| 35> C 	 -68.0229 	 1.77298 	 -79.9184
| 36> H 	 -67.5812 	 1.09886 	 -80.664
| 37> H 	 -69.0234 	 1.99944 	 -80.339
| 38> H 	 -68.1227 	 1.29196 	 -78.9724
| 39> H 	 -65.5369 	 6.6273 	 -73.4473
| 40> H 	 -66.9558 	 7.94804 	 -81.4267
| 41> *
| 42>
| 43>                          ****END OF INPUT****

CARTESIAN COORDINATES (ANGSTROEM)
---------------------------------
  S    -65.554200    7.083720  -76.004500
  C    -66.062400    6.458900  -74.434600
  C    -67.189100    5.662650  -74.677400
  C    -67.802200    5.727150  -75.961900
  C    -66.996100    6.379010  -76.861400
  H    -68.824300    5.189120  -76.163200
  C    -67.730700    4.722190  -73.678300
  H    -68.831800    4.768000  -73.588000
  H    -67.262800    4.977000  -72.776000
  C    -67.407700    3.187730  -73.971200
  H    -67.955100    2.612390  -73.178300
  H    -67.858400    2.874080  -74.956700
  C    -65.904600    2.876230  -74.003700
  H    -65.480200    3.073590  -73.025800
  H    -65.716900    1.839450  -74.079900
  H    -65.280700    3.508440  -74.647500
  S    -66.759000    8.071330  -78.976300
  C    -67.206100    7.432620  -80.563000
  C    -67.639700    6.097940  -80.508700
  C    -67.611700    5.608700  -79.197200
  C    -67.072800    6.502020  -78.308500
  H    -67.809100    5.551780  -81.373800
  C    -68.107900    4.186900  -78.988300
  H    -69.100300    4.121450  -79.447400
  H    -68.058200    3.884410  -77.922400
  C    -67.299600    3.131600  -79.701800
  H    -66.425000    2.940430  -79.190300
  H    -67.059300    3.409000  -80.668100
  C    -68.022900    1.772980  -79.918400
  H    -67.581200    1.098860  -80.664000
  H    -69.023400    1.999440  -80.339000
  H    -68.122700    1.291960  -78.972400
  H    -65.536900    6.627300  -73.447300
  H    -66.955800    7.948040  -81.426700

 Total Charge           Charge          ....    0
 Multiplicity           Mult            ....    1
 Number of Electrons    NEL             ....  134
 Basis Dimension        Dim             ....  322

ORBITAL ENERGIES
----------------

  NO   OCC          E(Eh)            E(eV)
   0   2.0000     -88.969370     -2420.9796
   1   2.0000     -88.962906     -2420.8038
   2   2.0000     -10.335620      -281.2465
   3   2.0000     -10.324743      -280.9506
   4   2.0000     -10.321797      -280.8704
   5   2.0000     -10.317569      -280.7553
   6   2.0000     -10.302112      -280.3347
   7   2.0000     -10.301852      -280.3276
   8   2.0000     -10.298001      -280.2228
   9   2.0000     -10.297671      -280.2139
  10   2.0000     -10.294339      -280.1232
  11   2.0000     -10.292152      -280.0637
  12   2.0000     -10.286005      -279.8964
  13   2.0000     -10.279211      -279.7115
  14   2.0000     -10.271725      -279.5078
  15   2.0000     -10.271484      -279.5013
  16   2.0000      -8.084116      -219.9800
  17   2.0000      -8.076474      -219.7720
  18   2.0000      -6.042552      -164.4262
  19   2.0000      -6.038700      -164.3214
  20   2.0000      -6.035241      -164.2272
  21   2.0000      -6.034880      -164.2174
  22   2.0000      -6.031110      -164.1149
  23   2.0000      -6.027054      -164.0045
  24   2.0000      -1.008289       -27.4369
  25   2.0000      -0.981921       -26.7194
  26   2.0000      -0.917598       -24.9691
  27   2.0000      -0.905201       -24.6318
  28   2.0000      -0.867130       -23.5958
  29   2.0000      -0.857549       -23.3351
  30   2.0000      -0.842333       -22.9210
  31   2.0000      -0.814980       -22.1767
  32   2.0000      -0.783629       -21.3236
  33   2.0000      -0.768667       -20.9165
  34   2.0000      -0.709945       -19.3186
  35   2.0000      -0.700190       -19.0532
  36   2.0000      -0.693587       -18.8735
  37   2.0000      -0.671480       -18.2719
  38   2.0000      -0.632908       -17.2223
  39   2.0000      -0.621052       -16.8997
  40   2.0000      -0.604504       -16.4494
  41   2.0000      -0.579187       -15.7605
  42   2.0000      -0.562069       -15.2947
  43   2.0000      -0.547902       -14.9092
  44   2.0000      -0.536096       -14.5879
  45   2.0000      -0.526637       -14.3305
  46   2.0000      -0.519947       -14.1485
  47   2.0000      -0.518774       -14.1166
  48   2.0000      -0.502765       -13.6809
  49   2.0000      -0.499301       -13.5867
  50   2.0000      -0.485224       -13.2036
  51   2.0000      -0.481660       -13.1066
  52   2.0000      -0.469852       -12.7853
  53   2.0000      -0.463392       -12.6095
  54   2.0000      -0.459776       -12.5111
  55   2.0000      -0.453029       -12.3275
  56   2.0000      -0.446053       -12.1377
  57   2.0000      -0.435799       -11.8587
  58   2.0000      -0.434323       -11.8185
  59   2.0000      -0.428595       -11.6627
  60   2.0000      -0.419052       -11.4030
  61   2.0000      -0.415734       -11.3127
  62   2.0000      -0.410255       -11.1636
  63   2.0000      -0.351333        -9.5603
  64   2.0000      -0.336141        -9.1469
  65   2.0000      -0.323918        -8.8142
  66   2.0000      -0.287534        -7.8242
  67   0.0000       0.021956         0.5974
  68   0.0000       0.073335         1.9956
  69   0.0000       0.101208         2.7540
  70   0.0000       0.109799         2.9878
  71   0.0000       0.126533         3.4432

MULLIKEN ATOMIC CHARGES
-----------------------
   0 S :    0.073697
   1 C :   -0.132595
   2 C :   -0.129339
   3 C :   -0.003455
   4 C :   -0.127437
   5 H :    0.066250
   6 C :    0.078098
   7 H :    0.031500
   8 H :   -0.004260
   9 C :   -0.104431
  10 H :    0.040380
  11 H :    0.031826
  12 C :   -0.029395
  13 H :    0.005217
  14 H :    0.025431
  15 H :    0.051146
  16 S :    0.114268
  17 C :   -0.069210
  18 C :   -0.020501
  19 C :   -0.022179
  20 C :   -0.135443
  21 H :   -0.000139
  22 C :    0.078832
  23 H :    0.026199
  24 H :    0.029170
  25 C :   -0.034468
  26 H :    0.015241
  27 H :    0.000313
  28 C :   -0.065246
  29 H :    0.042163
  30 H :    0.021234
  31 H :    0.029320
  32 H :    0.080870
  33 H :    0.036941
Sum of atomic charges:   -0.0000000

LOEWDIN ATOMIC CHARGES
----------------------
   0 S :    0.360908
   1 C :   -0.211680
   2 C :   -0.069418
   3 C :   -0.077154
   4 C :   -0.160916
   5 H :    0.056076
   6 C :   -0.031200
   7 H :    0.032074
   8 H :    0.018072
   9 C :   -0.038980
  10 H :    0.028895
  11 H :    0.021262
  12 C :   -0.071171
  13 H :    0.022404
  14 H :    0.022265
  15 H :    0.031762
  16 S :    0.412649
  17 C :   -0.160265
  18 C :   -0.052200
  19 C :   -0.051645
  20 C :   -0.209089
  21 H :    0.021690
  22 C :   -0.027338
  23 H :    0.034180
  24 H :    0.032992
  25 C :   -0.029483
  26 H :    0.016024
  27 H :    0.010073
  28 C :   -0.061176
  29 H :    0.029555
  30 H :    0.023364
  31 H :    0.018641
  32 H :    0.047510
  33 H :    0.011318

  Mayer bond orders larger than 0.100000
B(  0-S ,  1-C ) :   1.1079 B(  0-S ,  4-C ) :   1.1380 B(  1-C ,  2-C ) :   1.6007
B(  1-C , 32-H ) :   0.9627 B(  2-C ,  3-C ) :   1.2240 B(  2-C ,  6-C ) :   1.0580
B(  3-C ,  4-C ) :   1.5824 B(  3-C ,  5-H ) :   0.9713 B(  4-C , 20-C ) :   1.0254
B(  6-C ,  7-H ) :   0.9381 B(  6-C ,  8-H ) :   0.9363 B(  6-C ,  9-C ) :   1.0578
B(  9-C , 10-H ) :   0.9575 B(  9-C , 11-H ) :   0.9566 B(  9-C , 12-C ) :   1.0708
B( 12-C , 13-H ) :   0.9696 B( 12-C , 14-H ) :   0.9722 B( 12-C , 15-H ) :   0.9744
B( 16-S , 17-C ) :   1.1584 B( 16-S , 20-C ) :   1.1434 B( 17-C , 18-C ) :   1.5915
B( 17-C , 20-C ) :   0.1044 B( 17-C , 33-H ) :   0.9757 B( 18-C , 19-C ) :   1.2368
B( 18-C , 21-H ) :   1.0016 B( 19-C , 20-C ) :   1.6125 B( 19-C , 22-C ) :   1.0443
B( 22-C , 23-H ) :   0.9294 B( 22-C , 24-H ) :   0.9323 B( 22-C , 25-C ) :   1.0735
B( 25-C , 26-H ) :   0.9521 B( 25-C , 27-H ) :   0.9562 B( 25-C , 28-C ) :   1.0774
B( 28-C , 29-H ) :   0.9763 B( 28-C , 30-H ) :   0.9741 B( 28-C , 31-H ) :   0.9785

Dispersion correction           -0.014557897
FINAL SINGLE POINT ENERGY     -1339.860706634358

DIPOLE MOMENT
-------------
                                X             Y             Z
Electronic contribution:      6.16374      29.77176      -4.56796
Nuclear contribution   :     -6.40163     -30.44954       4.49704
                        -----------------------------------------
Total Dipole Moment    :     -0.23789      -0.67779      -0.07093
                        -----------------------------------------
Magnitude (a.u.)       :      0.72181
Magnitude (Debye)      :      1.83470

Rotational constants in cm-1:     0.016646     0.010414     0.006978
Rotational constants in MHz :   499.042050   312.199061   209.191622

                             ****ORCA TERMINATED NORMALLY****
TOTAL RUN TIME: 0 days 0 hours 0 minutes 21 seconds 132 msec
