                         Program Version 4.2.1 -  RELEASE  -
|  1> ! wB97X-D3 SP def2-SVP
|  2> %pal
|  3> nprocs 24
|  4> end
|  5>
|  6> * xyz 0 1
|  7> S 	 -30.7446 	 18.873 	 10.7537
|  8> C 	 -30.4108 	 20.0805 	 9.43637
|  9> C 	 -30.5985 	 19.523 	 8.15201
| 10> C 	 -30.9583 	 18.1094 	 8.26906
| 11> C 	 -31.0865 	 17.6639 	 9.56134
| 12> H 	 -31.0321 	 17.4992 	 7.39941
| 13> C 	 -30.2173 	 20.2484 	 6.88617
| 14> H 	 -29.503 	 19.7045 	 6.32462
| 15> H 	 -29.5937 	 21.1132 	 7.18068
| 16> C 	 -31.3902 	 20.4312 	 5.8967
| 17> H 	 -31.8572 	 19.4824 	 5.76557
| 18> H 	 -32.214 	 21.0566 	 6.30893
| 19> C 	 -31.0696 	 20.9678 	 4.53258
| 20> H 	 -30.9552 	 22.0596 	 4.40884
| 21> H 	 -30.2482 	 20.4852 	 4.02395
| 22> H 	 -31.8706 	 20.7497 	 3.85072
| 23> S 	 -30.4709 	 15.7009 	 11.3357
| 24> C 	 -31.0694 	 14.096 	 11.032
| 25> C 	 -31.8571 	 14.028 	 9.96461
| 26> C 	 -32.0983 	 15.2981 	 9.31317
| 27> C 	 -31.318 	 16.2728 	 9.90833
| 28> H 	 -32.2299 	 13.0048 	 9.6591
| 29> C 	 -32.974 	 15.3891 	 8.05226
| 30> H 	 -32.4172 	 14.7299 	 7.36673
| 31> H 	 -32.9564 	 16.376 	 7.70926
| 32> C 	 -34.4409 	 14.9668 	 8.13069
| 33> H 	 -34.6139 	 14.3634 	 9.03061
| 34> H 	 -34.542 	 14.16 	 7.30028
| 35> C 	 -35.4954 	 16.1338 	 7.88743
| 36> H 	 -35.3815 	 16.3706 	 6.88041
| 37> H 	 -35.286 	 17.0191 	 8.47888
| 38> H 	 -36.5327 	 15.9636 	 8.08722
| 39> H 	 -29.9948 	 21.1353 	 9.64512
| 40> H 	 -30.9298 	 13.2801 	 11.7569
| 41> *
| 42>
| 43>                          ****END OF INPUT****

CARTESIAN COORDINATES (ANGSTROEM)
---------------------------------
  S    -30.744600   18.873000   10.753700
  C    -30.410800   20.080500    9.436370
  C    -30.598500   19.523000    8.152010
  C    -30.958300   18.109400    8.269060
  C    -31.086500   17.663900    9.561340
  H    -31.032100   17.499200    7.399410
  C    -30.217300   20.248400    6.886170
  H    -29.503000   19.704500    6.324620
  H    -29.593700   21.113200    7.180680
  C    -31.390200   20.431200    5.896700
  H    -31.857200   19.482400    5.765570
  H    -32.214000   21.056600    6.308930
  C    -31.069600   20.967800    4.532580
  H    -30.955200   22.059600    4.408840
  H    -30.248200   20.485200    4.023950
  H    -31.870600   20.749700    3.850720
  S    -30.470900   15.700900   11.335700
  C    -31.069400   14.096000   11.032000
  C    -31.857100   14.028000    9.964610
  C    -32.098300   15.298100    9.313170
  C    -31.318000   16.272800    9.908330
  H    -32.229900   13.004800    9.659100
  C    -32.974000   15.389100    8.052260
  H    -32.417200   14.729900    7.366730
  H    -32.956400   16.376000    7.709260
  C    -34.440900   14.966800    8.130690
  H    -34.613900   14.363400    9.030610
  H    -34.542000   14.160000    7.300280
  C    -35.495400   16.133800    7.887430
  H    -35.381500   16.370600    6.880410
  H    -35.286000   17.019100    8.478880
  H    -36.532700   15.963600    8.087220
  H    -29.994800   21.135300    9.645120
  H    -30.929800   13.280100   11.756900

 Total Charge           Charge          ....    0
 Multiplicity           Mult            ....    1
 Number of Electrons    NEL             ....  134
 Basis Dimension        Dim             ....  322

ORBITAL ENERGIES
----------------

  NO   OCC          E(Eh)            E(eV)
   0   2.0000     -88.968291     -2420.9503
   1   2.0000     -88.961261     -2420.7590
   2   2.0000     -10.328509      -281.0530
   3   2.0000     -10.326677      -281.0032
   4   2.0000     -10.325544      -280.9723
   5   2.0000     -10.310994      -280.5764
   6   2.0000     -10.308365      -280.5049
   7   2.0000     -10.306001      -280.4405
   8   2.0000     -10.297742      -280.2158
   9   2.0000     -10.293645      -280.1043
  10   2.0000     -10.293564      -280.1021
  11   2.0000     -10.293271      -280.0941
  12   2.0000     -10.291565      -280.0477
  13   2.0000     -10.288656      -279.9686
  14   2.0000     -10.275774      -279.6180
  15   2.0000     -10.275758      -279.6176
  16   2.0000      -8.082271      -219.9298
  17   2.0000      -8.076715      -219.7786
  18   2.0000      -6.040953      -164.3827
  19   2.0000      -6.037012      -164.2754
  20   2.0000      -6.035234      -164.2271
  21   2.0000      -6.032759      -164.1597
  22   2.0000      -6.031303      -164.1201
  23   2.0000      -6.027245      -164.0097
  24   2.0000      -1.007377       -27.4121
  25   2.0000      -0.978866       -26.6363
  26   2.0000      -0.914432       -24.8830
  27   2.0000      -0.905512       -24.6402
  28   2.0000      -0.870548       -23.6888
  29   2.0000      -0.850906       -23.1543
  30   2.0000      -0.842874       -22.9358
  31   2.0000      -0.815220       -22.1833
  32   2.0000      -0.787716       -21.4349
  33   2.0000      -0.775392       -21.0995
  34   2.0000      -0.711721       -19.3669
  35   2.0000      -0.701793       -19.0967
  36   2.0000      -0.691944       -18.8288
  37   2.0000      -0.654399       -17.8071
  38   2.0000      -0.633182       -17.2298
  39   2.0000      -0.623616       -16.9694
  40   2.0000      -0.598701       -16.2915
  41   2.0000      -0.568896       -15.4805
  42   2.0000      -0.557497       -15.1703
  43   2.0000      -0.551921       -15.0185
  44   2.0000      -0.535939       -14.5836
  45   2.0000      -0.524639       -14.2761
  46   2.0000      -0.520607       -14.1664
  47   2.0000      -0.508297       -13.8315
  48   2.0000      -0.499572       -13.5940
  49   2.0000      -0.495889       -13.4938
  50   2.0000      -0.490058       -13.3351
  51   2.0000      -0.479474       -13.0472
  52   2.0000      -0.472373       -12.8539
  53   2.0000      -0.465404       -12.6643
  54   2.0000      -0.459208       -12.4957
  55   2.0000      -0.452288       -12.3074
  56   2.0000      -0.447790       -12.1850
  57   2.0000      -0.440696       -11.9919
  58   2.0000      -0.434919       -11.8348
  59   2.0000      -0.426953       -11.6180
  60   2.0000      -0.424162       -11.5420
  61   2.0000      -0.415895       -11.3171
  62   2.0000      -0.406664       -11.0659
  63   2.0000      -0.353682        -9.6242
  64   2.0000      -0.332001        -9.0342
  65   2.0000      -0.328689        -8.9441
  66   2.0000      -0.287783        -7.8310
  67   0.0000       0.027473         0.7476
  68   0.0000       0.080509         2.1908
  69   0.0000       0.101014         2.7487
  70   0.0000       0.115879         3.1532
  71   0.0000       0.130594         3.5536

MULLIKEN ATOMIC CHARGES
-----------------------
   0 S :    0.099299
   1 C :   -0.171008
   2 C :   -0.079319
   3 C :    0.008214
   4 C :   -0.105310
   5 H :    0.009400
   6 C :    0.096000
   7 H :    0.011338
   8 H :    0.021236
   9 C :   -0.074936
  10 H :    0.017520
  11 H :    0.034669
  12 C :   -0.036308
  13 H :    0.037558
  14 H :    0.018267
  15 H :    0.018504
  16 S :    0.089766
  17 C :   -0.093857
  18 C :   -0.049950
  19 C :   -0.066332
  20 C :   -0.147209
  21 H :    0.037082
  22 C :    0.106704
  23 H :    0.043625
  24 H :   -0.003988
  25 C :   -0.100888
  26 H :    0.034789
  27 H :    0.032519
  28 C :   -0.029583
  29 H :    0.024276
  30 H :    0.039965
  31 H :    0.032790
  32 H :    0.082106
  33 H :    0.063061
Sum of atomic charges:    0.0000000

LOEWDIN ATOMIC CHARGES
----------------------
   0 S :    0.380598
   1 C :   -0.196035
   2 C :   -0.053405
   3 C :   -0.063618
   4 C :   -0.192750
   5 H :    0.024927
   6 C :   -0.032997
   7 H :    0.027121
   8 H :    0.034600
   9 C :   -0.040929
  10 H :    0.022182
  11 H :    0.031134
  12 C :   -0.072285
  13 H :    0.028624
  14 H :    0.021597
  15 H :    0.027508
  16 S :    0.389940
  17 C :   -0.188117
  18 C :   -0.081406
  19 C :   -0.054032
  20 C :   -0.188864
  21 H :    0.041785
  22 C :   -0.027896
  23 H :    0.040562
  24 H :    0.018574
  25 C :   -0.044499
  26 H :    0.022043
  27 H :    0.032767
  28 C :   -0.060115
  29 H :    0.018276
  30 H :    0.029286
  31 H :    0.026293
  32 H :    0.044664
  33 H :    0.034464

  Mayer bond orders larger than 0.100000
B(  0-S ,  1-C ) :   1.1110 B(  0-S ,  4-C ) :   1.1381 B(  1-C ,  2-C ) :   1.6276
B(  1-C , 32-H ) :   0.9555 B(  2-C ,  3-C ) :   1.2185 B(  2-C ,  6-C ) :   1.0394
B(  3-C ,  4-C ) :   1.5816 B(  3-C ,  5-H ) :   0.9905 B(  4-C , 20-C ) :   1.0565
B(  6-C ,  7-H ) :   0.9343 B(  6-C ,  8-H ) :   0.9428 B(  6-C ,  9-C ) :   1.0409
B(  9-C , 10-H ) :   0.9560 B(  9-C , 11-H ) :   0.9533 B(  9-C , 12-C ) :   1.0956
B( 12-C , 13-H ) :   0.9748 B( 12-C , 14-H ) :   0.9694 B( 12-C , 15-H ) :   0.9687
B( 16-S , 17-C ) :   1.1300 B( 16-S , 20-C ) :   1.1264 B( 17-C , 18-C ) :   1.6760
B( 17-C , 33-H ) :   0.9615 B( 18-C , 19-C ) :   1.1934 B( 18-C , 21-H ) :   0.9770
B( 19-C , 20-C ) :   1.6319 B( 19-C , 22-C ) :   1.0393 B( 22-C , 23-H ) :   0.9381
B( 22-C , 24-H ) :   0.9300 B( 22-C , 25-C ) :   1.0366 B( 25-C , 26-H ) :   0.9677
B( 25-C , 27-H ) :   0.9609 B( 25-C , 28-C ) :   1.0653 B( 28-C , 29-H ) :   0.9768
B( 28-C , 30-H ) :   0.9777 B( 28-C , 31-H ) :   0.9784

Dispersion correction           -0.013426791
FINAL SINGLE POINT ENERGY     -1339.867334892401

DIPOLE MOMENT
-------------
                                X             Y             Z
Electronic contribution:     13.69719      -5.59064      27.76983
Nuclear contribution   :    -13.87462       5.46908     -28.51210
                        -----------------------------------------
Total Dipole Moment    :     -0.17743      -0.12156      -0.74228
                        -----------------------------------------
Magnitude (a.u.)       :      0.77281
Magnitude (Debye)      :      1.96432

Rotational constants in cm-1:     0.016896     0.008776     0.006444
Rotational constants in MHz :   506.536807   263.097417   193.200261

                             ****ORCA TERMINATED NORMALLY****
TOTAL RUN TIME: 0 days 0 hours 0 minutes 20 seconds 98 msec
