                         Program Version 4.2.1 -  RELEASE  -
|  1> ! wB97X-D3 SP def2-SVP
|  2> %pal
|  3> nprocs 24
|  4> end
|  5>
|  6> * xyz 0 1
|  7> S 	 -35.2066 	 3.30954 	 1.70278
|  8> C 	 -34.0346 	 2.37265 	 0.700678
|  9> C 	 -33.2867 	 1.53951 	 1.46882
| 10> C 	 -33.4562 	 1.82887 	 2.82933
| 11> C 	 -34.2916 	 2.88974 	 3.13655
| 12> H 	 -32.9081 	 1.29397 	 3.55599
| 13> C 	 -32.2802 	 0.518145 	 0.89816
| 14> H 	 -32.7844 	 0.267773 	 -0.083612
| 15> H 	 -32.157 	 -0.404642 	 1.48425
| 16> C 	 -30.859 	 1.05754 	 0.668114
| 17> H 	 -30.8896 	 1.96157 	 0.129126
| 18> H 	 -30.3537 	 1.34949 	 1.51957
| 19> C 	 -29.9325 	 0.0103023 	 0.0146848
| 20> H 	 -29.0554 	 0.359589 	 -0.356819
| 21> H 	 -29.6261 	 -0.76079 	 0.786568
| 22> H 	 -30.3036 	 -0.668004 	 -0.694316
| 23> S 	 -36.2544 	 3.46235 	 4.86121
| 24> C 	 -35.8997 	 4.46773 	 6.26895
| 25> C 	 -34.5641 	 4.51779 	 6.52512
| 26> C 	 -33.7688 	 4.00924 	 5.43929
| 27> C 	 -34.5911 	 3.53225 	 4.37348
| 28> H 	 -34.2937 	 4.88984 	 7.48444
| 29> C 	 -32.268 	 3.97689 	 5.44398
| 30> H 	 -31.9574 	 3.29839 	 4.63593
| 31> H 	 -31.9754 	 3.57261 	 6.39713
| 32> C 	 -31.6602 	 5.32099 	 5.10092
| 33> H 	 -30.6443 	 5.16766 	 5.4773
| 34> H 	 -32.1168 	 6.14983 	 5.60721
| 35> C 	 -31.736 	 5.65112 	 3.62062
| 36> H 	 -31.4531 	 4.81501 	 2.98589
| 37> H 	 -31.135 	 6.52185 	 3.34648
| 38> H 	 -32.6641 	 5.89622 	 3.229
| 39> H 	 -34.072 	 2.1591 	 -0.301696
| 40> H 	 -36.6044 	 4.77909 	 6.98546
| 41> *
| 42>
| 43>                          ****END OF INPUT****

CARTESIAN COORDINATES (ANGSTROEM)
---------------------------------
  S    -35.206600    3.309540    1.702780
  C    -34.034600    2.372650    0.700678
  C    -33.286700    1.539510    1.468820
  C    -33.456200    1.828870    2.829330
  C    -34.291600    2.889740    3.136550
  H    -32.908100    1.293970    3.555990
  C    -32.280200    0.518145    0.898160
  H    -32.784400    0.267773   -0.083612
  H    -32.157000   -0.404642    1.484250
  C    -30.859000    1.057540    0.668114
  H    -30.889600    1.961570    0.129126
  H    -30.353700    1.349490    1.519570
  C    -29.932500    0.010302    0.014685
  H    -29.055400    0.359589   -0.356819
  H    -29.626100   -0.760790    0.786568
  H    -30.303600   -0.668004   -0.694316
  S    -36.254400    3.462350    4.861210
  C    -35.899700    4.467730    6.268950
  C    -34.564100    4.517790    6.525120
  C    -33.768800    4.009240    5.439290
  C    -34.591100    3.532250    4.373480
  H    -34.293700    4.889840    7.484440
  C    -32.268000    3.976890    5.443980
  H    -31.957400    3.298390    4.635930
  H    -31.975400    3.572610    6.397130
  C    -31.660200    5.320990    5.100920
  H    -30.644300    5.167660    5.477300
  H    -32.116800    6.149830    5.607210
  C    -31.736000    5.651120    3.620620
  H    -31.453100    4.815010    2.985890
  H    -31.135000    6.521850    3.346480
  H    -32.664100    5.896220    3.229000
  H    -34.072000    2.159100   -0.301696
  H    -36.604400    4.779090    6.985460

 Total Charge           Charge          ....    0
 Multiplicity           Mult            ....    1
 Number of Electrons    NEL             ....  134
 Basis Dimension        Dim             ....  322

ORBITAL ENERGIES
----------------

  NO   OCC          E(Eh)            E(eV)
   0   2.0000     -88.966038     -2420.8890
   1   2.0000     -88.963942     -2420.8319
   2   2.0000     -10.328785      -281.0605
   3   2.0000     -10.324696      -280.9492
   4   2.0000     -10.311369      -280.5866
   5   2.0000     -10.307345      -280.4771
   6   2.0000     -10.306851      -280.4637
   7   2.0000     -10.303770      -280.3798
   8   2.0000     -10.297213      -280.2014
   9   2.0000     -10.291944      -280.0580
  10   2.0000     -10.288579      -279.9665
  11   2.0000     -10.286699      -279.9153
  12   2.0000     -10.281688      -279.7790
  13   2.0000     -10.280353      -279.7426
  14   2.0000     -10.271714      -279.5075
  15   2.0000     -10.263967      -279.2967
  16   2.0000      -8.079962      -219.8669
  17   2.0000      -8.078829      -219.8361
  18   2.0000      -6.038598      -164.3186
  19   2.0000      -6.037328      -164.2841
  20   2.0000      -6.034785      -164.2148
  21   2.0000      -6.033492      -164.1797
  22   2.0000      -6.030397      -164.0954
  23   2.0000      -6.029414      -164.0687
  24   2.0000      -1.008421       -27.4405
  25   2.0000      -0.983744       -26.7690
  26   2.0000      -0.914986       -24.8980
  27   2.0000      -0.912543       -24.8316
  28   2.0000      -0.877509       -23.8782
  29   2.0000      -0.846178       -23.0257
  30   2.0000      -0.844303       -22.9747
  31   2.0000      -0.818334       -22.2680
  32   2.0000      -0.787409       -21.4265
  33   2.0000      -0.775361       -21.0986
  34   2.0000      -0.719501       -19.5786
  35   2.0000      -0.711595       -19.3635
  36   2.0000      -0.698179       -18.9984
  37   2.0000      -0.658061       -17.9067
  38   2.0000      -0.640951       -17.4412
  39   2.0000      -0.625234       -17.0135
  40   2.0000      -0.599413       -16.3109
  41   2.0000      -0.578786       -15.7496
  42   2.0000      -0.561318       -15.2743
  43   2.0000      -0.554023       -15.0757
  44   2.0000      -0.538349       -14.6492
  45   2.0000      -0.529723       -14.4145
  46   2.0000      -0.520151       -14.1540
  47   2.0000      -0.510525       -13.8921
  48   2.0000      -0.503173       -13.6920
  49   2.0000      -0.498169       -13.5559
  50   2.0000      -0.494731       -13.4623
  51   2.0000      -0.477764       -13.0006
  52   2.0000      -0.469355       -12.7718
  53   2.0000      -0.463475       -12.6118
  54   2.0000      -0.460021       -12.5178
  55   2.0000      -0.452334       -12.3086
  56   2.0000      -0.446442       -12.1483
  57   2.0000      -0.442526       -12.0417
  58   2.0000      -0.435951       -11.8628
  59   2.0000      -0.426592       -11.6082
  60   2.0000      -0.423203       -11.5159
  61   2.0000      -0.417842       -11.3701
  62   2.0000      -0.410102       -11.1594
  63   2.0000      -0.344932        -9.3861
  64   2.0000      -0.333006        -9.0615
  65   2.0000      -0.326052        -8.8723
  66   2.0000      -0.288648        -7.8545
  67   0.0000       0.021908         0.5962
  68   0.0000       0.065473         1.7816
  69   0.0000       0.096108         2.6152
  70   0.0000       0.114081         3.1043
  71   0.0000       0.138587         3.7712

MULLIKEN ATOMIC CHARGES
-----------------------
   0 S :    0.104245
   1 C :   -0.069797
   2 C :   -0.099837
   3 C :    0.067505
   4 C :   -0.168988
   5 H :   -0.009486
   6 C :    0.030693
   7 H :    0.032995
   8 H :    0.033071
   9 C :    0.001880
  10 H :    0.011881
  11 H :    0.009154
  12 C :   -0.021529
  13 H :    0.012442
  14 H :    0.018032
  15 H :    0.011540
  16 S :    0.101541
  17 C :   -0.066606
  18 C :   -0.038791
  19 C :   -0.041140
  20 C :   -0.147625
  21 H :    0.008814
  22 C :    0.081351
  23 H :    0.012552
  24 H :    0.025210
  25 C :   -0.033973
  26 H :    0.027951
  27 H :    0.025311
  28 C :   -0.030200
  29 H :    0.019879
  30 H :    0.028942
  31 H :    0.018623
  32 H :    0.007021
  33 H :    0.037339
Sum of atomic charges:    0.0000000

LOEWDIN ATOMIC CHARGES
----------------------
   0 S :    0.386216
   1 C :   -0.169592
   2 C :   -0.062699
   3 C :   -0.058475
   4 C :   -0.191668
   5 H :    0.021282
   6 C :   -0.025730
   7 H :    0.037356
   8 H :    0.032205
   9 C :   -0.029551
  10 H :    0.019019
  11 H :    0.018075
  12 C :   -0.060650
  13 H :    0.012858
  14 H :    0.032505
  15 H :    0.017884
  16 S :    0.403224
  17 C :   -0.171111
  18 C :   -0.066119
  19 C :   -0.045694
  20 C :   -0.210927
  21 H :    0.029592
  22 C :   -0.032058
  23 H :    0.031340
  24 H :    0.029599
  25 C :   -0.034053
  26 H :    0.026450
  27 H :    0.022162
  28 C :   -0.062739
  29 H :    0.024408
  30 H :    0.029297
  31 H :    0.018678
  32 H :    0.009342
  33 H :    0.019576

  Mayer bond orders larger than 0.100000
B(  0-S ,  1-C ) :   1.1179 B(  0-S ,  4-C ) :   1.1389 B(  1-C ,  2-C ) :   1.6386
B(  1-C ,  4-C ) :   0.1087 B(  1-C , 32-H ) :   0.9666 B(  2-C ,  3-C ) :   1.2500
B(  2-C ,  6-C ) :   1.0146 B(  3-C ,  4-C ) :   1.5507 B(  3-C ,  5-H ) :   1.0029
B(  4-C , 20-C ) :   1.0606 B(  6-C ,  7-H ) :   0.9387 B(  6-C ,  8-H ) :   0.9479
B(  6-C ,  9-C ) :   1.0631 B(  9-C , 10-H ) :   0.9543 B(  9-C , 11-H ) :   0.9524
B(  9-C , 12-C ) :   1.0737 B( 12-C , 13-H ) :   0.9746 B( 12-C , 14-H ) :   0.9710
B( 12-C , 15-H ) :   0.9775 B( 16-S , 17-C ) :   1.1386 B( 16-S , 20-C ) :   1.1558
B( 17-C , 18-C ) :   1.6340 B( 17-C , 20-C ) :   0.1023 B( 17-C , 33-H ) :   0.9710
B( 18-C , 19-C ) :   1.2170 B( 18-C , 21-H ) :   0.9969 B( 19-C , 20-C ) :   1.5640
B( 19-C , 22-C ) :   1.0512 B( 22-C , 23-H ) :   0.9275 B( 22-C , 24-H ) :   0.9300
B( 22-C , 25-C ) :   1.0729 B( 25-C , 26-H ) :   0.9544 B( 25-C , 27-H ) :   0.9576
B( 25-C , 28-C ) :   1.0757 B( 28-C , 29-H ) :   0.9724 B( 28-C , 30-H ) :   0.9712
B( 28-C , 31-H ) :   0.9713

Dispersion correction           -0.014883643
FINAL SINGLE POINT ENERGY     -1339.845978105516

DIPOLE MOMENT
-------------
                                X             Y             Z
Electronic contribution:    -28.31676       4.08323       6.66224
Nuclear contribution   :     28.97514      -4.35466      -6.43206
                        -----------------------------------------
Total Dipole Moment    :      0.65839      -0.27143       0.23018
                        -----------------------------------------
Magnitude (a.u.)       :      0.74842
Magnitude (Debye)      :      1.90233

Rotational constants in cm-1:     0.021060     0.008506     0.006952
Rotational constants in MHz :   631.360520   254.994824   208.430283

                             ****ORCA TERMINATED NORMALLY****
TOTAL RUN TIME: 0 days 0 hours 0 minutes 22 seconds 337 msec
