                         Program Version 4.2.1 -  RELEASE  -
|  1> ! wB97X-D3 SP def2-SVP
|  2> %pal
|  3> nprocs 24
|  4> end
|  5>
|  6> * xyz 0 1
|  7> S 	 -147.642 	 5.26103 	 4.71684
|  8> C 	 -147.439 	 3.73096 	 5.58282
|  9> C 	 -147.741 	 3.94242 	 6.93245
| 10> C 	 -148.395 	 5.19389 	 7.11236
| 11> C 	 -148.556 	 5.93975 	 5.97958
| 12> H 	 -148.812 	 5.42554 	 8.07925
| 13> C 	 -147.544 	 2.86721 	 8.02733
| 14> H 	 -147.688 	 3.3796 	 9.0448
| 15> H 	 -146.487 	 2.49278 	 8.04463
| 16> C 	 -148.647 	 1.75243 	 7.82299
| 17> H 	 -149.648 	 2.13961 	 7.98946
| 18> H 	 -148.581 	 1.3677 	 6.8177
| 19> C 	 -148.382 	 0.571927 	 8.78604
| 20> H 	 -148.259 	 0.907516 	 9.86438
| 21> H 	 -149.17 	 -0.168972 	 8.87473
| 22> H 	 -147.376 	 0.0839766 	 8.59793
| 23> S 	 -150.915 	 7.29903 	 6.42237
| 24> C 	 -151.118 	 8.97046 	 5.89004
| 25> C 	 -149.942 	 9.45008 	 5.40434
| 26> C 	 -148.922 	 8.42935 	 5.44045
| 27> C 	 -149.272 	 7.23182 	 5.96721
| 28> H 	 -149.75 	 10.4535 	 5.05424
| 29> C 	 -147.536 	 8.7061 	 4.80202
| 30> H 	 -147.691 	 9.48026 	 4.08214
| 31> H 	 -147.141 	 7.79962 	 4.28716
| 32> C 	 -146.546 	 9.19303 	 5.82226
| 33> H 	 -146.597 	 8.54834 	 6.71293
| 34> H 	 -146.755 	 10.1337 	 6.2872
| 35> C 	 -145.131 	 9.08079 	 5.28149
| 36> H 	 -144.568 	 9.26924 	 6.27166
| 37> H 	 -144.875 	 9.84439 	 4.56332
| 38> H 	 -144.869 	 8.05956 	 4.92499
| 39> H 	 -146.828 	 2.90484 	 5.28317
| 40> H 	 -152.032 	 9.54826 	 6.049
| 41> *
| 42>
| 43>                          ****END OF INPUT****

CARTESIAN COORDINATES (ANGSTROEM)
---------------------------------
  S    -147.642000    5.261030    4.716840
  C    -147.439000    3.730960    5.582820
  C    -147.741000    3.942420    6.932450
  C    -148.395000    5.193890    7.112360
  C    -148.556000    5.939750    5.979580
  H    -148.812000    5.425540    8.079250
  C    -147.544000    2.867210    8.027330
  H    -147.688000    3.379600    9.044800
  H    -146.487000    2.492780    8.044630
  C    -148.647000    1.752430    7.822990
  H    -149.648000    2.139610    7.989460
  H    -148.581000    1.367700    6.817700
  C    -148.382000    0.571927    8.786040
  H    -148.259000    0.907516    9.864380
  H    -149.170000   -0.168972    8.874730
  H    -147.376000    0.083977    8.597930
  S    -150.915000    7.299030    6.422370
  C    -151.118000    8.970460    5.890040
  C    -149.942000    9.450080    5.404340
  C    -148.922000    8.429350    5.440450
  C    -149.272000    7.231820    5.967210
  H    -149.750000   10.453500    5.054240
  C    -147.536000    8.706100    4.802020
  H    -147.691000    9.480260    4.082140
  H    -147.141000    7.799620    4.287160
  C    -146.546000    9.193030    5.822260
  H    -146.597000    8.548340    6.712930
  H    -146.755000   10.133700    6.287200
  C    -145.131000    9.080790    5.281490
  H    -144.568000    9.269240    6.271660
  H    -144.875000    9.844390    4.563320
  H    -144.869000    8.059560    4.924990
  H    -146.828000    2.904840    5.283170
  H    -152.032000    9.548260    6.049000

 Total Charge           Charge          ....    0
 Multiplicity           Mult            ....    1
 Number of Electrons    NEL             ....  134
 Basis Dimension        Dim             ....  322

ORBITAL ENERGIES
----------------

  NO   OCC          E(Eh)            E(eV)
   0   2.0000     -88.970077     -2420.9989
   1   2.0000     -88.961986     -2420.7787
   2   2.0000     -10.328681      -281.0577
   3   2.0000     -10.320363      -280.8313
   4   2.0000     -10.318971      -280.7935
   5   2.0000     -10.313923      -280.6561
   6   2.0000     -10.309414      -280.5334
   7   2.0000     -10.303579      -280.3746
   8   2.0000     -10.295544      -280.1560
   9   2.0000     -10.294490      -280.1273
  10   2.0000     -10.293388      -280.0973
  11   2.0000     -10.290324      -280.0140
  12   2.0000     -10.286163      -279.9007
  13   2.0000     -10.284845      -279.8649
  14   2.0000     -10.279306      -279.7141
  15   2.0000     -10.275856      -279.6203
  16   2.0000      -8.084669      -219.9950
  17   2.0000      -8.077418      -219.7977
  18   2.0000      -6.043248      -164.4451
  19   2.0000      -6.039236      -164.3360
  20   2.0000      -6.035974      -164.2472
  21   2.0000      -6.035318      -164.2294
  22   2.0000      -6.031810      -164.1339
  23   2.0000      -6.028081      -164.0324
  24   2.0000      -1.014001       -27.5924
  25   2.0000      -0.990967       -26.9656
  26   2.0000      -0.910209       -24.7680
  27   2.0000      -0.905594       -24.6425
  28   2.0000      -0.870195       -23.6792
  29   2.0000      -0.849940       -23.1280
  30   2.0000      -0.841830       -22.9074
  31   2.0000      -0.817472       -22.2446
  32   2.0000      -0.774998       -21.0888
  33   2.0000      -0.766232       -20.8502
  34   2.0000      -0.703795       -19.1512
  35   2.0000      -0.700396       -19.0587
  36   2.0000      -0.690247       -18.7826
  37   2.0000      -0.670517       -18.2457
  38   2.0000      -0.636363       -17.3163
  39   2.0000      -0.619633       -16.8611
  40   2.0000      -0.595949       -16.2166
  41   2.0000      -0.572126       -15.5684
  42   2.0000      -0.564949       -15.3730
  43   2.0000      -0.557608       -15.1733
  44   2.0000      -0.527608       -14.3569
  45   2.0000      -0.520462       -14.1625
  46   2.0000      -0.518516       -14.1095
  47   2.0000      -0.509300       -13.8588
  48   2.0000      -0.503730       -13.7072
  49   2.0000      -0.496009       -13.4971
  50   2.0000      -0.489458       -13.3188
  51   2.0000      -0.486600       -13.2410
  52   2.0000      -0.471863       -12.8400
  53   2.0000      -0.468452       -12.7472
  54   2.0000      -0.454501       -12.3676
  55   2.0000      -0.450693       -12.2640
  56   2.0000      -0.444149       -12.0859
  57   2.0000      -0.438883       -11.9426
  58   2.0000      -0.434623       -11.8267
  59   2.0000      -0.422639       -11.5006
  60   2.0000      -0.420137       -11.4325
  61   2.0000      -0.408243       -11.1089
  62   2.0000      -0.399742       -10.8775
  63   2.0000      -0.350134        -9.5276
  64   2.0000      -0.331081        -9.0092
  65   2.0000      -0.326484        -8.8841
  66   2.0000      -0.298265        -8.1162
  67   0.0000       0.031934         0.8690
  68   0.0000       0.071243         1.9386
  69   0.0000       0.103964         2.8290
  70   0.0000       0.125552         3.4164
  71   0.0000       0.130432         3.5492

MULLIKEN ATOMIC CHARGES
-----------------------
   0 S :    0.111898
   1 C :   -0.111576
   2 C :   -0.095858
   3 C :    0.012794
   4 C :   -0.104643
   5 H :    0.004635
   6 C :    0.005583
   7 H :    0.037632
   8 H :    0.047103
   9 C :   -0.045081
  10 H :    0.039081
  11 H :    0.036207
  12 C :   -0.077846
  13 H :    0.024647
  14 H :    0.039412
  15 H :    0.035398
  16 S :    0.096894
  17 C :   -0.097553
  18 C :   -0.002410
  19 C :   -0.112065
  20 C :   -0.118960
  21 H :    0.018533
  22 C :    0.082053
  23 H :    0.009337
  24 H :    0.026256
  25 C :   -0.070464
  26 H :    0.022962
  27 H :    0.015269
  28 C :   -0.061831
  29 H :    0.037935
  30 H :    0.037472
  31 H :    0.044807
  32 H :    0.046580
  33 H :    0.065799
Sum of atomic charges:   -0.0000000

LOEWDIN ATOMIC CHARGES
----------------------
   0 S :    0.432154
   1 C :   -0.197464
   2 C :   -0.059175
   3 C :   -0.068731
   4 C :   -0.202980
   5 H :    0.027358
   6 C :   -0.034572
   7 H :    0.036164
   8 H :    0.034960
   9 C :   -0.032016
  10 H :    0.028952
  11 H :    0.023843
  12 C :   -0.080795
  13 H :    0.026890
  14 H :    0.022875
  15 H :    0.029210
  16 S :    0.415593
  17 C :   -0.178025
  18 C :   -0.069219
  19 C :   -0.062631
  20 C :   -0.211766
  21 H :    0.032569
  22 C :   -0.031933
  23 H :    0.022845
  24 H :    0.020273
  25 C :   -0.048102
  26 H :    0.026041
  27 H :    0.020504
  28 C :   -0.067769
  29 H :    0.037767
  30 H :    0.019817
  31 H :    0.028552
  32 H :    0.024730
  33 H :    0.034080

  Mayer bond orders larger than 0.100000
B(  0-S ,  1-C ) :   1.1374 B(  0-S ,  4-C ) :   1.1643 B(  1-C ,  2-C ) :   1.5854
B(  1-C , 32-H ) :   0.9684 B(  2-C ,  3-C ) :   1.2803 B(  2-C ,  6-C ) :   1.0183
B(  3-C ,  4-C ) :   1.5290 B(  3-C ,  5-H ) :   0.9989 B(  4-C , 20-C ) :   1.0151
B(  6-C ,  7-H ) :   0.9463 B(  6-C ,  8-H ) :   0.9476 B(  6-C ,  9-C ) :   1.0475
B(  9-C , 10-H ) :   0.9574 B(  9-C , 11-H ) :   0.9619 B(  9-C , 12-C ) :   1.0735
B( 12-C , 13-H ) :   0.9732 B( 12-C , 14-H ) :   0.9762 B( 12-C , 15-H ) :   0.9751
B( 16-S , 17-C ) :   1.1572 B( 16-S , 20-C ) :   1.1349 B( 17-C , 18-C ) :   1.5925
B( 17-C , 33-H ) :   0.9666 B( 18-C , 19-C ) :   1.2552 B( 18-C , 21-H ) :   0.9919
B( 19-C , 20-C ) :   1.6237 B( 19-C , 22-C ) :   1.0370 B( 22-C , 23-H ) :   0.9263
B( 22-C , 24-H ) :   0.9422 B( 22-C , 25-C ) :   1.0623 B( 25-C , 26-H ) :   0.9592
B( 25-C , 27-H ) :   0.9486 B( 25-C , 28-C ) :   1.0794 B( 28-C , 29-H ) :   0.9763
B( 28-C , 30-H ) :   0.9753 B( 28-C , 31-H ) :   0.9730

Dispersion correction           -0.014174214
FINAL SINGLE POINT ENERGY     -1339.876066660816

DIPOLE MOMENT
-------------
                                X             Y             Z
Electronic contribution:    -13.89412       7.62386      -8.84565
Nuclear contribution   :     14.12541      -7.58903       9.13008
                        -----------------------------------------
Total Dipole Moment    :      0.23128       0.03483       0.28442
                        -----------------------------------------
Magnitude (a.u.)       :      0.36824
Magnitude (Debye)      :      0.93599

Rotational constants in cm-1:     0.021154     0.007856     0.006372
Rotational constants in MHz :   634.187386   235.511616   191.025317

                             ****ORCA TERMINATED NORMALLY****
TOTAL RUN TIME: 0 days 0 hours 0 minutes 20 seconds 224 msec
