                         Program Version 4.2.1 -  RELEASE  -
|  1> ! wB97X-D3 SP def2-SVP
|  2> %pal
|  3> nprocs 24
|  4> end
|  5>
|  6> * xyz 0 1
|  7> S 	 41.51 	 -32.1485 	 -118.408
|  8> C 	 41.5792 	 -30.7731 	 -119.461
|  9> C 	 40.7845 	 -30.8533 	 -120.588
| 10> C 	 39.9726 	 -32.0601 	 -120.438
| 11> C 	 40.2336 	 -32.8545 	 -119.338
| 12> H 	 39.3288 	 -32.4852 	 -121.217
| 13> C 	 40.6133 	 -29.7873 	 -121.623
| 14> H 	 39.5916 	 -29.4534 	 -121.593
| 15> H 	 40.5765 	 -30.3498 	 -122.513
| 16> C 	 41.7724 	 -28.7408 	 -121.906
| 17> H 	 41.4163 	 -27.8035 	 -122.337
| 18> H 	 42.1498 	 -28.3352 	 -120.97
| 19> C 	 42.9648 	 -29.4577 	 -122.644
| 20> H 	 42.6798 	 -29.7138 	 -123.653
| 21> H 	 43.86 	 -28.7746 	 -122.683
| 22> H 	 43.21 	 -30.2764 	 -122.112
| 23> S 	 40.5164 	 -35.5327 	 -118.587
| 24> C 	 39.1471 	 -36.6156 	 -118.576
| 25> C 	 38.0175 	 -35.9413 	 -118.985
| 26> C 	 38.2214 	 -34.508 	 -119.114
| 27> C 	 39.5553 	 -34.13 	 -119.062
| 28> H 	 37.067 	 -36.4639 	 -119.115
| 29> C 	 37.0899 	 -33.5013 	 -119.312
| 30> H 	 37.4415 	 -32.4887 	 -119.442
| 31> H 	 36.4593 	 -33.5799 	 -118.381
| 32> C 	 36.3591 	 -33.7177 	 -120.624
| 33> H 	 35.6668 	 -34.5669 	 -120.533
| 34> H 	 37.0495 	 -33.9232 	 -121.398
| 35> C 	 35.6711 	 -32.4506 	 -121.114
| 36> H 	 34.7226 	 -32.3196 	 -120.584
| 37> H 	 35.3513 	 -32.629 	 -122.12
| 38> H 	 36.1926 	 -31.4616 	 -121.119
| 39> H 	 42.1792 	 -29.8564 	 -119.267
| 40> H 	 39.1943 	 -37.661 	 -118.383
| 41> *
| 42>
| 43>                          ****END OF INPUT****

CARTESIAN COORDINATES (ANGSTROEM)
---------------------------------
  S     41.510000  -32.148500  -118.408000
  C     41.579200  -30.773100  -119.461000
  C     40.784500  -30.853300  -120.588000
  C     39.972600  -32.060100  -120.438000
  C     40.233600  -32.854500  -119.338000
  H     39.328800  -32.485200  -121.217000
  C     40.613300  -29.787300  -121.623000
  H     39.591600  -29.453400  -121.593000
  H     40.576500  -30.349800  -122.513000
  C     41.772400  -28.740800  -121.906000
  H     41.416300  -27.803500  -122.337000
  H     42.149800  -28.335200  -120.970000
  C     42.964800  -29.457700  -122.644000
  H     42.679800  -29.713800  -123.653000
  H     43.860000  -28.774600  -122.683000
  H     43.210000  -30.276400  -122.112000
  S     40.516400  -35.532700  -118.587000
  C     39.147100  -36.615600  -118.576000
  C     38.017500  -35.941300  -118.985000
  C     38.221400  -34.508000  -119.114000
  C     39.555300  -34.130000  -119.062000
  H     37.067000  -36.463900  -119.115000
  C     37.089900  -33.501300  -119.312000
  H     37.441500  -32.488700  -119.442000
  H     36.459300  -33.579900  -118.381000
  C     36.359100  -33.717700  -120.624000
  H     35.666800  -34.566900  -120.533000
  H     37.049500  -33.923200  -121.398000
  C     35.671100  -32.450600  -121.114000
  H     34.722600  -32.319600  -120.584000
  H     35.351300  -32.629000  -122.120000
  H     36.192600  -31.461600  -121.119000
  H     42.179200  -29.856400  -119.267000
  H     39.194300  -37.661000  -118.383000

 Total Charge           Charge          ....    0
 Multiplicity           Mult            ....    1
 Number of Electrons    NEL             ....  134
 Basis Dimension        Dim             ....  322

ORBITAL ENERGIES
----------------

  NO   OCC          E(Eh)            E(eV)
   0   2.0000     -88.967499     -2420.9287
   1   2.0000     -88.960789     -2420.7461
   2   2.0000     -10.330389      -281.1042
   3   2.0000     -10.328283      -281.0469
   4   2.0000     -10.317543      -280.7546
   5   2.0000     -10.313739      -280.6511
   6   2.0000     -10.305985      -280.4401
   7   2.0000     -10.304498      -280.3996
   8   2.0000     -10.298723      -280.2425
   9   2.0000     -10.297637      -280.2129
  10   2.0000     -10.297380      -280.2060
  11   2.0000     -10.293712      -280.1061
  12   2.0000     -10.288623      -279.9677
  13   2.0000     -10.282534      -279.8020
  14   2.0000     -10.277996      -279.6785
  15   2.0000     -10.277118      -279.6546
  16   2.0000      -8.082695      -219.9413
  17   2.0000      -8.075652      -219.7497
  18   2.0000      -6.041220      -164.3900
  19   2.0000      -6.037149      -164.2792
  20   2.0000      -6.034261      -164.2006
  21   2.0000      -6.033396      -164.1771
  22   2.0000      -6.030087      -164.0870
  23   2.0000      -6.026355      -163.9855
  24   2.0000      -1.006043       -27.3758
  25   2.0000      -0.984074       -26.7780
  26   2.0000      -0.912735       -24.8368
  27   2.0000      -0.912021       -24.8174
  28   2.0000      -0.867631       -23.6094
  29   2.0000      -0.851637       -23.1742
  30   2.0000      -0.843960       -22.9653
  31   2.0000      -0.813265       -22.1301
  32   2.0000      -0.785316       -21.3695
  33   2.0000      -0.772857       -21.0305
  34   2.0000      -0.720128       -19.5957
  35   2.0000      -0.700536       -19.0625
  36   2.0000      -0.695095       -18.9145
  37   2.0000      -0.659169       -17.9369
  38   2.0000      -0.635810       -17.3013
  39   2.0000      -0.611064       -16.6279
  40   2.0000      -0.596468       -16.2307
  41   2.0000      -0.576721       -15.6934
  42   2.0000      -0.570865       -15.5340
  43   2.0000      -0.557887       -15.1809
  44   2.0000      -0.537894       -14.6368
  45   2.0000      -0.525448       -14.2982
  46   2.0000      -0.516793       -14.0626
  47   2.0000      -0.507383       -13.8066
  48   2.0000      -0.503251       -13.6942
  49   2.0000      -0.497547       -13.5389
  50   2.0000      -0.489181       -13.3113
  51   2.0000      -0.483548       -13.1580
  52   2.0000      -0.474533       -12.9127
  53   2.0000      -0.466960       -12.7066
  54   2.0000      -0.462675       -12.5900
  55   2.0000      -0.445192       -12.1143
  56   2.0000      -0.443764       -12.0754
  57   2.0000      -0.437574       -11.9070
  58   2.0000      -0.435575       -11.8526
  59   2.0000      -0.429793       -11.6953
  60   2.0000      -0.427387       -11.6298
  61   2.0000      -0.420214       -11.4346
  62   2.0000      -0.404160       -10.9978
  63   2.0000      -0.351648        -9.5688
  64   2.0000      -0.327972        -8.9246
  65   2.0000      -0.325757        -8.8643
  66   2.0000      -0.292069        -7.9476
  67   0.0000       0.033020         0.8985
  68   0.0000       0.076564         2.0834
  69   0.0000       0.114467         3.1148
  70   0.0000       0.119276         3.2457
  71   0.0000       0.127749         3.4762

MULLIKEN ATOMIC CHARGES
-----------------------
   0 S :    0.126703
   1 C :   -0.143912
   2 C :   -0.102761
   3 C :   -0.013341
   4 C :   -0.127362
   5 H :    0.017588
   6 C :    0.100911
   7 H :    0.033520
   8 H :    0.004946
   9 C :   -0.067415
  10 H :    0.030214
  11 H :    0.016970
  12 C :   -0.028342
  13 H :    0.034865
  14 H :    0.041481
  15 H :    0.020645
  16 S :    0.087014
  17 C :   -0.078328
  18 C :   -0.033950
  19 C :   -0.072530
  20 C :   -0.141054
  21 H :    0.026977
  22 C :    0.078972
  23 H :    0.013941
  24 H :    0.049922
  25 C :   -0.075776
  26 H :    0.032457
  27 H :    0.024636
  28 C :   -0.060843
  29 H :    0.025594
  30 H :    0.019798
  31 H :    0.046010
  32 H :    0.058365
  33 H :    0.054086
Sum of atomic charges:   -0.0000000

LOEWDIN ATOMIC CHARGES
----------------------
   0 S :    0.418631
   1 C :   -0.209893
   2 C :   -0.062407
   3 C :   -0.066427
   4 C :   -0.201709
   5 H :    0.030143
   6 C :   -0.035136
   7 H :    0.035559
   8 H :    0.029827
   9 C :   -0.034928
  10 H :    0.027439
  11 H :    0.018038
  12 C :   -0.048872
  13 H :    0.024302
  14 H :    0.034392
  15 H :    0.010185
  16 S :    0.390162
  17 C :   -0.177076
  18 C :   -0.074743
  19 C :   -0.055177
  20 C :   -0.193390
  21 H :    0.033354
  22 C :   -0.031806
  23 H :    0.026351
  24 H :    0.039593
  25 C :   -0.038907
  26 H :    0.025844
  27 H :    0.019226
  28 C :   -0.071774
  29 H :    0.024904
  30 H :    0.022349
  31 H :    0.030970
  32 H :    0.033513
  33 H :    0.027465

  Mayer bond orders larger than 0.100000
B(  0-S ,  1-C ) :   1.1405 B(  0-S ,  4-C ) :   1.1414 B(  1-C ,  2-C ) :   1.6241
B(  1-C , 32-H ) :   0.9560 B(  2-C ,  3-C ) :   1.2305 B(  2-C ,  6-C ) :   1.0070
B(  3-C ,  4-C ) :   1.5881 B(  3-C ,  5-H ) :   0.9873 B(  4-C , 20-C ) :   1.0409
B(  6-C ,  7-H ) :   0.9353 B(  6-C ,  8-H ) :   0.9271 B(  6-C ,  9-C ) :   1.0539
B(  9-C , 10-H ) :   0.9576 B(  9-C , 11-H ) :   0.9590 B(  9-C , 12-C ) :   1.0623
B( 12-C , 13-H ) :   0.9771 B( 12-C , 14-H ) :   0.9757 B( 12-C , 15-H ) :   0.9801
B( 16-S , 17-C ) :   1.1542 B( 16-S , 20-C ) :   1.1211 B( 17-C , 18-C ) :   1.6164
B( 17-C , 33-H ) :   0.9726 B( 18-C , 19-C ) :   1.2190 B( 18-C , 21-H ) :   0.9889
B( 19-C , 20-C ) :   1.6162 B( 19-C , 22-C ) :   1.0482 B( 22-C , 23-H ) :   0.9379
B( 22-C , 24-H ) :   0.9319 B( 22-C , 25-C ) :   1.0546 B( 25-C , 26-H ) :   0.9477
B( 25-C , 27-H ) :   0.9595 B( 25-C , 28-C ) :   1.0972 B( 28-C , 29-H ) :   0.9719
B( 28-C , 30-H ) :   0.9733 B( 28-C , 31-H ) :   0.9714

Dispersion correction           -0.014339466
FINAL SINGLE POINT ENERGY     -1339.869685715991

DIPOLE MOMENT
-------------
                                X             Y             Z
Electronic contribution:     11.28790     -17.05438      18.93672
Nuclear contribution   :    -11.76023      17.36230     -19.47644
                        -----------------------------------------
Total Dipole Moment    :     -0.47234       0.30792      -0.53972
                        -----------------------------------------
Magnitude (a.u.)       :      0.78052
Magnitude (Debye)      :      1.98392

Rotational constants in cm-1:     0.019242     0.008372     0.006367
Rotational constants in MHz :   576.847697   250.973231   190.891912

                             ****ORCA TERMINATED NORMALLY****
TOTAL RUN TIME: 0 days 0 hours 0 minutes 21 seconds 467 msec
