                         Program Version 4.2.1 -  RELEASE  -
|  1> ! wB97X-D3 SP def2-SVP
|  2> %pal
|  3> nprocs 24
|  4> end
|  5>
|  6> * xyz 0 1
|  7> S 	 -45.2451 	 8.84523 	 -23.0113
|  8> C 	 -46.9601 	 8.79136 	 -23.0754
|  9> C 	 -47.6208 	 9.86144 	 -23.7338
| 10> C 	 -46.6477 	 10.591 	 -24.3999
| 11> C 	 -45.3611 	 10.1052 	 -24.2327
| 12> H 	 -46.7699 	 11.4456 	 -25.0165
| 13> C 	 -49.0746 	 10.1893 	 -23.7989
| 14> H 	 -49.5783 	 9.27193 	 -24.1174
| 15> H 	 -49.2974 	 10.9552 	 -24.5734
| 16> C 	 -49.7524 	 10.7364 	 -22.5032
| 17> H 	 -49.3334 	 10.1241 	 -21.7302
| 18> H 	 -49.5639 	 11.7402 	 -22.4264
| 19> C 	 -51.3092 	 10.7063 	 -22.4387
| 20> H 	 -51.4667 	 11.0733 	 -21.4911
| 21> H 	 -51.761 	 11.331 	 -23.216
| 22> H 	 -51.7566 	 9.70118 	 -22.5259
| 23> S 	 -42.885 	 9.51217 	 -25.2589
| 24> C 	 -41.8266 	 10.7607 	 -25.6996
| 25> C 	 -42.361 	 12.0205 	 -25.5038
| 26> C 	 -43.6493 	 11.9931 	 -24.982
| 27> C 	 -44.1048 	 10.6685 	 -24.8134
| 28> H 	 -41.7813 	 12.8329 	 -25.9531
| 29> C 	 -44.4709 	 13.2668 	 -24.7249
| 30> H 	 -45.31 	 13.1736 	 -25.3506
| 31> H 	 -43.8207 	 14.1389 	 -25.0626
| 32> C 	 -44.7227 	 13.4575 	 -23.2633
| 33> H 	 -43.8057 	 13.3341 	 -22.7079
| 34> H 	 -45.2772 	 12.6753 	 -22.8394
| 35> C 	 -45.506 	 14.681 	 -22.927
| 36> H 	 -44.9389 	 15.5467 	 -23.2671
| 37> H 	 -45.5669 	 14.7322 	 -21.8445
| 38> H 	 -46.5512 	 14.5876 	 -23.2753
| 39> H 	 -47.5955 	 8.06029 	 -22.5398
| 40> H 	 -40.841 	 10.5295 	 -26.0637
| 41> *
| 42>
| 43>                          ****END OF INPUT****

CARTESIAN COORDINATES (ANGSTROEM)
---------------------------------
  S    -45.245100    8.845230  -23.011300
  C    -46.960100    8.791360  -23.075400
  C    -47.620800    9.861440  -23.733800
  C    -46.647700   10.591000  -24.399900
  C    -45.361100   10.105200  -24.232700
  H    -46.769900   11.445600  -25.016500
  C    -49.074600   10.189300  -23.798900
  H    -49.578300    9.271930  -24.117400
  H    -49.297400   10.955200  -24.573400
  C    -49.752400   10.736400  -22.503200
  H    -49.333400   10.124100  -21.730200
  H    -49.563900   11.740200  -22.426400
  C    -51.309200   10.706300  -22.438700
  H    -51.466700   11.073300  -21.491100
  H    -51.761000   11.331000  -23.216000
  H    -51.756600    9.701180  -22.525900
  S    -42.885000    9.512170  -25.258900
  C    -41.826600   10.760700  -25.699600
  C    -42.361000   12.020500  -25.503800
  C    -43.649300   11.993100  -24.982000
  C    -44.104800   10.668500  -24.813400
  H    -41.781300   12.832900  -25.953100
  C    -44.470900   13.266800  -24.724900
  H    -45.310000   13.173600  -25.350600
  H    -43.820700   14.138900  -25.062600
  C    -44.722700   13.457500  -23.263300
  H    -43.805700   13.334100  -22.707900
  H    -45.277200   12.675300  -22.839400
  C    -45.506000   14.681000  -22.927000
  H    -44.938900   15.546700  -23.267100
  H    -45.566900   14.732200  -21.844500
  H    -46.551200   14.587600  -23.275300
  H    -47.595500    8.060290  -22.539800
  H    -40.841000   10.529500  -26.063700

 Total Charge           Charge          ....    0
 Multiplicity           Mult            ....    1
 Number of Electrons    NEL             ....  134
 Basis Dimension        Dim             ....  322

ORBITAL ENERGIES
----------------

  NO   OCC          E(Eh)            E(eV)
   0   2.0000     -88.973750     -2421.0988
   1   2.0000     -88.964681     -2420.8521
   2   2.0000     -10.326431      -280.9965
   3   2.0000     -10.323483      -280.9162
   4   2.0000     -10.313495      -280.6445
   5   2.0000     -10.308692      -280.5138
   6   2.0000     -10.300344      -280.2866
   7   2.0000     -10.299526      -280.2643
   8   2.0000     -10.293682      -280.1053
   9   2.0000     -10.290392      -280.0158
  10   2.0000     -10.288476      -279.9637
  11   2.0000     -10.286060      -279.8979
  12   2.0000     -10.281329      -279.7692
  13   2.0000     -10.276975      -279.6507
  14   2.0000     -10.273303      -279.5508
  15   2.0000     -10.267854      -279.4025
  16   2.0000      -8.088401      -220.0966
  17   2.0000      -8.080709      -219.8873
  18   2.0000      -6.046585      -164.5360
  19   2.0000      -6.043221      -164.4444
  20   2.0000      -6.039224      -164.3356
  21   2.0000      -6.038838      -164.3251
  22   2.0000      -6.034941      -164.2191
  23   2.0000      -6.031896      -164.1362
  24   2.0000      -1.009856       -27.4796
  25   2.0000      -0.989734       -26.9320
  26   2.0000      -0.917276       -24.9604
  27   2.0000      -0.911179       -24.7945
  28   2.0000      -0.865609       -23.5544
  29   2.0000      -0.857247       -23.3269
  30   2.0000      -0.855365       -23.2757
  31   2.0000      -0.812327       -22.1045
  32   2.0000      -0.785891       -21.3852
  33   2.0000      -0.768949       -20.9242
  34   2.0000      -0.703929       -19.1549
  35   2.0000      -0.700886       -19.0721
  36   2.0000      -0.687170       -18.6989
  37   2.0000      -0.661824       -18.0092
  38   2.0000      -0.636920       -17.3315
  39   2.0000      -0.622292       -16.9334
  40   2.0000      -0.596416       -16.2293
  41   2.0000      -0.580597       -15.7989
  42   2.0000      -0.574151       -15.6234
  43   2.0000      -0.555637       -15.1197
  44   2.0000      -0.530610       -14.4386
  45   2.0000      -0.525167       -14.2905
  46   2.0000      -0.516917       -14.0660
  47   2.0000      -0.511868       -13.9286
  48   2.0000      -0.509236       -13.8570
  49   2.0000      -0.493337       -13.4244
  50   2.0000      -0.488276       -13.2867
  51   2.0000      -0.479977       -13.0608
  52   2.0000      -0.473955       -12.8970
  53   2.0000      -0.467444       -12.7198
  54   2.0000      -0.460178       -12.5221
  55   2.0000      -0.455417       -12.3925
  56   2.0000      -0.443600       -12.0710
  57   2.0000      -0.437897       -11.9158
  58   2.0000      -0.433660       -11.8005
  59   2.0000      -0.428299       -11.6546
  60   2.0000      -0.424083       -11.5399
  61   2.0000      -0.417864       -11.3707
  62   2.0000      -0.410505       -11.1704
  63   2.0000      -0.344250        -9.3675
  64   2.0000      -0.335627        -9.1329
  65   2.0000      -0.332607        -9.0507
  66   2.0000      -0.280916        -7.6441
  67   0.0000       0.026782         0.7288
  68   0.0000       0.070309         1.9132
  69   0.0000       0.103903         2.8273
  70   0.0000       0.122895         3.3442
  71   0.0000       0.131687         3.5834

MULLIKEN ATOMIC CHARGES
-----------------------
   0 S :    0.142613
   1 C :   -0.126420
   2 C :   -0.059552
   3 C :    0.011057
   4 C :   -0.134944
   5 H :   -0.015376
   6 C :    0.049916
   7 H :    0.030496
   8 H :    0.021734
   9 C :   -0.053856
  10 H :    0.024710
  11 H :    0.013704
  12 C :   -0.031444
  13 H :    0.023227
  14 H :    0.033906
  15 H :    0.031839
  16 S :    0.118508
  17 C :   -0.103824
  18 C :   -0.051485
  19 C :   -0.032345
  20 C :   -0.187717
  21 H :    0.025706
  22 C :    0.099865
  23 H :    0.022336
  24 H :    0.021622
  25 C :   -0.078428
  26 H :    0.018884
  27 H :    0.016694
  28 C :   -0.009353
  29 H :    0.026671
  30 H :    0.025476
  31 H :    0.032858
  32 H :    0.042938
  33 H :    0.049984
Sum of atomic charges:   -0.0000000

LOEWDIN ATOMIC CHARGES
----------------------
   0 S :    0.425906
   1 C :   -0.215642
   2 C :   -0.062034
   3 C :   -0.060219
   4 C :   -0.190715
   5 H :    0.024544
   6 C :   -0.037017
   7 H :    0.034116
   8 H :    0.031597
   9 C :   -0.024198
  10 H :    0.020437
  11 H :    0.013641
  12 C :   -0.055064
  13 H :    0.018496
  14 H :    0.025966
  15 H :    0.025041
  16 S :    0.438944
  17 C :   -0.201522
  18 C :   -0.082129
  19 C :   -0.054598
  20 C :   -0.211734
  21 H :    0.037005
  22 C :   -0.020723
  23 H :    0.020207
  24 H :    0.036670
  25 C :   -0.049481
  26 H :    0.026874
  27 H :    0.019230
  28 C :   -0.059369
  29 H :    0.021993
  30 H :    0.026926
  31 H :    0.028743
  32 H :    0.024928
  33 H :    0.023179

  Mayer bond orders larger than 0.100000
B(  0-S ,  1-C ) :   1.1600 B(  0-S ,  4-C ) :   1.1592 B(  1-C ,  2-C ) :   1.5678
B(  1-C ,  4-C ) :   0.1032 B(  1-C , 32-H ) :   0.9591 B(  2-C ,  3-C ) :   1.2715
B(  2-C ,  6-C ) :   1.0289 B(  3-C ,  4-C ) :   1.5559 B(  3-C ,  5-H ) :   1.0084
B(  4-C , 20-C ) :   1.0331 B(  6-C ,  7-H ) :   0.9349 B(  6-C ,  8-H ) :   0.9438
B(  6-C ,  9-C ) :   1.0580 B(  9-C , 10-H ) :   0.9617 B(  9-C , 11-H ) :   0.9587
B(  9-C , 12-C ) :   1.0795 B( 12-C , 13-H ) :   0.9749 B( 12-C , 14-H ) :   0.9763
B( 12-C , 15-H ) :   0.9765 B( 16-S , 17-C ) :   1.1911 B( 16-S , 20-C ) :   1.1729
B( 17-C , 18-C ) :   1.5624 B( 17-C , 20-C ) :   0.1079 B( 17-C , 33-H ) :   0.9680
B( 18-C , 19-C ) :   1.2933 B( 18-C , 21-H ) :   0.9896 B( 19-C , 20-C ) :   1.5359
B( 19-C , 22-C ) :   1.0207 B( 22-C , 23-H ) :   0.9337 B( 22-C , 24-H ) :   0.9330
B( 22-C , 25-C ) :   1.0706 B( 25-C , 26-H ) :   0.9455 B( 25-C , 27-H ) :   0.9473
B( 25-C , 28-C ) :   1.1005 B( 28-C , 29-H ) :   0.9722 B( 28-C , 30-H ) :   0.9701
B( 28-C , 31-H ) :   0.9704

Dispersion correction           -0.014348212
FINAL SINGLE POINT ENERGY     -1339.863313530931

DIPOLE MOMENT
-------------
                                X             Y             Z
Electronic contribution:     23.42977     -19.45390      -7.54814
Nuclear contribution   :    -23.77181      19.88102       7.63065
                        -----------------------------------------
Total Dipole Moment    :     -0.34204       0.42713       0.08252
                        -----------------------------------------
Magnitude (a.u.)       :      0.55338
Magnitude (Debye)      :      1.40659

Rotational constants in cm-1:     0.020568     0.008444     0.006514
Rotational constants in MHz :   616.604353   253.143233   195.289259

                             ****ORCA TERMINATED NORMALLY****
TOTAL RUN TIME: 0 days 0 hours 0 minutes 21 seconds 908 msec
