                         Program Version 4.2.1 -  RELEASE  -
|  1> ! wB97X-D3 SP def2-SVP
|  2> %pal
|  3> nprocs 24
|  4> end
|  5>
|  6> * xyz 0 1
|  7> S 	 -105.258 	 34.5235 	 -16.409
|  8> C 	 -103.528 	 34.3924 	 -15.9724
|  9> C 	 -102.718 	 34.5385 	 -17.0717
| 10> C 	 -103.469 	 34.7277 	 -18.3075
| 11> C 	 -104.826 	 34.6124 	 -18.1173
| 12> H 	 -103.055 	 34.7034 	 -19.3044
| 13> C 	 -101.215 	 34.344 	 -17.0747
| 14> H 	 -100.889 	 34.9322 	 -16.19
| 15> H 	 -100.882 	 34.779 	 -17.9698
| 16> C 	 -100.653 	 32.9519 	 -16.987
| 17> H 	 -101.168 	 32.4865 	 -16.209
| 18> H 	 -100.868 	 32.5722 	 -18.0067
| 19> C 	 -99.1455 	 32.9881 	 -16.6186
| 20> H 	 -98.5475 	 33.8616 	 -17.045
| 21> H 	 -98.9265 	 33.1002 	 -15.6307
| 22> H 	 -98.6101 	 32.1347 	 -16.9221
| 23> S 	 -107.387 	 35.5853 	 -18.6591
| 24> C 	 -108.152 	 35.0015 	 -20.0757
| 25> C 	 -107.253 	 34.5125 	 -20.9972
| 26> C 	 -105.949 	 34.2596 	 -20.4063
| 27> C 	 -105.902 	 34.7588 	 -19.1041
| 28> H 	 -107.644 	 34.2281 	 -21.9591
| 29> C 	 -104.9 	 33.37 	 -21.0693
| 30> H 	 -103.899 	 33.8108 	 -20.9056
| 31> H 	 -105.049 	 33.232 	 -22.1593
| 32> C 	 -104.971 	 31.8754 	 -20.5957
| 33> H 	 -106.017 	 31.4594 	 -20.6063
| 34> H 	 -104.797 	 31.7176 	 -19.5105
| 35> C 	 -104.033 	 31.015 	 -21.4341
| 36> H 	 -103.858 	 30.0096 	 -21.0742
| 37> H 	 -102.969 	 31.3463 	 -21.4331
| 38> H 	 -104.389 	 30.9027 	 -22.4678
| 39> H 	 -103.094 	 33.9512 	 -15.0849
| 40> H 	 -109.156 	 35.2394 	 -20.2575
| 41> *
| 42>
| 43>                          ****END OF INPUT****

CARTESIAN COORDINATES (ANGSTROEM)
---------------------------------
  S    -105.258000   34.523500  -16.409000
  C    -103.528000   34.392400  -15.972400
  C    -102.718000   34.538500  -17.071700
  C    -103.469000   34.727700  -18.307500
  C    -104.826000   34.612400  -18.117300
  H    -103.055000   34.703400  -19.304400
  C    -101.215000   34.344000  -17.074700
  H    -100.889000   34.932200  -16.190000
  H    -100.882000   34.779000  -17.969800
  C    -100.653000   32.951900  -16.987000
  H    -101.168000   32.486500  -16.209000
  H    -100.868000   32.572200  -18.006700
  C    -99.145500   32.988100  -16.618600
  H    -98.547500   33.861600  -17.045000
  H    -98.926500   33.100200  -15.630700
  H    -98.610100   32.134700  -16.922100
  S    -107.387000   35.585300  -18.659100
  C    -108.152000   35.001500  -20.075700
  C    -107.253000   34.512500  -20.997200
  C    -105.949000   34.259600  -20.406300
  C    -105.902000   34.758800  -19.104100
  H    -107.644000   34.228100  -21.959100
  C    -104.900000   33.370000  -21.069300
  H    -103.899000   33.810800  -20.905600
  H    -105.049000   33.232000  -22.159300
  C    -104.971000   31.875400  -20.595700
  H    -106.017000   31.459400  -20.606300
  H    -104.797000   31.717600  -19.510500
  C    -104.033000   31.015000  -21.434100
  H    -103.858000   30.009600  -21.074200
  H    -102.969000   31.346300  -21.433100
  H    -104.389000   30.902700  -22.467800
  H    -103.094000   33.951200  -15.084900
  H    -109.156000   35.239400  -20.257500

 Total Charge           Charge          ....    0
 Multiplicity           Mult            ....    1
 Number of Electrons    NEL             ....  134
 Basis Dimension        Dim             ....  322

ORBITAL ENERGIES
----------------

  NO   OCC          E(Eh)            E(eV)
   0   2.0000     -88.966310     -2420.8964
   1   2.0000     -88.965470     -2420.8735
   2   2.0000     -10.331776      -281.1419
   3   2.0000     -10.327352      -281.0215
   4   2.0000     -10.312260      -280.6109
   5   2.0000     -10.310983      -280.5761
   6   2.0000     -10.308857      -280.5183
   7   2.0000     -10.302808      -280.3537
   8   2.0000     -10.301461      -280.3170
   9   2.0000     -10.296377      -280.1787
  10   2.0000     -10.294948      -280.1398
  11   2.0000     -10.292977      -280.0861
  12   2.0000     -10.288000      -279.9507
  13   2.0000     -10.285538      -279.8837
  14   2.0000     -10.280426      -279.7446
  15   2.0000     -10.275358      -279.6067
  16   2.0000      -8.081033      -219.8961
  17   2.0000      -8.080129      -219.8715
  18   2.0000      -6.039508      -164.3434
  19   2.0000      -6.038871      -164.3260
  20   2.0000      -6.035482      -164.2338
  21   2.0000      -6.034850      -164.2166
  22   2.0000      -6.031729      -164.1317
  23   2.0000      -6.030595      -164.1008
  24   2.0000      -1.005998       -27.3746
  25   2.0000      -0.981477       -26.7074
  26   2.0000      -0.918146       -24.9840
  27   2.0000      -0.905872       -24.6500
  28   2.0000      -0.868788       -23.6409
  29   2.0000      -0.852931       -23.2094
  30   2.0000      -0.842369       -22.9220
  31   2.0000      -0.815299       -22.1854
  32   2.0000      -0.785625       -21.3779
  33   2.0000      -0.774216       -21.0675
  34   2.0000      -0.710879       -19.3440
  35   2.0000      -0.706086       -19.2136
  36   2.0000      -0.694561       -18.9000
  37   2.0000      -0.663957       -18.0672
  38   2.0000      -0.634144       -17.2559
  39   2.0000      -0.617831       -16.8120
  40   2.0000      -0.597778       -16.2664
  41   2.0000      -0.584977       -15.9180
  42   2.0000      -0.564524       -15.3615
  43   2.0000      -0.556792       -15.1511
  44   2.0000      -0.523301       -14.2397
  45   2.0000      -0.520129       -14.1534
  46   2.0000      -0.515157       -14.0181
  47   2.0000      -0.510895       -13.9022
  48   2.0000      -0.509895       -13.8749
  49   2.0000      -0.496560       -13.5121
  50   2.0000      -0.492648       -13.4056
  51   2.0000      -0.483260       -13.1502
  52   2.0000      -0.475348       -12.9349
  53   2.0000      -0.462640       -12.5891
  54   2.0000      -0.459764       -12.5108
  55   2.0000      -0.452810       -12.3216
  56   2.0000      -0.444665       -12.1000
  57   2.0000      -0.433498       -11.7961
  58   2.0000      -0.432723       -11.7750
  59   2.0000      -0.430002       -11.7010
  60   2.0000      -0.426525       -11.6063
  61   2.0000      -0.418115       -11.3775
  62   2.0000      -0.409553       -11.1445
  63   2.0000      -0.352926        -9.6036
  64   2.0000      -0.330879        -9.0037
  65   2.0000      -0.329764        -8.9733
  66   2.0000      -0.286870        -7.8061
  67   0.0000       0.022318         0.6073
  68   0.0000       0.074782         2.0349
  69   0.0000       0.098898         2.6911
  70   0.0000       0.113415         3.0862
  71   0.0000       0.129775         3.5314

MULLIKEN ATOMIC CHARGES
-----------------------
   0 S :    0.096112
   1 C :   -0.110498
   2 C :   -0.110875
   3 C :    0.029745
   4 C :   -0.137328
   5 H :    0.007732
   6 C :    0.034809
   7 H :    0.033163
   8 H :    0.008647
   9 C :    0.001705
  10 H :    0.013103
  11 H :    0.033703
  12 C :   -0.029726
  13 H :    0.026793
  14 H :    0.009118
  15 H :    0.024150
  16 S :    0.111919
  17 C :   -0.086904
  18 C :   -0.019299
  19 C :   -0.032285
  20 C :   -0.137913
  21 H :    0.016577
  22 C :    0.050714
  23 H :    0.028463
  24 H :    0.028528
  25 C :   -0.085263
  26 H :    0.035560
  27 H :    0.037015
  28 C :   -0.054538
  29 H :    0.025225
  30 H :    0.027326
  31 H :    0.036644
  32 H :    0.046608
  33 H :    0.041270
Sum of atomic charges:    0.0000000

LOEWDIN ATOMIC CHARGES
----------------------
   0 S :    0.379271
   1 C :   -0.195071
   2 C :   -0.054642
   3 C :   -0.068331
   4 C :   -0.174596
   5 H :    0.027697
   6 C :   -0.032995
   7 H :    0.034247
   8 H :    0.020490
   9 C :   -0.026698
  10 H :    0.016468
  11 H :    0.031617
  12 C :   -0.062162
  13 H :    0.034162
  14 H :    0.013371
  15 H :    0.021611
  16 S :    0.411389
  17 C :   -0.183461
  18 C :   -0.065661
  19 C :   -0.053663
  20 C :   -0.197540
  21 H :    0.030010
  22 C :   -0.031180
  23 H :    0.028403
  24 H :    0.035924
  25 C :   -0.047663
  26 H :    0.032143
  27 H :    0.027642
  28 C :   -0.076568
  29 H :    0.025883
  30 H :    0.028514
  31 H :    0.025770
  32 H :    0.029193
  33 H :    0.016426

  Mayer bond orders larger than 0.100000
B(  0-S ,  1-C ) :   1.1052 B(  0-S ,  4-C ) :   1.1383 B(  1-C ,  2-C ) :   1.6598
B(  1-C , 32-H ) :   0.9624 B(  2-C ,  3-C ) :   1.2129 B(  2-C ,  6-C ) :   1.0198
B(  3-C ,  4-C ) :   1.5973 B(  3-C ,  5-H ) :   0.9848 B(  4-C , 20-C ) :   1.0546
B(  6-C ,  7-H ) :   0.9411 B(  6-C ,  8-H ) :   0.9373 B(  6-C ,  9-C ) :   1.0663
B(  9-C , 10-H ) :   0.9559 B(  9-C , 11-H ) :   0.9566 B(  9-C , 12-C ) :   1.0711
B( 12-C , 13-H ) :   0.9746 B( 12-C , 14-H ) :   0.9732 B( 12-C , 15-H ) :   0.9748
B( 16-S , 17-C ) :   1.1574 B( 16-S , 20-C ) :   1.1408 B( 17-C , 18-C ) :   1.6188
B( 17-C , 33-H ) :   0.9727 B( 18-C , 19-C ) :   1.2230 B( 18-C , 21-H ) :   0.9942
B( 19-C , 20-C ) :   1.5981 B( 19-C , 22-C ) :   1.0515 B( 22-C , 23-H ) :   0.9341
B( 22-C , 24-H ) :   0.9411 B( 22-C , 25-C ) :   1.0417 B( 25-C , 26-H ) :   0.9551
B( 25-C , 27-H ) :   0.9555 B( 25-C , 28-C ) :   1.0810 B( 28-C , 29-H ) :   0.9714
B( 28-C , 30-H ) :   0.9723 B( 28-C , 31-H ) :   0.9742

Dispersion correction           -0.014157702
FINAL SINGLE POINT ENERGY     -1339.863453441662

DIPOLE MOMENT
-------------
                                X             Y             Z
Electronic contribution:    -26.08447      17.22675       8.41113
Nuclear contribution   :     26.54540     -17.72520      -8.79286
                        -----------------------------------------
Total Dipole Moment    :      0.46092      -0.49845      -0.38173
                        -----------------------------------------
Magnitude (a.u.)       :      0.77886
Magnitude (Debye)      :      1.97970

Rotational constants in cm-1:     0.019350     0.008669     0.006452
Rotational constants in MHz :   580.113266   259.878886   193.435310

                             ****ORCA TERMINATED NORMALLY****
TOTAL RUN TIME: 0 days 0 hours 0 minutes 21 seconds 699 msec
