                         Program Version 4.2.1 -  RELEASE  -
|  1> ! wB97X-D3 SP def2-SVP
|  2> %pal
|  3> nprocs 24
|  4> end
|  5>
|  6> * xyz 0 1
|  7> S 	 -106.388 	 19.2865 	 -119.01
|  8> C 	 -104.942 	 18.7948 	 -118.255
|  9> C 	 -103.974 	 18.4462 	 -119.129
| 10> C 	 -104.398 	 18.571 	 -120.465
| 11> C 	 -105.72 	 19.0127 	 -120.574
| 12> H 	 -103.862 	 18.2775 	 -121.368
| 13> C 	 -102.631 	 18.0095 	 -118.704
| 14> H 	 -102.704 	 17.7909 	 -117.634
| 15> H 	 -101.982 	 18.8965 	 -118.778
| 16> C 	 -102.014 	 16.7734 	 -119.39
| 17> H 	 -101.799 	 17.0402 	 -120.386
| 18> H 	 -101.064 	 16.5623 	 -119.005
| 19> C 	 -102.886 	 15.4965 	 -119.384
| 20> H 	 -102.702 	 14.9292 	 -120.301
| 21> H 	 -102.709 	 14.9018 	 -118.521
| 22> H 	 -103.948 	 15.7716 	 -119.515
| 23> S 	 -107.172 	 20.9022 	 -121.931
| 24> C 	 -107.829 	 20.5518 	 -123.532
| 25> C 	 -107.31 	 19.354 	 -123.992
| 26> C 	 -106.494 	 18.6817 	 -123.045
| 27> C 	 -106.342 	 19.3678 	 -121.865
| 28> H 	 -107.629 	 19.0298 	 -124.997
| 29> C 	 -106.144 	 17.2131 	 -123.335
| 30> H 	 -105.101 	 17.0908 	 -123.193
| 31> H 	 -106.23 	 16.9665 	 -124.421
| 32> C 	 -106.781 	 16.0866 	 -122.48
| 33> H 	 -107.726 	 15.7949 	 -122.937
| 34> H 	 -107.128 	 16.6171 	 -121.57
| 35> C 	 -105.983 	 14.7966 	 -122.337
| 36> H 	 -105.544 	 14.5027 	 -123.331
| 37> H 	 -106.677 	 14.0298 	 -121.977
| 38> H 	 -105.124 	 14.9445 	 -121.685
| 39> H 	 -104.887 	 18.7172 	 -117.145
| 40> H 	 -108.377 	 21.2477 	 -124.173
| 41> *
| 42>
| 43>                          ****END OF INPUT****

CARTESIAN COORDINATES (ANGSTROEM)
---------------------------------
  S    -106.388000   19.286500  -119.010000
  C    -104.942000   18.794800  -118.255000
  C    -103.974000   18.446200  -119.129000
  C    -104.398000   18.571000  -120.465000
  C    -105.720000   19.012700  -120.574000
  H    -103.862000   18.277500  -121.368000
  C    -102.631000   18.009500  -118.704000
  H    -102.704000   17.790900  -117.634000
  H    -101.982000   18.896500  -118.778000
  C    -102.014000   16.773400  -119.390000
  H    -101.799000   17.040200  -120.386000
  H    -101.064000   16.562300  -119.005000
  C    -102.886000   15.496500  -119.384000
  H    -102.702000   14.929200  -120.301000
  H    -102.709000   14.901800  -118.521000
  H    -103.948000   15.771600  -119.515000
  S    -107.172000   20.902200  -121.931000
  C    -107.829000   20.551800  -123.532000
  C    -107.310000   19.354000  -123.992000
  C    -106.494000   18.681700  -123.045000
  C    -106.342000   19.367800  -121.865000
  H    -107.629000   19.029800  -124.997000
  C    -106.144000   17.213100  -123.335000
  H    -105.101000   17.090800  -123.193000
  H    -106.230000   16.966500  -124.421000
  C    -106.781000   16.086600  -122.480000
  H    -107.726000   15.794900  -122.937000
  H    -107.128000   16.617100  -121.570000
  C    -105.983000   14.796600  -122.337000
  H    -105.544000   14.502700  -123.331000
  H    -106.677000   14.029800  -121.977000
  H    -105.124000   14.944500  -121.685000
  H    -104.887000   18.717200  -117.145000
  H    -108.377000   21.247700  -124.173000

 Total Charge           Charge          ....    0
 Multiplicity           Mult            ....    1
 Number of Electrons    NEL             ....  134
 Basis Dimension        Dim             ....  322

ORBITAL ENERGIES
----------------

  NO   OCC          E(Eh)            E(eV)
   0   2.0000     -88.969145     -2420.9735
   1   2.0000     -88.964592     -2420.8496
   2   2.0000     -10.329718      -281.0859
   3   2.0000     -10.328977      -281.0658
   4   2.0000     -10.317301      -280.7480
   5   2.0000     -10.309844      -280.5451
   6   2.0000     -10.302826      -280.3541
   7   2.0000     -10.294346      -280.1234
   8   2.0000     -10.293640      -280.1042
   9   2.0000     -10.292940      -280.0851
  10   2.0000     -10.289808      -279.9999
  11   2.0000     -10.289346      -279.9873
  12   2.0000     -10.282805      -279.8094
  13   2.0000     -10.282384      -279.7979
  14   2.0000     -10.279903      -279.7304
  15   2.0000     -10.276181      -279.6291
  16   2.0000      -8.085009      -220.0043
  17   2.0000      -8.079245      -219.8474
  18   2.0000      -6.043389      -164.4490
  19   2.0000      -6.039244      -164.3362
  20   2.0000      -6.037789      -164.2966
  21   2.0000      -6.035967      -164.2470
  22   2.0000      -6.033678      -164.1847
  23   2.0000      -6.030049      -164.0860
  24   2.0000      -1.014620       -27.6092
  25   2.0000      -0.990430       -26.9510
  26   2.0000      -0.915701       -24.9175
  27   2.0000      -0.902779       -24.5659
  28   2.0000      -0.870499       -23.6875
  29   2.0000      -0.853385       -23.2218
  30   2.0000      -0.847396       -23.0588
  31   2.0000      -0.816915       -22.2294
  32   2.0000      -0.782671       -21.2976
  33   2.0000      -0.773375       -21.0446
  34   2.0000      -0.713633       -19.4190
  35   2.0000      -0.699610       -19.0374
  36   2.0000      -0.688522       -18.7356
  37   2.0000      -0.662027       -18.0147
  38   2.0000      -0.640490       -17.4286
  39   2.0000      -0.623026       -16.9534
  40   2.0000      -0.593873       -16.1601
  41   2.0000      -0.566616       -15.4184
  42   2.0000      -0.557834       -15.1794
  43   2.0000      -0.555673       -15.1206
  44   2.0000      -0.546803       -14.8793
  45   2.0000      -0.521570       -14.1926
  46   2.0000      -0.517114       -14.0714
  47   2.0000      -0.509962       -13.8768
  48   2.0000      -0.504521       -13.7287
  49   2.0000      -0.498619       -13.5681
  50   2.0000      -0.490794       -13.3552
  51   2.0000      -0.482337       -13.1251
  52   2.0000      -0.473315       -12.8796
  53   2.0000      -0.469065       -12.7639
  54   2.0000      -0.463526       -12.6132
  55   2.0000      -0.447579       -12.1792
  56   2.0000      -0.441583       -12.0161
  57   2.0000      -0.438095       -11.9212
  58   2.0000      -0.429620       -11.6905
  59   2.0000      -0.428026       -11.6472
  60   2.0000      -0.423477       -11.5234
  61   2.0000      -0.416046       -11.3212
  62   2.0000      -0.404029       -10.9942
  63   2.0000      -0.351082        -9.5534
  64   2.0000      -0.334300        -9.0968
  65   2.0000      -0.331145        -9.0109
  66   2.0000      -0.291958        -7.9446
  67   0.0000       0.029918         0.8141
  68   0.0000       0.075162         2.0453
  69   0.0000       0.114403         3.1131
  70   0.0000       0.123885         3.3711
  71   0.0000       0.130958         3.5635

MULLIKEN ATOMIC CHARGES
-----------------------
   0 S :    0.133406
   1 C :   -0.154686
   2 C :   -0.076414
   3 C :    0.010751
   4 C :   -0.154953
   5 H :    0.017397
   6 C :    0.079673
   7 H :    0.009776
   8 H :    0.047283
   9 C :   -0.039151
  10 H :    0.008947
  11 H :    0.012291
  12 C :   -0.064475
  13 H :    0.033940
  14 H :    0.037478
  15 H :    0.052204
  16 S :    0.099610
  17 C :   -0.107811
  18 C :   -0.047389
  19 C :   -0.021784
  20 C :   -0.161190
  21 H :    0.028337
  22 C :    0.069253
  23 H :   -0.003003
  24 H :    0.020380
  25 C :   -0.069927
  26 H :    0.018752
  27 H :    0.037837
  28 C :   -0.052598
  29 H :    0.034715
  30 H :    0.046564
  31 H :    0.030338
  32 H :    0.061445
  33 H :    0.063003
Sum of atomic charges:   -0.0000000

LOEWDIN ATOMIC CHARGES
----------------------
   0 S :    0.440217
   1 C :   -0.213992
   2 C :   -0.075162
   3 C :   -0.060618
   4 C :   -0.207457
   5 H :    0.032409
   6 C :   -0.030942
   7 H :    0.028042
   8 H :    0.039970
   9 C :   -0.035096
  10 H :    0.015376
  11 H :    0.019714
  12 C :   -0.064242
  13 H :    0.028684
  14 H :    0.022321
  15 H :    0.030593
  16 S :    0.400527
  17 C :   -0.188347
  18 C :   -0.070611
  19 C :   -0.066105
  20 C :   -0.191680
  21 H :    0.036616
  22 C :   -0.035295
  23 H :    0.018440
  24 H :    0.031919
  25 C :   -0.046708
  26 H :    0.021121
  27 H :    0.029421
  28 C :   -0.064577
  29 H :    0.030818
  30 H :    0.033009
  31 H :    0.022332
  32 H :    0.036001
  33 H :    0.033303

  Mayer bond orders larger than 0.100000
B(  0-S ,  1-C ) :   1.1517 B(  0-S ,  4-C ) :   1.1754 B(  1-C ,  2-C ) :   1.5920
B(  1-C , 32-H ) :   0.9593 B(  2-C ,  3-C ) :   1.2567 B(  2-C ,  6-C ) :   1.0244
B(  3-C ,  4-C ) :   1.5351 B(  3-C ,  5-H ) :   0.9983 B(  4-C , 20-C ) :   1.0322
B(  6-C ,  7-H ) :   0.9384 B(  6-C ,  8-H ) :   0.9304 B(  6-C ,  9-C ) :   1.0744
B(  9-C , 10-H ) :   0.9541 B(  9-C , 11-H ) :   0.9521 B(  9-C , 12-C ) :   1.0727
B( 12-C , 13-H ) :   0.9747 B( 12-C , 14-H ) :   0.9746 B( 12-C , 15-H ) :   0.9729
B( 16-S , 17-C ) :   1.1457 B( 16-S , 20-C ) :   1.1455 B( 17-C , 18-C ) :   1.6187
B( 17-C , 33-H ) :   0.9645 B( 18-C , 19-C ) :   1.2484 B( 18-C , 21-H ) :   0.9863
B( 19-C , 20-C ) :   1.5974 B( 19-C , 22-C ) :   1.0421 B( 22-C , 23-H ) :   0.9315
B( 22-C , 24-H ) :   0.9331 B( 22-C , 25-C ) :   1.0459 B( 25-C , 26-H ) :   0.9562
B( 25-C , 27-H ) :   0.9586 B( 25-C , 28-C ) :   1.0743 B( 28-C , 29-H ) :   0.9726
B( 28-C , 30-H ) :   0.9728 B( 28-C , 31-H ) :   0.9724

Dispersion correction           -0.015617066
FINAL SINGLE POINT ENERGY     -1339.887694844471

DIPOLE MOMENT
-------------
                                X             Y             Z
Electronic contribution:    -14.37303      26.18396       2.71377
Nuclear contribution   :     14.74077     -26.64715      -2.86133
                        -----------------------------------------
Total Dipole Moment    :      0.36773      -0.46319      -0.14756
                        -----------------------------------------
Magnitude (a.u.)       :      0.60955
Magnitude (Debye)      :      1.54934

Rotational constants in cm-1:     0.018686     0.010145     0.007533
Rotational constants in MHz :   560.181345   304.140901   225.823525

                             ****ORCA TERMINATED NORMALLY****
TOTAL RUN TIME: 0 days 0 hours 0 minutes 22 seconds 808 msec
