                         Program Version 4.2.1 -  RELEASE  -
|  1> ! wB97X-D3 SP def2-SVP
|  2> %pal
|  3> nprocs 24
|  4> end
|  5>
|  6> * xyz 0 1
|  7> S 	 -110.316 	 -0.964966 	 -110.699
|  8> C 	 -111.933 	 -0.238936 	 -110.493
|  9> C 	 -111.834 	 0.828851 	 -109.635
| 10> C 	 -110.482 	 1.15962 	 -109.277
| 11> C 	 -109.536 	 0.282072 	 -109.78
| 12> H 	 -110.22 	 1.98505 	 -108.628
| 13> C 	 -112.956 	 1.67547 	 -109.184
| 14> H 	 -112.937 	 1.6971 	 -108.074
| 15> H 	 -113.926 	 1.25339 	 -109.343
| 16> C 	 -112.972 	 3.14957 	 -109.575
| 17> H 	 -113.429 	 3.77846 	 -108.792
| 18> H 	 -111.963 	 3.68299 	 -109.757
| 19> C 	 -113.812 	 3.45793 	 -110.872
| 20> H 	 -113.93 	 4.49439 	 -111.015
| 21> H 	 -113.232 	 3.24571 	 -111.767
| 22> H 	 -114.781 	 3.01879 	 -111.021
| 23> S 	 -107.386 	 0.176905 	 -108.03
| 24> C 	 -105.729 	 0.134137 	 -108.668
| 25> C 	 -105.755 	 -0.0347058 	 -110.057
| 26> C 	 -107.115 	 0.0615553 	 -110.587
| 27> C 	 -108.074 	 0.367653 	 -109.629
| 28> H 	 -104.841 	 -0.322951 	 -110.621
| 29> C 	 -107.252 	 -0.0332945 	 -112.125
| 30> H 	 -108.278 	 -0.065322 	 -112.422
| 31> H 	 -106.837 	 -0.96281 	 -112.414
| 32> C 	 -106.544 	 1.16933 	 -112.858
| 33> H 	 -106.627 	 0.850309 	 -113.958
| 34> H 	 -105.535 	 1.27238 	 -112.616
| 35> C 	 -107.246 	 2.47352 	 -112.622
| 36> H 	 -108.324 	 2.45704 	 -112.78
| 37> H 	 -106.739 	 3.24198 	 -113.224
| 38> H 	 -107.088 	 2.82802 	 -111.59
| 39> H 	 -112.88 	 -0.535855 	 -110.887
| 40> H 	 -104.835 	 0.168149 	 -108.023
| 41> *
| 42>
| 43>                          ****END OF INPUT****

CARTESIAN COORDINATES (ANGSTROEM)
---------------------------------
  S    -110.316000   -0.964966  -110.699000
  C    -111.933000   -0.238936  -110.493000
  C    -111.834000    0.828851  -109.635000
  C    -110.482000    1.159620  -109.277000
  C    -109.536000    0.282072  -109.780000
  H    -110.220000    1.985050  -108.628000
  C    -112.956000    1.675470  -109.184000
  H    -112.937000    1.697100  -108.074000
  H    -113.926000    1.253390  -109.343000
  C    -112.972000    3.149570  -109.575000
  H    -113.429000    3.778460  -108.792000
  H    -111.963000    3.682990  -109.757000
  C    -113.812000    3.457930  -110.872000
  H    -113.930000    4.494390  -111.015000
  H    -113.232000    3.245710  -111.767000
  H    -114.781000    3.018790  -111.021000
  S    -107.386000    0.176905  -108.030000
  C    -105.729000    0.134137  -108.668000
  C    -105.755000   -0.034706  -110.057000
  C    -107.115000    0.061555  -110.587000
  C    -108.074000    0.367653  -109.629000
  H    -104.841000   -0.322951  -110.621000
  C    -107.252000   -0.033294  -112.125000
  H    -108.278000   -0.065322  -112.422000
  H    -106.837000   -0.962810  -112.414000
  C    -106.544000    1.169330  -112.858000
  H    -106.627000    0.850309  -113.958000
  H    -105.535000    1.272380  -112.616000
  C    -107.246000    2.473520  -112.622000
  H    -108.324000    2.457040  -112.780000
  H    -106.739000    3.241980  -113.224000
  H    -107.088000    2.828020  -111.590000
  H    -112.880000   -0.535855  -110.887000
  H    -104.835000    0.168149  -108.023000

 Total Charge           Charge          ....    0
 Multiplicity           Mult            ....    1
 Number of Electrons    NEL             ....  134
 Basis Dimension        Dim             ....  322

ORBITAL ENERGIES
----------------

  NO   OCC          E(Eh)            E(eV)
   0   2.0000     -88.967081     -2420.9173
   1   2.0000     -88.964942     -2420.8591
   2   2.0000     -10.330642      -281.1110
   3   2.0000     -10.327865      -281.0355
   4   2.0000     -10.326486      -280.9980
   5   2.0000     -10.313788      -280.6524
   6   2.0000     -10.308157      -280.4992
   7   2.0000     -10.303156      -280.3631
   8   2.0000     -10.298853      -280.2460
   9   2.0000     -10.298055      -280.2243
  10   2.0000     -10.292501      -280.0732
  11   2.0000     -10.290561      -280.0204
  12   2.0000     -10.286622      -279.9132
  13   2.0000     -10.285416      -279.8804
  14   2.0000     -10.271029      -279.4889
  15   2.0000     -10.269813      -279.4558
  16   2.0000      -8.080953      -219.8939
  17   2.0000      -8.079291      -219.8487
  18   2.0000      -6.039646      -164.3471
  19   2.0000      -6.037990      -164.3021
  20   2.0000      -6.035492      -164.2341
  21   2.0000      -6.033945      -164.1920
  22   2.0000      -6.031634      -164.1291
  23   2.0000      -6.029769      -164.0783
  24   2.0000      -1.003514       -27.3070
  25   2.0000      -0.980352       -26.6767
  26   2.0000      -0.910961       -24.7885
  27   2.0000      -0.903975       -24.5984
  28   2.0000      -0.865955       -23.5638
  29   2.0000      -0.845767       -23.0145
  30   2.0000      -0.839551       -22.8453
  31   2.0000      -0.813809       -22.1449
  32   2.0000      -0.785048       -21.3622
  33   2.0000      -0.774181       -21.0665
  34   2.0000      -0.706650       -19.2289
  35   2.0000      -0.698255       -19.0005
  36   2.0000      -0.689683       -18.7672
  37   2.0000      -0.661348       -17.9962
  38   2.0000      -0.633649       -17.2425
  39   2.0000      -0.621070       -16.9002
  40   2.0000      -0.597583       -16.2611
  41   2.0000      -0.570023       -15.5111
  42   2.0000      -0.550891       -14.9905
  43   2.0000      -0.546686       -14.8761
  44   2.0000      -0.534767       -14.5517
  45   2.0000      -0.527178       -14.3452
  46   2.0000      -0.521809       -14.1992
  47   2.0000      -0.516522       -14.0553
  48   2.0000      -0.503169       -13.6919
  49   2.0000      -0.495187       -13.4747
  50   2.0000      -0.490349       -13.3431
  51   2.0000      -0.474957       -12.9242
  52   2.0000      -0.466835       -12.7032
  53   2.0000      -0.464692       -12.6449
  54   2.0000      -0.456881       -12.4324
  55   2.0000      -0.444580       -12.0976
  56   2.0000      -0.442026       -12.0281
  57   2.0000      -0.439956       -11.9718
  58   2.0000      -0.430713       -11.7203
  59   2.0000      -0.429612       -11.6903
  60   2.0000      -0.423068       -11.5123
  61   2.0000      -0.406649       -11.0655
  62   2.0000      -0.404366       -11.0034
  63   2.0000      -0.343131        -9.3371
  64   2.0000      -0.328502        -8.9390
  65   2.0000      -0.323981        -8.8160
  66   2.0000      -0.299504        -8.1499
  67   0.0000       0.028399         0.7728
  68   0.0000       0.071782         1.9533
  69   0.0000       0.101296         2.7564
  70   0.0000       0.118732         3.2309
  71   0.0000       0.124480         3.3873

MULLIKEN ATOMIC CHARGES
-----------------------
   0 S :    0.110937
   1 C :   -0.110860
   2 C :   -0.064074
   3 C :    0.015229
   4 C :   -0.138517
   5 H :    0.013496
   6 C :    0.093904
   7 H :    0.032039
   8 H :    0.006829
   9 C :   -0.117719
  10 H :    0.032835
  11 H :    0.050225
  12 C :   -0.042516
  13 H :    0.012347
  14 H :    0.022912
  15 H :    0.027139
  16 S :    0.096609
  17 C :   -0.109467
  18 C :   -0.043523
  19 C :   -0.090954
  20 C :   -0.114270
  21 H :    0.045002
  22 C :    0.099503
  23 H :    0.010885
  24 H :    0.019550
  25 C :   -0.078451
  26 H :    0.038549
  27 H :    0.019456
  28 C :   -0.049344
  29 H :    0.037802
  30 H :    0.031313
  31 H :    0.036976
  32 H :    0.032305
  33 H :    0.073852
Sum of atomic charges:   -0.0000000

LOEWDIN ATOMIC CHARGES
----------------------
   0 S :    0.408075
   1 C :   -0.187169
   2 C :   -0.062182
   3 C :   -0.061741
   4 C :   -0.194502
   5 H :    0.030953
   6 C :   -0.038882
   7 H :    0.041847
   8 H :    0.027428
   9 C :   -0.044181
  10 H :    0.025095
  11 H :    0.037913
  12 C :   -0.072733
  13 H :    0.019622
  14 H :    0.025666
  15 H :    0.019800
  16 S :    0.395057
  17 C :   -0.176896
  18 C :   -0.074596
  19 C :   -0.051777
  20 C :   -0.209343
  21 H :    0.040170
  22 C :   -0.026213
  23 H :    0.014955
  24 H :    0.025617
  25 C :   -0.034537
  26 H :    0.031707
  27 H :    0.012690
  28 C :   -0.068085
  29 H :    0.026232
  30 H :    0.028273
  31 H :    0.029267
  32 H :    0.027123
  33 H :    0.035349

  Mayer bond orders larger than 0.100000
B(  0-S ,  1-C ) :   1.1177 B(  0-S ,  4-C ) :   1.1447 B(  1-C ,  2-C ) :   1.6216
B(  1-C , 32-H ) :   0.9719 B(  2-C ,  3-C ) :   1.2212 B(  2-C ,  6-C ) :   1.0506
B(  3-C ,  4-C ) :   1.5670 B(  3-C ,  5-H ) :   0.9981 B(  4-C , 20-C ) :   1.0427
B(  6-C ,  7-H ) :   0.9292 B(  6-C ,  8-H ) :   0.9409 B(  6-C ,  9-C ) :   1.0498
B(  9-C , 10-H ) :   0.9603 B(  9-C , 11-H ) :   0.9588 B(  9-C , 12-C ) :   1.0736
B( 12-C , 13-H ) :   0.9721 B( 12-C , 14-H ) :   0.9763 B( 12-C , 15-H ) :   0.9784
B( 16-S , 17-C ) :   1.1559 B( 16-S , 20-C ) :   1.1324 B( 17-C , 18-C ) :   1.6036
B( 17-C , 33-H ) :   0.9664 B( 18-C , 19-C ) :   1.2247 B( 18-C , 21-H ) :   0.9841
B( 19-C , 20-C ) :   1.5845 B( 19-C , 22-C ) :   1.0389 B( 22-C , 23-H ) :   0.9351
B( 22-C , 24-H ) :   0.9330 B( 22-C , 25-C ) :   1.0678 B( 25-C , 26-H ) :   0.9555
B( 25-C , 27-H ) :   0.9576 B( 25-C , 28-C ) :   1.0814 B( 28-C , 29-H ) :   0.9755
B( 28-C , 30-H ) :   0.9700 B( 28-C , 31-H ) :   0.9708

Dispersion correction           -0.014641504
FINAL SINGLE POINT ENERGY     -1339.875028972521

DIPOLE MOMENT
-------------
                                X             Y             Z
Electronic contribution:      8.94576     -17.71071      13.00715
Nuclear contribution   :     -8.95698      17.98400     -13.18527
                        -----------------------------------------
Total Dipole Moment    :     -0.01122       0.27329      -0.17813
                        -----------------------------------------
Magnitude (a.u.)       :      0.32641
Magnitude (Debye)      :      0.82967

Rotational constants in cm-1:     0.020432     0.008112     0.007288
Rotational constants in MHz :   612.526525   243.178749   218.480160

                             ****ORCA TERMINATED NORMALLY****
TOTAL RUN TIME: 0 days 0 hours 0 minutes 20 seconds 508 msec
