                         Program Version 4.2.1 -  RELEASE  -
|  1> ! wB97X-D3 SP def2-SVP
|  2> %pal
|  3> nprocs 24
|  4> end
|  5>
|  6> * xyz 0 1
|  7> S 	 -131.101 	 56.707 	 -64.7563
|  8> C 	 -130.064 	 57.476 	 -65.848
|  9> C 	 -128.755 	 57.2534 	 -65.5664
| 10> C 	 -128.602 	 56.3804 	 -64.4714
| 11> C 	 -129.728 	 56.0159 	 -63.8064
| 12> H 	 -127.684 	 55.9773 	 -64.1831
| 13> C 	 -127.468 	 57.6747 	 -66.3394
| 14> H 	 -126.744 	 56.8212 	 -66.1778
| 15> H 	 -126.987 	 58.439 	 -65.7764
| 16> C 	 -127.519 	 57.9374 	 -67.8029
| 17> H 	 -128.33 	 58.5983 	 -68.0467
| 18> H 	 -126.574 	 58.3995 	 -68.0613
| 19> C 	 -127.881 	 56.6634 	 -68.5306
| 20> H 	 -128.906 	 56.4176 	 -68.5039
| 21> H 	 -127.632 	 56.727 	 -69.5751
| 22> H 	 -127.289 	 55.8269 	 -68.0551
| 23> S 	 -131.019 	 56.0516 	 -61.292
| 24> C 	 -130.583 	 54.8489 	 -60.0916
| 25> C 	 -129.643 	 53.9552 	 -60.6415
| 26> C 	 -129.278 	 54.2414 	 -61.9752
| 27> C 	 -129.869 	 55.3655 	 -62.4699
| 28> H 	 -129.26 	 53.201 	 -59.9916
| 29> C 	 -128.327 	 53.3034 	 -62.6766
| 30> H 	 -128.029 	 52.6049 	 -61.9661
| 31> H 	 -127.477 	 53.8738 	 -63.0155
| 32> C 	 -128.92 	 52.6183 	 -63.9036
| 33> H 	 -129.393 	 53.3164 	 -64.6249
| 34> H 	 -129.829 	 52.0115 	 -63.7026
| 35> C 	 -127.823 	 51.9259 	 -64.6841
| 36> H 	 -128.161 	 51.6193 	 -65.682
| 37> H 	 -127.494 	 51.079 	 -64.1058
| 38> H 	 -126.964 	 52.5729 	 -64.8126
| 39> H 	 -130.387 	 57.9242 	 -66.7945
| 40> H 	 -131.146 	 54.7258 	 -59.1261
| 41> *
| 42>
| 43>                          ****END OF INPUT****

CARTESIAN COORDINATES (ANGSTROEM)
---------------------------------
  S    -131.101000   56.707000  -64.756300
  C    -130.064000   57.476000  -65.848000
  C    -128.755000   57.253400  -65.566400
  C    -128.602000   56.380400  -64.471400
  C    -129.728000   56.015900  -63.806400
  H    -127.684000   55.977300  -64.183100
  C    -127.468000   57.674700  -66.339400
  H    -126.744000   56.821200  -66.177800
  H    -126.987000   58.439000  -65.776400
  C    -127.519000   57.937400  -67.802900
  H    -128.330000   58.598300  -68.046700
  H    -126.574000   58.399500  -68.061300
  C    -127.881000   56.663400  -68.530600
  H    -128.906000   56.417600  -68.503900
  H    -127.632000   56.727000  -69.575100
  H    -127.289000   55.826900  -68.055100
  S    -131.019000   56.051600  -61.292000
  C    -130.583000   54.848900  -60.091600
  C    -129.643000   53.955200  -60.641500
  C    -129.278000   54.241400  -61.975200
  C    -129.869000   55.365500  -62.469900
  H    -129.260000   53.201000  -59.991600
  C    -128.327000   53.303400  -62.676600
  H    -128.029000   52.604900  -61.966100
  H    -127.477000   53.873800  -63.015500
  C    -128.920000   52.618300  -63.903600
  H    -129.393000   53.316400  -64.624900
  H    -129.829000   52.011500  -63.702600
  C    -127.823000   51.925900  -64.684100
  H    -128.161000   51.619300  -65.682000
  H    -127.494000   51.079000  -64.105800
  H    -126.964000   52.572900  -64.812600
  H    -130.387000   57.924200  -66.794500
  H    -131.146000   54.725800  -59.126100

 Total Charge           Charge          ....    0
 Multiplicity           Mult            ....    1
 Number of Electrons    NEL             ....  134
 Basis Dimension        Dim             ....  322

ORBITAL ENERGIES
----------------

  NO   OCC          E(Eh)            E(eV)
   0   2.0000     -88.965914     -2420.8856
   1   2.0000     -88.963652     -2420.8240
   2   2.0000     -10.332978      -281.1746
   3   2.0000     -10.330374      -281.1038
   4   2.0000     -10.324027      -280.9311
   5   2.0000     -10.311263      -280.5837
   6   2.0000     -10.298456      -280.2352
   7   2.0000     -10.297222      -280.2017
   8   2.0000     -10.293434      -280.0986
   9   2.0000     -10.293160      -280.0911
  10   2.0000     -10.286067      -279.8981
  11   2.0000     -10.285710      -279.8884
  12   2.0000     -10.283069      -279.8165
  13   2.0000     -10.282356      -279.7971
  14   2.0000     -10.274188      -279.5749
  15   2.0000     -10.273431      -279.5543
  16   2.0000      -8.080020      -219.8685
  17   2.0000      -8.078733      -219.8335
  18   2.0000      -6.038567      -164.3178
  19   2.0000      -6.037262      -164.2823
  20   2.0000      -6.034556      -164.2086
  21   2.0000      -6.033137      -164.1700
  22   2.0000      -6.030833      -164.1073
  23   2.0000      -6.029492      -164.0708
  24   2.0000      -1.007574       -27.4175
  25   2.0000      -0.987775       -26.8787
  26   2.0000      -0.919348       -25.0167
  27   2.0000      -0.913521       -24.8582
  28   2.0000      -0.867629       -23.6094
  29   2.0000      -0.855203       -23.2713
  30   2.0000      -0.850583       -23.1455
  31   2.0000      -0.811759       -22.0891
  32   2.0000      -0.783736       -21.3265
  33   2.0000      -0.776151       -21.1201
  34   2.0000      -0.708649       -19.2833
  35   2.0000      -0.703299       -19.1377
  36   2.0000      -0.689060       -18.7503
  37   2.0000      -0.666874       -18.1466
  38   2.0000      -0.643368       -17.5069
  39   2.0000      -0.616311       -16.7707
  40   2.0000      -0.596843       -16.2409
  41   2.0000      -0.581881       -15.8338
  42   2.0000      -0.567484       -15.4420
  43   2.0000      -0.564271       -15.3546
  44   2.0000      -0.541357       -14.7311
  45   2.0000      -0.525944       -14.3117
  46   2.0000      -0.511596       -13.9212
  47   2.0000      -0.510372       -13.8879
  48   2.0000      -0.505302       -13.7500
  49   2.0000      -0.500305       -13.6140
  50   2.0000      -0.491994       -13.3878
  51   2.0000      -0.486859       -13.2481
  52   2.0000      -0.475799       -12.9471
  53   2.0000      -0.467957       -12.7338
  54   2.0000      -0.459364       -12.4999
  55   2.0000      -0.450086       -12.2475
  56   2.0000      -0.442447       -12.0396
  57   2.0000      -0.436684       -11.8828
  58   2.0000      -0.432471       -11.7681
  59   2.0000      -0.426179       -11.5969
  60   2.0000      -0.422193       -11.4885
  61   2.0000      -0.414149       -11.2696
  62   2.0000      -0.407879       -11.0990
  63   2.0000      -0.352428        -9.5900
  64   2.0000      -0.332782        -9.0555
  65   2.0000      -0.328139        -8.9291
  66   2.0000      -0.291442        -7.9305
  67   0.0000       0.029099         0.7918
  68   0.0000       0.069099         1.8803
  69   0.0000       0.112841         3.0705
  70   0.0000       0.119896         3.2625
  71   0.0000       0.136582         3.7166

MULLIKEN ATOMIC CHARGES
-----------------------
   0 S :    0.101346
   1 C :   -0.135471
   2 C :   -0.071815
   3 C :    0.038613
   4 C :   -0.146279
   5 H :   -0.023479
   6 C :    0.037590
   7 H :    0.021533
   8 H :    0.030479
   9 C :   -0.027254
  10 H :    0.021541
  11 H :    0.031278
  12 C :   -0.043767
  13 H :    0.027488
  14 H :    0.029265
  15 H :    0.026870
  16 S :    0.104350
  17 C :   -0.127815
  18 C :   -0.040243
  19 C :   -0.038897
  20 C :   -0.144515
  21 H :    0.013771
  22 C :    0.145379
  23 H :   -0.001289
  24 H :    0.017576
  25 C :   -0.116591
  26 H :    0.037756
  27 H :    0.031791
  28 C :   -0.012507
  29 H :    0.034225
  30 H :    0.022105
  31 H :    0.018396
  32 H :    0.054207
  33 H :    0.084362
Sum of atomic charges:   -0.0000000

LOEWDIN ATOMIC CHARGES
----------------------
   0 S :    0.400703
   1 C :   -0.213638
   2 C :   -0.068758
   3 C :   -0.054763
   4 C :   -0.172997
   5 H :    0.017998
   6 C :   -0.030165
   7 H :    0.032354
   8 H :    0.027363
   9 C :   -0.043744
  10 H :    0.022259
  11 H :    0.029641
  12 C :   -0.058905
  13 H :    0.019643
  14 H :    0.023913
  15 H :    0.028538
  16 S :    0.395092
  17 C :   -0.193522
  18 C :   -0.071741
  19 C :   -0.059507
  20 C :   -0.184918
  21 H :    0.027795
  22 C :   -0.017715
  23 H :    0.022171
  24 H :    0.029184
  25 C :   -0.048705
  26 H :    0.028100
  27 H :    0.028126
  28 C :   -0.059971
  29 H :    0.027774
  30 H :    0.020935
  31 H :    0.021493
  32 H :    0.033093
  33 H :    0.042876

  Mayer bond orders larger than 0.100000
B(  0-S ,  1-C ) :   1.1533 B(  0-S ,  4-C ) :   1.1286 B(  1-C ,  2-C ) :   1.6183
B(  1-C , 32-H ) :   0.9574 B(  2-C ,  3-C ) :   1.2675 B(  2-C ,  6-C ) :   0.9828
B(  3-C ,  4-C ) :   1.5827 B(  3-C ,  5-H ) :   1.0019 B(  4-C , 20-C ) :   1.0369
B(  6-C ,  7-H ) :   0.9490 B(  6-C ,  8-H ) :   0.9340 B(  6-C ,  9-C ) :   1.0901
B(  9-C , 10-H ) :   0.9482 B(  9-C , 11-H ) :   0.9476 B(  9-C , 12-C ) :   1.0759
B( 12-C , 13-H ) :   0.9738 B( 12-C , 14-H ) :   0.9729 B( 12-C , 15-H ) :   0.9767
B( 16-S , 17-C ) :   1.1647 B( 16-S , 20-C ) :   1.1334 B( 17-C , 18-C ) :   1.5861
B( 17-C , 20-C ) :   0.1018 B( 17-C , 33-H ) :   0.9597 B( 18-C , 19-C ) :   1.2595
B( 18-C , 21-H ) :   0.9943 B( 19-C , 20-C ) :   1.5968 B( 19-C , 22-C ) :   1.0403
B( 22-C , 23-H ) :   0.9254 B( 22-C , 24-H ) :   0.9259 B( 22-C , 25-C ) :   1.0593
B( 25-C , 26-H ) :   0.9558 B( 25-C , 27-H ) :   0.9515 B( 25-C , 28-C ) :   1.0828
B( 28-C , 29-H ) :   0.9728 B( 28-C , 30-H ) :   0.9736 B( 28-C , 31-H ) :   0.9723

Dispersion correction           -0.014679208
FINAL SINGLE POINT ENERGY     -1339.876067084226

DIPOLE MOMENT
-------------
                                X             Y             Z
Electronic contribution:    -19.12810      10.20056      19.31299
Nuclear contribution   :     19.69021     -10.47403     -19.57904
                        -----------------------------------------
Total Dipole Moment    :      0.56211      -0.27347      -0.26605
                        -----------------------------------------
Magnitude (a.u.)       :      0.67936
Magnitude (Debye)      :      1.72680

Rotational constants in cm-1:     0.020263     0.008788     0.006844
Rotational constants in MHz :   607.458801   263.453607   205.164761

                             ****ORCA TERMINATED NORMALLY****
TOTAL RUN TIME: 0 days 0 hours 0 minutes 22 seconds 92 msec
