                         Program Version 4.2.1 -  RELEASE  -
|  1> ! wB97X-D3 SP def2-SVP
|  2> %pal
|  3> nprocs 24
|  4> end
|  5>
|  6> * xyz 0 1
|  7> S 	 -135.624 	 27.6868 	 -21.236
|  8> C 	 -136.429 	 26.4316 	 -20.3405
|  9> C 	 -135.465 	 25.6294 	 -19.7579
| 10> C 	 -134.154 	 25.9659 	 -20.0518
| 11> C 	 -134.073 	 27.0737 	 -20.8224
| 12> H 	 -133.242 	 25.4259 	 -19.7511
| 13> C 	 -135.81 	 24.4046 	 -18.8964
| 14> H 	 -135.165 	 23.6353 	 -19.3463
| 15> H 	 -136.832 	 24.2241 	 -19.0152
| 16> C 	 -135.477 	 24.5441 	 -17.382
| 17> H 	 -135.726 	 23.6194 	 -16.8366
| 18> H 	 -134.405 	 24.8932 	 -17.2533
| 19> C 	 -136.373 	 25.6751 	 -16.7859
| 20> H 	 -137.436 	 25.3692 	 -16.9611
| 21> H 	 -136.219 	 25.737 	 -15.7251
| 22> H 	 -136.244 	 26.5921 	 -17.32
| 23> S 	 -132.951 	 28.2053 	 -23.041
| 24> C 	 -131.352 	 28.8138 	 -22.9322
| 25> C 	 -130.753 	 28.5577 	 -21.7089
| 26> C 	 -131.593 	 27.8398 	 -20.815
| 27> C 	 -132.888 	 27.6739 	 -21.3057
| 28> H 	 -129.712 	 28.9238 	 -21.4556
| 29> C 	 -131.191 	 27.6278 	 -19.3921
| 30> H 	 -132.083 	 27.4315 	 -18.8144
| 31> H 	 -130.793 	 28.5594 	 -18.9587
| 32> C 	 -130.074 	 26.5194 	 -19.1963
| 33> H 	 -129.928 	 26.4685 	 -18.1528
| 34> H 	 -129.111 	 26.8533 	 -19.5759
| 35> C 	 -130.418 	 25.0959 	 -19.7496
| 36> H 	 -131.441 	 24.9303 	 -19.4368
| 37> H 	 -129.771 	 24.3274 	 -19.4097
| 38> H 	 -130.298 	 25.1519 	 -20.8656
| 39> H 	 -137.446 	 26.1462 	 -20.4312
| 40> H 	 -130.824 	 29.469 	 -23.5732
| 41> *
| 42>
| 43>                          ****END OF INPUT****

CARTESIAN COORDINATES (ANGSTROEM)
---------------------------------
  S    -135.624000   27.686800  -21.236000
  C    -136.429000   26.431600  -20.340500
  C    -135.465000   25.629400  -19.757900
  C    -134.154000   25.965900  -20.051800
  C    -134.073000   27.073700  -20.822400
  H    -133.242000   25.425900  -19.751100
  C    -135.810000   24.404600  -18.896400
  H    -135.165000   23.635300  -19.346300
  H    -136.832000   24.224100  -19.015200
  C    -135.477000   24.544100  -17.382000
  H    -135.726000   23.619400  -16.836600
  H    -134.405000   24.893200  -17.253300
  C    -136.373000   25.675100  -16.785900
  H    -137.436000   25.369200  -16.961100
  H    -136.219000   25.737000  -15.725100
  H    -136.244000   26.592100  -17.320000
  S    -132.951000   28.205300  -23.041000
  C    -131.352000   28.813800  -22.932200
  C    -130.753000   28.557700  -21.708900
  C    -131.593000   27.839800  -20.815000
  C    -132.888000   27.673900  -21.305700
  H    -129.712000   28.923800  -21.455600
  C    -131.191000   27.627800  -19.392100
  H    -132.083000   27.431500  -18.814400
  H    -130.793000   28.559400  -18.958700
  C    -130.074000   26.519400  -19.196300
  H    -129.928000   26.468500  -18.152800
  H    -129.111000   26.853300  -19.575900
  C    -130.418000   25.095900  -19.749600
  H    -131.441000   24.930300  -19.436800
  H    -129.771000   24.327400  -19.409700
  H    -130.298000   25.151900  -20.865600
  H    -137.446000   26.146200  -20.431200
  H    -130.824000   29.469000  -23.573200

 Total Charge           Charge          ....    0
 Multiplicity           Mult            ....    1
 Number of Electrons    NEL             ....  134
 Basis Dimension        Dim             ....  322

ORBITAL ENERGIES
----------------

  NO   OCC          E(Eh)            E(eV)
   0   2.0000     -88.966504     -2420.9016
   1   2.0000     -88.966104     -2420.8908
   2   2.0000     -10.327937      -281.0374
   3   2.0000     -10.322432      -280.8877
   4   2.0000     -10.312829      -280.6263
   5   2.0000     -10.309212      -280.5279
   6   2.0000     -10.303457      -280.3713
   7   2.0000     -10.296706      -280.1876
   8   2.0000     -10.296198      -280.1738
   9   2.0000     -10.294561      -280.1292
  10   2.0000     -10.294320      -280.1227
  11   2.0000     -10.288396      -279.9615
  12   2.0000     -10.288295      -279.9588
  13   2.0000     -10.287583      -279.9394
  14   2.0000     -10.281641      -279.7777
  15   2.0000     -10.272865      -279.5389
  16   2.0000      -8.081963      -219.9214
  17   2.0000      -8.080515      -219.8820
  18   2.0000      -6.040403      -164.3677
  19   2.0000      -6.039054      -164.3310
  20   2.0000      -6.036296      -164.2560
  21   2.0000      -6.035119      -164.2239
  22   2.0000      -6.032815      -164.1612
  23   2.0000      -6.031205      -164.1174
  24   2.0000      -1.016879       -27.6707
  25   2.0000      -0.987076       -26.8597
  26   2.0000      -0.910692       -24.7812
  27   2.0000      -0.906497       -24.6670
  28   2.0000      -0.872881       -23.7523
  29   2.0000      -0.853149       -23.2154
  30   2.0000      -0.846687       -23.0395
  31   2.0000      -0.813407       -22.1339
  32   2.0000      -0.784123       -21.3371
  33   2.0000      -0.772599       -21.0235
  34   2.0000      -0.715943       -19.4818
  35   2.0000      -0.700340       -19.0572
  36   2.0000      -0.692366       -18.8402
  37   2.0000      -0.656943       -17.8763
  38   2.0000      -0.642991       -17.4967
  39   2.0000      -0.626359       -17.0441
  40   2.0000      -0.594509       -16.1774
  41   2.0000      -0.564049       -15.3486
  42   2.0000      -0.556195       -15.1348
  43   2.0000      -0.551556       -15.0086
  44   2.0000      -0.543798       -14.7975
  45   2.0000      -0.540735       -14.7141
  46   2.0000      -0.519946       -14.1484
  47   2.0000      -0.515414       -14.0251
  48   2.0000      -0.512073       -13.9342
  49   2.0000      -0.499019       -13.5790
  50   2.0000      -0.486176       -13.2295
  51   2.0000      -0.477639       -12.9972
  52   2.0000      -0.470506       -12.8031
  53   2.0000      -0.465015       -12.6537
  54   2.0000      -0.461909       -12.5692
  55   2.0000      -0.452464       -12.3122
  56   2.0000      -0.444326       -12.0907
  57   2.0000      -0.439313       -11.9543
  58   2.0000      -0.431760       -11.7488
  59   2.0000      -0.425678       -11.5833
  60   2.0000      -0.422736       -11.5032
  61   2.0000      -0.417032       -11.3480
  62   2.0000      -0.410687       -11.1754
  63   2.0000      -0.352681        -9.5969
  64   2.0000      -0.334411        -9.0998
  65   2.0000      -0.331463        -9.0196
  66   2.0000      -0.286755        -7.8030
  67   0.0000       0.020696         0.5632
  68   0.0000       0.077668         2.1135
  69   0.0000       0.109991         2.9930
  70   0.0000       0.121565         3.3079
  71   0.0000       0.129605         3.5267

MULLIKEN ATOMIC CHARGES
-----------------------
   0 S :    0.113201
   1 C :   -0.108633
   2 C :   -0.123561
   3 C :    0.025107
   4 C :   -0.118427
   5 H :   -0.022900
   6 C :    0.105600
   7 H :    0.035728
   8 H :   -0.003047
   9 C :   -0.090364
  10 H :    0.043634
  11 H :    0.038856
  12 C :   -0.062999
  13 H :    0.019590
  14 H :    0.036329
  15 H :    0.046136
  16 S :    0.099973
  17 C :   -0.051155
  18 C :   -0.075409
  19 C :   -0.005974
  20 C :   -0.153680
  21 H :    0.038623
  22 C :    0.021040
  23 H :    0.022248
  24 H :    0.036675
  25 C :   -0.067196
  26 H :    0.017716
  27 H :    0.023896
  28 C :   -0.045699
  29 H :    0.034468
  30 H :    0.032786
  31 H :    0.055456
  32 H :    0.041147
  33 H :    0.040834
Sum of atomic charges:   -0.0000000

LOEWDIN ATOMIC CHARGES
----------------------
   0 S :    0.424870
   1 C :   -0.206796
   2 C :   -0.060103
   3 C :   -0.072259
   4 C :   -0.200956
   5 H :    0.033643
   6 C :   -0.023530
   7 H :    0.033898
   8 H :    0.016565
   9 C :   -0.039847
  10 H :    0.027136
  11 H :    0.027055
  12 C :   -0.065094
  13 H :    0.024641
  14 H :    0.021547
  15 H :    0.022590
  16 S :    0.392422
  17 C :   -0.191307
  18 C :   -0.077164
  19 C :   -0.057735
  20 C :   -0.173923
  21 H :    0.040859
  22 C :   -0.030185
  23 H :    0.026530
  24 H :    0.037267
  25 C :   -0.033106
  26 H :    0.016263
  27 H :    0.019034
  28 C :   -0.061514
  29 H :    0.019405
  30 H :    0.022874
  31 H :    0.037270
  32 H :    0.024506
  33 H :    0.025141

  Mayer bond orders larger than 0.100000
B(  0-S ,  1-C ) :   1.1307 B(  0-S ,  4-C ) :   1.1650 B(  1-C ,  2-C ) :   1.5850
B(  1-C , 32-H ) :   0.9721 B(  2-C ,  3-C ) :   1.2688 B(  2-C ,  6-C ) :   1.0159
B(  3-C ,  4-C ) :   1.5384 B(  3-C ,  5-H ) :   0.9935 B(  4-C , 20-C ) :   1.0766
B(  6-C ,  7-H ) :   0.9400 B(  6-C ,  8-H ) :   0.9398 B(  6-C ,  9-C ) :   1.0689
B(  9-C , 10-H ) :   0.9587 B(  9-C , 11-H ) :   0.9571 B(  9-C , 12-C ) :   1.0642
B( 12-C , 13-H ) :   0.9757 B( 12-C , 14-H ) :   0.9754 B( 12-C , 15-H ) :   0.9774
B( 16-S , 17-C ) :   1.1525 B( 16-S , 20-C ) :   1.1152 B( 17-C , 18-C ) :   1.6226
B( 17-C , 20-C ) :   0.1030 B( 17-C , 33-H ) :   0.9649 B( 18-C , 19-C ) :   1.2331
B( 18-C , 21-H ) :   0.9773 B( 19-C , 20-C ) :   1.5806 B( 19-C , 22-C ) :   1.0498
B( 22-C , 23-H ) :   0.9423 B( 22-C , 24-H ) :   0.9411 B( 22-C , 25-C ) :   1.0621
B( 25-C , 26-H ) :   0.9570 B( 25-C , 27-H ) :   0.9593 B( 25-C , 28-C ) :   1.0682
B( 28-C , 29-H ) :   0.9728 B( 28-C , 30-H ) :   0.9678 B( 28-C , 31-H ) :   0.9752

Dispersion correction           -0.015412708
FINAL SINGLE POINT ENERGY     -1339.881334500209

DIPOLE MOMENT
-------------
                                X             Y             Z
Electronic contribution:     -6.18436      14.78012     -23.06731
Nuclear contribution   :      6.56246     -15.04828      23.54169
                        -----------------------------------------
Total Dipole Moment    :      0.37810      -0.26815       0.47438
                        -----------------------------------------
Magnitude (a.u.)       :      0.66325
Magnitude (Debye)      :      1.68586

Rotational constants in cm-1:     0.019575     0.009861     0.007203
Rotational constants in MHz :   586.840614   295.634027   215.940147

                             ****ORCA TERMINATED NORMALLY****
TOTAL RUN TIME: 0 days 0 hours 0 minutes 21 seconds 651 msec
