                         Program Version 4.2.1 -  RELEASE  -
|  1> ! wB97X-D3 SP def2-SVP
|  2> %pal
|  3> nprocs 24
|  4> end
|  5>
|  6> * xyz 0 1
|  7> S 	 -114.77 	 22.5484 	 -114.715
|  8> C 	 -116.486 	 22.4744 	 -114.93
|  9> C 	 -117.161 	 22.9738 	 -113.837
| 10> C 	 -116.256 	 23.2066 	 -112.743
| 11> C 	 -114.881 	 23.0288 	 -113.097
| 12> H 	 -116.623 	 23.6391 	 -111.796
| 13> C 	 -118.691 	 23.2008 	 -113.736
| 14> H 	 -118.918 	 23.8162 	 -114.551
| 15> H 	 -118.985 	 23.8547 	 -112.959
| 16> C 	 -119.484 	 21.8261 	 -113.631
| 17> H 	 -118.846 	 21.1362 	 -114.234
| 18> H 	 -119.418 	 21.3553 	 -112.612
| 19> C 	 -120.877 	 21.9068 	 -114.211
| 20> H 	 -121.407 	 22.5737 	 -113.535
| 21> H 	 -120.941 	 22.3035 	 -115.221
| 22> H 	 -121.285 	 20.8768 	 -114.179
| 23> S 	 -112.855 	 24.7222 	 -113.163
| 24> C 	 -111.635 	 24.739 	 -111.96
| 25> C 	 -112.046 	 24.0516 	 -110.852
| 26> C 	 -113.373 	 23.4378 	 -111.014
| 27> C 	 -113.817 	 23.6155 	 -112.304
| 28> H 	 -111.427 	 23.9216 	 -109.971
| 29> C 	 -113.995 	 22.464 	 -109.986
| 30> H 	 -115.005 	 22.1875 	 -110.387
| 31> H 	 -114.212 	 22.9325 	 -109.033
| 32> C 	 -113.019 	 21.2703 	 -109.655
| 33> H 	 -113.219 	 20.7354 	 -108.696
| 34> H 	 -112.014 	 21.5755 	 -109.493
| 35> C 	 -112.949 	 20.127 	 -110.621
| 36> H 	 -113.932 	 19.9664 	 -110.973
| 37> H 	 -112.407 	 19.2415 	 -110.19
| 38> H 	 -112.376 	 20.4824 	 -111.503
| 39> H 	 -116.96 	 22.3236 	 -115.848
| 40> H 	 -110.779 	 25.371 	 -111.971
| 41> *
| 42>
| 43>                          ****END OF INPUT****

CARTESIAN COORDINATES (ANGSTROEM)
---------------------------------
  S    -114.770000   22.548400  -114.715000
  C    -116.486000   22.474400  -114.930000
  C    -117.161000   22.973800  -113.837000
  C    -116.256000   23.206600  -112.743000
  C    -114.881000   23.028800  -113.097000
  H    -116.623000   23.639100  -111.796000
  C    -118.691000   23.200800  -113.736000
  H    -118.918000   23.816200  -114.551000
  H    -118.985000   23.854700  -112.959000
  C    -119.484000   21.826100  -113.631000
  H    -118.846000   21.136200  -114.234000
  H    -119.418000   21.355300  -112.612000
  C    -120.877000   21.906800  -114.211000
  H    -121.407000   22.573700  -113.535000
  H    -120.941000   22.303500  -115.221000
  H    -121.285000   20.876800  -114.179000
  S    -112.855000   24.722200  -113.163000
  C    -111.635000   24.739000  -111.960000
  C    -112.046000   24.051600  -110.852000
  C    -113.373000   23.437800  -111.014000
  C    -113.817000   23.615500  -112.304000
  H    -111.427000   23.921600  -109.971000
  C    -113.995000   22.464000  -109.986000
  H    -115.005000   22.187500  -110.387000
  H    -114.212000   22.932500  -109.033000
  C    -113.019000   21.270300  -109.655000
  H    -113.219000   20.735400  -108.696000
  H    -112.014000   21.575500  -109.493000
  C    -112.949000   20.127000  -110.621000
  H    -113.932000   19.966400  -110.973000
  H    -112.407000   19.241500  -110.190000
  H    -112.376000   20.482400  -111.503000
  H    -116.960000   22.323600  -115.848000
  H    -110.779000   25.371000  -111.971000

 Total Charge           Charge          ....    0
 Multiplicity           Mult            ....    1
 Number of Electrons    NEL             ....  134
 Basis Dimension        Dim             ....  322

ORBITAL ENERGIES
----------------

  NO   OCC          E(Eh)            E(eV)
   0   2.0000     -88.973156     -2421.0827
   1   2.0000     -88.959532     -2420.7119
   2   2.0000     -10.329135      -281.0701
   3   2.0000     -10.322282      -280.8836
   4   2.0000     -10.308910      -280.5197
   5   2.0000     -10.308796      -280.5166
   6   2.0000     -10.304193      -280.3913
   7   2.0000     -10.303227      -280.3650
   8   2.0000     -10.299492      -280.2634
   9   2.0000     -10.298383      -280.2332
  10   2.0000     -10.294463      -280.1266
  11   2.0000     -10.294259      -280.1210
  12   2.0000     -10.290653      -280.0229
  13   2.0000     -10.280994      -279.7601
  14   2.0000     -10.280378      -279.7433
  15   2.0000     -10.267668      -279.3974
  16   2.0000      -8.088587      -220.1016
  17   2.0000      -8.076309      -219.7675
  18   2.0000      -6.047002      -164.5473
  19   2.0000      -6.042825      -164.4336
  20   2.0000      -6.039558      -164.3447
  21   2.0000      -6.034779      -164.2147
  22   2.0000      -6.030405      -164.0957
  23   2.0000      -6.027107      -164.0059
  24   2.0000      -1.016408       -27.6579
  25   2.0000      -0.990417       -26.9506
  26   2.0000      -0.908971       -24.7344
  27   2.0000      -0.902701       -24.5637
  28   2.0000      -0.872949       -23.7541
  29   2.0000      -0.852561       -23.1994
  30   2.0000      -0.845033       -22.9945
  31   2.0000      -0.812106       -22.0985
  32   2.0000      -0.784256       -21.3407
  33   2.0000      -0.773624       -21.0514
  34   2.0000      -0.703068       -19.1315
  35   2.0000      -0.700179       -19.0528
  36   2.0000      -0.692614       -18.8470
  37   2.0000      -0.659584       -17.9482
  38   2.0000      -0.640636       -17.4326
  39   2.0000      -0.616249       -16.7690
  40   2.0000      -0.596477       -16.2310
  41   2.0000      -0.574981       -15.6460
  42   2.0000      -0.553891       -15.0721
  43   2.0000      -0.547378       -14.8949
  44   2.0000      -0.534676       -14.5493
  45   2.0000      -0.530798       -14.4438
  46   2.0000      -0.522482       -14.2174
  47   2.0000      -0.512699       -13.9513
  48   2.0000      -0.504921       -13.7396
  49   2.0000      -0.503043       -13.6885
  50   2.0000      -0.495386       -13.4801
  51   2.0000      -0.476897       -12.9770
  52   2.0000      -0.471523       -12.8308
  53   2.0000      -0.468275       -12.7424
  54   2.0000      -0.458127       -12.4663
  55   2.0000      -0.448247       -12.1974
  56   2.0000      -0.440833       -11.9957
  57   2.0000      -0.440023       -11.9736
  58   2.0000      -0.430078       -11.7030
  59   2.0000      -0.424415       -11.5489
  60   2.0000      -0.420126       -11.4322
  61   2.0000      -0.411553       -11.1989
  62   2.0000      -0.400495       -10.8980
  63   2.0000      -0.349125        -9.5002
  64   2.0000      -0.334491        -9.1020
  65   2.0000      -0.324520        -8.8306
  66   2.0000      -0.291539        -7.9332
  67   0.0000       0.031003         0.8436
  68   0.0000       0.075741         2.0610
  69   0.0000       0.116867         3.1801
  70   0.0000       0.121853         3.3158
  71   0.0000       0.133696         3.6381

MULLIKEN ATOMIC CHARGES
-----------------------
   0 S :    0.140214
   1 C :   -0.103014
   2 C :   -0.124564
   3 C :    0.018204
   4 C :   -0.139872
   5 H :    0.024994
   6 C :    0.106100
   7 H :    0.012290
   8 H :    0.006597
   9 C :   -0.107841
  10 H :    0.028174
  11 H :    0.043864
  12 C :   -0.032110
  13 H :    0.030999
  14 H :    0.037445
  15 H :    0.043943
  16 S :    0.105951
  17 C :   -0.074584
  18 C :   -0.046842
  19 C :   -0.046784
  20 C :   -0.165398
  21 H :    0.023163
  22 C :    0.087429
  23 H :    0.029151
  24 H :    0.030316
  25 C :   -0.092741
  26 H :    0.020468
  27 H :    0.011989
  28 C :   -0.040328
  29 H :    0.020126
  30 H :    0.045136
  31 H :    0.029894
  32 H :    0.029784
  33 H :    0.047846
Sum of atomic charges:   -0.0000000

LOEWDIN ATOMIC CHARGES
----------------------
   0 S :    0.457842
   1 C :   -0.204258
   2 C :   -0.056352
   3 C :   -0.064807
   4 C :   -0.228575
   5 H :    0.032067
   6 C :   -0.026704
   7 H :    0.025051
   8 H :    0.023128
   9 C :   -0.043863
  10 H :    0.022268
  11 H :    0.032670
  12 C :   -0.065997
  13 H :    0.024893
  14 H :    0.025589
  15 H :    0.033029
  16 S :    0.431446
  17 C :   -0.197554
  18 C :   -0.066963
  19 C :   -0.062261
  20 C :   -0.206508
  21 H :    0.029668
  22 C :   -0.027726
  23 H :    0.033913
  24 H :    0.032632
  25 C :   -0.047766
  26 H :    0.024886
  27 H :    0.016191
  28 C :   -0.065421
  29 H :    0.017524
  30 H :    0.033234
  31 H :    0.026202
  32 H :    0.017385
  33 H :    0.025137

  Mayer bond orders larger than 0.100000
B(  0-S ,  1-C ) :   1.1561 B(  0-S ,  4-C ) :   1.1902 B(  1-C ,  2-C ) :   1.5750
B(  1-C , 32-H ) :   0.9724 B(  2-C ,  3-C ) :   1.3147 B(  2-C ,  6-C ) :   1.0195
B(  3-C ,  4-C ) :   1.4830 B(  3-C ,  5-H ) :   0.9834 B(  4-C , 20-C ) :   1.0378
B(  6-C ,  7-H ) :   0.9414 B(  6-C ,  8-H ) :   0.9393 B(  6-C ,  9-C ) :   1.0341
B(  9-C , 10-H ) :   0.9665 B(  9-C , 11-H ) :   0.9552 B(  9-C , 12-C ) :   1.0734
B( 12-C , 13-H ) :   0.9752 B( 12-C , 14-H ) :   0.9768 B( 12-C , 15-H ) :   0.9719
B( 16-S , 17-C ) :   1.1427 B( 16-S , 20-C ) :   1.1649 B( 17-C , 18-C ) :   1.6229
B( 17-C , 33-H ) :   0.9729 B( 18-C , 19-C ) :   1.2243 B( 18-C , 21-H ) :   0.9885
B( 19-C , 20-C ) :   1.6001 B( 19-C , 22-C ) :   1.0467 B( 22-C , 23-H ) :   0.9408
B( 22-C , 24-H ) :   0.9322 B( 22-C , 25-C ) :   1.0522 B( 25-C , 26-H ) :   0.9583
B( 25-C , 27-H ) :   0.9580 B( 25-C , 28-C ) :   1.0779 B( 28-C , 29-H ) :   0.9745
B( 28-C , 30-H ) :   0.9732 B( 28-C , 31-H ) :   0.9765

Dispersion correction           -0.014171697
FINAL SINGLE POINT ENERGY     -1339.863146832243

DIPOLE MOMENT
-------------
                                X             Y             Z
Electronic contribution:     17.32689      13.51668     -10.89475
Nuclear contribution   :    -17.74041     -13.47793      11.15954
                        -----------------------------------------
Total Dipole Moment    :     -0.41351       0.03875       0.26479
                        -----------------------------------------
Magnitude (a.u.)       :      0.49255
Magnitude (Debye)      :      1.25197

Rotational constants in cm-1:     0.021976     0.007558     0.006493
Rotational constants in MHz :   658.823114   226.577283   194.653180

                             ****ORCA TERMINATED NORMALLY****
TOTAL RUN TIME: 0 days 0 hours 0 minutes 21 seconds 278 msec
