                         Program Version 4.2.1 -  RELEASE  -
|  1> ! wB97X-D3 SP def2-SVP
|  2> %pal
|  3> nprocs 24
|  4> end
|  5>
|  6> * xyz 0 1
|  7> S 	 -71.2922 	 8.81379 	 16.6024
|  8> C 	 -69.8826 	 9.53511 	 15.8745
|  9> C 	 -68.6502 	 8.85045 	 16.1273
| 10> C 	 -68.9962 	 7.6309 	 16.8694
| 11> C 	 -70.3705 	 7.39704 	 17.1184
| 12> H 	 -68.2687 	 6.88422 	 16.9708
| 13> C 	 -67.2592 	 9.18399 	 15.6375
| 14> H 	 -66.6076 	 9.54998 	 16.4692
| 15> H 	 -67.2701 	 10.0685 	 14.9804
| 16> C 	 -66.5306 	 8.12484 	 14.7143
| 17> H 	 -65.4811 	 8.45628 	 14.7807
| 18> H 	 -66.4863 	 7.14929 	 15.1886
| 19> C 	 -66.9981 	 8.00032 	 13.2852
| 20> H 	 -68.0771 	 7.76264 	 13.2194
| 21> H 	 -66.8229 	 8.91719 	 12.756
| 22> H 	 -66.5312 	 7.21055 	 12.8595
| 23> S 	 -71.9347 	 6.00788 	 18.79
| 24> C 	 -72.1071 	 4.2148 	 18.6332
| 25> C 	 -71.094 	 3.70949 	 17.8436
| 26> C 	 -70.5094 	 4.77267 	 17.0598
| 27> C 	 -70.9706 	 6.05458 	 17.3586
| 28> H 	 -70.8658 	 2.67184 	 17.9007
| 29> C 	 -69.4631 	 4.48641 	 16.0881
| 30> H 	 -69.0785 	 5.34684 	 15.5801
| 31> H 	 -70.0018 	 3.97895 	 15.2539
| 32> C 	 -68.3365 	 3.53294 	 16.5474
| 33> H 	 -68.7424 	 2.50841 	 16.4535
| 34> H 	 -68.1464 	 3.8 	 17.5781
| 35> C 	 -67.1391 	 3.57598 	 15.679
| 36> H 	 -66.7587 	 4.58023 	 15.7088
| 37> H 	 -67.5 	 3.31119 	 14.697
| 38> H 	 -66.4101 	 2.82203 	 15.8931
| 39> H 	 -69.8456 	 10.4565 	 15.3098
| 40> H 	 -72.7462 	 3.5911 	 19.2667
| 41> *
| 42>
| 43>                          ****END OF INPUT****

CARTESIAN COORDINATES (ANGSTROEM)
---------------------------------
  S    -71.292200    8.813790   16.602400
  C    -69.882600    9.535110   15.874500
  C    -68.650200    8.850450   16.127300
  C    -68.996200    7.630900   16.869400
  C    -70.370500    7.397040   17.118400
  H    -68.268700    6.884220   16.970800
  C    -67.259200    9.183990   15.637500
  H    -66.607600    9.549980   16.469200
  H    -67.270100   10.068500   14.980400
  C    -66.530600    8.124840   14.714300
  H    -65.481100    8.456280   14.780700
  H    -66.486300    7.149290   15.188600
  C    -66.998100    8.000320   13.285200
  H    -68.077100    7.762640   13.219400
  H    -66.822900    8.917190   12.756000
  H    -66.531200    7.210550   12.859500
  S    -71.934700    6.007880   18.790000
  C    -72.107100    4.214800   18.633200
  C    -71.094000    3.709490   17.843600
  C    -70.509400    4.772670   17.059800
  C    -70.970600    6.054580   17.358600
  H    -70.865800    2.671840   17.900700
  C    -69.463100    4.486410   16.088100
  H    -69.078500    5.346840   15.580100
  H    -70.001800    3.978950   15.253900
  C    -68.336500    3.532940   16.547400
  H    -68.742400    2.508410   16.453500
  H    -68.146400    3.800000   17.578100
  C    -67.139100    3.575980   15.679000
  H    -66.758700    4.580230   15.708800
  H    -67.500000    3.311190   14.697000
  H    -66.410100    2.822030   15.893100
  H    -69.845600   10.456500   15.309800
  H    -72.746200    3.591100   19.266700

 Total Charge           Charge          ....    0
 Multiplicity           Mult            ....    1
 Number of Electrons    NEL             ....  134
 Basis Dimension        Dim             ....  322

ORBITAL ENERGIES
----------------

  NO   OCC          E(Eh)            E(eV)
   0   2.0000     -88.970363     -2421.0067
   1   2.0000     -88.959354     -2420.7071
   2   2.0000     -10.333706      -281.1944
   3   2.0000     -10.325242      -280.9641
   4   2.0000     -10.322178      -280.8807
   5   2.0000     -10.320940      -280.8470
   6   2.0000     -10.310645      -280.5669
   7   2.0000     -10.304403      -280.3971
   8   2.0000     -10.304062      -280.3878
   9   2.0000     -10.297345      -280.2050
  10   2.0000     -10.296544      -280.1832
  11   2.0000     -10.293140      -280.0906
  12   2.0000     -10.285134      -279.8727
  13   2.0000     -10.282491      -279.8008
  14   2.0000     -10.274572      -279.5853
  15   2.0000     -10.272120      -279.5186
  16   2.0000      -8.084544      -219.9916
  17   2.0000      -8.074035      -219.7057
  18   2.0000      -6.043120      -164.4417
  19   2.0000      -6.039051      -164.3309
  20   2.0000      -6.035337      -164.2299
  21   2.0000      -6.032653      -164.1568
  22   2.0000      -6.028818      -164.0525
  23   2.0000      -6.024391      -163.9320
  24   2.0000      -1.001021       -27.2392
  25   2.0000      -0.976509       -26.5722
  26   2.0000      -0.918964       -25.0063
  27   2.0000      -0.909037       -24.7362
  28   2.0000      -0.867752       -23.6127
  29   2.0000      -0.856779       -23.3142
  30   2.0000      -0.849148       -23.1065
  31   2.0000      -0.814206       -22.1557
  32   2.0000      -0.784881       -21.3577
  33   2.0000      -0.768262       -20.9055
  34   2.0000      -0.709157       -19.2972
  35   2.0000      -0.699503       -19.0344
  36   2.0000      -0.690786       -18.7972
  37   2.0000      -0.658246       -17.9118
  38   2.0000      -0.636044       -17.3076
  39   2.0000      -0.625350       -17.0166
  40   2.0000      -0.597930       -16.2705
  41   2.0000      -0.581124       -15.8132
  42   2.0000      -0.571384       -15.5481
  43   2.0000      -0.556940       -15.1551
  44   2.0000      -0.542130       -14.7521
  45   2.0000      -0.527349       -14.3499
  46   2.0000      -0.520545       -14.1648
  47   2.0000      -0.510029       -13.8786
  48   2.0000      -0.505531       -13.7562
  49   2.0000      -0.497816       -13.5463
  50   2.0000      -0.490652       -13.3513
  51   2.0000      -0.477671       -12.9981
  52   2.0000      -0.471227       -12.8227
  53   2.0000      -0.467589       -12.7237
  54   2.0000      -0.460672       -12.5355
  55   2.0000      -0.458097       -12.4655
  56   2.0000      -0.444114       -12.0850
  57   2.0000      -0.438277       -11.9261
  58   2.0000      -0.427269       -11.6266
  59   2.0000      -0.423139       -11.5142
  60   2.0000      -0.422829       -11.5057
  61   2.0000      -0.417283       -11.3549
  62   2.0000      -0.415459       -11.3052
  63   2.0000      -0.343198        -9.3389
  64   2.0000      -0.329835        -8.9753
  65   2.0000      -0.318347        -8.6627
  66   2.0000      -0.289433        -7.8759
  67   0.0000       0.024148         0.6571
  68   0.0000       0.059709         1.6248
  69   0.0000       0.094565         2.5732
  70   0.0000       0.118532         3.2254
  71   0.0000       0.124638         3.3916

MULLIKEN ATOMIC CHARGES
-----------------------
   0 S :    0.129462
   1 C :   -0.110276
   2 C :   -0.106018
   3 C :    0.041152
   4 C :   -0.149125
   5 H :   -0.013902
   6 C :    0.038091
   7 H :    0.052550
   8 H :    0.011966
   9 C :   -0.105519
  10 H :    0.026349
  11 H :    0.022530
  12 C :    0.015212
  13 H :    0.038395
  14 H :    0.027621
  15 H :    0.013679
  16 S :    0.079448
  17 C :   -0.094052
  18 C :   -0.015399
  19 C :   -0.072002
  20 C :   -0.079196
  21 H :    0.020296
  22 C :    0.035161
  23 H :    0.008626
  24 H :    0.031813
  25 C :   -0.100593
  26 H :    0.032342
  27 H :    0.033895
  28 C :    0.004522
  29 H :    0.029619
  30 H :    0.015652
  31 H :    0.032286
  32 H :    0.045766
  33 H :    0.059646
Sum of atomic charges:   -0.0000000

LOEWDIN ATOMIC CHARGES
----------------------
   0 S :    0.411467
   1 C :   -0.195949
   2 C :   -0.065221
   3 C :   -0.045802
   4 C :   -0.208191
   5 H :    0.014339
   6 C :   -0.041317
   7 H :    0.041580
   8 H :    0.030739
   9 C :   -0.040820
  10 H :    0.028500
  11 H :    0.016180
  12 C :   -0.053109
  13 H :    0.033907
  14 H :    0.024512
  15 H :    0.015324
  16 S :    0.386951
  17 C :   -0.159351
  18 C :   -0.062668
  19 C :   -0.052796
  20 C :   -0.207630
  21 H :    0.032073
  22 C :   -0.042521
  23 H :    0.021790
  24 H :    0.039112
  25 C :   -0.039393
  26 H :    0.026337
  27 H :    0.019399
  28 C :   -0.056096
  29 H :    0.021280
  30 H :    0.025912
  31 H :    0.026324
  32 H :    0.026048
  33 H :    0.029091

  Mayer bond orders larger than 0.100000
B(  0-S ,  1-C ) :   1.1645 B(  0-S ,  4-C ) :   1.1343 B(  1-C ,  2-C ) :   1.5903
B(  1-C , 32-H ) :   0.9607 B(  2-C ,  3-C ) :   1.2561 B(  2-C ,  6-C ) :   1.0359
B(  3-C ,  4-C ) :   1.5693 B(  3-C ,  5-H ) :   0.9931 B(  4-C , 20-C ) :   1.0005
B(  6-C ,  7-H ) :   0.9388 B(  6-C ,  8-H ) :   0.9405 B(  6-C ,  9-C ) :   1.0559
B(  9-C , 10-H ) :   0.9488 B(  9-C , 11-H ) :   0.9604 B(  9-C , 12-C ) :   1.0819
B( 12-C , 13-H ) :   0.9725 B( 12-C , 14-H ) :   0.9714 B( 12-C , 15-H ) :   0.9684
B( 16-S , 17-C ) :   1.1520 B( 16-S , 20-C ) :   1.1268 B( 17-C , 18-C ) :   1.6154
B( 17-C , 33-H ) :   0.9665 B( 18-C , 19-C ) :   1.2116 B( 18-C , 21-H ) :   1.0008
B( 19-C , 20-C ) :   1.6018 B( 19-C , 22-C ) :   1.0649 B( 22-C , 23-H ) :   0.9452
B( 22-C , 24-H ) :   0.9124 B( 22-C , 25-C ) :   1.0453 B( 25-C , 26-H ) :   0.9430
B( 25-C , 27-H ) :   0.9655 B( 25-C , 28-C ) :   1.1005 B( 28-C , 29-H ) :   0.9739
B( 28-C , 30-H ) :   0.9658 B( 28-C , 31-H ) :   0.9680

Dispersion correction           -0.015304025
FINAL SINGLE POINT ENERGY     -1339.846625515249

DIPOLE MOMENT
-------------
                                X             Y             Z
Electronic contribution:    -26.69250       8.89661      17.08048
Nuclear contribution   :     27.51534      -9.32565     -17.52068
                        -----------------------------------------
Total Dipole Moment    :      0.82284      -0.42904      -0.44020
                        -----------------------------------------
Magnitude (a.u.)       :      1.02709
Magnitude (Debye)      :      2.61066

Rotational constants in cm-1:     0.016973     0.010657     0.006989
Rotational constants in MHz :   508.825735   319.481160   209.513379

                             ****ORCA TERMINATED NORMALLY****
TOTAL RUN TIME: 0 days 0 hours 0 minutes 22 seconds 840 msec
