                         Program Version 4.2.1 -  RELEASE  -
|  1> ! wB97X-D3 SP def2-SVP
|  2> %pal
|  3> nprocs 24
|  4> end
|  5>
|  6> * xyz 0 1
|  7> S 	 -55.9907 	 -1.95584 	 -33.0763
|  8> C 	 -55.7957 	 -0.201955 	 -33.2647
|  9> C 	 -55.3149 	 0.435057 	 -32.1408
| 10> C 	 -55.3071 	 -0.517385 	 -31.0613
| 11> C 	 -55.5912 	 -1.83548 	 -31.4077
| 12> H 	 -55.1109 	 -0.34955 	 -30.031
| 13> C 	 -54.8546 	 1.85666 	 -32.0367
| 14> H 	 -55.075 	 2.18872 	 -30.9922
| 15> H 	 -55.4214 	 2.43655 	 -32.74
| 16> C 	 -53.3602 	 2.11724 	 -32.4376
| 17> H 	 -52.8096 	 1.39335 	 -31.8007
| 18> H 	 -53.3433 	 1.6967 	 -33.426
| 19> C 	 -52.9667 	 3.5395 	 -32.2824
| 20> H 	 -53.4584 	 3.95406 	 -31.3863
| 21> H 	 -51.884 	 3.60147 	 -32.0869
| 22> H 	 -53.1667 	 4.24674 	 -33.0724
| 23> S 	 -56.8286 	 -4.18804 	 -30.739
| 24> C 	 -56.1799 	 -5.16738 	 -29.4726
| 25> C 	 -55.1875 	 -4.48485 	 -28.8336
| 26> C 	 -54.8263 	 -3.24455 	 -29.435
| 27> C 	 -55.6661 	 -2.93782 	 -30.4749
| 28> H 	 -54.8644 	 -4.84045 	 -27.8615
| 29> C 	 -53.6789 	 -2.41694 	 -29.028
| 30> H 	 -53.3003 	 -1.85324 	 -29.9185
| 31> H 	 -52.8607 	 -3.14179 	 -28.7664
| 32> C 	 -53.7899 	 -1.53891 	 -27.7903
| 33> H 	 -54.2662 	 -2.16652 	 -27.0675
| 34> H 	 -54.445 	 -0.733855 	 -28.0176
| 35> C 	 -52.514 	 -0.838689 	 -27.3774
| 36> H 	 -52.8355 	 0.108242 	 -26.7431
| 37> H 	 -52.0186 	 -0.352044 	 -28.1976
| 38> H 	 -51.7979 	 -1.47049 	 -26.8034
| 39> H 	 -55.8463 	 0.275995 	 -34.2326
| 40> H 	 -56.4018 	 -6.14022 	 -29.1333
| 41> *
| 42>
| 43>                          ****END OF INPUT****

CARTESIAN COORDINATES (ANGSTROEM)
---------------------------------
  S    -55.990700   -1.955840  -33.076300
  C    -55.795700   -0.201955  -33.264700
  C    -55.314900    0.435057  -32.140800
  C    -55.307100   -0.517385  -31.061300
  C    -55.591200   -1.835480  -31.407700
  H    -55.110900   -0.349550  -30.031000
  C    -54.854600    1.856660  -32.036700
  H    -55.075000    2.188720  -30.992200
  H    -55.421400    2.436550  -32.740000
  C    -53.360200    2.117240  -32.437600
  H    -52.809600    1.393350  -31.800700
  H    -53.343300    1.696700  -33.426000
  C    -52.966700    3.539500  -32.282400
  H    -53.458400    3.954060  -31.386300
  H    -51.884000    3.601470  -32.086900
  H    -53.166700    4.246740  -33.072400
  S    -56.828600   -4.188040  -30.739000
  C    -56.179900   -5.167380  -29.472600
  C    -55.187500   -4.484850  -28.833600
  C    -54.826300   -3.244550  -29.435000
  C    -55.666100   -2.937820  -30.474900
  H    -54.864400   -4.840450  -27.861500
  C    -53.678900   -2.416940  -29.028000
  H    -53.300300   -1.853240  -29.918500
  H    -52.860700   -3.141790  -28.766400
  C    -53.789900   -1.538910  -27.790300
  H    -54.266200   -2.166520  -27.067500
  H    -54.445000   -0.733855  -28.017600
  C    -52.514000   -0.838689  -27.377400
  H    -52.835500    0.108242  -26.743100
  H    -52.018600   -0.352044  -28.197600
  H    -51.797900   -1.470490  -26.803400
  H    -55.846300    0.275995  -34.232600
  H    -56.401800   -6.140220  -29.133300

 Total Charge           Charge          ....    0
 Multiplicity           Mult            ....    1
 Number of Electrons    NEL             ....  134
 Basis Dimension        Dim             ....  322

ORBITAL ENERGIES
----------------

  NO   OCC          E(Eh)            E(eV)
   0   2.0000     -88.968287     -2420.9502
   1   2.0000     -88.965375     -2420.8709
   2   2.0000     -10.325961      -280.9837
   3   2.0000     -10.321614      -280.8654
   4   2.0000     -10.314489      -280.6715
   5   2.0000     -10.310999      -280.5765
   6   2.0000     -10.303434      -280.3707
   7   2.0000     -10.296146      -280.1724
   8   2.0000     -10.294422      -280.1255
   9   2.0000     -10.291363      -280.0422
  10   2.0000     -10.290143      -280.0090
  11   2.0000     -10.289473      -279.9908
  12   2.0000     -10.289385      -279.9884
  13   2.0000     -10.288896      -279.9751
  14   2.0000     -10.282251      -279.7943
  15   2.0000     -10.281745      -279.7805
  16   2.0000      -8.083051      -219.9510
  17   2.0000      -8.080868      -219.8916
  18   2.0000      -6.041559      -164.3992
  19   2.0000      -6.039442      -164.3416
  20   2.0000      -6.037628      -164.2922
  21   2.0000      -6.035190      -164.2259
  22   2.0000      -6.033733      -164.1862
  23   2.0000      -6.031579      -164.1276
  24   2.0000      -1.014512       -27.6063
  25   2.0000      -0.988282       -26.8925
  26   2.0000      -0.917557       -24.9680
  27   2.0000      -0.916979       -24.9523
  28   2.0000      -0.875624       -23.8269
  29   2.0000      -0.858630       -23.3645
  30   2.0000      -0.848707       -23.0945
  31   2.0000      -0.816941       -22.2301
  32   2.0000      -0.784706       -21.3529
  33   2.0000      -0.773372       -21.0445
  34   2.0000      -0.707736       -19.2585
  35   2.0000      -0.704808       -19.1788
  36   2.0000      -0.698543       -19.0083
  37   2.0000      -0.665247       -18.1023
  38   2.0000      -0.641901       -17.4670
  39   2.0000      -0.620493       -16.8845
  40   2.0000      -0.596162       -16.2224
  41   2.0000      -0.576383       -15.6842
  42   2.0000      -0.571603       -15.5541
  43   2.0000      -0.563490       -15.3334
  44   2.0000      -0.528640       -14.3850
  45   2.0000      -0.524225       -14.2649
  46   2.0000      -0.517692       -14.0871
  47   2.0000      -0.515807       -14.0358
  48   2.0000      -0.509783       -13.8719
  49   2.0000      -0.502315       -13.6687
  50   2.0000      -0.497282       -13.5317
  51   2.0000      -0.485796       -13.2192
  52   2.0000      -0.476045       -12.9538
  53   2.0000      -0.463272       -12.6063
  54   2.0000      -0.461328       -12.5534
  55   2.0000      -0.455178       -12.3860
  56   2.0000      -0.447641       -12.1809
  57   2.0000      -0.435382       -11.8473
  58   2.0000      -0.429906       -11.6983
  59   2.0000      -0.427795       -11.6409
  60   2.0000      -0.422420       -11.4946
  61   2.0000      -0.418650       -11.3920
  62   2.0000      -0.413911       -11.2631
  63   2.0000      -0.352576        -9.5941
  64   2.0000      -0.331558        -9.0222
  65   2.0000      -0.328670        -8.9436
  66   2.0000      -0.289043        -7.8653
  67   0.0000       0.026930         0.7328
  68   0.0000       0.082558         2.2465
  69   0.0000       0.107342         2.9209
  70   0.0000       0.118243         3.2176
  71   0.0000       0.125972         3.4279

MULLIKEN ATOMIC CHARGES
-----------------------
   0 S :    0.117859
   1 C :   -0.129605
   2 C :   -0.061705
   3 C :    0.021217
   4 C :   -0.144353
   5 H :   -0.032246
   6 C :    0.045151
   7 H :    0.031044
   8 H :    0.016872
   9 C :   -0.058884
  10 H :    0.029430
  11 H :    0.020498
  12 C :   -0.018193
  13 H :    0.025207
  14 H :    0.036947
  15 H :    0.038154
  16 S :    0.112932
  17 C :   -0.063573
  18 C :   -0.044679
  19 C :   -0.025559
  20 C :   -0.136232
  21 H :    0.016991
  22 C :   -0.005095
  23 H :    0.037897
  24 H :    0.022471
  25 C :   -0.014043
  26 H :    0.018733
  27 H :    0.014856
  28 C :   -0.071521
  29 H :    0.043013
  30 H :    0.028105
  31 H :    0.048826
  32 H :    0.043606
  33 H :    0.035882
Sum of atomic charges:   -0.0000000

LOEWDIN ATOMIC CHARGES
----------------------
   0 S :    0.408709
   1 C :   -0.187795
   2 C :   -0.060138
   3 C :   -0.060613
   4 C :   -0.201007
   5 H :    0.020455
   6 C :   -0.031555
   7 H :    0.031052
   8 H :    0.025816
   9 C :   -0.038895
  10 H :    0.027289
  11 H :    0.022350
  12 C :   -0.069583
  13 H :    0.029981
  14 H :    0.033864
  15 H :    0.027395
  16 S :    0.419915
  17 C :   -0.187454
  18 C :   -0.069961
  19 C :   -0.063634
  20 C :   -0.200575
  21 H :    0.029550
  22 C :   -0.044756
  23 H :    0.033548
  24 H :    0.034595
  25 C :   -0.040184
  26 H :    0.023130
  27 H :    0.016242
  28 C :   -0.069639
  29 H :    0.040895
  30 H :    0.022853
  31 H :    0.027994
  32 H :    0.023400
  33 H :    0.026758

  Mayer bond orders larger than 0.100000
B(  0-S ,  1-C ) :   1.1354 B(  0-S ,  4-C ) :   1.1467 B(  1-C ,  2-C ) :   1.6110
B(  1-C , 32-H ) :   0.9645 B(  2-C ,  3-C ) :   1.2227 B(  2-C ,  6-C ) :   1.0368
B(  3-C ,  4-C ) :   1.5614 B(  3-C ,  5-H ) :   0.9995 B(  4-C , 20-C ) :   1.0685
B(  6-C ,  7-H ) :   0.9361 B(  6-C ,  8-H ) :   0.9366 B(  6-C ,  9-C ) :   1.0567
B(  9-C , 10-H ) :   0.9573 B(  9-C , 11-H ) :   0.9546 B(  9-C , 12-C ) :   1.0764
B( 12-C , 13-H ) :   0.9700 B( 12-C , 14-H ) :   0.9715 B( 12-C , 15-H ) :   0.9738
B( 16-S , 17-C ) :   1.1464 B( 16-S , 20-C ) :   1.1290 B( 17-C , 18-C ) :   1.6302
B( 17-C , 33-H ) :   0.9691 B( 18-C , 19-C ) :   1.2406 B( 18-C , 21-H ) :   0.9847
B( 19-C , 20-C ) :   1.5882 B( 19-C , 22-C ) :   1.0631 B( 22-C , 23-H ) :   0.9198
B( 22-C , 24-H ) :   0.9273 B( 22-C , 25-C ) :   1.0696 B( 25-C , 26-H ) :   0.9484
B( 25-C , 27-H ) :   0.9466 B( 25-C , 28-C ) :   1.0794 B( 28-C , 29-H ) :   0.9755
B( 28-C , 30-H ) :   0.9695 B( 28-C , 31-H ) :   0.9751

Dispersion correction           -0.014059704
FINAL SINGLE POINT ENERGY     -1339.880435179321

DIPOLE MOMENT
-------------
                                X             Y             Z
Electronic contribution:    -20.03051     -24.25849     -11.69727
Nuclear contribution   :     20.50763      24.71560      12.03394
                        -----------------------------------------
Total Dipole Moment    :      0.47711       0.45711       0.33667
                        -----------------------------------------
Magnitude (a.u.)       :      0.74157
Magnitude (Debye)      :      1.88493

Rotational constants in cm-1:     0.018304     0.009215     0.006356
Rotational constants in MHz :   548.742413   276.270237   190.543497

                             ****ORCA TERMINATED NORMALLY****
TOTAL RUN TIME: 0 days 0 hours 0 minutes 21 seconds 949 msec
