                         Program Version 4.2.1 -  RELEASE  -
|  1> ! wB97X-D3 SP def2-SVP
|  2> %pal
|  3> nprocs 24
|  4> end
|  5>
|  6> * xyz 0 1
|  7> S 	 -55.6786 	 15.3518 	 -87.9012
|  8> C 	 -55.2735 	 15.5495 	 -89.6047
|  9> C 	 -56.1324 	 16.4825 	 -90.2062
| 10> C 	 -57.0298 	 17.0275 	 -89.2818
| 11> C 	 -56.9657 	 16.4907 	 -87.9937
| 12> H 	 -57.8021 	 17.6314 	 -89.4756
| 13> C 	 -56.2645 	 16.909 	 -91.6613
| 14> H 	 -57.2892 	 16.6983 	 -91.8633
| 15> H 	 -55.6357 	 16.3591 	 -92.3298
| 16> C 	 -55.9519 	 18.4399 	 -91.7882
| 17> H 	 -56.7138 	 19.0652 	 -91.2355
| 18> H 	 -55.049 	 18.7791 	 -91.27
| 19> C 	 -55.9913 	 18.9241 	 -93.1929
| 20> H 	 -56.9057 	 18.5351 	 -93.6818
| 21> H 	 -55.8366 	 19.9672 	 -93.1632
| 22> H 	 -55.2136 	 18.4595 	 -93.7583
| 23> S 	 -58.7195 	 15.5172 	 -86.0528
| 24> C 	 -59.2014 	 16.5697 	 -84.7703
| 25> C 	 -58.8359 	 17.8893 	 -84.994
| 26> C 	 -58.0405 	 18.0438 	 -86.1898
| 27> C 	 -57.8186 	 16.8043 	 -86.8403
| 28> H 	 -59.1505 	 18.6395 	 -84.3046
| 29> C 	 -57.4455 	 19.3719 	 -86.5911
| 30> H 	 -56.5314 	 19.1385 	 -87.2013
| 31> H 	 -57.0027 	 20.0005 	 -85.6844
| 32> C 	 -58.348 	 20.2582 	 -87.4373
| 33> H 	 -59.0383 	 20.4855 	 -86.6379
| 34> H 	 -58.6176 	 19.772 	 -88.3045
| 35> C 	 -57.7931 	 21.6408 	 -87.758
| 36> H 	 -57.6394 	 22.1944 	 -86.8379
| 37> H 	 -58.567 	 22.2222 	 -88.3047
| 38> H 	 -56.9573 	 21.6661 	 -88.3524
| 39> H 	 -54.4774 	 15.0418 	 -90.0735
| 40> H 	 -59.8972 	 16.3517 	 -83.9669
| 41> *
| 42>
| 43>                          ****END OF INPUT****

CARTESIAN COORDINATES (ANGSTROEM)
---------------------------------
  S    -55.678600   15.351800  -87.901200
  C    -55.273500   15.549500  -89.604700
  C    -56.132400   16.482500  -90.206200
  C    -57.029800   17.027500  -89.281800
  C    -56.965700   16.490700  -87.993700
  H    -57.802100   17.631400  -89.475600
  C    -56.264500   16.909000  -91.661300
  H    -57.289200   16.698300  -91.863300
  H    -55.635700   16.359100  -92.329800
  C    -55.951900   18.439900  -91.788200
  H    -56.713800   19.065200  -91.235500
  H    -55.049000   18.779100  -91.270000
  C    -55.991300   18.924100  -93.192900
  H    -56.905700   18.535100  -93.681800
  H    -55.836600   19.967200  -93.163200
  H    -55.213600   18.459500  -93.758300
  S    -58.719500   15.517200  -86.052800
  C    -59.201400   16.569700  -84.770300
  C    -58.835900   17.889300  -84.994000
  C    -58.040500   18.043800  -86.189800
  C    -57.818600   16.804300  -86.840300
  H    -59.150500   18.639500  -84.304600
  C    -57.445500   19.371900  -86.591100
  H    -56.531400   19.138500  -87.201300
  H    -57.002700   20.000500  -85.684400
  C    -58.348000   20.258200  -87.437300
  H    -59.038300   20.485500  -86.637900
  H    -58.617600   19.772000  -88.304500
  C    -57.793100   21.640800  -87.758000
  H    -57.639400   22.194400  -86.837900
  H    -58.567000   22.222200  -88.304700
  H    -56.957300   21.666100  -88.352400
  H    -54.477400   15.041800  -90.073500
  H    -59.897200   16.351700  -83.966900

 Total Charge           Charge          ....    0
 Multiplicity           Mult            ....    1
 Number of Electrons    NEL             ....  134
 Basis Dimension        Dim             ....  322

ORBITAL ENERGIES
----------------

  NO   OCC          E(Eh)            E(eV)
   0   2.0000     -88.968824     -2420.9648
   1   2.0000     -88.966033     -2420.8888
   2   2.0000     -10.330877      -281.1174
   3   2.0000     -10.328048      -281.0405
   4   2.0000     -10.316076      -280.7147
   5   2.0000     -10.313572      -280.6466
   6   2.0000     -10.308490      -280.5083
   7   2.0000     -10.301366      -280.3144
   8   2.0000     -10.297369      -280.2057
   9   2.0000     -10.294066      -280.1158
  10   2.0000     -10.293482      -280.0999
  11   2.0000     -10.289211      -279.9837
  12   2.0000     -10.281900      -279.7847
  13   2.0000     -10.277787      -279.6728
  14   2.0000     -10.272227      -279.5215
  15   2.0000     -10.271685      -279.5068
  16   2.0000      -8.083576      -219.9653
  17   2.0000      -8.080900      -219.8925
  18   2.0000      -6.042059      -164.4128
  19   2.0000      -6.039291      -164.3375
  20   2.0000      -6.038028      -164.3031
  21   2.0000      -6.035196      -164.2260
  22   2.0000      -6.034414      -164.2048
  23   2.0000      -6.031974      -164.1384
  24   2.0000      -1.005665       -27.3655
  25   2.0000      -0.983885       -26.7729
  26   2.0000      -0.915909       -24.9232
  27   2.0000      -0.913304       -24.8523
  28   2.0000      -0.869806       -23.6686
  29   2.0000      -0.855387       -23.2763
  30   2.0000      -0.850936       -23.1551
  31   2.0000      -0.814862       -22.1735
  32   2.0000      -0.785113       -21.3640
  33   2.0000      -0.771485       -20.9932
  34   2.0000      -0.706222       -19.2173
  35   2.0000      -0.697806       -18.9883
  36   2.0000      -0.689867       -18.7722
  37   2.0000      -0.659965       -17.9586
  38   2.0000      -0.650432       -17.6992
  39   2.0000      -0.625453       -17.0194
  40   2.0000      -0.591479       -16.0950
  41   2.0000      -0.587519       -15.9872
  42   2.0000      -0.570771       -15.5315
  43   2.0000      -0.561674       -15.2839
  44   2.0000      -0.543417       -14.7871
  45   2.0000      -0.521472       -14.1900
  46   2.0000      -0.515318       -14.0225
  47   2.0000      -0.513284       -13.9672
  48   2.0000      -0.505799       -13.7635
  49   2.0000      -0.497745       -13.5443
  50   2.0000      -0.492494       -13.4014
  51   2.0000      -0.485725       -13.2173
  52   2.0000      -0.470220       -12.7953
  53   2.0000      -0.468774       -12.7560
  54   2.0000      -0.463330       -12.6078
  55   2.0000      -0.452067       -12.3014
  56   2.0000      -0.447971       -12.1899
  57   2.0000      -0.444483       -12.0950
  58   2.0000      -0.430911       -11.7257
  59   2.0000      -0.424735       -11.5576
  60   2.0000      -0.422278       -11.4908
  61   2.0000      -0.410619       -11.1735
  62   2.0000      -0.402301       -10.9472
  63   2.0000      -0.339956        -9.2507
  64   2.0000      -0.333450        -9.0736
  65   2.0000      -0.328583        -8.9412
  66   2.0000      -0.293849        -7.9960
  67   0.0000       0.031637         0.8609
  68   0.0000       0.068131         1.8539
  69   0.0000       0.119532         3.2526
  70   0.0000       0.120560         3.2806
  71   0.0000       0.123703         3.3661

MULLIKEN ATOMIC CHARGES
-----------------------
   0 S :    0.119793
   1 C :   -0.124505
   2 C :   -0.067376
   3 C :    0.064962
   4 C :   -0.158964
   5 H :   -0.048000
   6 C :    0.121311
   7 H :    0.032095
   8 H :    0.012152
   9 C :   -0.143739
  10 H :    0.025653
  11 H :    0.033198
  12 C :    0.015026
  13 H :    0.026557
  14 H :    0.032233
  15 H :    0.014685
  16 S :    0.125793
  17 C :   -0.089857
  18 C :   -0.037426
  19 C :    0.013726
  20 C :   -0.178099
  21 H :    0.012883
  22 C :   -0.028904
  23 H :    0.029811
  24 H :    0.042612
  25 C :   -0.022359
  26 H :    0.020425
  27 H :    0.017482
  28 C :   -0.017059
  29 H :    0.021431
  30 H :    0.031524
  31 H :    0.013704
  32 H :    0.031178
  33 H :    0.058057
Sum of atomic charges:    0.0000000

LOEWDIN ATOMIC CHARGES
----------------------
   0 S :    0.422883
   1 C :   -0.194726
   2 C :   -0.055218
   3 C :   -0.053426
   4 C :   -0.201371
   5 H :    0.006308
   6 C :   -0.017556
   7 H :    0.033176
   8 H :    0.024098
   9 C :   -0.045411
  10 H :    0.024723
  11 H :    0.025345
  12 C :   -0.060679
  13 H :    0.029653
  14 H :    0.024247
  15 H :    0.018690
  16 S :    0.419070
  17 C :   -0.194951
  18 C :   -0.068995
  19 C :   -0.049970
  20 C :   -0.204424
  21 H :    0.028201
  22 C :   -0.046939
  23 H :    0.027884
  24 H :    0.039659
  25 C :   -0.032689
  26 H :    0.029801
  27 H :    0.012271
  28 C :   -0.055802
  29 H :    0.024795
  30 H :    0.032195
  31 H :    0.008637
  32 H :    0.018456
  33 H :    0.032063

  Mayer bond orders larger than 0.100000
B(  0-S ,  1-C ) :   1.1484 B(  0-S ,  4-C ) :   1.1773 B(  1-C ,  2-C ) :   1.5673
B(  1-C ,  4-C ) :   0.1054 B(  1-C , 32-H ) :   0.9808 B(  2-C ,  3-C ) :   1.2634
B(  2-C ,  6-C ) :   1.0210 B(  3-C ,  4-C ) :   1.5376 B(  3-C ,  5-H ) :   1.0142
B(  4-C , 20-C ) :   1.0319 B(  6-C ,  7-H ) :   0.9329 B(  6-C ,  8-H ) :   0.9472
B(  6-C ,  9-C ) :   1.0510 B(  9-C , 10-H ) :   0.9515 B(  9-C , 11-H ) :   0.9584
B(  9-C , 12-C ) :   1.0969 B( 12-C , 13-H ) :   0.9677 B( 12-C , 14-H ) :   0.9707
B( 12-C , 15-H ) :   0.9704 B( 16-S , 17-C ) :   1.1592 B( 16-S , 20-C ) :   1.1521
B( 17-C , 18-C ) :   1.6109 B( 17-C , 33-H ) :   0.9631 B( 18-C , 19-C ) :   1.2428
B( 18-C , 21-H ) :   0.9933 B( 19-C , 20-C ) :   1.5699 B( 19-C , 22-C ) :   1.0456
B( 22-C , 23-H ) :   0.9252 B( 22-C , 24-H ) :   0.9462 B( 22-C , 25-C ) :   1.0563
B( 25-C , 26-H ) :   0.9591 B( 25-C , 27-H ) :   0.9547 B( 25-C , 28-C ) :   1.0935
B( 28-C , 29-H ) :   0.9722 B( 28-C , 30-H ) :   0.9720 B( 28-C , 31-H ) :   0.9750

Dispersion correction           -0.014199500
FINAL SINGLE POINT ENERGY     -1339.861371108437

DIPOLE MOMENT
-------------
                                X             Y             Z
Electronic contribution:     -1.43479     -26.74607      18.56797
Nuclear contribution   :      1.34187      27.29781     -18.91184
                        -----------------------------------------
Total Dipole Moment    :     -0.09292       0.55174      -0.34387
                        -----------------------------------------
Magnitude (a.u.)       :      0.65673
Magnitude (Debye)      :      1.66928

Rotational constants in cm-1:     0.017013     0.009487     0.006639
Rotational constants in MHz :   510.024245   284.423329   199.028150

                             ****ORCA TERMINATED NORMALLY****
TOTAL RUN TIME: 0 days 0 hours 0 minutes 21 seconds 714 msec
