                         Program Version 4.2.1 -  RELEASE  -
|  1> ! wB97X-D3 SP def2-SVP
|  2> %pal
|  3> nprocs 24
|  4> end
|  5>
|  6> * xyz 0 1
|  7> S 	 -135.472 	 73.9963 	 -68.079
|  8> C 	 -134.008 	 74.7891 	 -67.8853
|  9> C 	 -133.753 	 75.1416 	 -66.6053
| 10> C 	 -134.82 	 74.6646 	 -65.7382
| 11> C 	 -135.885 	 74.0963 	 -66.3902
| 12> H 	 -134.978 	 74.8977 	 -64.6756
| 13> C 	 -132.451 	 75.7581 	 -66.1272
| 14> H 	 -131.979 	 76.3484 	 -66.9073
| 15> H 	 -131.7 	 74.9781 	 -65.9939
| 16> C 	 -132.567 	 76.7388 	 -64.9437
| 17> H 	 -133.029 	 76.2697 	 -64.0339
| 18> H 	 -131.696 	 77.0452 	 -64.5201
| 19> C 	 -133.235 	 78.1256 	 -65.2612
| 20> H 	 -134.27 	 77.9726 	 -65.1591
| 21> H 	 -133.056 	 78.9135 	 -64.4746
| 22> H 	 -133.037 	 78.5153 	 -66.2592
| 23> S 	 -137.486 	 71.9076 	 -65.6795
| 24> C 	 -138.938 	 72.1941 	 -64.8061
| 25> C 	 -138.984 	 73.4435 	 -64.3605
| 26> C 	 -137.986 	 74.3027 	 -64.8859
| 27> C 	 -137.15 	 73.6082 	 -65.7698
| 28> H 	 -139.755 	 73.7424 	 -63.6899
| 29> C 	 -137.825 	 75.7266 	 -64.3847
| 30> H 	 -137.096 	 76.1398 	 -65.0841
| 31> H 	 -137.365 	 75.7086 	 -63.4017
| 32> C 	 -139.072 	 76.5893 	 -64.4374
| 33> H 	 -138.776 	 77.5726 	 -64.0067
| 34> H 	 -139.785 	 76.0835 	 -63.7621
| 35> C 	 -139.626 	 76.7762 	 -65.8834
| 36> H 	 -138.839 	 76.9582 	 -66.6831
| 37> H 	 -140.438 	 77.4755 	 -65.9948
| 38> H 	 -139.994 	 75.8206 	 -66.2057
| 39> H 	 -133.174 	 74.8912 	 -68.6095
| 40> H 	 -139.66 	 71.4503 	 -64.5666
| 41> *
| 42>
| 43>                          ****END OF INPUT****

CARTESIAN COORDINATES (ANGSTROEM)
---------------------------------
  S    -135.472000   73.996300  -68.079000
  C    -134.008000   74.789100  -67.885300
  C    -133.753000   75.141600  -66.605300
  C    -134.820000   74.664600  -65.738200
  C    -135.885000   74.096300  -66.390200
  H    -134.978000   74.897700  -64.675600
  C    -132.451000   75.758100  -66.127200
  H    -131.979000   76.348400  -66.907300
  H    -131.700000   74.978100  -65.993900
  C    -132.567000   76.738800  -64.943700
  H    -133.029000   76.269700  -64.033900
  H    -131.696000   77.045200  -64.520100
  C    -133.235000   78.125600  -65.261200
  H    -134.270000   77.972600  -65.159100
  H    -133.056000   78.913500  -64.474600
  H    -133.037000   78.515300  -66.259200
  S    -137.486000   71.907600  -65.679500
  C    -138.938000   72.194100  -64.806100
  C    -138.984000   73.443500  -64.360500
  C    -137.986000   74.302700  -64.885900
  C    -137.150000   73.608200  -65.769800
  H    -139.755000   73.742400  -63.689900
  C    -137.825000   75.726600  -64.384700
  H    -137.096000   76.139800  -65.084100
  H    -137.365000   75.708600  -63.401700
  C    -139.072000   76.589300  -64.437400
  H    -138.776000   77.572600  -64.006700
  H    -139.785000   76.083500  -63.762100
  C    -139.626000   76.776200  -65.883400
  H    -138.839000   76.958200  -66.683100
  H    -140.438000   77.475500  -65.994800
  H    -139.994000   75.820600  -66.205700
  H    -133.174000   74.891200  -68.609500
  H    -139.660000   71.450300  -64.566600

 Total Charge           Charge          ....    0
 Multiplicity           Mult            ....    1
 Number of Electrons    NEL             ....  134
 Basis Dimension        Dim             ....  322

ORBITAL ENERGIES
----------------

  NO   OCC          E(Eh)            E(eV)
   0   2.0000     -88.963659     -2420.8242
   1   2.0000     -88.963230     -2420.8126
   2   2.0000     -10.327807      -281.0339
   3   2.0000     -10.327521      -281.0261
   4   2.0000     -10.308145      -280.4989
   5   2.0000     -10.307688      -280.4865
   6   2.0000     -10.301308      -280.3128
   7   2.0000     -10.298736      -280.2429
   8   2.0000     -10.296153      -280.1726
   9   2.0000     -10.294705      -280.1332
  10   2.0000     -10.292228      -280.0658
  11   2.0000     -10.288432      -279.9625
  12   2.0000     -10.285103      -279.8719
  13   2.0000     -10.283019      -279.8152
  14   2.0000     -10.277755      -279.6719
  15   2.0000     -10.277431      -279.6631
  16   2.0000      -8.079906      -219.8654
  17   2.0000      -8.079041      -219.8419
  18   2.0000      -6.038341      -164.3116
  19   2.0000      -6.037466      -164.2878
  20   2.0000      -6.034085      -164.1958
  21   2.0000      -6.033552      -164.1813
  22   2.0000      -6.030755      -164.1052
  23   2.0000      -6.029664      -164.0755
  24   2.0000      -1.014038       -27.5934
  25   2.0000      -0.996938       -27.1281
  26   2.0000      -0.911021       -24.7902
  27   2.0000      -0.908589       -24.7240
  28   2.0000      -0.873910       -23.7803
  29   2.0000      -0.846080       -23.0230
  30   2.0000      -0.842620       -22.9288
  31   2.0000      -0.819853       -22.3093
  32   2.0000      -0.784918       -21.3587
  33   2.0000      -0.775919       -21.1138
  34   2.0000      -0.713101       -19.4045
  35   2.0000      -0.699830       -19.0433
  36   2.0000      -0.693195       -18.8628
  37   2.0000      -0.653972       -17.7955
  38   2.0000      -0.641545       -17.4573
  39   2.0000      -0.621335       -16.9074
  40   2.0000      -0.601137       -16.3578
  41   2.0000      -0.572507       -15.5787
  42   2.0000      -0.556631       -15.1467
  43   2.0000      -0.554235       -15.0815
  44   2.0000      -0.538858       -14.6631
  45   2.0000      -0.535053       -14.5595
  46   2.0000      -0.517596       -14.0845
  47   2.0000      -0.506450       -13.7812
  48   2.0000      -0.501194       -13.6382
  49   2.0000      -0.499510       -13.5924
  50   2.0000      -0.490509       -13.3474
  51   2.0000      -0.478876       -13.0309
  52   2.0000      -0.471046       -12.8178
  53   2.0000      -0.468609       -12.7515
  54   2.0000      -0.457056       -12.4371
  55   2.0000      -0.446669       -12.1545
  56   2.0000      -0.445785       -12.1304
  57   2.0000      -0.441629       -12.0173
  58   2.0000      -0.432027       -11.7561
  59   2.0000      -0.425916       -11.5898
  60   2.0000      -0.422385       -11.4937
  61   2.0000      -0.412479       -11.2241
  62   2.0000      -0.409235       -11.1358
  63   2.0000      -0.345411        -9.3991
  64   2.0000      -0.328234        -8.9317
  65   2.0000      -0.326788        -8.8924
  66   2.0000      -0.305838        -8.3223
  67   0.0000       0.037149         1.0109
  68   0.0000       0.074939         2.0392
  69   0.0000       0.114899         3.1266
  70   0.0000       0.126857         3.4520
  71   0.0000       0.133766         3.6400

MULLIKEN ATOMIC CHARGES
-----------------------
   0 S :    0.126738
   1 C :   -0.110286
   2 C :   -0.102791
   3 C :    0.033471
   4 C :   -0.195490
   5 H :    0.021800
   6 C :    0.078023
   7 H :    0.013717
   8 H :    0.044722
   9 C :   -0.056741
  10 H :    0.025017
  11 H :   -0.000948
  12 C :   -0.064992
  13 H :    0.020926
  14 H :    0.037141
  15 H :    0.038889
  16 S :    0.112867
  17 C :   -0.071499
  18 C :   -0.026997
  19 C :   -0.062517
  20 C :   -0.147745
  21 H :    0.005586
  22 C :    0.054779
  23 H :    0.028957
  24 H :    0.046391
  25 C :   -0.066090
  26 H :    0.036567
  27 H :    0.032998
  28 C :   -0.056315
  29 H :    0.041124
  30 H :    0.038538
  31 H :    0.026084
  32 H :    0.054359
  33 H :    0.043715
Sum of atomic charges:   -0.0000000

LOEWDIN ATOMIC CHARGES
----------------------
   0 S :    0.437298
   1 C :   -0.221669
   2 C :   -0.073432
   3 C :   -0.061711
   4 C :   -0.207140
   5 H :    0.032253
   6 C :   -0.030909
   7 H :    0.030092
   8 H :    0.037034
   9 C :   -0.040518
  10 H :    0.027189
  11 H :    0.010318
  12 C :   -0.065796
  13 H :    0.016980
  14 H :    0.033422
  15 H :    0.025624
  16 S :    0.422867
  17 C :   -0.181671
  18 C :   -0.075535
  19 C :   -0.052785
  20 C :   -0.208369
  21 H :    0.026788
  22 C :   -0.036004
  23 H :    0.029913
  24 H :    0.033993
  25 C :   -0.039436
  26 H :    0.027877
  27 H :    0.022655
  28 C :   -0.070284
  29 H :    0.036381
  30 H :    0.023728
  31 H :    0.023847
  32 H :    0.040341
  33 H :    0.026659

  Mayer bond orders larger than 0.100000
B(  0-S ,  1-C ) :   1.1588 B(  0-S ,  4-C ) :   1.1544 B(  1-C ,  2-C ) :   1.6304
B(  1-C , 32-H ) :   0.9569 B(  2-C ,  3-C ) :   1.2327 B(  2-C ,  6-C ) :   1.0170
B(  3-C ,  4-C ) :   1.5933 B(  3-C ,  5-H ) :   0.9863 B(  4-C , 20-C ) :   1.0055
B(  6-C ,  7-H ) :   0.9410 B(  6-C ,  8-H ) :   0.9383 B(  6-C ,  9-C ) :   1.0724
B(  9-C , 10-H ) :   0.9543 B(  9-C , 11-H ) :   0.9562 B(  9-C , 12-C ) :   1.0576
B( 12-C , 13-H ) :   0.9790 B( 12-C , 14-H ) :   0.9770 B( 12-C , 15-H ) :   0.9766
B( 16-S , 17-C ) :   1.1559 B( 16-S , 20-C ) :   1.1637 B( 17-C , 18-C ) :   1.6145
B( 17-C , 33-H ) :   0.9702 B( 18-C , 19-C ) :   1.2409 B( 18-C , 21-H ) :   0.9966
B( 19-C , 20-C ) :   1.5832 B( 19-C , 22-C ) :   1.0309 B( 22-C , 23-H ) :   0.9265
B( 22-C , 24-H ) :   0.9351 B( 22-C , 25-C ) :   1.0756 B( 25-C , 26-H ) :   0.9547
B( 25-C , 27-H ) :   0.9556 B( 25-C , 28-C ) :   1.0632 B( 28-C , 29-H ) :   0.9746
B( 28-C , 30-H ) :   0.9775 B( 28-C , 31-H ) :   0.9701

Dispersion correction           -0.014934295
FINAL SINGLE POINT ENERGY     -1339.871913351960

DIPOLE MOMENT
-------------
                                X             Y             Z
Electronic contribution:     -3.24272     -25.06667     -10.23121
Nuclear contribution   :      3.40261      25.45655      10.73773
                        -----------------------------------------
Total Dipole Moment    :      0.15989       0.38988       0.50652
                        -----------------------------------------
Magnitude (a.u.)       :      0.65889
Magnitude (Debye)      :      1.67476

Rotational constants in cm-1:     0.018112     0.009302     0.007380
Rotational constants in MHz :   542.970268   278.862516   221.254329

                             ****ORCA TERMINATED NORMALLY****
TOTAL RUN TIME: 0 days 0 hours 0 minutes 22 seconds 184 msec
