                         Program Version 4.2.1 -  RELEASE  -
|  1> ! wB97X-D3 SP def2-SVP
|  2> %pal
|  3> nprocs 24
|  4> end
|  5>
|  6> * xyz 0 1
|  7> S 	 -27.8464 	 12.4226 	 4.0827
|  8> C 	 -29.3674 	 12.4603 	 3.20751
|  9> C 	 -30.3608 	 13.0588 	 3.87182
| 10> C 	 -29.8306 	 13.8852 	 4.89503
| 11> C 	 -28.501 	 13.5984 	 5.16255
| 12> H 	 -30.2813 	 14.6819 	 5.47131
| 13> C 	 -31.7153 	 13.2266 	 3.30731
| 14> H 	 -31.677 	 12.741 	 2.33068
| 15> H 	 -31.9818 	 14.2079 	 3.27332
| 16> C 	 -32.9162 	 12.6182 	 4.02621
| 17> H 	 -32.7739 	 12.9751 	 5.0226
| 18> H 	 -33.8982 	 12.9842 	 3.62319
| 19> C 	 -32.8001 	 11.1498 	 4.09825
| 20> H 	 -32.9651 	 10.7563 	 3.1557
| 21> H 	 -31.8189 	 10.8391 	 4.44464
| 22> H 	 -33.4867 	 10.7457 	 4.82016
| 23> S 	 -26.0954 	 14.9724 	 5.35666
| 24> C 	 -25.3343 	 15.2332 	 6.88403
| 25> C 	 -26.3044 	 15.178 	 7.89059
| 26> C 	 -27.5971 	 14.7292 	 7.40411
| 27> C 	 -27.5804 	 14.3261 	 6.06806
| 28> H 	 -26.0533 	 15.5907 	 8.85524
| 29> C 	 -28.7464 	 14.5868 	 8.36034
| 30> H 	 -29.5966 	 14.728 	 7.67915
| 31> H 	 -28.7965 	 15.3543 	 9.12411
| 32> C 	 -28.9955 	 13.1206 	 8.94665
| 33> H 	 -28.1516 	 12.7028 	 9.51962
| 34> H 	 -29.0501 	 12.4531 	 8.07695
| 35> C 	 -30.3253 	 13.0417 	 9.72389
| 36> H 	 -30.3628 	 12.0665 	 10.2114
| 37> H 	 -31.2439 	 13.0352 	 9.15808
| 38> H 	 -30.3235 	 13.8809 	 10.3965
| 39> H 	 -29.7147 	 11.8704 	 2.38598
| 40> H 	 -24.3211 	 15.6352 	 6.93181
| 41> *
| 42>
| 43>                          ****END OF INPUT****

CARTESIAN COORDINATES (ANGSTROEM)
---------------------------------
  S    -27.846400   12.422600    4.082700
  C    -29.367400   12.460300    3.207510
  C    -30.360800   13.058800    3.871820
  C    -29.830600   13.885200    4.895030
  C    -28.501000   13.598400    5.162550
  H    -30.281300   14.681900    5.471310
  C    -31.715300   13.226600    3.307310
  H    -31.677000   12.741000    2.330680
  H    -31.981800   14.207900    3.273320
  C    -32.916200   12.618200    4.026210
  H    -32.773900   12.975100    5.022600
  H    -33.898200   12.984200    3.623190
  C    -32.800100   11.149800    4.098250
  H    -32.965100   10.756300    3.155700
  H    -31.818900   10.839100    4.444640
  H    -33.486700   10.745700    4.820160
  S    -26.095400   14.972400    5.356660
  C    -25.334300   15.233200    6.884030
  C    -26.304400   15.178000    7.890590
  C    -27.597100   14.729200    7.404110
  C    -27.580400   14.326100    6.068060
  H    -26.053300   15.590700    8.855240
  C    -28.746400   14.586800    8.360340
  H    -29.596600   14.728000    7.679150
  H    -28.796500   15.354300    9.124110
  C    -28.995500   13.120600    8.946650
  H    -28.151600   12.702800    9.519620
  H    -29.050100   12.453100    8.076950
  C    -30.325300   13.041700    9.723890
  H    -30.362800   12.066500   10.211400
  H    -31.243900   13.035200    9.158080
  H    -30.323500   13.880900   10.396500
  H    -29.714700   11.870400    2.385980
  H    -24.321100   15.635200    6.931810

 Total Charge           Charge          ....    0
 Multiplicity           Mult            ....    1
 Number of Electrons    NEL             ....  134
 Basis Dimension        Dim             ....  322

ORBITAL ENERGIES
----------------

  NO   OCC          E(Eh)            E(eV)
   0   2.0000     -88.970697     -2421.0157
   1   2.0000     -88.959705     -2420.7166
   2   2.0000     -10.330815      -281.1158
   3   2.0000     -10.329026      -281.0671
   4   2.0000     -10.318001      -280.7671
   5   2.0000     -10.308063      -280.4967
   6   2.0000     -10.307008      -280.4680
   7   2.0000     -10.296085      -280.1707
   8   2.0000     -10.295491      -280.1545
   9   2.0000     -10.294347      -280.1234
  10   2.0000     -10.292754      -280.0801
  11   2.0000     -10.289204      -279.9835
  12   2.0000     -10.281139      -279.7640
  13   2.0000     -10.279809      -279.7278
  14   2.0000     -10.275048      -279.5983
  15   2.0000     -10.262969      -279.2696
  16   2.0000      -8.085661      -220.0220
  17   2.0000      -8.074836      -219.7275
  18   2.0000      -6.044149      -164.4697
  19   2.0000      -6.040297      -164.3648
  20   2.0000      -6.036225      -164.2540
  21   2.0000      -6.033295      -164.1743
  22   2.0000      -6.029299      -164.0656
  23   2.0000      -6.025595      -163.9648
  24   2.0000      -1.012935       -27.5634
  25   2.0000      -0.987640       -26.8750
  26   2.0000      -0.927711       -25.2443
  27   2.0000      -0.901114       -24.5206
  28   2.0000      -0.874255       -23.7897
  29   2.0000      -0.853444       -23.2234
  30   2.0000      -0.845271       -23.0010
  31   2.0000      -0.817423       -22.2432
  32   2.0000      -0.789380       -21.4801
  33   2.0000      -0.772325       -21.0160
  34   2.0000      -0.710627       -19.3371
  35   2.0000      -0.697001       -18.9664
  36   2.0000      -0.691701       -18.8221
  37   2.0000      -0.660717       -17.9790
  38   2.0000      -0.641850       -17.4656
  39   2.0000      -0.621281       -16.9059
  40   2.0000      -0.593647       -16.1540
  41   2.0000      -0.578882       -15.7522
  42   2.0000      -0.564211       -15.3530
  43   2.0000      -0.559629       -15.2283
  44   2.0000      -0.553619       -15.0647
  45   2.0000      -0.524172       -14.2635
  46   2.0000      -0.523512       -14.2455
  47   2.0000      -0.509756       -13.8712
  48   2.0000      -0.500017       -13.6062
  49   2.0000      -0.494282       -13.4501
  50   2.0000      -0.492083       -13.3903
  51   2.0000      -0.489713       -13.3258
  52   2.0000      -0.471779       -12.8378
  53   2.0000      -0.466517       -12.6946
  54   2.0000      -0.460057       -12.5188
  55   2.0000      -0.453393       -12.3374
  56   2.0000      -0.439685       -11.9644
  57   2.0000      -0.434805       -11.8317
  58   2.0000      -0.430835       -11.7236
  59   2.0000      -0.427017       -11.6197
  60   2.0000      -0.419658       -11.4195
  61   2.0000      -0.418017       -11.3748
  62   2.0000      -0.414637       -11.2829
  63   2.0000      -0.343771        -9.3545
  64   2.0000      -0.336285        -9.1508
  65   2.0000      -0.320054        -8.7091
  66   2.0000      -0.294334        -8.0092
  67   0.0000       0.023751         0.6463
  68   0.0000       0.071755         1.9526
  69   0.0000       0.103982         2.8295
  70   0.0000       0.111279         3.0280
  71   0.0000       0.126630         3.4458

MULLIKEN ATOMIC CHARGES
-----------------------
   0 S :    0.135030
   1 C :   -0.099418
   2 C :   -0.085838
   3 C :    0.021743
   4 C :   -0.157201
   5 H :    0.021481
   6 C :    0.108373
   7 H :    0.003161
   8 H :    0.005726
   9 C :   -0.075088
  10 H :    0.006563
  11 H :    0.040836
  12 C :   -0.007106
  13 H :    0.006813
  14 H :    0.027384
  15 H :    0.025437
  16 S :    0.096187
  17 C :   -0.105119
  18 C :   -0.032639
  19 C :   -0.030969
  20 C :   -0.165541
  21 H :    0.020447
  22 C :    0.063610
  23 H :    0.004867
  24 H :    0.025580
  25 C :   -0.082482
  26 H :    0.036637
  27 H :    0.028934
  28 C :   -0.030451
  29 H :    0.032663
  30 H :    0.029147
  31 H :    0.028119
  32 H :    0.033107
  33 H :    0.070005
Sum of atomic charges:   -0.0000000

LOEWDIN ATOMIC CHARGES
----------------------
   0 S :    0.420649
   1 C :   -0.185502
   2 C :   -0.067466
   3 C :   -0.056034
   4 C :   -0.200430
   5 H :    0.030688
   6 C :   -0.020268
   7 H :    0.026657
   8 H :    0.020929
   9 C :   -0.038603
  10 H :    0.017427
  11 H :    0.030393
  12 C :   -0.057399
  13 H :    0.012764
  14 H :    0.027436
  15 H :    0.024826
  16 S :    0.404111
  17 C :   -0.191441
  18 C :   -0.074415
  19 C :   -0.056435
  20 C :   -0.199116
  21 H :    0.030277
  22 C :   -0.035451
  23 H :    0.029946
  24 H :    0.026524
  25 C :   -0.036368
  26 H :    0.024719
  27 H :    0.025159
  28 C :   -0.065083
  29 H :    0.030074
  30 H :    0.023495
  31 H :    0.021423
  32 H :    0.024718
  33 H :    0.031797

  Mayer bond orders larger than 0.100000
B(  0-S ,  1-C ) :   1.1282 B(  0-S ,  4-C ) :   1.1505 B(  1-C ,  2-C ) :   1.6459
B(  1-C , 32-H ) :   0.9535 B(  2-C ,  3-C ) :   1.1912 B(  2-C ,  6-C ) :   1.0442
B(  3-C ,  4-C ) :   1.6059 B(  3-C ,  5-H ) :   0.9868 B(  4-C , 20-C ) :   1.0287
B(  6-C ,  7-H ) :   0.9385 B(  6-C ,  8-H ) :   0.9346 B(  6-C ,  9-C ) :   1.0673
B(  9-C , 10-H ) :   0.9500 B(  9-C , 11-H ) :   0.9556 B(  9-C , 12-C ) :   1.0917
B( 12-C , 13-H ) :   0.9737 B( 12-C , 14-H ) :   0.9688 B( 12-C , 15-H ) :   0.9703
B( 16-S , 17-C ) :   1.1721 B( 16-S , 20-C ) :   1.1484 B( 17-C , 18-C ) :   1.5725
B( 17-C , 20-C ) :   0.1013 B( 17-C , 33-H ) :   0.9688 B( 18-C , 19-C ) :   1.2430
B( 18-C , 21-H ) :   0.9960 B( 19-C , 20-C ) :   1.5688 B( 19-C , 22-C ) :   1.0591
B( 22-C , 23-H ) :   0.9306 B( 22-C , 24-H ) :   0.9380 B( 22-C , 25-C ) :   1.0526
B( 25-C , 26-H ) :   0.9614 B( 25-C , 27-H ) :   0.9545 B( 25-C , 28-C ) :   1.0742
B( 28-C , 29-H ) :   0.9725 B( 28-C , 30-H ) :   0.9765 B( 28-C , 31-H ) :   0.9776

Dispersion correction           -0.014228013
FINAL SINGLE POINT ENERGY     -1339.850735001932

DIPOLE MOMENT
-------------
                                X             Y             Z
Electronic contribution:     26.11768       6.96650     -11.10187
Nuclear contribution   :    -26.65292      -6.84802      11.35606
                        -----------------------------------------
Total Dipole Moment    :     -0.53523       0.11848       0.25419
                        -----------------------------------------
Magnitude (a.u.)       :      0.60426
Magnitude (Debye)      :      1.53590

Rotational constants in cm-1:     0.018650     0.009188     0.006785
Rotational constants in MHz :   559.116098   275.434372   203.395286

                             ****ORCA TERMINATED NORMALLY****
TOTAL RUN TIME: 0 days 0 hours 0 minutes 21 seconds 904 msec
