                         Program Version 4.2.1 -  RELEASE  -
|  1> ! wB97X-D3 SP def2-SVP
|  2> %pal
|  3> nprocs 24
|  4> end
|  5>
|  6> * xyz 0 1
|  7> S 	 -104.15 	 21.9146 	 -120.38
|  8> C 	 -102.412 	 21.7849 	 -120.012
|  9> C 	 -101.851 	 20.8586 	 -120.88
| 10> C 	 -102.816 	 20.0221 	 -121.549
| 11> C 	 -104.082 	 20.3853 	 -121.287
| 12> H 	 -102.573 	 19.2201 	 -122.136
| 13> C 	 -100.37 	 20.7413 	 -121.202
| 14> H 	 -99.9474 	 21.6686 	 -120.741
| 15> H 	 -100.106 	 20.8098 	 -122.208
| 16> C 	 -99.6055 	 19.4672 	 -120.555
| 17> H 	 -100.022 	 18.6044 	 -120.877
| 18> H 	 -98.6023 	 19.3864 	 -121.02
| 19> C 	 -99.4371 	 19.6808 	 -119.004
| 20> H 	 -100.391 	 19.9837 	 -118.552
| 21> H 	 -99.1921 	 18.7458 	 -118.476
| 22> H 	 -98.7741 	 20.4795 	 -118.749
| 23> S 	 -106.082 	 20.8507 	 -123.14
| 24> C 	 -107.155 	 19.3868 	 -123.613
| 25> C 	 -106.652 	 18.2592 	 -123.022
| 26> C 	 -105.613 	 18.512 	 -122.121
| 27> C 	 -105.239 	 19.8186 	 -121.988
| 28> H 	 -107.084 	 17.2735 	 -123.15
| 29> C 	 -104.891 	 17.3536 	 -121.446
| 30> H 	 -103.837 	 17.5754 	 -121.522
| 31> H 	 -104.996 	 16.4816 	 -122.063
| 32> C 	 -105.234 	 17.1158 	 -119.964
| 33> H 	 -106.256 	 16.8424 	 -119.869
| 34> H 	 -105.157 	 18.0835 	 -119.492
| 35> C 	 -104.431 	 16.0495 	 -119.198
| 36> H 	 -104.883 	 15.9355 	 -118.224
| 37> H 	 -103.434 	 16.4033 	 -118.931
| 38> H 	 -104.471 	 15.0692 	 -119.618
| 39> H 	 -101.868 	 22.504 	 -119.388
| 40> H 	 -107.996 	 19.4145 	 -124.169
| 41> *
| 42>
| 43>                          ****END OF INPUT****

CARTESIAN COORDINATES (ANGSTROEM)
---------------------------------
  S    -104.150000   21.914600  -120.380000
  C    -102.412000   21.784900  -120.012000
  C    -101.851000   20.858600  -120.880000
  C    -102.816000   20.022100  -121.549000
  C    -104.082000   20.385300  -121.287000
  H    -102.573000   19.220100  -122.136000
  C    -100.370000   20.741300  -121.202000
  H    -99.947400   21.668600  -120.741000
  H    -100.106000   20.809800  -122.208000
  C    -99.605500   19.467200  -120.555000
  H    -100.022000   18.604400  -120.877000
  H    -98.602300   19.386400  -121.020000
  C    -99.437100   19.680800  -119.004000
  H    -100.391000   19.983700  -118.552000
  H    -99.192100   18.745800  -118.476000
  H    -98.774100   20.479500  -118.749000
  S    -106.082000   20.850700  -123.140000
  C    -107.155000   19.386800  -123.613000
  C    -106.652000   18.259200  -123.022000
  C    -105.613000   18.512000  -122.121000
  C    -105.239000   19.818600  -121.988000
  H    -107.084000   17.273500  -123.150000
  C    -104.891000   17.353600  -121.446000
  H    -103.837000   17.575400  -121.522000
  H    -104.996000   16.481600  -122.063000
  C    -105.234000   17.115800  -119.964000
  H    -106.256000   16.842400  -119.869000
  H    -105.157000   18.083500  -119.492000
  C    -104.431000   16.049500  -119.198000
  H    -104.883000   15.935500  -118.224000
  H    -103.434000   16.403300  -118.931000
  H    -104.471000   15.069200  -119.618000
  H    -101.868000   22.504000  -119.388000
  H    -107.996000   19.414500  -124.169000

 Total Charge           Charge          ....    0
 Multiplicity           Mult            ....    1
 Number of Electrons    NEL             ....  134
 Basis Dimension        Dim             ....  322

ORBITAL ENERGIES
----------------

  NO   OCC          E(Eh)            E(eV)
   0   2.0000     -88.966828     -2420.9105
   1   2.0000     -88.964971     -2420.8599
   2   2.0000     -10.330126      -281.0970
   3   2.0000     -10.325423      -280.9690
   4   2.0000     -10.322382      -280.8863
   5   2.0000     -10.317787      -280.7613
   6   2.0000     -10.306390      -280.4511
   7   2.0000     -10.295214      -280.1470
   8   2.0000     -10.294767      -280.1348
   9   2.0000     -10.292892      -280.0838
  10   2.0000     -10.290128      -280.0086
  11   2.0000     -10.288577      -279.9664
  12   2.0000     -10.284377      -279.8521
  13   2.0000     -10.279724      -279.7255
  14   2.0000     -10.278375      -279.6888
  15   2.0000     -10.272781      -279.5366
  16   2.0000      -8.080808      -219.8900
  17   2.0000      -8.077846      -219.8094
  18   2.0000      -6.039487      -164.3428
  19   2.0000      -6.036575      -164.2636
  20   2.0000      -6.035682      -164.2393
  21   2.0000      -6.032793      -164.1606
  22   2.0000      -6.031148      -164.1159
  23   2.0000      -6.028299      -164.0384
  24   2.0000      -1.005431       -27.3592
  25   2.0000      -0.979900       -26.6644
  26   2.0000      -0.902625       -24.5617
  27   2.0000      -0.900917       -24.5152
  28   2.0000      -0.870960       -23.7000
  29   2.0000      -0.849673       -23.1208
  30   2.0000      -0.842343       -22.9213
  31   2.0000      -0.819814       -22.3083
  32   2.0000      -0.779598       -21.2139
  33   2.0000      -0.771717       -20.9995
  34   2.0000      -0.717190       -19.5157
  35   2.0000      -0.706704       -19.2304
  36   2.0000      -0.697075       -18.9684
  37   2.0000      -0.669385       -18.2149
  38   2.0000      -0.648207       -17.6386
  39   2.0000      -0.623444       -16.9648
  40   2.0000      -0.594661       -16.1815
  41   2.0000      -0.566816       -15.4239
  42   2.0000      -0.564836       -15.3700
  43   2.0000      -0.546454       -14.8698
  44   2.0000      -0.532942       -14.5021
  45   2.0000      -0.524456       -14.2712
  46   2.0000      -0.519598       -14.1390
  47   2.0000      -0.514697       -14.0056
  48   2.0000      -0.502144       -13.6640
  49   2.0000      -0.498724       -13.5710
  50   2.0000      -0.493589       -13.4312
  51   2.0000      -0.484973       -13.1968
  52   2.0000      -0.475045       -12.9266
  53   2.0000      -0.461081       -12.5467
  54   2.0000      -0.459948       -12.5158
  55   2.0000      -0.445685       -12.1277
  56   2.0000      -0.441513       -12.0142
  57   2.0000      -0.437703       -11.9105
  58   2.0000      -0.428685       -11.6651
  59   2.0000      -0.425547       -11.5797
  60   2.0000      -0.418774       -11.3954
  61   2.0000      -0.418260       -11.3814
  62   2.0000      -0.415348       -11.3022
  63   2.0000      -0.350731        -9.5439
  64   2.0000      -0.332250        -9.0410
  65   2.0000      -0.324508        -8.8303
  66   2.0000      -0.295748        -8.0477
  67   0.0000       0.026882         0.7315
  68   0.0000       0.059825         1.6279
  69   0.0000       0.093217         2.5366
  70   0.0000       0.111568         3.0359
  71   0.0000       0.133260         3.6262

MULLIKEN ATOMIC CHARGES
-----------------------
   0 S :    0.095522
   1 C :   -0.120070
   2 C :   -0.083211
   3 C :    0.076505
   4 C :   -0.144056
   5 H :   -0.009527
   6 C :    0.041772
   7 H :    0.015303
   8 H :    0.026610
   9 C :   -0.030710
  10 H :    0.002212
  11 H :    0.026837
  12 C :   -0.056880
  13 H :    0.027031
  14 H :    0.039161
  15 H :    0.030493
  16 S :    0.078443
  17 C :   -0.055114
  18 C :   -0.011150
  19 C :   -0.071091
  20 C :   -0.126597
  21 H :    0.021419
  22 C :    0.106733
  23 H :   -0.005003
  24 H :    0.003740
  25 C :   -0.055965
  26 H :    0.012675
  27 H :    0.029464
  28 C :   -0.020709
  29 H :    0.020576
  30 H :    0.030728
  31 H :    0.029288
  32 H :    0.061015
  33 H :    0.014558
Sum of atomic charges:   -0.0000000

LOEWDIN ATOMIC CHARGES
----------------------
   0 S :    0.376086
   1 C :   -0.186833
   2 C :   -0.056460
   3 C :   -0.042773
   4 C :   -0.178879
   5 H :    0.018396
   6 C :   -0.026404
   7 H :    0.031993
   8 H :    0.022984
   9 C :   -0.026265
  10 H :    0.003949
  11 H :    0.027642
  12 C :   -0.067733
  13 H :    0.025040
  14 H :    0.028593
  15 H :    0.022362
  16 S :    0.349886
  17 C :   -0.127854
  18 C :   -0.058562
  19 C :   -0.065974
  20 C :   -0.185114
  21 H :    0.035657
  22 C :   -0.028363
  23 H :    0.024032
  24 H :    0.022440
  25 C :   -0.034866
  26 H :    0.018150
  27 H :    0.027187
  28 C :   -0.063263
  29 H :    0.028452
  30 H :    0.026001
  31 H :    0.021646
  32 H :    0.032992
  33 H :    0.005854

  Mayer bond orders larger than 0.100000
B(  0-S ,  1-C ) :   1.1181 B(  0-S ,  4-C ) :   1.1261 B(  1-C ,  2-C ) :   1.6272
B(  1-C , 32-H ) :   0.9664 B(  2-C ,  3-C ) :   1.2055 B(  2-C ,  6-C ) :   1.0235
B(  3-C ,  4-C ) :   1.5988 B(  3-C ,  5-H ) :   1.0065 B(  4-C , 20-C ) :   1.0169
B(  6-C ,  7-H ) :   0.9463 B(  6-C ,  8-H ) :   0.9498 B(  6-C ,  9-C ) :   1.0548
B(  9-C , 10-H ) :   0.9656 B(  9-C , 11-H ) :   0.9577 B(  9-C , 12-C ) :   1.0597
B( 12-C , 13-H ) :   0.9787 B( 12-C , 14-H ) :   0.9764 B( 12-C , 15-H ) :   0.9772
B( 16-S , 17-C ) :   1.1151 B( 16-S , 20-C ) :   1.1274 B( 17-C , 18-C ) :   1.6234
B( 17-C , 20-C ) :   0.1019 B( 17-C , 33-H ) :   0.9834 B( 18-C , 19-C ) :   1.2483
B( 18-C , 21-H ) :   0.9840 B( 19-C , 20-C ) :   1.6369 B( 19-C , 22-C ) :   1.0373
B( 22-C , 23-H ) :   0.9258 B( 22-C , 24-H ) :   0.9315 B( 22-C , 25-C ) :   1.0617
B( 25-C , 26-H ) :   0.9550 B( 25-C , 27-H ) :   0.9548 B( 25-C , 28-C ) :   1.0928
B( 28-C , 29-H ) :   0.9701 B( 28-C , 30-H ) :   0.9734 B( 28-C , 31-H ) :   0.9746

Dispersion correction           -0.014577607
FINAL SINGLE POINT ENERGY     -1339.850611579071

DIPOLE MOMENT
-------------
                                X             Y             Z
Electronic contribution:    -18.90643      19.17854     -12.51128
Nuclear contribution   :     19.36634     -19.72309      12.47789
                        -----------------------------------------
Total Dipole Moment    :      0.45992      -0.54455      -0.03339
                        -----------------------------------------
Magnitude (a.u.)       :      0.71357
Magnitude (Debye)      :      1.81374

Rotational constants in cm-1:     0.017843     0.009298     0.007143
Rotational constants in MHz :   534.918099   278.757650   214.148823

                             ****ORCA TERMINATED NORMALLY****
TOTAL RUN TIME: 0 days 0 hours 0 minutes 20 seconds 950 msec
