                         Program Version 4.2.1 -  RELEASE  -
|  1> ! wB97X-D3 SP def2-SVP
|  2> %pal
|  3> nprocs 24
|  4> end
|  5>
|  6> * xyz 0 1
|  7> S 	 43.2674 	 -20.0162 	 -115.671
|  8> C 	 43.3019 	 -18.2543 	 -115.626
|  9> C 	 44.0967 	 -17.7505 	 -114.622
| 10> C 	 44.7166 	 -18.8049 	 -113.861
| 11> C 	 44.3591 	 -20.0991 	 -114.302
| 12> H 	 45.4909 	 -18.6869 	 -113.115
| 13> C 	 44.1399 	 -16.2859 	 -114.304
| 14> H 	 43.1507 	 -15.7842 	 -114.362
| 15> H 	 44.7613 	 -15.8408 	 -115.089
| 16> C 	 44.6397 	 -15.9083 	 -112.841
| 17> H 	 45.5903 	 -16.5056 	 -112.637
| 18> H 	 44.7183 	 -14.9287 	 -112.757
| 19> C 	 43.7372 	 -16.1619 	 -111.632
| 20> H 	 44.2747 	 -16.1287 	 -110.634
| 21> H 	 42.8739 	 -15.5872 	 -111.54
| 22> H 	 43.4538 	 -17.2601 	 -111.699
| 23> S 	 45.9897 	 -22.2236 	 -114.839
| 24> C 	 46.2278 	 -23.3794 	 -113.498
| 25> C 	 45.8405 	 -22.9158 	 -112.309
| 26> C 	 45.0199 	 -21.7693 	 -112.448
| 27> C 	 44.8944 	 -21.3 	 -113.697
| 28> H 	 46.0149 	 -23.5727 	 -111.455
| 29> C 	 44.2842 	 -21.065 	 -111.326
| 30> H 	 43.5774 	 -21.7761 	 -110.911
| 31> H 	 43.5731 	 -20.3114 	 -111.703
| 32> C 	 45.2294 	 -20.4124 	 -110.323
| 33> H 	 46.0549 	 -19.7718 	 -110.704
| 34> H 	 45.7578 	 -21.2617 	 -109.877
| 35> C 	 44.4691 	 -19.8263 	 -109.138
| 36> H 	 44.1939 	 -18.8111 	 -109.31
| 37> H 	 45.1133 	 -19.7055 	 -108.261
| 38> H 	 43.5917 	 -20.4639 	 -108.863
| 39> H 	 42.6135 	 -17.5929 	 -116.149
| 40> H 	 46.7272 	 -24.3401 	 -113.66
| 41> *
| 42>
| 43>                          ****END OF INPUT****

CARTESIAN COORDINATES (ANGSTROEM)
---------------------------------
  S     43.267400  -20.016200  -115.671000
  C     43.301900  -18.254300  -115.626000
  C     44.096700  -17.750500  -114.622000
  C     44.716600  -18.804900  -113.861000
  C     44.359100  -20.099100  -114.302000
  H     45.490900  -18.686900  -113.115000
  C     44.139900  -16.285900  -114.304000
  H     43.150700  -15.784200  -114.362000
  H     44.761300  -15.840800  -115.089000
  C     44.639700  -15.908300  -112.841000
  H     45.590300  -16.505600  -112.637000
  H     44.718300  -14.928700  -112.757000
  C     43.737200  -16.161900  -111.632000
  H     44.274700  -16.128700  -110.634000
  H     42.873900  -15.587200  -111.540000
  H     43.453800  -17.260100  -111.699000
  S     45.989700  -22.223600  -114.839000
  C     46.227800  -23.379400  -113.498000
  C     45.840500  -22.915800  -112.309000
  C     45.019900  -21.769300  -112.448000
  C     44.894400  -21.300000  -113.697000
  H     46.014900  -23.572700  -111.455000
  C     44.284200  -21.065000  -111.326000
  H     43.577400  -21.776100  -110.911000
  H     43.573100  -20.311400  -111.703000
  C     45.229400  -20.412400  -110.323000
  H     46.054900  -19.771800  -110.704000
  H     45.757800  -21.261700  -109.877000
  C     44.469100  -19.826300  -109.138000
  H     44.193900  -18.811100  -109.310000
  H     45.113300  -19.705500  -108.261000
  H     43.591700  -20.463900  -108.863000
  H     42.613500  -17.592900  -116.149000
  H     46.727200  -24.340100  -113.660000

 Total Charge           Charge          ....    0
 Multiplicity           Mult            ....    1
 Number of Electrons    NEL             ....  134
 Basis Dimension        Dim             ....  322

ORBITAL ENERGIES
----------------

  NO   OCC          E(Eh)            E(eV)
   0   2.0000     -88.970473     -2421.0096
   1   2.0000     -88.954769     -2420.5823
   2   2.0000     -10.330938      -281.1191
   3   2.0000     -10.322570      -280.8914
   4   2.0000     -10.316419      -280.7240
   5   2.0000     -10.312658      -280.6217
   6   2.0000     -10.301534      -280.3190
   7   2.0000     -10.300251      -280.2841
   8   2.0000     -10.299994      -280.2771
   9   2.0000     -10.298284      -280.2306
  10   2.0000     -10.291379      -280.0427
  11   2.0000     -10.289032      -279.9788
  12   2.0000     -10.288681      -279.9692
  13   2.0000     -10.287097      -279.9261
  14   2.0000     -10.281059      -279.7618
  15   2.0000     -10.277805      -279.6733
  16   2.0000      -8.084480      -219.9899
  17   2.0000      -8.068890      -219.5657
  18   2.0000      -6.042992      -164.4382
  19   2.0000      -6.039051      -164.3309
  20   2.0000      -6.035322      -164.2295
  21   2.0000      -6.027401      -164.0139
  22   2.0000      -6.023919      -163.9192
  23   2.0000      -6.019228      -163.7915
  24   2.0000      -1.003839       -27.3158
  25   2.0000      -0.982009       -26.7218
  26   2.0000      -0.909883       -24.7592
  27   2.0000      -0.909183       -24.7401
  28   2.0000      -0.873411       -23.7667
  29   2.0000      -0.851185       -23.1619
  30   2.0000      -0.844503       -22.9801
  31   2.0000      -0.815876       -22.2011
  32   2.0000      -0.782325       -21.2882
  33   2.0000      -0.771074       -20.9820
  34   2.0000      -0.710516       -19.3341
  35   2.0000      -0.699795       -19.0424
  36   2.0000      -0.693040       -18.8586
  37   2.0000      -0.658808       -17.9271
  38   2.0000      -0.636608       -17.3230
  39   2.0000      -0.621582       -16.9141
  40   2.0000      -0.598437       -16.2843
  41   2.0000      -0.571157       -15.5420
  42   2.0000      -0.562272       -15.3002
  43   2.0000      -0.550670       -14.9845
  44   2.0000      -0.547040       -14.8857
  45   2.0000      -0.527600       -14.3567
  46   2.0000      -0.518546       -14.1103
  47   2.0000      -0.511633       -13.9222
  48   2.0000      -0.507119       -13.7994
  49   2.0000      -0.489614       -13.3231
  50   2.0000      -0.486888       -13.2489
  51   2.0000      -0.483969       -13.1695
  52   2.0000      -0.464215       -12.6319
  53   2.0000      -0.463816       -12.6211
  54   2.0000      -0.459006       -12.4902
  55   2.0000      -0.454409       -12.3651
  56   2.0000      -0.448448       -12.2029
  57   2.0000      -0.445032       -12.1099
  58   2.0000      -0.437834       -11.9141
  59   2.0000      -0.427911       -11.6441
  60   2.0000      -0.416434       -11.3318
  61   2.0000      -0.401968       -10.9381
  62   2.0000      -0.398004       -10.8302
  63   2.0000      -0.339604        -9.2411
  64   2.0000      -0.330925        -9.0049
  65   2.0000      -0.327379        -8.9084
  66   2.0000      -0.298377        -8.1192
  67   0.0000       0.030036         0.8173
  68   0.0000       0.066000         1.7959
  69   0.0000       0.104036         2.8310
  70   0.0000       0.116025         3.1572
  71   0.0000       0.127089         3.4583

MULLIKEN ATOMIC CHARGES
-----------------------
   0 S :    0.130296
   1 C :   -0.124623
   2 C :   -0.075113
   3 C :    0.030476
   4 C :   -0.165167
   5 H :    0.011295
   6 C :    0.041691
   7 H :    0.036389
   8 H :    0.051838
   9 C :   -0.045661
  10 H :    0.040804
  11 H :    0.001644
  12 C :   -0.086737
  13 H :    0.045268
  14 H :    0.027019
  15 H :    0.034009
  16 S :    0.059514
  17 C :   -0.092905
  18 C :   -0.025339
  19 C :   -0.018884
  20 C :   -0.143345
  21 H :    0.027580
  22 C :    0.052759
  23 H :    0.025908
  24 H :    0.031437
  25 C :   -0.095460
  26 H :    0.042080
  27 H :    0.021430
  28 C :   -0.031340
  29 H :    0.021958
  30 H :    0.025730
  31 H :    0.039072
  32 H :    0.047273
  33 H :    0.059105
Sum of atomic charges:   -0.0000000

LOEWDIN ATOMIC CHARGES
----------------------
   0 S :    0.410044
   1 C :   -0.197121
   2 C :   -0.066310
   3 C :   -0.056405
   4 C :   -0.201727
   5 H :    0.028377
   6 C :   -0.032812
   7 H :    0.035295
   8 H :    0.040407
   9 C :   -0.033785
  10 H :    0.032544
  11 H :    0.004470
  12 C :   -0.069918
  13 H :    0.035424
  14 H :    0.012478
  15 H :    0.028412
  16 S :    0.331965
  17 C :   -0.151131
  18 C :   -0.078997
  19 C :   -0.053659
  20 C :   -0.164545
  21 H :    0.039592
  22 C :   -0.031197
  23 H :    0.031008
  24 H :    0.030491
  25 C :   -0.046959
  26 H :    0.029513
  27 H :    0.023762
  28 C :   -0.066050
  29 H :    0.018312
  30 H :    0.026418
  31 H :    0.032626
  32 H :    0.029703
  33 H :    0.029774

  Mayer bond orders larger than 0.100000
B(  0-S ,  1-C ) :   1.1325 B(  0-S ,  4-C ) :   1.1584 B(  1-C ,  2-C ) :   1.6245
B(  1-C , 32-H ) :   0.9654 B(  2-C ,  3-C ) :   1.2485 B(  2-C ,  6-C ) :   1.0044
B(  3-C ,  4-C ) :   1.5491 B(  3-C ,  5-H ) :   0.9894 B(  4-C , 20-C ) :   1.0358
B(  6-C ,  7-H ) :   0.9491 B(  6-C ,  8-H ) :   0.9336 B(  6-C ,  9-C ) :   1.0777
B(  9-C , 10-H ) :   0.9527 B(  9-C , 11-H ) :   0.9541 B(  9-C , 12-C ) :   1.0736
B( 12-C , 13-H ) :   0.9721 B( 12-C , 14-H ) :   0.9740 B( 12-C , 15-H ) :   0.9743
B( 16-S , 17-C ) :   1.1291 B( 16-S , 20-C ) :   1.0906 B( 17-C , 18-C ) :   1.6830
B( 17-C , 33-H ) :   0.9622 B( 18-C , 19-C ) :   1.1570 B( 18-C , 21-H ) :   0.9920
B( 19-C , 20-C ) :   1.7050 B( 19-C , 22-C ) :   1.0338 B( 22-C , 23-H ) :   0.9301
B( 22-C , 24-H ) :   0.9386 B( 22-C , 25-C ) :   1.0512 B( 25-C , 26-H ) :   0.9560
B( 25-C , 27-H ) :   0.9549 B( 25-C , 28-C ) :   1.0824 B( 28-C , 29-H ) :   0.9740
B( 28-C , 30-H ) :   0.9720 B( 28-C , 31-H ) :   0.9704

Dispersion correction           -0.015506829
FINAL SINGLE POINT ENERGY     -1339.851664937155

DIPOLE MOMENT
-------------
                                X             Y             Z
Electronic contribution:      1.65428     -18.45444     -26.00810
Nuclear contribution   :     -1.67786      18.85633      26.69203
                        -----------------------------------------
Total Dipole Moment    :     -0.02358       0.40189       0.68393
                        -----------------------------------------
Magnitude (a.u.)       :      0.79362
Magnitude (Debye)      :      2.01722

Rotational constants in cm-1:     0.016213     0.011091     0.007290
Rotational constants in MHz :   486.042125   332.496653   218.536522

                             ****ORCA TERMINATED NORMALLY****
TOTAL RUN TIME: 0 days 0 hours 0 minutes 22 seconds 960 msec
