                         Program Version 4.2.1 -  RELEASE  -
|  1> ! wB97X-D3 SP def2-SVP
|  2> %pal
|  3> nprocs 24
|  4> end
|  5>
|  6> * xyz 0 1
|  7> S 	 -92.199 	 14.1259 	 -116.1
|  8> C 	 -90.8602 	 13.3985 	 -115.351
|  9> C 	 -90.1012 	 12.6292 	 -116.26
| 10> C 	 -90.7738 	 12.5469 	 -117.52
| 11> C 	 -91.7915 	 13.475 	 -117.59
| 12> H 	 -90.465 	 12.0584 	 -118.413
| 13> C 	 -88.9226 	 11.7166 	 -115.874
| 14> H 	 -88.4445 	 12.1362 	 -114.945
| 15> H 	 -88.3071 	 11.5947 	 -116.685
| 16> C 	 -89.227 	 10.2813 	 -115.424
| 17> H 	 -88.3034 	 9.69955 	 -115.053
| 18> H 	 -90.0682 	 10.3974 	 -114.791
| 19> C 	 -89.8252 	 9.43872 	 -116.512
| 20> H 	 -90.4786 	 8.59759 	 -116.118
| 21> H 	 -90.4258 	 9.98531 	 -117.296
| 22> H 	 -89.074 	 8.851 	 -117.074
| 23> S 	 -94.3233 	 12.9497 	 -118.501
| 24> C 	 -94.6473 	 13.2481 	 -120.205
| 25> C 	 -93.5719 	 13.7274 	 -120.859
| 26> C 	 -92.426 	 13.9245 	 -120.066
| 27> C 	 -92.6607 	 13.5864 	 -118.754
| 28> H 	 -93.6347 	 14.1143 	 -121.88
| 29> C 	 -91.1226 	 14.5219 	 -120.595
| 30> H 	 -90.6451 	 14.9431 	 -119.708
| 31> H 	 -91.3072 	 15.3658 	 -121.286
| 32> C 	 -90.2417 	 13.5184 	 -121.285
| 33> H 	 -90.7098 	 13.2532 	 -122.241
| 34> H 	 -90.1241 	 12.6045 	 -120.597
| 35> C 	 -88.8616 	 14.1799 	 -121.638
| 36> H 	 -88.9032 	 14.9812 	 -122.383
| 37> H 	 -88.1539 	 13.4275 	 -122.044
| 38> H 	 -88.2875 	 14.5222 	 -120.812
| 39> H 	 -90.6675 	 13.365 	 -114.2
| 40> H 	 -95.5994 	 13.0413 	 -120.7
| 41> *
| 42>
| 43>                          ****END OF INPUT****

CARTESIAN COORDINATES (ANGSTROEM)
---------------------------------
  S    -92.199000   14.125900  -116.100000
  C    -90.860200   13.398500  -115.351000
  C    -90.101200   12.629200  -116.260000
  C    -90.773800   12.546900  -117.520000
  C    -91.791500   13.475000  -117.590000
  H    -90.465000   12.058400  -118.413000
  C    -88.922600   11.716600  -115.874000
  H    -88.444500   12.136200  -114.945000
  H    -88.307100   11.594700  -116.685000
  C    -89.227000   10.281300  -115.424000
  H    -88.303400    9.699550  -115.053000
  H    -90.068200   10.397400  -114.791000
  C    -89.825200    9.438720  -116.512000
  H    -90.478600    8.597590  -116.118000
  H    -90.425800    9.985310  -117.296000
  H    -89.074000    8.851000  -117.074000
  S    -94.323300   12.949700  -118.501000
  C    -94.647300   13.248100  -120.205000
  C    -93.571900   13.727400  -120.859000
  C    -92.426000   13.924500  -120.066000
  C    -92.660700   13.586400  -118.754000
  H    -93.634700   14.114300  -121.880000
  C    -91.122600   14.521900  -120.595000
  H    -90.645100   14.943100  -119.708000
  H    -91.307200   15.365800  -121.286000
  C    -90.241700   13.518400  -121.285000
  H    -90.709800   13.253200  -122.241000
  H    -90.124100   12.604500  -120.597000
  C    -88.861600   14.179900  -121.638000
  H    -88.903200   14.981200  -122.383000
  H    -88.153900   13.427500  -122.044000
  H    -88.287500   14.522200  -120.812000
  H    -90.667500   13.365000  -114.200000
  H    -95.599400   13.041300  -120.700000

 Total Charge           Charge          ....    0
 Multiplicity           Mult            ....    1
 Number of Electrons    NEL             ....  134
 Basis Dimension        Dim             ....  322

ORBITAL ENERGIES
----------------

  NO   OCC          E(Eh)            E(eV)
   0   2.0000     -88.971462     -2421.0366
   1   2.0000     -88.963022     -2420.8069
   2   2.0000     -10.325072      -280.9595
   3   2.0000     -10.321472      -280.8615
   4   2.0000     -10.320612      -280.8381
   5   2.0000     -10.314851      -280.6814
   6   2.0000     -10.306624      -280.4575
   7   2.0000     -10.298801      -280.2446
   8   2.0000     -10.297218      -280.2016
   9   2.0000     -10.292628      -280.0766
  10   2.0000     -10.291015      -280.0328
  11   2.0000     -10.289763      -279.9987
  12   2.0000     -10.287403      -279.9345
  13   2.0000     -10.286033      -279.8972
  14   2.0000     -10.279845      -279.7288
  15   2.0000     -10.278060      -279.6802
  16   2.0000      -8.088204      -220.0912
  17   2.0000      -8.077271      -219.7937
  18   2.0000      -6.046409      -164.5311
  19   2.0000      -6.042293      -164.4192
  20   2.0000      -6.039299      -164.3377
  21   2.0000      -6.035806      -164.2426
  22   2.0000      -6.032003      -164.1392
  23   2.0000      -6.027878      -164.0269
  24   2.0000      -1.017787       -27.6954
  25   2.0000      -0.988155       -26.8891
  26   2.0000      -0.916301       -24.9338
  27   2.0000      -0.909674       -24.7535
  28   2.0000      -0.870155       -23.6781
  29   2.0000      -0.854313       -23.2470
  30   2.0000      -0.846212       -23.0266
  31   2.0000      -0.812165       -22.1001
  32   2.0000      -0.783686       -21.3252
  33   2.0000      -0.771541       -20.9947
  34   2.0000      -0.700383       -19.0584
  35   2.0000      -0.693112       -18.8605
  36   2.0000      -0.690840       -18.7987
  37   2.0000      -0.663666       -18.0593
  38   2.0000      -0.644171       -17.5288
  39   2.0000      -0.613835       -16.7033
  40   2.0000      -0.596803       -16.2398
  41   2.0000      -0.577701       -15.7200
  42   2.0000      -0.569107       -15.4862
  43   2.0000      -0.547838       -14.9074
  44   2.0000      -0.540585       -14.7101
  45   2.0000      -0.522036       -14.2053
  46   2.0000      -0.515843       -14.0368
  47   2.0000      -0.510493       -13.8912
  48   2.0000      -0.504277       -13.7221
  49   2.0000      -0.496325       -13.5057
  50   2.0000      -0.488139       -13.2829
  51   2.0000      -0.480356       -13.0711
  52   2.0000      -0.473346       -12.8804
  53   2.0000      -0.465058       -12.6549
  54   2.0000      -0.457224       -12.4417
  55   2.0000      -0.448303       -12.1989
  56   2.0000      -0.441932       -12.0256
  57   2.0000      -0.434694       -11.8286
  58   2.0000      -0.432300       -11.7635
  59   2.0000      -0.425444       -11.5769
  60   2.0000      -0.421446       -11.4681
  61   2.0000      -0.417456       -11.3595
  62   2.0000      -0.407867       -11.0986
  63   2.0000      -0.344063        -9.3624
  64   2.0000      -0.331749        -9.0273
  65   2.0000      -0.330819        -9.0020
  66   2.0000      -0.298698        -8.1280
  67   0.0000       0.035012         0.9527
  68   0.0000       0.065992         1.7957
  69   0.0000       0.113241         3.0814
  70   0.0000       0.115705         3.1485
  71   0.0000       0.130067         3.5393

MULLIKEN ATOMIC CHARGES
-----------------------
   0 S :    0.146942
   1 C :   -0.156550
   2 C :   -0.099798
   3 C :    0.041033
   4 C :   -0.177273
   5 H :    0.008366
   6 C :    0.086833
   7 H :    0.034927
   8 H :    0.003333
   9 C :   -0.033384
  10 H :    0.055965
  11 H :    0.016552
  12 C :   -0.128471
  13 H :    0.038249
  14 H :    0.042354
  15 H :    0.022303
  16 S :    0.093015
  17 C :   -0.084302
  18 C :   -0.030628
  19 C :   -0.027701
  20 C :   -0.172555
  21 H :    0.019792
  22 C :    0.068164
  23 H :    0.028960
  24 H :    0.026205
  25 C :   -0.089025
  26 H :    0.034604
  27 H :    0.045383
  28 C :   -0.044673
  29 H :    0.033401
  30 H :    0.029433
  31 H :    0.023910
  32 H :    0.086755
  33 H :    0.057880
Sum of atomic charges:   -0.0000000

LOEWDIN ATOMIC CHARGES
----------------------
   0 S :    0.470637
   1 C :   -0.235442
   2 C :   -0.061694
   3 C :   -0.056982
   4 C :   -0.230436
   5 H :    0.024071
   6 C :   -0.026382
   7 H :    0.039072
   8 H :    0.014762
   9 C :   -0.047143
  10 H :    0.041519
  11 H :    0.021007
  12 C :   -0.086830
  13 H :    0.031711
  14 H :    0.029762
  15 H :    0.019689
  16 S :    0.373162
  17 C :   -0.177091
  18 C :   -0.077913
  19 C :   -0.057186
  20 C :   -0.179999
  21 H :    0.034432
  22 C :   -0.032726
  23 H :    0.031417
  24 H :    0.032441
  25 C :   -0.038748
  26 H :    0.026536
  27 H :    0.030765
  28 C :   -0.070868
  29 H :    0.025979
  30 H :    0.029542
  31 H :    0.020029
  32 H :    0.050442
  33 H :    0.032464

  Mayer bond orders larger than 0.100000
B(  0-S ,  1-C ) :   1.1737 B(  0-S ,  4-C ) :   1.1897 B(  1-C ,  2-C ) :   1.5583
B(  1-C , 32-H ) :   0.9525 B(  2-C ,  3-C ) :   1.2690 B(  2-C ,  6-C ) :   1.0478
B(  3-C ,  4-C ) :   1.5420 B(  3-C ,  5-H ) :   0.9815 B(  4-C , 20-C ) :   1.0067
B(  6-C ,  7-H ) :   0.9402 B(  6-C ,  8-H ) :   0.9365 B(  6-C ,  9-C ) :   1.0670
B(  9-C , 10-H ) :   0.9544 B(  9-C , 11-H ) :   0.9514 B(  9-C , 12-C ) :   1.0693
B( 12-C , 13-H ) :   0.9746 B( 12-C , 14-H ) :   0.9702 B( 12-C , 15-H ) :   0.9738
B( 16-S , 17-C ) :   1.1349 B( 16-S , 20-C ) :   1.1300 B( 17-C , 18-C ) :   1.6434
B( 17-C , 33-H ) :   0.9627 B( 18-C , 19-C ) :   1.2288 B( 18-C , 21-H ) :   0.9821
B( 19-C , 20-C ) :   1.6483 B( 19-C , 22-C ) :   1.0357 B( 22-C , 23-H ) :   0.9333
B( 22-C , 24-H ) :   0.9368 B( 22-C , 25-C ) :   1.0669 B( 25-C , 26-H ) :   0.9522
B( 25-C , 27-H ) :   0.9508 B( 25-C , 28-C ) :   1.0774 B( 28-C , 29-H ) :   0.9743
B( 28-C , 30-H ) :   0.9739 B( 28-C , 31-H ) :   0.9758

Dispersion correction           -0.014623136
FINAL SINGLE POINT ENERGY     -1339.864014121149

DIPOLE MOMENT
-------------
                                X             Y             Z
Electronic contribution:    -22.85190      10.36818       8.63119
Nuclear contribution   :     23.24379     -10.51838      -8.90759
                        -----------------------------------------
Total Dipole Moment    :      0.39189      -0.15021      -0.27640
                        -----------------------------------------
Magnitude (a.u.)       :      0.50253
Magnitude (Debye)      :      1.27733

Rotational constants in cm-1:     0.016524     0.009636     0.007657
Rotational constants in MHz :   495.385527   288.892332   229.555158

                             ****ORCA TERMINATED NORMALLY****
TOTAL RUN TIME: 0 days 0 hours 0 minutes 22 seconds 249 msec
