                         Program Version 4.2.1 -  RELEASE  -
|  1> ! wB97X-D3 SP def2-SVP
|  2> %pal
|  3> nprocs 24
|  4> end
|  5>
|  6> * xyz 0 1
|  7> S 	 -63.7963 	 7.74481 	 -75.1356
|  8> C 	 -64.0438 	 6.2498 	 -74.3135
|  9> C 	 -64.5023 	 5.32766 	 -75.2231
| 10> C 	 -64.574 	 5.84462 	 -76.5902
| 11> C 	 -64.0053 	 7.11235 	 -76.7563
| 12> H 	 -65.0999 	 5.39434 	 -77.3833
| 13> C 	 -65.1557 	 4.0542 	 -74.7986
| 14> H 	 -66.1714 	 4.16181 	 -75.1728
| 15> H 	 -65.3751 	 4.02746 	 -73.7384
| 16> C 	 -64.5049 	 2.77368 	 -75.2616
| 17> H 	 -65.2061 	 1.91923 	 -75.2186
| 18> H 	 -64.2188 	 2.87101 	 -76.2807
| 19> C 	 -63.2795 	 2.37747 	 -74.5009
| 20> H 	 -63.0094 	 1.35796 	 -74.8434
| 21> H 	 -62.505 	 3.14215 	 -74.8025
| 22> H 	 -63.453 	 2.42488 	 -73.4588
| 23> S 	 -64.7073 	 9.44748 	 -77.9361
| 24> C 	 -64.9626 	 9.54926 	 -79.6447
| 25> C 	 -64.16 	 8.57256 	 -80.2099
| 26> C 	 -63.6057 	 7.55896 	 -79.318
| 27> C 	 -63.9121 	 7.86293 	 -77.9871
| 28> H 	 -64.128 	 8.45468 	 -81.266
| 29> C 	 -63.0208 	 6.25081 	 -79.7266
| 30> H 	 -62.6544 	 5.75802 	 -78.8174
| 31> H 	 -62.2364 	 6.36596 	 -80.3798
| 32> C 	 -64.0427 	 5.39589 	 -80.4445
| 33> H 	 -64.3806 	 5.93799 	 -81.3319
| 34> H 	 -64.9575 	 5.31051 	 -79.9538
| 35> C 	 -63.446 	 4.02567 	 -80.8471
| 36> H 	 -63.2761 	 3.437 	 -79.8863
| 37> H 	 -62.4752 	 4.08064 	 -81.3291
| 38> H 	 -64.0871 	 3.44992 	 -81.5994
| 39> H 	 -63.9872 	 6.11938 	 -73.1969
| 40> H 	 -65.5206 	 10.1992 	 -80.2049
| 41> *
| 42>
| 43>                          ****END OF INPUT****

CARTESIAN COORDINATES (ANGSTROEM)
---------------------------------
  S    -63.796300    7.744810  -75.135600
  C    -64.043800    6.249800  -74.313500
  C    -64.502300    5.327660  -75.223100
  C    -64.574000    5.844620  -76.590200
  C    -64.005300    7.112350  -76.756300
  H    -65.099900    5.394340  -77.383300
  C    -65.155700    4.054200  -74.798600
  H    -66.171400    4.161810  -75.172800
  H    -65.375100    4.027460  -73.738400
  C    -64.504900    2.773680  -75.261600
  H    -65.206100    1.919230  -75.218600
  H    -64.218800    2.871010  -76.280700
  C    -63.279500    2.377470  -74.500900
  H    -63.009400    1.357960  -74.843400
  H    -62.505000    3.142150  -74.802500
  H    -63.453000    2.424880  -73.458800
  S    -64.707300    9.447480  -77.936100
  C    -64.962600    9.549260  -79.644700
  C    -64.160000    8.572560  -80.209900
  C    -63.605700    7.558960  -79.318000
  C    -63.912100    7.862930  -77.987100
  H    -64.128000    8.454680  -81.266000
  C    -63.020800    6.250810  -79.726600
  H    -62.654400    5.758020  -78.817400
  H    -62.236400    6.365960  -80.379800
  C    -64.042700    5.395890  -80.444500
  H    -64.380600    5.937990  -81.331900
  H    -64.957500    5.310510  -79.953800
  C    -63.446000    4.025670  -80.847100
  H    -63.276100    3.437000  -79.886300
  H    -62.475200    4.080640  -81.329100
  H    -64.087100    3.449920  -81.599400
  H    -63.987200    6.119380  -73.196900
  H    -65.520600   10.199200  -80.204900

 Total Charge           Charge          ....    0
 Multiplicity           Mult            ....    1
 Number of Electrons    NEL             ....  134
 Basis Dimension        Dim             ....  322

ORBITAL ENERGIES
----------------

  NO   OCC          E(Eh)            E(eV)
   0   2.0000     -88.962240     -2420.7856
   1   2.0000     -88.961514     -2420.7659
   2   2.0000     -10.335562      -281.2450
   3   2.0000     -10.331666      -281.1389
   4   2.0000     -10.318346      -280.7765
   5   2.0000     -10.317583      -280.7557
   6   2.0000     -10.310910      -280.5741
   7   2.0000     -10.301940      -280.3300
   8   2.0000     -10.297248      -280.2024
   9   2.0000     -10.296399      -280.1793
  10   2.0000     -10.290758      -280.0258
  11   2.0000     -10.285971      -279.8955
  12   2.0000     -10.285699      -279.8881
  13   2.0000     -10.283771      -279.8356
  14   2.0000     -10.277433      -279.6632
  15   2.0000     -10.274320      -279.5785
  16   2.0000      -8.077563      -219.8017
  17   2.0000      -8.076718      -219.7787
  18   2.0000      -6.036242      -164.2545
  19   2.0000      -6.035348      -164.2302
  20   2.0000      -6.031954      -164.1378
  21   2.0000      -6.031122      -164.1152
  22   2.0000      -6.028116      -164.0334
  23   2.0000      -6.027301      -164.0112
  24   2.0000      -1.009231       -27.4626
  25   2.0000      -0.987211       -26.8634
  26   2.0000      -0.919919       -25.0323
  27   2.0000      -0.918618       -24.9969
  28   2.0000      -0.877276       -23.8719
  29   2.0000      -0.850196       -23.1350
  30   2.0000      -0.843073       -22.9412
  31   2.0000      -0.818856       -22.2822
  32   2.0000      -0.780901       -21.2494
  33   2.0000      -0.773570       -21.0499
  34   2.0000      -0.712977       -19.4011
  35   2.0000      -0.709574       -19.3085
  36   2.0000      -0.691001       -18.8031
  37   2.0000      -0.665797       -18.1173
  38   2.0000      -0.643690       -17.5157
  39   2.0000      -0.623012       -16.9530
  40   2.0000      -0.602509       -16.3951
  41   2.0000      -0.575871       -15.6702
  42   2.0000      -0.570962       -15.5367
  43   2.0000      -0.556348       -15.1390
  44   2.0000      -0.538854       -14.6630
  45   2.0000      -0.531992       -14.4762
  46   2.0000      -0.524633       -14.2760
  47   2.0000      -0.518995       -14.1226
  48   2.0000      -0.511806       -13.9270
  49   2.0000      -0.506884       -13.7930
  50   2.0000      -0.488888       -13.3033
  51   2.0000      -0.481054       -13.0901
  52   2.0000      -0.472672       -12.8621
  53   2.0000      -0.469359       -12.7719
  54   2.0000      -0.457880       -12.4595
  55   2.0000      -0.454218       -12.3599
  56   2.0000      -0.443151       -12.0588
  57   2.0000      -0.438224       -11.9247
  58   2.0000      -0.432150       -11.7594
  59   2.0000      -0.426316       -11.6006
  60   2.0000      -0.418908       -11.3991
  61   2.0000      -0.415170       -11.2974
  62   2.0000      -0.401593       -10.9279
  63   2.0000      -0.356300        -9.6954
  64   2.0000      -0.326878        -8.8948
  65   2.0000      -0.320882        -8.7316
  66   2.0000      -0.290845        -7.9143
  67   0.0000       0.023556         0.6410
  68   0.0000       0.064289         1.7494
  69   0.0000       0.105096         2.8598
  70   0.0000       0.117175         3.1885
  71   0.0000       0.127321         3.4646

MULLIKEN ATOMIC CHARGES
-----------------------
   0 S :    0.096905
   1 C :   -0.130995
   2 C :   -0.101601
   3 C :    0.028301
   4 C :   -0.119456
   5 H :    0.001429
   6 C :    0.065871
   7 H :    0.029131
   8 H :    0.007679
   9 C :   -0.064617
  10 H :    0.023011
  11 H :    0.013801
  12 C :   -0.041585
  13 H :    0.039722
  14 H :    0.042431
  15 H :    0.020070
  16 S :    0.088206
  17 C :   -0.044347
  18 C :   -0.035699
  19 C :   -0.060975
  20 C :   -0.139615
  21 H :    0.009827
  22 C :    0.127964
  23 H :    0.030736
  24 H :    0.001068
  25 C :   -0.070168
  26 H :    0.014417
  27 H :    0.012579
  28 C :   -0.070531
  29 H :    0.042564
  30 H :    0.029619
  31 H :    0.048115
  32 H :    0.077455
  33 H :    0.028687
Sum of atomic charges:    0.0000000

LOEWDIN ATOMIC CHARGES
----------------------
   0 S :    0.408055
   1 C :   -0.210089
   2 C :   -0.069909
   3 C :   -0.060154
   4 C :   -0.193276
   5 H :    0.021684
   6 C :   -0.036473
   7 H :    0.038104
   8 H :    0.026309
   9 C :   -0.045999
  10 H :    0.022779
  11 H :    0.017954
  12 C :   -0.060986
  13 H :    0.030745
  14 H :    0.033662
  15 H :    0.014591
  16 S :    0.398732
  17 C :   -0.167349
  18 C :   -0.069340
  19 C :   -0.044171
  20 C :   -0.188022
  21 H :    0.020921
  22 C :   -0.023176
  23 H :    0.034698
  24 H :    0.021869
  25 C :   -0.037376
  26 H :    0.023152
  27 H :    0.013738
  28 C :   -0.073503
  29 H :    0.032576
  30 H :    0.022106
  31 H :    0.034065
  32 H :    0.046158
  33 H :    0.017925

  Mayer bond orders larger than 0.100000
B(  0-S ,  1-C ) :   1.1390 B(  0-S ,  4-C ) :   1.1501 B(  1-C ,  2-C ) :   1.5927
B(  1-C , 32-H ) :   0.9659 B(  2-C ,  3-C ) :   1.2406 B(  2-C ,  6-C ) :   1.0285
B(  3-C ,  4-C ) :   1.5388 B(  3-C ,  5-H ) :   1.0001 B(  4-C , 20-C ) :   1.0572
B(  6-C ,  7-H ) :   0.9322 B(  6-C ,  8-H ) :   0.9454 B(  6-C ,  9-C ) :   1.0689
B(  9-C , 10-H ) :   0.9533 B(  9-C , 11-H ) :   0.9570 B(  9-C , 12-C ) :   1.0804
B( 12-C , 13-H ) :   0.9729 B( 12-C , 14-H ) :   0.9760 B( 12-C , 15-H ) :   0.9755
B( 16-S , 17-C ) :   1.1564 B( 16-S , 20-C ) :   1.1242 B( 17-C , 18-C ) :   1.6053
B( 17-C , 33-H ) :   0.9841 B( 18-C , 19-C ) :   1.2224 B( 18-C , 21-H ) :   0.9898
B( 19-C , 20-C ) :   1.5934 B( 19-C , 22-C ) :   1.0670 B( 22-C , 23-H ) :   0.9343
B( 22-C , 24-H ) :   0.9149 B( 22-C , 25-C ) :   1.0576 B( 25-C , 26-H ) :   0.9484
B( 25-C , 27-H ) :   0.9547 B( 25-C , 28-C ) :   1.0753 B( 28-C , 29-H ) :   0.9743
B( 28-C , 30-H ) :   0.9733 B( 28-C , 31-H ) :   0.9743

Dispersion correction           -0.014388570
FINAL SINGLE POINT ENERGY     -1339.856780242301

DIPOLE MOMENT
-------------
                                X             Y             Z
Electronic contribution:     -1.79528      30.42249       6.63074
Nuclear contribution   :      1.43501     -31.02639      -7.07171
                        -----------------------------------------
Total Dipole Moment    :     -0.36028      -0.60389      -0.44096
                        -----------------------------------------
Magnitude (a.u.)       :      0.83002
Magnitude (Debye)      :      2.10975

Rotational constants in cm-1:     0.017726     0.009641     0.006670
Rotational constants in MHz :   531.404764   289.037605   199.951683

                             ****ORCA TERMINATED NORMALLY****
TOTAL RUN TIME: 0 days 0 hours 0 minutes 22 seconds 189 msec
