                         Program Version 4.2.1 -  RELEASE  -
|  1> ! wB97X-D3 SP def2-SVP
|  2> %pal
|  3> nprocs 24
|  4> end
|  5>
|  6> * xyz 0 1
|  7> S 	 -52.5491 	 -42.5166 	 -75.794
|  8> C 	 -53.0388 	 -41.4291 	 -77.1236
|  9> C 	 -52.6804 	 -42.0536 	 -78.319
| 10> C 	 -52.0626 	 -43.3197 	 -78.1563
| 11> C 	 -51.872 	 -43.7082 	 -76.8302
| 12> H 	 -51.8042 	 -44.0104 	 -78.9837
| 13> C 	 -52.9872 	 -41.3976 	 -79.6748
| 14> H 	 -52.1314 	 -41.5252 	 -80.2825
| 15> H 	 -53.2179 	 -40.3011 	 -79.6805
| 16> C 	 -54.0932 	 -42.0562 	 -80.4594
| 17> H 	 -54.1603 	 -43.0677 	 -80.1258
| 18> H 	 -54.9904 	 -41.6215 	 -80.0438
| 19> C 	 -54.1556 	 -41.7044 	 -81.9799
| 20> H 	 -54.3111 	 -40.5863 	 -82.1294
| 21> H 	 -53.2656 	 -42.1083 	 -82.4957
| 22> H 	 -55.014 	 -42.2023 	 -82.503
| 23> S 	 -52.5043 	 -45.8398 	 -75.1075
| 24> C 	 -51.4908 	 -47.2372 	 -75.1146
| 25> C 	 -50.5294 	 -47.1298 	 -76.0715
| 26> C 	 -50.481 	 -45.8858 	 -76.765
| 27> C 	 -51.4761 	 -45.0303 	 -76.3253
| 28> H 	 -49.9399 	 -48.0658 	 -76.1974
| 29> C 	 -49.4509 	 -45.584 	 -77.7832
| 30> H 	 -48.5309 	 -45.8999 	 -77.3913
| 31> H 	 -49.4253 	 -44.588 	 -78.0045
| 32> C 	 -49.6148 	 -46.3917 	 -79.0779
| 33> H 	 -50.6727 	 -46.3364 	 -79.4458
| 34> H 	 -49.3643 	 -47.4542 	 -78.9081
| 35> C 	 -48.7468 	 -45.7841 	 -80.1554
| 36> H 	 -49.2024 	 -44.7514 	 -80.4324
| 37> H 	 -48.8812 	 -46.2633 	 -81.0884
| 38> H 	 -47.6669 	 -45.8158 	 -79.8542
| 39> H 	 -53.544 	 -40.4983 	 -76.9759
| 40> H 	 -51.6349 	 -48.0278 	 -74.454
| 41> *
| 42>
| 43>                          ****END OF INPUT****

CARTESIAN COORDINATES (ANGSTROEM)
---------------------------------
  S    -52.549100  -42.516600  -75.794000
  C    -53.038800  -41.429100  -77.123600
  C    -52.680400  -42.053600  -78.319000
  C    -52.062600  -43.319700  -78.156300
  C    -51.872000  -43.708200  -76.830200
  H    -51.804200  -44.010400  -78.983700
  C    -52.987200  -41.397600  -79.674800
  H    -52.131400  -41.525200  -80.282500
  H    -53.217900  -40.301100  -79.680500
  C    -54.093200  -42.056200  -80.459400
  H    -54.160300  -43.067700  -80.125800
  H    -54.990400  -41.621500  -80.043800
  C    -54.155600  -41.704400  -81.979900
  H    -54.311100  -40.586300  -82.129400
  H    -53.265600  -42.108300  -82.495700
  H    -55.014000  -42.202300  -82.503000
  S    -52.504300  -45.839800  -75.107500
  C    -51.490800  -47.237200  -75.114600
  C    -50.529400  -47.129800  -76.071500
  C    -50.481000  -45.885800  -76.765000
  C    -51.476100  -45.030300  -76.325300
  H    -49.939900  -48.065800  -76.197400
  C    -49.450900  -45.584000  -77.783200
  H    -48.530900  -45.899900  -77.391300
  H    -49.425300  -44.588000  -78.004500
  C    -49.614800  -46.391700  -79.077900
  H    -50.672700  -46.336400  -79.445800
  H    -49.364300  -47.454200  -78.908100
  C    -48.746800  -45.784100  -80.155400
  H    -49.202400  -44.751400  -80.432400
  H    -48.881200  -46.263300  -81.088400
  H    -47.666900  -45.815800  -79.854200
  H    -53.544000  -40.498300  -76.975900
  H    -51.634900  -48.027800  -74.454000

 Total Charge           Charge          ....    0
 Multiplicity           Mult            ....    1
 Number of Electrons    NEL             ....  134
 Basis Dimension        Dim             ....  322

ORBITAL ENERGIES
----------------

  NO   OCC          E(Eh)            E(eV)
   0   2.0000     -88.965313     -2420.8693
   1   2.0000     -88.962649     -2420.7968
   2   2.0000     -10.332774      -281.1691
   3   2.0000     -10.329865      -281.0899
   4   2.0000     -10.318810      -280.7891
   5   2.0000     -10.310962      -280.5755
   6   2.0000     -10.307480      -280.4808
   7   2.0000     -10.302502      -280.3453
   8   2.0000     -10.299809      -280.2721
   9   2.0000     -10.293593      -280.1029
  10   2.0000     -10.293170      -280.0914
  11   2.0000     -10.290415      -280.0164
  12   2.0000     -10.289367      -279.9879
  13   2.0000     -10.285628      -279.8862
  14   2.0000     -10.279848      -279.7289
  15   2.0000     -10.277764      -279.6722
  16   2.0000      -8.080034      -219.8689
  17   2.0000      -8.077531      -219.8008
  18   2.0000      -6.038492      -164.3157
  19   2.0000      -6.036035      -164.2489
  20   2.0000      -6.034345      -164.2029
  21   2.0000      -6.032040      -164.1402
  22   2.0000      -6.031024      -164.1125
  23   2.0000      -6.028259      -164.0373
  24   2.0000      -1.007912       -27.4267
  25   2.0000      -0.986192       -26.8357
  26   2.0000      -0.920150       -25.0386
  27   2.0000      -0.913688       -24.8627
  28   2.0000      -0.869616       -23.6634
  29   2.0000      -0.854889       -23.2627
  30   2.0000      -0.840853       -22.8808
  31   2.0000      -0.814853       -22.1733
  32   2.0000      -0.784615       -21.3505
  33   2.0000      -0.774848       -21.0847
  34   2.0000      -0.706263       -19.2184
  35   2.0000      -0.698308       -19.0019
  36   2.0000      -0.696549       -18.9541
  37   2.0000      -0.659013       -17.9327
  38   2.0000      -0.644206       -17.5297
  39   2.0000      -0.623598       -16.9690
  40   2.0000      -0.605782       -16.4842
  41   2.0000      -0.579257       -15.7624
  42   2.0000      -0.568323       -15.4649
  43   2.0000      -0.561504       -15.2793
  44   2.0000      -0.529295       -14.4029
  45   2.0000      -0.525230       -14.2922
  46   2.0000      -0.518665       -14.1136
  47   2.0000      -0.510815       -13.9000
  48   2.0000      -0.506456       -13.7814
  49   2.0000      -0.502930       -13.6854
  50   2.0000      -0.495071       -13.4716
  51   2.0000      -0.478032       -13.0079
  52   2.0000      -0.475360       -12.9352
  53   2.0000      -0.470846       -12.8124
  54   2.0000      -0.459610       -12.5066
  55   2.0000      -0.451853       -12.2956
  56   2.0000      -0.444801       -12.1036
  57   2.0000      -0.431948       -11.7539
  58   2.0000      -0.430677       -11.7193
  59   2.0000      -0.429272       -11.6811
  60   2.0000      -0.421902       -11.4805
  61   2.0000      -0.416497       -11.3335
  62   2.0000      -0.406734       -11.0678
  63   2.0000      -0.350899        -9.5485
  64   2.0000      -0.331763        -9.0277
  65   2.0000      -0.329064        -8.9543
  66   2.0000      -0.292397        -7.9565
  67   0.0000       0.025637         0.6976
  68   0.0000       0.077098         2.0979
  69   0.0000       0.113861         3.0983
  70   0.0000       0.121287         3.3004
  71   0.0000       0.123239         3.3535

MULLIKEN ATOMIC CHARGES
-----------------------
   0 S :    0.097082
   1 C :   -0.122392
   2 C :   -0.078175
   3 C :    0.016966
   4 C :   -0.150962
   5 H :    0.017222
   6 C :    0.071567
   7 H :    0.006521
   8 H :    0.028720
   9 C :   -0.063015
  10 H :    0.022443
  11 H :    0.011945
  12 C :   -0.080915
  13 H :    0.049051
  14 H :    0.039490
  15 H :    0.044405
  16 S :    0.097435
  17 C :   -0.076649
  18 C :   -0.051044
  19 C :   -0.030427
  20 C :   -0.134106
  21 H :    0.030200
  22 C :    0.164857
  23 H :    0.009258
  24 H :   -0.006598
  25 C :   -0.126820
  26 H :    0.035634
  27 H :    0.035238
  28 C :   -0.051291
  29 H :    0.037162
  30 H :    0.023560
  31 H :    0.047615
  32 H :    0.049769
  33 H :    0.036255
Sum of atomic charges:    0.0000000

LOEWDIN ATOMIC CHARGES
----------------------
   0 S :    0.409932
   1 C :   -0.183984
   2 C :   -0.058574
   3 C :   -0.074307
   4 C :   -0.200089
   5 H :    0.034697
   6 C :   -0.031740
   7 H :    0.020190
   8 H :    0.033747
   9 C :   -0.048043
  10 H :    0.020064
  11 H :    0.021985
  12 C :   -0.073031
  13 H :    0.035428
  14 H :    0.024097
  15 H :    0.033216
  16 S :    0.393096
  17 C :   -0.175517
  18 C :   -0.078301
  19 C :   -0.048969
  20 C :   -0.187990
  21 H :    0.038931
  22 C :   -0.018503
  23 H :    0.029121
  24 H :    0.016738
  25 C :   -0.041061
  26 H :    0.024684
  27 H :    0.023506
  28 C :   -0.071061
  29 H :    0.035869
  30 H :    0.018181
  31 H :    0.032011
  32 H :    0.027611
  33 H :    0.018064

  Mayer bond orders larger than 0.100000
B(  0-S ,  1-C ) :   1.1356 B(  0-S ,  4-C ) :   1.1778 B(  1-C ,  2-C ) :   1.5729
B(  1-C ,  4-C ) :   0.1016 B(  1-C , 32-H ) :   0.9810 B(  2-C ,  3-C ) :   1.2732
B(  2-C ,  6-C ) :   1.0239 B(  3-C ,  4-C ) :   1.5293 B(  3-C ,  5-H ) :   0.9840
B(  4-C , 20-C ) :   1.0412 B(  6-C ,  7-H ) :   0.9393 B(  6-C ,  8-H ) :   0.9494
B(  6-C ,  9-C ) :   1.0524 B(  9-C , 10-H ) :   0.9610 B(  9-C , 11-H ) :   0.9513
B(  9-C , 12-C ) :   1.0678 B( 12-C , 13-H ) :   0.9732 B( 12-C , 14-H ) :   0.9770
B( 12-C , 15-H ) :   0.9747 B( 16-S , 17-C ) :   1.1536 B( 16-S , 20-C ) :   1.1287
B( 17-C , 18-C ) :   1.6246 B( 17-C , 33-H ) :   0.9762 B( 18-C , 19-C ) :   1.2095
B( 18-C , 21-H ) :   0.9878 B( 19-C , 20-C ) :   1.6016 B( 19-C , 22-C ) :   1.0699
B( 22-C , 23-H ) :   0.9141 B( 22-C , 24-H ) :   0.9273 B( 22-C , 25-C ) :   1.0559
B( 25-C , 26-H ) :   0.9560 B( 25-C , 27-H ) :   0.9502 B( 25-C , 28-C ) :   1.0990
B( 28-C , 29-H ) :   0.9697 B( 28-C , 30-H ) :   0.9713 B( 28-C , 31-H ) :   0.9694

Dispersion correction           -0.013946653
FINAL SINGLE POINT ENERGY     -1339.875599893779

DIPOLE MOMENT
-------------
                                X             Y             Z
Electronic contribution:     -5.04829      -2.20705      30.76184
Nuclear contribution   :      5.18017       1.98898     -31.40837
                        -----------------------------------------
Total Dipole Moment    :      0.13188      -0.21807      -0.64653
                        -----------------------------------------
Magnitude (a.u.)       :      0.69494
Magnitude (Debye)      :      1.76640

Rotational constants in cm-1:     0.016798     0.009009     0.006609
Rotational constants in MHz :   503.595076   270.089734   198.125402

                             ****ORCA TERMINATED NORMALLY****
TOTAL RUN TIME: 0 days 0 hours 0 minutes 21 seconds 344 msec
