                         Program Version 4.2.1 -  RELEASE  -
|  1> ! wB97X-D3 SP def2-SVP
|  2> %pal
|  3> nprocs 24
|  4> end
|  5>
|  6> * xyz 0 1
|  7> S 	 -54.9227 	 3.26968 	 -33.7468
|  8> C 	 -54.9335 	 1.5898 	 -33.4213
|  9> C 	 -53.9488 	 0.933439 	 -34.2039
| 10> C 	 -53.2073 	 1.85162 	 -34.9965
| 11> C 	 -53.5182 	 3.16596 	 -34.8487
| 12> H 	 -52.3798 	 1.56103 	 -35.6257
| 13> C 	 -53.7395 	 -0.525192 	 -34.1649
| 14> H 	 -53.7796 	 -0.804247 	 -35.185
| 15> H 	 -54.5879 	 -0.971061 	 -33.6281
| 16> C 	 -52.3679 	 -0.816707 	 -33.6865
| 17> H 	 -51.5912 	 -0.290828 	 -34.2215
| 18> H 	 -52.2916 	 -0.299265 	 -32.6496
| 19> C 	 -51.9693 	 -2.35953 	 -33.5659
| 20> H 	 -51.7777 	 -2.93408 	 -34.5035
| 21> H 	 -50.9456 	 -2.3992 	 -33.1513
| 22> H 	 -52.6254 	 -2.95857 	 -33.0277
| 23> S 	 -53.8585 	 5.16068 	 -36.8227
| 24> C 	 -52.4555 	 6.02495 	 -37.4151
| 25> C 	 -51.3268 	 5.6345 	 -36.716
| 26> C 	 -51.5714 	 4.59668 	 -35.7621
| 27> C 	 -52.9411 	 4.30645 	 -35.5539
| 28> H 	 -50.3306 	 6.04508 	 -36.8968
| 29> C 	 -50.3843 	 4.01389 	 -35.1089
| 30> H 	 -50.6125 	 3.4302 	 -34.2225
| 31> H 	 -49.7832 	 4.78441 	 -34.8039
| 32> C 	 -49.6839 	 3.00879 	 -36.107
| 33> H 	 -49.3995 	 3.47219 	 -37.0093
| 34> H 	 -50.4249 	 2.20976 	 -36.3256
| 35> C 	 -48.3298 	 2.48569 	 -35.5976
| 36> H 	 -48.2586 	 1.48367 	 -35.8927
| 37> H 	 -48.372 	 2.45722 	 -34.5077
| 38> H 	 -47.4606 	 3.15153 	 -35.8537
| 39> H 	 -55.7579 	 1.0708 	 -32.9038
| 40> H 	 -52.5759 	 6.73904 	 -38.1596
| 41> *
| 42>
| 43>                          ****END OF INPUT****

CARTESIAN COORDINATES (ANGSTROEM)
---------------------------------
  S    -54.922700    3.269680  -33.746800
  C    -54.933500    1.589800  -33.421300
  C    -53.948800    0.933439  -34.203900
  C    -53.207300    1.851620  -34.996500
  C    -53.518200    3.165960  -34.848700
  H    -52.379800    1.561030  -35.625700
  C    -53.739500   -0.525192  -34.164900
  H    -53.779600   -0.804247  -35.185000
  H    -54.587900   -0.971061  -33.628100
  C    -52.367900   -0.816707  -33.686500
  H    -51.591200   -0.290828  -34.221500
  H    -52.291600   -0.299265  -32.649600
  C    -51.969300   -2.359530  -33.565900
  H    -51.777700   -2.934080  -34.503500
  H    -50.945600   -2.399200  -33.151300
  H    -52.625400   -2.958570  -33.027700
  S    -53.858500    5.160680  -36.822700
  C    -52.455500    6.024950  -37.415100
  C    -51.326800    5.634500  -36.716000
  C    -51.571400    4.596680  -35.762100
  C    -52.941100    4.306450  -35.553900
  H    -50.330600    6.045080  -36.896800
  C    -50.384300    4.013890  -35.108900
  H    -50.612500    3.430200  -34.222500
  H    -49.783200    4.784410  -34.803900
  C    -49.683900    3.008790  -36.107000
  H    -49.399500    3.472190  -37.009300
  H    -50.424900    2.209760  -36.325600
  C    -48.329800    2.485690  -35.597600
  H    -48.258600    1.483670  -35.892700
  H    -48.372000    2.457220  -34.507700
  H    -47.460600    3.151530  -35.853700
  H    -55.757900    1.070800  -32.903800
  H    -52.575900    6.739040  -38.159600

 Total Charge           Charge          ....    0
 Multiplicity           Mult            ....    1
 Number of Electrons    NEL             ....  134
 Basis Dimension        Dim             ....  322

ORBITAL ENERGIES
----------------

  NO   OCC          E(Eh)            E(eV)
   0   2.0000     -88.963061     -2420.8080
   1   2.0000     -88.962570     -2420.7946
   2   2.0000     -10.330339      -281.1028
   3   2.0000     -10.330102      -281.0964
   4   2.0000     -10.319277      -280.8018
   5   2.0000     -10.315487      -280.6987
   6   2.0000     -10.304737      -280.4061
   7   2.0000     -10.298833      -280.2455
   8   2.0000     -10.296611      -280.1850
   9   2.0000     -10.296181      -280.1733
  10   2.0000     -10.292518      -280.0736
  11   2.0000     -10.288756      -279.9713
  12   2.0000     -10.284644      -279.8594
  13   2.0000     -10.284209      -279.8475
  14   2.0000     -10.281766      -279.7811
  15   2.0000     -10.278615      -279.6953
  16   2.0000      -8.077454      -219.7987
  17   2.0000      -8.077428      -219.7980
  18   2.0000      -6.036028      -164.2487
  19   2.0000      -6.035859      -164.2441
  20   2.0000      -6.031882      -164.1358
  21   2.0000      -6.031791      -164.1334
  22   2.0000      -6.028392      -164.0409
  23   2.0000      -6.028269      -164.0375
  24   2.0000      -1.003743       -27.3132
  25   2.0000      -0.984021       -26.7766
  26   2.0000      -0.918970       -25.0064
  27   2.0000      -0.912246       -24.8235
  28   2.0000      -0.869805       -23.6686
  29   2.0000      -0.852742       -23.2043
  30   2.0000      -0.843549       -22.9541
  31   2.0000      -0.816733       -22.2244
  32   2.0000      -0.783625       -21.3235
  33   2.0000      -0.770170       -20.9574
  34   2.0000      -0.711542       -19.3620
  35   2.0000      -0.703562       -19.1449
  36   2.0000      -0.694898       -18.9091
  37   2.0000      -0.663006       -18.0413
  38   2.0000      -0.644229       -17.5304
  39   2.0000      -0.624481       -16.9930
  40   2.0000      -0.604535       -16.4502
  41   2.0000      -0.572634       -15.5822
  42   2.0000      -0.568100       -15.4588
  43   2.0000      -0.560144       -15.2423
  44   2.0000      -0.531019       -14.4498
  45   2.0000      -0.528369       -14.3777
  46   2.0000      -0.522340       -14.2136
  47   2.0000      -0.516623       -14.0580
  48   2.0000      -0.505942       -13.7674
  49   2.0000      -0.503037       -13.6883
  50   2.0000      -0.493759       -13.4359
  51   2.0000      -0.480617       -13.0782
  52   2.0000      -0.470608       -12.8059
  53   2.0000      -0.463535       -12.6134
  54   2.0000      -0.460010       -12.5175
  55   2.0000      -0.451261       -12.2794
  56   2.0000      -0.449945       -12.2436
  57   2.0000      -0.440165       -11.9775
  58   2.0000      -0.437200       -11.8968
  59   2.0000      -0.423524       -11.5247
  60   2.0000      -0.416725       -11.3397
  61   2.0000      -0.414404       -11.2765
  62   2.0000      -0.409253       -11.1363
  63   2.0000      -0.347388        -9.4529
  64   2.0000      -0.327043        -8.8993
  65   2.0000      -0.323048        -8.7906
  66   2.0000      -0.295946        -8.0531
  67   0.0000       0.030526         0.8307
  68   0.0000       0.064656         1.7594
  69   0.0000       0.118596         3.2272
  70   0.0000       0.120320         3.2741
  71   0.0000       0.125881         3.4254

MULLIKEN ATOMIC CHARGES
-----------------------
   0 S :    0.106795
   1 C :   -0.123870
   2 C :   -0.153906
   3 C :    0.049103
   4 C :   -0.165186
   5 H :   -0.008212
   6 C :    0.166259
   7 H :    0.014782
   8 H :    0.020575
   9 C :   -0.133316
  10 H :    0.027086
  11 H :    0.038347
  12 C :   -0.029822
  13 H :    0.028188
  14 H :    0.031537
  15 H :    0.024424
  16 S :    0.087769
  17 C :   -0.069600
  18 C :   -0.014226
  19 C :   -0.076200
  20 C :   -0.106413
  21 H :    0.024433
  22 C :    0.101982
  23 H :    0.024520
  24 H :    0.006030
  25 C :   -0.109988
  26 H :    0.022363
  27 H :    0.033429
  28 C :   -0.013469
  29 H :    0.024216
  30 H :    0.015527
  31 H :    0.048668
  32 H :    0.066462
  33 H :    0.041715
Sum of atomic charges:   -0.0000000

LOEWDIN ATOMIC CHARGES
----------------------
   0 S :    0.406389
   1 C :   -0.218158
   2 C :   -0.062014
   3 C :   -0.059908
   4 C :   -0.186675
   5 H :    0.026602
   6 C :   -0.034969
   7 H :    0.029192
   8 H :    0.034193
   9 C :   -0.042456
  10 H :    0.021882
  11 H :    0.034822
  12 C :   -0.070264
  13 H :    0.028957
  14 H :    0.031567
  15 H :    0.013630
  16 S :    0.394481
  17 C :   -0.162481
  18 C :   -0.071058
  19 C :   -0.044161
  20 C :   -0.202956
  21 H :    0.033389
  22 C :   -0.025389
  23 H :    0.030550
  24 H :    0.019405
  25 C :   -0.031212
  26 H :    0.016670
  27 H :    0.024558
  28 C :   -0.063852
  29 H :    0.021190
  30 H :    0.021841
  31 H :    0.034301
  32 H :    0.035817
  33 H :    0.016115

  Mayer bond orders larger than 0.100000
B(  0-S ,  1-C ) :   1.1605 B(  0-S ,  4-C ) :   1.1450 B(  1-C ,  2-C ) :   1.5726
B(  1-C , 32-H ) :   0.9626 B(  2-C ,  3-C ) :   1.2621 B(  2-C ,  6-C ) :   1.0360
B(  3-C ,  4-C ) :   1.5715 B(  3-C ,  5-H ) :   0.9917 B(  4-C , 20-C ) :   1.0299
B(  6-C ,  7-H ) :   0.9180 B(  6-C ,  8-H ) :   0.9361 B(  6-C ,  9-C ) :   1.0615
B(  9-C , 10-H ) :   0.9553 B(  9-C , 11-H ) :   0.9540 B(  9-C , 12-C ) :   1.0695
B( 12-C , 13-H ) :   0.9748 B( 12-C , 14-H ) :   0.9743 B( 12-C , 15-H ) :   0.9793
B( 16-S , 17-C ) :   1.1759 B( 16-S , 20-C ) :   1.1272 B( 17-C , 18-C ) :   1.5625
B( 17-C , 33-H ) :   0.9811 B( 18-C , 19-C ) :   1.2556 B( 18-C , 21-H ) :   0.9891
B( 19-C , 20-C ) :   1.5673 B( 19-C , 22-C ) :   1.0704 B( 22-C , 23-H ) :   0.9276
B( 22-C , 24-H ) :   0.9319 B( 22-C , 25-C ) :   1.0536 B( 25-C , 26-H ) :   0.9596
B( 25-C , 27-H ) :   0.9572 B( 25-C , 28-C ) :   1.0700 B( 28-C , 29-H ) :   0.9725
B( 28-C , 30-H ) :   0.9734 B( 28-C , 31-H ) :   0.9772

Dispersion correction           -0.014502238
FINAL SINGLE POINT ENERGY     -1339.865045370739

DIPOLE MOMENT
-------------
                                X             Y             Z
Electronic contribution:    -23.06114      22.91246      -3.61287
Nuclear contribution   :     23.71410     -23.36861       3.41689
                        -----------------------------------------
Total Dipole Moment    :      0.65297      -0.45615      -0.19598
                        -----------------------------------------
Magnitude (a.u.)       :      0.82027
Magnitude (Debye)      :      2.08497

Rotational constants in cm-1:     0.016820     0.009615     0.006624
Rotational constants in MHz :   504.261495   288.249324   198.580428

                             ****ORCA TERMINATED NORMALLY****
TOTAL RUN TIME: 0 days 0 hours 0 minutes 21 seconds 978 msec
