                         Program Version 4.2.1 -  RELEASE  -
|  1> ! wB97X-D3 SP def2-SVP
|  2> %pal
|  3> nprocs 24
|  4> end
|  5>
|  6> * xyz 0 1
|  7> S 	 32.7333 	 -29.809 	 -111.816
|  8> C 	 33.6366 	 -30.2678 	 -110.384
|  9> C 	 34.7448 	 -31.0388 	 -110.68
| 10> C 	 34.7287 	 -31.3679 	 -112.079
| 11> C 	 33.6229 	 -30.9912 	 -112.797
| 12> H 	 35.5832 	 -31.8599 	 -112.511
| 13> C 	 35.841 	 -31.3184 	 -109.724
| 14> H 	 36.5113 	 -32.1224 	 -110.162
| 15> H 	 35.5082 	 -31.9059 	 -108.933
| 16> C 	 36.6286 	 -30.0833 	 -109.237
| 17> H 	 35.9513 	 -29.4979 	 -108.611
| 18> H 	 37.307 	 -30.4574 	 -108.474
| 19> C 	 37.423 	 -29.1793 	 -110.259
| 20> H 	 36.8726 	 -29.0405 	 -111.194
| 21> H 	 37.5313 	 -28.221 	 -109.767
| 22> H 	 38.3261 	 -29.722 	 -110.574
| 23> S 	 32.5151 	 -29.9193 	 -115.09
| 24> C 	 32.5869 	 -30.8856 	 -116.587
| 25> C 	 33.1396 	 -32.1359 	 -116.38
| 26> C 	 33.5849 	 -32.2814 	 -115.049
| 27> C 	 33.4118 	 -31.2043 	 -114.244
| 28> H 	 33.2806 	 -32.9064 	 -117.091
| 29> C 	 33.9583 	 -33.7867 	 -114.677
| 30> H 	 33.1069 	 -34.3752 	 -114.92
| 31> H 	 33.9504 	 -33.9013 	 -113.579
| 32> C 	 35.2462 	 -34.4333 	 -115.189
| 33> H 	 36.0117 	 -34.0195 	 -114.609
| 34> H 	 35.4567 	 -34.1733 	 -116.191
| 35> C 	 35.3132 	 -35.9746 	 -114.903
| 36> H 	 36.3285 	 -36.3747 	 -115.209
| 37> H 	 34.6403 	 -36.5101 	 -115.465
| 38> H 	 34.982 	 -36.2674 	 -113.909
| 39> H 	 33.4872 	 -29.8094 	 -109.411
| 40> H 	 32.2796 	 -30.5555 	 -117.49
| 41> *
| 42>
| 43>                          ****END OF INPUT****

CARTESIAN COORDINATES (ANGSTROEM)
---------------------------------
  S     32.733300  -29.809000  -111.816000
  C     33.636600  -30.267800  -110.384000
  C     34.744800  -31.038800  -110.680000
  C     34.728700  -31.367900  -112.079000
  C     33.622900  -30.991200  -112.797000
  H     35.583200  -31.859900  -112.511000
  C     35.841000  -31.318400  -109.724000
  H     36.511300  -32.122400  -110.162000
  H     35.508200  -31.905900  -108.933000
  C     36.628600  -30.083300  -109.237000
  H     35.951300  -29.497900  -108.611000
  H     37.307000  -30.457400  -108.474000
  C     37.423000  -29.179300  -110.259000
  H     36.872600  -29.040500  -111.194000
  H     37.531300  -28.221000  -109.767000
  H     38.326100  -29.722000  -110.574000
  S     32.515100  -29.919300  -115.090000
  C     32.586900  -30.885600  -116.587000
  C     33.139600  -32.135900  -116.380000
  C     33.584900  -32.281400  -115.049000
  C     33.411800  -31.204300  -114.244000
  H     33.280600  -32.906400  -117.091000
  C     33.958300  -33.786700  -114.677000
  H     33.106900  -34.375200  -114.920000
  H     33.950400  -33.901300  -113.579000
  C     35.246200  -34.433300  -115.189000
  H     36.011700  -34.019500  -114.609000
  H     35.456700  -34.173300  -116.191000
  C     35.313200  -35.974600  -114.903000
  H     36.328500  -36.374700  -115.209000
  H     34.640300  -36.510100  -115.465000
  H     34.982000  -36.267400  -113.909000
  H     33.487200  -29.809400  -109.411000
  H     32.279600  -30.555500  -117.490000

 Total Charge           Charge          ....    0
 Multiplicity           Mult            ....    1
 Number of Electrons    NEL             ....  134
 Basis Dimension        Dim             ....  322

ORBITAL ENERGIES
----------------

  NO   OCC          E(Eh)            E(eV)
   0   2.0000     -88.966562     -2420.9032
   1   2.0000     -88.966497     -2420.9015
   2   2.0000     -10.331865      -281.1443
   3   2.0000     -10.331202      -281.1263
   4   2.0000     -10.315865      -280.7089
   5   2.0000     -10.312997      -280.6309
   6   2.0000     -10.302483      -280.3448
   7   2.0000     -10.297578      -280.2113
   8   2.0000     -10.292196      -280.0649
   9   2.0000     -10.291475      -280.0453
  10   2.0000     -10.291448      -280.0445
  11   2.0000     -10.291323      -280.0411
  12   2.0000     -10.290980      -280.0318
  13   2.0000     -10.282521      -279.8016
  14   2.0000     -10.282182      -279.7924
  15   2.0000     -10.280013      -279.7334
  16   2.0000      -8.080690      -219.8867
  17   2.0000      -8.080597      -219.8842
  18   2.0000      -6.039401      -164.3404
  19   2.0000      -6.039253      -164.3364
  20   2.0000      -6.035465      -164.2334
  21   2.0000      -6.035402      -164.2316
  22   2.0000      -6.031086      -164.1142
  23   2.0000      -6.031058      -164.1134
  24   2.0000      -1.004343       -27.3296
  25   2.0000      -0.983263       -26.7559
  26   2.0000      -0.910022       -24.7630
  27   2.0000      -0.903630       -24.5890
  28   2.0000      -0.866002       -23.5651
  29   2.0000      -0.851335       -23.1660
  30   2.0000      -0.842150       -22.9161
  31   2.0000      -0.815266       -22.1845
  32   2.0000      -0.784552       -21.3487
  33   2.0000      -0.777614       -21.1599
  34   2.0000      -0.711661       -19.3653
  35   2.0000      -0.707649       -19.2561
  36   2.0000      -0.699721       -19.0404
  37   2.0000      -0.673211       -18.3190
  38   2.0000      -0.636562       -17.3217
  39   2.0000      -0.618046       -16.8179
  40   2.0000      -0.600279       -16.3344
  41   2.0000      -0.573665       -15.6102
  42   2.0000      -0.559768       -15.2321
  43   2.0000      -0.551248       -15.0002
  44   2.0000      -0.536652       -14.6030
  45   2.0000      -0.526187       -14.3183
  46   2.0000      -0.511133       -13.9086
  47   2.0000      -0.510037       -13.8788
  48   2.0000      -0.507086       -13.7985
  49   2.0000      -0.497992       -13.5511
  50   2.0000      -0.494615       -13.4592
  51   2.0000      -0.473176       -12.8758
  52   2.0000      -0.469591       -12.7782
  53   2.0000      -0.465460       -12.6658
  54   2.0000      -0.457937       -12.4611
  55   2.0000      -0.454842       -12.3769
  56   2.0000      -0.444790       -12.1034
  57   2.0000      -0.442047       -12.0287
  58   2.0000      -0.435130       -11.8405
  59   2.0000      -0.424591       -11.5537
  60   2.0000      -0.418482       -11.3875
  61   2.0000      -0.416597       -11.3362
  62   2.0000      -0.409126       -11.1329
  63   2.0000      -0.357726        -9.7342
  64   2.0000      -0.336120        -9.1463
  65   2.0000      -0.326661        -8.8889
  66   2.0000      -0.286375        -7.7927
  67   0.0000       0.022307         0.6070
  68   0.0000       0.070492         1.9182
  69   0.0000       0.092918         2.5284
  70   0.0000       0.120543         3.2801
  71   0.0000       0.133241         3.6257

MULLIKEN ATOMIC CHARGES
-----------------------
   0 S :    0.092453
   1 C :   -0.119168
   2 C :   -0.089037
   3 C :    0.004204
   4 C :   -0.098678
   5 H :    0.006127
   6 C :    0.075903
   7 H :    0.014121
   8 H :    0.015562
   9 C :   -0.080891
  10 H :    0.016630
  11 H :    0.022879
  12 C :   -0.034917
  13 H :    0.041589
  14 H :    0.045101
  15 H :    0.038470
  16 S :    0.080068
  17 C :   -0.034281
  18 C :    0.001535
  19 C :   -0.039863
  20 C :   -0.134727
  21 H :    0.008967
  22 C :    0.006544
  23 H :    0.022797
  24 H :    0.019040
  25 C :   -0.004308
  26 H :    0.014428
  27 H :    0.015312
  28 C :   -0.045145
  29 H :    0.045362
  30 H :    0.005631
  31 H :    0.027102
  32 H :    0.047944
  33 H :    0.013246
Sum of atomic charges:    0.0000000

LOEWDIN ATOMIC CHARGES
----------------------
   0 S :    0.386505
   1 C :   -0.187652
   2 C :   -0.066702
   3 C :   -0.061838
   4 C :   -0.183620
   5 H :    0.026766
   6 C :   -0.040996
   7 H :    0.034723
   8 H :    0.028635
   9 C :   -0.039484
  10 H :    0.019295
  11 H :    0.023927
  12 C :   -0.062192
  13 H :    0.028778
  14 H :    0.031270
  15 H :    0.029370
  16 S :    0.371976
  17 C :   -0.144786
  18 C :   -0.056813
  19 C :   -0.060100
  20 C :   -0.176981
  21 H :    0.027807
  22 C :   -0.029161
  23 H :    0.024091
  24 H :    0.029048
  25 C :   -0.030708
  26 H :    0.018305
  27 H :    0.016150
  28 C :   -0.061196
  29 H :    0.036758
  30 H :    0.010543
  31 H :    0.027422
  32 H :    0.026680
  33 H :    0.004179

  Mayer bond orders larger than 0.100000
B(  0-S ,  1-C ) :   1.1399 B(  0-S ,  4-C ) :   1.1309 B(  1-C ,  2-C ) :   1.6007
B(  1-C , 32-H ) :   0.9682 B(  2-C ,  3-C ) :   1.2566 B(  2-C ,  6-C ) :   1.0299
B(  3-C ,  4-C ) :   1.5588 B(  3-C ,  5-H ) :   0.9965 B(  4-C , 20-C ) :   1.0564
B(  6-C ,  7-H ) :   0.9355 B(  6-C ,  8-H ) :   0.9246 B(  6-C ,  9-C ) :   1.0739
B(  9-C , 10-H ) :   0.9585 B(  9-C , 11-H ) :   0.9528 B(  9-C , 12-C ) :   1.0603
B( 12-C , 13-H ) :   0.9800 B( 12-C , 14-H ) :   0.9746 B( 12-C , 15-H ) :   0.9757
B( 16-S , 17-C ) :   1.1416 B( 16-S , 20-C ) :   1.1060 B( 17-C , 18-C ) :   1.6072
B( 17-C , 33-H ) :   0.9827 B( 18-C , 19-C ) :   1.2376 B( 18-C , 21-H ) :   0.9949
B( 19-C , 20-C ) :   1.6611 B( 19-C , 22-C ) :   1.0089 B( 22-C , 23-H ) :   0.9539
B( 22-C , 24-H ) :   0.9376 B( 22-C , 25-C ) :   1.0566 B( 25-C , 26-H ) :   0.9530
B( 25-C , 27-H ) :   0.9589 B( 25-C , 28-C ) :   1.0730 B( 28-C , 29-H ) :   0.9750
B( 28-C , 30-H ) :   0.9752 B( 28-C , 31-H ) :   0.9737

Dispersion correction           -0.013884115
FINAL SINGLE POINT ENERGY     -1339.854231937456

DIPOLE MOMENT
-------------
                                X             Y             Z
Electronic contribution:    -21.01390      16.29256      -7.16815
Nuclear contribution   :     21.51927     -16.76927       7.26640
                        -----------------------------------------
Total Dipole Moment    :      0.50537      -0.47671       0.09825
                        -----------------------------------------
Magnitude (a.u.)       :      0.70164
Magnitude (Debye)      :      1.78344

Rotational constants in cm-1:     0.016953     0.008643     0.006430
Rotational constants in MHz :   508.248300   259.123273   192.752378

                             ****ORCA TERMINATED NORMALLY****
TOTAL RUN TIME: 0 days 0 hours 0 minutes 20 seconds 992 msec
