                         Program Version 4.2.1 -  RELEASE  -
|  1> ! wB97X-D3 SP def2-SVP
|  2> %pal
|  3> nprocs 24
|  4> end
|  5>
|  6> * xyz 0 1
|  7> S 	 -62.4414 	 -1.39987 	 -22.4215
|  8> C 	 -63.9753 	 -1.04681 	 -21.7249
|  9> C 	 -64.649 	 -0.0110324 	 -22.3842
| 10> C 	 -63.8874 	 0.538559 	 -23.4274
| 11> C 	 -62.6993 	 -0.155568 	 -23.6723
| 12> H 	 -64.1643 	 1.36313 	 -23.9536
| 13> C 	 -65.9358 	 0.694611 	 -21.8697
| 14> H 	 -65.7063 	 1.27822 	 -20.9094
| 15> H 	 -66.549 	 -0.137528 	 -21.5137
| 16> C 	 -66.6834 	 1.61765 	 -22.7923
| 17> H 	 -66.1586 	 2.56065 	 -23.0904
| 18> H 	 -66.7667 	 1.04653 	 -23.6934
| 19> C 	 -68.1377 	 2.1281 	 -22.3293
| 20> H 	 -68.9012 	 1.35275 	 -22.1709
| 21> H 	 -67.9841 	 2.71374 	 -21.5252
| 22> H 	 -68.6496 	 2.75251 	 -23.0198
| 23> S 	 -60.2459 	 0.305865 	 -24.5016
| 24> C 	 -59.8668 	 0.848075 	 -26.123
| 25> C 	 -61.0742 	 0.942107 	 -26.776
| 26> C 	 -62.2671 	 0.626284 	 -26.0409
| 27> C 	 -61.8798 	 0.167875 	 -24.8132
| 28> H 	 -61.1393 	 1.37896 	 -27.7775
| 29> C 	 -63.654 	 0.756635 	 -26.6485
| 30> H 	 -63.5146 	 1.3357 	 -27.5467
| 31> H 	 -64.2959 	 1.38603 	 -26.0831
| 32> C 	 -64.4164 	 -0.577098 	 -26.9104
| 33> H 	 -65.3458 	 -0.369018 	 -27.4552
| 34> H 	 -64.702 	 -1.0528 	 -25.9377
| 35> C 	 -63.7059 	 -1.63618 	 -27.7494
| 36> H 	 -63.2259 	 -1.22544 	 -28.5868
| 37> H 	 -64.4869 	 -2.29701 	 -28.1472
| 38> H 	 -62.9658 	 -2.29873 	 -27.2374
| 39> H 	 -64.2579 	 -1.36409 	 -20.7432
| 40> H 	 -58.943 	 1.30895 	 -26.4082
| 41> *
| 42>
| 43>                          ****END OF INPUT****

CARTESIAN COORDINATES (ANGSTROEM)
---------------------------------
  S    -62.441400   -1.399870  -22.421500
  C    -63.975300   -1.046810  -21.724900
  C    -64.649000   -0.011032  -22.384200
  C    -63.887400    0.538559  -23.427400
  C    -62.699300   -0.155568  -23.672300
  H    -64.164300    1.363130  -23.953600
  C    -65.935800    0.694611  -21.869700
  H    -65.706300    1.278220  -20.909400
  H    -66.549000   -0.137528  -21.513700
  C    -66.683400    1.617650  -22.792300
  H    -66.158600    2.560650  -23.090400
  H    -66.766700    1.046530  -23.693400
  C    -68.137700    2.128100  -22.329300
  H    -68.901200    1.352750  -22.170900
  H    -67.984100    2.713740  -21.525200
  H    -68.649600    2.752510  -23.019800
  S    -60.245900    0.305865  -24.501600
  C    -59.866800    0.848075  -26.123000
  C    -61.074200    0.942107  -26.776000
  C    -62.267100    0.626284  -26.040900
  C    -61.879800    0.167875  -24.813200
  H    -61.139300    1.378960  -27.777500
  C    -63.654000    0.756635  -26.648500
  H    -63.514600    1.335700  -27.546700
  H    -64.295900    1.386030  -26.083100
  C    -64.416400   -0.577098  -26.910400
  H    -65.345800   -0.369018  -27.455200
  H    -64.702000   -1.052800  -25.937700
  C    -63.705900   -1.636180  -27.749400
  H    -63.225900   -1.225440  -28.586800
  H    -64.486900   -2.297010  -28.147200
  H    -62.965800   -2.298730  -27.237400
  H    -64.257900   -1.364090  -20.743200
  H    -58.943000    1.308950  -26.408200

 Total Charge           Charge          ....    0
 Multiplicity           Mult            ....    1
 Number of Electrons    NEL             ....  134
 Basis Dimension        Dim             ....  322

ORBITAL ENERGIES
----------------

  NO   OCC          E(Eh)            E(eV)
   0   2.0000     -88.972403     -2421.0622
   1   2.0000     -88.961612     -2420.7685
   2   2.0000     -10.328790      -281.0607
   3   2.0000     -10.318418      -280.7784
   4   2.0000     -10.314103      -280.6610
   5   2.0000     -10.311431      -280.5883
   6   2.0000     -10.301980      -280.3311
   7   2.0000     -10.299978      -280.2766
   8   2.0000     -10.299511      -280.2639
   9   2.0000     -10.294697      -280.1329
  10   2.0000     -10.294295      -280.1220
  11   2.0000     -10.291949      -280.0582
  12   2.0000     -10.288534      -279.9653
  13   2.0000     -10.283981      -279.8413
  14   2.0000     -10.276166      -279.6287
  15   2.0000     -10.269458      -279.4462
  16   2.0000      -8.086510      -220.0451
  17   2.0000      -8.078279      -219.8211
  18   2.0000      -6.045034      -164.4937
  19   2.0000      -6.041013      -164.3843
  20   2.0000      -6.037405      -164.2861
  21   2.0000      -6.036621      -164.2648
  22   2.0000      -6.032400      -164.1499
  23   2.0000      -6.029193      -164.0627
  24   2.0000      -1.016476       -27.6597
  25   2.0000      -0.987206       -26.8633
  26   2.0000      -0.907205       -24.6863
  27   2.0000      -0.905608       -24.6428
  28   2.0000      -0.873887       -23.7797
  29   2.0000      -0.853512       -23.2253
  30   2.0000      -0.846067       -23.0227
  31   2.0000      -0.814062       -22.1518
  32   2.0000      -0.787126       -21.4188
  33   2.0000      -0.779258       -21.2047
  34   2.0000      -0.714160       -19.4333
  35   2.0000      -0.698678       -19.0120
  36   2.0000      -0.688601       -18.7378
  37   2.0000      -0.668507       -18.1910
  38   2.0000      -0.641703       -17.4616
  39   2.0000      -0.623402       -16.9636
  40   2.0000      -0.594448       -16.1758
  41   2.0000      -0.570308       -15.5189
  42   2.0000      -0.558125       -15.1874
  43   2.0000      -0.553530       -15.0623
  44   2.0000      -0.544878       -14.8269
  45   2.0000      -0.518965       -14.1218
  46   2.0000      -0.517137       -14.0720
  47   2.0000      -0.511650       -13.9227
  48   2.0000      -0.503306       -13.6957
  49   2.0000      -0.498792       -13.5728
  50   2.0000      -0.495744       -13.4899
  51   2.0000      -0.485247       -13.2043
  52   2.0000      -0.474435       -12.9100
  53   2.0000      -0.467761       -12.7284
  54   2.0000      -0.463562       -12.6142
  55   2.0000      -0.448200       -12.1961
  56   2.0000      -0.439337       -11.9550
  57   2.0000      -0.435203       -11.8425
  58   2.0000      -0.430288       -11.7087
  59   2.0000      -0.425497       -11.5784
  60   2.0000      -0.423040       -11.5115
  61   2.0000      -0.416342       -11.3292
  62   2.0000      -0.413290       -11.2462
  63   2.0000      -0.353735        -9.6256
  64   2.0000      -0.334996        -9.1157
  65   2.0000      -0.328470        -8.9381
  66   2.0000      -0.285818        -7.7775
  67   0.0000       0.023261         0.6330
  68   0.0000       0.076724         2.0878
  69   0.0000       0.109909         2.9908
  70   0.0000       0.124481         3.3873
  71   0.0000       0.132362         3.6018

MULLIKEN ATOMIC CHARGES
-----------------------
   0 S :    0.131049
   1 C :   -0.114227
   2 C :   -0.082261
   3 C :    0.032738
   4 C :   -0.123375
   5 H :   -0.033450
   6 C :    0.052810
   7 H :    0.046419
   8 H :    0.029191
   9 C :   -0.117296
  10 H :    0.044675
  11 H :    0.024234
  12 C :   -0.001938
  13 H :    0.033121
  14 H :    0.011819
  15 H :    0.018738
  16 S :    0.099849
  17 C :   -0.083086
  18 C :   -0.047564
  19 C :   -0.061957
  20 C :   -0.146348
  21 H :    0.016941
  22 C :    0.123399
  23 H :    0.002776
  24 H :    0.012553
  25 C :   -0.090502
  26 H :    0.029858
  27 H :    0.048487
  28 C :   -0.041319
  29 H :    0.011283
  30 H :    0.027116
  31 H :    0.046514
  32 H :    0.041226
  33 H :    0.058526
Sum of atomic charges:    0.0000000

LOEWDIN ATOMIC CHARGES
----------------------
   0 S :    0.414670
   1 C :   -0.208962
   2 C :   -0.060534
   3 C :   -0.048826
   4 C :   -0.186546
   5 H :    0.012175
   6 C :   -0.040003
   7 H :    0.038200
   8 H :    0.033112
   9 C :   -0.046048
  10 H :    0.029874
  11 H :    0.018994
  12 C :   -0.053047
  13 H :    0.028953
  14 H :    0.009477
  15 H :    0.025325
  16 S :    0.440510
  17 C :   -0.195403
  18 C :   -0.065458
  19 C :   -0.064271
  20 C :   -0.214596
  21 H :    0.028413
  22 C :   -0.026825
  23 H :    0.028208
  24 H :    0.024017
  25 C :   -0.039505
  26 H :    0.026269
  27 H :    0.032002
  28 C :   -0.068994
  29 H :    0.014057
  30 H :    0.029415
  31 H :    0.031611
  32 H :    0.023618
  33 H :    0.030118

  Mayer bond orders larger than 0.100000
B(  0-S ,  1-C ) :   1.1535 B(  0-S ,  4-C ) :   1.1508 B(  1-C ,  2-C ) :   1.5801
B(  1-C ,  4-C ) :   0.1066 B(  1-C , 32-H ) :   0.9689 B(  2-C ,  3-C ) :   1.2929
B(  2-C ,  6-C ) :   1.0081 B(  3-C ,  4-C ) :   1.5167 B(  3-C ,  5-H ) :   1.0084
B(  4-C , 20-C ) :   1.0474 B(  6-C ,  7-H ) :   0.9368 B(  6-C ,  8-H ) :   0.9386
B(  6-C ,  9-C ) :   1.0747 B(  9-C , 10-H ) :   0.9471 B(  9-C , 11-H ) :   0.9597
B(  9-C , 12-C ) :   1.0732 B( 12-C , 13-H ) :   0.9769 B( 12-C , 14-H ) :   0.9775
B( 12-C , 15-H ) :   0.9741 B( 16-S , 17-C ) :   1.1433 B( 16-S , 20-C ) :   1.1883
B( 17-C , 18-C ) :   1.5839 B( 17-C , 33-H ) :   0.9759 B( 18-C , 19-C ) :   1.2738
B( 18-C , 21-H ) :   0.9779 B( 19-C , 20-C ) :   1.5543 B( 19-C , 22-C ) :   1.0414
B( 22-C , 23-H ) :   0.9207 B( 22-C , 24-H ) :   0.9312 B( 22-C , 25-C ) :   1.0744
B( 25-C , 26-H ) :   0.9577 B( 25-C , 27-H ) :   0.9533 B( 25-C , 28-C ) :   1.0785
B( 28-C , 29-H ) :   0.9762 B( 28-C , 30-H ) :   0.9738 B( 28-C , 31-H ) :   0.9738

Dispersion correction           -0.014903631
FINAL SINGLE POINT ENERGY     -1339.862978514435

DIPOLE MOMENT
-------------
                                X             Y             Z
Electronic contribution:     27.27949      -6.38008       8.32944
Nuclear contribution   :    -27.87292       6.91056      -8.50146
                        -----------------------------------------
Total Dipole Moment    :     -0.59343       0.53048      -0.17202
                        -----------------------------------------
Magnitude (a.u.)       :      0.81434
Magnitude (Debye)      :      2.06990

Rotational constants in cm-1:     0.018253     0.009062     0.007393
Rotational constants in MHz :   547.203931   271.682789   221.633953

                             ****ORCA TERMINATED NORMALLY****
TOTAL RUN TIME: 0 days 0 hours 0 minutes 22 seconds 301 msec
