                         Program Version 4.2.1 -  RELEASE  -
|  1> ! wB97X-D3 SP def2-SVP
|  2> %pal
|  3> nprocs 24
|  4> end
|  5>
|  6> * xyz 0 1
|  7> S 	 -104.268 	 59.3899 	 -100.85
|  8> C 	 -103.551 	 59.5638 	 -99.1584
|  9> C 	 -104.53 	 59.959 	 -98.2635
| 10> C 	 -105.79 	 60.2288 	 -98.9224
| 11> C 	 -105.784 	 60.0425 	 -100.292
| 12> H 	 -106.771 	 60.6214 	 -98.5221
| 13> C 	 -104.351 	 60.0832 	 -96.7138
| 14> H 	 -105.234 	 60.6112 	 -96.3734
| 15> H 	 -103.414 	 60.6718 	 -96.5711
| 16> C 	 -104.111 	 58.6987 	 -95.9927
| 17> H 	 -104.851 	 57.953 	 -96.3696
| 18> H 	 -103.166 	 58.3438 	 -96.2466
| 19> C 	 -104.22 	 58.8101 	 -94.4513
| 20> H 	 -103.465 	 59.3917 	 -94.0367
| 21> H 	 -105.057 	 59.3601 	 -94.1801
| 22> H 	 -104.359 	 57.8963 	 -93.9563
| 23> S 	 -108.113 	 58.9853 	 -101.367
| 24> C 	 -108.875 	 59.8466 	 -102.664
| 25> C 	 -108.243 	 61.0679 	 -102.93
| 26> C 	 -107.093 	 61.2424 	 -102.155
| 27> C 	 -106.903 	 60.262 	 -101.201
| 28> H 	 -108.53 	 61.5011 	 -103.89
| 29> C 	 -106.273 	 62.3997 	 -102.434
| 30> H 	 -106.007 	 62.8137 	 -101.452
| 31> H 	 -106.828 	 63.0937 	 -102.954
| 32> C 	 -105.011 	 62.1076 	 -103.331
| 33> H 	 -105.228 	 61.9851 	 -104.373
| 34> H 	 -104.45 	 61.2207 	 -103.084
| 35> C 	 -103.978 	 63.276 	 -103.411
| 36> H 	 -103.025 	 62.8473 	 -103.806
| 37> H 	 -103.783 	 63.7713 	 -102.407
| 38> H 	 -104.279 	 64.0871 	 -104.131
| 39> H 	 -102.552 	 59.2246 	 -98.8408
| 40> H 	 -109.763 	 59.5721 	 -103.212
| 41> *
| 42>
| 43>                          ****END OF INPUT****

CARTESIAN COORDINATES (ANGSTROEM)
---------------------------------
  S    -104.268000   59.389900  -100.850000
  C    -103.551000   59.563800  -99.158400
  C    -104.530000   59.959000  -98.263500
  C    -105.790000   60.228800  -98.922400
  C    -105.784000   60.042500  -100.292000
  H    -106.771000   60.621400  -98.522100
  C    -104.351000   60.083200  -96.713800
  H    -105.234000   60.611200  -96.373400
  H    -103.414000   60.671800  -96.571100
  C    -104.111000   58.698700  -95.992700
  H    -104.851000   57.953000  -96.369600
  H    -103.166000   58.343800  -96.246600
  C    -104.220000   58.810100  -94.451300
  H    -103.465000   59.391700  -94.036700
  H    -105.057000   59.360100  -94.180100
  H    -104.359000   57.896300  -93.956300
  S    -108.113000   58.985300  -101.367000
  C    -108.875000   59.846600  -102.664000
  C    -108.243000   61.067900  -102.930000
  C    -107.093000   61.242400  -102.155000
  C    -106.903000   60.262000  -101.201000
  H    -108.530000   61.501100  -103.890000
  C    -106.273000   62.399700  -102.434000
  H    -106.007000   62.813700  -101.452000
  H    -106.828000   63.093700  -102.954000
  C    -105.011000   62.107600  -103.331000
  H    -105.228000   61.985100  -104.373000
  H    -104.450000   61.220700  -103.084000
  C    -103.978000   63.276000  -103.411000
  H    -103.025000   62.847300  -103.806000
  H    -103.783000   63.771300  -102.407000
  H    -104.279000   64.087100  -104.131000
  H    -102.552000   59.224600  -98.840800
  H    -109.763000   59.572100  -103.212000

 Total Charge           Charge          ....    0
 Multiplicity           Mult            ....    1
 Number of Electrons    NEL             ....  134
 Basis Dimension        Dim             ....  322

ORBITAL ENERGIES
----------------

  NO   OCC          E(Eh)            E(eV)
   0   2.0000     -88.968180     -2420.9472
   1   2.0000     -88.967044     -2420.9163
   2   2.0000     -10.328042      -281.0403
   3   2.0000     -10.322781      -280.8972
   4   2.0000     -10.321901      -280.8732
   5   2.0000     -10.316147      -280.7166
   6   2.0000     -10.309242      -280.5287
   7   2.0000     -10.302179      -280.3366
   8   2.0000     -10.299749      -280.2704
   9   2.0000     -10.295552      -280.1562
  10   2.0000     -10.289257      -279.9849
  11   2.0000     -10.288040      -279.9518
  12   2.0000     -10.283414      -279.8259
  13   2.0000     -10.281382      -279.7706
  14   2.0000     -10.281173      -279.7649
  15   2.0000     -10.264262      -279.3048
  16   2.0000      -8.082636      -219.9397
  17   2.0000      -8.080048      -219.8693
  18   2.0000      -6.041001      -164.3840
  19   2.0000      -6.038741      -164.3225
  20   2.0000      -6.037085      -164.2774
  21   2.0000      -6.034823      -164.2159
  22   2.0000      -6.033669      -164.1845
  23   2.0000      -6.030671      -164.1029
  24   2.0000      -1.004866       -27.3438
  25   2.0000      -0.977718       -26.6051
  26   2.0000      -0.908003       -24.7080
  27   2.0000      -0.904617       -24.6159
  28   2.0000      -0.866993       -23.5921
  29   2.0000      -0.850233       -23.1360
  30   2.0000      -0.841350       -22.8943
  31   2.0000      -0.810518       -22.0553
  32   2.0000      -0.784415       -21.3450
  33   2.0000      -0.769803       -20.9474
  34   2.0000      -0.710946       -19.3458
  35   2.0000      -0.702317       -19.1110
  36   2.0000      -0.691120       -18.8063
  37   2.0000      -0.663615       -18.0579
  38   2.0000      -0.635193       -17.2845
  39   2.0000      -0.608421       -16.5560
  40   2.0000      -0.591716       -16.1014
  41   2.0000      -0.565044       -15.3756
  42   2.0000      -0.564485       -15.3604
  43   2.0000      -0.555835       -15.1250
  44   2.0000      -0.528037       -14.3686
  45   2.0000      -0.522853       -14.2276
  46   2.0000      -0.513757       -13.9800
  47   2.0000      -0.511142       -13.9089
  48   2.0000      -0.503744       -13.7076
  49   2.0000      -0.497375       -13.5343
  50   2.0000      -0.490199       -13.3390
  51   2.0000      -0.479201       -13.0397
  52   2.0000      -0.469238       -12.7686
  53   2.0000      -0.465294       -12.6613
  54   2.0000      -0.455559       -12.3964
  55   2.0000      -0.447388       -12.1741
  56   2.0000      -0.438370       -11.9286
  57   2.0000      -0.436628       -11.8812
  58   2.0000      -0.432719       -11.7749
  59   2.0000      -0.429601       -11.6900
  60   2.0000      -0.422861       -11.5066
  61   2.0000      -0.416892       -11.3442
  62   2.0000      -0.408496       -11.1158
  63   2.0000      -0.335513        -9.1298
  64   2.0000      -0.328012        -8.9257
  65   2.0000      -0.322002        -8.7621
  66   2.0000      -0.308189        -8.3862
  67   0.0000       0.039363         1.0711
  68   0.0000       0.050653         1.3783
  69   0.0000       0.103850         2.8259
  70   0.0000       0.118454         3.2233
  71   0.0000       0.124984         3.4010

MULLIKEN ATOMIC CHARGES
-----------------------
   0 S :    0.107332
   1 C :   -0.142611
   2 C :   -0.074372
   3 C :    0.013965
   4 C :   -0.169789
   5 H :    0.034592
   6 C :    0.053325
   7 H :    0.027206
   8 H :    0.044626
   9 C :   -0.072330
  10 H :    0.041450
  11 H :    0.014630
  12 C :    0.024799
  13 H :    0.010428
  14 H :   -0.002290
  15 H :    0.026281
  16 S :    0.127653
  17 C :   -0.103489
  18 C :   -0.049325
  19 C :   -0.023370
  20 C :   -0.192751
  21 H :    0.032177
  22 C :    0.137179
  23 H :    0.032824
  24 H :   -0.005085
  25 C :   -0.062111
  26 H :    0.017744
  27 H :    0.024582
  28 C :   -0.102555
  29 H :    0.039766
  30 H :    0.041718
  31 H :    0.037958
  32 H :    0.056266
  33 H :    0.053576
Sum of atomic charges:    0.0000000

LOEWDIN ATOMIC CHARGES
----------------------
   0 S :    0.382745
   1 C :   -0.178648
   2 C :   -0.059712
   3 C :   -0.073232
   4 C :   -0.199496
   5 H :    0.043137
   6 C :   -0.025377
   7 H :    0.027367
   8 H :    0.038014
   9 C :   -0.028715
  10 H :    0.030270
  11 H :    0.011898
  12 C :   -0.055532
  13 H :    0.018725
  14 H :    0.018296
  15 H :    0.023772
  16 S :    0.417989
  17 C :   -0.184616
  18 C :   -0.081298
  19 C :   -0.051218
  20 C :   -0.212234
  21 H :    0.037053
  22 C :   -0.022541
  23 H :    0.038157
  24 H :    0.021334
  25 C :   -0.036764
  26 H :    0.022382
  27 H :    0.012046
  28 C :   -0.076564
  29 H :    0.030449
  30 H :    0.026979
  31 H :    0.024407
  32 H :    0.032490
  33 H :    0.028440

  Mayer bond orders larger than 0.100000
B(  0-S ,  1-C ) :   1.1125 B(  0-S ,  4-C ) :   1.1420 B(  1-C ,  2-C ) :   1.6432
B(  1-C , 32-H ) :   0.9673 B(  2-C ,  3-C ) :   1.2056 B(  2-C ,  6-C ) :   1.0105
B(  3-C ,  4-C ) :   1.6234 B(  3-C ,  5-H ) :   0.9789 B(  4-C , 20-C ) :   1.0252
B(  6-C ,  7-H ) :   0.9486 B(  6-C ,  8-H ) :   0.9422 B(  6-C ,  9-C ) :   1.0550
B(  9-C , 10-H ) :   0.9624 B(  9-C , 11-H ) :   0.9576 B(  9-C , 12-C ) :   1.0828
B( 12-C , 13-H ) :   0.9713 B( 12-C , 14-H ) :   0.9696 B( 12-C , 15-H ) :   0.9738
B( 16-S , 17-C ) :   1.1860 B( 16-S , 20-C ) :   1.1367 B( 17-C , 18-C ) :   1.5980
B( 17-C , 20-C ) :   0.1023 B( 17-C , 33-H ) :   0.9621 B( 18-C , 19-C ) :   1.2710
B( 18-C , 21-H ) :   0.9799 B( 19-C , 20-C ) :   1.5738 B( 19-C , 22-C ) :   1.0728
B( 22-C , 23-H ) :   0.9246 B( 22-C , 24-H ) :   0.9208 B( 22-C , 25-C ) :   1.0490
B( 25-C , 26-H ) :   0.9528 B( 25-C , 27-H ) :   0.9607 B( 25-C , 28-C ) :   1.0746
B( 28-C , 29-H ) :   0.9753 B( 28-C , 30-H ) :   0.9773 B( 28-C , 31-H ) :   0.9792

Dispersion correction           -0.014159507
FINAL SINGLE POINT ENERGY     -1339.860890977641

DIPOLE MOMENT
-------------
                                X             Y             Z
Electronic contribution:    -11.53844     -10.25861     -11.07816
Nuclear contribution   :     11.56882      10.44947      11.26026
                        -----------------------------------------
Total Dipole Moment    :      0.03038       0.19087       0.18210
                        -----------------------------------------
Magnitude (a.u.)       :      0.26554
Magnitude (Debye)      :      0.67496

Rotational constants in cm-1:     0.020933     0.007576     0.006211
Rotational constants in MHz :   627.555723   227.112054   186.198683

                             ****ORCA TERMINATED NORMALLY****
TOTAL RUN TIME: 0 days 0 hours 0 minutes 19 seconds 826 msec
