                         Program Version 4.2.1 -  RELEASE  -
|  1> ! wB97X-D3 SP def2-SVP
|  2> %pal
|  3> nprocs 24
|  4> end
|  5>
|  6> * xyz 0 1
|  7> S 	 -66.1165 	 -51.1309 	 -86.4776
|  8> C 	 -64.6421 	 -51.2809 	 -85.4855
|  9> C 	 -64.9559 	 -50.8846 	 -84.2047
| 10> C 	 -66.3034 	 -50.461 	 -83.9951
| 11> C 	 -67.09 	 -50.5633 	 -85.1506
| 12> H 	 -66.7371 	 -50.1683 	 -83.0607
| 13> C 	 -63.979 	 -50.949 	 -83.1179
| 14> H 	 -63.0964 	 -51.4791 	 -83.5138
| 15> H 	 -64.4078 	 -51.608 	 -82.3155
| 16> C 	 -63.5602 	 -49.5669 	 -82.5925
| 17> H 	 -62.9452 	 -49.1167 	 -83.3217
| 18> H 	 -64.359 	 -48.8703 	 -82.4884
| 19> C 	 -62.8918 	 -49.5391 	 -81.2568
| 20> H 	 -61.9169 	 -50.0709 	 -81.3223
| 21> H 	 -62.4739 	 -48.6048 	 -80.9212
| 22> H 	 -63.5699 	 -49.8913 	 -80.5072
| 23> S 	 -69.0369 	 -48.7024 	 -84.8452
| 24> C 	 -70.6018 	 -48.9258 	 -85.5137
| 25> C 	 -70.7074 	 -50.1856 	 -86.1654
| 26> C 	 -69.4974 	 -50.915 	 -86.1217
| 27> C 	 -68.455 	 -50.2523 	 -85.396
| 28> H 	 -71.5984 	 -50.3862 	 -86.7792
| 29> C 	 -69.2587 	 -52.3046 	 -86.7636
| 30> H 	 -68.3558 	 -52.3852 	 -87.3148
| 31> H 	 -69.9863 	 -52.3675 	 -87.5295
| 32> C 	 -69.3461 	 -53.524 	 -85.8286
| 33> H 	 -70.487 	 -53.6434 	 -85.6495
| 34> H 	 -68.8114 	 -53.3378 	 -84.908
| 35> C 	 -68.8455 	 -54.8018 	 -86.5139
| 36> H 	 -69.416 	 -55.6294 	 -86.1669
| 37> H 	 -67.7048 	 -54.8917 	 -86.4453
| 38> H 	 -69.0849 	 -54.8632 	 -87.5502
| 39> H 	 -63.6933 	 -51.3923 	 -85.8406
| 40> H 	 -71.4156 	 -48.1399 	 -85.6331
| 41> *
| 42>
| 43>                          ****END OF INPUT****

CARTESIAN COORDINATES (ANGSTROEM)
---------------------------------
  S    -66.116500  -51.130900  -86.477600
  C    -64.642100  -51.280900  -85.485500
  C    -64.955900  -50.884600  -84.204700
  C    -66.303400  -50.461000  -83.995100
  C    -67.090000  -50.563300  -85.150600
  H    -66.737100  -50.168300  -83.060700
  C    -63.979000  -50.949000  -83.117900
  H    -63.096400  -51.479100  -83.513800
  H    -64.407800  -51.608000  -82.315500
  C    -63.560200  -49.566900  -82.592500
  H    -62.945200  -49.116700  -83.321700
  H    -64.359000  -48.870300  -82.488400
  C    -62.891800  -49.539100  -81.256800
  H    -61.916900  -50.070900  -81.322300
  H    -62.473900  -48.604800  -80.921200
  H    -63.569900  -49.891300  -80.507200
  S    -69.036900  -48.702400  -84.845200
  C    -70.601800  -48.925800  -85.513700
  C    -70.707400  -50.185600  -86.165400
  C    -69.497400  -50.915000  -86.121700
  C    -68.455000  -50.252300  -85.396000
  H    -71.598400  -50.386200  -86.779200
  C    -69.258700  -52.304600  -86.763600
  H    -68.355800  -52.385200  -87.314800
  H    -69.986300  -52.367500  -87.529500
  C    -69.346100  -53.524000  -85.828600
  H    -70.487000  -53.643400  -85.649500
  H    -68.811400  -53.337800  -84.908000
  C    -68.845500  -54.801800  -86.513900
  H    -69.416000  -55.629400  -86.166900
  H    -67.704800  -54.891700  -86.445300
  H    -69.084900  -54.863200  -87.550200
  H    -63.693300  -51.392300  -85.840600
  H    -71.415600  -48.139900  -85.633100

 Total Charge           Charge          ....    0
 Multiplicity           Mult            ....    1
 Number of Electrons    NEL             ....  134
 Basis Dimension        Dim             ....  322

ORBITAL ENERGIES
----------------

  NO   OCC          E(Eh)            E(eV)
   0   2.0000     -88.972017     -2421.0517
   1   2.0000     -88.963700     -2420.8254
   2   2.0000     -10.333055      -281.1767
   3   2.0000     -10.327721      -281.0316
   4   2.0000     -10.324621      -280.9472
   5   2.0000     -10.310125      -280.5528
   6   2.0000     -10.308016      -280.4954
   7   2.0000     -10.300752      -280.2977
   8   2.0000     -10.297903      -280.2202
   9   2.0000     -10.294965      -280.1402
  10   2.0000     -10.291831      -280.0550
  11   2.0000     -10.287104      -279.9263
  12   2.0000     -10.281668      -279.7784
  13   2.0000     -10.276430      -279.6359
  14   2.0000     -10.273733      -279.5625
  15   2.0000     -10.272831      -279.5379
  16   2.0000      -8.086730      -220.0511
  17   2.0000      -8.077851      -219.8095
  18   2.0000      -6.045071      -164.4947
  19   2.0000      -6.040937      -164.3823
  20   2.0000      -6.037978      -164.3017
  21   2.0000      -6.036472      -164.2607
  22   2.0000      -6.032297      -164.1471
  23   2.0000      -6.028658      -164.0481
  24   2.0000      -1.007957       -27.4279
  25   2.0000      -0.983686       -26.7674
  26   2.0000      -0.918866       -25.0036
  27   2.0000      -0.904433       -24.6109
  28   2.0000      -0.875265       -23.8172
  29   2.0000      -0.852842       -23.2070
  30   2.0000      -0.844734       -22.9864
  31   2.0000      -0.815179       -22.1821
  32   2.0000      -0.783453       -21.3188
  33   2.0000      -0.769200       -20.9310
  34   2.0000      -0.711488       -19.3606
  35   2.0000      -0.702183       -19.1074
  36   2.0000      -0.689159       -18.7530
  37   2.0000      -0.663918       -18.0661
  38   2.0000      -0.640379       -17.4256
  39   2.0000      -0.621363       -16.9082
  40   2.0000      -0.593252       -16.1432
  41   2.0000      -0.573943       -15.6178
  42   2.0000      -0.566671       -15.4199
  43   2.0000      -0.562287       -15.3006
  44   2.0000      -0.529603       -14.4112
  45   2.0000      -0.519734       -14.1427
  46   2.0000      -0.516522       -14.0553
  47   2.0000      -0.515822       -14.0362
  48   2.0000      -0.512725       -13.9520
  49   2.0000      -0.505951       -13.7676
  50   2.0000      -0.490634       -13.3508
  51   2.0000      -0.478244       -13.0137
  52   2.0000      -0.474157       -12.9025
  53   2.0000      -0.464183       -12.6311
  54   2.0000      -0.460906       -12.5419
  55   2.0000      -0.451984       -12.2991
  56   2.0000      -0.444318       -12.0905
  57   2.0000      -0.430852       -11.7241
  58   2.0000      -0.426881       -11.6160
  59   2.0000      -0.421667       -11.4741
  60   2.0000      -0.418075       -11.3764
  61   2.0000      -0.414298       -11.2736
  62   2.0000      -0.404214       -10.9992
  63   2.0000      -0.349205        -9.5024
  64   2.0000      -0.335509        -9.1297
  65   2.0000      -0.328208        -8.9310
  66   2.0000      -0.285059        -7.7568
  67   0.0000       0.021927         0.5967
  68   0.0000       0.068330         1.8594
  69   0.0000       0.113174         3.0796
  70   0.0000       0.120089         3.2678
  71   0.0000       0.130774         3.5585

MULLIKEN ATOMIC CHARGES
-----------------------
   0 S :    0.092513
   1 C :   -0.084257
   2 C :   -0.091986
   3 C :    0.036350
   4 C :   -0.143697
   5 H :    0.004473
   6 C :    0.057340
   7 H :    0.016955
   8 H :    0.041646
   9 C :   -0.047271
  10 H :    0.009916
  11 H :    0.018901
  12 C :   -0.033384
  13 H :    0.020801
  14 H :    0.020455
  15 H :    0.033496
  16 S :    0.135432
  17 C :   -0.129422
  18 C :   -0.061266
  19 C :   -0.025561
  20 C :   -0.155044
  21 H :    0.033137
  22 C :    0.087503
  23 H :    0.015442
  24 H :   -0.002975
  25 C :   -0.085629
  26 H :    0.035126
  27 H :    0.043377
  28 C :   -0.032402
  29 H :    0.023510
  30 H :    0.054252
  31 H :    0.010492
  32 H :    0.016278
  33 H :    0.085501
Sum of atomic charges:   -0.0000000

LOEWDIN ATOMIC CHARGES
----------------------
   0 S :    0.409794
   1 C :   -0.181894
   2 C :   -0.058658
   3 C :   -0.067591
   4 C :   -0.187491
   5 H :    0.027641
   6 C :   -0.032092
   7 H :    0.031770
   8 H :    0.038032
   9 C :   -0.040403
  10 H :    0.020742
  11 H :    0.020732
  12 C :   -0.066277
  13 H :    0.027595
  14 H :    0.024911
  15 H :    0.022746
  16 S :    0.445997
  17 C :   -0.217398
  18 C :   -0.078498
  19 C :   -0.049663
  20 C :   -0.214374
  21 H :    0.037771
  22 C :   -0.036383
  23 H :    0.012483
  24 H :    0.021956
  25 C :   -0.037607
  26 H :    0.032061
  27 H :    0.024995
  28 C :   -0.070825
  29 H :    0.024274
  30 H :    0.038394
  31 H :    0.019307
  32 H :    0.010965
  33 H :    0.046988

  Mayer bond orders larger than 0.100000
B(  0-S ,  1-C ) :   1.1148 B(  0-S ,  4-C ) :   1.1666 B(  1-C ,  2-C ) :   1.6068
B(  1-C , 32-H ) :   0.9804 B(  2-C ,  3-C ) :   1.2298 B(  2-C ,  6-C ) :   1.0441
B(  3-C ,  4-C ) :   1.5421 B(  3-C ,  5-H ) :   0.9994 B(  4-C , 20-C ) :   1.0722
B(  6-C ,  7-H ) :   0.9363 B(  6-C ,  8-H ) :   0.9408 B(  6-C ,  9-C ) :   1.0441
B(  9-C , 10-H ) :   0.9475 B(  9-C , 11-H ) :   0.9620 B(  9-C , 12-C ) :   1.0957
B( 12-C , 13-H ) :   0.9689 B( 12-C , 14-H ) :   0.9695 B( 12-C , 15-H ) :   0.9759
B( 16-S , 17-C ) :   1.1953 B( 16-S , 20-C ) :   1.1660 B( 17-C , 18-C ) :   1.5425
B( 17-C , 20-C ) :   0.1152 B( 17-C , 33-H ) :   0.9573 B( 18-C , 19-C ) :   1.3174
B( 18-C , 21-H ) :   0.9844 B( 19-C , 20-C ) :   1.4931 B( 19-C , 22-C ) :   1.0336
B( 22-C , 23-H ) :   0.9373 B( 22-C , 24-H ) :   0.9206 B( 22-C , 25-C ) :   1.0552
B( 25-C , 26-H ) :   0.9572 B( 25-C , 27-H ) :   0.9630 B( 25-C , 28-C ) :   1.0773
B( 28-C , 29-H ) :   0.9726 B( 28-C , 30-H ) :   0.9727 B( 28-C , 31-H ) :   0.9701

Dispersion correction           -0.014111885
FINAL SINGLE POINT ENERGY     -1339.868153657000

DIPOLE MOMENT
-------------
                                X             Y             Z
Electronic contribution:     -9.37313      12.27448      -8.90635
Nuclear contribution   :      9.41193     -12.30669       8.96027
                        -----------------------------------------
Total Dipole Moment    :      0.03880      -0.03221       0.05391
                        -----------------------------------------
Magnitude (a.u.)       :      0.07382
Magnitude (Debye)      :      0.18763

Rotational constants in cm-1:     0.019594     0.008295     0.006549
Rotational constants in MHz :   587.419947   248.684049   196.329025

                             ****ORCA TERMINATED NORMALLY****
TOTAL RUN TIME: 0 days 0 hours 0 minutes 20 seconds 134 msec
