                         Program Version 4.2.1 -  RELEASE  -
|  1> ! wB97X-D3 SP def2-SVP
|  2> %pal
|  3> nprocs 24
|  4> end
|  5>
|  6> * xyz 0 1
|  7> S 	 47.3494 	 -24.0673 	 -114.747
|  8> C 	 48.7624 	 -23.9302 	 -113.783
|  9> C 	 49.1062 	 -22.5909 	 -113.558
| 10> C 	 48.4251 	 -21.7446 	 -114.497
| 11> C 	 47.453 	 -22.387 	 -115.168
| 12> H 	 48.4593 	 -20.6824 	 -114.566
| 13> C 	 50.2093 	 -21.9662 	 -112.68
| 14> H 	 50.7877 	 -21.155 	 -113.167
| 15> H 	 50.8901 	 -22.7577 	 -112.442
| 16> C 	 49.6826 	 -21.4565 	 -111.398
| 17> H 	 49.0155 	 -22.1279 	 -110.822
| 18> H 	 50.5799 	 -21.4352 	 -110.748
| 19> C 	 49.0892 	 -20.1058 	 -111.378
| 20> H 	 48.356 	 -20.002 	 -110.577
| 21> H 	 49.7888 	 -19.2911 	 -111.231
| 22> H 	 48.5545 	 -19.9164 	 -112.335
| 23> S 	 46.6114 	 -22.7688 	 -117.799
| 24> C 	 45.9782 	 -21.5212 	 -118.715
| 25> C 	 45.8497 	 -20.3407 	 -117.99
| 26> C 	 46.2488 	 -20.5874 	 -116.615
| 27> C 	 46.7883 	 -21.8128 	 -116.374
| 28> H 	 45.3571 	 -19.5463 	 -118.459
| 29> C 	 46.3215 	 -19.4135 	 -115.583
| 30> H 	 46.1868 	 -19.7384 	 -114.54
| 31> H 	 45.5088 	 -18.7718 	 -115.754
| 32> C 	 47.5598 	 -18.5426 	 -115.829
| 33> H 	 47.4736 	 -18.1114 	 -116.812
| 34> H 	 48.5124 	 -18.9588 	 -115.895
| 35> C 	 47.5823 	 -17.4338 	 -114.889
| 36> H 	 48.3725 	 -16.6747 	 -115.196
| 37> H 	 47.8472 	 -17.7841 	 -113.868
| 38> H 	 46.6264 	 -16.9842 	 -114.869
| 39> H 	 49.1532 	 -24.7289 	 -113.189
| 40> H 	 45.7413 	 -21.5044 	 -119.794
| 41> *
| 42>
| 43>                          ****END OF INPUT****

CARTESIAN COORDINATES (ANGSTROEM)
---------------------------------
  S     47.349400  -24.067300  -114.747000
  C     48.762400  -23.930200  -113.783000
  C     49.106200  -22.590900  -113.558000
  C     48.425100  -21.744600  -114.497000
  C     47.453000  -22.387000  -115.168000
  H     48.459300  -20.682400  -114.566000
  C     50.209300  -21.966200  -112.680000
  H     50.787700  -21.155000  -113.167000
  H     50.890100  -22.757700  -112.442000
  C     49.682600  -21.456500  -111.398000
  H     49.015500  -22.127900  -110.822000
  H     50.579900  -21.435200  -110.748000
  C     49.089200  -20.105800  -111.378000
  H     48.356000  -20.002000  -110.577000
  H     49.788800  -19.291100  -111.231000
  H     48.554500  -19.916400  -112.335000
  S     46.611400  -22.768800  -117.799000
  C     45.978200  -21.521200  -118.715000
  C     45.849700  -20.340700  -117.990000
  C     46.248800  -20.587400  -116.615000
  C     46.788300  -21.812800  -116.374000
  H     45.357100  -19.546300  -118.459000
  C     46.321500  -19.413500  -115.583000
  H     46.186800  -19.738400  -114.540000
  H     45.508800  -18.771800  -115.754000
  C     47.559800  -18.542600  -115.829000
  H     47.473600  -18.111400  -116.812000
  H     48.512400  -18.958800  -115.895000
  C     47.582300  -17.433800  -114.889000
  H     48.372500  -16.674700  -115.196000
  H     47.847200  -17.784100  -113.868000
  H     46.626400  -16.984200  -114.869000
  H     49.153200  -24.728900  -113.189000
  H     45.741300  -21.504400  -119.794000

 Total Charge           Charge          ....    0
 Multiplicity           Mult            ....    1
 Number of Electrons    NEL             ....  134
 Basis Dimension        Dim             ....  322

ORBITAL ENERGIES
----------------

  NO   OCC          E(Eh)            E(eV)
   0   2.0000     -88.968043     -2420.9435
   1   2.0000     -88.962231     -2420.7854
   2   2.0000     -10.324958      -280.9564
   3   2.0000     -10.321217      -280.8546
   4   2.0000     -10.313766      -280.6518
   5   2.0000     -10.312220      -280.6098
   6   2.0000     -10.304023      -280.3867
   7   2.0000     -10.301921      -280.3295
   8   2.0000     -10.292293      -280.0675
   9   2.0000     -10.290325      -280.0140
  10   2.0000     -10.289937      -280.0034
  11   2.0000     -10.285151      -279.8732
  12   2.0000     -10.280632      -279.7502
  13   2.0000     -10.274949      -279.5956
  14   2.0000     -10.274811      -279.5918
  15   2.0000     -10.272957      -279.5414
  16   2.0000      -8.083586      -219.9655
  17   2.0000      -8.078823      -219.8360
  18   2.0000      -6.042023      -164.4118
  19   2.0000      -6.038089      -164.3048
  20   2.0000      -6.037218      -164.2811
  21   2.0000      -6.034274      -164.2009
  22   2.0000      -6.032906      -164.1637
  23   2.0000      -6.029737      -164.0775
  24   2.0000      -1.014859       -27.6157
  25   2.0000      -0.993528       -27.0353
  26   2.0000      -0.922598       -25.1052
  27   2.0000      -0.921185       -25.0667
  28   2.0000      -0.871499       -23.7147
  29   2.0000      -0.856089       -23.2954
  30   2.0000      -0.848667       -23.0934
  31   2.0000      -0.819187       -22.2912
  32   2.0000      -0.786658       -21.4060
  33   2.0000      -0.773453       -21.0467
  34   2.0000      -0.702814       -19.1245
  35   2.0000      -0.696693       -18.9580
  36   2.0000      -0.691526       -18.8174
  37   2.0000      -0.666661       -18.1408
  38   2.0000      -0.643629       -17.5140
  39   2.0000      -0.622076       -16.9275
  40   2.0000      -0.595251       -16.1976
  41   2.0000      -0.579307       -15.7638
  42   2.0000      -0.573215       -15.5980
  43   2.0000      -0.557390       -15.1674
  44   2.0000      -0.542747       -14.7689
  45   2.0000      -0.530019       -14.4226
  46   2.0000      -0.523749       -14.2519
  47   2.0000      -0.515523       -14.0281
  48   2.0000      -0.506808       -13.7909
  49   2.0000      -0.496109       -13.4998
  50   2.0000      -0.492440       -13.4000
  51   2.0000      -0.483410       -13.1543
  52   2.0000      -0.474687       -12.9169
  53   2.0000      -0.467994       -12.7348
  54   2.0000      -0.465932       -12.6787
  55   2.0000      -0.452168       -12.3041
  56   2.0000      -0.444042       -12.0830
  57   2.0000      -0.439605       -11.9623
  58   2.0000      -0.432791       -11.7768
  59   2.0000      -0.428681       -11.6650
  60   2.0000      -0.418587       -11.3903
  61   2.0000      -0.409874       -11.1532
  62   2.0000      -0.399571       -10.8729
  63   2.0000      -0.355315        -9.6686
  64   2.0000      -0.330450        -8.9920
  65   2.0000      -0.328090        -8.9278
  66   2.0000      -0.292565        -7.9611
  67   0.0000       0.035050         0.9538
  68   0.0000       0.079368         2.1597
  69   0.0000       0.111543         3.0352
  70   0.0000       0.123768         3.3679
  71   0.0000       0.126880         3.4526

MULLIKEN ATOMIC CHARGES
-----------------------
   0 S :    0.119218
   1 C :   -0.118383
   2 C :   -0.077275
   3 C :    0.017691
   4 C :   -0.110775
   5 H :   -0.013529
   6 C :    0.084584
   7 H :    0.038672
   8 H :    0.011116
   9 C :   -0.082101
  10 H :    0.029335
  11 H :    0.021445
  12 C :   -0.037827
  13 H :    0.029436
  14 H :    0.029009
  15 H :    0.019634
  16 S :    0.122639
  17 C :   -0.102246
  18 C :   -0.033528
  19 C :   -0.055537
  20 C :   -0.129410
  21 H :    0.003962
  22 C :    0.058896
  23 H :    0.034996
  24 H :    0.000311
  25 C :   -0.052444
  26 H :    0.009606
  27 H :    0.018568
  28 C :   -0.026143
  29 H :    0.038301
  30 H :    0.026524
  31 H :    0.016196
  32 H :    0.042903
  33 H :    0.066155
Sum of atomic charges:    0.0000000

LOEWDIN ATOMIC CHARGES
----------------------
   0 S :    0.421378
   1 C :   -0.204469
   2 C :   -0.053058
   3 C :   -0.060978
   4 C :   -0.190722
   5 H :    0.026248
   6 C :   -0.028278
   7 H :    0.037804
   8 H :    0.029064
   9 C :   -0.054892
  10 H :    0.028967
  11 H :    0.027754
  12 C :   -0.068600
  13 H :    0.029305
  14 H :    0.023217
  15 H :    0.024032
  16 S :    0.445531
  17 C :   -0.213283
  18 C :   -0.075285
  19 C :   -0.055798
  20 C :   -0.208124
  21 H :    0.023362
  22 C :   -0.024659
  23 H :    0.029224
  24 H :    0.022709
  25 C :   -0.046270
  26 H :    0.025683
  27 H :    0.014314
  28 C :   -0.059980
  29 H :    0.033481
  30 H :    0.023073
  31 H :    0.016730
  32 H :    0.023137
  33 H :    0.039383

  Mayer bond orders larger than 0.100000
B(  0-S ,  1-C ) :   1.1502 B(  0-S ,  4-C ) :   1.1473 B(  1-C ,  2-C ) :   1.6067
B(  1-C , 32-H ) :   0.9650 B(  2-C ,  3-C ) :   1.2254 B(  2-C ,  6-C ) :   1.0247
B(  3-C ,  4-C ) :   1.5977 B(  3-C ,  5-H ) :   0.9869 B(  4-C , 20-C ) :   1.0067
B(  6-C ,  7-H ) :   0.9484 B(  6-C ,  8-H ) :   0.9324 B(  6-C ,  9-C ) :   1.0771
B(  9-C , 10-H ) :   0.9537 B(  9-C , 11-H ) :   0.9507 B(  9-C , 12-C ) :   1.0830
B( 12-C , 13-H ) :   0.9701 B( 12-C , 14-H ) :   0.9724 B( 12-C , 15-H ) :   0.9729
B( 16-S , 17-C ) :   1.1902 B( 16-S , 20-C ) :   1.1374 B( 17-C , 18-C ) :   1.5967
B( 17-C , 33-H ) :   0.9608 B( 18-C , 19-C ) :   1.2337 B( 18-C , 21-H ) :   1.0017
B( 19-C , 20-C ) :   1.6209 B( 19-C , 22-C ) :   1.0509 B( 22-C , 23-H ) :   0.9465
B( 22-C , 24-H ) :   0.9231 B( 22-C , 25-C ) :   1.0525 B( 25-C , 26-H ) :   0.9403
B( 25-C , 27-H ) :   0.9495 B( 25-C , 28-C ) :   1.1003 B( 28-C , 29-H ) :   0.9683
B( 28-C , 30-H ) :   0.9690 B( 28-C , 31-H ) :   0.9676

Dispersion correction           -0.015212389
FINAL SINGLE POINT ENERGY     -1339.862291509432

DIPOLE MOMENT
-------------
                                X             Y             Z
Electronic contribution:     -9.38532     -25.36785     -17.75772
Nuclear contribution   :      9.62377      25.94437      18.01092
                        -----------------------------------------
Total Dipole Moment    :      0.23845       0.57653       0.25320
                        -----------------------------------------
Magnitude (a.u.)       :      0.67332
Magnitude (Debye)      :      1.71143

Rotational constants in cm-1:     0.017790     0.010791     0.007091
Rotational constants in MHz :   533.337827   323.498815   212.595716

                             ****ORCA TERMINATED NORMALLY****
TOTAL RUN TIME: 0 days 0 hours 0 minutes 22 seconds 949 msec
