                         Program Version 4.2.1 -  RELEASE  -
|  1> ! wB97X-D3 SP def2-SVP
|  2> %pal
|  3> nprocs 24
|  4> end
|  5>
|  6> * xyz 0 1
|  7> S 	 -52.5031 	 4.18648 	 -24.5425
|  8> C 	 -52.1678 	 4.79207 	 -22.9516
|  9> C 	 -53.0537 	 4.2908 	 -22.0179
| 10> C 	 -54.0464 	 3.34935 	 -22.656
| 11> C 	 -53.807 	 3.20203 	 -24.0475
| 12> H 	 -54.8493 	 2.87862 	 -22.2548
| 13> C 	 -53.1972 	 4.87564 	 -20.5689
| 14> H 	 -52.985 	 4.09661 	 -19.8611
| 15> H 	 -54.306 	 5.00773 	 -20.4086
| 16> C 	 -52.547 	 6.20947 	 -20.1452
| 17> H 	 -51.5047 	 6.18036 	 -20.4393
| 18> H 	 -53.0679 	 6.94855 	 -20.7604
| 19> C 	 -52.6615 	 6.56235 	 -18.6569
| 20> H 	 -52.1997 	 5.79057 	 -18.0334
| 21> H 	 -52.1281 	 7.43702 	 -18.4037
| 22> H 	 -53.6934 	 6.69879 	 -18.3289
| 23> S 	 -54.1208 	 2.44538 	 -26.7425
| 24> C 	 -55.2088 	 1.18613 	 -27.2036
| 25> C 	 -55.6282 	 0.503401 	 -26.084
| 26> C 	 -55.2097 	 1.1074 	 -24.8346
| 27> C 	 -54.5478 	 2.33447 	 -25.0117
| 28> H 	 -56.0834 	 -0.466231 	 -26.1405
| 29> C 	 -55.4153 	 0.345087 	 -23.6195
| 30> H 	 -55.8493 	 -0.553384 	 -23.8106
| 31> H 	 -56.0564 	 0.804909 	 -22.8367
| 32> C 	 -54.1049 	 -0.00574306 	 -22.7684
| 33> H 	 -53.594 	 0.889871 	 -22.4289
| 34> H 	 -53.4928 	 -0.567702 	 -23.4802
| 35> C 	 -54.3157 	 -1.00771 	 -21.5426
| 36> H 	 -55.1076 	 -0.673209 	 -20.8684
| 37> H 	 -53.4163 	 -1.08917 	 -20.9779
| 38> H 	 -54.5382 	 -2.02283 	 -21.7657
| 39> H 	 -51.4174 	 5.52035 	 -22.6899
| 40> H 	 -55.589 	 0.992181 	 -28.2177
| 41> *
| 42>
| 43>                          ****END OF INPUT****

CARTESIAN COORDINATES (ANGSTROEM)
---------------------------------
  S    -52.503100    4.186480  -24.542500
  C    -52.167800    4.792070  -22.951600
  C    -53.053700    4.290800  -22.017900
  C    -54.046400    3.349350  -22.656000
  C    -53.807000    3.202030  -24.047500
  H    -54.849300    2.878620  -22.254800
  C    -53.197200    4.875640  -20.568900
  H    -52.985000    4.096610  -19.861100
  H    -54.306000    5.007730  -20.408600
  C    -52.547000    6.209470  -20.145200
  H    -51.504700    6.180360  -20.439300
  H    -53.067900    6.948550  -20.760400
  C    -52.661500    6.562350  -18.656900
  H    -52.199700    5.790570  -18.033400
  H    -52.128100    7.437020  -18.403700
  H    -53.693400    6.698790  -18.328900
  S    -54.120800    2.445380  -26.742500
  C    -55.208800    1.186130  -27.203600
  C    -55.628200    0.503401  -26.084000
  C    -55.209700    1.107400  -24.834600
  C    -54.547800    2.334470  -25.011700
  H    -56.083400   -0.466231  -26.140500
  C    -55.415300    0.345087  -23.619500
  H    -55.849300   -0.553384  -23.810600
  H    -56.056400    0.804909  -22.836700
  C    -54.104900   -0.005743  -22.768400
  H    -53.594000    0.889871  -22.428900
  H    -53.492800   -0.567702  -23.480200
  C    -54.315700   -1.007710  -21.542600
  H    -55.107600   -0.673209  -20.868400
  H    -53.416300   -1.089170  -20.977900
  H    -54.538200   -2.022830  -21.765700
  H    -51.417400    5.520350  -22.689900
  H    -55.589000    0.992181  -28.217700

 Total Charge           Charge          ....    0
 Multiplicity           Mult            ....    1
 Number of Electrons    NEL             ....  134
 Basis Dimension        Dim             ....  322

ORBITAL ENERGIES
----------------

  NO   OCC          E(Eh)            E(eV)
   0   2.0000     -88.966339     -2420.8971
   1   2.0000     -88.965983     -2420.8875
   2   2.0000     -10.337327      -281.2930
   3   2.0000     -10.336969      -281.2832
   4   2.0000     -10.322089      -280.8783
   5   2.0000     -10.315038      -280.6864
   6   2.0000     -10.312884      -280.6278
   7   2.0000     -10.307465      -280.4804
   8   2.0000     -10.298490      -280.2361
   9   2.0000     -10.298314      -280.2314
  10   2.0000     -10.295194      -280.1465
  11   2.0000     -10.292139      -280.0633
  12   2.0000     -10.288885      -279.9748
  13   2.0000     -10.286018      -279.8968
  14   2.0000     -10.280517      -279.7471
  15   2.0000     -10.275636      -279.6143
  16   2.0000      -8.081951      -219.9211
  17   2.0000      -8.080717      -219.8875
  18   2.0000      -6.040540      -164.3714
  19   2.0000      -6.039449      -164.3418
  20   2.0000      -6.036268      -164.2552
  21   2.0000      -6.035286      -164.2285
  22   2.0000      -6.032646      -164.1566
  23   2.0000      -6.031182      -164.1168
  24   2.0000      -1.005988       -27.3743
  25   2.0000      -0.984034       -26.7769
  26   2.0000      -0.908059       -24.7095
  27   2.0000      -0.906069       -24.6554
  28   2.0000      -0.868595       -23.6357
  29   2.0000      -0.847753       -23.0685
  30   2.0000      -0.843319       -22.9479
  31   2.0000      -0.815734       -22.1973
  32   2.0000      -0.784363       -21.3436
  33   2.0000      -0.776386       -21.1265
  34   2.0000      -0.712109       -19.3775
  35   2.0000      -0.705811       -19.2061
  36   2.0000      -0.688502       -18.7351
  37   2.0000      -0.668332       -18.1862
  38   2.0000      -0.643298       -17.5050
  39   2.0000      -0.611092       -16.6286
  40   2.0000      -0.597725       -16.2649
  41   2.0000      -0.573440       -15.6041
  42   2.0000      -0.566980       -15.4283
  43   2.0000      -0.561407       -15.2767
  44   2.0000      -0.525644       -14.3035
  45   2.0000      -0.524458       -14.2712
  46   2.0000      -0.514589       -14.0027
  47   2.0000      -0.511343       -13.9143
  48   2.0000      -0.506359       -13.7787
  49   2.0000      -0.499207       -13.5841
  50   2.0000      -0.493498       -13.4288
  51   2.0000      -0.487723       -13.2716
  52   2.0000      -0.479291       -13.0422
  53   2.0000      -0.470835       -12.8121
  54   2.0000      -0.456274       -12.4158
  55   2.0000      -0.452210       -12.3052
  56   2.0000      -0.449345       -12.2273
  57   2.0000      -0.430852       -11.7241
  58   2.0000      -0.428775       -11.6676
  59   2.0000      -0.427186       -11.6243
  60   2.0000      -0.425638       -11.5822
  61   2.0000      -0.416195       -11.3252
  62   2.0000      -0.411394       -11.1946
  63   2.0000      -0.362206        -9.8561
  64   2.0000      -0.328664        -8.9434
  65   2.0000      -0.320904        -8.7322
  66   2.0000      -0.285356        -7.7649
  67   0.0000       0.015675         0.4265
  68   0.0000       0.081365         2.2140
  69   0.0000       0.100937         2.7466
  70   0.0000       0.112850         3.0708
  71   0.0000       0.138220         3.7612

MULLIKEN ATOMIC CHARGES
-----------------------
   0 S :    0.105637
   1 C :   -0.115495
   2 C :   -0.073592
   3 C :    0.044005
   4 C :   -0.135629
   5 H :   -0.034181
   6 C :    0.022468
   7 H :    0.023769
   8 H :    0.033464
   9 C :   -0.081701
  10 H :    0.032770
  11 H :    0.038102
  12 C :   -0.026784
  13 H :    0.029099
  14 H :    0.026600
  15 H :    0.033763
  16 S :    0.080426
  17 C :   -0.084873
  18 C :   -0.023398
  19 C :   -0.054236
  20 C :   -0.082516
  21 H :    0.019320
  22 C :    0.068966
  23 H :   -0.016316
  24 H :    0.036967
  25 C :   -0.112639
  26 H :    0.056581
  27 H :    0.031900
  28 C :   -0.039091
  29 H :    0.023865
  30 H :    0.028724
  31 H :    0.021427
  32 H :    0.048078
  33 H :    0.074523
Sum of atomic charges:    0.0000000

LOEWDIN ATOMIC CHARGES
----------------------
   0 S :    0.423852
   1 C :   -0.209556
   2 C :   -0.052599
   3 C :   -0.059012
   4 C :   -0.195097
   5 H :    0.008215
   6 C :   -0.039274
   7 H :    0.023861
   8 H :    0.037080
   9 C :   -0.041774
  10 H :    0.020324
  11 H :    0.028243
  12 C :   -0.058723
  13 H :    0.027682
  14 H :    0.023955
  15 H :    0.027128
  16 S :    0.395957
  17 C :   -0.188338
  18 C :   -0.070147
  19 C :   -0.052876
  20 C :   -0.182280
  21 H :    0.030003
  22 C :   -0.035163
  23 H :    0.015778
  24 H :    0.034378
  25 C :   -0.028916
  26 H :    0.023392
  27 H :    0.023754
  28 C :   -0.066917
  29 H :    0.022202
  30 H :    0.026041
  31 H :    0.019034
  32 H :    0.029238
  33 H :    0.040555

  Mayer bond orders larger than 0.100000
B(  0-S ,  1-C ) :   1.1248 B(  0-S ,  4-C ) :   1.1659 B(  1-C ,  2-C ) :   1.6464
B(  1-C , 32-H ) :   0.9641 B(  2-C ,  3-C ) :   1.2148 B(  2-C ,  6-C ) :   1.0028
B(  3-C ,  4-C ) :   1.5591 B(  3-C ,  5-H ) :   1.0083 B(  4-C , 20-C ) :   1.0736
B(  6-C ,  7-H ) :   0.9372 B(  6-C ,  8-H ) :   0.9501 B(  6-C ,  9-C ) :   1.0660
B(  9-C , 10-H ) :   0.9511 B(  9-C , 11-H ) :   0.9558 B(  9-C , 12-C ) :   1.0900
B( 12-C , 13-H ) :   0.9729 B( 12-C , 14-H ) :   0.9719 B( 12-C , 15-H ) :   0.9761
B( 16-S , 17-C ) :   1.1671 B( 16-S , 20-C ) :   1.1253 B( 17-C , 18-C ) :   1.5872
B( 17-C , 33-H ) :   0.9634 B( 18-C , 19-C ) :   1.2665 B( 18-C , 21-H ) :   0.9896
B( 19-C , 20-C ) :   1.5388 B( 19-C , 22-C ) :   1.0823 B( 22-C , 23-H ) :   0.9261
B( 22-C , 24-H ) :   0.9269 B( 22-C , 25-C ) :   1.0403 B( 25-C , 26-H ) :   0.9564
B( 25-C , 27-H ) :   0.9586 B( 25-C , 28-C ) :   1.0751 B( 28-C , 29-H ) :   0.9760
B( 28-C , 30-H ) :   0.9752 B( 28-C , 31-H ) :   0.9772

Dispersion correction           -0.013850468
FINAL SINGLE POINT ENERGY     -1339.855506682554

DIPOLE MOMENT
-------------
                                X             Y             Z
Electronic contribution:      1.06291       3.01740     -30.44827
Nuclear contribution   :     -1.22997      -3.27798      31.03232
                        -----------------------------------------
Total Dipole Moment    :     -0.16706      -0.26058       0.58405
                        -----------------------------------------
Magnitude (a.u.)       :      0.66101
Magnitude (Debye)      :      1.68015

Rotational constants in cm-1:     0.020908     0.007658     0.005952
Rotational constants in MHz :   626.794793   229.577971   178.445055

                             ****ORCA TERMINATED NORMALLY****
TOTAL RUN TIME: 0 days 0 hours 0 minutes 21 seconds 245 msec
