                         Program Version 4.2.1 -  RELEASE  -
|  1> ! wB97X-D3 SP def2-SVP
|  2> %pal
|  3> nprocs 24
|  4> end
|  5>
|  6> * xyz 0 1
|  7> S 	 -108.316 	 55.5136 	 -90.6888
|  8> C 	 -109.675 	 56.1561 	 -91.4895
|  9> C 	 -110.849 	 56.05 	 -90.7856
| 10> C 	 -110.639 	 55.2306 	 -89.5995
| 11> C 	 -109.315 	 54.8372 	 -89.4335
| 12> H 	 -111.42 	 54.8839 	 -88.9269
| 13> C 	 -112.219 	 56.538 	 -91.2487
| 14> H 	 -112.531 	 57.3815 	 -90.5581
| 15> H 	 -113.017 	 55.8181 	 -90.9119
| 16> C 	 -112.445 	 56.8388 	 -92.8112
| 17> H 	 -111.837 	 57.6567 	 -93.0804
| 18> H 	 -112.065 	 55.9607 	 -93.3761
| 19> C 	 -113.937 	 57.1547 	 -93.1671
| 20> H 	 -114.593 	 56.4154 	 -92.7168
| 21> H 	 -114.26 	 58.1795 	 -92.7951
| 22> H 	 -114.169 	 57.0231 	 -94.2377
| 23> S 	 -107.291 	 54.4439 	 -87.6507
| 24> C 	 -107.273 	 53.0075 	 -86.662
| 25> C 	 -108.414 	 52.2287 	 -86.7867
| 26> C 	 -109.302 	 52.7257 	 -87.7772
| 27> C 	 -108.819 	 53.9116 	 -88.3941
| 28> H 	 -108.584 	 51.346 	 -86.167
| 29> C 	 -110.487 	 51.8976 	 -88.1562
| 30> H 	 -111.349 	 52.5912 	 -88.3764
| 31> H 	 -110.953 	 51.392 	 -87.2924
| 32> C 	 -110.302 	 50.8409 	 -89.2002
| 33> H 	 -111.185 	 50.3392 	 -89.5623
| 34> H 	 -109.559 	 50.089 	 -88.8601
| 35> C 	 -109.718 	 51.4169 	 -90.4942
| 36> H 	 -109.539 	 50.6506 	 -91.2336
| 37> H 	 -108.811 	 51.9936 	 -90.2822
| 38> H 	 -110.358 	 52.0897 	 -91.0497
| 39> H 	 -109.633 	 56.7719 	 -92.3772
| 40> H 	 -106.585 	 52.819 	 -85.8452
| 41> *
| 42>
| 43>                          ****END OF INPUT****

CARTESIAN COORDINATES (ANGSTROEM)
---------------------------------
  S    -108.316000   55.513600  -90.688800
  C    -109.675000   56.156100  -91.489500
  C    -110.849000   56.050000  -90.785600
  C    -110.639000   55.230600  -89.599500
  C    -109.315000   54.837200  -89.433500
  H    -111.420000   54.883900  -88.926900
  C    -112.219000   56.538000  -91.248700
  H    -112.531000   57.381500  -90.558100
  H    -113.017000   55.818100  -90.911900
  C    -112.445000   56.838800  -92.811200
  H    -111.837000   57.656700  -93.080400
  H    -112.065000   55.960700  -93.376100
  C    -113.937000   57.154700  -93.167100
  H    -114.593000   56.415400  -92.716800
  H    -114.260000   58.179500  -92.795100
  H    -114.169000   57.023100  -94.237700
  S    -107.291000   54.443900  -87.650700
  C    -107.273000   53.007500  -86.662000
  C    -108.414000   52.228700  -86.786700
  C    -109.302000   52.725700  -87.777200
  C    -108.819000   53.911600  -88.394100
  H    -108.584000   51.346000  -86.167000
  C    -110.487000   51.897600  -88.156200
  H    -111.349000   52.591200  -88.376400
  H    -110.953000   51.392000  -87.292400
  C    -110.302000   50.840900  -89.200200
  H    -111.185000   50.339200  -89.562300
  H    -109.559000   50.089000  -88.860100
  C    -109.718000   51.416900  -90.494200
  H    -109.539000   50.650600  -91.233600
  H    -108.811000   51.993600  -90.282200
  H    -110.358000   52.089700  -91.049700
  H    -109.633000   56.771900  -92.377200
  H    -106.585000   52.819000  -85.845200

 Total Charge           Charge          ....    0
 Multiplicity           Mult            ....    1
 Number of Electrons    NEL             ....  134
 Basis Dimension        Dim             ....  322

ORBITAL ENERGIES
----------------

  NO   OCC          E(Eh)            E(eV)
   0   2.0000     -88.969295     -2420.9776
   1   2.0000     -88.968159     -2420.9467
   2   2.0000     -10.336286      -281.2646
   3   2.0000     -10.331067      -281.1226
   4   2.0000     -10.316784      -280.7340
   5   2.0000     -10.308664      -280.5130
   6   2.0000     -10.308192      -280.5002
   7   2.0000     -10.306865      -280.4640
   8   2.0000     -10.304664      -280.4042
   9   2.0000     -10.298553      -280.2379
  10   2.0000     -10.296857      -280.1917
  11   2.0000     -10.294753      -280.1345
  12   2.0000     -10.292506      -280.0733
  13   2.0000     -10.290671      -280.0234
  14   2.0000     -10.282526      -279.8017
  15   2.0000     -10.261039      -279.2171
  16   2.0000      -8.083658      -219.9675
  17   2.0000      -8.083557      -219.9648
  18   2.0000      -6.042200      -164.4166
  19   2.0000      -6.041999      -164.4111
  20   2.0000      -6.038105      -164.3052
  21   2.0000      -6.038061      -164.3040
  22   2.0000      -6.034451      -164.2058
  23   2.0000      -6.034331      -164.2025
  24   2.0000      -1.006663       -27.3927
  25   2.0000      -0.984519       -26.7901
  26   2.0000      -0.912583       -24.8327
  27   2.0000      -0.900516       -24.5043
  28   2.0000      -0.866156       -23.5693
  29   2.0000      -0.851031       -23.1577
  30   2.0000      -0.845917       -23.0186
  31   2.0000      -0.810039       -22.0423
  32   2.0000      -0.780919       -21.2499
  33   2.0000      -0.769665       -20.9436
  34   2.0000      -0.713525       -19.4160
  35   2.0000      -0.701009       -19.0754
  36   2.0000      -0.685899       -18.6643
  37   2.0000      -0.662921       -18.0390
  38   2.0000      -0.639115       -17.3912
  39   2.0000      -0.611848       -16.6492
  40   2.0000      -0.594796       -16.1852
  41   2.0000      -0.567406       -15.4399
  42   2.0000      -0.559424       -15.2227
  43   2.0000      -0.557980       -15.1834
  44   2.0000      -0.539805       -14.6888
  45   2.0000      -0.518436       -14.1074
  46   2.0000      -0.510897       -13.9022
  47   2.0000      -0.508181       -13.8283
  48   2.0000      -0.500680       -13.6242
  49   2.0000      -0.495682       -13.4882
  50   2.0000      -0.486041       -13.2258
  51   2.0000      -0.476209       -12.9583
  52   2.0000      -0.474035       -12.8992
  53   2.0000      -0.463880       -12.6228
  54   2.0000      -0.456618       -12.4252
  55   2.0000      -0.451091       -12.2748
  56   2.0000      -0.444381       -12.0922
  57   2.0000      -0.435277       -11.8445
  58   2.0000      -0.434308       -11.8181
  59   2.0000      -0.429177       -11.6785
  60   2.0000      -0.422069       -11.4851
  61   2.0000      -0.411764       -11.2047
  62   2.0000      -0.407208       -11.0807
  63   2.0000      -0.351269        -9.5585
  64   2.0000      -0.335826        -9.1383
  65   2.0000      -0.327481        -8.9112
  66   2.0000      -0.287734        -7.8296
  67   0.0000       0.026970         0.7339
  68   0.0000       0.072707         1.9785
  69   0.0000       0.102851         2.7987
  70   0.0000       0.119634         3.2554
  71   0.0000       0.136295         3.7088

MULLIKEN ATOMIC CHARGES
-----------------------
   0 S :    0.129984
   1 C :   -0.121722
   2 C :   -0.074393
   3 C :    0.012077
   4 C :   -0.129587
   5 H :    0.015958
   6 C :    0.008508
   7 H :    0.043367
   8 H :    0.025037
   9 C :   -0.072698
  10 H :    0.033251
  11 H :    0.045281
  12 C :   -0.066491
  13 H :    0.026871
  14 H :    0.048591
  15 H :    0.042222
  16 S :    0.103338
  17 C :   -0.078598
  18 C :   -0.049008
  19 C :   -0.033224
  20 C :   -0.167287
  21 H :    0.026631
  22 C :    0.052855
  23 H :    0.016771
  24 H :    0.019818
  25 C :   -0.030994
  26 H :    0.028645
  27 H :    0.030146
  28 C :   -0.071034
  29 H :    0.021327
  30 H :    0.044781
  31 H :    0.019797
  32 H :    0.043415
  33 H :    0.056367
Sum of atomic charges:   -0.0000000

LOEWDIN ATOMIC CHARGES
----------------------
   0 S :    0.426588
   1 C :   -0.215066
   2 C :   -0.065086
   3 C :   -0.059458
   4 C :   -0.204158
   5 H :    0.029986
   6 C :   -0.045080
   7 H :    0.039811
   8 H :    0.032677
   9 C :   -0.037454
  10 H :    0.016020
  11 H :    0.031162
  12 C :   -0.071208
  13 H :    0.022733
  14 H :    0.034097
  15 H :    0.031155
  16 S :    0.402312
  17 C :   -0.189441
  18 C :   -0.068508
  19 C :   -0.057131
  20 C :   -0.182047
  21 H :    0.036456
  22 C :   -0.044488
  23 H :    0.032652
  24 H :    0.033781
  25 C :   -0.038913
  26 H :    0.026649
  27 H :    0.028482
  28 C :   -0.070052
  29 H :    0.021304
  30 H :    0.025395
  31 H :    0.020783
  32 H :    0.027103
  33 H :    0.028939

  Mayer bond orders larger than 0.100000
B(  0-S ,  1-C ) :   1.1364 B(  0-S ,  4-C ) :   1.1513 B(  1-C ,  2-C ) :   1.6392
B(  1-C , 32-H ) :   0.9585 B(  2-C ,  3-C ) :   1.2316 B(  2-C ,  6-C ) :   1.0182
B(  3-C ,  4-C ) :   1.5803 B(  3-C ,  5-H ) :   0.9943 B(  4-C , 20-C ) :   1.0402
B(  6-C ,  7-H ) :   0.9309 B(  6-C ,  8-H ) :   0.9472 B(  6-C ,  9-C ) :   1.0509
B(  9-C , 10-H ) :   0.9547 B(  9-C , 11-H ) :   0.9596 B(  9-C , 12-C ) :   1.0774
B( 12-C , 13-H ) :   0.9765 B( 12-C , 14-H ) :   0.9763 B( 12-C , 15-H ) :   0.9753
B( 16-S , 17-C ) :   1.1549 B( 16-S , 20-C ) :   1.1505 B( 17-C , 18-C ) :   1.6060
B( 17-C , 20-C ) :   0.1052 B( 17-C , 33-H ) :   0.9626 B( 18-C , 19-C ) :   1.2538
B( 18-C , 21-H ) :   0.9864 B( 19-C , 20-C ) :   1.5687 B( 19-C , 22-C ) :   1.0494
B( 22-C , 23-H ) :   0.9291 B( 22-C , 24-H ) :   0.9272 B( 22-C , 25-C ) :   1.0808
B( 25-C , 26-H ) :   0.9524 B( 25-C , 27-H ) :   0.9509 B( 25-C , 28-C ) :   1.0820
B( 28-C , 29-H ) :   0.9728 B( 28-C , 30-H ) :   0.9722 B( 28-C , 31-H ) :   0.9736

Dispersion correction           -0.014981141
FINAL SINGLE POINT ENERGY     -1339.884256659572

DIPOLE MOMENT
-------------
                                X             Y             Z
Electronic contribution:     23.97131       5.18071      13.46349
Nuclear contribution   :    -24.65127      -5.34254     -13.50798
                        -----------------------------------------
Total Dipole Moment    :     -0.67996      -0.16182      -0.04449
                        -----------------------------------------
Magnitude (a.u.)       :      0.70037
Magnitude (Debye)      :      1.78019

Rotational constants in cm-1:     0.023449     0.007647     0.006509
Rotational constants in MHz :   702.978077   229.242391   195.127958

                             ****ORCA TERMINATED NORMALLY****
TOTAL RUN TIME: 0 days 0 hours 0 minutes 21 seconds 881 msec
