                         Program Version 4.2.1 -  RELEASE  -
|  1> ! wB97X-D3 SP def2-SVP
|  2> %pal
|  3> nprocs 24
|  4> end
|  5>
|  6> * xyz 0 1
|  7> S 	 -30.8432 	 12.0706 	 -0.173968
|  8> C 	 -32.2084 	 11.1652 	 -0.811602
|  9> C 	 -32.7421 	 10.3863 	 0.172446
| 10> C 	 -32.162 	 10.5981 	 1.42667
| 11> C 	 -31.0443 	 11.4117 	 1.47144
| 12> H 	 -32.4161 	 10.0094 	 2.33659
| 13> C 	 -33.8826 	 9.42036 	 -0.0420753
| 14> H 	 -34.0366 	 8.79628 	 0.848296
| 15> H 	 -33.6591 	 8.63991 	 -0.82023
| 16> C 	 -35.2495 	 10.0298 	 -0.33294
| 17> H 	 -35.2673 	 10.5451 	 -1.30524
| 18> H 	 -35.9288 	 9.18961 	 -0.309049
| 19> C 	 -35.6254 	 11.1673 	 0.69991
| 20> H 	 -34.808 	 11.8284 	 1.09109
| 21> H 	 -36.473 	 11.8528 	 0.384166
| 22> H 	 -36.003 	 10.6259 	 1.58128
| 23> S 	 -28.5295 	 11.1998 	 2.41521
| 24> C 	 -28.0997 	 11.8743 	 3.92734
| 25> C 	 -29.192 	 12.5437 	 4.42414
| 26> C 	 -30.4014 	 12.393 	 3.72278
| 27> C 	 -30.1748 	 11.7462 	 2.51835
| 28> H 	 -29.0631 	 13.104 	 5.3553
| 29> C 	 -31.6291 	 13.1037 	 4.19597
| 30> H 	 -32.237 	 13.3043 	 3.30507
| 31> H 	 -31.2975 	 14.071 	 4.64693
| 32> C 	 -32.494 	 12.2842 	 5.16891
| 33> H 	 -31.8171 	 11.9305 	 5.98157
| 34> H 	 -32.8418 	 11.4213 	 4.57705
| 35> C 	 -33.7938 	 12.9961 	 5.63472
| 36> H 	 -34.5015 	 12.4049 	 6.24523
| 37> H 	 -34.4073 	 13.3049 	 4.75298
| 38> H 	 -33.6301 	 14.0276 	 6.13841
| 39> H 	 -32.5617 	 11.1912 	 -1.86185
| 40> H 	 -27.0917 	 12.0453 	 4.38039
| 41> *
| 42>
| 43>                          ****END OF INPUT****

CARTESIAN COORDINATES (ANGSTROEM)
---------------------------------
  S    -30.843200   12.070600   -0.173968
  C    -32.208400   11.165200   -0.811602
  C    -32.742100   10.386300    0.172446
  C    -32.162000   10.598100    1.426670
  C    -31.044300   11.411700    1.471440
  H    -32.416100   10.009400    2.336590
  C    -33.882600    9.420360   -0.042075
  H    -34.036600    8.796280    0.848296
  H    -33.659100    8.639910   -0.820230
  C    -35.249500   10.029800   -0.332940
  H    -35.267300   10.545100   -1.305240
  H    -35.928800    9.189610   -0.309049
  C    -35.625400   11.167300    0.699910
  H    -34.808000   11.828400    1.091090
  H    -36.473000   11.852800    0.384166
  H    -36.003000   10.625900    1.581280
  S    -28.529500   11.199800    2.415210
  C    -28.099700   11.874300    3.927340
  C    -29.192000   12.543700    4.424140
  C    -30.401400   12.393000    3.722780
  C    -30.174800   11.746200    2.518350
  H    -29.063100   13.104000    5.355300
  C    -31.629100   13.103700    4.195970
  H    -32.237000   13.304300    3.305070
  H    -31.297500   14.071000    4.646930
  C    -32.494000   12.284200    5.168910
  H    -31.817100   11.930500    5.981570
  H    -32.841800   11.421300    4.577050
  C    -33.793800   12.996100    5.634720
  H    -34.501500   12.404900    6.245230
  H    -34.407300   13.304900    4.752980
  H    -33.630100   14.027600    6.138410
  H    -32.561700   11.191200   -1.861850
  H    -27.091700   12.045300    4.380390

 Total Charge           Charge          ....    0
 Multiplicity           Mult            ....    1
 Number of Electrons    NEL             ....  134
 Basis Dimension        Dim             ....  322

ORBITAL ENERGIES
----------------

  NO   OCC          E(Eh)            E(eV)
   0   2.0000     -88.966345     -2420.8973
   1   2.0000     -88.965087     -2420.8631
   2   2.0000     -10.328806      -281.0611
   3   2.0000     -10.322844      -280.8989
   4   2.0000     -10.317714      -280.7593
   5   2.0000     -10.316369      -280.7227
   6   2.0000     -10.300366      -280.2872
   7   2.0000     -10.297008      -280.1958
   8   2.0000     -10.296127      -280.1719
   9   2.0000     -10.294981      -280.1407
  10   2.0000     -10.294343      -280.1233
  11   2.0000     -10.293320      -280.0955
  12   2.0000     -10.291690      -280.0511
  13   2.0000     -10.291571      -280.0479
  14   2.0000     -10.288663      -279.9688
  15   2.0000     -10.284741      -279.8620
  16   2.0000      -8.081923      -219.9203
  17   2.0000      -8.079272      -219.8482
  18   2.0000      -6.040370      -164.3668
  19   2.0000      -6.037795      -164.2968
  20   2.0000      -6.036160      -164.2523
  21   2.0000      -6.033720      -164.1859
  22   2.0000      -6.032823      -164.1615
  23   2.0000      -6.030162      -164.0890
  24   2.0000      -1.015309       -27.6280
  25   2.0000      -0.990469       -26.9520
  26   2.0000      -0.911777       -24.8107
  27   2.0000      -0.910132       -24.7660
  28   2.0000      -0.874757       -23.8033
  29   2.0000      -0.850302       -23.1379
  30   2.0000      -0.841056       -22.8863
  31   2.0000      -0.812412       -22.1069
  32   2.0000      -0.781110       -21.2551
  33   2.0000      -0.771780       -21.0012
  34   2.0000      -0.711460       -19.3598
  35   2.0000      -0.699298       -19.0289
  36   2.0000      -0.693003       -18.8576
  37   2.0000      -0.661951       -18.0126
  38   2.0000      -0.639104       -17.3909
  39   2.0000      -0.615227       -16.7412
  40   2.0000      -0.594397       -16.1744
  41   2.0000      -0.578730       -15.7480
  42   2.0000      -0.561813       -15.2877
  43   2.0000      -0.546023       -14.8580
  44   2.0000      -0.538097       -14.6424
  45   2.0000      -0.522583       -14.2202
  46   2.0000      -0.514833       -14.0093
  47   2.0000      -0.511271       -13.9124
  48   2.0000      -0.505307       -13.7501
  49   2.0000      -0.503265       -13.6945
  50   2.0000      -0.495466       -13.4823
  51   2.0000      -0.474661       -12.9162
  52   2.0000      -0.469298       -12.7702
  53   2.0000      -0.463837       -12.6217
  54   2.0000      -0.454791       -12.3755
  55   2.0000      -0.445728       -12.1289
  56   2.0000      -0.442656       -12.0453
  57   2.0000      -0.433733       -11.8025
  58   2.0000      -0.431815       -11.7503
  59   2.0000      -0.425852       -11.5880
  60   2.0000      -0.421062       -11.4577
  61   2.0000      -0.416240       -11.3265
  62   2.0000      -0.407510       -11.0889
  63   2.0000      -0.343307        -9.3419
  64   2.0000      -0.334352        -9.0982
  65   2.0000      -0.330270        -8.9871
  66   2.0000      -0.299801        -8.1580
  67   0.0000       0.029631         0.8063
  68   0.0000       0.061936         1.6854
  69   0.0000       0.115217         3.1352
  70   0.0000       0.121367         3.3026
  71   0.0000       0.132091         3.5944

MULLIKEN ATOMIC CHARGES
-----------------------
   0 S :    0.105109
   1 C :   -0.134818
   2 C :   -0.075925
   3 C :    0.028996
   4 C :   -0.180410
   5 H :    0.028503
   6 C :    0.042126
   7 H :    0.014761
   8 H :    0.044536
   9 C :   -0.052874
  10 H :    0.033053
  11 H :    0.036249
  12 C :   -0.114237
  13 H :    0.061632
  14 H :    0.045751
  15 H :    0.023352
  16 S :    0.128655
  17 C :   -0.095052
  18 C :   -0.070426
  19 C :    0.015391
  20 C :   -0.185892
  21 H :    0.019091
  22 C :    0.044870
  23 H :    0.026947
  24 H :    0.034863
  25 C :   -0.068797
  26 H :    0.038366
  27 H :    0.029317
  28 C :   -0.078325
  29 H :    0.047463
  30 H :    0.029308
  31 H :    0.038808
  32 H :    0.064779
  33 H :    0.074829
Sum of atomic charges:    0.0000000

LOEWDIN ATOMIC CHARGES
----------------------
   0 S :    0.393451
   1 C :   -0.189596
   2 C :   -0.077702
   3 C :   -0.064366
   4 C :   -0.191190
   5 H :    0.036816
   6 C :   -0.037690
   7 H :    0.028474
   8 H :    0.038556
   9 C :   -0.036158
  10 H :    0.020935
  11 H :    0.025576
  12 C :   -0.083573
  13 H :    0.033289
  14 H :    0.031607
  15 H :    0.022271
  16 S :    0.438389
  17 C :   -0.211774
  18 C :   -0.077392
  19 C :   -0.053959
  20 C :   -0.213355
  21 H :    0.030592
  22 C :   -0.031620
  23 H :    0.031138
  24 H :    0.034690
  25 C :   -0.042760
  26 H :    0.026872
  27 H :    0.027274
  28 C :   -0.083162
  29 H :    0.028778
  30 H :    0.028863
  31 H :    0.031484
  32 H :    0.039187
  33 H :    0.046058

  Mayer bond orders larger than 0.100000
B(  0-S ,  1-C ) :   1.1466 B(  0-S ,  4-C ) :   1.1421 B(  1-C ,  2-C ) :   1.5922
B(  1-C ,  4-C ) :   0.1096 B(  1-C , 32-H ) :   0.9676 B(  2-C ,  3-C ) :   1.2665
B(  2-C ,  6-C ) :   1.0185 B(  3-C ,  4-C ) :   1.5685 B(  3-C ,  5-H ) :   0.9839
B(  4-C , 20-C ) :   1.0621 B(  6-C ,  7-H ) :   0.9430 B(  6-C ,  8-H ) :   0.9395
B(  6-C ,  9-C ) :   1.0727 B(  9-C , 10-H ) :   0.9607 B(  9-C , 11-H ) :   0.9611
B(  9-C , 12-C ) :   1.0520 B( 12-C , 13-H ) :   0.9744 B( 12-C , 14-H ) :   0.9782
B( 12-C , 15-H ) :   0.9781 B( 16-S , 17-C ) :   1.1618 B( 16-S , 20-C ) :   1.1642
B( 17-C , 18-C ) :   1.6003 B( 17-C , 20-C ) :   0.1060 B( 17-C , 33-H ) :   0.9584
B( 18-C , 19-C ) :   1.2608 B( 18-C , 21-H ) :   0.9827 B( 19-C , 20-C ) :   1.5531
B( 19-C , 22-C ) :   1.0480 B( 22-C , 23-H ) :   0.9282 B( 22-C , 24-H ) :   0.9406
B( 22-C , 25-C ) :   1.0586 B( 25-C , 26-H ) :   0.9594 B( 25-C , 27-H ) :   0.9504
B( 25-C , 28-C ) :   1.0728 B( 28-C , 29-H ) :   0.9764 B( 28-C , 30-H ) :   0.9701
B( 28-C , 31-H ) :   0.9743

Dispersion correction           -0.014778046
FINAL SINGLE POINT ENERGY     -1339.886362656294

DIPOLE MOMENT
-------------
                                X             Y             Z
Electronic contribution:     28.26914      -0.49775     -10.07598
Nuclear contribution   :    -28.72453       0.43769      10.32967
                        -----------------------------------------
Total Dipole Moment    :     -0.45539      -0.06006       0.25369
                        -----------------------------------------
Magnitude (a.u.)       :      0.52474
Magnitude (Debye)      :      1.33378

Rotational constants in cm-1:     0.017631     0.009769     0.006928
Rotational constants in MHz :   528.557806   292.861353   207.691450

                             ****ORCA TERMINATED NORMALLY****
TOTAL RUN TIME: 0 days 0 hours 0 minutes 22 seconds 103 msec
