                         Program Version 4.2.1 -  RELEASE  -
|  1> ! wB97X-D3 SP def2-SVP
|  2> %pal
|  3> nprocs 24
|  4> end
|  5>
|  6> * xyz 0 1
|  7> S 	 -104.954 	 1.02763 	 -109.134
|  8> C 	 -105.974 	 1.09765 	 -110.58
|  9> C 	 -106.988 	 0.15632 	 -110.425
| 10> C 	 -106.834 	 -0.662813 	 -109.282
| 11> C 	 -105.8 	 -0.361316 	 -108.471
| 12> H 	 -107.603 	 -1.38032 	 -109.077
| 13> C 	 -108.193 	 0.0881668 	 -111.31
| 14> H 	 -108.297 	 1.05232 	 -111.86
| 15> H 	 -109.127 	 0.0267228 	 -110.724
| 16> C 	 -108.169 	 -1.08623 	 -112.234
| 17> H 	 -107.365 	 -1.00518 	 -112.992
| 18> H 	 -107.979 	 -1.95554 	 -111.625
| 19> C 	 -109.569 	 -1.21202 	 -112.829
| 20> H 	 -109.683 	 -2.02902 	 -113.545
| 21> H 	 -110.284 	 -1.3709 	 -111.989
| 22> H 	 -109.807 	 -0.300931 	 -113.398
| 23> S 	 -104.699 	 -2.50932 	 -107.12
| 24> C 	 -105.041 	 -2.65424 	 -105.415
| 25> C 	 -105.871 	 -1.68873 	 -104.949
| 26> C 	 -106.064 	 -0.637059 	 -105.927
| 27> C 	 -105.537 	 -0.956256 	 -107.194
| 28> H 	 -106.132 	 -1.78599 	 -103.924
| 29> C 	 -106.744 	 0.678825 	 -105.574
| 30> H 	 -107.717 	 0.460503 	 -105.239
| 31> H 	 -107 	 1.09385 	 -106.514
| 32> C 	 -105.986 	 1.7307 	 -104.713
| 33> H 	 -105.723 	 1.35796 	 -103.672
| 34> H 	 -106.587 	 2.63429 	 -104.536
| 35> C 	 -104.674 	 2.13626 	 -105.305
| 36> H 	 -104.087 	 1.21984 	 -105.444
| 37> H 	 -104.102 	 2.87438 	 -104.724
| 38> H 	 -104.729 	 2.57412 	 -106.28
| 39> H 	 -106.051 	 1.87059 	 -111.329
| 40> H 	 -104.752 	 -3.61937 	 -104.907
| 41> *
| 42>
| 43>                          ****END OF INPUT****

CARTESIAN COORDINATES (ANGSTROEM)
---------------------------------
  S    -104.954000    1.027630  -109.134000
  C    -105.974000    1.097650  -110.580000
  C    -106.988000    0.156320  -110.425000
  C    -106.834000   -0.662813  -109.282000
  C    -105.800000   -0.361316  -108.471000
  H    -107.603000   -1.380320  -109.077000
  C    -108.193000    0.088167  -111.310000
  H    -108.297000    1.052320  -111.860000
  H    -109.127000    0.026723  -110.724000
  C    -108.169000   -1.086230  -112.234000
  H    -107.365000   -1.005180  -112.992000
  H    -107.979000   -1.955540  -111.625000
  C    -109.569000   -1.212020  -112.829000
  H    -109.683000   -2.029020  -113.545000
  H    -110.284000   -1.370900  -111.989000
  H    -109.807000   -0.300931  -113.398000
  S    -104.699000   -2.509320  -107.120000
  C    -105.041000   -2.654240  -105.415000
  C    -105.871000   -1.688730  -104.949000
  C    -106.064000   -0.637059  -105.927000
  C    -105.537000   -0.956256  -107.194000
  H    -106.132000   -1.785990  -103.924000
  C    -106.744000    0.678825  -105.574000
  H    -107.717000    0.460503  -105.239000
  H    -107.000000    1.093850  -106.514000
  C    -105.986000    1.730700  -104.713000
  H    -105.723000    1.357960  -103.672000
  H    -106.587000    2.634290  -104.536000
  C    -104.674000    2.136260  -105.305000
  H    -104.087000    1.219840  -105.444000
  H    -104.102000    2.874380  -104.724000
  H    -104.729000    2.574120  -106.280000
  H    -106.051000    1.870590  -111.329000
  H    -104.752000   -3.619370  -104.907000

 Total Charge           Charge          ....    0
 Multiplicity           Mult            ....    1
 Number of Electrons    NEL             ....  134
 Basis Dimension        Dim             ....  322

ORBITAL ENERGIES
----------------

  NO   OCC          E(Eh)            E(eV)
   0   2.0000     -88.966306     -2420.8963
   1   2.0000     -88.963272     -2420.8137
   2   2.0000     -10.327877      -281.0358
   3   2.0000     -10.327181      -281.0169
   4   2.0000     -10.319935      -280.8197
   5   2.0000     -10.316024      -280.7133
   6   2.0000     -10.311746      -280.5969
   7   2.0000     -10.296010      -280.1687
   8   2.0000     -10.293075      -280.0888
   9   2.0000     -10.290832      -280.0278
  10   2.0000     -10.289927      -280.0031
  11   2.0000     -10.288608      -279.9673
  12   2.0000     -10.284171      -279.8465
  13   2.0000     -10.283511      -279.8286
  14   2.0000     -10.281542      -279.7750
  15   2.0000     -10.265160      -279.3292
  16   2.0000      -8.080132      -219.8716
  17   2.0000      -8.078271      -219.8209
  18   2.0000      -6.038752      -164.3228
  19   2.0000      -6.036687      -164.2666
  20   2.0000      -6.034667      -164.2116
  21   2.0000      -6.032763      -164.1598
  22   2.0000      -6.030888      -164.1088
  23   2.0000      -6.029079      -164.0596
  24   2.0000      -1.007838       -27.4247
  25   2.0000      -0.984908       -26.8007
  26   2.0000      -0.921963       -25.0879
  27   2.0000      -0.905982       -24.6530
  28   2.0000      -0.875286       -23.8178
  29   2.0000      -0.847544       -23.0628
  30   2.0000      -0.847005       -23.0482
  31   2.0000      -0.818867       -22.2825
  32   2.0000      -0.783019       -21.3070
  33   2.0000      -0.767599       -20.8874
  34   2.0000      -0.710797       -19.3418
  35   2.0000      -0.697450       -18.9786
  36   2.0000      -0.691540       -18.8178
  37   2.0000      -0.654961       -17.8224
  38   2.0000      -0.640767       -17.4362
  39   2.0000      -0.628744       -17.1090
  40   2.0000      -0.595492       -16.2042
  41   2.0000      -0.577418       -15.7123
  42   2.0000      -0.566719       -15.4212
  43   2.0000      -0.555179       -15.1072
  44   2.0000      -0.541621       -14.7383
  45   2.0000      -0.524378       -14.2690
  46   2.0000      -0.518331       -14.1045
  47   2.0000      -0.511047       -13.9063
  48   2.0000      -0.506530       -13.7834
  49   2.0000      -0.496031       -13.4977
  50   2.0000      -0.489742       -13.3265
  51   2.0000      -0.477149       -12.9839
  52   2.0000      -0.463975       -12.6254
  53   2.0000      -0.459882       -12.5140
  54   2.0000      -0.458013       -12.4632
  55   2.0000      -0.447561       -12.1788
  56   2.0000      -0.441034       -12.0011
  57   2.0000      -0.439446       -11.9579
  58   2.0000      -0.438159       -11.9229
  59   2.0000      -0.424099       -11.5403
  60   2.0000      -0.420235       -11.4352
  61   2.0000      -0.415346       -11.3021
  62   2.0000      -0.407739       -11.0951
  63   2.0000      -0.336839        -9.1658
  64   2.0000      -0.332533        -9.0487
  65   2.0000      -0.320419        -8.7190
  66   2.0000      -0.312148        -8.4940
  67   0.0000       0.042404         1.1539
  68   0.0000       0.051518         1.4019
  69   0.0000       0.109118         2.9692
  70   0.0000       0.122698         3.3388
  71   0.0000       0.125197         3.4068

MULLIKEN ATOMIC CHARGES
-----------------------
   0 S :    0.108636
   1 C :   -0.104282
   2 C :   -0.104638
   3 C :    0.064926
   4 C :   -0.158268
   5 H :    0.003160
   6 C :    0.025405
   7 H :    0.019398
   8 H :    0.024578
   9 C :   -0.058236
  10 H :    0.036242
  11 H :    0.023968
  12 C :   -0.051125
  13 H :    0.034017
  14 H :    0.035697
  15 H :    0.030822
  16 S :    0.103948
  17 C :   -0.123707
  18 C :   -0.007120
  19 C :   -0.064870
  20 C :   -0.164342
  21 H :    0.016255
  22 C :    0.137543
  23 H :    0.008753
  24 H :    0.003160
  25 C :   -0.058316
  26 H :    0.032411
  27 H :    0.032628
  28 C :   -0.062030
  29 H :    0.040096
  30 H :    0.032965
  31 H :    0.016797
  32 H :    0.045214
  33 H :    0.080313
Sum of atomic charges:   -0.0000000

LOEWDIN ATOMIC CHARGES
----------------------
   0 S :    0.402739
   1 C :   -0.193172
   2 C :   -0.064250
   3 C :   -0.055374
   4 C :   -0.199200
   5 H :    0.029609
   6 C :   -0.036959
   7 H :    0.029985
   8 H :    0.031526
   9 C :   -0.040795
  10 H :    0.028081
  11 H :    0.022069
  12 C :   -0.066343
  13 H :    0.023268
  14 H :    0.028574
  15 H :    0.025625
  16 S :    0.400046
  17 C :   -0.184951
  18 C :   -0.074160
  19 C :   -0.039775
  20 C :   -0.203338
  21 H :    0.032290
  22 C :   -0.030346
  23 H :    0.027285
  24 H :    0.026698
  25 C :   -0.040548
  26 H :    0.028212
  27 H :    0.026387
  28 C :   -0.072311
  29 H :    0.028333
  30 H :    0.027477
  31 H :    0.014661
  32 H :    0.029700
  33 H :    0.038957

  Mayer bond orders larger than 0.100000
B(  0-S ,  1-C ) :   1.1353 B(  0-S ,  4-C ) :   1.1381 B(  1-C ,  2-C ) :   1.6095
B(  1-C , 32-H ) :   0.9663 B(  2-C ,  3-C ) :   1.2583 B(  2-C ,  6-C ) :   1.0266
B(  3-C ,  4-C ) :   1.5799 B(  3-C ,  5-H ) :   0.9982 B(  4-C , 20-C ) :   1.0277
B(  6-C ,  7-H ) :   0.9378 B(  6-C ,  8-H ) :   0.9450 B(  6-C ,  9-C ) :   1.0595
B(  9-C , 10-H ) :   0.9504 B(  9-C , 11-H ) :   0.9574 B(  9-C , 12-C ) :   1.0797
B( 12-C , 13-H ) :   0.9740 B( 12-C , 14-H ) :   0.9737 B( 12-C , 15-H ) :   0.9729
B( 16-S , 17-C ) :   1.1604 B( 16-S , 20-C ) :   1.1406 B( 17-C , 18-C ) :   1.6294
B( 17-C , 33-H ) :   0.9556 B( 18-C , 19-C ) :   1.2073 B( 18-C , 21-H ) :   0.9995
B( 19-C , 20-C ) :   1.5951 B( 19-C , 22-C ) :   1.0445 B( 22-C , 23-H ) :   0.9261
B( 22-C , 24-H ) :   0.9216 B( 22-C , 25-C ) :   1.0591 B( 25-C , 26-H ) :   0.9580
B( 25-C , 27-H ) :   0.9544 B( 25-C , 28-C ) :   1.0770 B( 28-C , 29-H ) :   0.9732
B( 28-C , 30-H ) :   0.9717 B( 28-C , 31-H ) :   0.9716

Dispersion correction           -0.014968373
FINAL SINGLE POINT ENERGY     -1339.883570903493

DIPOLE MOMENT
-------------
                                X             Y             Z
Electronic contribution:     14.98708      -7.42631       4.50420
Nuclear contribution   :    -15.67599       7.45099      -4.43420
                        -----------------------------------------
Total Dipole Moment    :     -0.68891       0.02468       0.07000
                        -----------------------------------------
Magnitude (a.u.)       :      0.69289
Magnitude (Debye)      :      1.76120

Rotational constants in cm-1:     0.021227     0.007898     0.006897
Rotational constants in MHz :   636.371117   236.776478   206.776681

                             ****ORCA TERMINATED NORMALLY****
TOTAL RUN TIME: 0 days 0 hours 0 minutes 20 seconds 717 msec
