                         Program Version 4.2.1 -  RELEASE  -
|  1> ! wB97X-D3 SP def2-SVP
|  2> %pal
|  3> nprocs 24
|  4> end
|  5>
|  6> * xyz 0 1
|  7> S 	 -46.5709 	 9.79165 	 -21.9261
|  8> C 	 -47.3538 	 8.83854 	 -20.6441
|  9> C 	 -48.3796 	 9.46117 	 -19.9229
| 10> C 	 -48.4539 	 10.838 	 -20.397
| 11> C 	 -47.4955 	 11.1522 	 -21.3869
| 12> H 	 -49.0894 	 11.6374 	 -20.1506
| 13> C 	 -49.1751 	 8.87077 	 -18.8026
| 14> H 	 -48.9521 	 7.79596 	 -18.7593
| 15> H 	 -50.2516 	 9.06231 	 -18.9695
| 16> C 	 -48.971 	 9.62762 	 -17.4638
| 17> H 	 -49.002 	 10.7058 	 -17.5478
| 18> H 	 -49.7046 	 9.49495 	 -16.722
| 19> C 	 -47.6732 	 9.27558 	 -16.7798
| 20> H 	 -47.4854 	 8.18413 	 -17.0063
| 21> H 	 -46.8619 	 9.88569 	 -17.1943
| 22> H 	 -47.7137 	 9.3039 	 -15.6877
| 23> S 	 -47.8431 	 12.8884 	 -23.4917
| 24> C 	 -47.3654 	 14.6007 	 -23.3805
| 25> C 	 -46.822 	 14.8285 	 -22.0586
| 26> C 	 -46.6052 	 13.6375 	 -21.3296
| 27> C 	 -47.2569 	 12.5096 	 -21.9227
| 28> H 	 -46.5536 	 15.817 	 -21.7565
| 29> C 	 -46.0483 	 13.6267 	 -19.9098
| 30> H 	 -44.9249 	 13.6782 	 -20.0672
| 31> H 	 -46.1574 	 12.6927 	 -19.4258
| 32> C 	 -46.4333 	 14.7284 	 -18.9163
| 33> H 	 -47.4914 	 14.7497 	 -18.8364
| 34> H 	 -46.0635 	 15.6972 	 -19.2595
| 35> C 	 -45.85 	 14.3753 	 -17.5423
| 36> H 	 -46.3161 	 13.5325 	 -17.0537
| 37> H 	 -46.0263 	 15.0217 	 -16.7085
| 38> H 	 -44.8132 	 14.1695 	 -17.5949
| 39> H 	 -47.0812 	 7.81314 	 -20.3805
| 40> H 	 -47.3374 	 15.24 	 -24.2046
| 41> *
| 42>
| 43>                          ****END OF INPUT****

CARTESIAN COORDINATES (ANGSTROEM)
---------------------------------
  S    -46.570900    9.791650  -21.926100
  C    -47.353800    8.838540  -20.644100
  C    -48.379600    9.461170  -19.922900
  C    -48.453900   10.838000  -20.397000
  C    -47.495500   11.152200  -21.386900
  H    -49.089400   11.637400  -20.150600
  C    -49.175100    8.870770  -18.802600
  H    -48.952100    7.795960  -18.759300
  H    -50.251600    9.062310  -18.969500
  C    -48.971000    9.627620  -17.463800
  H    -49.002000   10.705800  -17.547800
  H    -49.704600    9.494950  -16.722000
  C    -47.673200    9.275580  -16.779800
  H    -47.485400    8.184130  -17.006300
  H    -46.861900    9.885690  -17.194300
  H    -47.713700    9.303900  -15.687700
  S    -47.843100   12.888400  -23.491700
  C    -47.365400   14.600700  -23.380500
  C    -46.822000   14.828500  -22.058600
  C    -46.605200   13.637500  -21.329600
  C    -47.256900   12.509600  -21.922700
  H    -46.553600   15.817000  -21.756500
  C    -46.048300   13.626700  -19.909800
  H    -44.924900   13.678200  -20.067200
  H    -46.157400   12.692700  -19.425800
  C    -46.433300   14.728400  -18.916300
  H    -47.491400   14.749700  -18.836400
  H    -46.063500   15.697200  -19.259500
  C    -45.850000   14.375300  -17.542300
  H    -46.316100   13.532500  -17.053700
  H    -46.026300   15.021700  -16.708500
  H    -44.813200   14.169500  -17.594900
  H    -47.081200    7.813140  -20.380500
  H    -47.337400   15.240000  -24.204600

 Total Charge           Charge          ....    0
 Multiplicity           Mult            ....    1
 Number of Electrons    NEL             ....  134
 Basis Dimension        Dim             ....  322

ORBITAL ENERGIES
----------------

  NO   OCC          E(Eh)            E(eV)
   0   2.0000     -88.971741     -2421.0442
   1   2.0000     -88.966829     -2420.9105
   2   2.0000     -10.329682      -281.0849
   3   2.0000     -10.326706      -281.0040
   4   2.0000     -10.321283      -280.8564
   5   2.0000     -10.318488      -280.7803
   6   2.0000     -10.309531      -280.5366
   7   2.0000     -10.306875      -280.4643
   8   2.0000     -10.302460      -280.3442
   9   2.0000     -10.299749      -280.2704
  10   2.0000     -10.297317      -280.2043
  11   2.0000     -10.288569      -279.9662
  12   2.0000     -10.286905      -279.9209
  13   2.0000     -10.281938      -279.7857
  14   2.0000     -10.277169      -279.6560
  15   2.0000     -10.271348      -279.4976
  16   2.0000      -8.086049      -220.0326
  17   2.0000      -8.081241      -219.9017
  18   2.0000      -6.044470      -164.4784
  19   2.0000      -6.040761      -164.3775
  20   2.0000      -6.039520      -164.3437
  21   2.0000      -6.036781      -164.2692
  22   2.0000      -6.035510      -164.2346
  23   2.0000      -6.032563      -164.1544
  24   2.0000      -0.999988       -27.2110
  25   2.0000      -0.976832       -26.5809
  26   2.0000      -0.917273       -24.9603
  27   2.0000      -0.909129       -24.7387
  28   2.0000      -0.864054       -23.5121
  29   2.0000      -0.850020       -23.1302
  30   2.0000      -0.847477       -23.0610
  31   2.0000      -0.809472       -22.0268
  32   2.0000      -0.783223       -21.3126
  33   2.0000      -0.770783       -20.9741
  34   2.0000      -0.710965       -19.3464
  35   2.0000      -0.705510       -19.1979
  36   2.0000      -0.690722       -18.7955
  37   2.0000      -0.657313       -17.8864
  38   2.0000      -0.644419       -17.5355
  39   2.0000      -0.616156       -16.7664
  40   2.0000      -0.598051       -16.2738
  41   2.0000      -0.570494       -15.5239
  42   2.0000      -0.568520       -15.4702
  43   2.0000      -0.553215       -15.0537
  44   2.0000      -0.546193       -14.8627
  45   2.0000      -0.523328       -14.2405
  46   2.0000      -0.520684       -14.1685
  47   2.0000      -0.516717       -14.0606
  48   2.0000      -0.505519       -13.7559
  49   2.0000      -0.486377       -13.2350
  50   2.0000      -0.481660       -13.1066
  51   2.0000      -0.477228       -12.9860
  52   2.0000      -0.467820       -12.7300
  53   2.0000      -0.463015       -12.5993
  54   2.0000      -0.459306       -12.4984
  55   2.0000      -0.449695       -12.2368
  56   2.0000      -0.446503       -12.1500
  57   2.0000      -0.433932       -11.8079
  58   2.0000      -0.433623       -11.7995
  59   2.0000      -0.432123       -11.7587
  60   2.0000      -0.427991       -11.6462
  61   2.0000      -0.418660       -11.3923
  62   2.0000      -0.413899       -11.2628
  63   2.0000      -0.334804        -9.1105
  64   2.0000      -0.330102        -8.9825
  65   2.0000      -0.316958        -8.6249
  66   2.0000      -0.300579        -8.1792
  67   0.0000       0.037433         1.0186
  68   0.0000       0.051867         1.4114
  69   0.0000       0.108571         2.9544
  70   0.0000       0.118201         3.2164
  71   0.0000       0.121359         3.3023

MULLIKEN ATOMIC CHARGES
-----------------------
   0 S :    0.138199
   1 C :   -0.124462
   2 C :   -0.074010
   3 C :    0.060665
   4 C :   -0.190453
   5 H :   -0.004414
   6 C :    0.085149
   7 H :    0.033828
   8 H :    0.043003
   9 C :   -0.064921
  10 H :    0.023009
  11 H :    0.011217
  12 C :   -0.073297
  13 H :    0.019784
  14 H :    0.048634
  15 H :    0.035219
  16 S :    0.117803
  17 C :   -0.097558
  18 C :   -0.037307
  19 C :    0.011912
  20 C :   -0.194613
  21 H :    0.017051
  22 C :    0.024298
  23 H :    0.036448
  24 H :    0.015867
  25 C :   -0.024779
  26 H :    0.025080
  27 H :    0.031638
  28 C :   -0.038967
  29 H :    0.015750
  30 H :    0.018750
  31 H :    0.022560
  32 H :    0.040737
  33 H :    0.048182
Sum of atomic charges:   -0.0000000

LOEWDIN ATOMIC CHARGES
----------------------
   0 S :    0.409620
   1 C :   -0.192348
   2 C :   -0.057476
   3 C :   -0.047880
   4 C :   -0.208038
   5 H :    0.023098
   6 C :   -0.026720
   7 H :    0.033591
   8 H :    0.042935
   9 C :   -0.045440
  10 H :    0.024692
  11 H :    0.017716
  12 C :   -0.069130
  13 H :    0.026045
  14 H :    0.027218
  15 H :    0.025077
  16 S :    0.424118
  17 C :   -0.178778
  18 C :   -0.061829
  19 C :   -0.055437
  20 C :   -0.224091
  21 H :    0.026083
  22 C :   -0.035276
  23 H :    0.040472
  24 H :    0.022985
  25 C :   -0.029988
  26 H :    0.020804
  27 H :    0.022984
  28 C :   -0.067811
  29 H :    0.026699
  30 H :    0.025005
  31 H :    0.020599
  32 H :    0.024257
  33 H :    0.016244

  Mayer bond orders larger than 0.100000
B(  0-S ,  1-C ) :   1.1367 B(  0-S ,  4-C ) :   1.1514 B(  1-C ,  2-C ) :   1.6329
B(  1-C , 32-H ) :   0.9591 B(  2-C ,  3-C ) :   1.1894 B(  2-C ,  6-C ) :   1.0414
B(  3-C ,  4-C ) :   1.6043 B(  3-C ,  5-H ) :   0.9973 B(  4-C , 20-C ) :   1.0107
B(  6-C ,  7-H ) :   0.9447 B(  6-C ,  8-H ) :   0.9294 B(  6-C ,  9-C ) :   1.0614
B(  9-C , 10-H ) :   0.9548 B(  9-C , 11-H ) :   0.9577 B(  9-C , 12-C ) :   1.0674
B( 12-C , 13-H ) :   0.9758 B( 12-C , 14-H ) :   0.9783 B( 12-C , 15-H ) :   0.9775
B( 16-S , 17-C ) :   1.1806 B( 16-S , 20-C ) :   1.1865 B( 17-C , 18-C ) :   1.5256
B( 17-C , 20-C ) :   0.1250 B( 17-C , 33-H ) :   0.9801 B( 18-C , 19-C ) :   1.3058
B( 18-C , 21-H ) :   0.9917 B( 19-C , 20-C ) :   1.5132 B( 19-C , 22-C ) :   1.0404
B( 22-C , 23-H ) :   0.9197 B( 22-C , 24-H ) :   0.9470 B( 22-C , 25-C ) :   1.0659
B( 25-C , 26-H ) :   0.9585 B( 25-C , 27-H ) :   0.9472 B( 25-C , 28-C ) :   1.0851
B( 28-C , 29-H ) :   0.9690 B( 28-C , 30-H ) :   0.9697 B( 28-C , 31-H ) :   0.9759

Dispersion correction           -0.014639273
FINAL SINGLE POINT ENERGY     -1339.859104815240

DIPOLE MOMENT
-------------
                                X             Y             Z
Electronic contribution:     -0.69493      -2.73646     -31.22906
Nuclear contribution   :      0.58199       2.87591      31.93576
                        -----------------------------------------
Total Dipole Moment    :     -0.11294       0.13945       0.70670
                        -----------------------------------------
Magnitude (a.u.)       :      0.72913
Magnitude (Debye)      :      1.85329

Rotational constants in cm-1:     0.016658     0.009918     0.007045
Rotational constants in MHz :   499.395986   297.339651   211.213652

                             ****ORCA TERMINATED NORMALLY****
TOTAL RUN TIME: 0 days 0 hours 0 minutes 22 seconds 74 msec
