                         Program Version 4.2.1 -  RELEASE  -
|  1> ! wB97X-D3 SP def2-SVP
|  2> %pal
|  3> nprocs 24
|  4> end
|  5>
|  6> * xyz 0 1
|  7> S 	 -47.4643 	 -1.07236 	 12.3447
|  8> C 	 -47.5203 	 0.35349 	 13.3389
|  9> C 	 -47.1698 	 0.0472157 	 14.6323
| 10> C 	 -46.9747 	 -1.35252 	 14.7958
| 11> C 	 -47.1321 	 -2.12113 	 13.6446
| 12> H 	 -46.7749 	 -1.83497 	 15.8064
| 13> C 	 -47.1271 	 1.01819 	 15.8293
| 14> H 	 -46.9142 	 2.02113 	 15.3572
| 15> H 	 -46.2857 	 0.782605 	 16.4735
| 16> C 	 -48.4271 	 0.989208 	 16.6341
| 17> H 	 -49.411 	 0.939708 	 16.03
| 18> H 	 -48.3584 	 0.109799 	 17.2524
| 19> C 	 -48.5237 	 2.05609 	 17.6422
| 20> H 	 -47.7236 	 2.00136 	 18.3672
| 21> H 	 -48.2631 	 3.01198 	 17.1968
| 22> H 	 -49.3493 	 1.98616 	 18.3262
| 23> S 	 -45.8445 	 -3.83561 	 12.0697
| 24> C 	 -45.5382 	 -5.54754 	 12.3977
| 25> C 	 -46.0295 	 -5.83556 	 13.6326
| 26> C 	 -46.6426 	 -4.67872 	 14.2775
| 27> C 	 -46.7261 	 -3.56366 	 13.4829
| 28> H 	 -45.9549 	 -6.858 	 13.9233
| 29> C 	 -47.234 	 -4.83695 	 15.6209
| 30> H 	 -46.777 	 -4.08909 	 16.237
| 31> H 	 -46.947 	 -5.8005 	 15.9371
| 32> C 	 -48.7671 	 -4.65162 	 15.6525
| 33> H 	 -49.314 	 -5.33366 	 14.9906
| 34> H 	 -49.0209 	 -3.63501 	 15.2892
| 35> C 	 -49.3252 	 -4.78891 	 17.0851
| 36> H 	 -48.7649 	 -4.16062 	 17.6988
| 37> H 	 -49.336 	 -5.79063 	 17.4838
| 38> H 	 -50.3702 	 -4.53497 	 17.0507
| 39> H 	 -47.7568 	 1.4223 	 13.08
| 40> H 	 -44.9944 	 -6.26671 	 11.7996
| 41> *
| 42>
| 43>                          ****END OF INPUT****

CARTESIAN COORDINATES (ANGSTROEM)
---------------------------------
  S    -47.464300   -1.072360   12.344700
  C    -47.520300    0.353490   13.338900
  C    -47.169800    0.047216   14.632300
  C    -46.974700   -1.352520   14.795800
  C    -47.132100   -2.121130   13.644600
  H    -46.774900   -1.834970   15.806400
  C    -47.127100    1.018190   15.829300
  H    -46.914200    2.021130   15.357200
  H    -46.285700    0.782605   16.473500
  C    -48.427100    0.989208   16.634100
  H    -49.411000    0.939708   16.030000
  H    -48.358400    0.109799   17.252400
  C    -48.523700    2.056090   17.642200
  H    -47.723600    2.001360   18.367200
  H    -48.263100    3.011980   17.196800
  H    -49.349300    1.986160   18.326200
  S    -45.844500   -3.835610   12.069700
  C    -45.538200   -5.547540   12.397700
  C    -46.029500   -5.835560   13.632600
  C    -46.642600   -4.678720   14.277500
  C    -46.726100   -3.563660   13.482900
  H    -45.954900   -6.858000   13.923300
  C    -47.234000   -4.836950   15.620900
  H    -46.777000   -4.089090   16.237000
  H    -46.947000   -5.800500   15.937100
  C    -48.767100   -4.651620   15.652500
  H    -49.314000   -5.333660   14.990600
  H    -49.020900   -3.635010   15.289200
  C    -49.325200   -4.788910   17.085100
  H    -48.764900   -4.160620   17.698800
  H    -49.336000   -5.790630   17.483800
  H    -50.370200   -4.534970   17.050700
  H    -47.756800    1.422300   13.080000
  H    -44.994400   -6.266710   11.799600

 Total Charge           Charge          ....    0
 Multiplicity           Mult            ....    1
 Number of Electrons    NEL             ....  134
 Basis Dimension        Dim             ....  322

ORBITAL ENERGIES
----------------

  NO   OCC          E(Eh)            E(eV)
   0   2.0000     -88.971836     -2421.0467
   1   2.0000     -88.958382     -2420.6806
   2   2.0000     -10.335256      -281.2366
   3   2.0000     -10.326617      -281.0015
   4   2.0000     -10.318425      -280.7786
   5   2.0000     -10.313806      -280.6529
   6   2.0000     -10.301780      -280.3257
   7   2.0000     -10.301309      -280.3129
   8   2.0000     -10.298836      -280.2456
   9   2.0000     -10.298527      -280.2372
  10   2.0000     -10.291442      -280.0444
  11   2.0000     -10.288980      -279.9774
  12   2.0000     -10.284421      -279.8533
  13   2.0000     -10.280710      -279.7524
  14   2.0000     -10.271788      -279.5096
  15   2.0000     -10.267459      -279.3918
  16   2.0000      -8.087004      -220.0586
  17   2.0000      -8.074350      -219.7142
  18   2.0000      -6.045572      -164.5084
  19   2.0000      -6.041309      -164.3924
  20   2.0000      -6.037783      -164.2964
  21   2.0000      -6.032976      -164.1656
  22   2.0000      -6.028510      -164.0441
  23   2.0000      -6.025041      -163.9497
  24   2.0000      -1.015866       -27.6431
  25   2.0000      -0.992547       -27.0086
  26   2.0000      -0.920110       -25.0375
  27   2.0000      -0.909987       -24.7620
  28   2.0000      -0.876634       -23.8544
  29   2.0000      -0.852423       -23.1956
  30   2.0000      -0.847541       -23.0628
  31   2.0000      -0.820312       -22.3218
  32   2.0000      -0.783235       -21.3129
  33   2.0000      -0.770829       -20.9753
  34   2.0000      -0.707735       -19.2585
  35   2.0000      -0.698956       -19.0196
  36   2.0000      -0.690559       -18.7911
  37   2.0000      -0.667614       -18.1667
  38   2.0000      -0.633514       -17.2388
  39   2.0000      -0.622586       -16.9414
  40   2.0000      -0.591722       -16.1016
  41   2.0000      -0.577265       -15.7082
  42   2.0000      -0.569664       -15.5014
  43   2.0000      -0.563056       -15.3215
  44   2.0000      -0.536499       -14.5989
  45   2.0000      -0.530039       -14.4231
  46   2.0000      -0.521513       -14.1911
  47   2.0000      -0.513531       -13.9739
  48   2.0000      -0.508620       -13.8402
  49   2.0000      -0.500887       -13.6298
  50   2.0000      -0.494997       -13.4696
  51   2.0000      -0.486222       -13.2308
  52   2.0000      -0.474474       -12.9111
  53   2.0000      -0.464574       -12.6417
  54   2.0000      -0.457872       -12.4593
  55   2.0000      -0.446151       -12.1404
  56   2.0000      -0.441476       -12.0132
  57   2.0000      -0.439669       -11.9640
  58   2.0000      -0.435693       -11.8558
  59   2.0000      -0.426911       -11.6169
  60   2.0000      -0.415019       -11.2932
  61   2.0000      -0.410166       -11.1612
  62   2.0000      -0.409114       -11.1326
  63   2.0000      -0.358791        -9.7632
  64   2.0000      -0.333650        -9.0791
  65   2.0000      -0.322805        -8.7840
  66   2.0000      -0.292652        -7.9635
  67   0.0000       0.030413         0.8276
  68   0.0000       0.082266         2.2386
  69   0.0000       0.111654         3.0383
  70   0.0000       0.120344         3.2747
  71   0.0000       0.134574         3.6619

MULLIKEN ATOMIC CHARGES
-----------------------
   0 S :    0.123642
   1 C :   -0.128933
   2 C :   -0.105726
   3 C :   -0.008223
   4 C :   -0.118308
   5 H :    0.026953
   6 C :    0.049798
   7 H :    0.026069
   8 H :    0.031375
   9 C :   -0.075027
  10 H :    0.053540
  11 H :    0.017206
  12 C :    0.001369
  13 H :   -0.002950
  14 H :    0.016254
  15 H :    0.033955
  16 S :    0.078541
  17 C :   -0.088135
  18 C :   -0.030262
  19 C :   -0.095422
  20 C :   -0.094269
  21 H :    0.012978
  22 C :    0.125608
  23 H :    0.013776
  24 H :   -0.003905
  25 C :   -0.102742
  26 H :    0.029074
  27 H :    0.037641
  28 C :   -0.003573
  29 H :    0.011189
  30 H :    0.024751
  31 H :    0.027018
  32 H :    0.063235
  33 H :    0.053504
Sum of atomic charges:    0.0000000

LOEWDIN ATOMIC CHARGES
----------------------
   0 S :    0.439486
   1 C :   -0.214689
   2 C :   -0.067460
   3 C :   -0.076090
   4 C :   -0.213305
   5 H :    0.035959
   6 C :   -0.026563
   7 H :    0.030843
   8 H :    0.032431
   9 C :   -0.048701
  10 H :    0.036893
  11 H :    0.023847
  12 C :   -0.070403
  13 H :    0.022116
  14 H :    0.022578
  15 H :    0.028354
  16 S :    0.416352
  17 C :   -0.180970
  18 C :   -0.069839
  19 C :   -0.064825
  20 C :   -0.205379
  21 H :    0.030381
  22 C :   -0.027972
  23 H :    0.025571
  24 H :    0.022404
  25 C :   -0.033951
  26 H :    0.023841
  27 H :    0.027126
  28 C :   -0.057731
  29 H :    0.013409
  30 H :    0.022201
  31 H :    0.026569
  32 H :    0.044936
  33 H :    0.032585

  Mayer bond orders larger than 0.100000
B(  0-S ,  1-C ) :   1.1439 B(  0-S ,  4-C ) :   1.1763 B(  1-C ,  2-C ) :   1.6017
B(  1-C , 32-H ) :   0.9584 B(  2-C ,  3-C ) :   1.2906 B(  2-C ,  6-C ) :   1.0215
B(  3-C ,  4-C ) :   1.5320 B(  3-C ,  5-H ) :   0.9778 B(  4-C , 20-C ) :   1.0104
B(  6-C ,  7-H ) :   0.9446 B(  6-C ,  8-H ) :   0.9369 B(  6-C ,  9-C ) :   1.0604
B(  9-C , 10-H ) :   0.9582 B(  9-C , 11-H ) :   0.9473 B(  9-C , 12-C ) :   1.0994
B( 12-C , 13-H ) :   0.9601 B( 12-C , 14-H ) :   0.9702 B( 12-C , 15-H ) :   0.9691
B( 16-S , 17-C ) :   1.1463 B( 16-S , 20-C ) :   1.1481 B( 17-C , 18-C ) :   1.6328
B( 17-C , 33-H ) :   0.9674 B( 18-C , 19-C ) :   1.2223 B( 18-C , 21-H ) :   0.9962
B( 19-C , 20-C ) :   1.6037 B( 19-C , 22-C ) :   1.0607 B( 22-C , 23-H ) :   0.9164
B( 22-C , 24-H ) :   0.9273 B( 22-C , 25-C ) :   1.0742 B( 25-C , 26-H ) :   0.9568
B( 25-C , 27-H ) :   0.9528 B( 25-C , 28-C ) :   1.0857 B( 28-C , 29-H ) :   0.9739
B( 28-C , 30-H ) :   0.9759 B( 28-C , 31-H ) :   0.9724

Dispersion correction           -0.014012619
FINAL SINGLE POINT ENERGY     -1339.866065046145

DIPOLE MOMENT
-------------
                                X             Y             Z
Electronic contribution:     11.53108      -5.93534     -28.47704
Nuclear contribution   :    -11.56455       5.92252      29.20159
                        -----------------------------------------
Total Dipole Moment    :     -0.03347      -0.01282       0.72454
                        -----------------------------------------
Magnitude (a.u.)       :      0.72543
Magnitude (Debye)      :      1.84390

Rotational constants in cm-1:     0.018857     0.008891     0.006541
Rotational constants in MHz :   565.320488   266.533900   196.084842

                             ****ORCA TERMINATED NORMALLY****
TOTAL RUN TIME: 0 days 0 hours 0 minutes 21 seconds 834 msec
