                         Program Version 4.2.1 -  RELEASE  -
|  1> ! wB97X-D3 SP def2-SVP
|  2> %pal
|  3> nprocs 24
|  4> end
|  5>
|  6> * xyz 0 1
|  7> S 	 -105.052 	 -0.840415 	 -113.749
|  8> C 	 -106.071 	 0.581401 	 -113.981
|  9> C 	 -107.076 	 0.669099 	 -113.021
| 10> C 	 -107.129 	 -0.523136 	 -112.181
| 11> C 	 -106.217 	 -1.46348 	 -112.599
| 12> H 	 -107.796 	 -0.680884 	 -111.332
| 13> C 	 -108.103 	 1.76753 	 -112.789
| 14> H 	 -107.764 	 2.64782 	 -113.354
| 15> H 	 -108.195 	 2.02515 	 -111.761
| 16> C 	 -109.589 	 1.34149 	 -113.206
| 17> H 	 -109.626 	 1.36453 	 -114.279
| 18> H 	 -109.758 	 0.344911 	 -112.859
| 19> C 	 -110.608 	 2.41464 	 -112.742
| 20> H 	 -110.583 	 2.42121 	 -111.62
| 21> H 	 -110.373 	 3.39137 	 -113.234
| 22> H 	 -111.692 	 2.29362 	 -113.067
| 23> S 	 -106.295 	 -4.23965 	 -113.178
| 24> C 	 -106.008 	 -5.37896 	 -111.844
| 25> C 	 -105.677 	 -4.71756 	 -110.657
| 26> C 	 -105.641 	 -3.26149 	 -110.821
| 27> C 	 -106.023 	 -2.8211 	 -112.086
| 28> H 	 -105.498 	 -5.4377 	 -109.898
| 29> C 	 -105.372 	 -2.3884 	 -109.659
| 30> H 	 -105.748 	 -2.96149 	 -108.843
| 31> H 	 -105.805 	 -1.41774 	 -109.827
| 32> C 	 -103.825 	 -2.24679 	 -109.307
| 33> H 	 -103.272 	 -3.1229 	 -108.965
| 34> H 	 -103.792 	 -1.53412 	 -108.442
| 35> C 	 -102.972 	 -1.71438 	 -110.475
| 36> H 	 -103.045 	 -2.39408 	 -111.34
| 37> H 	 -101.963 	 -1.65617 	 -110.217
| 38> H 	 -103.255 	 -0.688049 	 -110.692
| 39> H 	 -106.028 	 1.34019 	 -114.751
| 40> H 	 -106.068 	 -6.43495 	 -111.957
| 41> *
| 42>
| 43>                          ****END OF INPUT****

CARTESIAN COORDINATES (ANGSTROEM)
---------------------------------
  S    -105.052000   -0.840415  -113.749000
  C    -106.071000    0.581401  -113.981000
  C    -107.076000    0.669099  -113.021000
  C    -107.129000   -0.523136  -112.181000
  C    -106.217000   -1.463480  -112.599000
  H    -107.796000   -0.680884  -111.332000
  C    -108.103000    1.767530  -112.789000
  H    -107.764000    2.647820  -113.354000
  H    -108.195000    2.025150  -111.761000
  C    -109.589000    1.341490  -113.206000
  H    -109.626000    1.364530  -114.279000
  H    -109.758000    0.344911  -112.859000
  C    -110.608000    2.414640  -112.742000
  H    -110.583000    2.421210  -111.620000
  H    -110.373000    3.391370  -113.234000
  H    -111.692000    2.293620  -113.067000
  S    -106.295000   -4.239650  -113.178000
  C    -106.008000   -5.378960  -111.844000
  C    -105.677000   -4.717560  -110.657000
  C    -105.641000   -3.261490  -110.821000
  C    -106.023000   -2.821100  -112.086000
  H    -105.498000   -5.437700  -109.898000
  C    -105.372000   -2.388400  -109.659000
  H    -105.748000   -2.961490  -108.843000
  H    -105.805000   -1.417740  -109.827000
  C    -103.825000   -2.246790  -109.307000
  H    -103.272000   -3.122900  -108.965000
  H    -103.792000   -1.534120  -108.442000
  C    -102.972000   -1.714380  -110.475000
  H    -103.045000   -2.394080  -111.340000
  H    -101.963000   -1.656170  -110.217000
  H    -103.255000   -0.688049  -110.692000
  H    -106.028000    1.340190  -114.751000
  H    -106.068000   -6.434950  -111.957000

 Total Charge           Charge          ....    0
 Multiplicity           Mult            ....    1
 Number of Electrons    NEL             ....  134
 Basis Dimension        Dim             ....  322

ORBITAL ENERGIES
----------------

  NO   OCC          E(Eh)            E(eV)
   0   2.0000     -88.968702     -2420.9615
   1   2.0000     -88.961949     -2420.7777
   2   2.0000     -10.330535      -281.1081
   3   2.0000     -10.328778      -281.0603
   4   2.0000     -10.320866      -280.8450
   5   2.0000     -10.316280      -280.7203
   6   2.0000     -10.308892      -280.5192
   7   2.0000     -10.305455      -280.4257
   8   2.0000     -10.298481      -280.2359
   9   2.0000     -10.297734      -280.2156
  10   2.0000     -10.295664      -280.1593
  11   2.0000     -10.292274      -280.0670
  12   2.0000     -10.289351      -279.9875
  13   2.0000     -10.288633      -279.9679
  14   2.0000     -10.288059      -279.9523
  15   2.0000     -10.264873      -279.3214
  16   2.0000      -8.082917      -219.9473
  17   2.0000      -8.075518      -219.7460
  18   2.0000      -6.041569      -164.3995
  19   2.0000      -6.037667      -164.2933
  20   2.0000      -6.034186      -164.1985
  21   2.0000      -6.033371      -164.1764
  22   2.0000      -6.030194      -164.0899
  23   2.0000      -6.026168      -163.9804
  24   2.0000      -0.999727       -27.2040
  25   2.0000      -0.974505       -26.5176
  26   2.0000      -0.905320       -24.6350
  27   2.0000      -0.903010       -24.5721
  28   2.0000      -0.865302       -23.5461
  29   2.0000      -0.846919       -23.0458
  30   2.0000      -0.841475       -22.8977
  31   2.0000      -0.813895       -22.1472
  32   2.0000      -0.780623       -21.2418
  33   2.0000      -0.768038       -20.8994
  34   2.0000      -0.706781       -19.2325
  35   2.0000      -0.698548       -19.0085
  36   2.0000      -0.690422       -18.7873
  37   2.0000      -0.657344       -17.8872
  38   2.0000      -0.639835       -17.4108
  39   2.0000      -0.620366       -16.8810
  40   2.0000      -0.591083       -16.0842
  41   2.0000      -0.573453       -15.6045
  42   2.0000      -0.564579       -15.3630
  43   2.0000      -0.551108       -14.9964
  44   2.0000      -0.536043       -14.5865
  45   2.0000      -0.524288       -14.2666
  46   2.0000      -0.513106       -13.9623
  47   2.0000      -0.507655       -13.8140
  48   2.0000      -0.503276       -13.6948
  49   2.0000      -0.500188       -13.6108
  50   2.0000      -0.487240       -13.2585
  51   2.0000      -0.473150       -12.8751
  52   2.0000      -0.470675       -12.8077
  53   2.0000      -0.461797       -12.5661
  54   2.0000      -0.455380       -12.3915
  55   2.0000      -0.449372       -12.2280
  56   2.0000      -0.435922       -11.8621
  57   2.0000      -0.432695       -11.7742
  58   2.0000      -0.431078       -11.7302
  59   2.0000      -0.427542       -11.6340
  60   2.0000      -0.420115       -11.4319
  61   2.0000      -0.419693       -11.4204
  62   2.0000      -0.411853       -11.2071
  63   2.0000      -0.336637        -9.1604
  64   2.0000      -0.325200        -8.8491
  65   2.0000      -0.324007        -8.8167
  66   2.0000      -0.301909        -8.2154
  67   0.0000       0.033313         0.9065
  68   0.0000       0.060233         1.6390
  69   0.0000       0.099988         2.7208
  70   0.0000       0.118084         3.2132
  71   0.0000       0.125832         3.4241

MULLIKEN ATOMIC CHARGES
-----------------------
   0 S :    0.127679
   1 C :   -0.106588
   2 C :   -0.099325
   3 C :    0.038885
   4 C :   -0.172224
   5 H :    0.028039
   6 C :    0.060747
   7 H :    0.021040
   8 H :    0.020226
   9 C :   -0.058650
  10 H :    0.026453
  11 H :    0.033759
  12 C :   -0.095602
  13 H :    0.042921
  14 H :    0.039684
  15 H :    0.047055
  16 S :    0.089713
  17 C :   -0.101278
  18 C :   -0.028189
  19 C :   -0.027234
  20 C :   -0.168712
  21 H :    0.014032
  22 C :    0.134936
  23 H :    0.021355
  24 H :    0.020892
  25 C :   -0.115155
  26 H :    0.029914
  27 H :    0.032005
  28 C :   -0.035766
  29 H :    0.046126
  30 H :    0.015502
  31 H :    0.027459
  32 H :    0.037887
  33 H :    0.052412
Sum of atomic charges:    0.0000000

LOEWDIN ATOMIC CHARGES
----------------------
   0 S :    0.406795
   1 C :   -0.198309
   2 C :   -0.058040
   3 C :   -0.058554
   4 C :   -0.188806
   5 H :    0.035101
   6 C :   -0.027038
   7 H :    0.029051
   8 H :    0.025016
   9 C :   -0.032258
  10 H :    0.021649
  11 H :    0.019092
  12 C :   -0.079844
  13 H :    0.026987
  14 H :    0.030370
  15 H :    0.032927
  16 S :    0.362902
  17 C :   -0.162566
  18 C :   -0.073542
  19 C :   -0.045782
  20 C :   -0.196217
  21 H :    0.031177
  22 C :   -0.024946
  23 H :    0.033125
  24 H :    0.029465
  25 C :   -0.038593
  26 H :    0.022004
  27 H :    0.025455
  28 C :   -0.065450
  29 H :    0.028199
  30 H :    0.016375
  31 H :    0.022760
  32 H :    0.027898
  33 H :    0.023592

  Mayer bond orders larger than 0.100000
B(  0-S ,  1-C ) :   1.1167 B(  0-S ,  4-C ) :   1.1507 B(  1-C ,  2-C ) :   1.6519
B(  1-C , 32-H ) :   0.9646 B(  2-C ,  3-C ) :   1.1927 B(  2-C ,  6-C ) :   1.0393
B(  3-C ,  4-C ) :   1.6119 B(  3-C ,  5-H ) :   0.9898 B(  4-C , 20-C ) :   1.0313
B(  6-C ,  7-H ) :   0.9408 B(  6-C ,  8-H ) :   0.9437 B(  6-C ,  9-C ) :   1.0438
B(  9-C , 10-H ) :   0.9569 B(  9-C , 11-H ) :   0.9642 B(  9-C , 12-C ) :   1.0719
B( 12-C , 13-H ) :   0.9766 B( 12-C , 14-H ) :   0.9732 B( 12-C , 15-H ) :   0.9749
B( 16-S , 17-C ) :   1.1487 B( 16-S , 20-C ) :   1.1087 B( 17-C , 18-C ) :   1.6507
B( 17-C , 33-H ) :   0.9685 B( 18-C , 19-C ) :   1.1667 B( 18-C , 21-H ) :   0.9976
B( 19-C , 20-C ) :   1.6116 B( 19-C , 22-C ) :   1.0628 B( 22-C , 23-H ) :   0.9244
B( 22-C , 24-H ) :   0.9305 B( 22-C , 25-C ) :   1.0579 B( 25-C , 26-H ) :   0.9616
B( 25-C , 27-H ) :   0.9589 B( 25-C , 28-C ) :   1.0788 B( 28-C , 29-H ) :   0.9720
B( 28-C , 30-H ) :   0.9727 B( 28-C , 31-H ) :   0.9754

Dispersion correction           -0.014973036
FINAL SINGLE POINT ENERGY     -1339.867930293058

DIPOLE MOMENT
-------------
                                X             Y             Z
Electronic contribution:      6.79321     -16.07198     -12.09377
Nuclear contribution   :     -7.00402      16.27414      12.58975
                        -----------------------------------------
Total Dipole Moment    :     -0.21082       0.20215       0.49598
                        -----------------------------------------
Magnitude (a.u.)       :      0.57559
Magnitude (Debye)      :      1.46303

Rotational constants in cm-1:     0.020181     0.007746     0.007271
Rotational constants in MHz :   605.005759   232.208964   217.973927

                             ****ORCA TERMINATED NORMALLY****
TOTAL RUN TIME: 0 days 0 hours 0 minutes 21 seconds 560 msec
