                         Program Version 4.2.1 -  RELEASE  -
|  1> ! wB97X-D3 SP def2-SVP
|  2> %pal
|  3> nprocs 24
|  4> end
|  5>
|  6> * xyz 0 1
|  7> S 	 -10.3559 	 -30.0689 	 -111.198
|  8> C 	 -10.3819 	 -29.3901 	 -109.647
|  9> C 	 -10.2711 	 -30.3448 	 -108.645
| 10> C 	 -9.89212 	 -31.5724 	 -109.163
| 11> C 	 -9.78706 	 -31.567 	 -110.554
| 12> H 	 -9.77607 	 -32.4297 	 -108.535
| 13> C 	 -10.3665 	 -30.061 	 -107.09
| 14> H 	 -11.3207 	 -30.548 	 -106.802
| 15> H 	 -10.5101 	 -29.0434 	 -106.871
| 16> C 	 -9.11685 	 -30.4158 	 -106.213
| 17> H 	 -9.27929 	 -30.2066 	 -105.165
| 18> H 	 -8.72348 	 -31.4525 	 -106.276
| 19> C 	 -7.98239 	 -29.6301 	 -106.781
| 20> H 	 -8.07628 	 -28.5415 	 -106.612
| 21> H 	 -7.08743 	 -30.0539 	 -106.275
| 22> H 	 -7.81945 	 -29.6952 	 -107.859
| 23> S 	 -10.6036 	 -33.2516 	 -112.516
| 24> C 	 -9.7264 	 -34.7311 	 -112.765
| 25> C 	 -8.44015 	 -34.6942 	 -112.227
| 26> C 	 -8.25012 	 -33.5154 	 -111.4
| 27> C 	 -9.37531 	 -32.7351 	 -111.37
| 28> H 	 -7.70602 	 -35.5174 	 -112.362
| 29> C 	 -7.10519 	 -33.3047 	 -110.453
| 30> H 	 -7.1494 	 -32.2974 	 -110.176
| 31> H 	 -6.32053 	 -33.3963 	 -111.105
| 32> C 	 -6.95327 	 -34.1843 	 -109.178
| 33> H 	 -7.93406 	 -34.2091 	 -108.639
| 34> H 	 -6.21892 	 -33.8271 	 -108.463
| 35> C 	 -6.508 	 -35.5739 	 -109.601
| 36> H 	 -5.64595 	 -35.5476 	 -110.287
| 37> H 	 -7.33163 	 -36.169 	 -110.073
| 38> H 	 -6.12065 	 -36.2001 	 -108.749
| 39> H 	 -10.2921 	 -28.3247 	 -109.376
| 40> H 	 -10.0371 	 -35.5608 	 -113.414
| 41> *
| 42>
| 43>                          ****END OF INPUT****

CARTESIAN COORDINATES (ANGSTROEM)
---------------------------------
  S    -10.355900  -30.068900  -111.198000
  C    -10.381900  -29.390100  -109.647000
  C    -10.271100  -30.344800  -108.645000
  C     -9.892120  -31.572400  -109.163000
  C     -9.787060  -31.567000  -110.554000
  H     -9.776070  -32.429700  -108.535000
  C    -10.366500  -30.061000  -107.090000
  H    -11.320700  -30.548000  -106.802000
  H    -10.510100  -29.043400  -106.871000
  C     -9.116850  -30.415800  -106.213000
  H     -9.279290  -30.206600  -105.165000
  H     -8.723480  -31.452500  -106.276000
  C     -7.982390  -29.630100  -106.781000
  H     -8.076280  -28.541500  -106.612000
  H     -7.087430  -30.053900  -106.275000
  H     -7.819450  -29.695200  -107.859000
  S    -10.603600  -33.251600  -112.516000
  C     -9.726400  -34.731100  -112.765000
  C     -8.440150  -34.694200  -112.227000
  C     -8.250120  -33.515400  -111.400000
  C     -9.375310  -32.735100  -111.370000
  H     -7.706020  -35.517400  -112.362000
  C     -7.105190  -33.304700  -110.453000
  H     -7.149400  -32.297400  -110.176000
  H     -6.320530  -33.396300  -111.105000
  C     -6.953270  -34.184300  -109.178000
  H     -7.934060  -34.209100  -108.639000
  H     -6.218920  -33.827100  -108.463000
  C     -6.508000  -35.573900  -109.601000
  H     -5.645950  -35.547600  -110.287000
  H     -7.331630  -36.169000  -110.073000
  H     -6.120650  -36.200100  -108.749000
  H    -10.292100  -28.324700  -109.376000
  H    -10.037100  -35.560800  -113.414000

 Total Charge           Charge          ....    0
 Multiplicity           Mult            ....    1
 Number of Electrons    NEL             ....  134
 Basis Dimension        Dim             ....  322

ORBITAL ENERGIES
----------------

  NO   OCC          E(Eh)            E(eV)
   0   2.0000     -88.971083     -2421.0263
   1   2.0000     -88.963205     -2420.8119
   2   2.0000     -10.329573      -281.0820
   3   2.0000     -10.324080      -280.9325
   4   2.0000     -10.318188      -280.7722
   5   2.0000     -10.309779      -280.5433
   6   2.0000     -10.301551      -280.3195
   7   2.0000     -10.299411      -280.2612
   8   2.0000     -10.299392      -280.2607
   9   2.0000     -10.297114      -280.1987
  10   2.0000     -10.292415      -280.0709
  11   2.0000     -10.290056      -280.0067
  12   2.0000     -10.289347      -279.9874
  13   2.0000     -10.283009      -279.8149
  14   2.0000     -10.277244      -279.6580
  15   2.0000     -10.275214      -279.6028
  16   2.0000      -8.086987      -220.0581
  17   2.0000      -8.078434      -219.8254
  18   2.0000      -6.045282      -164.5005
  19   2.0000      -6.041390      -164.3946
  20   2.0000      -6.037848      -164.2982
  21   2.0000      -6.036942      -164.2735
  22   2.0000      -6.033002      -164.1663
  23   2.0000      -6.029044      -164.0586
  24   2.0000      -1.013258       -27.5721
  25   2.0000      -0.988471       -26.8977
  26   2.0000      -0.912728       -24.8366
  27   2.0000      -0.910857       -24.7857
  28   2.0000      -0.865603       -23.5542
  29   2.0000      -0.855966       -23.2920
  30   2.0000      -0.847933       -23.0734
  31   2.0000      -0.810941       -22.0668
  32   2.0000      -0.782793       -21.3009
  33   2.0000      -0.770264       -20.9600
  34   2.0000      -0.707197       -19.2438
  35   2.0000      -0.698725       -19.0133
  36   2.0000      -0.689143       -18.7525
  37   2.0000      -0.661664       -18.0048
  38   2.0000      -0.637539       -17.3483
  39   2.0000      -0.626673       -17.0526
  40   2.0000      -0.589044       -16.0287
  41   2.0000      -0.566379       -15.4120
  42   2.0000      -0.556052       -15.1309
  43   2.0000      -0.551501       -15.0071
  44   2.0000      -0.549299       -14.9472
  45   2.0000      -0.541611       -14.7380
  46   2.0000      -0.514773       -14.0077
  47   2.0000      -0.512758       -13.9529
  48   2.0000      -0.501990       -13.6598
  49   2.0000      -0.493700       -13.4343
  50   2.0000      -0.484891       -13.1946
  51   2.0000      -0.478320       -13.0158
  52   2.0000      -0.475166       -12.9299
  53   2.0000      -0.468645       -12.7525
  54   2.0000      -0.455171       -12.3858
  55   2.0000      -0.452933       -12.3249
  56   2.0000      -0.444268       -12.0891
  57   2.0000      -0.436625       -11.8812
  58   2.0000      -0.427112       -11.6223
  59   2.0000      -0.423908       -11.5351
  60   2.0000      -0.421470       -11.4688
  61   2.0000      -0.418226       -11.3805
  62   2.0000      -0.415093       -11.2953
  63   2.0000      -0.343542        -9.3483
  64   2.0000      -0.336150        -9.1471
  65   2.0000      -0.328646        -8.9429
  66   2.0000      -0.289268        -7.8714
  67   0.0000       0.035782         0.9737
  68   0.0000       0.057886         1.5752
  69   0.0000       0.109298         2.9742
  70   0.0000       0.122189         3.3249
  71   0.0000       0.126751         3.4491

MULLIKEN ATOMIC CHARGES
-----------------------
   0 S :    0.143255
   1 C :   -0.129726
   2 C :   -0.120785
   3 C :    0.034235
   4 C :   -0.151750
   5 H :    0.003529
   6 C :    0.087608
   7 H :    0.043298
   8 H :    0.001794
   9 C :   -0.061848
  10 H :    0.037670
  11 H :    0.031365
  12 C :   -0.086149
  13 H :    0.024924
  14 H :    0.032927
  15 H :    0.049462
  16 S :    0.102636
  17 C :   -0.092718
  18 C :   -0.060024
  19 C :   -0.062273
  20 C :   -0.166144
  21 H :    0.036860
  22 C :    0.129881
  23 H :    0.008834
  24 H :   -0.001353
  25 C :   -0.032177
  26 H :    0.036317
  27 H :    0.032854
  28 C :   -0.105481
  29 H :    0.028810
  30 H :    0.049709
  31 H :    0.034883
  32 H :    0.058392
  33 H :    0.061186
Sum of atomic charges:    0.0000000

LOEWDIN ATOMIC CHARGES
----------------------
   0 S :    0.444810
   1 C :   -0.227373
   2 C :   -0.064408
   3 C :   -0.060440
   4 C :   -0.204205
   5 H :    0.028521
   6 C :   -0.024651
   7 H :    0.034582
   8 H :    0.020594
   9 C :   -0.044190
  10 H :    0.027110
  11 H :    0.025304
  12 C :   -0.071024
  13 H :    0.021498
  14 H :    0.028509
  15 H :    0.027696
  16 S :    0.397790
  17 C :   -0.190595
  18 C :   -0.075155
  19 C :   -0.055506
  20 C :   -0.188340
  21 H :    0.037457
  22 C :   -0.023028
  23 H :    0.024745
  24 H :    0.020578
  25 C :   -0.034952
  26 H :    0.028819
  27 H :    0.026614
  28 C :   -0.079317
  29 H :    0.022917
  30 H :    0.029175
  31 H :    0.028407
  32 H :    0.035895
  33 H :    0.032164

  Mayer bond orders larger than 0.100000
B(  0-S ,  1-C ) :   1.1657 B(  0-S ,  4-C ) :   1.1773 B(  1-C ,  2-C ) :   1.5754
B(  1-C ,  4-C ) :   0.1057 B(  1-C , 32-H ) :   0.9581 B(  2-C ,  3-C ) :   1.2961
B(  2-C ,  6-C ) :   1.0128 B(  3-C ,  4-C ) :   1.5159 B(  3-C ,  5-H ) :   1.0052
B(  4-C , 20-C ) :   1.0089 B(  6-C ,  7-H ) :   0.9393 B(  6-C ,  8-H ) :   0.9469
B(  6-C ,  9-C ) :   1.0549 B(  9-C , 10-H ) :   0.9563 B(  9-C , 11-H ) :   0.9607
B(  9-C , 12-C ) :   1.0655 B( 12-C , 13-H ) :   0.9748 B( 12-C , 14-H ) :   0.9750
B( 12-C , 15-H ) :   0.9731 B( 16-S , 17-C ) :   1.1493 B( 16-S , 20-C ) :   1.1327
B( 17-C , 18-C ) :   1.6329 B( 17-C , 33-H ) :   0.9640 B( 18-C , 19-C ) :   1.2010
B( 18-C , 21-H ) :   0.9806 B( 19-C , 20-C ) :   1.6453 B( 19-C , 22-C ) :   1.0472
B( 22-C , 23-H ) :   0.9213 B( 22-C , 24-H ) :   0.9225 B( 22-C , 25-C ) :   1.0597
B( 25-C , 26-H ) :   0.9530 B( 25-C , 27-H ) :   0.9549 B( 25-C , 28-C ) :   1.0787
B( 28-C , 29-H ) :   0.9750 B( 28-C , 30-H ) :   0.9710 B( 28-C , 31-H ) :   0.9710

Dispersion correction           -0.015537233
FINAL SINGLE POINT ENERGY     -1339.861623013946

DIPOLE MOMENT
-------------
                                X             Y             Z
Electronic contribution:    -17.32179       4.45432     -23.54974
Nuclear contribution   :     17.72658      -4.59173      24.12992
                        -----------------------------------------
Total Dipole Moment    :      0.40478      -0.13741       0.58018
                        -----------------------------------------
Magnitude (a.u.)       :      0.72065
Magnitude (Debye)      :      1.83176

Rotational constants in cm-1:     0.018160     0.010183     0.007120
Rotational constants in MHz :   544.434241   305.279268   213.444213

                             ****ORCA TERMINATED NORMALLY****
TOTAL RUN TIME: 0 days 0 hours 0 minutes 22 seconds 793 msec
