                         Program Version 4.2.1 -  RELEASE  -
|  1> ! wB97X-D3 SP def2-SVP
|  2> %pal
|  3> nprocs 24
|  4> end
|  5>
|  6> * xyz 0 1
|  7> S 	 -101.985 	 -0.826899 	 -106.207
|  8> C 	 -100.761 	 0.245427 	 -106.827
|  9> C 	 -100.871 	 1.47346 	 -106.236
| 10> C 	 -102.073 	 1.51283 	 -105.462
| 11> C 	 -102.671 	 0.299112 	 -105.113
| 12> H 	 -102.561 	 2.37341 	 -105.072
| 13> C 	 -100.116 	 2.76199 	 -106.662
| 14> H 	 -100.531 	 3.21088 	 -107.56
| 15> H 	 -99.0899 	 2.59671 	 -107.035
| 16> C 	 -99.8764 	 3.80216 	 -105.554
| 17> H 	 -99.3948 	 4.68807 	 -105.944
| 18> H 	 -100.839 	 4.17141 	 -105.167
| 19> C 	 -99.1362 	 3.29837 	 -104.324
| 20> H 	 -99.5706 	 2.5903 	 -103.596
| 21> H 	 -98.2583 	 2.64641 	 -104.619
| 22> H 	 -98.7544 	 4.08019 	 -103.593
| 23> S 	 -105.278 	 -0.491252 	 -105.34
| 24> C 	 -106.448 	 -0.0644266 	 -104.069
| 25> C 	 -105.829 	 0.458018 	 -102.972
| 26> C 	 -104.39 	 0.597319 	 -103.167
| 27> C 	 -103.948 	 0.184848 	 -104.416
| 28> H 	 -106.361 	 0.81241 	 -102.144
| 29> C 	 -103.513 	 1.19762 	 -102.152
| 30> H 	 -103.74 	 2.30097 	 -102.169
| 31> H 	 -102.467 	 1.02185 	 -102.483
| 32> C 	 -103.778 	 0.695436 	 -100.691
| 33> H 	 -103.429 	 -0.280086 	 -100.626
| 34> H 	 -104.846 	 0.776013 	 -100.489
| 35> C 	 -103.035 	 1.54425 	 -99.7142
| 36> H 	 -101.976 	 1.61829 	 -99.9993
| 37> H 	 -103.149 	 0.957371 	 -98.7544
| 38> H 	 -103.328 	 2.60381 	 -99.684
| 39> H 	 -99.9589 	 0.011981 	 -107.394
| 40> H 	 -107.509 	 -0.276546 	 -104.184
| 41> *
| 42>
| 43>                          ****END OF INPUT****

CARTESIAN COORDINATES (ANGSTROEM)
---------------------------------
  S    -101.985000   -0.826899  -106.207000
  C    -100.761000    0.245427  -106.827000
  C    -100.871000    1.473460  -106.236000
  C    -102.073000    1.512830  -105.462000
  C    -102.671000    0.299112  -105.113000
  H    -102.561000    2.373410  -105.072000
  C    -100.116000    2.761990  -106.662000
  H    -100.531000    3.210880  -107.560000
  H    -99.089900    2.596710  -107.035000
  C    -99.876400    3.802160  -105.554000
  H    -99.394800    4.688070  -105.944000
  H    -100.839000    4.171410  -105.167000
  C    -99.136200    3.298370  -104.324000
  H    -99.570600    2.590300  -103.596000
  H    -98.258300    2.646410  -104.619000
  H    -98.754400    4.080190  -103.593000
  S    -105.278000   -0.491252  -105.340000
  C    -106.448000   -0.064427  -104.069000
  C    -105.829000    0.458018  -102.972000
  C    -104.390000    0.597319  -103.167000
  C    -103.948000    0.184848  -104.416000
  H    -106.361000    0.812410  -102.144000
  C    -103.513000    1.197620  -102.152000
  H    -103.740000    2.300970  -102.169000
  H    -102.467000    1.021850  -102.483000
  C    -103.778000    0.695436  -100.691000
  H    -103.429000   -0.280086  -100.626000
  H    -104.846000    0.776013  -100.489000
  C    -103.035000    1.544250  -99.714200
  H    -101.976000    1.618290  -99.999300
  H    -103.149000    0.957371  -98.754400
  H    -103.328000    2.603810  -99.684000
  H    -99.958900    0.011981  -107.394000
  H    -107.509000   -0.276546  -104.184000

 Total Charge           Charge          ....    0
 Multiplicity           Mult            ....    1
 Number of Electrons    NEL             ....  134
 Basis Dimension        Dim             ....  322

ORBITAL ENERGIES
----------------

  NO   OCC          E(Eh)            E(eV)
   0   2.0000     -88.966307     -2420.8963
   1   2.0000     -88.960268     -2420.7320
   2   2.0000     -10.328665      -281.0573
   3   2.0000     -10.327165      -281.0164
   4   2.0000     -10.320961      -280.8476
   5   2.0000     -10.309408      -280.5333
   6   2.0000     -10.305031      -280.4142
   7   2.0000     -10.302494      -280.3451
   8   2.0000     -10.300674      -280.2956
   9   2.0000     -10.293561      -280.1020
  10   2.0000     -10.291903      -280.0569
  11   2.0000     -10.291300      -280.0405
  12   2.0000     -10.290897      -280.0295
  13   2.0000     -10.284491      -279.8552
  14   2.0000     -10.280883      -279.7571
  15   2.0000     -10.280259      -279.7401
  16   2.0000      -8.081594      -219.9114
  17   2.0000      -8.074988      -219.7316
  18   2.0000      -6.040082      -164.3590
  19   2.0000      -6.035898      -164.2451
  20   2.0000      -6.033646      -164.1838
  21   2.0000      -6.032420      -164.1505
  22   2.0000      -6.029540      -164.0721
  23   2.0000      -6.025537      -163.9632
  24   2.0000      -1.011556       -27.5258
  25   2.0000      -0.985909       -26.8280
  26   2.0000      -0.913751       -24.8644
  27   2.0000      -0.909976       -24.7617
  28   2.0000      -0.875694       -23.8288
  29   2.0000      -0.853861       -23.2347
  30   2.0000      -0.840555       -22.8727
  31   2.0000      -0.819796       -22.3078
  32   2.0000      -0.784082       -21.3359
  33   2.0000      -0.766993       -20.8709
  34   2.0000      -0.709219       -19.2988
  35   2.0000      -0.700665       -19.0661
  36   2.0000      -0.698291       -19.0015
  37   2.0000      -0.661413       -17.9980
  38   2.0000      -0.647726       -17.6255
  39   2.0000      -0.621100       -16.9010
  40   2.0000      -0.596158       -16.2223
  41   2.0000      -0.577677       -15.7194
  42   2.0000      -0.573347       -15.6016
  43   2.0000      -0.553796       -15.0696
  44   2.0000      -0.534488       -14.5441
  45   2.0000      -0.530957       -14.4481
  46   2.0000      -0.522081       -14.2065
  47   2.0000      -0.513591       -13.9755
  48   2.0000      -0.511262       -13.9121
  49   2.0000      -0.498094       -13.5538
  50   2.0000      -0.486359       -13.2345
  51   2.0000      -0.480094       -13.0640
  52   2.0000      -0.473486       -12.8842
  53   2.0000      -0.458758       -12.4834
  54   2.0000      -0.455431       -12.3929
  55   2.0000      -0.453531       -12.3412
  56   2.0000      -0.447258       -12.1705
  57   2.0000      -0.436151       -11.8683
  58   2.0000      -0.434616       -11.8265
  59   2.0000      -0.425013       -11.5652
  60   2.0000      -0.417172       -11.3518
  61   2.0000      -0.408974       -11.1287
  62   2.0000      -0.404352       -11.0030
  63   2.0000      -0.351320        -9.5599
  64   2.0000      -0.328852        -8.9485
  65   2.0000      -0.323962        -8.8155
  66   2.0000      -0.295659        -8.0453
  67   0.0000       0.030867         0.8399
  68   0.0000       0.069404         1.8886
  69   0.0000       0.113311         3.0833
  70   0.0000       0.118466         3.2236
  71   0.0000       0.126269         3.4360

MULLIKEN ATOMIC CHARGES
-----------------------
   0 S :    0.105633
   1 C :   -0.060346
   2 C :   -0.051738
   3 C :    0.010112
   4 C :   -0.150080
   5 H :    0.006677
   6 C :    0.045525
   7 H :    0.044468
   8 H :    0.017460
   9 C :   -0.043322
  10 H :    0.030612
  11 H :    0.026184
  12 C :   -0.108053
  13 H :    0.035528
  14 H :    0.023677
  15 H :    0.042222
  16 S :    0.084930
  17 C :   -0.092061
  18 C :    0.000776
  19 C :   -0.049361
  20 C :   -0.137762
  21 H :    0.004459
  22 C :    0.009694
  23 H :    0.039873
  24 H :    0.041892
  25 C :   -0.054384
  26 H :    0.024654
  27 H :    0.029683
  28 C :   -0.052138
  29 H :    0.025222
  30 H :    0.046250
  31 H :    0.032444
  32 H :    0.007814
  33 H :    0.063453
Sum of atomic charges:   -0.0000000

LOEWDIN ATOMIC CHARGES
----------------------
   0 S :    0.427241
   1 C :   -0.172793
   2 C :   -0.064986
   3 C :   -0.051558
   4 C :   -0.218184
   5 H :    0.021782
   6 C :   -0.031763
   7 H :    0.036313
   8 H :    0.031322
   9 C :   -0.045622
  10 H :    0.028280
  11 H :    0.022597
  12 C :   -0.089329
  13 H :    0.027566
  14 H :    0.026579
  15 H :    0.034041
  16 S :    0.380798
  17 C :   -0.163653
  18 C :   -0.066219
  19 C :   -0.056944
  20 C :   -0.197277
  21 H :    0.023130
  22 C :   -0.040179
  23 H :    0.036917
  24 H :    0.034082
  25 C :   -0.032070
  26 H :    0.019520
  27 H :    0.023139
  28 C :   -0.069719
  29 H :    0.024946
  30 H :    0.036285
  31 H :    0.025061
  32 H :    0.009712
  33 H :    0.030986

  Mayer bond orders larger than 0.100000
B(  0-S ,  1-C ) :   1.1601 B(  0-S ,  4-C ) :   1.1499 B(  1-C ,  2-C ) :   1.5896
B(  1-C , 32-H ) :   0.9789 B(  2-C ,  3-C ) :   1.2476 B(  2-C ,  6-C ) :   1.0163
B(  3-C ,  4-C ) :   1.5525 B(  3-C ,  5-H ) :   0.9917 B(  4-C , 20-C ) :   1.0423
B(  6-C ,  7-H ) :   0.9457 B(  6-C ,  8-H ) :   0.9420 B(  6-C ,  9-C ) :   1.0786
B(  9-C , 10-H ) :   0.9547 B(  9-C , 11-H ) :   0.9514 B(  9-C , 12-C ) :   1.0627
B( 12-C , 13-H ) :   0.9724 B( 12-C , 14-H ) :   0.9741 B( 12-C , 15-H ) :   0.9752
B( 16-S , 17-C ) :   1.1455 B( 16-S , 20-C ) :   1.1176 B( 17-C , 18-C ) :   1.6290
B( 17-C , 33-H ) :   0.9667 B( 18-C , 19-C ) :   1.2011 B( 18-C , 21-H ) :   0.9992
B( 19-C , 20-C ) :   1.6280 B( 19-C , 22-C ) :   1.0644 B( 22-C , 23-H ) :   0.9291
B( 22-C , 24-H ) :   0.9317 B( 22-C , 25-C ) :   1.0623 B( 25-C , 26-H ) :   0.9544
B( 25-C , 27-H ) :   0.9527 B( 25-C , 28-C ) :   1.0931 B( 28-C , 29-H ) :   0.9694
B( 28-C , 30-H ) :   0.9728 B( 28-C , 31-H ) :   0.9733

Dispersion correction           -0.013969031
FINAL SINGLE POINT ENERGY     -1339.859910767121

DIPOLE MOMENT
-------------
                                X             Y             Z
Electronic contribution:    -14.04919     -18.97042     -18.56543
Nuclear contribution   :     14.14850      19.59510      18.84107
                        -----------------------------------------
Total Dipole Moment    :      0.09931       0.62468       0.27564
                        -----------------------------------------
Magnitude (a.u.)       :      0.68997
Magnitude (Debye)      :      1.75378

Rotational constants in cm-1:     0.016155     0.009671     0.006794
Rotational constants in MHz :   484.307925   289.930884   203.687343

                             ****ORCA TERMINATED NORMALLY****
TOTAL RUN TIME: 0 days 0 hours 0 minutes 21 seconds 622 msec
