                         Program Version 4.2.1 -  RELEASE  -
|  1> ! wB97X-D3 SP def2-SVP
|  2> %pal
|  3> nprocs 24
|  4> end
|  5>
|  6> * xyz 0 1
|  7> S 	 -103.794 	 23.3847 	 -111.723
|  8> C 	 -103.095 	 21.9172 	 -111.125
|  9> C 	 -101.826 	 22.1495 	 -110.574
| 10> C 	 -101.53 	 23.5231 	 -110.468
| 11> C 	 -102.53 	 24.3515 	 -111.014
| 12> H 	 -100.716 	 23.9453 	 -109.938
| 13> C 	 -100.961 	 21.1329 	 -109.902
| 14> H 	 -100.052 	 21.554 	 -109.519
| 15> H 	 -100.698 	 20.3916 	 -110.632
| 16> C 	 -101.581 	 20.384 	 -108.709
| 17> H 	 -101.854 	 21.103 	 -107.928
| 18> H 	 -102.511 	 19.8988 	 -109.025
| 19> C 	 -100.638 	 19.3999 	 -108.044
| 20> H 	 -101.2 	 18.6255 	 -107.491
| 21> H 	 -99.9848 	 18.9205 	 -108.764
| 22> H 	 -100.041 	 19.9779 	 -107.343
| 23> S 	 -101.475 	 26.2949 	 -112.603
| 24> C 	 -101.739 	 27.9049 	 -112.045
| 25> C 	 -102.79 	 28.0229 	 -111.186
| 26> C 	 -103.181 	 26.7559 	 -110.651
| 27> C 	 -102.454 	 25.7437 	 -111.191
| 28> H 	 -103.118 	 29.0127 	 -110.812
| 29> C 	 -104.22 	 26.5963 	 -109.569
| 30> H 	 -104.323 	 25.5292 	 -109.176
| 31> H 	 -105.219 	 26.7049 	 -110.024
| 32> C 	 -104.117 	 27.4451 	 -108.284
| 33> H 	 -103.169 	 27.7299 	 -107.995
| 34> H 	 -104.626 	 26.8886 	 -107.534
| 35> C 	 -104.886 	 28.8059 	 -108.329
| 36> H 	 -105.999 	 28.6732 	 -108.612
| 37> H 	 -104.43 	 29.2982 	 -109.191
| 38> H 	 -104.804 	 29.4125 	 -107.465
| 39> H 	 -103.544 	 20.9404 	 -111.201
| 40> H 	 -101.346 	 28.8085 	 -112.586
| 41> *
| 42>
| 43>                          ****END OF INPUT****

CARTESIAN COORDINATES (ANGSTROEM)
---------------------------------
  S    -103.794000   23.384700  -111.723000
  C    -103.095000   21.917200  -111.125000
  C    -101.826000   22.149500  -110.574000
  C    -101.530000   23.523100  -110.468000
  C    -102.530000   24.351500  -111.014000
  H    -100.716000   23.945300  -109.938000
  C    -100.961000   21.132900  -109.902000
  H    -100.052000   21.554000  -109.519000
  H    -100.698000   20.391600  -110.632000
  C    -101.581000   20.384000  -108.709000
  H    -101.854000   21.103000  -107.928000
  H    -102.511000   19.898800  -109.025000
  C    -100.638000   19.399900  -108.044000
  H    -101.200000   18.625500  -107.491000
  H    -99.984800   18.920500  -108.764000
  H    -100.041000   19.977900  -107.343000
  S    -101.475000   26.294900  -112.603000
  C    -101.739000   27.904900  -112.045000
  C    -102.790000   28.022900  -111.186000
  C    -103.181000   26.755900  -110.651000
  C    -102.454000   25.743700  -111.191000
  H    -103.118000   29.012700  -110.812000
  C    -104.220000   26.596300  -109.569000
  H    -104.323000   25.529200  -109.176000
  H    -105.219000   26.704900  -110.024000
  C    -104.117000   27.445100  -108.284000
  H    -103.169000   27.729900  -107.995000
  H    -104.626000   26.888600  -107.534000
  C    -104.886000   28.805900  -108.329000
  H    -105.999000   28.673200  -108.612000
  H    -104.430000   29.298200  -109.191000
  H    -104.804000   29.412500  -107.465000
  H    -103.544000   20.940400  -111.201000
  H    -101.346000   28.808500  -112.586000

 Total Charge           Charge          ....    0
 Multiplicity           Mult            ....    1
 Number of Electrons    NEL             ....  134
 Basis Dimension        Dim             ....  322

ORBITAL ENERGIES
----------------

  NO   OCC          E(Eh)            E(eV)
   0   2.0000     -88.967197     -2420.9205
   1   2.0000     -88.961490     -2420.7652
   2   2.0000     -10.319855      -280.8175
   3   2.0000     -10.317246      -280.7465
   4   2.0000     -10.316658      -280.7305
   5   2.0000     -10.313093      -280.6335
   6   2.0000     -10.302808      -280.3537
   7   2.0000     -10.297357      -280.2053
   8   2.0000     -10.297334      -280.2047
   9   2.0000     -10.293233      -280.0931
  10   2.0000     -10.289238      -279.9844
  11   2.0000     -10.284698      -279.8609
  12   2.0000     -10.283225      -279.8208
  13   2.0000     -10.280258      -279.7401
  14   2.0000     -10.279810      -279.7278
  15   2.0000     -10.277671      -279.6696
  16   2.0000      -8.082003      -219.9225
  17   2.0000      -8.076476      -219.7721
  18   2.0000      -6.040346      -164.3662
  19   2.0000      -6.036329      -164.2569
  20   2.0000      -6.034879      -164.2174
  21   2.0000      -6.033117      -164.1695
  22   2.0000      -6.031364      -164.1217
  23   2.0000      -6.026899      -164.0003
  24   2.0000      -1.008795       -27.4507
  25   2.0000      -0.984876       -26.7998
  26   2.0000      -0.914524       -24.8855
  27   2.0000      -0.906946       -24.6793
  28   2.0000      -0.872351       -23.7379
  29   2.0000      -0.852608       -23.2007
  30   2.0000      -0.849739       -23.1226
  31   2.0000      -0.810013       -22.0416
  32   2.0000      -0.784082       -21.3360
  33   2.0000      -0.768587       -20.9143
  34   2.0000      -0.707979       -19.2651
  35   2.0000      -0.698031       -18.9944
  36   2.0000      -0.692478       -18.8433
  37   2.0000      -0.657946       -17.9036
  38   2.0000      -0.644832       -17.5468
  39   2.0000      -0.614796       -16.7294
  40   2.0000      -0.604076       -16.4377
  41   2.0000      -0.575359       -15.6563
  42   2.0000      -0.559649       -15.2288
  43   2.0000      -0.544224       -14.8091
  44   2.0000      -0.536389       -14.5959
  45   2.0000      -0.524514       -14.2727
  46   2.0000      -0.521598       -14.1934
  47   2.0000      -0.513058       -13.9610
  48   2.0000      -0.506692       -13.7878
  49   2.0000      -0.500942       -13.6313
  50   2.0000      -0.492595       -13.4042
  51   2.0000      -0.476231       -12.9589
  52   2.0000      -0.474978       -12.9248
  53   2.0000      -0.465215       -12.6591
  54   2.0000      -0.458601       -12.4792
  55   2.0000      -0.446196       -12.1416
  56   2.0000      -0.440776       -11.9941
  57   2.0000      -0.437690       -11.9101
  58   2.0000      -0.434627       -11.8268
  59   2.0000      -0.426215       -11.5979
  60   2.0000      -0.423707       -11.5297
  61   2.0000      -0.417083       -11.3494
  62   2.0000      -0.405235       -11.0270
  63   2.0000      -0.336554        -9.1581
  64   2.0000      -0.327152        -8.9023
  65   2.0000      -0.319386        -8.6909
  66   2.0000      -0.304801        -8.2940
  67   0.0000       0.033155         0.9022
  68   0.0000       0.057761         1.5718
  69   0.0000       0.103328         2.8117
  70   0.0000       0.124756         3.3948
  71   0.0000       0.127638         3.4732

MULLIKEN ATOMIC CHARGES
-----------------------
   0 S :    0.134224
   1 C :   -0.130330
   2 C :   -0.056631
   3 C :    0.038567
   4 C :   -0.199344
   5 H :    0.001443
   6 C :    0.084350
   7 H :    0.008800
   8 H :    0.023816
   9 C :   -0.098000
  10 H :    0.028607
  11 H :    0.021314
  12 C :   -0.036108
  13 H :    0.039715
  14 H :    0.026746
  15 H :    0.031100
  16 S :    0.111655
  17 C :   -0.090661
  18 C :   -0.058033
  19 C :    0.029083
  20 C :   -0.186173
  21 H :    0.034341
  22 C :    0.013317
  23 H :    0.041838
  24 H :    0.038616
  25 C :   -0.017081
  26 H :    0.021340
  27 H :    0.022989
  28 C :   -0.077426
  29 H :    0.036047
  30 H :    0.008626
  31 H :    0.037818
  32 H :    0.046709
  33 H :    0.068725
Sum of atomic charges:    0.0000000

LOEWDIN ATOMIC CHARGES
----------------------
   0 S :    0.428579
   1 C :   -0.203044
   2 C :   -0.063124
   3 C :   -0.048948
   4 C :   -0.211741
   5 H :    0.027508
   6 C :   -0.030369
   7 H :    0.025376
   8 H :    0.029558
   9 C :   -0.041330
  10 H :    0.025109
  11 H :    0.017186
  12 C :   -0.063862
  13 H :    0.031857
  14 H :    0.021526
  15 H :    0.025558
  16 S :    0.387866
  17 C :   -0.188602
  18 C :   -0.080398
  19 C :   -0.046667
  20 C :   -0.190453
  21 H :    0.034479
  22 C :   -0.038640
  23 H :    0.042857
  24 H :    0.038732
  25 C :   -0.028219
  26 H :    0.016242
  27 H :    0.022657
  28 C :   -0.068170
  29 H :    0.030046
  30 H :    0.016915
  31 H :    0.018702
  32 H :    0.025420
  33 H :    0.037391

  Mayer bond orders larger than 0.100000
B(  0-S ,  1-C ) :   1.1636 B(  0-S ,  4-C ) :   1.1623 B(  1-C ,  2-C ) :   1.5512
B(  1-C ,  4-C ) :   0.1126 B(  1-C , 32-H ) :   0.9730 B(  2-C ,  3-C ) :   1.2797
B(  2-C ,  6-C ) :   1.0384 B(  3-C ,  4-C ) :   1.5261 B(  3-C ,  5-H ) :   1.0038
B(  4-C , 20-C ) :   1.0770 B(  6-C ,  7-H ) :   0.9465 B(  6-C ,  8-H ) :   0.9220
B(  6-C ,  9-C ) :   1.0718 B(  9-C , 10-H ) :   0.9590 B(  9-C , 11-H ) :   0.9561
B(  9-C , 12-C ) :   1.0769 B( 12-C , 13-H ) :   0.9738 B( 12-C , 14-H ) :   0.9755
B( 12-C , 15-H ) :   0.9779 B( 16-S , 17-C ) :   1.1516 B( 16-S , 20-C ) :   1.1125
B( 17-C , 18-C ) :   1.6567 B( 17-C , 33-H ) :   0.9540 B( 18-C , 19-C ) :   1.1958
B( 18-C , 21-H ) :   0.9789 B( 19-C , 20-C ) :   1.6390 B( 19-C , 22-C ) :   1.0497
B( 22-C , 23-H ) :   0.9363 B( 22-C , 24-H ) :   0.9308 B( 22-C , 25-C ) :   1.0561
B( 25-C , 26-H ) :   0.9643 B( 25-C , 27-H ) :   0.9591 B( 25-C , 28-C ) :   1.0672
B( 28-C , 29-H ) :   0.9737 B( 28-C , 30-H ) :   0.9808 B( 28-C , 31-H ) :   0.9734

Dispersion correction           -0.013831560
FINAL SINGLE POINT ENERGY     -1339.869136826489

DIPOLE MOMENT
-------------
                                X             Y             Z
Electronic contribution:      1.23231       5.46237     -22.68056
Nuclear contribution   :     -1.26371      -5.51909      23.17770
                        -----------------------------------------
Total Dipole Moment    :     -0.03140      -0.05671       0.49715
                        -----------------------------------------
Magnitude (a.u.)       :      0.50136
Magnitude (Debye)      :      1.27434

Rotational constants in cm-1:     0.020863     0.007155     0.006236
Rotational constants in MHz :   625.457822   214.512852   186.957356

                             ****ORCA TERMINATED NORMALLY****
TOTAL RUN TIME: 0 days 0 hours 0 minutes 21 seconds 951 msec
