                         Program Version 4.2.1 -  RELEASE  -
|  1> ! wB97X-D3 SP def2-SVP
|  2> %pal
|  3> nprocs 24
|  4> end
|  5>
|  6> * xyz 0 1
|  7> S 	 -116.621 	 32.009 	 -20.8356
|  8> C 	 -118.124 	 32.1081 	 -21.8124
|  9> C 	 -119.065 	 32.8836 	 -21.1451
| 10> C 	 -118.682 	 33.0733 	 -19.7632
| 11> C 	 -117.453 	 32.562 	 -19.434
| 12> H 	 -119.124 	 33.7475 	 -19.0359
| 13> C 	 -120.379 	 33.3497 	 -21.7487
| 14> H 	 -120.368 	 33.4122 	 -22.8372
| 15> H 	 -120.516 	 34.4119 	 -21.4101
| 16> C 	 -121.533 	 32.3931 	 -21.4523
| 17> H 	 -121.641 	 32.1594 	 -20.4051
| 18> H 	 -122.485 	 32.8583 	 -21.7091
| 19> C 	 -121.438 	 31.0413 	 -22.1823
| 20> H 	 -122.332 	 30.5479 	 -21.9596
| 21> H 	 -121.181 	 31.1288 	 -23.2446
| 22> H 	 -120.693 	 30.3215 	 -21.8061
| 23> S 	 -116.32 	 31.3581 	 -17.2051
| 24> C 	 -116.187 	 32.3354 	 -15.8319
| 25> C 	 -115.831 	 33.6467 	 -16.2555
| 26> C 	 -116.141 	 33.8569 	 -17.6169
| 27> C 	 -116.697 	 32.7518 	 -18.2157
| 28> H 	 -115.441 	 34.37 	 -15.4961
| 29> C 	 -115.988 	 35.2464 	 -18.2684
| 30> H 	 -115.932 	 35.9038 	 -17.3861
| 31> H 	 -116.966 	 35.5072 	 -18.7411
| 32> C 	 -114.795 	 35.5128 	 -19.2332
| 33> H 	 -114.894 	 36.3767 	 -19.8509
| 34> H 	 -114.781 	 34.7282 	 -19.9994
| 35> C 	 -113.381 	 35.5834 	 -18.5156
| 36> H 	 -113.253 	 34.7139 	 -17.849
| 37> H 	 -113.334 	 36.5324 	 -17.9621
| 38> H 	 -112.588 	 35.6899 	 -19.3311
| 39> H 	 -118.356 	 31.9061 	 -22.8469
| 40> H 	 -115.898 	 32.1368 	 -14.8352
| 41> *
| 42>
| 43>                          ****END OF INPUT****

CARTESIAN COORDINATES (ANGSTROEM)
---------------------------------
  S    -116.621000   32.009000  -20.835600
  C    -118.124000   32.108100  -21.812400
  C    -119.065000   32.883600  -21.145100
  C    -118.682000   33.073300  -19.763200
  C    -117.453000   32.562000  -19.434000
  H    -119.124000   33.747500  -19.035900
  C    -120.379000   33.349700  -21.748700
  H    -120.368000   33.412200  -22.837200
  H    -120.516000   34.411900  -21.410100
  C    -121.533000   32.393100  -21.452300
  H    -121.641000   32.159400  -20.405100
  H    -122.485000   32.858300  -21.709100
  C    -121.438000   31.041300  -22.182300
  H    -122.332000   30.547900  -21.959600
  H    -121.181000   31.128800  -23.244600
  H    -120.693000   30.321500  -21.806100
  S    -116.320000   31.358100  -17.205100
  C    -116.187000   32.335400  -15.831900
  C    -115.831000   33.646700  -16.255500
  C    -116.141000   33.856900  -17.616900
  C    -116.697000   32.751800  -18.215700
  H    -115.441000   34.370000  -15.496100
  C    -115.988000   35.246400  -18.268400
  H    -115.932000   35.903800  -17.386100
  H    -116.966000   35.507200  -18.741100
  C    -114.795000   35.512800  -19.233200
  H    -114.894000   36.376700  -19.850900
  H    -114.781000   34.728200  -19.999400
  C    -113.381000   35.583400  -18.515600
  H    -113.253000   34.713900  -17.849000
  H    -113.334000   36.532400  -17.962100
  H    -112.588000   35.689900  -19.331100
  H    -118.356000   31.906100  -22.846900
  H    -115.898000   32.136800  -14.835200

 Total Charge           Charge          ....    0
 Multiplicity           Mult            ....    1
 Number of Electrons    NEL             ....  134
 Basis Dimension        Dim             ....  322

ORBITAL ENERGIES
----------------

  NO   OCC          E(Eh)            E(eV)
   0   2.0000     -88.966782     -2420.9092
   1   2.0000     -88.965303     -2420.8690
   2   2.0000     -10.326135      -280.9884
   3   2.0000     -10.322840      -280.8987
   4   2.0000     -10.314847      -280.6813
   5   2.0000     -10.314359      -280.6680
   6   2.0000     -10.305105      -280.4162
   7   2.0000     -10.304339      -280.3953
   8   2.0000     -10.298102      -280.2256
   9   2.0000     -10.298056      -280.2243
  10   2.0000     -10.297158      -280.1999
  11   2.0000     -10.294910      -280.1387
  12   2.0000     -10.287401      -279.9344
  13   2.0000     -10.286322      -279.9050
  14   2.0000     -10.285929      -279.8944
  15   2.0000     -10.273560      -279.5578
  16   2.0000      -8.081000      -219.8952
  17   2.0000      -8.080960      -219.8941
  18   2.0000      -6.039638      -164.3469
  19   2.0000      -6.039373      -164.3397
  20   2.0000      -6.035722      -164.2403
  21   2.0000      -6.035661      -164.2387
  22   2.0000      -6.031516      -164.1259
  23   2.0000      -6.031369      -164.1219
  24   2.0000      -1.012509       -27.5518
  25   2.0000      -0.987321       -26.8664
  26   2.0000      -0.914187       -24.8763
  27   2.0000      -0.898925       -24.4610
  28   2.0000      -0.867955       -23.6182
  29   2.0000      -0.846874       -23.0446
  30   2.0000      -0.841336       -22.8939
  31   2.0000      -0.812947       -22.1214
  32   2.0000      -0.784336       -21.3429
  33   2.0000      -0.773053       -21.0358
  34   2.0000      -0.712300       -19.3827
  35   2.0000      -0.698428       -19.0052
  36   2.0000      -0.692463       -18.8429
  37   2.0000      -0.659079       -17.9345
  38   2.0000      -0.642697       -17.4887
  39   2.0000      -0.615054       -16.7365
  40   2.0000      -0.584149       -15.8955
  41   2.0000      -0.570785       -15.5318
  42   2.0000      -0.555053       -15.1038
  43   2.0000      -0.548410       -14.9230
  44   2.0000      -0.538174       -14.6445
  45   2.0000      -0.535642       -14.5756
  46   2.0000      -0.519114       -14.1258
  47   2.0000      -0.513683       -13.9780
  48   2.0000      -0.508403       -13.8344
  49   2.0000      -0.484954       -13.1963
  50   2.0000      -0.479209       -13.0399
  51   2.0000      -0.476842       -12.9755
  52   2.0000      -0.468906       -12.7596
  53   2.0000      -0.467296       -12.7158
  54   2.0000      -0.463258       -12.6059
  55   2.0000      -0.446466       -12.1490
  56   2.0000      -0.445724       -12.1288
  57   2.0000      -0.442331       -12.0365
  58   2.0000      -0.432004       -11.7554
  59   2.0000      -0.420255       -11.4357
  60   2.0000      -0.417247       -11.3539
  61   2.0000      -0.415306       -11.3010
  62   2.0000      -0.411758       -11.2045
  63   2.0000      -0.330309        -8.9882
  64   2.0000      -0.327608        -8.9147
  65   2.0000      -0.325587        -8.8597
  66   2.0000      -0.302628        -8.2349
  67   0.0000       0.029384         0.7996
  68   0.0000       0.045332         1.2336
  69   0.0000       0.097160         2.6439
  70   0.0000       0.111682         3.0390
  71   0.0000       0.136505         3.7145

MULLIKEN ATOMIC CHARGES
-----------------------
   0 S :    0.112388
   1 C :   -0.086769
   2 C :   -0.130718
   3 C :    0.044726
   4 C :   -0.144240
   5 H :    0.015995
   6 C :    0.057555
   7 H :    0.018881
   8 H :    0.038837
   9 C :   -0.051061
  10 H :    0.025962
  11 H :    0.027658
  12 C :   -0.056716
  13 H :    0.024630
  14 H :    0.027492
  15 H :    0.038994
  16 S :    0.129871
  17 C :   -0.052987
  18 C :   -0.116059
  19 C :    0.003690
  20 C :   -0.209110
  21 H :    0.042088
  22 C :    0.065824
  23 H :    0.012815
  24 H :    0.035263
  25 C :   -0.039662
  26 H :    0.021082
  27 H :    0.022567
  28 C :   -0.093320
  29 H :    0.053623
  30 H :    0.033893
  31 H :    0.046558
  32 H :    0.035970
  33 H :    0.044279
Sum of atomic charges:   -0.0000000

LOEWDIN ATOMIC CHARGES
----------------------
   0 S :    0.403622
   1 C :   -0.191548
   2 C :   -0.056703
   3 C :   -0.062481
   4 C :   -0.201583
   5 H :    0.032422
   6 C :   -0.035821
   7 H :    0.027996
   8 H :    0.038214
   9 C :   -0.036692
  10 H :    0.023865
  11 H :    0.024072
  12 C :   -0.066429
  13 H :    0.022345
  14 H :    0.022287
  15 H :    0.030172
  16 S :    0.432535
  17 C :   -0.198855
  18 C :   -0.082762
  19 C :   -0.054838
  20 C :   -0.206237
  21 H :    0.038196
  22 C :   -0.034064
  23 H :    0.026741
  24 H :    0.036995
  25 C :   -0.040131
  26 H :    0.021141
  27 H :    0.020799
  28 C :   -0.071323
  29 H :    0.027952
  30 H :    0.023314
  31 H :    0.034786
  32 H :    0.028189
  33 H :    0.023826

  Mayer bond orders larger than 0.100000
B(  0-S ,  1-C ) :   1.1172 B(  0-S ,  4-C ) :   1.1571 B(  1-C ,  2-C ) :   1.6372
B(  1-C , 32-H ) :   0.9639 B(  2-C ,  3-C ) :   1.2093 B(  2-C ,  6-C ) :   1.0349
B(  3-C ,  4-C ) :   1.6136 B(  3-C ,  5-H ) :   0.9931 B(  4-C , 20-C ) :   1.0251
B(  6-C ,  7-H ) :   0.9432 B(  6-C ,  8-H ) :   0.9383 B(  6-C ,  9-C ) :   1.0676
B(  9-C , 10-H ) :   0.9551 B(  9-C , 11-H ) :   0.9571 B(  9-C , 12-C ) :   1.0760
B( 12-C , 13-H ) :   0.9708 B( 12-C , 14-H ) :   0.9760 B( 12-C , 15-H ) :   0.9711
B( 16-S , 17-C ) :   1.1879 B( 16-S , 20-C ) :   1.1370 B( 17-C , 18-C ) :   1.5673
B( 17-C , 20-C ) :   0.1176 B( 17-C , 33-H ) :   0.9682 B( 18-C , 19-C ) :   1.2681
B( 18-C , 21-H ) :   0.9808 B( 19-C , 20-C ) :   1.5631 B( 19-C , 22-C ) :   1.0257
B( 22-C , 23-H ) :   0.9397 B( 22-C , 24-H ) :   0.9349 B( 22-C , 25-C ) :   1.0602
B( 25-C , 26-H ) :   0.9571 B( 25-C , 27-H ) :   0.9569 B( 25-C , 28-C ) :   1.0643
B( 28-C , 29-H ) :   0.9797 B( 28-C , 30-H ) :   0.9775 B( 28-C , 31-H ) :   0.9753

Dispersion correction           -0.014954289
FINAL SINGLE POINT ENERGY     -1339.845504984518

DIPOLE MOMENT
-------------
                                X             Y             Z
Electronic contribution:      7.83857     -12.47615       8.26731
Nuclear contribution   :     -8.09899      13.08124      -8.29182
                        -----------------------------------------
Total Dipole Moment    :     -0.26042       0.60509      -0.02451
                        -----------------------------------------
Magnitude (a.u.)       :      0.65921
Magnitude (Debye)      :      1.67557

Rotational constants in cm-1:     0.022607     0.007792     0.006889
Rotational constants in MHz :   677.726765   233.609242   206.518729

                             ****ORCA TERMINATED NORMALLY****
TOTAL RUN TIME: 0 days 0 hours 0 minutes 22 seconds 737 msec
