                         Program Version 4.2.1 -  RELEASE  -
|  1> ! wB97X-D3 SP def2-SVP
|  2> %pal
|  3> nprocs 24
|  4> end
|  5>
|  6> * xyz 0 1
|  7> S 	 -89.4496 	 -2.88652 	 7.41957
|  8> C 	 -88.6699 	 -1.74163 	 6.33674
|  9> C 	 -87.3024 	 -1.72311 	 6.61277
| 10> C 	 -86.9006 	 -2.70859 	 7.56012
| 11> C 	 -87.9114 	 -3.44783 	 8.17096
| 12> H 	 -85.9478 	 -2.94919 	 7.88654
| 13> C 	 -86.3325 	 -0.700254 	 6.03091
| 14> H 	 -86.4672 	 -0.62724 	 4.98653
| 15> H 	 -85.3678 	 -1.13592 	 6.04257
| 16> C 	 -86.29 	 0.703008 	 6.62142
| 17> H 	 -85.6548 	 1.34854 	 6.05903
| 18> H 	 -87.2532 	 1.22468 	 6.50742
| 19> C 	 -85.8068 	 0.595675 	 8.03357
| 20> H 	 -85.8404 	 1.60601 	 8.48738
| 21> H 	 -86.5249 	 0.0638525 	 8.56108
| 22> H 	 -84.8714 	 0.103421 	 8.19815
| 23> S 	 -87.7531 	 -6.32515 	 8.22622
| 24> C 	 -87.5001 	 -7.09032 	 9.76581
| 25> C 	 -87.4222 	 -6.16734 	 10.8117
| 26> C 	 -87.6143 	 -4.78074 	 10.3459
| 27> C 	 -87.7841 	 -4.66044 	 8.93766
| 28> H 	 -87.335 	 -6.48266 	 11.8441
| 29> C 	 -87.6239 	 -3.64154 	 11.3231
| 30> H 	 -88.1279 	 -3.83848 	 12.2854
| 31> H 	 -88.2837 	 -2.91118 	 10.7916
| 32> C 	 -86.2982 	 -3.04494 	 11.698
| 33> H 	 -85.8287 	 -2.79129 	 10.7116
| 34> H 	 -85.6731 	 -3.76016 	 12.098
| 35> C 	 -86.4001 	 -1.68163 	 12.3386
| 36> H 	 -87.007 	 -1.79382 	 13.2882
| 37> H 	 -86.8176 	 -0.874481 	 11.7483
| 38> H 	 -85.4174 	 -1.38781 	 12.6673
| 39> H 	 -89.1911 	 -0.934699 	 5.82172
| 40> H 	 -87.276 	 -8.14872 	 9.86848
| 41> *
| 42>
| 43>                          ****END OF INPUT****

CARTESIAN COORDINATES (ANGSTROEM)
---------------------------------
  S    -89.449600   -2.886520    7.419570
  C    -88.669900   -1.741630    6.336740
  C    -87.302400   -1.723110    6.612770
  C    -86.900600   -2.708590    7.560120
  C    -87.911400   -3.447830    8.170960
  H    -85.947800   -2.949190    7.886540
  C    -86.332500   -0.700254    6.030910
  H    -86.467200   -0.627240    4.986530
  H    -85.367800   -1.135920    6.042570
  C    -86.290000    0.703008    6.621420
  H    -85.654800    1.348540    6.059030
  H    -87.253200    1.224680    6.507420
  C    -85.806800    0.595675    8.033570
  H    -85.840400    1.606010    8.487380
  H    -86.524900    0.063853    8.561080
  H    -84.871400    0.103421    8.198150
  S    -87.753100   -6.325150    8.226220
  C    -87.500100   -7.090320    9.765810
  C    -87.422200   -6.167340   10.811700
  C    -87.614300   -4.780740   10.345900
  C    -87.784100   -4.660440    8.937660
  H    -87.335000   -6.482660   11.844100
  C    -87.623900   -3.641540   11.323100
  H    -88.127900   -3.838480   12.285400
  H    -88.283700   -2.911180   10.791600
  C    -86.298200   -3.044940   11.698000
  H    -85.828700   -2.791290   10.711600
  H    -85.673100   -3.760160   12.098000
  C    -86.400100   -1.681630   12.338600
  H    -87.007000   -1.793820   13.288200
  H    -86.817600   -0.874481   11.748300
  H    -85.417400   -1.387810   12.667300
  H    -89.191100   -0.934699    5.821720
  H    -87.276000   -8.148720    9.868480

 Total Charge           Charge          ....    0
 Multiplicity           Mult            ....    1
 Number of Electrons    NEL             ....  134
 Basis Dimension        Dim             ....  322

ORBITAL ENERGIES
----------------

  NO   OCC          E(Eh)            E(eV)
   0   2.0000     -88.967641     -2420.9326
   1   2.0000     -88.964795     -2420.8551
   2   2.0000     -10.334123      -281.2058
   3   2.0000     -10.333780      -281.1964
   4   2.0000     -10.323529      -280.9175
   5   2.0000     -10.322177      -280.8807
   6   2.0000     -10.312820      -280.6261
   7   2.0000     -10.306118      -280.4437
   8   2.0000     -10.299626      -280.2671
   9   2.0000     -10.295045      -280.1424
  10   2.0000     -10.288335      -279.9598
  11   2.0000     -10.283304      -279.8229
  12   2.0000     -10.283168      -279.8192
  13   2.0000     -10.279200      -279.7113
  14   2.0000     -10.278315      -279.6872
  15   2.0000     -10.266849      -279.3752
  16   2.0000      -8.081487      -219.9084
  17   2.0000      -8.078572      -219.8291
  18   2.0000      -6.040179      -164.3616
  19   2.0000      -6.037149      -164.2792
  20   2.0000      -6.035993      -164.2477
  21   2.0000      -6.032943      -164.1647
  22   2.0000      -6.032213      -164.1449
  23   2.0000      -6.029550      -164.0724
  24   2.0000      -0.997727       -27.1495
  25   2.0000      -0.976492       -26.5717
  26   2.0000      -0.917439       -24.9648
  27   2.0000      -0.914713       -24.8906
  28   2.0000      -0.872179       -23.7332
  29   2.0000      -0.848170       -23.0799
  30   2.0000      -0.845491       -23.0070
  31   2.0000      -0.815297       -22.1854
  32   2.0000      -0.784990       -21.3607
  33   2.0000      -0.770702       -20.9719
  34   2.0000      -0.708799       -19.2874
  35   2.0000      -0.707132       -19.2420
  36   2.0000      -0.694948       -18.9105
  37   2.0000      -0.656438       -17.8626
  38   2.0000      -0.649635       -17.6775
  39   2.0000      -0.612803       -16.6752
  40   2.0000      -0.594944       -16.1892
  41   2.0000      -0.577382       -15.7114
  42   2.0000      -0.569124       -15.4867
  43   2.0000      -0.556846       -15.1526
  44   2.0000      -0.544077       -14.8051
  45   2.0000      -0.525156       -14.2902
  46   2.0000      -0.519244       -14.1293
  47   2.0000      -0.516590       -14.0571
  48   2.0000      -0.506803       -13.7908
  49   2.0000      -0.501691       -13.6517
  50   2.0000      -0.494560       -13.4577
  51   2.0000      -0.481313       -13.0972
  52   2.0000      -0.479571       -13.0498
  53   2.0000      -0.462854       -12.5949
  54   2.0000      -0.459168       -12.4946
  55   2.0000      -0.445125       -12.1125
  56   2.0000      -0.442390       -12.0380
  57   2.0000      -0.434106       -11.8126
  58   2.0000      -0.431035       -11.7291
  59   2.0000      -0.422810       -11.5052
  60   2.0000      -0.420020       -11.4293
  61   2.0000      -0.411685       -11.2025
  62   2.0000      -0.400504       -10.8983
  63   2.0000      -0.337975        -9.1968
  64   2.0000      -0.326572        -8.8865
  65   2.0000      -0.321134        -8.7385
  66   2.0000      -0.311309        -8.4712
  67   0.0000       0.031962         0.8697
  68   0.0000       0.042814         1.1650
  69   0.0000       0.114991         3.1291
  70   0.0000       0.116735         3.1765
  71   0.0000       0.127464         3.4685

MULLIKEN ATOMIC CHARGES
-----------------------
   0 S :    0.096613
   1 C :   -0.107657
   2 C :   -0.108599
   3 C :    0.081723
   4 C :   -0.207903
   5 H :   -0.014522
   6 C :    0.086206
   7 H :    0.010454
   8 H :    0.004111
   9 C :   -0.034469
  10 H :    0.015923
  11 H :    0.021195
  12 C :   -0.024073
  13 H :    0.028103
  14 H :    0.020739
  15 H :    0.026621
  16 S :    0.116601
  17 C :   -0.099883
  18 C :   -0.019821
  19 C :   -0.043404
  20 C :   -0.145283
  21 H :    0.024217
  22 C :    0.036053
  23 H :    0.024826
  24 H :    0.030061
  25 C :   -0.041696
  26 H :    0.014491
  27 H :    0.011216
  28 C :   -0.032957
  29 H :    0.023421
  30 H :    0.045261
  31 H :    0.026695
  32 H :    0.065783
  33 H :    0.069956
Sum of atomic charges:    0.0000000

LOEWDIN ATOMIC CHARGES
----------------------
   0 S :    0.386477
   1 C :   -0.186036
   2 C :   -0.066125
   3 C :   -0.041593
   4 C :   -0.190251
   5 H :    0.019220
   6 C :   -0.031400
   7 H :    0.026025
   8 H :    0.025775
   9 C :   -0.035090
  10 H :    0.019486
  11 H :    0.025673
  12 C :   -0.059789
  13 H :    0.029779
  14 H :    0.017657
  15 H :    0.023087
  16 S :    0.394296
  17 C :   -0.183561
  18 C :   -0.076628
  19 C :   -0.036484
  20 C :   -0.202776
  21 H :    0.031691
  22 C :   -0.042419
  23 H :    0.029429
  24 H :    0.035721
  25 C :   -0.040972
  26 H :    0.027994
  27 H :    0.013686
  28 C :   -0.060156
  29 H :    0.025608
  30 H :    0.028471
  31 H :    0.024888
  32 H :    0.034867
  33 H :    0.033451

  Mayer bond orders larger than 0.100000
B(  0-S ,  1-C ) :   1.1598 B(  0-S ,  4-C ) :   1.1288 B(  1-C ,  2-C ) :   1.5823
B(  1-C ,  4-C ) :   0.1075 B(  1-C , 32-H ) :   0.9649 B(  2-C ,  3-C ) :   1.2461
B(  2-C ,  6-C ) :   1.0204 B(  3-C ,  4-C ) :   1.5673 B(  3-C ,  5-H ) :   1.0017
B(  4-C , 20-C ) :   1.0638 B(  6-C ,  7-H ) :   0.9323 B(  6-C ,  8-H ) :   0.9376
B(  6-C ,  9-C ) :   1.0815 B(  9-C , 10-H ) :   0.9502 B(  9-C , 11-H ) :   0.9516
B(  9-C , 12-C ) :   1.0799 B( 12-C , 13-H ) :   0.9683 B( 12-C , 14-H ) :   0.9740
B( 12-C , 15-H ) :   0.9742 B( 16-S , 17-C ) :   1.1727 B( 16-S , 20-C ) :   1.1094
B( 17-C , 18-C ) :   1.6001 B( 17-C , 33-H ) :   0.9632 B( 18-C , 19-C ) :   1.2376
B( 18-C , 21-H ) :   0.9902 B( 19-C , 20-C ) :   1.5867 B( 19-C , 22-C ) :   1.0533
B( 22-C , 23-H ) :   0.9350 B( 22-C , 24-H ) :   0.9259 B( 22-C , 25-C ) :   1.0650
B( 25-C , 26-H ) :   0.9471 B( 25-C , 27-H ) :   0.9557 B( 25-C , 28-C ) :   1.0837
B( 28-C , 29-H ) :   0.9710 B( 28-C , 30-H ) :   0.9744 B( 28-C , 31-H ) :   0.9713

Dispersion correction           -0.015154614
FINAL SINGLE POINT ENERGY     -1339.865880458409

DIPOLE MOMENT
-------------
                                X             Y             Z
Electronic contribution:    -14.18665     -23.10386     -11.12473
Nuclear contribution   :     14.68490      23.49822      11.37585
                        -----------------------------------------
Total Dipole Moment    :      0.49825       0.39435       0.25113
                        -----------------------------------------
Magnitude (a.u.)       :      0.68325
Magnitude (Debye)      :      1.73668

Rotational constants in cm-1:     0.017844     0.009546     0.007147
Rotational constants in MHz :   534.957561   286.170543   214.271762

                             ****ORCA TERMINATED NORMALLY****
TOTAL RUN TIME: 0 days 0 hours 0 minutes 22 seconds 310 msec
