                         Program Version 4.2.1 -  RELEASE  -
|  1> ! wB97X-D3 SP def2-SVP
|  2> %pal
|  3> nprocs 24
|  4> end
|  5>
|  6> * xyz 0 1
|  7> S 	 -52.2304 	 12.5642 	 -100.929
|  8> C 	 -51.1238 	 12.5272 	 -99.62
|  9> C 	 -50.1884 	 11.5385 	 -99.7719
| 10> C 	 -50.5245 	 10.6247 	 -100.833
| 11> C 	 -51.5943 	 11.0473 	 -101.591
| 12> H 	 -50.0029 	 9.68532 	 -101.188
| 13> C 	 -48.9715 	 11.4059 	 -98.8085
| 14> H 	 -49.0725 	 10.3762 	 -98.5166
| 15> H 	 -49.2302 	 12.0384 	 -97.9318
| 16> C 	 -47.55 	 11.8681 	 -99.2307
| 17> H 	 -47.6553 	 12.939 	 -99.3883
| 18> H 	 -46.9763 	 11.8001 	 -98.3337
| 19> C 	 -46.8222 	 11.0985 	 -100.309
| 20> H 	 -47.2671 	 11.1027 	 -101.362
| 21> H 	 -45.8695 	 11.6438 	 -100.496
| 22> H 	 -46.5436 	 10.1307 	 -99.9604
| 23> S 	 -53.3429 	 11.6386 	 -103.643
| 24> C 	 -53.846 	 10.3288 	 -104.761
| 25> C 	 -53.1604 	 9.19716 	 -104.509
| 26> C 	 -52.2219 	 9.27049 	 -103.453
| 27> C 	 -52.232 	 10.5208 	 -102.82
| 28> H 	 -53.3313 	 8.33382 	 -105.136
| 29> C 	 -51.3771 	 8.12847 	 -103.11
| 30> H 	 -51.4758 	 7.8911 	 -102.096
| 31> H 	 -50.3791 	 8.49753 	 -103.213
| 32> C 	 -51.5332 	 6.80383 	 -103.787
| 33> H 	 -51.4213 	 7.10704 	 -104.881
| 34> H 	 -52.5866 	 6.58673 	 -103.576
| 35> C 	 -50.6075 	 5.6763 	 -103.322
| 36> H 	 -50.913 	 5.21581 	 -102.396
| 37> H 	 -49.5992 	 5.97479 	 -103.152
| 38> H 	 -50.5226 	 4.89356 	 -104.1
| 39> H 	 -50.9405 	 13.3311 	 -98.9429
| 40> H 	 -54.6114 	 10.4447 	 -105.536
| 41> *
| 42>
| 43>                          ****END OF INPUT****

CARTESIAN COORDINATES (ANGSTROEM)
---------------------------------
  S    -52.230400   12.564200  -100.929000
  C    -51.123800   12.527200  -99.620000
  C    -50.188400   11.538500  -99.771900
  C    -50.524500   10.624700  -100.833000
  C    -51.594300   11.047300  -101.591000
  H    -50.002900    9.685320  -101.188000
  C    -48.971500   11.405900  -98.808500
  H    -49.072500   10.376200  -98.516600
  H    -49.230200   12.038400  -97.931800
  C    -47.550000   11.868100  -99.230700
  H    -47.655300   12.939000  -99.388300
  H    -46.976300   11.800100  -98.333700
  C    -46.822200   11.098500  -100.309000
  H    -47.267100   11.102700  -101.362000
  H    -45.869500   11.643800  -100.496000
  H    -46.543600   10.130700  -99.960400
  S    -53.342900   11.638600  -103.643000
  C    -53.846000   10.328800  -104.761000
  C    -53.160400    9.197160  -104.509000
  C    -52.221900    9.270490  -103.453000
  C    -52.232000   10.520800  -102.820000
  H    -53.331300    8.333820  -105.136000
  C    -51.377100    8.128470  -103.110000
  H    -51.475800    7.891100  -102.096000
  H    -50.379100    8.497530  -103.213000
  C    -51.533200    6.803830  -103.787000
  H    -51.421300    7.107040  -104.881000
  H    -52.586600    6.586730  -103.576000
  C    -50.607500    5.676300  -103.322000
  H    -50.913000    5.215810  -102.396000
  H    -49.599200    5.974790  -103.152000
  H    -50.522600    4.893560  -104.100000
  H    -50.940500   13.331100  -98.942900
  H    -54.611400   10.444700  -105.536000

 Total Charge           Charge          ....    0
 Multiplicity           Mult            ....    1
 Number of Electrons    NEL             ....  134
 Basis Dimension        Dim             ....  322

ORBITAL ENERGIES
----------------

  NO   OCC          E(Eh)            E(eV)
   0   2.0000     -88.964610     -2420.8501
   1   2.0000     -88.961233     -2420.7582
   2   2.0000     -10.333164      -281.1797
   3   2.0000     -10.332705      -281.1672
   4   2.0000     -10.318733      -280.7870
   5   2.0000     -10.305203      -280.4188
   6   2.0000     -10.302820      -280.3540
   7   2.0000     -10.300872      -280.3010
   8   2.0000     -10.299085      -280.2524
   9   2.0000     -10.294209      -280.1197
  10   2.0000     -10.293941      -280.1124
  11   2.0000     -10.289765      -279.9987
  12   2.0000     -10.287305      -279.9318
  13   2.0000     -10.283914      -279.8395
  14   2.0000     -10.283104      -279.8175
  15   2.0000     -10.279331      -279.7148
  16   2.0000      -8.078364      -219.8235
  17   2.0000      -8.076445      -219.7712
  18   2.0000      -6.037009      -164.2754
  19   2.0000      -6.035027      -164.2214
  20   2.0000      -6.033128      -164.1698
  21   2.0000      -6.030946      -164.1104
  22   2.0000      -6.028927      -164.0554
  23   2.0000      -6.027039      -164.0041
  24   2.0000      -1.005610       -27.3640
  25   2.0000      -0.984360       -26.7858
  26   2.0000      -0.922704       -25.1081
  27   2.0000      -0.906000       -24.6535
  28   2.0000      -0.871031       -23.7019
  29   2.0000      -0.855283       -23.2734
  30   2.0000      -0.842574       -22.9276
  31   2.0000      -0.821346       -22.3500
  32   2.0000      -0.786864       -21.4117
  33   2.0000      -0.775494       -21.1023
  34   2.0000      -0.713166       -19.4062
  35   2.0000      -0.701559       -19.0904
  36   2.0000      -0.698961       -19.0197
  37   2.0000      -0.652396       -17.7526
  38   2.0000      -0.636918       -17.3314
  39   2.0000      -0.614210       -16.7135
  40   2.0000      -0.600567       -16.3422
  41   2.0000      -0.584129       -15.8950
  42   2.0000      -0.569406       -15.4943
  43   2.0000      -0.545837       -14.8530
  44   2.0000      -0.535960       -14.5842
  45   2.0000      -0.524711       -14.2781
  46   2.0000      -0.518163       -14.0999
  47   2.0000      -0.512784       -13.9536
  48   2.0000      -0.507377       -13.8064
  49   2.0000      -0.500704       -13.6248
  50   2.0000      -0.489732       -13.3263
  51   2.0000      -0.486842       -13.2476
  52   2.0000      -0.482024       -13.1165
  53   2.0000      -0.467169       -12.7123
  54   2.0000      -0.460904       -12.5418
  55   2.0000      -0.456198       -12.4138
  56   2.0000      -0.442617       -12.0442
  57   2.0000      -0.437648       -11.9090
  58   2.0000      -0.428650       -11.6642
  59   2.0000      -0.425319       -11.5735
  60   2.0000      -0.420792       -11.4503
  61   2.0000      -0.411591       -11.2000
  62   2.0000      -0.407060       -11.0767
  63   2.0000      -0.362973        -9.8770
  64   2.0000      -0.336398        -9.1539
  65   2.0000      -0.323573        -8.8049
  66   2.0000      -0.280800        -7.6410
  67   0.0000       0.019388         0.5276
  68   0.0000       0.080194         2.1822
  69   0.0000       0.100117         2.7243
  70   0.0000       0.127012         3.4562
  71   0.0000       0.139447         3.7946

MULLIKEN ATOMIC CHARGES
-----------------------
   0 S :    0.085256
   1 C :   -0.082548
   2 C :   -0.116257
   3 C :   -0.021586
   4 C :   -0.120699
   5 H :    0.028886
   6 C :    0.042985
   7 H :    0.025417
   8 H :    0.018599
   9 C :   -0.033040
  10 H :    0.022665
  11 H :    0.024047
  12 C :   -0.054296
  13 H :    0.052893
  14 H :    0.030831
  15 H :    0.028504
  16 S :    0.075560
  17 C :   -0.079129
  18 C :   -0.046080
  19 C :   -0.038641
  20 C :   -0.117938
  21 H :    0.020035
  22 C :    0.044526
  23 H :    0.017101
  24 H :    0.031817
  25 C :   -0.107306
  26 H :    0.040611
  27 H :    0.036588
  28 C :    0.000346
  29 H :    0.033481
  30 H :    0.017804
  31 H :    0.039400
  32 H :    0.040398
  33 H :    0.059771
Sum of atomic charges:    0.0000000

LOEWDIN ATOMIC CHARGES
----------------------
   0 S :    0.396804
   1 C :   -0.207245
   2 C :   -0.064053
   3 C :   -0.082503
   4 C :   -0.174988
   5 H :    0.040797
   6 C :   -0.030731
   7 H :    0.025933
   8 H :    0.033487
   9 C :   -0.040859
  10 H :    0.025815
  11 H :    0.026067
  12 C :   -0.073158
  13 H :    0.036133
  14 H :    0.033036
  15 H :    0.021006
  16 S :    0.368951
  17 C :   -0.166268
  18 C :   -0.076925
  19 C :   -0.053891
  20 C :   -0.180195
  21 H :    0.033738
  22 C :   -0.043210
  23 H :    0.025694
  24 H :    0.029527
  25 C :   -0.044545
  26 H :    0.029701
  27 H :    0.028049
  28 C :   -0.060208
  29 H :    0.027771
  30 H :    0.021866
  31 H :    0.035504
  32 H :    0.024580
  33 H :    0.034320

  Mayer bond orders larger than 0.100000
B(  0-S ,  1-C ) :   1.1327 B(  0-S ,  4-C ) :   1.1390 B(  1-C ,  2-C ) :   1.6489
B(  1-C , 32-H ) :   0.9604 B(  2-C ,  3-C ) :   1.2129 B(  2-C ,  6-C ) :   1.0056
B(  3-C ,  4-C ) :   1.5963 B(  3-C ,  5-H ) :   0.9789 B(  4-C , 20-C ) :   1.0738
B(  6-C ,  7-H ) :   0.9428 B(  6-C ,  8-H ) :   0.9426 B(  6-C ,  9-C ) :   1.0704
B(  9-C , 10-H ) :   0.9520 B(  9-C , 11-H ) :   0.9493 B(  9-C , 12-C ) :   1.0873
B( 12-C , 13-H ) :   0.9730 B( 12-C , 14-H ) :   0.9681 B( 12-C , 15-H ) :   0.9729
B( 16-S , 17-C ) :   1.1319 B( 16-S , 20-C ) :   1.1269 B( 17-C , 18-C ) :   1.6230
B( 17-C , 33-H ) :   0.9618 B( 18-C , 19-C ) :   1.2498 B( 18-C , 21-H ) :   0.9837
B( 19-C , 20-C ) :   1.5895 B( 19-C , 22-C ) :   1.0417 B( 22-C , 23-H ) :   0.9161
B( 22-C , 24-H ) :   0.9129 B( 22-C , 25-C ) :   1.0851 B( 25-C , 26-H ) :   0.9465
B( 25-C , 27-H ) :   0.9508 B( 25-C , 28-C ) :   1.0773 B( 28-C , 29-H ) :   0.9710
B( 28-C , 30-H ) :   0.9738 B( 28-C , 31-H ) :   0.9724

Dispersion correction           -0.013354979
FINAL SINGLE POINT ENERGY     -1339.871064288533

DIPOLE MOMENT
-------------
                                X             Y             Z
Electronic contribution:    -22.45637      19.07397      -4.57513
Nuclear contribution   :     23.05056     -19.65788       4.61849
                        -----------------------------------------
Total Dipole Moment    :      0.59419      -0.58390       0.04337
                        -----------------------------------------
Magnitude (a.u.)       :      0.83420
Magnitude (Debye)      :      2.12036

Rotational constants in cm-1:     0.016478     0.008915     0.006211
Rotational constants in MHz :   494.012815   267.266812   186.190082

                             ****ORCA TERMINATED NORMALLY****
TOTAL RUN TIME: 0 days 0 hours 0 minutes 21 seconds 103 msec
