                         Program Version 4.2.1 -  RELEASE  -
|  1> ! wB97X-D3 SP def2-SVP
|  2> %pal
|  3> nprocs 24
|  4> end
|  5>
|  6> * xyz 0 1
|  7> S 	 -146.356 	 8.2921 	 8.31728
|  8> C 	 -146.516 	 9.74431 	 7.42267
|  9> C 	 -146.872 	 10.8048 	 8.21143
| 10> C 	 -147.032 	 10.5195 	 9.58062
| 11> C 	 -146.855 	 9.13793 	 9.81003
| 12> H 	 -147.176 	 11.2335 	 10.3449
| 13> C 	 -147.016 	 12.2468 	 7.66597
| 14> H 	 -147.817 	 12.7847 	 8.09831
| 15> H 	 -147.169 	 12.2897 	 6.59725
| 16> C 	 -145.689 	 13.0767 	 7.88565
| 17> H 	 -145.323 	 13.0497 	 8.94475
| 18> H 	 -144.959 	 12.6965 	 7.12879
| 19> C 	 -145.733 	 14.5486 	 7.57859
| 20> H 	 -145.8 	 14.7188 	 6.52607
| 21> H 	 -146.623 	 14.9923 	 8.12679
| 22> H 	 -144.866 	 15.1418 	 7.77748
| 23> S 	 -147.856 	 6.9475 	 10.9299
| 24> C 	 -147.68 	 6.62095 	 12.6118
| 25> C 	 -147.034 	 7.65389 	 13.3046
| 26> C 	 -146.561 	 8.67308 	 12.4019
| 27> C 	 -146.967 	 8.44325 	 11.0524
| 28> H 	 -146.89 	 7.65813 	 14.4031
| 29> C 	 -145.673 	 9.84991 	 12.804
| 30> H 	 -145.618 	 10.6796 	 12.1095
| 31> H 	 -144.634 	 9.45663 	 12.8238
| 32> C 	 -145.959 	 10.5565 	 14.1794
| 33> H 	 -145.451 	 9.98975 	 14.9982
| 34> H 	 -146.984 	 10.654 	 14.4185
| 35> C 	 -145.469 	 12.0127 	 14.1762
| 36> H 	 -145.451 	 12.3434 	 15.2743
| 37> H 	 -146.126 	 12.6439 	 13.5411
| 38> H 	 -144.458 	 12.0539 	 13.7253
| 39> H 	 -146.259 	 9.79135 	 6.37773
| 40> H 	 -148.074 	 5.72873 	 13.0547
| 41> *
| 42>
| 43>                          ****END OF INPUT****

CARTESIAN COORDINATES (ANGSTROEM)
---------------------------------
  S    -146.356000    8.292100    8.317280
  C    -146.516000    9.744310    7.422670
  C    -146.872000   10.804800    8.211430
  C    -147.032000   10.519500    9.580620
  C    -146.855000    9.137930    9.810030
  H    -147.176000   11.233500   10.344900
  C    -147.016000   12.246800    7.665970
  H    -147.817000   12.784700    8.098310
  H    -147.169000   12.289700    6.597250
  C    -145.689000   13.076700    7.885650
  H    -145.323000   13.049700    8.944750
  H    -144.959000   12.696500    7.128790
  C    -145.733000   14.548600    7.578590
  H    -145.800000   14.718800    6.526070
  H    -146.623000   14.992300    8.126790
  H    -144.866000   15.141800    7.777480
  S    -147.856000    6.947500   10.929900
  C    -147.680000    6.620950   12.611800
  C    -147.034000    7.653890   13.304600
  C    -146.561000    8.673080   12.401900
  C    -146.967000    8.443250   11.052400
  H    -146.890000    7.658130   14.403100
  C    -145.673000    9.849910   12.804000
  H    -145.618000   10.679600   12.109500
  H    -144.634000    9.456630   12.823800
  C    -145.959000   10.556500   14.179400
  H    -145.451000    9.989750   14.998200
  H    -146.984000   10.654000   14.418500
  C    -145.469000   12.012700   14.176200
  H    -145.451000   12.343400   15.274300
  H    -146.126000   12.643900   13.541100
  H    -144.458000   12.053900   13.725300
  H    -146.259000    9.791350    6.377730
  H    -148.074000    5.728730   13.054700

 Total Charge           Charge          ....    0
 Multiplicity           Mult            ....    1
 Number of Electrons    NEL             ....  134
 Basis Dimension        Dim             ....  322

ORBITAL ENERGIES
----------------

  NO   OCC          E(Eh)            E(eV)
   0   2.0000     -88.968411     -2420.9535
   1   2.0000     -88.964575     -2420.8492
   2   2.0000     -10.332601      -281.1644
   3   2.0000     -10.324568      -280.9458
   4   2.0000     -10.316723      -280.7323
   5   2.0000     -10.311587      -280.5925
   6   2.0000     -10.309151      -280.5263
   7   2.0000     -10.301797      -280.3262
   8   2.0000     -10.299925      -280.2752
   9   2.0000     -10.296185      -280.1734
  10   2.0000     -10.294283      -280.1217
  11   2.0000     -10.292545      -280.0744
  12   2.0000     -10.290673      -280.0234
  13   2.0000     -10.289712      -279.9973
  14   2.0000     -10.287760      -279.9442
  15   2.0000     -10.274993      -279.5968
  16   2.0000      -8.083176      -219.9544
  17   2.0000      -8.080028      -219.8688
  18   2.0000      -6.041586      -164.3999
  19   2.0000      -6.038361      -164.3121
  20   2.0000      -6.037721      -164.2947
  21   2.0000      -6.034308      -164.2019
  22   2.0000      -6.033990      -164.1932
  23   2.0000      -6.031048      -164.1131
  24   2.0000      -1.006773       -27.3957
  25   2.0000      -0.983108       -26.7517
  26   2.0000      -0.906900       -24.6780
  27   2.0000      -0.904810       -24.6211
  28   2.0000      -0.871341       -23.7104
  29   2.0000      -0.855794       -23.2873
  30   2.0000      -0.848198       -23.0807
  31   2.0000      -0.812519       -22.1098
  32   2.0000      -0.780472       -21.2377
  33   2.0000      -0.765710       -20.8360
  34   2.0000      -0.703937       -19.1551
  35   2.0000      -0.696909       -18.9638
  36   2.0000      -0.688895       -18.7458
  37   2.0000      -0.659244       -17.9389
  38   2.0000      -0.642282       -17.4774
  39   2.0000      -0.623916       -16.9776
  40   2.0000      -0.600037       -16.3278
  41   2.0000      -0.573279       -15.5997
  42   2.0000      -0.566483       -15.4148
  43   2.0000      -0.558069       -15.1858
  44   2.0000      -0.525396       -14.2967
  45   2.0000      -0.521902       -14.2017
  46   2.0000      -0.518072       -14.0975
  47   2.0000      -0.512015       -13.9326
  48   2.0000      -0.502633       -13.6774
  49   2.0000      -0.496257       -13.5038
  50   2.0000      -0.494576       -13.4581
  51   2.0000      -0.479673       -13.0526
  52   2.0000      -0.477199       -12.9852
  53   2.0000      -0.468091       -12.7374
  54   2.0000      -0.462052       -12.5731
  55   2.0000      -0.450512       -12.2590
  56   2.0000      -0.444980       -12.1085
  57   2.0000      -0.432782       -11.7766
  58   2.0000      -0.430024       -11.7015
  59   2.0000      -0.427099       -11.6220
  60   2.0000      -0.421868       -11.4796
  61   2.0000      -0.411484       -11.1971
  62   2.0000      -0.409652       -11.1472
  63   2.0000      -0.349729        -9.5166
  64   2.0000      -0.333378        -9.0717
  65   2.0000      -0.330135        -8.9834
  66   2.0000      -0.282218        -7.6795
  67   0.0000       0.025209         0.6860
  68   0.0000       0.070557         1.9199
  69   0.0000       0.111090         3.0229
  70   0.0000       0.120640         3.2828
  71   0.0000       0.125423         3.4129

MULLIKEN ATOMIC CHARGES
-----------------------
   0 S :    0.120686
   1 C :   -0.124448
   2 C :   -0.055054
   3 C :    0.047890
   4 C :   -0.153087
   5 H :    0.001938
   6 C :    0.090910
   7 H :    0.012238
   8 H :    0.014656
   9 C :   -0.114227
  10 H :    0.039087
  11 H :    0.033156
  12 C :   -0.042198
  13 H :    0.013908
  14 H :    0.031558
  15 H :    0.030240
  16 S :    0.109022
  17 C :   -0.087347
  18 C :   -0.044644
  19 C :   -0.016194
  20 C :   -0.165080
  21 H :    0.036966
  22 C :    0.046556
  23 H :    0.010786
  24 H :    0.049450
  25 C :   -0.089766
  26 H :    0.037788
  27 H :    0.029504
  28 C :   -0.098492
  29 H :    0.052828
  30 H :    0.042525
  31 H :    0.038331
  32 H :    0.046426
  33 H :    0.054090
Sum of atomic charges:   -0.0000000

LOEWDIN ATOMIC CHARGES
----------------------
   0 S :    0.411666
   1 C :   -0.207624
   2 C :   -0.061008
   3 C :   -0.050391
   4 C :   -0.183552
   5 H :    0.026108
   6 C :   -0.021890
   7 H :    0.020057
   8 H :    0.027658
   9 C :   -0.047076
  10 H :    0.026103
  11 H :    0.028088
  12 C :   -0.074437
  13 H :    0.017930
  14 H :    0.027947
  15 H :    0.025250
  16 S :    0.427346
  17 C :   -0.191812
  18 C :   -0.074691
  19 C :   -0.052290
  20 C :   -0.208657
  21 H :    0.039227
  22 C :   -0.036063
  23 H :    0.024120
  24 H :    0.042951
  25 C :   -0.045073
  26 H :    0.025139
  27 H :    0.018465
  28 C :   -0.072160
  29 H :    0.037982
  30 H :    0.025485
  31 H :    0.023990
  32 H :    0.027192
  33 H :    0.024018

  Mayer bond orders larger than 0.100000
B(  0-S ,  1-C ) :   1.1399 B(  0-S ,  4-C ) :   1.1611 B(  1-C ,  2-C ) :   1.5991
B(  1-C ,  4-C ) :   0.1002 B(  1-C , 32-H ) :   0.9693 B(  2-C ,  3-C ) :   1.2627
B(  2-C ,  6-C ) :   1.0312 B(  3-C ,  4-C ) :   1.5288 B(  3-C ,  5-H ) :   1.0026
B(  4-C , 20-C ) :   1.0769 B(  6-C ,  7-H ) :   0.9440 B(  6-C ,  8-H ) :   0.9441
B(  6-C ,  9-C ) :   1.0490 B(  9-C , 10-H ) :   0.9619 B(  9-C , 11-H ) :   0.9589
B(  9-C , 12-C ) :   1.0854 B( 12-C , 13-H ) :   0.9729 B( 12-C , 14-H ) :   0.9717
B( 12-C , 15-H ) :   0.9717 B( 16-S , 17-C ) :   1.1792 B( 16-S , 20-C ) :   1.1545
B( 17-C , 18-C ) :   1.5653 B( 17-C , 20-C ) :   0.1057 B( 17-C , 33-H ) :   0.9716
B( 18-C , 19-C ) :   1.2661 B( 18-C , 21-H ) :   0.9863 B( 19-C , 20-C ) :   1.5462
B( 19-C , 22-C ) :   1.0374 B( 22-C , 23-H ) :   0.9511 B( 22-C , 24-H ) :   0.9233
B( 22-C , 25-C ) :   1.0481 B( 25-C , 26-H ) :   0.9530 B( 25-C , 27-H ) :   0.9651
B( 25-C , 28-C ) :   1.0873 B( 28-C , 29-H ) :   0.9729 B( 28-C , 30-H ) :   0.9742
B( 28-C , 31-H ) :   0.9742

Dispersion correction           -0.013459912
FINAL SINGLE POINT ENERGY     -1339.877469766863

DIPOLE MOMENT
-------------
                                X             Y             Z
Electronic contribution:     -8.85209     -31.01665      -6.81089
Nuclear contribution   :      9.06496      31.54604       7.05469
                        -----------------------------------------
Total Dipole Moment    :      0.21287       0.52939       0.24380
                        -----------------------------------------
Magnitude (a.u.)       :      0.62048
Magnitude (Debye)      :      1.57715

Rotational constants in cm-1:     0.016559     0.009023     0.006128
Rotational constants in MHz :   496.425347   270.510634   183.709173

                             ****ORCA TERMINATED NORMALLY****
TOTAL RUN TIME: 0 days 0 hours 0 minutes 21 seconds 116 msec
