                         Program Version 4.2.1 -  RELEASE  -
|  1> ! wB97X-D3 SP def2-SVP
|  2> %pal
|  3> nprocs 24
|  4> end
|  5>
|  6> * xyz 0 1
|  7> S 	 -103.336 	 35.587 	 -14.2481
|  8> C 	 -104.054 	 36.5274 	 -15.5714
|  9> C 	 -105.069 	 37.2885 	 -15.1201
| 10> C 	 -105.292 	 37.0758 	 -13.7241
| 11> C 	 -104.404 	 36.2457 	 -13.095
| 12> H 	 -106.021 	 37.4647 	 -13.0939
| 13> C 	 -105.99 	 38.1794 	 -16.0106
| 14> H 	 -105.406 	 38.7553 	 -16.7127
| 15> H 	 -106.49 	 38.919 	 -15.3168
| 16> C 	 -107.228 	 37.5779 	 -16.6827
| 17> H 	 -106.86 	 37.1272 	 -17.6193
| 18> H 	 -107.693 	 36.828 	 -16.0846
| 19> C 	 -108.201 	 38.6869 	 -17.2735
| 20> H 	 -108.502 	 39.2141 	 -16.3943
| 21> H 	 -107.74 	 39.4277 	 -17.9409
| 22> H 	 -109.105 	 38.2853 	 -17.7522
| 23> S 	 -104.587 	 37.1341 	 -10.437
| 24> C 	 -104.642 	 36.0344 	 -9.11662
| 25> C 	 -104.56 	 34.6941 	 -9.5947
| 26> C 	 -104.292 	 34.6501 	 -11.0069
| 27> C 	 -104.42 	 35.8712 	 -11.6972
| 28> H 	 -104.653 	 33.8576 	 -8.96063
| 29> C 	 -104.052 	 33.4312 	 -11.7885
| 30> H 	 -103.119 	 33.7255 	 -12.2808
| 31> H 	 -104.844 	 33.4642 	 -12.6251
| 32> C 	 -103.857 	 32.0751 	 -11.0675
| 33> H 	 -104.656 	 31.8913 	 -10.3558
| 34> H 	 -102.93 	 32.0673 	 -10.4513
| 35> C 	 -103.889 	 30.9664 	 -12.0395
| 36> H 	 -103.704 	 30.0536 	 -11.4299
| 37> H 	 -103.073 	 31.1091 	 -12.6739
| 38> H 	 -104.739 	 30.8645 	 -12.715
| 39> H 	 -103.73 	 36.5128 	 -16.6028
| 40> H 	 -104.866 	 36.3317 	 -8.08008
| 41> *
| 42>
| 43>                          ****END OF INPUT****

CARTESIAN COORDINATES (ANGSTROEM)
---------------------------------
  S    -103.336000   35.587000  -14.248100
  C    -104.054000   36.527400  -15.571400
  C    -105.069000   37.288500  -15.120100
  C    -105.292000   37.075800  -13.724100
  C    -104.404000   36.245700  -13.095000
  H    -106.021000   37.464700  -13.093900
  C    -105.990000   38.179400  -16.010600
  H    -105.406000   38.755300  -16.712700
  H    -106.490000   38.919000  -15.316800
  C    -107.228000   37.577900  -16.682700
  H    -106.860000   37.127200  -17.619300
  H    -107.693000   36.828000  -16.084600
  C    -108.201000   38.686900  -17.273500
  H    -108.502000   39.214100  -16.394300
  H    -107.740000   39.427700  -17.940900
  H    -109.105000   38.285300  -17.752200
  S    -104.587000   37.134100  -10.437000
  C    -104.642000   36.034400   -9.116620
  C    -104.560000   34.694100   -9.594700
  C    -104.292000   34.650100  -11.006900
  C    -104.420000   35.871200  -11.697200
  H    -104.653000   33.857600   -8.960630
  C    -104.052000   33.431200  -11.788500
  H    -103.119000   33.725500  -12.280800
  H    -104.844000   33.464200  -12.625100
  C    -103.857000   32.075100  -11.067500
  H    -104.656000   31.891300  -10.355800
  H    -102.930000   32.067300  -10.451300
  C    -103.889000   30.966400  -12.039500
  H    -103.704000   30.053600  -11.429900
  H    -103.073000   31.109100  -12.673900
  H    -104.739000   30.864500  -12.715000
  H    -103.730000   36.512800  -16.602800
  H    -104.866000   36.331700   -8.080080

 Total Charge           Charge          ....    0
 Multiplicity           Mult            ....    1
 Number of Electrons    NEL             ....  134
 Basis Dimension        Dim             ....  322

ORBITAL ENERGIES
----------------

  NO   OCC          E(Eh)            E(eV)
   0   2.0000     -88.966330     -2420.8969
   1   2.0000     -88.965211     -2420.8665
   2   2.0000     -10.327035      -281.0129
   3   2.0000     -10.326516      -280.9988
   4   2.0000     -10.323712      -280.9225
   5   2.0000     -10.314213      -280.6640
   6   2.0000     -10.303863      -280.3824
   7   2.0000     -10.303845      -280.3819
   8   2.0000     -10.299221      -280.2561
   9   2.0000     -10.296644      -280.1859
  10   2.0000     -10.291496      -280.0458
  11   2.0000     -10.289666      -279.9960
  12   2.0000     -10.287688      -279.9422
  13   2.0000     -10.286945      -279.9220
  14   2.0000     -10.283152      -279.8188
  15   2.0000     -10.270487      -279.4742
  16   2.0000      -8.081270      -219.9025
  17   2.0000      -8.079386      -219.8513
  18   2.0000      -6.039889      -164.3537
  19   2.0000      -6.037914      -164.3000
  20   2.0000      -6.035663      -164.2388
  21   2.0000      -6.033660      -164.1842
  22   2.0000      -6.031988      -164.1387
  23   2.0000      -6.030489      -164.0980
  24   2.0000      -1.010921       -27.5086
  25   2.0000      -0.984022       -26.7766
  26   2.0000      -0.915948       -24.9242
  27   2.0000      -0.908211       -24.7137
  28   2.0000      -0.873807       -23.7775
  29   2.0000      -0.858679       -23.3658
  30   2.0000      -0.845712       -23.0130
  31   2.0000      -0.813174       -22.1276
  32   2.0000      -0.782150       -21.2834
  33   2.0000      -0.769997       -20.9527
  34   2.0000      -0.709398       -19.3037
  35   2.0000      -0.702845       -19.1254
  36   2.0000      -0.697495       -18.9798
  37   2.0000      -0.659554       -17.9474
  38   2.0000      -0.640511       -17.4292
  39   2.0000      -0.616587       -16.7782
  40   2.0000      -0.593839       -16.1592
  41   2.0000      -0.574021       -15.6199
  42   2.0000      -0.568937       -15.4815
  43   2.0000      -0.565509       -15.3883
  44   2.0000      -0.538154       -14.6439
  45   2.0000      -0.522324       -14.2131
  46   2.0000      -0.521315       -14.1857
  47   2.0000      -0.514482       -13.9998
  48   2.0000      -0.505240       -13.7483
  49   2.0000      -0.503776       -13.7085
  50   2.0000      -0.494109       -13.4454
  51   2.0000      -0.480252       -13.0683
  52   2.0000      -0.472753       -12.8643
  53   2.0000      -0.465518       -12.6674
  54   2.0000      -0.462323       -12.5804
  55   2.0000      -0.447456       -12.1759
  56   2.0000      -0.446149       -12.1403
  57   2.0000      -0.445436       -12.1209
  58   2.0000      -0.437055       -11.8929
  59   2.0000      -0.429436       -11.6855
  60   2.0000      -0.415342       -11.3020
  61   2.0000      -0.407509       -11.0889
  62   2.0000      -0.399235       -10.8637
  63   2.0000      -0.350893        -9.5483
  64   2.0000      -0.333260        -9.0685
  65   2.0000      -0.325164        -8.8482
  66   2.0000      -0.288452        -7.8492
  67   0.0000       0.025357         0.6900
  68   0.0000       0.075595         2.0571
  69   0.0000       0.115239         3.1358
  70   0.0000       0.118608         3.2275
  71   0.0000       0.123897         3.3714

MULLIKEN ATOMIC CHARGES
-----------------------
   0 S :    0.093132
   1 C :   -0.121805
   2 C :   -0.037406
   3 C :    0.027689
   4 C :   -0.143555
   5 H :   -0.020466
   6 C :    0.040288
   7 H :    0.027616
   8 H :    0.021087
   9 C :   -0.050994
  10 H :    0.023884
  11 H :    0.035698
  12 C :   -0.069922
  13 H :    0.020676
  14 H :    0.039807
  15 H :    0.046010
  16 S :    0.107822
  17 C :   -0.097468
  18 C :   -0.032058
  19 C :   -0.037703
  20 C :   -0.150032
  21 H :    0.006197
  22 C :   -0.019352
  23 H :    0.041954
  24 H :    0.061677
  25 C :   -0.067408
  26 H :    0.025084
  27 H :    0.039095
  28 C :   -0.004456
  29 H :    0.032659
  30 H :    0.007537
  31 H :    0.036223
  32 H :    0.045239
  33 H :    0.073249
Sum of atomic charges:   -0.0000000

LOEWDIN ATOMIC CHARGES
----------------------
   0 S :    0.417991
   1 C :   -0.181832
   2 C :   -0.063448
   3 C :   -0.060300
   4 C :   -0.204994
   5 H :    0.017229
   6 C :   -0.031414
   7 H :    0.027707
   8 H :    0.032477
   9 C :   -0.036838
  10 H :    0.022069
  11 H :    0.022576
  12 C :   -0.065757
  13 H :    0.017325
  14 H :    0.028373
  15 H :    0.030577
  16 S :    0.413701
  17 C :   -0.197809
  18 C :   -0.074249
  19 C :   -0.052980
  20 C :   -0.200242
  21 H :    0.022958
  22 C :   -0.052448
  23 H :    0.029973
  24 H :    0.045572
  25 C :   -0.043091
  26 H :    0.019091
  27 H :    0.033225
  28 C :   -0.059739
  29 H :    0.032385
  30 H :    0.016748
  31 H :    0.027967
  32 H :    0.030598
  33 H :    0.036598

  Mayer bond orders larger than 0.100000
B(  0-S ,  1-C ) :   1.1284 B(  0-S ,  4-C ) :   1.1432 B(  1-C ,  2-C ) :   1.6305
B(  1-C , 32-H ) :   0.9723 B(  2-C ,  3-C ) :   1.2196 B(  2-C ,  6-C ) :   1.0132
B(  3-C ,  4-C ) :   1.5818 B(  3-C ,  5-H ) :   1.0088 B(  4-C , 20-C ) :   1.0527
B(  6-C ,  7-H ) :   0.9440 B(  6-C ,  8-H ) :   0.9466 B(  6-C ,  9-C ) :   1.0589
B(  9-C , 10-H ) :   0.9564 B(  9-C , 11-H ) :   0.9605 B(  9-C , 12-C ) :   1.0618
B( 12-C , 13-H ) :   0.9784 B( 12-C , 14-H ) :   0.9776 B( 12-C , 15-H ) :   0.9759
B( 16-S , 17-C ) :   1.1979 B( 16-S , 20-C ) :   1.1311 B( 17-C , 18-C ) :   1.5291
B( 17-C , 20-C ) :   0.1116 B( 17-C , 33-H ) :   0.9631 B( 18-C , 19-C ) :   1.2869
B( 18-C , 21-H ) :   0.9968 B( 19-C , 20-C ) :   1.5327 B( 19-C , 22-C ) :   1.0342
B( 22-C , 23-H ) :   0.9221 B( 22-C , 24-H ) :   0.9351 B( 22-C , 25-C ) :   1.0733
B( 25-C , 26-H ) :   0.9512 B( 25-C , 27-H ) :   0.9471 B( 25-C , 28-C ) :   1.0939
B( 28-C , 29-H ) :   0.9693 B( 28-C , 30-H ) :   0.9685 B( 28-C , 31-H ) :   0.9750

Dispersion correction           -0.013295608
FINAL SINGLE POINT ENERGY     -1339.863869694047

DIPOLE MOMENT
-------------
                                X             Y             Z
Electronic contribution:     11.33189       8.07527      12.66013
Nuclear contribution   :    -11.65306      -8.31724     -12.82159
                        -----------------------------------------
Total Dipole Moment    :     -0.32117      -0.24198      -0.16147
                        -----------------------------------------
Magnitude (a.u.)       :      0.43333
Magnitude (Debye)      :      1.10144

Rotational constants in cm-1:     0.020019     0.007188     0.006032
Rotational constants in MHz :   600.157982   215.500735   180.836891

                             ****ORCA TERMINATED NORMALLY****
TOTAL RUN TIME: 0 days 0 hours 0 minutes 20 seconds 778 msec
