                         Program Version 4.2.1 -  RELEASE  -
|  1> ! wB97X-D3 SP def2-SVP
|  2> %pal
|  3> nprocs 24
|  4> end
|  5>
|  6> * xyz 0 1
|  7> S 	 -44.3914 	 17.2643 	 28.0669
|  8> C 	 -44.8071 	 18.9317 	 27.6893
|  9> C 	 -45.5291 	 19.5601 	 28.7022
| 10> C 	 -45.8051 	 18.6122 	 29.7866
| 11> C 	 -45.2153 	 17.3549 	 29.6066
| 12> H 	 -46.296 	 18.8129 	 30.6971
| 13> C 	 -45.988 	 20.9617 	 28.649
| 14> H 	 -46.6181 	 21.0877 	 29.5364
| 15> H 	 -46.509 	 21.1494 	 27.7476
| 16> C 	 -44.8715 	 22.0479 	 28.6949
| 17> H 	 -44.2706 	 22.0645 	 27.7791
| 18> H 	 -45.3671 	 23.0515 	 28.5526
| 19> C 	 -44.0071 	 21.8329 	 29.9069
| 20> H 	 -43.3139 	 20.9578 	 29.7963
| 21> H 	 -43.1402 	 22.52 	 29.964
| 22> H 	 -44.5809 	 21.9836 	 30.8082
| 23> S 	 -46.7094 	 15.6803 	 31.1527
| 24> C 	 -46.0184 	 14.5787 	 32.2866
| 25> C 	 -44.6301 	 14.7128 	 32.2882
| 26> C 	 -44.2036 	 15.6999 	 31.3483
| 27> C 	 -45.1446 	 16.233 	 30.5877
| 28> H 	 -44.0935 	 13.9771 	 32.8793
| 29> C 	 -42.7128 	 15.9437 	 31.1681
| 30> H 	 -42.5258 	 16.7835 	 30.4111
| 31> H 	 -42.3634 	 15.0723 	 30.7011
| 32> C 	 -41.9235 	 16.3275 	 32.4172
| 33> H 	 -41.9538 	 15.3737 	 33.0404
| 34> H 	 -42.3341 	 17.0726 	 33.0317
| 35> C 	 -40.437 	 16.6923 	 32.1674
| 36> H 	 -39.9415 	 15.9343 	 31.6462
| 37> H 	 -39.8514 	 16.7993 	 33.0822
| 38> H 	 -40.2948 	 17.5923 	 31.5056
| 39> H 	 -44.4955 	 19.4475 	 26.7676
| 40> H 	 -46.5238 	 13.8095 	 32.8734
| 41> *
| 42>
| 43>                          ****END OF INPUT****

CARTESIAN COORDINATES (ANGSTROEM)
---------------------------------
  S    -44.391400   17.264300   28.066900
  C    -44.807100   18.931700   27.689300
  C    -45.529100   19.560100   28.702200
  C    -45.805100   18.612200   29.786600
  C    -45.215300   17.354900   29.606600
  H    -46.296000   18.812900   30.697100
  C    -45.988000   20.961700   28.649000
  H    -46.618100   21.087700   29.536400
  H    -46.509000   21.149400   27.747600
  C    -44.871500   22.047900   28.694900
  H    -44.270600   22.064500   27.779100
  H    -45.367100   23.051500   28.552600
  C    -44.007100   21.832900   29.906900
  H    -43.313900   20.957800   29.796300
  H    -43.140200   22.520000   29.964000
  H    -44.580900   21.983600   30.808200
  S    -46.709400   15.680300   31.152700
  C    -46.018400   14.578700   32.286600
  C    -44.630100   14.712800   32.288200
  C    -44.203600   15.699900   31.348300
  C    -45.144600   16.233000   30.587700
  H    -44.093500   13.977100   32.879300
  C    -42.712800   15.943700   31.168100
  H    -42.525800   16.783500   30.411100
  H    -42.363400   15.072300   30.701100
  C    -41.923500   16.327500   32.417200
  H    -41.953800   15.373700   33.040400
  H    -42.334100   17.072600   33.031700
  C    -40.437000   16.692300   32.167400
  H    -39.941500   15.934300   31.646200
  H    -39.851400   16.799300   33.082200
  H    -40.294800   17.592300   31.505600
  H    -44.495500   19.447500   26.767600
  H    -46.523800   13.809500   32.873400

 Total Charge           Charge          ....    0
 Multiplicity           Mult            ....    1
 Number of Electrons    NEL             ....  134
 Basis Dimension        Dim             ....  322

ORBITAL ENERGIES
----------------

  NO   OCC          E(Eh)            E(eV)
   0   2.0000     -88.967888     -2420.9393
   1   2.0000     -88.960093     -2420.7272
   2   2.0000     -10.333869      -281.1989
   3   2.0000     -10.322502      -280.8896
   4   2.0000     -10.317855      -280.7631
   5   2.0000     -10.315555      -280.7005
   6   2.0000     -10.303316      -280.3675
   7   2.0000     -10.298562      -280.2381
   8   2.0000     -10.296974      -280.1949
   9   2.0000     -10.293762      -280.1075
  10   2.0000     -10.291707      -280.0516
  11   2.0000     -10.288201      -279.9562
  12   2.0000     -10.287683      -279.9421
  13   2.0000     -10.286086      -279.8986
  14   2.0000     -10.278476      -279.6916
  15   2.0000     -10.275861      -279.6204
  16   2.0000      -8.082002      -219.9225
  17   2.0000      -8.075490      -219.7452
  18   2.0000      -6.040505      -164.3705
  19   2.0000      -6.036513      -164.2619
  20   2.0000      -6.034012      -164.1938
  21   2.0000      -6.032896      -164.1634
  22   2.0000      -6.029794      -164.0790
  23   2.0000      -6.026290      -163.9837
  24   2.0000      -1.008708       -27.4483
  25   2.0000      -0.983089       -26.7512
  26   2.0000      -0.915358       -24.9082
  27   2.0000      -0.905561       -24.6416
  28   2.0000      -0.866073       -23.5670
  29   2.0000      -0.849219       -23.1084
  30   2.0000      -0.845337       -23.0028
  31   2.0000      -0.813435       -22.1347
  32   2.0000      -0.782366       -21.2893
  33   2.0000      -0.774020       -21.0622
  34   2.0000      -0.705720       -19.2036
  35   2.0000      -0.702642       -19.1199
  36   2.0000      -0.694300       -18.8929
  37   2.0000      -0.662402       -18.0249
  38   2.0000      -0.640285       -17.4230
  39   2.0000      -0.610216       -16.6048
  40   2.0000      -0.592124       -16.1125
  41   2.0000      -0.576449       -15.6860
  42   2.0000      -0.562948       -15.3186
  43   2.0000      -0.559222       -15.2172
  44   2.0000      -0.539367       -14.6769
  45   2.0000      -0.526417       -14.3245
  46   2.0000      -0.519040       -14.1238
  47   2.0000      -0.515909       -14.0386
  48   2.0000      -0.510710       -13.8971
  49   2.0000      -0.495131       -13.4732
  50   2.0000      -0.482562       -13.1312
  51   2.0000      -0.475029       -12.9262
  52   2.0000      -0.470098       -12.7920
  53   2.0000      -0.463761       -12.6196
  54   2.0000      -0.459284       -12.4978
  55   2.0000      -0.449210       -12.2236
  56   2.0000      -0.443816       -12.0769
  57   2.0000      -0.439954       -11.9718
  58   2.0000      -0.434816       -11.8319
  59   2.0000      -0.419414       -11.4128
  60   2.0000      -0.413096       -11.2409
  61   2.0000      -0.407749       -11.0954
  62   2.0000      -0.403876       -10.9900
  63   2.0000      -0.343570        -9.3490
  64   2.0000      -0.329875        -8.9764
  65   2.0000      -0.325904        -8.8683
  66   2.0000      -0.301023        -8.1913
  67   0.0000       0.040348         1.0979
  68   0.0000       0.065460         1.7812
  69   0.0000       0.113200         3.0803
  70   0.0000       0.118173         3.2156
  71   0.0000       0.132558         3.6071

MULLIKEN ATOMIC CHARGES
-----------------------
   0 S :    0.115108
   1 C :   -0.135293
   2 C :   -0.102274
   3 C :    0.066727
   4 C :   -0.170082
   5 H :   -0.003050
   6 C :    0.094117
   7 H :    0.022985
   8 H :    0.029139
   9 C :   -0.091204
  10 H :    0.016872
  11 H :    0.032853
  12 C :   -0.046044
  13 H :    0.051233
  14 H :    0.017417
  15 H :    0.040154
  16 S :    0.094305
  17 C :   -0.096125
  18 C :   -0.050805
  19 C :    0.002476
  20 C :   -0.153994
  21 H :    0.027297
  22 C :    0.054324
  23 H :    0.027094
  24 H :    0.026816
  25 C :   -0.086150
  26 H :    0.026834
  27 H :    0.028875
  28 C :   -0.035554
  29 H :    0.008140
  30 H :    0.034811
  31 H :    0.036545
  32 H :    0.054792
  33 H :    0.061661
Sum of atomic charges:    0.0000000

LOEWDIN ATOMIC CHARGES
----------------------
   0 S :    0.409689
   1 C :   -0.200061
   2 C :   -0.059419
   3 C :   -0.054413
   4 C :   -0.194861
   5 H :    0.022344
   6 C :   -0.031227
   7 H :    0.032491
   8 H :    0.030495
   9 C :   -0.045738
  10 H :    0.020074
  11 H :    0.029167
  12 C :   -0.079162
  13 H :    0.042338
  14 H :    0.027906
  15 H :    0.026010
  16 S :    0.411153
  17 C :   -0.187493
  18 C :   -0.078173
  19 C :   -0.059678
  20 C :   -0.198594
  21 H :    0.033684
  22 C :   -0.031049
  23 H :    0.028912
  24 H :    0.025994
  25 C :   -0.038732
  26 H :    0.027308
  27 H :    0.018728
  28 C :   -0.066623
  29 H :    0.014706
  30 H :    0.028655
  31 H :    0.030307
  32 H :    0.030896
  33 H :    0.034366

  Mayer bond orders larger than 0.100000
B(  0-S ,  1-C ) :   1.1409 B(  0-S ,  4-C ) :   1.1558 B(  1-C ,  2-C ) :   1.6060
B(  1-C , 32-H ) :   0.9667 B(  2-C ,  3-C ) :   1.2261 B(  2-C ,  6-C ) :   1.0262
B(  3-C ,  4-C ) :   1.5935 B(  3-C ,  5-H ) :   0.9945 B(  4-C , 20-C ) :   0.9757
B(  6-C ,  7-H ) :   0.9419 B(  6-C ,  8-H ) :   0.9337 B(  6-C ,  9-C ) :   1.0733
B(  9-C , 10-H ) :   0.9522 B(  9-C , 11-H ) :   0.9566 B(  9-C , 12-C ) :   1.0809
B( 12-C , 13-H ) :   0.9612 B( 12-C , 14-H ) :   0.9658 B( 12-C , 15-H ) :   0.9782
B( 16-S , 17-C ) :   1.1708 B( 16-S , 20-C ) :   1.1166 B( 17-C , 18-C ) :   1.6191
B( 17-C , 33-H ) :   0.9646 B( 18-C , 19-C ) :   1.1998 B( 18-C , 21-H ) :   0.9937
B( 19-C , 20-C ) :   1.6687 B( 19-C , 22-C ) :   1.0263 B( 22-C , 23-H ) :   0.9408
B( 22-C , 24-H ) :   0.9380 B( 22-C , 25-C ) :   1.0523 B( 25-C , 26-H ) :   0.9503
B( 25-C , 27-H ) :   0.9640 B( 25-C , 28-C ) :   1.0876 B( 28-C , 29-H ) :   0.9721
B( 28-C , 30-H ) :   0.9743 B( 28-C , 31-H ) :   0.9735

Dispersion correction           -0.014337576
FINAL SINGLE POINT ENERGY     -1339.870490326632

DIPOLE MOMENT
-------------
                                X             Y             Z
Electronic contribution:    -17.24176     -16.65061      -6.66523
Nuclear contribution   :     17.59476      16.95818       6.84471
                        -----------------------------------------
Total Dipole Moment    :      0.35300       0.30757       0.17948
                        -----------------------------------------
Magnitude (a.u.)       :      0.50142
Magnitude (Debye)      :      1.27451

Rotational constants in cm-1:     0.017685     0.008721     0.007085
Rotational constants in MHz :   530.177556   261.445638   212.389354

                             ****ORCA TERMINATED NORMALLY****
TOTAL RUN TIME: 0 days 0 hours 0 minutes 21 seconds 335 msec
