                         Program Version 4.2.1 -  RELEASE  -
|  1> ! wB97X-D3 SP def2-SVP
|  2> %pal
|  3> nprocs 24
|  4> end
|  5>
|  6> * xyz 0 1
|  7> S 	 -95.4635 	 8.7323 	 -3.19134
|  8> C 	 -96.9047 	 8.11542 	 -3.928
|  9> C 	 -96.6449 	 7.43567 	 -5.0627
| 10> C 	 -95.2533 	 7.16046 	 -5.20251
| 11> C 	 -94.5137 	 7.62135 	 -4.15383
| 12> H 	 -94.78 	 6.54669 	 -5.93772
| 13> C 	 -97.6349 	 7.1186 	 -6.09547
| 14> H 	 -98.5093 	 7.74112 	 -5.97042
| 15> H 	 -97.9972 	 6.05081 	 -6.16247
| 16> C 	 -97.2378 	 7.59434 	 -7.54303
| 17> H 	 -96.9922 	 8.67333 	 -7.43656
| 18> H 	 -96.3272 	 7.07414 	 -7.76837
| 19> C 	 -98.2838 	 7.38959 	 -8.64214
| 20> H 	 -98.4409 	 6.34465 	 -8.74404
| 21> H 	 -99.186 	 7.83077 	 -8.44968
| 22> H 	 -97.8589 	 7.80151 	 -9.51427
| 23> S 	 -92.3539 	 5.89674 	 -3.20484
| 24> C 	 -90.6863 	 6.55075 	 -3.2232
| 25> C 	 -90.6346 	 7.80915 	 -3.69827
| 26> C 	 -91.9738 	 8.33823 	 -4.07748
| 27> C 	 -93.0395 	 7.44413 	 -3.8037
| 28> H 	 -89.6533 	 8.22837 	 -3.82899
| 29> C 	 -92.1524 	 9.69702 	 -4.72614
| 30> H 	 -91.2418 	 10.253 	 -4.64718
| 31> H 	 -92.9176 	 10.2715 	 -4.18864
| 32> C 	 -92.5021 	 9.6058 	 -6.15863
| 33> H 	 -93.094 	 8.75477 	 -6.31913
| 34> H 	 -91.7165 	 9.40898 	 -6.84748
| 35> C 	 -93.1175 	 10.9229 	 -6.66545
| 36> H 	 -92.4932 	 11.774 	 -6.30227
| 37> H 	 -94.0632 	 11.0319 	 -6.20541
| 38> H 	 -93.1208 	 10.937 	 -7.77642
| 39> H 	 -97.9448 	 8.56116 	 -3.88833
| 40> H 	 -89.7666 	 5.99965 	 -2.91662
| 41> *
| 42>
| 43>                          ****END OF INPUT****

CARTESIAN COORDINATES (ANGSTROEM)
---------------------------------
  S    -95.463500    8.732300   -3.191340
  C    -96.904700    8.115420   -3.928000
  C    -96.644900    7.435670   -5.062700
  C    -95.253300    7.160460   -5.202510
  C    -94.513700    7.621350   -4.153830
  H    -94.780000    6.546690   -5.937720
  C    -97.634900    7.118600   -6.095470
  H    -98.509300    7.741120   -5.970420
  H    -97.997200    6.050810   -6.162470
  C    -97.237800    7.594340   -7.543030
  H    -96.992200    8.673330   -7.436560
  H    -96.327200    7.074140   -7.768370
  C    -98.283800    7.389590   -8.642140
  H    -98.440900    6.344650   -8.744040
  H    -99.186000    7.830770   -8.449680
  H    -97.858900    7.801510   -9.514270
  S    -92.353900    5.896740   -3.204840
  C    -90.686300    6.550750   -3.223200
  C    -90.634600    7.809150   -3.698270
  C    -91.973800    8.338230   -4.077480
  C    -93.039500    7.444130   -3.803700
  H    -89.653300    8.228370   -3.828990
  C    -92.152400    9.697020   -4.726140
  H    -91.241800   10.253000   -4.647180
  H    -92.917600   10.271500   -4.188640
  C    -92.502100    9.605800   -6.158630
  H    -93.094000    8.754770   -6.319130
  H    -91.716500    9.408980   -6.847480
  C    -93.117500   10.922900   -6.665450
  H    -92.493200   11.774000   -6.302270
  H    -94.063200   11.031900   -6.205410
  H    -93.120800   10.937000   -7.776420
  H    -97.944800    8.561160   -3.888330
  H    -89.766600    5.999650   -2.916620

 Total Charge           Charge          ....    0
 Multiplicity           Mult            ....    1
 Number of Electrons    NEL             ....  134
 Basis Dimension        Dim             ....  322

ORBITAL ENERGIES
----------------

  NO   OCC          E(Eh)            E(eV)
   0   2.0000     -88.965881     -2420.8847
   1   2.0000     -88.965296     -2420.8688
   2   2.0000     -10.337230      -281.2903
   3   2.0000     -10.335400      -281.2405
   4   2.0000     -10.322068      -280.8778
   5   2.0000     -10.313201      -280.6365
   6   2.0000     -10.312031      -280.6046
   7   2.0000     -10.296669      -280.1866
   8   2.0000     -10.295910      -280.1660
   9   2.0000     -10.294164      -280.1184
  10   2.0000     -10.291725      -280.0521
  11   2.0000     -10.288254      -279.9576
  12   2.0000     -10.284256      -279.8488
  13   2.0000     -10.275048      -279.5983
  14   2.0000     -10.268827      -279.4290
  15   2.0000     -10.267303      -279.3875
  16   2.0000      -8.081002      -219.8953
  17   2.0000      -8.078539      -219.8282
  18   2.0000      -6.039510      -164.3434
  19   2.0000      -6.037399      -164.2860
  20   2.0000      -6.035699      -164.2397
  21   2.0000      -6.033263      -164.1734
  22   2.0000      -6.031472      -164.1247
  23   2.0000      -6.028994      -164.0573
  24   2.0000      -1.008743       -27.4493
  25   2.0000      -0.978754       -26.6333
  26   2.0000      -0.915611       -24.9150
  27   2.0000      -0.913682       -24.8625
  28   2.0000      -0.869358       -23.6564
  29   2.0000      -0.852365       -23.1940
  30   2.0000      -0.840157       -22.8618
  31   2.0000      -0.824341       -22.4314
  32   2.0000      -0.785710       -21.3803
  33   2.0000      -0.767032       -20.8720
  34   2.0000      -0.710537       -19.3347
  35   2.0000      -0.699582       -19.0366
  36   2.0000      -0.684508       -18.6264
  37   2.0000      -0.654843       -17.8192
  38   2.0000      -0.640018       -17.4158
  39   2.0000      -0.625381       -17.0175
  40   2.0000      -0.594262       -16.1707
  41   2.0000      -0.577527       -15.7153
  42   2.0000      -0.572173       -15.5696
  43   2.0000      -0.565161       -15.3788
  44   2.0000      -0.528045       -14.3688
  45   2.0000      -0.521697       -14.1961
  46   2.0000      -0.518916       -14.1204
  47   2.0000      -0.510693       -13.8967
  48   2.0000      -0.503754       -13.7078
  49   2.0000      -0.501151       -13.6370
  50   2.0000      -0.482415       -13.1272
  51   2.0000      -0.480829       -13.0840
  52   2.0000      -0.476785       -12.9740
  53   2.0000      -0.468795       -12.7565
  54   2.0000      -0.460635       -12.5345
  55   2.0000      -0.455670       -12.3994
  56   2.0000      -0.444606       -12.0983
  57   2.0000      -0.440553       -11.9881
  58   2.0000      -0.432959       -11.7814
  59   2.0000      -0.429005       -11.6738
  60   2.0000      -0.415715       -11.3122
  61   2.0000      -0.412093       -11.2136
  62   2.0000      -0.404743       -11.0136
  63   2.0000      -0.336866        -9.1666
  64   2.0000      -0.334453        -9.1009
  65   2.0000      -0.325361        -8.8535
  66   2.0000      -0.307806        -8.3758
  67   0.0000       0.037701         1.0259
  68   0.0000       0.056003         1.5239
  69   0.0000       0.100860         2.7445
  70   0.0000       0.118570         3.2265
  71   0.0000       0.130726         3.5572

MULLIKEN ATOMIC CHARGES
-----------------------
   0 S :    0.108573
   1 C :   -0.101540
   2 C :   -0.089295
   3 C :    0.069952
   4 C :   -0.200377
   5 H :    0.011720
   6 C :    0.047998
   7 H :    0.004922
   8 H :    0.047445
   9 C :   -0.151664
  10 H :    0.036142
  11 H :    0.025582
  12 C :    0.047346
  13 H :    0.019605
  14 H :    0.009909
  15 H :    0.027972
  16 S :    0.093341
  17 C :   -0.111972
  18 C :   -0.006690
  19 C :   -0.069789
  20 C :   -0.136019
  21 H :    0.020524
  22 C :    0.104475
  23 H :    0.008698
  24 H :    0.026126
  25 C :   -0.035600
  26 H :    0.004641
  27 H :    0.006627
  28 C :   -0.051435
  29 H :    0.028381
  30 H :    0.029842
  31 H :    0.038829
  32 H :    0.062400
  33 H :    0.073330
Sum of atomic charges:   -0.0000000

LOEWDIN ATOMIC CHARGES
----------------------
   0 S :    0.410355
   1 C :   -0.206247
   2 C :   -0.073137
   3 C :   -0.053614
   4 C :   -0.181057
   5 H :    0.029755
   6 C :   -0.039852
   7 H :    0.024266
   8 H :    0.035613
   9 C :   -0.034603
  10 H :    0.026099
  11 H :    0.014257
  12 C :   -0.045093
  13 H :    0.024016
  14 H :    0.013139
  15 H :    0.027789
  16 S :    0.365811
  17 C :   -0.173918
  18 C :   -0.075991
  19 C :   -0.041311
  20 C :   -0.199394
  21 H :    0.033779
  22 C :   -0.032708
  23 H :    0.027353
  24 H :    0.030322
  25 C :   -0.040839
  26 H :    0.015261
  27 H :    0.019383
  28 C :   -0.057588
  29 H :    0.027220
  30 H :    0.017643
  31 H :    0.028567
  32 H :    0.042155
  33 H :    0.042570

  Mayer bond orders larger than 0.100000
B(  0-S ,  1-C ) :   1.1302 B(  0-S ,  4-C ) :   1.1567 B(  1-C ,  2-C ) :   1.6553
B(  1-C , 32-H ) :   0.9483 B(  2-C ,  3-C ) :   1.2010 B(  2-C ,  6-C ) :   1.0431
B(  3-C ,  4-C ) :   1.6133 B(  3-C ,  5-H ) :   0.9989 B(  4-C , 20-C ) :   0.9940
B(  6-C ,  7-H ) :   0.9417 B(  6-C ,  8-H ) :   0.9334 B(  6-C ,  9-C ) :   1.0501
B(  9-C , 10-H ) :   0.9596 B(  9-C , 11-H ) :   0.9548 B(  9-C , 12-C ) :   1.0886
B( 12-C , 13-H ) :   0.9708 B( 12-C , 14-H ) :   0.9736 B( 12-C , 15-H ) :   0.9701
B( 16-S , 17-C ) :   1.1338 B( 16-S , 20-C ) :   1.1125 B( 17-C , 18-C ) :   1.6739
B( 17-C , 33-H ) :   0.9552 B( 18-C , 19-C ) :   1.1997 B( 18-C , 21-H ) :   0.9886
B( 19-C , 20-C ) :   1.6245 B( 19-C , 22-C ) :   1.0470 B( 22-C , 23-H ) :   0.9211
B( 22-C , 24-H ) :   0.9386 B( 22-C , 25-C ) :   1.0600 B( 25-C , 26-H ) :   0.9567
B( 25-C , 27-H ) :   0.9455 B( 25-C , 28-C ) :   1.0768 B( 28-C , 29-H ) :   0.9720
B( 28-C , 30-H ) :   0.9782 B( 28-C , 31-H ) :   0.9753

Dispersion correction           -0.014976388
FINAL SINGLE POINT ENERGY     -1339.857998274211

DIPOLE MOMENT
-------------
                                X             Y             Z
Electronic contribution:      9.03341     -10.19913      24.67096
Nuclear contribution   :     -8.97849      10.42557     -25.39959
                        -----------------------------------------
Total Dipole Moment    :      0.05492       0.22644      -0.72863
                        -----------------------------------------
Magnitude (a.u.)       :      0.76498
Magnitude (Debye)      :      1.94443

Rotational constants in cm-1:     0.019462     0.008401     0.007367
Rotational constants in MHz :   583.468780   251.865506   220.851253

                             ****ORCA TERMINATED NORMALLY****
TOTAL RUN TIME: 0 days 0 hours 0 minutes 22 seconds 237 msec
