                         Program Version 4.2.1 -  RELEASE  -
|  1> ! wB97X-D3 SP def2-SVP
|  2> %pal
|  3> nprocs 24
|  4> end
|  5>
|  6> * xyz 0 1
|  7> S 	 31.9017 	 -37.382 	 -128.926
|  8> C 	 31.4823 	 -36.4167 	 -127.608
|  9> C 	 31.4142 	 -35.0574 	 -127.936
| 10> C 	 31.8152 	 -34.8812 	 -129.295
| 11> C 	 32.1517 	 -36.0403 	 -129.997
| 12> H 	 31.9783 	 -33.9919 	 -129.843
| 13> C 	 30.7567 	 -33.9105 	 -127.142
| 14> H 	 31.4559 	 -33.1331 	 -127.088
| 15> H 	 30.4736 	 -34.2525 	 -126.11
| 16> C 	 29.4786 	 -33.3471 	 -127.764
| 17> H 	 29.181 	 -32.4202 	 -127.19
| 18> H 	 29.6598 	 -32.9461 	 -128.771
| 19> C 	 28.3345 	 -34.3658 	 -127.783
| 20> H 	 28.4918 	 -35.1441 	 -128.561
| 21> H 	 28.1635 	 -34.8266 	 -126.817
| 22> H 	 27.5681 	 -33.6882 	 -127.986
| 23> S 	 31.3052 	 -37.3043 	 -132.205
| 24> C 	 32.0168 	 -36.9029 	 -133.746
| 25> C 	 33.0678 	 -35.9428 	 -133.625
| 26> C 	 33.2908 	 -35.5699 	 -132.27
| 27> C 	 32.4601 	 -36.2822 	 -131.376
| 28> H 	 33.6259 	 -35.7299 	 -134.471
| 29> C 	 34.3319 	 -34.5093 	 -131.831
| 30> H 	 34.5211 	 -34.6492 	 -130.759
| 31> H 	 33.963 	 -33.4813 	 -131.954
| 32> C 	 35.6054 	 -34.5904 	 -132.549
| 33> H 	 35.465 	 -34.4757 	 -133.609
| 34> H 	 36.0659 	 -35.5757 	 -132.398
| 35> C 	 36.5996 	 -33.542 	 -132.032
| 36> H 	 36.2789 	 -32.5595 	 -132.236
| 37> H 	 37.5334 	 -33.6452 	 -132.562
| 38> H 	 36.8005 	 -33.5633 	 -130.972
| 39> H 	 31.1237 	 -36.7872 	 -126.644
| 40> H 	 31.7923 	 -37.3909 	 -134.749
| 41> *
| 42>
| 43>                          ****END OF INPUT****

CARTESIAN COORDINATES (ANGSTROEM)
---------------------------------
  S     31.901700  -37.382000  -128.926000
  C     31.482300  -36.416700  -127.608000
  C     31.414200  -35.057400  -127.936000
  C     31.815200  -34.881200  -129.295000
  C     32.151700  -36.040300  -129.997000
  H     31.978300  -33.991900  -129.843000
  C     30.756700  -33.910500  -127.142000
  H     31.455900  -33.133100  -127.088000
  H     30.473600  -34.252500  -126.110000
  C     29.478600  -33.347100  -127.764000
  H     29.181000  -32.420200  -127.190000
  H     29.659800  -32.946100  -128.771000
  C     28.334500  -34.365800  -127.783000
  H     28.491800  -35.144100  -128.561000
  H     28.163500  -34.826600  -126.817000
  H     27.568100  -33.688200  -127.986000
  S     31.305200  -37.304300  -132.205000
  C     32.016800  -36.902900  -133.746000
  C     33.067800  -35.942800  -133.625000
  C     33.290800  -35.569900  -132.270000
  C     32.460100  -36.282200  -131.376000
  H     33.625900  -35.729900  -134.471000
  C     34.331900  -34.509300  -131.831000
  H     34.521100  -34.649200  -130.759000
  H     33.963000  -33.481300  -131.954000
  C     35.605400  -34.590400  -132.549000
  H     35.465000  -34.475700  -133.609000
  H     36.065900  -35.575700  -132.398000
  C     36.599600  -33.542000  -132.032000
  H     36.278900  -32.559500  -132.236000
  H     37.533400  -33.645200  -132.562000
  H     36.800500  -33.563300  -130.972000
  H     31.123700  -36.787200  -126.644000
  H     31.792300  -37.390900  -134.749000

 Total Charge           Charge          ....    0
 Multiplicity           Mult            ....    1
 Number of Electrons    NEL             ....  134
 Basis Dimension        Dim             ....  322

ORBITAL ENERGIES
----------------

  NO   OCC          E(Eh)            E(eV)
   0   2.0000     -88.971058     -2421.0256
   1   2.0000     -88.963431     -2420.8180
   2   2.0000     -10.326812      -281.0068
   3   2.0000     -10.326423      -280.9963
   4   2.0000     -10.324287      -280.9381
   5   2.0000     -10.311799      -280.5983
   6   2.0000     -10.309266      -280.5294
   7   2.0000     -10.302673      -280.3500
   8   2.0000     -10.295565      -280.1566
   9   2.0000     -10.291343      -280.0417
  10   2.0000     -10.290629      -280.0223
  11   2.0000     -10.290485      -280.0183
  12   2.0000     -10.288706      -279.9699
  13   2.0000     -10.280414      -279.7443
  14   2.0000     -10.271000      -279.4881
  15   2.0000     -10.270200      -279.4664
  16   2.0000      -8.085491      -220.0174
  17   2.0000      -8.079612      -219.8574
  18   2.0000      -6.043915      -164.4633
  19   2.0000      -6.039950      -164.3554
  20   2.0000      -6.037943      -164.3008
  21   2.0000      -6.036433      -164.2597
  22   2.0000      -6.033733      -164.1862
  23   2.0000      -6.030654      -164.1024
  24   2.0000      -1.010384       -27.4939
  25   2.0000      -0.983741       -26.7689
  26   2.0000      -0.919165       -25.0118
  27   2.0000      -0.910852       -24.7855
  28   2.0000      -0.870219       -23.6799
  29   2.0000      -0.853328       -23.2202
  30   2.0000      -0.845405       -23.0046
  31   2.0000      -0.810409       -22.0524
  32   2.0000      -0.786400       -21.3990
  33   2.0000      -0.773819       -21.0567
  34   2.0000      -0.707534       -19.2530
  35   2.0000      -0.696698       -18.9581
  36   2.0000      -0.686874       -18.6908
  37   2.0000      -0.658934       -17.9305
  38   2.0000      -0.643495       -17.5104
  39   2.0000      -0.619680       -16.8623
  40   2.0000      -0.596832       -16.2406
  41   2.0000      -0.576434       -15.6856
  42   2.0000      -0.565324       -15.3833
  43   2.0000      -0.555962       -15.1285
  44   2.0000      -0.541325       -14.7302
  45   2.0000      -0.525484       -14.2991
  46   2.0000      -0.517837       -14.0911
  47   2.0000      -0.511623       -13.9220
  48   2.0000      -0.504183       -13.7195
  49   2.0000      -0.496888       -13.5210
  50   2.0000      -0.491671       -13.3790
  51   2.0000      -0.479998       -13.0614
  52   2.0000      -0.475608       -12.9420
  53   2.0000      -0.463180       -12.6038
  54   2.0000      -0.460959       -12.5433
  55   2.0000      -0.447601       -12.1798
  56   2.0000      -0.444468       -12.0946
  57   2.0000      -0.437087       -11.8937
  58   2.0000      -0.429313       -11.6822
  59   2.0000      -0.424175       -11.5424
  60   2.0000      -0.422582       -11.4990
  61   2.0000      -0.417909       -11.3719
  62   2.0000      -0.413689       -11.2571
  63   2.0000      -0.347567        -9.4578
  64   2.0000      -0.333205        -9.0670
  65   2.0000      -0.327721        -8.9177
  66   2.0000      -0.288410        -7.8480
  67   0.0000       0.028025         0.7626
  68   0.0000       0.068396         1.8611
  69   0.0000       0.114399         3.1130
  70   0.0000       0.124902         3.3988
  71   0.0000       0.126350         3.4382

MULLIKEN ATOMIC CHARGES
-----------------------
   0 S :    0.114299
   1 C :   -0.110010
   2 C :   -0.097536
   3 C :    0.045541
   4 C :   -0.196540
   5 H :   -0.007742
   6 C :    0.100159
   7 H :    0.015926
   8 H :    0.022451
   9 C :   -0.127676
  10 H :    0.033228
  11 H :    0.029563
  12 C :   -0.018596
  13 H :    0.058700
  14 H :    0.023145
  15 H :    0.022280
  16 S :    0.124074
  17 C :   -0.124904
  18 C :   -0.031136
  19 C :   -0.017890
  20 C :   -0.133566
  21 H :   -0.000873
  22 C :    0.068756
  23 H :    0.031028
  24 H :    0.033778
  25 C :   -0.100917
  26 H :    0.027186
  27 H :    0.033095
  28 C :   -0.010396
  29 H :    0.008362
  30 H :    0.026355
  31 H :    0.028366
  32 H :    0.050238
  33 H :    0.081253
Sum of atomic charges:    0.0000000

LOEWDIN ATOMIC CHARGES
----------------------
   0 S :    0.438740
   1 C :   -0.220181
   2 C :   -0.066894
   3 C :   -0.058485
   4 C :   -0.210065
   5 H :    0.022600
   6 C :   -0.028098
   7 H :    0.021682
   8 H :    0.031390
   9 C :   -0.042656
  10 H :    0.028022
  11 H :    0.022535
  12 C :   -0.060164
  13 H :    0.035330
  14 H :    0.021714
  15 H :    0.021660
  16 S :    0.423866
  17 C :   -0.199888
  18 C :   -0.065920
  19 C :   -0.046304
  20 C :   -0.210270
  21 H :    0.019266
  22 C :   -0.034121
  23 H :    0.033414
  24 H :    0.031748
  25 C :   -0.042298
  26 H :    0.019840
  27 H :    0.027909
  28 C :   -0.056621
  29 H :    0.016222
  30 H :    0.026711
  31 H :    0.024991
  32 H :    0.030691
  33 H :    0.043633

  Mayer bond orders larger than 0.100000
B(  0-S ,  1-C ) :   1.1747 B(  0-S ,  4-C ) :   1.1611 B(  1-C ,  2-C ) :   1.5748
B(  1-C , 32-H ) :   0.9643 B(  2-C ,  3-C ) :   1.2531 B(  2-C ,  6-C ) :   1.0248
B(  3-C ,  4-C ) :   1.5552 B(  3-C ,  5-H ) :   1.0005 B(  4-C , 20-C ) :   1.0315
B(  6-C ,  7-H ) :   0.9308 B(  6-C ,  8-H ) :   0.9460 B(  6-C ,  9-C ) :   1.0846
B(  9-C , 10-H ) :   0.9582 B(  9-C , 11-H ) :   0.9500 B(  9-C , 12-C ) :   1.0601
B( 12-C , 13-H ) :   0.9749 B( 12-C , 14-H ) :   0.9764 B( 12-C , 15-H ) :   0.9745
B( 16-S , 17-C ) :   1.1765 B( 16-S , 20-C ) :   1.1511 B( 17-C , 18-C ) :   1.5788
B( 17-C , 20-C ) :   0.1102 B( 17-C , 33-H ) :   0.9566 B( 18-C , 19-C ) :   1.2558
B( 18-C , 21-H ) :   1.0003 B( 19-C , 20-C ) :   1.5721 B( 19-C , 22-C ) :   1.0256
B( 22-C , 23-H ) :   0.9369 B( 22-C , 24-H ) :   0.9319 B( 22-C , 25-C ) :   1.0807
B( 25-C , 26-H ) :   0.9461 B( 25-C , 27-H ) :   0.9546 B( 25-C , 28-C ) :   1.0934
B( 28-C , 29-H ) :   0.9706 B( 28-C , 30-H ) :   0.9714 B( 28-C , 31-H ) :   0.9739

Dispersion correction           -0.014088804
FINAL SINGLE POINT ENERGY     -1339.877981055448

DIPOLE MOMENT
-------------
                                X             Y             Z
Electronic contribution:     -4.87678     -20.94793      -4.22139
Nuclear contribution   :      4.93951      21.54764       4.10085
                        -----------------------------------------
Total Dipole Moment    :      0.06274       0.59971      -0.12054
                        -----------------------------------------
Magnitude (a.u.)       :      0.61491
Magnitude (Debye)      :      1.56298

Rotational constants in cm-1:     0.018476     0.008341     0.006982
Rotational constants in MHz :   553.907564   250.043451   209.311364

                             ****ORCA TERMINATED NORMALLY****
TOTAL RUN TIME: 0 days 0 hours 0 minutes 21 seconds 448 msec
