                         Program Version 4.2.1 -  RELEASE  -
|  1> ! wB97X-D3 SP def2-SVP
|  2> %pal
|  3> nprocs 24
|  4> end
|  5>
|  6> * xyz 0 1
|  7> S 	 -64.7235 	 9.72609 	 -76.7973
|  8> C 	 -63.9559 	 10.1295 	 -75.2681
|  9> C 	 -64.7835 	 9.94633 	 -74.218
| 10> C 	 -66.0618 	 9.35345 	 -74.6362
| 11> C 	 -66.16 	 9.13381 	 -75.9941
| 12> H 	 -66.9551 	 9.19618 	 -73.9528
| 13> C 	 -64.5273 	 10.236 	 -72.7651
| 14> H 	 -65.1372 	 11.0427 	 -72.3941
| 15> H 	 -63.4459 	 10.559 	 -72.6766
| 16> C 	 -64.5452 	 9.0483 	 -71.7478
| 17> H 	 -64.2246 	 9.4222 	 -70.7655
| 18> H 	 -65.5067 	 8.67007 	 -71.6356
| 19> C 	 -63.7331 	 7.72772 	 -71.9902
| 20> H 	 -64.1008 	 6.96221 	 -71.2735
| 21> H 	 -63.9642 	 7.08061 	 -72.878
| 22> H 	 -62.6451 	 7.96823 	 -72.0307
| 23> S 	 -67.9822 	 9.84156 	 -78.0159
| 24> C 	 -69.325 	 8.7654 	 -78.31
| 25> C 	 -69.2007 	 7.59679 	 -77.5724
| 26> C 	 -68.193 	 7.64422 	 -76.608
| 27> C 	 -67.3703 	 8.73146 	 -76.7304
| 28> H 	 -70.0161 	 6.89992 	 -77.7278
| 29> C 	 -68.0445 	 6.41201 	 -75.7454
| 30> H 	 -67.3303 	 6.6011 	 -74.9441
| 31> H 	 -67.596 	 5.67165 	 -76.4538
| 32> C 	 -69.2966 	 5.76483 	 -75.0446
| 33> H 	 -68.983 	 4.80625 	 -74.5866
| 34> H 	 -70.0639 	 5.53614 	 -75.8088
| 35> C 	 -69.9726 	 6.70957 	 -74.0365
| 36> H 	 -69.2212 	 7.08532 	 -73.4176
| 37> H 	 -70.7376 	 6.16285 	 -73.4671
| 38> H 	 -70.3077 	 7.67702 	 -74.4076
| 39> H 	 -63.0174 	 10.5815 	 -75.1895
| 40> H 	 -70.1041 	 8.94793 	 -79.0673
| 41> *
| 42>
| 43>                          ****END OF INPUT****

CARTESIAN COORDINATES (ANGSTROEM)
---------------------------------
  S    -64.723500    9.726090  -76.797300
  C    -63.955900   10.129500  -75.268100
  C    -64.783500    9.946330  -74.218000
  C    -66.061800    9.353450  -74.636200
  C    -66.160000    9.133810  -75.994100
  H    -66.955100    9.196180  -73.952800
  C    -64.527300   10.236000  -72.765100
  H    -65.137200   11.042700  -72.394100
  H    -63.445900   10.559000  -72.676600
  C    -64.545200    9.048300  -71.747800
  H    -64.224600    9.422200  -70.765500
  H    -65.506700    8.670070  -71.635600
  C    -63.733100    7.727720  -71.990200
  H    -64.100800    6.962210  -71.273500
  H    -63.964200    7.080610  -72.878000
  H    -62.645100    7.968230  -72.030700
  S    -67.982200    9.841560  -78.015900
  C    -69.325000    8.765400  -78.310000
  C    -69.200700    7.596790  -77.572400
  C    -68.193000    7.644220  -76.608000
  C    -67.370300    8.731460  -76.730400
  H    -70.016100    6.899920  -77.727800
  C    -68.044500    6.412010  -75.745400
  H    -67.330300    6.601100  -74.944100
  H    -67.596000    5.671650  -76.453800
  C    -69.296600    5.764830  -75.044600
  H    -68.983000    4.806250  -74.586600
  H    -70.063900    5.536140  -75.808800
  C    -69.972600    6.709570  -74.036500
  H    -69.221200    7.085320  -73.417600
  H    -70.737600    6.162850  -73.467100
  H    -70.307700    7.677020  -74.407600
  H    -63.017400   10.581500  -75.189500
  H    -70.104100    8.947930  -79.067300

 Total Charge           Charge          ....    0
 Multiplicity           Mult            ....    1
 Number of Electrons    NEL             ....  134
 Basis Dimension        Dim             ....  322

ORBITAL ENERGIES
----------------

  NO   OCC          E(Eh)            E(eV)
   0   2.0000     -88.965268     -2420.8680
   1   2.0000     -88.964344     -2420.8429
   2   2.0000     -10.331204      -281.1264
   3   2.0000     -10.330365      -281.1035
   4   2.0000     -10.320087      -280.8238
   5   2.0000     -10.309694      -280.5410
   6   2.0000     -10.302774      -280.3527
   7   2.0000     -10.301696      -280.3234
   8   2.0000     -10.299841      -280.2729
   9   2.0000     -10.298382      -280.2332
  10   2.0000     -10.295615      -280.1579
  11   2.0000     -10.295519      -280.1553
  12   2.0000     -10.289961      -280.0041
  13   2.0000     -10.288513      -279.9647
  14   2.0000     -10.286374      -279.9065
  15   2.0000     -10.274081      -279.5719
  16   2.0000      -8.079429      -219.8524
  17   2.0000      -8.079186      -219.8458
  18   2.0000      -6.037971      -164.3015
  19   2.0000      -6.037834      -164.2978
  20   2.0000      -6.034043      -164.1947
  21   2.0000      -6.033756      -164.1869
  22   2.0000      -6.030158      -164.0889
  23   2.0000      -6.029713      -164.0768
  24   2.0000      -1.004956       -27.3462
  25   2.0000      -0.984835       -26.7987
  26   2.0000      -0.906626       -24.6706
  27   2.0000      -0.904567       -24.6145
  28   2.0000      -0.868340       -23.6287
  29   2.0000      -0.852370       -23.1942
  30   2.0000      -0.840332       -22.8666
  31   2.0000      -0.813208       -22.1285
  32   2.0000      -0.783932       -21.3319
  33   2.0000      -0.777288       -21.1511
  34   2.0000      -0.710024       -19.3207
  35   2.0000      -0.698062       -18.9952
  36   2.0000      -0.695412       -18.9231
  37   2.0000      -0.657337       -17.8870
  38   2.0000      -0.639977       -17.4147
  39   2.0000      -0.617131       -16.7930
  40   2.0000      -0.596014       -16.2184
  41   2.0000      -0.567824       -15.4513
  42   2.0000      -0.558361       -15.1938
  43   2.0000      -0.552088       -15.0231
  44   2.0000      -0.537728       -14.6323
  45   2.0000      -0.531005       -14.4494
  46   2.0000      -0.519128       -14.1262
  47   2.0000      -0.510134       -13.8814
  48   2.0000      -0.505150       -13.7458
  49   2.0000      -0.500468       -13.6184
  50   2.0000      -0.492611       -13.4046
  51   2.0000      -0.478198       -13.0124
  52   2.0000      -0.473892       -12.8952
  53   2.0000      -0.461103       -12.5472
  54   2.0000      -0.453461       -12.3393
  55   2.0000      -0.447523       -12.1777
  56   2.0000      -0.445794       -12.1307
  57   2.0000      -0.432583       -11.7712
  58   2.0000      -0.428271       -11.6538
  59   2.0000      -0.423248       -11.5172
  60   2.0000      -0.415266       -11.3000
  61   2.0000      -0.414865       -11.2891
  62   2.0000      -0.410537       -11.1713
  63   2.0000      -0.348746        -9.4898
  64   2.0000      -0.333002        -9.0614
  65   2.0000      -0.327670        -8.9164
  66   2.0000      -0.295711        -8.0467
  67   0.0000       0.034047         0.9265
  68   0.0000       0.067010         1.8234
  69   0.0000       0.114479         3.1151
  70   0.0000       0.121183         3.2976
  71   0.0000       0.124551         3.3892

MULLIKEN ATOMIC CHARGES
-----------------------
   0 S :    0.098135
   1 C :   -0.099608
   2 C :   -0.070760
   3 C :    0.002980
   4 C :   -0.148223
   5 H :    0.038848
   6 C :    0.067045
   7 H :    0.044289
   8 H :    0.018743
   9 C :   -0.062960
  10 H :    0.034649
  11 H :    0.009819
  12 C :   -0.099741
  13 H :    0.037090
  14 H :    0.037756
  15 H :    0.046381
  16 S :    0.100141
  17 C :   -0.112968
  18 C :   -0.039005
  19 C :   -0.014945
  20 C :   -0.151353
  21 H :    0.023893
  22 C :    0.030724
  23 H :    0.020424
  24 H :    0.055627
  25 C :   -0.085247
  26 H :    0.041587
  27 H :    0.030981
  28 C :   -0.025320
  29 H :   -0.000251
  30 H :    0.045613
  31 H :    0.033306
  32 H :    0.024407
  33 H :    0.067942
Sum of atomic charges:   -0.0000000

LOEWDIN ATOMIC CHARGES
----------------------
   0 S :    0.394986
   1 C :   -0.180230
   2 C :   -0.064725
   3 C :   -0.069115
   4 C :   -0.192964
   5 H :    0.040062
   6 C :   -0.033861
   7 H :    0.034634
   8 H :    0.034333
   9 C :   -0.037977
  10 H :    0.029492
  11 H :    0.009905
  12 C :   -0.082528
  13 H :    0.034454
  14 H :    0.031148
  15 H :    0.027013
  16 S :    0.382954
  17 C :   -0.180658
  18 C :   -0.075856
  19 C :   -0.061511
  20 C :   -0.183305
  21 H :    0.033309
  22 C :   -0.033029
  23 H :    0.024838
  24 H :    0.044877
  25 C :   -0.038716
  26 H :    0.030998
  27 H :    0.020345
  28 C :   -0.068357
  29 H :    0.014434
  30 H :    0.031314
  31 H :    0.030290
  32 H :    0.018885
  33 H :    0.034563

  Mayer bond orders larger than 0.100000
B(  0-S ,  1-C ) :   1.1180 B(  0-S ,  4-C ) :   1.1395 B(  1-C ,  2-C ) :   1.6590
B(  1-C , 32-H ) :   0.9705 B(  2-C ,  3-C ) :   1.1983 B(  2-C ,  6-C ) :   1.0305
B(  3-C ,  4-C ) :   1.6111 B(  3-C ,  5-H ) :   0.9812 B(  4-C , 20-C ) :   1.0273
B(  6-C ,  7-H ) :   0.9380 B(  6-C ,  8-H ) :   0.9425 B(  6-C ,  9-C ) :   1.0623
B(  9-C , 10-H ) :   0.9581 B(  9-C , 11-H ) :   0.9572 B(  9-C , 12-C ) :   1.0731
B( 12-C , 13-H ) :   0.9712 B( 12-C , 14-H ) :   0.9710 B( 12-C , 15-H ) :   0.9778
B( 16-S , 17-C ) :   1.1599 B( 16-S , 20-C ) :   1.1223 B( 17-C , 18-C ) :   1.6216
B( 17-C , 20-C ) :   0.1013 B( 17-C , 33-H ) :   0.9626 B( 18-C , 19-C ) :   1.2189
B( 18-C , 21-H ) :   0.9895 B( 19-C , 20-C ) :   1.6199 B( 19-C , 22-C ) :   1.0364
B( 22-C , 23-H ) :   0.9363 B( 22-C , 24-H ) :   0.9367 B( 22-C , 25-C ) :   1.0722
B( 25-C , 26-H ) :   0.9549 B( 25-C , 27-H ) :   0.9545 B( 25-C , 28-C ) :   1.0688
B( 28-C , 29-H ) :   0.9713 B( 28-C , 30-H ) :   0.9743 B( 28-C , 31-H ) :   0.9709

Dispersion correction           -0.014463351
FINAL SINGLE POINT ENERGY     -1339.869828213111

DIPOLE MOMENT
-------------
                                X             Y             Z
Electronic contribution:      2.53164      14.42188     -25.58168
Nuclear contribution   :     -2.81027     -14.71070      26.12655
                        -----------------------------------------
Total Dipole Moment    :     -0.27863      -0.28883       0.54487
                        -----------------------------------------
Magnitude (a.u.)       :      0.67671
Magnitude (Debye)      :      1.72007

Rotational constants in cm-1:     0.017689     0.009459     0.006777
Rotational constants in MHz :   530.317771   283.566806   203.158670

                             ****ORCA TERMINATED NORMALLY****
TOTAL RUN TIME: 0 days 0 hours 0 minutes 21 seconds 625 msec
