                         Program Version 4.2.1 -  RELEASE  -
|  1> ! wB97X-D3 SP def2-SVP
|  2> %pal
|  3> nprocs 24
|  4> end
|  5>
|  6> * xyz 0 1
|  7> S 	 -93.6862 	 13.0835 	 -118.849
|  8> C 	 -92.1041 	 13.6596 	 -119.091
|  9> C 	 -91.2386 	 12.6293 	 -118.743
| 10> C 	 -91.9203 	 11.4145 	 -118.381
| 11> C 	 -93.2738 	 11.5315 	 -118.34
| 12> H 	 -91.3915 	 10.4589 	 -118.283
| 13> C 	 -89.7657 	 12.91 	 -118.681
| 14> H 	 -89.3833 	 13.1462 	 -119.675
| 15> H 	 -89.299 	 11.9911 	 -118.33
| 16> C 	 -89.2677 	 14.0245 	 -117.689
| 17> H 	 -88.1956 	 14.2575 	 -117.728
| 18> H 	 -89.7603 	 14.9354 	 -118.057
| 19> C 	 -89.6179 	 13.7688 	 -116.185
| 20> H 	 -89.14 	 12.8248 	 -115.79
| 21> H 	 -89.268 	 14.6482 	 -115.546
| 22> H 	 -90.7753 	 13.6716 	 -116.1
| 23> S 	 -93.7903 	 9.35016 	 -116.871
| 24> C 	 -95.375 	 8.57225 	 -116.801
| 25> C 	 -96.1509 	 9.06148 	 -117.847
| 26> C 	 -95.5372 	 10.2309 	 -118.499
| 27> C 	 -94.2592 	 10.4871 	 -118.073
| 28> H 	 -97.1212 	 8.6729 	 -118.016
| 29> C 	 -96.2223 	 10.9906 	 -119.616
| 30> H 	 -96.3046 	 11.9903 	 -119.221
| 31> H 	 -97.305 	 10.7443 	 -119.723
| 32> C 	 -95.5056 	 10.8919 	 -120.963
| 33> H 	 -95.3405 	 9.86522 	 -121.251
| 34> H 	 -94.5435 	 11.3495 	 -120.834
| 35> C 	 -96.271 	 11.6445 	 -122.095
| 36> H 	 -97.2635 	 11.2945 	 -122.211
| 37> H 	 -95.8589 	 11.6259 	 -123.065
| 38> H 	 -96.5099 	 12.622 	 -121.719
| 39> H 	 -91.7544 	 14.5452 	 -119.494
| 40> H 	 -95.6314 	 7.70911 	 -116.198
| 41> *
| 42>
| 43>                          ****END OF INPUT****

CARTESIAN COORDINATES (ANGSTROEM)
---------------------------------
  S    -93.686200   13.083500  -118.849000
  C    -92.104100   13.659600  -119.091000
  C    -91.238600   12.629300  -118.743000
  C    -91.920300   11.414500  -118.381000
  C    -93.273800   11.531500  -118.340000
  H    -91.391500   10.458900  -118.283000
  C    -89.765700   12.910000  -118.681000
  H    -89.383300   13.146200  -119.675000
  H    -89.299000   11.991100  -118.330000
  C    -89.267700   14.024500  -117.689000
  H    -88.195600   14.257500  -117.728000
  H    -89.760300   14.935400  -118.057000
  C    -89.617900   13.768800  -116.185000
  H    -89.140000   12.824800  -115.790000
  H    -89.268000   14.648200  -115.546000
  H    -90.775300   13.671600  -116.100000
  S    -93.790300    9.350160  -116.871000
  C    -95.375000    8.572250  -116.801000
  C    -96.150900    9.061480  -117.847000
  C    -95.537200   10.230900  -118.499000
  C    -94.259200   10.487100  -118.073000
  H    -97.121200    8.672900  -118.016000
  C    -96.222300   10.990600  -119.616000
  H    -96.304600   11.990300  -119.221000
  H    -97.305000   10.744300  -119.723000
  C    -95.505600   10.891900  -120.963000
  H    -95.340500    9.865220  -121.251000
  H    -94.543500   11.349500  -120.834000
  C    -96.271000   11.644500  -122.095000
  H    -97.263500   11.294500  -122.211000
  H    -95.858900   11.625900  -123.065000
  H    -96.509900   12.622000  -121.719000
  H    -91.754400   14.545200  -119.494000
  H    -95.631400    7.709110  -116.198000

 Total Charge           Charge          ....    0
 Multiplicity           Mult            ....    1
 Number of Electrons    NEL             ....  134
 Basis Dimension        Dim             ....  322

ORBITAL ENERGIES
----------------

  NO   OCC          E(Eh)            E(eV)
   0   2.0000     -88.967618     -2420.9320
   1   2.0000     -88.963291     -2420.8142
   2   2.0000     -10.328913      -281.0640
   3   2.0000     -10.326965      -281.0110
   4   2.0000     -10.321640      -280.8661
   5   2.0000     -10.307077      -280.4698
   6   2.0000     -10.306807      -280.4625
   7   2.0000     -10.300533      -280.2918
   8   2.0000     -10.298841      -280.2457
   9   2.0000     -10.294823      -280.1364
  10   2.0000     -10.292445      -280.0717
  11   2.0000     -10.292052      -280.0610
  12   2.0000     -10.291992      -280.0593
  13   2.0000     -10.290084      -280.0074
  14   2.0000     -10.279565      -279.7212
  15   2.0000     -10.265867      -279.3484
  16   2.0000      -8.083579      -219.9654
  17   2.0000      -8.078404      -219.8246
  18   2.0000      -6.042000      -164.4112
  19   2.0000      -6.037583      -164.2910
  20   2.0000      -6.037014      -164.2755
  21   2.0000      -6.034670      -164.2117
  22   2.0000      -6.032831      -164.1617
  23   2.0000      -6.029040      -164.0585
  24   2.0000      -1.021266       -27.7901
  25   2.0000      -0.991323       -26.9753
  26   2.0000      -0.909587       -24.7511
  27   2.0000      -0.905642       -24.6438
  28   2.0000      -0.873191       -23.7607
  29   2.0000      -0.848318       -23.0839
  30   2.0000      -0.840961       -22.8837
  31   2.0000      -0.820837       -22.3361
  32   2.0000      -0.779664       -21.2157
  33   2.0000      -0.770133       -20.9564
  34   2.0000      -0.711711       -19.3666
  35   2.0000      -0.701031       -19.0760
  36   2.0000      -0.695575       -18.9275
  37   2.0000      -0.670542       -18.2464
  38   2.0000      -0.641188       -17.4476
  39   2.0000      -0.614244       -16.7144
  40   2.0000      -0.592581       -16.1249
  41   2.0000      -0.579598       -15.7717
  42   2.0000      -0.560542       -15.2531
  43   2.0000      -0.547524       -14.8989
  44   2.0000      -0.545238       -14.8367
  45   2.0000      -0.531471       -14.4621
  46   2.0000      -0.521264       -14.1843
  47   2.0000      -0.515823       -14.0363
  48   2.0000      -0.502736       -13.6801
  49   2.0000      -0.499278       -13.5860
  50   2.0000      -0.496615       -13.5136
  51   2.0000      -0.480566       -13.0769
  52   2.0000      -0.471276       -12.8241
  53   2.0000      -0.465764       -12.6741
  54   2.0000      -0.454908       -12.3787
  55   2.0000      -0.445579       -12.1248
  56   2.0000      -0.442700       -12.0465
  57   2.0000      -0.439924       -11.9709
  58   2.0000      -0.426225       -11.5982
  59   2.0000      -0.425282       -11.5725
  60   2.0000      -0.417789       -11.3686
  61   2.0000      -0.410930       -11.1820
  62   2.0000      -0.402801       -10.9608
  63   2.0000      -0.362067        -9.8523
  64   2.0000      -0.327951        -8.9240
  65   2.0000      -0.326937        -8.8964
  66   2.0000      -0.293416        -7.9842
  67   0.0000       0.026453         0.7198
  68   0.0000       0.078851         2.1456
  69   0.0000       0.108894         2.9632
  70   0.0000       0.130196         3.5428
  71   0.0000       0.135162         3.6780

MULLIKEN ATOMIC CHARGES
-----------------------
   0 S :    0.106343
   1 C :   -0.075834
   2 C :   -0.133627
   3 C :    0.005184
   4 C :   -0.104853
   5 H :    0.026007
   6 C :    0.075705
   7 H :    0.039443
   8 H :    0.011676
   9 C :   -0.075654
  10 H :    0.035905
  11 H :    0.017503
  12 C :   -0.120893
  13 H :    0.045744
  14 H :    0.051600
  15 H :    0.062405
  16 S :    0.090446
  17 C :   -0.089938
  18 C :   -0.014884
  19 C :   -0.078916
  20 C :   -0.112681
  21 H :    0.010309
  22 C :    0.032231
  23 H :    0.030181
  24 H :    0.014275
  25 C :   -0.044309
  26 H :    0.028837
  27 H :    0.033384
  28 C :    0.001433
  29 H :    0.002162
  30 H :    0.033285
  31 H :    0.009632
  32 H :    0.022851
  33 H :    0.065049
Sum of atomic charges:   -0.0000000

LOEWDIN ATOMIC CHARGES
----------------------
   0 S :    0.471967
   1 C :   -0.203337
   2 C :   -0.064380
   3 C :   -0.079029
   4 C :   -0.212849
   5 H :    0.033710
   6 C :   -0.034761
   7 H :    0.033577
   8 H :    0.025254
   9 C :   -0.043858
  10 H :    0.025696
  11 H :    0.017764
  12 C :   -0.083447
  13 H :    0.028040
  14 H :    0.033375
  15 H :    0.037937
  16 S :    0.414845
  17 C :   -0.179882
  18 C :   -0.061421
  19 C :   -0.056648
  20 C :   -0.201641
  21 H :    0.025453
  22 C :   -0.042519
  23 H :    0.024780
  24 H :    0.031229
  25 C :   -0.032213
  26 H :    0.022943
  27 H :    0.014887
  28 C :   -0.061055
  29 H :    0.018341
  30 H :    0.021855
  31 H :    0.024241
  32 H :    0.018341
  33 H :    0.032805

  Mayer bond orders larger than 0.100000
B(  0-S ,  1-C ) :   1.1534 B(  0-S ,  4-C ) :   1.1796 B(  1-C ,  2-C ) :   1.5571
B(  1-C , 32-H ) :   0.9862 B(  2-C ,  3-C ) :   1.2927 B(  2-C ,  6-C ) :   1.0278
B(  3-C ,  4-C ) :   1.5232 B(  3-C ,  5-H ) :   0.9880 B(  4-C , 20-C ) :   1.0239
B(  6-C ,  7-H ) :   0.9383 B(  6-C ,  8-H ) :   0.9440 B(  6-C ,  9-C ) :   1.0620
B(  9-C , 10-H ) :   0.9584 B(  9-C , 11-H ) :   0.9550 B(  9-C , 12-C ) :   1.0665
B( 12-C , 13-H ) :   0.9751 B( 12-C , 14-H ) :   0.9739 B( 12-C , 15-H ) :   0.9739
B( 16-S , 17-C ) :   1.1509 B( 16-S , 20-C ) :   1.1404 B( 17-C , 18-C ) :   1.6096
B( 17-C , 33-H ) :   0.9681 B( 18-C , 19-C ) :   1.2291 B( 18-C , 21-H ) :   0.9951
B( 19-C , 20-C ) :   1.5965 B( 19-C , 22-C ) :   1.0420 B( 22-C , 23-H ) :   0.9257
B( 22-C , 24-H ) :   0.9336 B( 22-C , 25-C ) :   1.0588 B( 25-C , 26-H ) :   0.9583
B( 25-C , 27-H ) :   0.9499 B( 25-C , 28-C ) :   1.0830 B( 28-C , 29-H ) :   0.9708
B( 28-C , 30-H ) :   0.9761 B( 28-C , 31-H ) :   0.9693

Dispersion correction           -0.014771787
FINAL SINGLE POINT ENERGY     -1339.877063470810

DIPOLE MOMENT
-------------
                                X             Y             Z
Electronic contribution:     -6.08411      -8.71510       8.08609
Nuclear contribution   :      6.12758       8.71805      -8.35055
                        -----------------------------------------
Total Dipole Moment    :      0.04347       0.00294      -0.26446
                        -----------------------------------------
Magnitude (a.u.)       :      0.26802
Magnitude (Debye)      :      0.68126

Rotational constants in cm-1:     0.020876     0.008937     0.006762
Rotational constants in MHz :   625.852125   267.936423   202.732886

                             ****ORCA TERMINATED NORMALLY****
TOTAL RUN TIME: 0 days 0 hours 0 minutes 20 seconds 573 msec
