                         Program Version 4.2.1 -  RELEASE  -
|  1> ! wB97X-D3 SP def2-SVP
|  2> %pal
|  3> nprocs 24
|  4> end
|  5>
|  6> * xyz 0 1
|  7> S 	 -120.166 	 25.6396 	 -12.1972
|  8> C 	 -119.672 	 24.4288 	 -13.3689
|  9> C 	 -118.33 	 24.5114 	 -13.5765
| 10> C 	 -117.67 	 25.5383 	 -12.7862
| 11> C 	 -118.514 	 26.2382 	 -11.9938
| 12> H 	 -116.642 	 25.8375 	 -12.7828
| 13> C 	 -117.554 	 23.715 	 -14.5682
| 14> H 	 -117.952 	 22.6892 	 -14.7197
| 15> H 	 -116.541 	 23.6647 	 -14.138
| 16> C 	 -117.468 	 24.3346 	 -15.9981
| 17> H 	 -118.421 	 24.2081 	 -16.5113
| 18> H 	 -117.189 	 25.3908 	 -15.9609
| 19> C 	 -116.421 	 23.6954 	 -16.9114
| 20> H 	 -116.612 	 24.0408 	 -17.8995
| 21> H 	 -115.465 	 24.1495 	 -16.7079
| 22> H 	 -116.386 	 22.6059 	 -17.0002
| 23> S 	 -117.511 	 26.6345 	 -9.45951
| 24> C 	 -116.874 	 28.1366 	 -8.98023
| 25> C 	 -116.885 	 29.0142 	 -10.0219
| 26> C 	 -117.692 	 28.6048 	 -11.1538
| 27> C 	 -118.045 	 27.2549 	 -11.0481
| 28> H 	 -116.425 	 29.9399 	 -9.84114
| 29> C 	 -118.036 	 29.4237 	 -12.3736
| 30> H 	 -117.798 	 28.7893 	 -13.2345
| 31> H 	 -117.289 	 30.2131 	 -12.4704
| 32> C 	 -119.406 	 29.9929 	 -12.3786
| 33> H 	 -119.619 	 30.5215 	 -11.3909
| 34> H 	 -120.069 	 29.1328 	 -12.2986
| 35> C 	 -119.787 	 30.8542 	 -13.586
| 36> H 	 -118.981 	 31.6501 	 -13.7663
| 37> H 	 -120.602 	 31.5571 	 -13.5157
| 38> H 	 -119.789 	 30.2119 	 -14.4485
| 39> H 	 -120.277 	 23.9197 	 -14.0792
| 40> H 	 -116.319 	 28.4205 	 -8.13662
| 41> *
| 42>
| 43>                          ****END OF INPUT****

CARTESIAN COORDINATES (ANGSTROEM)
---------------------------------
  S    -120.166000   25.639600  -12.197200
  C    -119.672000   24.428800  -13.368900
  C    -118.330000   24.511400  -13.576500
  C    -117.670000   25.538300  -12.786200
  C    -118.514000   26.238200  -11.993800
  H    -116.642000   25.837500  -12.782800
  C    -117.554000   23.715000  -14.568200
  H    -117.952000   22.689200  -14.719700
  H    -116.541000   23.664700  -14.138000
  C    -117.468000   24.334600  -15.998100
  H    -118.421000   24.208100  -16.511300
  H    -117.189000   25.390800  -15.960900
  C    -116.421000   23.695400  -16.911400
  H    -116.612000   24.040800  -17.899500
  H    -115.465000   24.149500  -16.707900
  H    -116.386000   22.605900  -17.000200
  S    -117.511000   26.634500   -9.459510
  C    -116.874000   28.136600   -8.980230
  C    -116.885000   29.014200  -10.021900
  C    -117.692000   28.604800  -11.153800
  C    -118.045000   27.254900  -11.048100
  H    -116.425000   29.939900   -9.841140
  C    -118.036000   29.423700  -12.373600
  H    -117.798000   28.789300  -13.234500
  H    -117.289000   30.213100  -12.470400
  C    -119.406000   29.992900  -12.378600
  H    -119.619000   30.521500  -11.390900
  H    -120.069000   29.132800  -12.298600
  C    -119.787000   30.854200  -13.586000
  H    -118.981000   31.650100  -13.766300
  H    -120.602000   31.557100  -13.515700
  H    -119.789000   30.211900  -14.448500
  H    -120.277000   23.919700  -14.079200
  H    -116.319000   28.420500   -8.136620

 Total Charge           Charge          ....    0
 Multiplicity           Mult            ....    1
 Number of Electrons    NEL             ....  134
 Basis Dimension        Dim             ....  322

ORBITAL ENERGIES
----------------

  NO   OCC          E(Eh)            E(eV)
   0   2.0000     -88.965051     -2420.8621
   1   2.0000     -88.962421     -2420.7906
   2   2.0000     -10.329732      -281.0863
   3   2.0000     -10.329326      -281.0753
   4   2.0000     -10.311430      -280.5883
   5   2.0000     -10.309246      -280.5288
   6   2.0000     -10.309028      -280.5229
   7   2.0000     -10.299896      -280.2744
   8   2.0000     -10.294044      -280.1152
   9   2.0000     -10.292723      -280.0792
  10   2.0000     -10.289330      -279.9869
  11   2.0000     -10.288573      -279.9663
  12   2.0000     -10.288209      -279.9564
  13   2.0000     -10.285659      -279.8870
  14   2.0000     -10.280598      -279.7493
  15   2.0000     -10.274369      -279.5798
  16   2.0000      -8.079259      -219.8478
  17   2.0000      -8.077567      -219.8018
  18   2.0000      -6.037901      -164.2996
  19   2.0000      -6.036011      -164.2482
  20   2.0000      -6.033831      -164.1889
  21   2.0000      -6.031923      -164.1370
  22   2.0000      -6.029884      -164.0815
  23   2.0000      -6.028433      -164.0420
  24   2.0000      -1.007052       -27.4033
  25   2.0000      -0.986895       -26.8548
  26   2.0000      -0.914543       -24.8860
  27   2.0000      -0.910534       -24.7769
  28   2.0000      -0.875438       -23.8219
  29   2.0000      -0.850293       -23.1376
  30   2.0000      -0.847405       -23.0591
  31   2.0000      -0.820829       -22.3359
  32   2.0000      -0.782992       -21.3063
  33   2.0000      -0.773501       -21.0480
  34   2.0000      -0.710522       -19.3343
  35   2.0000      -0.699858       -19.0441
  36   2.0000      -0.694539       -18.8994
  37   2.0000      -0.659493       -17.9457
  38   2.0000      -0.645332       -17.5604
  39   2.0000      -0.619166       -16.8484
  40   2.0000      -0.594681       -16.1821
  41   2.0000      -0.573901       -15.6166
  42   2.0000      -0.567879       -15.4528
  43   2.0000      -0.562367       -15.3028
  44   2.0000      -0.527480       -14.3535
  45   2.0000      -0.524763       -14.2795
  46   2.0000      -0.519337       -14.1319
  47   2.0000      -0.514902       -14.0112
  48   2.0000      -0.511934       -13.9304
  49   2.0000      -0.503337       -13.6965
  50   2.0000      -0.499455       -13.5909
  51   2.0000      -0.476772       -12.9736
  52   2.0000      -0.468645       -12.7525
  53   2.0000      -0.464668       -12.6443
  54   2.0000      -0.461269       -12.5518
  55   2.0000      -0.452210       -12.3053
  56   2.0000      -0.446917       -12.1612
  57   2.0000      -0.431751       -11.7485
  58   2.0000      -0.428694       -11.6654
  59   2.0000      -0.426857       -11.6154
  60   2.0000      -0.418037       -11.3754
  61   2.0000      -0.415970       -11.3191
  62   2.0000      -0.403737       -10.9862
  63   2.0000      -0.336388        -9.1536
  64   2.0000      -0.327119        -8.9014
  65   2.0000      -0.320964        -8.7339
  66   2.0000      -0.317972        -8.6524
  67   0.0000       0.047947         1.3047
  68   0.0000       0.049073         1.3354
  69   0.0000       0.117268         3.1910
  70   0.0000       0.122384         3.3302
  71   0.0000       0.127676         3.4743

MULLIKEN ATOMIC CHARGES
-----------------------
   0 S :    0.104028
   1 C :   -0.088144
   2 C :   -0.082421
   3 C :    0.048240
   4 C :   -0.161349
   5 H :    0.011450
   6 C :    0.049492
   7 H :    0.031840
   8 H :    0.027744
   9 C :   -0.081200
  10 H :    0.026846
  11 H :    0.029456
  12 C :   -0.029744
  13 H :    0.016015
  14 H :    0.024445
  15 H :    0.035868
  16 S :    0.114436
  17 C :   -0.048292
  18 C :   -0.047843
  19 C :   -0.037510
  20 C :   -0.188301
  21 H :   -0.001089
  22 C :    0.096174
  23 H :    0.025760
  24 H :    0.003033
  25 C :   -0.071020
  26 H :    0.032246
  27 H :    0.020018
  28 C :   -0.027938
  29 H :    0.018101
  30 H :    0.036401
  31 H :    0.035523
  32 H :    0.040572
  33 H :    0.037163
Sum of atomic charges:   -0.0000000

LOEWDIN ATOMIC CHARGES
----------------------
   0 S :    0.390524
   1 C :   -0.189721
   2 C :   -0.063454
   3 C :   -0.054104
   4 C :   -0.196928
   5 H :    0.032150
   6 C :   -0.037286
   7 H :    0.033956
   8 H :    0.033151
   9 C :   -0.036830
  10 H :    0.021341
  11 H :    0.026119
  12 C :   -0.066759
  13 H :    0.023933
  14 H :    0.023376
  15 H :    0.025266
  16 S :    0.414710
  17 C :   -0.191699
  18 C :   -0.072655
  19 C :   -0.043247
  20 C :   -0.190317
  21 H :    0.021939
  22 C :   -0.035285
  23 H :    0.033132
  24 H :    0.025522
  25 C :   -0.048492
  26 H :    0.031739
  27 H :    0.021556
  28 C :   -0.069507
  29 H :    0.030204
  30 H :    0.027717
  31 H :    0.025436
  32 H :    0.028269
  33 H :    0.026246

  Mayer bond orders larger than 0.100000
B(  0-S ,  1-C ) :   1.1199 B(  0-S ,  4-C ) :   1.1292 B(  1-C ,  2-C ) :   1.6532
B(  1-C , 32-H ) :   0.9661 B(  2-C ,  3-C ) :   1.1935 B(  2-C ,  6-C ) :   1.0387
B(  3-C ,  4-C ) :   1.6260 B(  3-C ,  5-H ) :   0.9965 B(  4-C , 20-C ) :   1.0126
B(  6-C ,  7-H ) :   0.9390 B(  6-C ,  8-H ) :   0.9398 B(  6-C ,  9-C ) :   1.0640
B(  9-C , 10-H ) :   0.9592 B(  9-C , 11-H ) :   0.9567 B(  9-C , 12-C ) :   1.0872
B( 12-C , 13-H ) :   0.9699 B( 12-C , 14-H ) :   0.9761 B( 12-C , 15-H ) :   0.9743
B( 16-S , 17-C ) :   1.1588 B( 16-S , 20-C ) :   1.1443 B( 17-C , 18-C ) :   1.6354
B( 17-C , 33-H ) :   0.9654 B( 18-C , 19-C ) :   1.2316 B( 18-C , 21-H ) :   0.9947
B( 19-C , 20-C ) :   1.5970 B( 19-C , 22-C ) :   1.0423 B( 22-C , 23-H ) :   0.9253
B( 22-C , 24-H ) :   0.9239 B( 22-C , 25-C ) :   1.0658 B( 25-C , 26-H ) :   0.9515
B( 25-C , 27-H ) :   0.9503 B( 25-C , 28-C ) :   1.0765 B( 28-C , 29-H ) :   0.9710
B( 28-C , 30-H ) :   0.9749 B( 28-C , 31-H ) :   0.9742

Dispersion correction           -0.014066671
FINAL SINGLE POINT ENERGY     -1339.872327652034

DIPOLE MOMENT
-------------
                                X             Y             Z
Electronic contribution:     -4.90417      -6.16205      24.47845
Nuclear contribution   :      5.36112       6.41070     -25.08222
                        -----------------------------------------
Total Dipole Moment    :      0.45694       0.24865      -0.60377
                        -----------------------------------------
Magnitude (a.u.)       :      0.79697
Magnitude (Debye)      :      2.02574

Rotational constants in cm-1:     0.017292     0.008041     0.006992
Rotational constants in MHz :   518.403330   241.067990   209.610696

                             ****ORCA TERMINATED NORMALLY****
TOTAL RUN TIME: 0 days 0 hours 0 minutes 21 seconds 100 msec
