                         Program Version 4.2.1 -  RELEASE  -
|  1> ! wB97X-D3 SP def2-SVP
|  2> %pal
|  3> nprocs 24
|  4> end
|  5>
|  6> * xyz 0 1
|  7> S 	 -3.47533 	 -25.8509 	 -109.614
|  8> C 	 -3.66406 	 -24.1773 	 -110.039
|  9> C 	 -4.19545 	 -23.5409 	 -108.938
| 10> C 	 -4.36069 	 -24.3635 	 -107.778
| 11> C 	 -4.17327 	 -25.6817 	 -108.026
| 12> H 	 -4.55158 	 -24.1728 	 -106.718
| 13> C 	 -4.29647 	 -22.1222 	 -108.685
| 14> H 	 -3.98894 	 -21.5353 	 -109.57
| 15> H 	 -3.63404 	 -21.7895 	 -107.839
| 16> C 	 -5.80902 	 -21.6465 	 -108.384
| 17> H 	 -6.40788 	 -22.3631 	 -107.698
| 18> H 	 -5.83871 	 -20.6254 	 -107.872
| 19> C 	 -6.6681 	 -21.6131 	 -109.643
| 20> H 	 -7.75476 	 -21.2775 	 -109.517
| 21> H 	 -6.19456 	 -21.0115 	 -110.386
| 22> H 	 -6.66536 	 -22.6598 	 -110.03
| 23> S 	 -2.48236 	 -27.4857 	 -106.687
| 24> C 	 -3.13519 	 -28.514 	 -105.426
| 25> C 	 -4.44616 	 -28.21 	 -105.191
| 26> C 	 -4.96242 	 -27.3293 	 -106.171
| 27> C 	 -4.03552 	 -26.819 	 -107.073
| 28> H 	 -5.11484 	 -28.6385 	 -104.384
| 29> C 	 -6.48447 	 -26.8767 	 -106.136
| 30> H 	 -6.43153 	 -25.9888 	 -106.654
| 31> H 	 -6.89146 	 -26.7667 	 -105.158
| 32> C 	 -7.43327 	 -27.8059 	 -106.996
| 33> H 	 -7.13364 	 -27.7985 	 -108.066
| 34> H 	 -8.41668 	 -27.3567 	 -107.07
| 35> C 	 -7.68679 	 -29.2107 	 -106.454
| 36> H 	 -6.75461 	 -29.6643 	 -106.162
| 37> H 	 -8.43151 	 -29.8498 	 -106.963
| 38> H 	 -8.34989 	 -29.0777 	 -105.57
| 39> H 	 -3.36581 	 -23.6643 	 -110.963
| 40> H 	 -2.57934 	 -29.2239 	 -104.765
| 41> *
| 42>
| 43>                          ****END OF INPUT****

CARTESIAN COORDINATES (ANGSTROEM)
---------------------------------
  S     -3.475330  -25.850900  -109.614000
  C     -3.664060  -24.177300  -110.039000
  C     -4.195450  -23.540900  -108.938000
  C     -4.360690  -24.363500  -107.778000
  C     -4.173270  -25.681700  -108.026000
  H     -4.551580  -24.172800  -106.718000
  C     -4.296470  -22.122200  -108.685000
  H     -3.988940  -21.535300  -109.570000
  H     -3.634040  -21.789500  -107.839000
  C     -5.809020  -21.646500  -108.384000
  H     -6.407880  -22.363100  -107.698000
  H     -5.838710  -20.625400  -107.872000
  C     -6.668100  -21.613100  -109.643000
  H     -7.754760  -21.277500  -109.517000
  H     -6.194560  -21.011500  -110.386000
  H     -6.665360  -22.659800  -110.030000
  S     -2.482360  -27.485700  -106.687000
  C     -3.135190  -28.514000  -105.426000
  C     -4.446160  -28.210000  -105.191000
  C     -4.962420  -27.329300  -106.171000
  C     -4.035520  -26.819000  -107.073000
  H     -5.114840  -28.638500  -104.384000
  C     -6.484470  -26.876700  -106.136000
  H     -6.431530  -25.988800  -106.654000
  H     -6.891460  -26.766700  -105.158000
  C     -7.433270  -27.805900  -106.996000
  H     -7.133640  -27.798500  -108.066000
  H     -8.416680  -27.356700  -107.070000
  C     -7.686790  -29.210700  -106.454000
  H     -6.754610  -29.664300  -106.162000
  H     -8.431510  -29.849800  -106.963000
  H     -8.349890  -29.077700  -105.570000
  H     -3.365810  -23.664300  -110.963000
  H     -2.579340  -29.223900  -104.765000

 Total Charge           Charge          ....    0
 Multiplicity           Mult            ....    1
 Number of Electrons    NEL             ....  134
 Basis Dimension        Dim             ....  322

ORBITAL ENERGIES
----------------

  NO   OCC          E(Eh)            E(eV)
   0   2.0000     -88.969868     -2420.9932
   1   2.0000     -88.963641     -2420.8238
   2   2.0000     -10.330777      -281.1147
   3   2.0000     -10.329967      -281.0927
   4   2.0000     -10.323480      -280.9162
   5   2.0000     -10.321733      -280.8686
   6   2.0000     -10.304872      -280.4098
   7   2.0000     -10.301165      -280.3089
   8   2.0000     -10.300319      -280.2859
   9   2.0000     -10.298704      -280.2420
  10   2.0000     -10.297609      -280.2122
  11   2.0000     -10.295133      -280.1448
  12   2.0000     -10.289062      -279.9796
  13   2.0000     -10.284930      -279.8672
  14   2.0000     -10.279434      -279.7176
  15   2.0000     -10.275928      -279.6222
  16   2.0000      -8.084528      -219.9912
  17   2.0000      -8.079010      -219.8410
  18   2.0000      -6.043090      -164.4408
  19   2.0000      -6.038963      -164.3285
  20   2.0000      -6.037595      -164.2913
  21   2.0000      -6.035291      -164.2286
  22   2.0000      -6.033284      -164.1740
  23   2.0000      -6.029757      -164.0780
  24   2.0000      -1.014401       -27.6033
  25   2.0000      -0.993222       -27.0270
  26   2.0000      -0.910843       -24.7853
  27   2.0000      -0.898924       -24.4610
  28   2.0000      -0.871680       -23.7196
  29   2.0000      -0.849192       -23.1077
  30   2.0000      -0.844065       -22.9682
  31   2.0000      -0.822180       -22.3727
  32   2.0000      -0.781263       -21.2593
  33   2.0000      -0.769138       -20.9293
  34   2.0000      -0.705756       -19.2046
  35   2.0000      -0.689587       -18.7646
  36   2.0000      -0.688609       -18.7380
  37   2.0000      -0.658690       -17.9239
  38   2.0000      -0.648726       -17.6527
  39   2.0000      -0.620055       -16.8726
  40   2.0000      -0.590643       -16.0722
  41   2.0000      -0.572210       -15.5706
  42   2.0000      -0.553510       -15.0618
  43   2.0000      -0.550143       -14.9702
  44   2.0000      -0.546084       -14.8597
  45   2.0000      -0.529771       -14.4158
  46   2.0000      -0.524704       -14.2779
  47   2.0000      -0.510038       -13.8789
  48   2.0000      -0.505410       -13.7529
  49   2.0000      -0.495795       -13.4913
  50   2.0000      -0.485958       -13.2236
  51   2.0000      -0.475126       -12.9288
  52   2.0000      -0.471796       -12.8382
  53   2.0000      -0.469528       -12.7765
  54   2.0000      -0.459456       -12.5024
  55   2.0000      -0.446560       -12.1515
  56   2.0000      -0.438083       -11.9209
  57   2.0000      -0.436175       -11.8689
  58   2.0000      -0.430497       -11.7144
  59   2.0000      -0.419028       -11.4023
  60   2.0000      -0.414693       -11.2844
  61   2.0000      -0.411672       -11.2022
  62   2.0000      -0.403152       -10.9703
  63   2.0000      -0.350542        -9.5387
  64   2.0000      -0.333488        -9.0747
  65   2.0000      -0.324570        -8.8320
  66   2.0000      -0.304828        -8.2948
  67   0.0000       0.033031         0.8988
  68   0.0000       0.064684         1.7602
  69   0.0000       0.106946         2.9102
  70   0.0000       0.117908         3.2084
  71   0.0000       0.132867         3.6155

MULLIKEN ATOMIC CHARGES
-----------------------
   0 S :    0.091314
   1 C :   -0.098702
   2 C :   -0.072611
   3 C :    0.035056
   4 C :   -0.177850
   5 H :    0.031139
   6 C :    0.031810
   7 H :    0.017605
   8 H :    0.056386
   9 C :   -0.127338
  10 H :    0.043652
  11 H :    0.041063
  12 C :   -0.071400
  13 H :    0.053865
  14 H :    0.018182
  15 H :    0.039384
  16 S :    0.121346
  17 C :   -0.105816
  18 C :   -0.040360
  19 C :   -0.096876
  20 C :   -0.132144
  21 H :    0.046029
  22 C :    0.140174
  23 H :   -0.004166
  24 H :    0.021222
  25 C :   -0.084308
  26 H :    0.033762
  27 H :    0.018452
  28 C :   -0.053457
  29 H :    0.041642
  30 H :    0.036667
  31 H :    0.010480
  32 H :    0.061413
  33 H :    0.074384
Sum of atomic charges:   -0.0000000

LOEWDIN ATOMIC CHARGES
----------------------
   0 S :    0.410903
   1 C :   -0.196654
   2 C :   -0.078992
   3 C :   -0.056955
   4 C :   -0.194531
   5 H :    0.041549
   6 C :   -0.036240
   7 H :    0.027547
   8 H :    0.043139
   9 C :   -0.052667
  10 H :    0.029336
  11 H :    0.025503
  12 C :   -0.077640
  13 H :    0.035659
  14 H :    0.013444
  15 H :    0.029827
  16 S :    0.420553
  17 C :   -0.190521
  18 C :   -0.085116
  19 C :   -0.055767
  20 C :   -0.217663
  21 H :    0.044302
  22 C :   -0.011497
  23 H :    0.017950
  24 H :    0.024389
  25 C :   -0.042293
  26 H :    0.026021
  27 H :    0.020857
  28 C :   -0.078899
  29 H :    0.021250
  30 H :    0.033106
  31 H :    0.026571
  32 H :    0.040855
  33 H :    0.042674

  Mayer bond orders larger than 0.100000
B(  0-S ,  1-C ) :   1.1378 B(  0-S ,  4-C ) :   1.1504 B(  1-C ,  2-C ) :   1.5933
B(  1-C , 32-H ) :   0.9704 B(  2-C ,  3-C ) :   1.2010 B(  2-C ,  6-C ) :   1.0558
B(  3-C ,  4-C ) :   1.6069 B(  3-C ,  5-H ) :   0.9891 B(  4-C , 20-C ) :   0.9907
B(  6-C ,  7-H ) :   0.9446 B(  6-C ,  8-H ) :   0.9424 B(  6-C ,  9-C ) :   1.0353
B(  9-C , 10-H ) :   0.9626 B(  9-C , 11-H ) :   0.9591 B(  9-C , 12-C ) :   1.0640
B( 12-C , 13-H ) :   0.9736 B( 12-C , 14-H ) :   0.9744 B( 12-C , 15-H ) :   0.9751
B( 16-S , 17-C ) :   1.1635 B( 16-S , 20-C ) :   1.1464 B( 17-C , 18-C ) :   1.5851
B( 17-C , 33-H ) :   0.9606 B( 18-C , 19-C ) :   1.2816 B( 18-C , 21-H ) :   0.9765
B( 19-C , 20-C ) :   1.6035 B( 19-C , 22-C ) :   1.0208 B( 22-C , 23-H ) :   0.9183
B( 22-C , 24-H ) :   0.9489 B( 22-C , 25-C ) :   1.0771 B( 25-C , 26-H ) :   0.9570
B( 25-C , 27-H ) :   0.9566 B( 25-C , 28-C ) :   1.0736 B( 28-C , 29-H ) :   0.9772
B( 28-C , 30-H ) :   0.9698 B( 28-C , 31-H ) :   0.9695

Dispersion correction           -0.014497251
FINAL SINGLE POINT ENERGY     -1339.856513905048

DIPOLE MOMENT
-------------
                                X             Y             Z
Electronic contribution:     23.56653     -10.27320      -2.07150
Nuclear contribution   :    -23.84360      10.65587       2.45723
                        -----------------------------------------
Total Dipole Moment    :     -0.27707       0.38268       0.38572
                        -----------------------------------------
Magnitude (a.u.)       :      0.60991
Magnitude (Debye)      :      1.55027

Rotational constants in cm-1:     0.019492     0.008548     0.006954
Rotational constants in MHz :   584.345872   256.262638   208.476316

                             ****ORCA TERMINATED NORMALLY****
TOTAL RUN TIME: 0 days 0 hours 0 minutes 21 seconds 659 msec
