                         Program Version 4.2.1 -  RELEASE  -
|  1> ! wB97X-D3 SP def2-SVP
|  2> %pal
|  3> nprocs 24
|  4> end
|  5>
|  6> * xyz 0 1
|  7> S 	 -94.2285 	 -32.6742 	 -64.6407
|  8> C 	 -95.5924 	 -33.6384 	 -65.2829
|  9> C 	 -96.7052 	 -32.7932 	 -65.4461
| 10> C 	 -96.3816 	 -31.4039 	 -65.2353
| 11> C 	 -95.0506 	 -31.1145 	 -64.9512
| 12> H 	 -97.1873 	 -30.5785 	 -65.1757
| 13> C 	 -98.1376 	 -33.2697 	 -65.624
| 14> H 	 -98.8728 	 -32.8349 	 -64.8958
| 15> H 	 -98.3662 	 -34.3274 	 -65.4293
| 16> C 	 -98.6743 	 -32.9124 	 -67.0547
| 17> H 	 -98.1288 	 -33.4973 	 -67.7576
| 18> H 	 -99.7197 	 -33.1876 	 -67.2458
| 19> C 	 -98.6114 	 -31.4459 	 -67.3933
| 20> H 	 -99.2365 	 -31.1527 	 -68.2529
| 21> H 	 -99.0607 	 -30.9086 	 -66.6017
| 22> H 	 -97.5838 	 -31.0285 	 -67.5749
| 23> S 	 -93.4767 	 -29.8071 	 -63.0955
| 24> C 	 -93.3502 	 -28.1132 	 -63.1499
| 25> C 	 -93.8574 	 -27.642 	 -64.2966
| 26> C 	 -94.5885 	 -28.5582 	 -65.1205
| 27> C 	 -94.4917 	 -29.8315 	 -64.528
| 28> H 	 -93.6759 	 -26.5514 	 -64.4569
| 29> C 	 -95.2859 	 -28.2431 	 -66.4473
| 30> H 	 -96.3559 	 -28.5068 	 -66.3555
| 31> H 	 -94.9683 	 -28.9013 	 -67.2026
| 32> C 	 -95.2446 	 -26.7556 	 -66.9796
| 33> H 	 -94.3097 	 -26.2528 	 -66.7448
| 34> H 	 -95.9471 	 -26.1006 	 -66.3876
| 35> C 	 -95.7616 	 -26.4853 	 -68.3575
| 36> H 	 -96.7371 	 -26.8774 	 -68.6354
| 37> H 	 -95.0587 	 -26.9533 	 -69.0722
| 38> H 	 -95.8052 	 -25.4489 	 -68.489
| 39> H 	 -95.6457 	 -34.7088 	 -65.2026
| 40> H 	 -92.8372 	 -27.5146 	 -62.3878
| 41> *
| 42>
| 43>                          ****END OF INPUT****

CARTESIAN COORDINATES (ANGSTROEM)
---------------------------------
  S    -94.228500  -32.674200  -64.640700
  C    -95.592400  -33.638400  -65.282900
  C    -96.705200  -32.793200  -65.446100
  C    -96.381600  -31.403900  -65.235300
  C    -95.050600  -31.114500  -64.951200
  H    -97.187300  -30.578500  -65.175700
  C    -98.137600  -33.269700  -65.624000
  H    -98.872800  -32.834900  -64.895800
  H    -98.366200  -34.327400  -65.429300
  C    -98.674300  -32.912400  -67.054700
  H    -98.128800  -33.497300  -67.757600
  H    -99.719700  -33.187600  -67.245800
  C    -98.611400  -31.445900  -67.393300
  H    -99.236500  -31.152700  -68.252900
  H    -99.060700  -30.908600  -66.601700
  H    -97.583800  -31.028500  -67.574900
  S    -93.476700  -29.807100  -63.095500
  C    -93.350200  -28.113200  -63.149900
  C    -93.857400  -27.642000  -64.296600
  C    -94.588500  -28.558200  -65.120500
  C    -94.491700  -29.831500  -64.528000
  H    -93.675900  -26.551400  -64.456900
  C    -95.285900  -28.243100  -66.447300
  H    -96.355900  -28.506800  -66.355500
  H    -94.968300  -28.901300  -67.202600
  C    -95.244600  -26.755600  -66.979600
  H    -94.309700  -26.252800  -66.744800
  H    -95.947100  -26.100600  -66.387600
  C    -95.761600  -26.485300  -68.357500
  H    -96.737100  -26.877400  -68.635400
  H    -95.058700  -26.953300  -69.072200
  H    -95.805200  -25.448900  -68.489000
  H    -95.645700  -34.708800  -65.202600
  H    -92.837200  -27.514600  -62.387800

 Total Charge           Charge          ....    0
 Multiplicity           Mult            ....    1
 Number of Electrons    NEL             ....  134
 Basis Dimension        Dim             ....  322

ORBITAL ENERGIES
----------------

  NO   OCC          E(Eh)            E(eV)
   0   2.0000     -88.965430     -2420.8724
   1   2.0000     -88.964496     -2420.8470
   2   2.0000     -10.335864      -281.2532
   3   2.0000     -10.330572      -281.1092
   4   2.0000     -10.321763      -280.8695
   5   2.0000     -10.312142      -280.6077
   6   2.0000     -10.311131      -280.5801
   7   2.0000     -10.310607      -280.5659
   8   2.0000     -10.304165      -280.3906
   9   2.0000     -10.300974      -280.3037
  10   2.0000     -10.297822      -280.2180
  11   2.0000     -10.292782      -280.0808
  12   2.0000     -10.292050      -280.0609
  13   2.0000     -10.283423      -279.8262
  14   2.0000     -10.276168      -279.6288
  15   2.0000     -10.274046      -279.5710
  16   2.0000      -8.080326      -219.8769
  17   2.0000      -8.078905      -219.8382
  18   2.0000      -6.038747      -164.3227
  19   2.0000      -6.037682      -164.2937
  20   2.0000      -6.034717      -164.2130
  21   2.0000      -6.033704      -164.1854
  22   2.0000      -6.031074      -164.1139
  23   2.0000      -6.029336      -164.0666
  24   2.0000      -1.008373       -27.4392
  25   2.0000      -0.980667       -26.6853
  26   2.0000      -0.909436       -24.7470
  27   2.0000      -0.907730       -24.7006
  28   2.0000      -0.871257       -23.7081
  29   2.0000      -0.856910       -23.3177
  30   2.0000      -0.836730       -22.7686
  31   2.0000      -0.816581       -22.2203
  32   2.0000      -0.787750       -21.4358
  33   2.0000      -0.773845       -21.0574
  34   2.0000      -0.705032       -19.1849
  35   2.0000      -0.702355       -19.1121
  36   2.0000      -0.697885       -18.9904
  37   2.0000      -0.648981       -17.6597
  38   2.0000      -0.636859       -17.3298
  39   2.0000      -0.616863       -16.7857
  40   2.0000      -0.603151       -16.4126
  41   2.0000      -0.572211       -15.5706
  42   2.0000      -0.560898       -15.2628
  43   2.0000      -0.545418       -14.8416
  44   2.0000      -0.537984       -14.6393
  45   2.0000      -0.534731       -14.5508
  46   2.0000      -0.513013       -13.9598
  47   2.0000      -0.507999       -13.8233
  48   2.0000      -0.504507       -13.7283
  49   2.0000      -0.500136       -13.6094
  50   2.0000      -0.489566       -13.3218
  51   2.0000      -0.487534       -13.2665
  52   2.0000      -0.476113       -12.9557
  53   2.0000      -0.466789       -12.7020
  54   2.0000      -0.462469       -12.5844
  55   2.0000      -0.455702       -12.4003
  56   2.0000      -0.435924       -11.8621
  57   2.0000      -0.434700       -11.8288
  58   2.0000      -0.428676       -11.6649
  59   2.0000      -0.425655       -11.5827
  60   2.0000      -0.421933       -11.4814
  61   2.0000      -0.411836       -11.2066
  62   2.0000      -0.403896       -10.9906
  63   2.0000      -0.354862        -9.6563
  64   2.0000      -0.332483        -9.0473
  65   2.0000      -0.324760        -8.8372
  66   2.0000      -0.286989        -7.8094
  67   0.0000       0.021284         0.5792
  68   0.0000       0.068252         1.8572
  69   0.0000       0.103499         2.8164
  70   0.0000       0.119792         3.2597
  71   0.0000       0.131769         3.5856

MULLIKEN ATOMIC CHARGES
-----------------------
   0 S :    0.078567
   1 C :   -0.102968
   2 C :   -0.072271
   3 C :   -0.017665
   4 C :   -0.126861
   5 H :    0.055363
   6 C :    0.020055
   7 H :    0.041044
   8 H :    0.025032
   9 C :   -0.057201
  10 H :    0.020234
  11 H :    0.024888
  12 C :   -0.066515
  13 H :    0.030635
  14 H :    0.009443
  15 H :    0.054632
  16 S :    0.110938
  17 C :   -0.093661
  18 C :   -0.069971
  19 C :   -0.015080
  20 C :   -0.163916
  21 H :    0.030049
  22 C :    0.102564
  23 H :    0.030667
  24 H :    0.028595
  25 C :   -0.120155
  26 H :    0.031810
  27 H :    0.024014
  28 C :   -0.012023
  29 H :    0.028103
  30 H :    0.029286
  31 H :    0.024634
  32 H :    0.055107
  33 H :    0.062627
Sum of atomic charges:    0.0000000

LOEWDIN ATOMIC CHARGES
----------------------
   0 S :    0.369614
   1 C :   -0.180907
   2 C :   -0.061042
   3 C :   -0.069732
   4 C :   -0.183321
   5 H :    0.046005
   6 C :   -0.037906
   7 H :    0.036615
   8 H :    0.031621
   9 C :   -0.040332
  10 H :    0.017971
  11 H :    0.025682
  12 C :   -0.072589
  13 H :    0.028456
  14 H :    0.014375
  15 H :    0.029997
  16 S :    0.420754
  17 C :   -0.203353
  18 C :   -0.084554
  19 C :   -0.049152
  20 C :   -0.194917
  21 H :    0.037654
  22 C :   -0.028307
  23 H :    0.037788
  24 H :    0.027559
  25 C :   -0.048527
  26 H :    0.021944
  27 H :    0.028177
  28 C :   -0.059175
  29 H :    0.026010
  30 H :    0.025612
  31 H :    0.022929
  32 H :    0.028152
  33 H :    0.036899

  Mayer bond orders larger than 0.100000
B(  0-S ,  1-C ) :   1.1295 B(  0-S ,  4-C ) :   1.1326 B(  1-C ,  2-C ) :   1.6069
B(  1-C ,  4-C ) :   0.1001 B(  1-C , 32-H ) :   0.9702 B(  2-C ,  3-C ) :   1.2573
B(  2-C ,  6-C ) :   1.0177 B(  3-C ,  4-C ) :   1.5636 B(  3-C ,  5-H ) :   0.9677
B(  4-C , 20-C ) :   1.0747 B(  6-C ,  7-H ) :   0.9496 B(  6-C ,  8-H ) :   0.9490
B(  6-C ,  9-C ) :   1.0644 B(  9-C , 10-H ) :   0.9536 B(  9-C , 11-H ) :   0.9561
B(  9-C , 12-C ) :   1.0937 B( 12-C , 13-H ) :   0.9691 B( 12-C , 14-H ) :   0.9677
B( 12-C , 15-H ) :   0.9642 B( 16-S , 17-C ) :   1.1550 B( 16-S , 20-C ) :   1.1548
B( 17-C , 18-C ) :   1.6242 B( 17-C , 33-H ) :   0.9623 B( 18-C , 19-C ) :   1.2429
B( 18-C , 21-H ) :   0.9803 B( 19-C , 20-C ) :   1.5713 B( 19-C , 22-C ) :   1.0317
B( 22-C , 23-H ) :   0.9252 B( 22-C , 24-H ) :   0.9348 B( 22-C , 25-C ) :   1.0579
B( 25-C , 26-H ) :   0.9540 B( 25-C , 27-H ) :   0.9557 B( 25-C , 28-C ) :   1.0910
B( 28-C , 29-H ) :   0.9729 B( 28-C , 30-H ) :   0.9723 B( 28-C , 31-H ) :   0.9708

Dispersion correction           -0.014192446
FINAL SINGLE POINT ENERGY     -1339.863730985049

DIPOLE MOMENT
-------------
                                X             Y             Z
Electronic contribution:     20.61125     -10.89846      21.04635
Nuclear contribution   :    -21.21478      11.26311     -21.23590
                        -----------------------------------------
Total Dipole Moment    :     -0.60353       0.36465      -0.18955
                        -----------------------------------------
Magnitude (a.u.)       :      0.73017
Magnitude (Debye)      :      1.85595

Rotational constants in cm-1:     0.015611     0.010060     0.006552
Rotational constants in MHz :   467.992179   301.592884   196.433465

                             ****ORCA TERMINATED NORMALLY****
TOTAL RUN TIME: 0 days 0 hours 0 minutes 21 seconds 601 msec
