                         Program Version 4.2.1 -  RELEASE  -
|  1> ! wB97X-D3 SP def2-SVP
|  2> %pal
|  3> nprocs 24
|  4> end
|  5>
|  6> * xyz 0 1
|  7> S 	 -47.0242 	 26.2535 	 25.5328
|  8> C 	 -47.6473 	 26.9916 	 26.9596
|  9> C 	 -47.5691 	 26.1074 	 28.0233
| 10> C 	 -47.0431 	 24.8126 	 27.614
| 11> C 	 -46.5838 	 24.7394 	 26.3255
| 12> H 	 -46.9923 	 23.9938 	 28.3265
| 13> C 	 -47.9032 	 26.4476 	 29.475
| 14> H 	 -48.9236 	 26.6151 	 29.5973
| 15> H 	 -47.4735 	 27.4423 	 29.736
| 16> C 	 -47.5037 	 25.3321 	 30.5206
| 17> H 	 -48.0715 	 24.494 	 30.2323
| 18> H 	 -46.4223 	 25.2069 	 30.3866
| 19> C 	 -47.7916 	 25.5475 	 32.0433
| 20> H 	 -48.8342 	 25.7421 	 32.3029
| 21> H 	 -47.4879 	 24.6322 	 32.5872
| 22> H 	 -47.3298 	 26.4466 	 32.4867
| 23> S 	 -44.358 	 23.1942 	 26.4125
| 24> C 	 -44.0863 	 21.9225 	 25.2141
| 25> C 	 -45.2143 	 21.6538 	 24.5078
| 26> C 	 -46.2293 	 22.6508 	 24.7096
| 27> C 	 -45.9121 	 23.5985 	 25.6606
| 28> H 	 -45.3343 	 20.8678 	 23.8241
| 29> C 	 -47.6127 	 22.5673 	 24.0939
| 30> H 	 -47.3598 	 22.5044 	 23.064
| 31> H 	 -48.1283 	 23.4771 	 24.2887
| 32> C 	 -48.3982 	 21.3404 	 24.5733
| 33> H 	 -48.2508 	 21.1043 	 25.5935
| 34> H 	 -47.8906 	 20.4525 	 24.1278
| 35> C 	 -49.9143 	 21.482 	 24.3135
| 36> H 	 -50.4637 	 20.5429 	 24.6851
| 37> H 	 -50.1961 	 21.5786 	 23.2461
| 38> H 	 -50.1977 	 22.3456 	 24.8603
| 39> H 	 -48.0553 	 28.0096 	 27.0276
| 40> H 	 -43.1753 	 21.3388 	 25.1691
| 41> *
| 42>
| 43>                          ****END OF INPUT****

CARTESIAN COORDINATES (ANGSTROEM)
---------------------------------
  S    -47.024200   26.253500   25.532800
  C    -47.647300   26.991600   26.959600
  C    -47.569100   26.107400   28.023300
  C    -47.043100   24.812600   27.614000
  C    -46.583800   24.739400   26.325500
  H    -46.992300   23.993800   28.326500
  C    -47.903200   26.447600   29.475000
  H    -48.923600   26.615100   29.597300
  H    -47.473500   27.442300   29.736000
  C    -47.503700   25.332100   30.520600
  H    -48.071500   24.494000   30.232300
  H    -46.422300   25.206900   30.386600
  C    -47.791600   25.547500   32.043300
  H    -48.834200   25.742100   32.302900
  H    -47.487900   24.632200   32.587200
  H    -47.329800   26.446600   32.486700
  S    -44.358000   23.194200   26.412500
  C    -44.086300   21.922500   25.214100
  C    -45.214300   21.653800   24.507800
  C    -46.229300   22.650800   24.709600
  C    -45.912100   23.598500   25.660600
  H    -45.334300   20.867800   23.824100
  C    -47.612700   22.567300   24.093900
  H    -47.359800   22.504400   23.064000
  H    -48.128300   23.477100   24.288700
  C    -48.398200   21.340400   24.573300
  H    -48.250800   21.104300   25.593500
  H    -47.890600   20.452500   24.127800
  C    -49.914300   21.482000   24.313500
  H    -50.463700   20.542900   24.685100
  H    -50.196100   21.578600   23.246100
  H    -50.197700   22.345600   24.860300
  H    -48.055300   28.009600   27.027600
  H    -43.175300   21.338800   25.169100

 Total Charge           Charge          ....    0
 Multiplicity           Mult            ....    1
 Number of Electrons    NEL             ....  134
 Basis Dimension        Dim             ....  322

ORBITAL ENERGIES
----------------

  NO   OCC          E(Eh)            E(eV)
   0   2.0000     -88.964218     -2420.8394
   1   2.0000     -88.960655     -2420.7425
   2   2.0000     -10.332519      -281.1621
   3   2.0000     -10.327335      -281.0211
   4   2.0000     -10.319171      -280.7989
   5   2.0000     -10.314840      -280.6811
   6   2.0000     -10.303472      -280.3717
   7   2.0000     -10.302297      -280.3398
   8   2.0000     -10.294482      -280.1271
   9   2.0000     -10.292176      -280.0643
  10   2.0000     -10.291732      -280.0523
  11   2.0000     -10.290856      -280.0284
  12   2.0000     -10.285576      -279.8848
  13   2.0000     -10.284722      -279.8615
  14   2.0000     -10.283561      -279.8299
  15   2.0000     -10.282774      -279.8085
  16   2.0000      -8.078901      -219.8381
  17   2.0000      -8.075169      -219.7365
  18   2.0000      -6.037484      -164.2883
  19   2.0000      -6.033718      -164.1858
  20   2.0000      -6.033240      -164.1728
  21   2.0000      -6.029829      -164.0800
  22   2.0000      -6.029749      -164.0778
  23   2.0000      -6.025765      -163.9694
  24   2.0000      -1.003913       -27.3179
  25   2.0000      -0.984326       -26.7849
  26   2.0000      -0.908765       -24.7288
  27   2.0000      -0.903523       -24.5861
  28   2.0000      -0.870930       -23.6992
  29   2.0000      -0.846624       -23.0378
  30   2.0000      -0.840999       -22.8848
  31   2.0000      -0.818043       -22.2601
  32   2.0000      -0.780634       -21.2421
  33   2.0000      -0.769160       -20.9299
  34   2.0000      -0.712534       -19.3890
  35   2.0000      -0.703951       -19.1555
  36   2.0000      -0.687416       -18.7055
  37   2.0000      -0.667673       -18.1683
  38   2.0000      -0.637210       -17.3394
  39   2.0000      -0.619347       -16.8533
  40   2.0000      -0.596182       -16.2229
  41   2.0000      -0.571026       -15.5384
  42   2.0000      -0.568439       -15.4680
  43   2.0000      -0.561894       -15.2899
  44   2.0000      -0.524240       -14.2653
  45   2.0000      -0.522097       -14.2070
  46   2.0000      -0.519923       -14.1478
  47   2.0000      -0.511948       -13.9308
  48   2.0000      -0.504974       -13.7411
  49   2.0000      -0.494800       -13.4642
  50   2.0000      -0.485916       -13.2224
  51   2.0000      -0.481004       -13.0888
  52   2.0000      -0.475185       -12.9304
  53   2.0000      -0.465943       -12.6790
  54   2.0000      -0.456638       -12.4257
  55   2.0000      -0.453466       -12.3394
  56   2.0000      -0.450762       -12.2659
  57   2.0000      -0.438386       -11.9291
  58   2.0000      -0.430496       -11.7144
  59   2.0000      -0.423835       -11.5331
  60   2.0000      -0.417617       -11.3639
  61   2.0000      -0.416434       -11.3318
  62   2.0000      -0.406024       -11.0485
  63   2.0000      -0.342848        -9.3294
  64   2.0000      -0.331345        -9.0164
  65   2.0000      -0.321701        -8.7539
  66   2.0000      -0.300776        -8.1845
  67   0.0000       0.040739         1.1086
  68   0.0000       0.060349         1.6422
  69   0.0000       0.106022         2.8850
  70   0.0000       0.128298         3.4912
  71   0.0000       0.137618         3.7448

MULLIKEN ATOMIC CHARGES
-----------------------
   0 S :    0.114796
   1 C :   -0.134555
   2 C :   -0.104509
   3 C :    0.025178
   4 C :   -0.138555
   5 H :    0.013903
   6 C :    0.081338
   7 H :    0.014316
   8 H :    0.031486
   9 C :   -0.118020
  10 H :    0.039044
  11 H :    0.049530
  12 C :   -0.046580
  13 H :    0.024101
  14 H :    0.046406
  15 H :    0.032142
  16 S :    0.088807
  17 C :   -0.078211
  18 C :   -0.005568
  19 C :   -0.070791
  20 C :   -0.168520
  21 H :    0.000806
  22 C :    0.124326
  23 H :    0.022405
  24 H :    0.006810
  25 C :   -0.073153
  26 H :    0.022616
  27 H :    0.017687
  28 C :   -0.058160
  29 H :    0.045047
  30 H :    0.039299
  31 H :    0.038363
  32 H :    0.058988
  33 H :    0.059231
Sum of atomic charges:    0.0000000

LOEWDIN ATOMIC CHARGES
----------------------
   0 S :    0.411925
   1 C :   -0.208340
   2 C :   -0.065700
   3 C :   -0.068492
   4 C :   -0.199673
   5 H :    0.029908
   6 C :   -0.032083
   7 H :    0.020368
   8 H :    0.034257
   9 C :   -0.038140
  10 H :    0.019420
  11 H :    0.029344
  12 C :   -0.071003
  13 H :    0.022947
  14 H :    0.033966
  15 H :    0.026354
  16 S :    0.386729
  17 C :   -0.165385
  18 C :   -0.067391
  19 C :   -0.048155
  20 C :   -0.191895
  21 H :    0.023664
  22 C :   -0.022528
  23 H :    0.029138
  24 H :    0.020521
  25 C :   -0.040809
  26 H :    0.020124
  27 H :    0.023287
  28 C :   -0.064666
  29 H :    0.035576
  30 H :    0.027295
  31 H :    0.022799
  32 H :    0.037049
  33 H :    0.029590

  Mayer bond orders larger than 0.100000
B(  0-S ,  1-C ) :   1.1513 B(  0-S ,  4-C ) :   1.1408 B(  1-C ,  2-C ) :   1.6067
B(  1-C , 32-H ) :   0.9703 B(  2-C ,  3-C ) :   1.2627 B(  2-C ,  6-C ) :   1.0057
B(  3-C ,  4-C ) :   1.5699 B(  3-C ,  5-H ) :   0.9867 B(  4-C , 20-C ) :   0.9993
B(  6-C ,  7-H ) :   0.9310 B(  6-C ,  8-H ) :   0.9435 B(  6-C ,  9-C ) :   1.0792
B(  9-C , 10-H ) :   0.9471 B(  9-C , 11-H ) :   0.9584 B(  9-C , 12-C ) :   1.0789
B( 12-C , 13-H ) :   0.9743 B( 12-C , 14-H ) :   0.9739 B( 12-C , 15-H ) :   0.9757
B( 16-S , 17-C ) :   1.1514 B( 16-S , 20-C ) :   1.1238 B( 17-C , 18-C ) :   1.6118
B( 17-C , 33-H ) :   0.9689 B( 18-C , 19-C ) :   1.2214 B( 18-C , 21-H ) :   0.9997
B( 19-C , 20-C ) :   1.6367 B( 19-C , 22-C ) :   1.0401 B( 22-C , 23-H ) :   0.9216
B( 22-C , 24-H ) :   0.9367 B( 22-C , 25-C ) :   1.0569 B( 25-C , 26-H ) :   0.9601
B( 25-C , 27-H ) :   0.9480 B( 25-C , 28-C ) :   1.0787 B( 28-C , 29-H ) :   0.9749
B( 28-C , 30-H ) :   0.9766 B( 28-C , 31-H ) :   0.9764

Dispersion correction           -0.013761598
FINAL SINGLE POINT ENERGY     -1339.876569558154

DIPOLE MOMENT
-------------
                                X             Y             Z
Electronic contribution:     16.89218       6.74343     -12.23193
Nuclear contribution   :    -17.27574      -7.04105      12.51154
                        -----------------------------------------
Total Dipole Moment    :     -0.38355      -0.29762       0.27961
                        -----------------------------------------
Magnitude (a.u.)       :      0.56024
Magnitude (Debye)      :      1.42402

Rotational constants in cm-1:     0.017216     0.007752     0.007171
Rotational constants in MHz :   516.123669   232.399446   214.970568

                             ****ORCA TERMINATED NORMALLY****
TOTAL RUN TIME: 0 days 0 hours 0 minutes 20 seconds 859 msec
