                         Program Version 4.2.1 -  RELEASE  -
|  1> ! wB97X-D3 SP def2-SVP
|  2> %pal
|  3> nprocs 24
|  4> end
|  5>
|  6> * xyz 0 1
|  7> S 	 -103.343 	 -0.286502 	 -108.438
|  8> C 	 -103.311 	 -0.796263 	 -110.125
|  9> C 	 -103.64 	 -2.15648 	 -110.183
| 10> C 	 -104.074 	 -2.69701 	 -108.953
| 11> C 	 -103.994 	 -1.82132 	 -107.918
| 12> H 	 -104.434 	 -3.71606 	 -108.901
| 13> C 	 -103.681 	 -2.9424 	 -111.531
| 14> H 	 -102.834 	 -2.58187 	 -112.123
| 15> H 	 -104.538 	 -2.52684 	 -112.013
| 16> C 	 -103.856 	 -4.47361 	 -111.4
| 17> H 	 -104.682 	 -4.67745 	 -110.797
| 18> H 	 -104.162 	 -4.84791 	 -112.391
| 19> C 	 -102.575 	 -5.20016 	 -111.035
| 20> H 	 -102.541 	 -6.28064 	 -110.813
| 21> H 	 -101.947 	 -5.11462 	 -111.962
| 22> H 	 -102.093 	 -4.73502 	 -110.204
| 23> S 	 -104.922 	 -0.783353 	 -105.518
| 24> C 	 -105.328 	 -1.79987 	 -104.204
| 25> C 	 -104.778 	 -3.06304 	 -104.383
| 26> C 	 -104.146 	 -3.22303 	 -105.66
| 27> C 	 -104.245 	 -2.07726 	 -106.493
| 28> H 	 -104.904 	 -3.85384 	 -103.704
| 29> C 	 -103.572 	 -4.60045 	 -105.994
| 30> H 	 -104.201 	 -5.01441 	 -106.832
| 31> H 	 -103.703 	 -5.26035 	 -105.108
| 32> C 	 -102.092 	 -4.71224 	 -106.383
| 33> H 	 -101.582 	 -4.24814 	 -105.598
| 34> H 	 -101.871 	 -4.14198 	 -107.241
| 35> C 	 -101.642 	 -6.18759 	 -106.589
| 36> H 	 -100.705 	 -6.3013 	 -107.173
| 37> H 	 -102.349 	 -6.68235 	 -107.263
| 38> H 	 -101.674 	 -6.7467 	 -105.663
| 39> H 	 -102.9 	 -0.240275 	 -110.974
| 40> H 	 -105.874 	 -1.42827 	 -103.293
| 41> *
| 42>
| 43>                          ****END OF INPUT****

CARTESIAN COORDINATES (ANGSTROEM)
---------------------------------
  S    -103.343000   -0.286502  -108.438000
  C    -103.311000   -0.796263  -110.125000
  C    -103.640000   -2.156480  -110.183000
  C    -104.074000   -2.697010  -108.953000
  C    -103.994000   -1.821320  -107.918000
  H    -104.434000   -3.716060  -108.901000
  C    -103.681000   -2.942400  -111.531000
  H    -102.834000   -2.581870  -112.123000
  H    -104.538000   -2.526840  -112.013000
  C    -103.856000   -4.473610  -111.400000
  H    -104.682000   -4.677450  -110.797000
  H    -104.162000   -4.847910  -112.391000
  C    -102.575000   -5.200160  -111.035000
  H    -102.541000   -6.280640  -110.813000
  H    -101.947000   -5.114620  -111.962000
  H    -102.093000   -4.735020  -110.204000
  S    -104.922000   -0.783353  -105.518000
  C    -105.328000   -1.799870  -104.204000
  C    -104.778000   -3.063040  -104.383000
  C    -104.146000   -3.223030  -105.660000
  C    -104.245000   -2.077260  -106.493000
  H    -104.904000   -3.853840  -103.704000
  C    -103.572000   -4.600450  -105.994000
  H    -104.201000   -5.014410  -106.832000
  H    -103.703000   -5.260350  -105.108000
  C    -102.092000   -4.712240  -106.383000
  H    -101.582000   -4.248140  -105.598000
  H    -101.871000   -4.141980  -107.241000
  C    -101.642000   -6.187590  -106.589000
  H    -100.705000   -6.301300  -107.173000
  H    -102.349000   -6.682350  -107.263000
  H    -101.674000   -6.746700  -105.663000
  H    -102.900000   -0.240275  -110.974000
  H    -105.874000   -1.428270  -103.293000

 Total Charge           Charge          ....    0
 Multiplicity           Mult            ....    1
 Number of Electrons    NEL             ....  134
 Basis Dimension        Dim             ....  322

ORBITAL ENERGIES
----------------

  NO   OCC          E(Eh)            E(eV)
   0   2.0000     -88.967202     -2420.9207
   1   2.0000     -88.965467     -2420.8734
   2   2.0000     -10.332608      -281.1646
   3   2.0000     -10.332103      -281.1508
   4   2.0000     -10.321660      -280.8667
   5   2.0000     -10.314478      -280.6712
   6   2.0000     -10.309103      -280.5250
   7   2.0000     -10.302071      -280.3336
   8   2.0000     -10.297348      -280.2051
   9   2.0000     -10.295247      -280.1479
  10   2.0000     -10.292415      -280.0709
  11   2.0000     -10.290347      -280.0146
  12   2.0000     -10.289251      -279.9848
  13   2.0000     -10.280756      -279.7536
  14   2.0000     -10.280744      -279.7533
  15   2.0000     -10.276107      -279.6271
  16   2.0000      -8.081607      -219.9117
  17   2.0000      -8.080857      -219.8913
  18   2.0000      -6.040184      -164.3618
  19   2.0000      -6.039329      -164.3385
  20   2.0000      -6.036173      -164.2526
  21   2.0000      -6.035076      -164.2228
  22   2.0000      -6.032307      -164.1474
  23   2.0000      -6.031811      -164.1339
  24   2.0000      -1.007805       -27.4238
  25   2.0000      -0.986017       -26.8309
  26   2.0000      -0.912566       -24.8322
  27   2.0000      -0.906805       -24.6754
  28   2.0000      -0.868669       -23.6377
  29   2.0000      -0.851601       -23.1732
  30   2.0000      -0.844158       -22.9707
  31   2.0000      -0.816573       -22.2201
  32   2.0000      -0.781776       -21.2732
  33   2.0000      -0.770091       -20.9552
  34   2.0000      -0.715087       -19.4585
  35   2.0000      -0.703679       -19.1481
  36   2.0000      -0.688452       -18.7337
  37   2.0000      -0.663383       -18.0516
  38   2.0000      -0.634974       -17.2785
  39   2.0000      -0.630343       -17.1525
  40   2.0000      -0.594160       -16.1679
  41   2.0000      -0.570494       -15.5239
  42   2.0000      -0.565479       -15.3875
  43   2.0000      -0.556617       -15.1463
  44   2.0000      -0.541500       -14.7350
  45   2.0000      -0.518962       -14.1217
  46   2.0000      -0.513874       -13.9832
  47   2.0000      -0.510185       -13.8828
  48   2.0000      -0.503300       -13.6955
  49   2.0000      -0.498976       -13.5778
  50   2.0000      -0.492021       -13.3886
  51   2.0000      -0.484354       -13.1799
  52   2.0000      -0.477638       -12.9972
  53   2.0000      -0.462685       -12.5903
  54   2.0000      -0.458959       -12.4889
  55   2.0000      -0.451217       -12.2782
  56   2.0000      -0.449388       -12.2285
  57   2.0000      -0.440807       -11.9950
  58   2.0000      -0.429854       -11.6969
  59   2.0000      -0.427867       -11.6429
  60   2.0000      -0.423875       -11.5342
  61   2.0000      -0.416836       -11.3427
  62   2.0000      -0.410180       -11.1616
  63   2.0000      -0.353766        -9.6265
  64   2.0000      -0.333705        -9.0806
  65   2.0000      -0.328295        -8.9334
  66   2.0000      -0.284711        -7.7474
  67   0.0000       0.021575         0.5871
  68   0.0000       0.074089         2.0161
  69   0.0000       0.105009         2.8574
  70   0.0000       0.120604         3.2818
  71   0.0000       0.131419         3.5761

MULLIKEN ATOMIC CHARGES
-----------------------
   0 S :    0.107191
   1 C :   -0.133019
   2 C :   -0.122474
   3 C :   -0.005042
   4 C :   -0.080631
   5 H :    0.004502
   6 C :    0.057980
   7 H :    0.027135
   8 H :    0.039402
   9 C :   -0.044819
  10 H :    0.017828
  11 H :    0.024853
  12 C :   -0.058233
  13 H :    0.039771
  14 H :    0.032470
  15 H :    0.031913
  16 S :    0.105981
  17 C :   -0.108399
  18 C :   -0.019179
  19 C :   -0.042623
  20 C :   -0.142841
  21 H :    0.002662
  22 C :    0.007602
  23 H :    0.040315
  24 H :    0.017326
  25 C :   -0.018327
  26 H :    0.015853
  27 H :    0.024849
  28 C :   -0.054019
  29 H :    0.041871
  30 H :    0.015775
  31 H :    0.034961
  32 H :    0.055596
  33 H :    0.083772
Sum of atomic charges:   -0.0000000

LOEWDIN ATOMIC CHARGES
----------------------
   0 S :    0.404375
   1 C :   -0.209726
   2 C :   -0.057612
   3 C :   -0.076440
   4 C :   -0.184340
   5 H :    0.031200
   6 C :   -0.025664
   7 H :    0.031159
   8 H :    0.034485
   9 C :   -0.039400
  10 H :    0.013025
  11 H :    0.030158
  12 C :   -0.071675
  13 H :    0.028741
  14 H :    0.033943
  15 H :    0.019695
  16 S :    0.425059
  17 C :   -0.202256
  18 C :   -0.072421
  19 C :   -0.053469
  20 C :   -0.202747
  21 H :    0.022765
  22 C :   -0.034733
  23 H :    0.032017
  24 H :    0.030280
  25 C :   -0.032956
  26 H :    0.018099
  27 H :    0.018546
  28 C :   -0.067226
  29 H :    0.032751
  30 H :    0.023123
  31 H :    0.024008
  32 H :    0.033350
  33 H :    0.043888

  Mayer bond orders larger than 0.100000
B(  0-S ,  1-C ) :   1.1285 B(  0-S ,  4-C ) :   1.1643 B(  1-C ,  2-C ) :   1.6046
B(  1-C ,  4-C ) :   0.1042 B(  1-C , 32-H ) :   0.9705 B(  2-C ,  3-C ) :   1.2744
B(  2-C ,  6-C ) :   0.9875 B(  3-C ,  4-C ) :   1.5506 B(  3-C ,  5-H ) :   0.9945
B(  4-C , 20-C ) :   1.0459 B(  6-C ,  7-H ) :   0.9457 B(  6-C ,  8-H ) :   0.9389
B(  6-C ,  9-C ) :   1.0848 B(  9-C , 10-H ) :   0.9491 B(  9-C , 11-H ) :   0.9534
B(  9-C , 12-C ) :   1.0612 B( 12-C , 13-H ) :   0.9760 B( 12-C , 14-H ) :   0.9743
B( 12-C , 15-H ) :   0.9801 B( 16-S , 17-C ) :   1.1870 B( 16-S , 20-C ) :   1.1478
B( 17-C , 18-C ) :   1.5489 B( 17-C , 20-C ) :   0.1047 B( 17-C , 33-H ) :   0.9618
B( 18-C , 19-C ) :   1.2893 B( 18-C , 21-H ) :   1.0002 B( 19-C , 20-C ) :   1.5345
B( 19-C , 22-C ) :   1.0400 B( 22-C , 23-H ) :   0.9307 B( 22-C , 24-H ) :   0.9405
B( 22-C , 25-C ) :   1.0620 B( 25-C , 26-H ) :   0.9529 B( 25-C , 27-H ) :   0.9540
B( 25-C , 28-C ) :   1.0810 B( 28-C , 29-H ) :   0.9743 B( 28-C , 30-H ) :   0.9727
B( 28-C , 31-H ) :   0.9759

Dispersion correction           -0.014977250
FINAL SINGLE POINT ENERGY     -1339.881490219884

DIPOLE MOMENT
-------------
                                X             Y             Z
Electronic contribution:     -9.53603      28.29729      12.14912
Nuclear contribution   :      9.55111     -28.97444     -12.40022
                        -----------------------------------------
Total Dipole Moment    :      0.01509      -0.67714      -0.25109
                        -----------------------------------------
Magnitude (a.u.)       :      0.72236
Magnitude (Debye)      :      1.83608

Rotational constants in cm-1:     0.016887     0.010500     0.007180
Rotational constants in MHz :   506.261276   314.781226   215.238429

                             ****ORCA TERMINATED NORMALLY****
TOTAL RUN TIME: 0 days 0 hours 0 minutes 21 seconds 341 msec
