                         Program Version 4.2.1 -  RELEASE  -
|  1> ! wB97X-D3 SP def2-SVP
|  2> %pal
|  3> nprocs 24
|  4> end
|  5>
|  6> * xyz 0 1
|  7> S 	 -101.092 	 0.310727 	 -103.609
|  8> C 	 -101.587 	 -0.57041 	 -105.106
|  9> C 	 -102.053 	 -1.81972 	 -104.774
| 10> C 	 -102.236 	 -2.0514 	 -103.397
| 11> C 	 -101.782 	 -0.978192 	 -102.632
| 12> H 	 -102.508 	 -3.03985 	 -102.895
| 13> C 	 -102.453 	 -2.8603 	 -105.776
| 14> H 	 -101.95 	 -2.55266 	 -106.632
| 15> H 	 -103.511 	 -2.74035 	 -105.94
| 16> C 	 -101.989 	 -4.25476 	 -105.556
| 17> H 	 -100.917 	 -4.23261 	 -105.545
| 18> H 	 -102.283 	 -4.64822 	 -104.568
| 19> C 	 -102.588 	 -5.23176 	 -106.611
| 20> H 	 -103.62 	 -5.20197 	 -106.626
| 21> H 	 -102.132 	 -5.10254 	 -107.533
| 22> H 	 -102.173 	 -6.1863 	 -106.322
| 23> S 	 -100.134 	 -1.32273 	 -100.424
| 24> C 	 -100.625 	 -0.795806 	 -98.8647
| 25> C 	 -101.987 	 -0.506373 	 -98.8422
| 26> C 	 -102.565 	 -0.507771 	 -100.167
| 27> C 	 -101.66 	 -0.878463 	 -101.145
| 28> H 	 -102.307 	 -0.212064 	 -97.846
| 29> C 	 -104.024 	 -0.0884159 	 -100.388
| 30> H 	 -104.206 	 0.0932349 	 -101.49
| 31> H 	 -104.133 	 0.989666 	 -100.06
| 32> C 	 -105.143 	 -0.952768 	 -99.7451
| 33> H 	 -106.002 	 -0.443163 	 -100.161
| 34> H 	 -105.183 	 -0.843078 	 -98.641
| 35> C 	 -105.043 	 -2.38367 	 -100.194
| 36> H 	 -105.859 	 -2.92866 	 -99.7234
| 37> H 	 -104.117 	 -2.88868 	 -99.9185
| 38> H 	 -105.164 	 -2.32036 	 -101.289
| 39> H 	 -101.324 	 -0.24606 	 -106.06
| 40> H 	 -100.024 	 -1.09616 	 -97.9981
| 41> *
| 42>
| 43>                          ****END OF INPUT****

CARTESIAN COORDINATES (ANGSTROEM)
---------------------------------
  S    -101.092000    0.310727  -103.609000
  C    -101.587000   -0.570410  -105.106000
  C    -102.053000   -1.819720  -104.774000
  C    -102.236000   -2.051400  -103.397000
  C    -101.782000   -0.978192  -102.632000
  H    -102.508000   -3.039850  -102.895000
  C    -102.453000   -2.860300  -105.776000
  H    -101.950000   -2.552660  -106.632000
  H    -103.511000   -2.740350  -105.940000
  C    -101.989000   -4.254760  -105.556000
  H    -100.917000   -4.232610  -105.545000
  H    -102.283000   -4.648220  -104.568000
  C    -102.588000   -5.231760  -106.611000
  H    -103.620000   -5.201970  -106.626000
  H    -102.132000   -5.102540  -107.533000
  H    -102.173000   -6.186300  -106.322000
  S    -100.134000   -1.322730  -100.424000
  C    -100.625000   -0.795806  -98.864700
  C    -101.987000   -0.506373  -98.842200
  C    -102.565000   -0.507771  -100.167000
  C    -101.660000   -0.878463  -101.145000
  H    -102.307000   -0.212064  -97.846000
  C    -104.024000   -0.088416  -100.388000
  H    -104.206000    0.093235  -101.490000
  H    -104.133000    0.989666  -100.060000
  C    -105.143000   -0.952768  -99.745100
  H    -106.002000   -0.443163  -100.161000
  H    -105.183000   -0.843078  -98.641000
  C    -105.043000   -2.383670  -100.194000
  H    -105.859000   -2.928660  -99.723400
  H    -104.117000   -2.888680  -99.918500
  H    -105.164000   -2.320360  -101.289000
  H    -101.324000   -0.246060  -106.060000
  H    -100.024000   -1.096160  -97.998100

 Total Charge           Charge          ....    0
 Multiplicity           Mult            ....    1
 Number of Electrons    NEL             ....  134
 Basis Dimension        Dim             ....  322

ORBITAL ENERGIES
----------------

  NO   OCC          E(Eh)            E(eV)
   0   2.0000     -88.965462     -2420.8733
   1   2.0000     -88.959988     -2420.7243
   2   2.0000     -10.333550      -281.1902
   3   2.0000     -10.325719      -280.9771
   4   2.0000     -10.314281      -280.6658
   5   2.0000     -10.311857      -280.5999
   6   2.0000     -10.307172      -280.4724
   7   2.0000     -10.298385      -280.2333
   8   2.0000     -10.296718      -280.1879
   9   2.0000     -10.295660      -280.1592
  10   2.0000     -10.295379      -280.1515
  11   2.0000     -10.286001      -279.8963
  12   2.0000     -10.284097      -279.8445
  13   2.0000     -10.277280      -279.6590
  14   2.0000     -10.273604      -279.5590
  15   2.0000     -10.269124      -279.4371
  16   2.0000      -8.079214      -219.8466
  17   2.0000      -8.075751      -219.7523
  18   2.0000      -6.037745      -164.2954
  19   2.0000      -6.034135      -164.1972
  20   2.0000      -6.033902      -164.1908
  21   2.0000      -6.029994      -164.0845
  22   2.0000      -6.029965      -164.0837
  23   2.0000      -6.026715      -163.9953
  24   2.0000      -1.002902       -27.2904
  25   2.0000      -0.982792       -26.7431
  26   2.0000      -0.919088       -25.0096
  27   2.0000      -0.905870       -24.6500
  28   2.0000      -0.866981       -23.5917
  29   2.0000      -0.846676       -23.0392
  30   2.0000      -0.844315       -22.9750
  31   2.0000      -0.815401       -22.1882
  32   2.0000      -0.784641       -21.3512
  33   2.0000      -0.772942       -21.0328
  34   2.0000      -0.710911       -19.3449
  35   2.0000      -0.696353       -18.9487
  36   2.0000      -0.687925       -18.7194
  37   2.0000      -0.651356       -17.7243
  38   2.0000      -0.639469       -17.4008
  39   2.0000      -0.619620       -16.8607
  40   2.0000      -0.593598       -16.1526
  41   2.0000      -0.580446       -15.7947
  42   2.0000      -0.564354       -15.3569
  43   2.0000      -0.549916       -14.9640
  44   2.0000      -0.539255       -14.6739
  45   2.0000      -0.532085       -14.4788
  46   2.0000      -0.519159       -14.1270
  47   2.0000      -0.513349       -13.9689
  48   2.0000      -0.502750       -13.6805
  49   2.0000      -0.491326       -13.3697
  50   2.0000      -0.489853       -13.3296
  51   2.0000      -0.475307       -12.9337
  52   2.0000      -0.469181       -12.7671
  53   2.0000      -0.466190       -12.6857
  54   2.0000      -0.454687       -12.3727
  55   2.0000      -0.447739       -12.1836
  56   2.0000      -0.444775       -12.1029
  57   2.0000      -0.438983       -11.9453
  58   2.0000      -0.433830       -11.8051
  59   2.0000      -0.418703       -11.3935
  60   2.0000      -0.416619       -11.3368
  61   2.0000      -0.413609       -11.2549
  62   2.0000      -0.409050       -11.1308
  63   2.0000      -0.335105        -9.1187
  64   2.0000      -0.324921        -8.8415
  65   2.0000      -0.323834        -8.8120
  66   2.0000      -0.310835        -8.4583
  67   0.0000       0.042464         1.1555
  68   0.0000       0.054173         1.4741
  69   0.0000       0.111639         3.0378
  70   0.0000       0.118968         3.2373
  71   0.0000       0.133386         3.6296

MULLIKEN ATOMIC CHARGES
-----------------------
   0 S :    0.102660
   1 C :   -0.102398
   2 C :   -0.103826
   3 C :    0.024776
   4 C :   -0.170519
   5 H :    0.050567
   6 C :    0.132231
   7 H :   -0.013153
   8 H :    0.036334
   9 C :   -0.121188
  10 H :    0.026096
  11 H :    0.024751
  12 C :    0.025871
  13 H :    0.027796
  14 H :    0.011609
  15 H :    0.020369
  16 S :    0.107878
  17 C :   -0.118505
  18 C :   -0.048699
  19 C :    0.007728
  20 C :   -0.189627
  21 H :    0.026793
  22 C :   -0.003468
  23 H :    0.035017
  24 H :    0.038230
  25 C :   -0.061680
  26 H :    0.029109
  27 H :    0.035019
  28 C :   -0.039080
  29 H :    0.031981
  30 H :    0.048168
  31 H :    0.032714
  32 H :    0.023568
  33 H :    0.072878
Sum of atomic charges:   -0.0000000

LOEWDIN ATOMIC CHARGES
----------------------
   0 S :    0.385776
   1 C :   -0.174426
   2 C :   -0.060526
   3 C :   -0.072006
   4 C :   -0.185792
   5 H :    0.048423
   6 C :   -0.031379
   7 H :    0.021902
   8 H :    0.032453
   9 C :   -0.034200
  10 H :    0.024340
  11 H :    0.018490
  12 C :   -0.043914
  13 H :    0.017188
  14 H :    0.016708
  15 H :    0.029855
  16 S :    0.417008
  17 C :   -0.199946
  18 C :   -0.075699
  19 C :   -0.056471
  20 C :   -0.212853
  21 H :    0.035055
  22 C :   -0.045008
  23 H :    0.034649
  24 H :    0.037364
  25 C :   -0.041475
  26 H :    0.027501
  27 H :    0.022956
  28 C :   -0.065239
  29 H :    0.025745
  30 H :    0.027198
  31 H :    0.030271
  32 H :    0.013703
  33 H :    0.032349

  Mayer bond orders larger than 0.100000
B(  0-S ,  1-C ) :   1.1182 B(  0-S ,  4-C ) :   1.1703 B(  1-C ,  2-C ) :   1.6233
B(  1-C ,  4-C ) :   0.1029 B(  1-C , 32-H ) :   0.9773 B(  2-C ,  3-C ) :   1.2285
B(  2-C ,  6-C ) :   1.0151 B(  3-C ,  4-C ) :   1.5986 B(  3-C ,  5-H ) :   0.9772
B(  4-C , 20-C ) :   0.9833 B(  6-C ,  7-H ) :   0.9278 B(  6-C ,  8-H ) :   0.9345
B(  6-C ,  9-C ) :   1.0705 B(  9-C , 10-H ) :   0.9550 B(  9-C , 11-H ) :   0.9558
B(  9-C , 12-C ) :   1.0866 B( 12-C , 13-H ) :   0.9771 B( 12-C , 14-H ) :   0.9731
B( 12-C , 15-H ) :   0.9704 B( 16-S , 17-C ) :   1.1727 B( 16-S , 20-C ) :   1.1619
B( 17-C , 18-C ) :   1.6125 B( 17-C , 33-H ) :   0.9593 B( 18-C , 19-C ) :   1.2125
B( 18-C , 21-H ) :   0.9948 B( 19-C , 20-C ) :   1.6054 B( 19-C , 22-C ) :   1.0392
B( 22-C , 23-H ) :   0.9374 B( 22-C , 24-H ) :   0.9370 B( 22-C , 25-C ) :   1.0647
B( 25-C , 26-H ) :   0.9542 B( 25-C , 27-H ) :   0.9548 B( 25-C , 28-C ) :   1.0768
B( 28-C , 29-H ) :   0.9714 B( 28-C , 30-H ) :   0.9724 B( 28-C , 31-H ) :   0.9735

Dispersion correction           -0.014447822
FINAL SINGLE POINT ENERGY     -1339.867794198420

DIPOLE MOMENT
-------------
                                X             Y             Z
Electronic contribution:     18.08718      16.04900       7.19193
Nuclear contribution   :    -18.45206     -16.46534      -7.26365
                        -----------------------------------------
Total Dipole Moment    :     -0.36488      -0.41634      -0.07172
                        -----------------------------------------
Magnitude (a.u.)       :      0.55823
Magnitude (Debye)      :      1.41892

Rotational constants in cm-1:     0.018893     0.008095     0.007097
Rotational constants in MHz :   566.390074   242.685738   212.749456

                             ****ORCA TERMINATED NORMALLY****
TOTAL RUN TIME: 0 days 0 hours 0 minutes 21 seconds 597 msec
