                         Program Version 4.2.1 -  RELEASE  -
|  1> ! wB97X-D3 SP def2-SVP
|  2> %pal
|  3> nprocs 24
|  4> end
|  5>
|  6> * xyz 0 1
|  7> S 	 -49.6002 	 13.4687 	 25.1121
|  8> C 	 -49.9415 	 12.0571 	 24.0556
|  9> C 	 -48.8175 	 11.3701 	 23.6576
| 10> C 	 -47.6582 	 12.1843 	 23.9284
| 11> C 	 -47.8691 	 13.3485 	 24.698
| 12> H 	 -46.7139 	 11.9421 	 23.4241
| 13> C 	 -48.7152 	 10.0339 	 22.8483
| 14> H 	 -48.026 	 10.1903 	 21.9627
| 15> H 	 -49.6621 	 9.80077 	 22.2818
| 16> C 	 -48.2449 	 8.73653 	 23.6006
| 17> H 	 -47.1742 	 8.88307 	 24.0074
| 18> H 	 -48.7435 	 8.63807 	 24.5389
| 19> C 	 -48.4659 	 7.35088 	 22.9532
| 20> H 	 -49.5699 	 7.28397 	 22.6691
| 21> H 	 -47.9974 	 7.1271 	 22.0266
| 22> H 	 -48.3129 	 6.55585 	 23.6151
| 23> S 	 -46.9664 	 15.1447 	 26.4884
| 24> C 	 -45.7822 	 16.3385 	 26.049
| 25> C 	 -45.3871 	 16.2178 	 24.7041
| 26> C 	 -45.9699 	 15.0875 	 24.0548
| 27> C 	 -46.8989 	 14.4108 	 24.8944
| 28> H 	 -44.6287 	 16.8884 	 24.2916
| 29> C 	 -45.6363 	 14.6915 	 22.624
| 30> H 	 -45.9909 	 15.4204 	 21.8514
| 31> H 	 -46.3153 	 13.8355 	 22.3767
| 32> C 	 -44.1648 	 14.3808 	 22.4544
| 33> H 	 -43.8179 	 13.6256 	 23.1787
| 34> H 	 -43.4603 	 15.1334 	 22.6546
| 35> C 	 -43.9443 	 13.6295 	 21.1426
| 36> H 	 -44.2803 	 12.4991 	 21.1
| 37> H 	 -42.8892 	 13.5519 	 21.114
| 38> H 	 -44.2529 	 14.1501 	 20.2916
| 39> H 	 -50.9279 	 11.6648 	 23.8264
| 40> H 	 -45.3375 	 17.0568 	 26.6761
| 41> *
| 42>
| 43>                          ****END OF INPUT****

CARTESIAN COORDINATES (ANGSTROEM)
---------------------------------
  S    -49.600200   13.468700   25.112100
  C    -49.941500   12.057100   24.055600
  C    -48.817500   11.370100   23.657600
  C    -47.658200   12.184300   23.928400
  C    -47.869100   13.348500   24.698000
  H    -46.713900   11.942100   23.424100
  C    -48.715200   10.033900   22.848300
  H    -48.026000   10.190300   21.962700
  H    -49.662100    9.800770   22.281800
  C    -48.244900    8.736530   23.600600
  H    -47.174200    8.883070   24.007400
  H    -48.743500    8.638070   24.538900
  C    -48.465900    7.350880   22.953200
  H    -49.569900    7.283970   22.669100
  H    -47.997400    7.127100   22.026600
  H    -48.312900    6.555850   23.615100
  S    -46.966400   15.144700   26.488400
  C    -45.782200   16.338500   26.049000
  C    -45.387100   16.217800   24.704100
  C    -45.969900   15.087500   24.054800
  C    -46.898900   14.410800   24.894400
  H    -44.628700   16.888400   24.291600
  C    -45.636300   14.691500   22.624000
  H    -45.990900   15.420400   21.851400
  H    -46.315300   13.835500   22.376700
  C    -44.164800   14.380800   22.454400
  H    -43.817900   13.625600   23.178700
  H    -43.460300   15.133400   22.654600
  C    -43.944300   13.629500   21.142600
  H    -44.280300   12.499100   21.100000
  H    -42.889200   13.551900   21.114000
  H    -44.252900   14.150100   20.291600
  H    -50.927900   11.664800   23.826400
  H    -45.337500   17.056800   26.676100

 Total Charge           Charge          ....    0
 Multiplicity           Mult            ....    1
 Number of Electrons    NEL             ....  134
 Basis Dimension        Dim             ....  322

ORBITAL ENERGIES
----------------

  NO   OCC          E(Eh)            E(eV)
   0   2.0000     -88.971446     -2421.0361
   1   2.0000     -88.966798     -2420.9097
   2   2.0000     -10.335578      -281.2454
   3   2.0000     -10.330116      -281.0967
   4   2.0000     -10.320645      -280.8390
   5   2.0000     -10.315786      -280.7068
   6   2.0000     -10.312612      -280.6204
   7   2.0000     -10.309340      -280.5314
   8   2.0000     -10.308015      -280.4954
   9   2.0000     -10.299231      -280.2563
  10   2.0000     -10.296963      -280.1946
  11   2.0000     -10.296935      -280.1938
  12   2.0000     -10.294883      -280.1380
  13   2.0000     -10.283683      -279.8332
  14   2.0000     -10.281742      -279.7804
  15   2.0000     -10.278060      -279.6802
  16   2.0000      -8.084701      -219.9959
  17   2.0000      -8.081587      -219.9112
  18   2.0000      -6.043509      -164.4522
  19   2.0000      -6.039962      -164.3557
  20   2.0000      -6.039576      -164.3452
  21   2.0000      -6.036067      -164.2497
  22   2.0000      -6.035048      -164.2220
  23   2.0000      -6.032517      -164.1531
  24   2.0000      -1.000080       -27.2136
  25   2.0000      -0.976281       -26.5659
  26   2.0000      -0.912882       -24.8408
  27   2.0000      -0.899842       -24.4860
  28   2.0000      -0.867900       -23.6167
  29   2.0000      -0.852875       -23.2079
  30   2.0000      -0.843662       -22.9572
  31   2.0000      -0.808082       -21.9890
  32   2.0000      -0.783961       -21.3327
  33   2.0000      -0.771699       -20.9990
  34   2.0000      -0.708326       -19.2745
  35   2.0000      -0.701936       -19.1006
  36   2.0000      -0.700027       -19.0487
  37   2.0000      -0.659320       -17.9410
  38   2.0000      -0.634070       -17.2539
  39   2.0000      -0.619921       -16.8689
  40   2.0000      -0.596420       -16.2294
  41   2.0000      -0.564830       -15.3698
  42   2.0000      -0.559824       -15.2336
  43   2.0000      -0.545192       -14.8354
  44   2.0000      -0.535802       -14.5799
  45   2.0000      -0.525733       -14.3059
  46   2.0000      -0.517338       -14.0775
  47   2.0000      -0.510407       -13.8889
  48   2.0000      -0.503648       -13.7050
  49   2.0000      -0.497648       -13.5417
  50   2.0000      -0.491132       -13.3644
  51   2.0000      -0.474393       -12.9089
  52   2.0000      -0.470003       -12.7894
  53   2.0000      -0.462994       -12.5987
  54   2.0000      -0.459105       -12.4929
  55   2.0000      -0.450574       -12.2608
  56   2.0000      -0.448221       -12.1967
  57   2.0000      -0.439535       -11.9604
  58   2.0000      -0.435013       -11.8373
  59   2.0000      -0.429123       -11.6770
  60   2.0000      -0.418915       -11.3992
  61   2.0000      -0.406743       -11.0680
  62   2.0000      -0.405990       -11.0475
  63   2.0000      -0.349716        -9.5163
  64   2.0000      -0.333594        -9.0775
  65   2.0000      -0.331414        -9.0182
  66   2.0000      -0.282686        -7.6923
  67   0.0000       0.025022         0.6809
  68   0.0000       0.061472         1.6727
  69   0.0000       0.104157         2.8343
  70   0.0000       0.114948         3.1279
  71   0.0000       0.122079         3.3219

MULLIKEN ATOMIC CHARGES
-----------------------
   0 S :    0.114601
   1 C :   -0.130346
   2 C :   -0.050403
   3 C :   -0.005602
   4 C :   -0.110151
   5 H :    0.023979
   6 C :    0.018526
   7 H :    0.040441
   8 H :    0.025795
   9 C :   -0.077326
  10 H :    0.035646
  11 H :    0.025011
  12 C :   -0.036820
  13 H :    0.025631
  14 H :    0.027124
  15 H :    0.030693
  16 S :    0.102014
  17 C :   -0.071795
  18 C :   -0.050569
  19 C :   -0.024998
  20 C :   -0.165887
  21 H :    0.027014
  22 C :    0.063255
  23 H :    0.040491
  24 H :    0.018708
  25 C :   -0.073164
  26 H :    0.025416
  27 H :    0.022665
  28 C :   -0.043974
  29 H :    0.048582
  30 H :    0.015267
  31 H :    0.022669
  32 H :    0.045875
  33 H :    0.041631
Sum of atomic charges:    0.0000000

LOEWDIN ATOMIC CHARGES
----------------------
   0 S :    0.376248
   1 C :   -0.175246
   2 C :   -0.064483
   3 C :   -0.060903
   4 C :   -0.193296
   5 H :    0.030599
   6 C :   -0.039255
   7 H :    0.036192
   8 H :    0.032630
   9 C :   -0.050650
  10 H :    0.031114
  11 H :    0.023422
  12 C :   -0.062658
  13 H :    0.033527
  14 H :    0.017838
  15 H :    0.022672
  16 S :    0.412921
  17 C :   -0.184566
  18 C :   -0.070854
  19 C :   -0.051007
  20 C :   -0.197038
  21 H :    0.034084
  22 C :   -0.039556
  23 H :    0.036822
  24 H :    0.035274
  25 C :   -0.042409
  26 H :    0.032925
  27 H :    0.018333
  28 C :   -0.063165
  29 H :    0.038842
  30 H :    0.021195
  31 H :    0.012218
  32 H :    0.027665
  33 H :    0.020566

  Mayer bond orders larger than 0.100000
B(  0-S ,  1-C ) :   1.1263 B(  0-S ,  4-C ) :   1.1156 B(  1-C ,  2-C ) :   1.6455
B(  1-C , 32-H ) :   0.9614 B(  2-C ,  3-C ) :   1.2227 B(  2-C ,  6-C ) :   1.0174
B(  3-C ,  4-C ) :   1.5794 B(  3-C ,  5-H ) :   0.9854 B(  4-C , 20-C ) :   1.0643
B(  6-C ,  7-H ) :   0.9465 B(  6-C ,  8-H ) :   0.9478 B(  6-C ,  9-C ) :   1.0453
B(  9-C , 10-H ) :   0.9530 B(  9-C , 11-H ) :   0.9556 B(  9-C , 12-C ) :   1.0809
B( 12-C , 13-H ) :   0.9699 B( 12-C , 14-H ) :   0.9790 B( 12-C , 15-H ) :   0.9755
B( 16-S , 17-C ) :   1.1643 B( 16-S , 20-C ) :   1.1444 B( 17-C , 18-C ) :   1.5897
B( 17-C , 20-C ) :   0.1055 B( 17-C , 33-H ) :   0.9732 B( 18-C , 19-C ) :   1.2618
B( 18-C , 21-H ) :   0.9870 B( 19-C , 20-C ) :   1.5556 B( 19-C , 22-C ) :   1.0390
B( 22-C , 23-H ) :   0.9296 B( 22-C , 24-H ) :   0.9379 B( 22-C , 25-C ) :   1.0501
B( 25-C , 26-H ) :   0.9504 B( 25-C , 27-H ) :   0.9588 B( 25-C , 28-C ) :   1.0850
B( 28-C , 29-H ) :   0.9748 B( 28-C , 30-H ) :   0.9714 B( 28-C , 31-H ) :   0.9741

Dispersion correction           -0.013550234
FINAL SINGLE POINT ENERGY     -1339.852095035908

DIPOLE MOMENT
-------------
                                X             Y             Z
Electronic contribution:    -11.68944      20.84007      21.29758
Nuclear contribution   :     12.07300     -21.15454     -21.86983
                        -----------------------------------------
Total Dipole Moment    :      0.38356      -0.31447      -0.57225
                        -----------------------------------------
Magnitude (a.u.)       :      0.75728
Magnitude (Debye)      :      1.92486

Rotational constants in cm-1:     0.017147     0.008253     0.006106
Rotational constants in MHz :   514.048654   247.432347   183.066394

                             ****ORCA TERMINATED NORMALLY****
TOTAL RUN TIME: 0 days 0 hours 0 minutes 20 seconds 939 msec
