                         Program Version 4.2.1 -  RELEASE  -
|  1> ! wB97X-D3 SP def2-SVP
|  2> %pal
|  3> nprocs 24
|  4> end
|  5>
|  6> * xyz 0 1
|  7> S 	 -49.9959 	 11.5858 	 -96.4055
|  8> C 	 -50.9963 	 10.2007 	 -96.8297
|  9> C 	 -51.4682 	 10.2426 	 -98.1186
| 10> C 	 -50.7075 	 11.1693 	 -98.865
| 11> C 	 -49.8372 	 12.0234 	 -98.099
| 12> H 	 -50.8255 	 11.3704 	 -99.8895
| 13> C 	 -52.4261 	 9.28413 	 -98.6872
| 14> H 	 -53.1319 	 9.01452 	 -97.8605
| 15> H 	 -51.9172 	 8.34362 	 -98.9664
| 16> C 	 -53.2285 	 9.69046 	 -99.9054
| 17> H 	 -52.6294 	 9.81181 	 -100.844
| 18> H 	 -53.9356 	 8.82542 	 -100.21
| 19> C 	 -54.1049 	 10.963 	 -99.6636
| 20> H 	 -54.3417 	 11.3583 	 -100.616
| 21> H 	 -55.0193 	 10.7815 	 -99.0381
| 22> H 	 -53.4412 	 11.6765 	 -99.221
| 23> S 	 -49.6717 	 14.73 	 -98.2771
| 24> C 	 -48.4887 	 15.4651 	 -99.3161
| 25> C 	 -47.7112 	 14.4966 	 -99.9046
| 26> C 	 -47.9625 	 13.1487 	 -99.4799
| 27> C 	 -49.007 	 13.1216 	 -98.5829
| 28> H 	 -47.0043 	 14.8488 	 -100.613
| 29> C 	 -47.1232 	 12.083 	 -99.9614
| 30> H 	 -47.0302 	 11.2636 	 -99.2473
| 31> H 	 -46.1435 	 12.4387 	 -100.153
| 32> C 	 -47.5481 	 11.5144 	 -101.311
| 33> H 	 -47.5513 	 12.3013 	 -101.965
| 34> H 	 -48.5561 	 11.1781 	 -101.115
| 35> C 	 -46.8277 	 10.2177 	 -101.624
| 36> H 	 -47.3152 	 9.66234 	 -102.414
| 37> H 	 -46.9549 	 9.72203 	 -100.7
| 38> H 	 -45.7914 	 10.2401 	 -101.888
| 39> H 	 -51.2439 	 9.41874 	 -96.2517
| 40> H 	 -48.349 	 16.4558 	 -99.5994
| 41> *
| 42>
| 43>                          ****END OF INPUT****

CARTESIAN COORDINATES (ANGSTROEM)
---------------------------------
  S    -49.995900   11.585800  -96.405500
  C    -50.996300   10.200700  -96.829700
  C    -51.468200   10.242600  -98.118600
  C    -50.707500   11.169300  -98.865000
  C    -49.837200   12.023400  -98.099000
  H    -50.825500   11.370400  -99.889500
  C    -52.426100    9.284130  -98.687200
  H    -53.131900    9.014520  -97.860500
  H    -51.917200    8.343620  -98.966400
  C    -53.228500    9.690460  -99.905400
  H    -52.629400    9.811810  -100.844000
  H    -53.935600    8.825420  -100.210000
  C    -54.104900   10.963000  -99.663600
  H    -54.341700   11.358300  -100.616000
  H    -55.019300   10.781500  -99.038100
  H    -53.441200   11.676500  -99.221000
  S    -49.671700   14.730000  -98.277100
  C    -48.488700   15.465100  -99.316100
  C    -47.711200   14.496600  -99.904600
  C    -47.962500   13.148700  -99.479900
  C    -49.007000   13.121600  -98.582900
  H    -47.004300   14.848800  -100.613000
  C    -47.123200   12.083000  -99.961400
  H    -47.030200   11.263600  -99.247300
  H    -46.143500   12.438700  -100.153000
  C    -47.548100   11.514400  -101.311000
  H    -47.551300   12.301300  -101.965000
  H    -48.556100   11.178100  -101.115000
  C    -46.827700   10.217700  -101.624000
  H    -47.315200    9.662340  -102.414000
  H    -46.954900    9.722030  -100.700000
  H    -45.791400   10.240100  -101.888000
  H    -51.243900    9.418740  -96.251700
  H    -48.349000   16.455800  -99.599400

 Total Charge           Charge          ....    0
 Multiplicity           Mult            ....    1
 Number of Electrons    NEL             ....  134
 Basis Dimension        Dim             ....  322

ORBITAL ENERGIES
----------------

  NO   OCC          E(Eh)            E(eV)
   0   2.0000     -88.969636     -2420.9869
   1   2.0000     -88.963393     -2420.8170
   2   2.0000     -10.333796      -281.1969
   3   2.0000     -10.325972      -280.9840
   4   2.0000     -10.310050      -280.5507
   5   2.0000     -10.305318      -280.4220
   6   2.0000     -10.299854      -280.2733
   7   2.0000     -10.297790      -280.2171
   8   2.0000     -10.297077      -280.1977
   9   2.0000     -10.295381      -280.1515
  10   2.0000     -10.294805      -280.1359
  11   2.0000     -10.287095      -279.9261
  12   2.0000     -10.278509      -279.6925
  13   2.0000     -10.274524      -279.5840
  14   2.0000     -10.274396      -279.5805
  15   2.0000     -10.270443      -279.4730
  16   2.0000      -8.083705      -219.9688
  17   2.0000      -8.078152      -219.8177
  18   2.0000      -6.042115      -164.4143
  19   2.0000      -6.038289      -164.3102
  20   2.0000      -6.036735      -164.2679
  21   2.0000      -6.034631      -164.2106
  22   2.0000      -6.032626      -164.1561
  23   2.0000      -6.028855      -164.0535
  24   2.0000      -1.005726       -27.3672
  25   2.0000      -0.985877       -26.8271
  26   2.0000      -0.924338       -25.1525
  27   2.0000      -0.915257       -24.9054
  28   2.0000      -0.869741       -23.6669
  29   2.0000      -0.856941       -23.3186
  30   2.0000      -0.843943       -22.9648
  31   2.0000      -0.815728       -22.1971
  32   2.0000      -0.786796       -21.4098
  33   2.0000      -0.776974       -21.1425
  34   2.0000      -0.715285       -19.4639
  35   2.0000      -0.702082       -19.1046
  36   2.0000      -0.693321       -18.8662
  37   2.0000      -0.664871       -18.0920
  38   2.0000      -0.641807       -17.4645
  39   2.0000      -0.623285       -16.9605
  40   2.0000      -0.604088       -16.4381
  41   2.0000      -0.580938       -15.8081
  42   2.0000      -0.569537       -15.4979
  43   2.0000      -0.557631       -15.1739
  44   2.0000      -0.535841       -14.5810
  45   2.0000      -0.526569       -14.3287
  46   2.0000      -0.523361       -14.2414
  47   2.0000      -0.516599       -14.0574
  48   2.0000      -0.515286       -14.0216
  49   2.0000      -0.499615       -13.5952
  50   2.0000      -0.489600       -13.3227
  51   2.0000      -0.478450       -13.0193
  52   2.0000      -0.471086       -12.8189
  53   2.0000      -0.466155       -12.6847
  54   2.0000      -0.459831       -12.5126
  55   2.0000      -0.448609       -12.2073
  56   2.0000      -0.441542       -12.0150
  57   2.0000      -0.439724       -11.9655
  58   2.0000      -0.432179       -11.7602
  59   2.0000      -0.429752       -11.6942
  60   2.0000      -0.423796       -11.5321
  61   2.0000      -0.415651       -11.3104
  62   2.0000      -0.414261       -11.2726
  63   2.0000      -0.335597        -9.1321
  64   2.0000      -0.331749        -9.0274
  65   2.0000      -0.324161        -8.8209
  66   2.0000      -0.296123        -8.0579
  67   0.0000       0.033767         0.9188
  68   0.0000       0.055326         1.5055
  69   0.0000       0.107859         2.9350
  70   0.0000       0.125809         3.4234
  71   0.0000       0.128332         3.4921

MULLIKEN ATOMIC CHARGES
-----------------------
   0 S :    0.129608
   1 C :   -0.069620
   2 C :   -0.090157
   3 C :    0.057812
   4 C :   -0.187362
   5 H :   -0.000060
   6 C :    0.071730
   7 H :    0.031601
   8 H :    0.049766
   9 C :   -0.148172
  10 H :    0.038444
  11 H :    0.039468
  12 C :   -0.032131
  13 H :    0.021864
  14 H :    0.049180
  15 H :    0.034851
  16 S :    0.107056
  17 C :   -0.049813
  18 C :   -0.055406
  19 C :    0.010873
  20 C :   -0.169651
  21 H :    0.004446
  22 C :    0.069419
  23 H :    0.020393
  24 H :    0.006773
  25 C :   -0.042238
  26 H :    0.001200
  27 H :    0.008917
  28 C :    0.001581
  29 H :    0.030095
  30 H :    0.014957
  31 H :    0.025869
  32 H :   -0.008537
  33 H :    0.027242
Sum of atomic charges:   -0.0000000

LOEWDIN ATOMIC CHARGES
----------------------
   0 S :    0.411349
   1 C :   -0.171211
   2 C :   -0.067413
   3 C :   -0.051047
   4 C :   -0.203479
   5 H :    0.018278
   6 C :   -0.043617
   7 H :    0.038423
   8 H :    0.041287
   9 C :   -0.052366
  10 H :    0.025336
  11 H :    0.033774
  12 C :   -0.064298
  13 H :    0.020858
  14 H :    0.033514
  15 H :    0.023369
  16 S :    0.403939
  17 C :   -0.179253
  18 C :   -0.066647
  19 C :   -0.049595
  20 C :   -0.198382
  21 H :    0.024476
  22 C :   -0.030489
  23 H :    0.030599
  24 H :    0.026824
  25 C :   -0.023279
  26 H :    0.006477
  27 H :    0.023983
  28 C :   -0.055481
  29 H :    0.026591
  30 H :    0.024783
  31 H :    0.019458
  32 H :    0.003055
  33 H :    0.020182

  Mayer bond orders larger than 0.100000
B(  0-S ,  1-C ) :   1.1541 B(  0-S ,  4-C ) :   1.1578 B(  1-C ,  2-C ) :   1.5882
B(  1-C ,  4-C ) :   0.1122 B(  1-C , 32-H ) :   0.9806 B(  2-C ,  3-C ) :   1.2545
B(  2-C ,  6-C ) :   1.0279 B(  3-C ,  4-C ) :   1.5425 B(  3-C ,  5-H ) :   0.9926
B(  4-C , 20-C ) :   1.0225 B(  6-C ,  7-H ) :   0.9356 B(  6-C ,  8-H ) :   0.9292
B(  6-C ,  9-C ) :   1.0824 B(  9-C , 10-H ) :   0.9515 B(  9-C , 11-H ) :   0.9537
B(  9-C , 12-C ) :   1.0693 B( 12-C , 13-H ) :   0.9738 B( 12-C , 14-H ) :   0.9752
B( 12-C , 15-H ) :   0.9757 B( 16-S , 17-C ) :   1.1427 B( 16-S , 20-C ) :   1.1382
B( 17-C , 18-C ) :   1.6437 B( 17-C , 33-H ) :   0.9709 B( 18-C , 19-C ) :   1.2093
B( 18-C , 21-H ) :   0.9913 B( 19-C , 20-C ) :   1.6074 B( 19-C , 22-C ) :   1.0796
B( 22-C , 23-H ) :   0.9256 B( 22-C , 24-H ) :   0.9215 B( 22-C , 25-C ) :   1.0621
B( 25-C , 26-H ) :   0.9595 B( 25-C , 27-H ) :   0.9517 B( 25-C , 28-C ) :   1.0701
B( 28-C , 29-H ) :   0.9747 B( 28-C , 30-H ) :   0.9710 B( 28-C , 31-H ) :   0.9759

Dispersion correction           -0.014565810
FINAL SINGLE POINT ENERGY     -1339.852318674594

DIPOLE MOMENT
-------------
                                X             Y             Z
Electronic contribution:      3.81370      16.19367      19.29745
Nuclear contribution   :     -3.82307     -16.57009     -19.91666
                        -----------------------------------------
Total Dipole Moment    :     -0.00937      -0.37643      -0.61922
                        -----------------------------------------
Magnitude (a.u.)       :      0.72471
Magnitude (Debye)      :      1.84208

Rotational constants in cm-1:     0.016435     0.009382     0.007856
Rotational constants in MHz :   492.707722   281.250506   235.526491

                             ****ORCA TERMINATED NORMALLY****
TOTAL RUN TIME: 0 days 0 hours 0 minutes 22 seconds 128 msec
