                         Program Version 4.2.1 -  RELEASE  -
|  1> ! wB97X-D3 SP def2-SVP
|  2> %pal
|  3> nprocs 24
|  4> end
|  5>
|  6> * xyz 0 1
|  7> S 	 40.591 	 -15.8243 	 -124.212
|  8> C 	 40.7049 	 -14.8732 	 -122.781
|  9> C 	 41.6478 	 -13.8525 	 -122.913
| 10> C 	 41.9396 	 -13.5613 	 -124.274
| 11> C 	 41.3033 	 -14.4404 	 -125.111
| 12> H 	 42.3751 	 -12.6511 	 -124.706
| 13> C 	 42.2759 	 -13.0553 	 -121.775
| 14> H 	 42.0846 	 -13.5823 	 -120.817
| 15> H 	 41.7984 	 -12.0995 	 -121.694
| 16> C 	 43.7842 	 -13.0117 	 -121.847
| 17> H 	 44.0453 	 -12.3893 	 -122.647
| 18> H 	 44.2311 	 -12.6048 	 -120.946
| 19> C 	 44.3835 	 -14.423 	 -122.006
| 20> H 	 44.677 	 -14.6171 	 -123.015
| 21> H 	 45.3501 	 -14.5556 	 -121.476
| 22> H 	 43.7942 	 -15.2627 	 -121.634
| 23> S 	 39.6502 	 -14.295 	 -127.399
| 24> C 	 40.3929 	 -14.424 	 -129.022
| 25> C 	 41.7299 	 -14.6458 	 -128.886
| 26> C 	 42.232 	 -14.5303 	 -127.534
| 27> C 	 41.2243 	 -14.3377 	 -126.574
| 28> H 	 42.164 	 -14.9517 	 -129.765
| 29> C 	 43.7317 	 -14.6831 	 -127.144
| 30> H 	 43.7307 	 -15.1047 	 -126.193
| 31> H 	 44.2607 	 -13.7279 	 -127.028
| 32> C 	 44.4528 	 -15.6516 	 -128.088
| 33> H 	 44.258 	 -15.3331 	 -129.048
| 34> H 	 43.9756 	 -16.6088 	 -128.044
| 35> C 	 45.9136 	 -15.743 	 -127.808
| 36> H 	 46.0801 	 -15.8996 	 -126.777
| 37> H 	 46.4763 	 -14.8221 	 -128.155
| 38> H 	 46.418 	 -16.5357 	 -128.402
| 39> H 	 40.1781 	 -15.2287 	 -121.869
| 40> H 	 39.814 	 -14.3718 	 -129.861
| 41> *
| 42>
| 43>                          ****END OF INPUT****

CARTESIAN COORDINATES (ANGSTROEM)
---------------------------------
  S     40.591000  -15.824300  -124.212000
  C     40.704900  -14.873200  -122.781000
  C     41.647800  -13.852500  -122.913000
  C     41.939600  -13.561300  -124.274000
  C     41.303300  -14.440400  -125.111000
  H     42.375100  -12.651100  -124.706000
  C     42.275900  -13.055300  -121.775000
  H     42.084600  -13.582300  -120.817000
  H     41.798400  -12.099500  -121.694000
  C     43.784200  -13.011700  -121.847000
  H     44.045300  -12.389300  -122.647000
  H     44.231100  -12.604800  -120.946000
  C     44.383500  -14.423000  -122.006000
  H     44.677000  -14.617100  -123.015000
  H     45.350100  -14.555600  -121.476000
  H     43.794200  -15.262700  -121.634000
  S     39.650200  -14.295000  -127.399000
  C     40.392900  -14.424000  -129.022000
  C     41.729900  -14.645800  -128.886000
  C     42.232000  -14.530300  -127.534000
  C     41.224300  -14.337700  -126.574000
  H     42.164000  -14.951700  -129.765000
  C     43.731700  -14.683100  -127.144000
  H     43.730700  -15.104700  -126.193000
  H     44.260700  -13.727900  -127.028000
  C     44.452800  -15.651600  -128.088000
  H     44.258000  -15.333100  -129.048000
  H     43.975600  -16.608800  -128.044000
  C     45.913600  -15.743000  -127.808000
  H     46.080100  -15.899600  -126.777000
  H     46.476300  -14.822100  -128.155000
  H     46.418000  -16.535700  -128.402000
  H     40.178100  -15.228700  -121.869000
  H     39.814000  -14.371800  -129.861000

 Total Charge           Charge          ....    0
 Multiplicity           Mult            ....    1
 Number of Electrons    NEL             ....  134
 Basis Dimension        Dim             ....  322

ORBITAL ENERGIES
----------------

  NO   OCC          E(Eh)            E(eV)
   0   2.0000     -88.963905     -2420.8309
   1   2.0000     -88.959010     -2420.6977
   2   2.0000     -10.329662      -281.0844
   3   2.0000     -10.327867      -281.0356
   4   2.0000     -10.316131      -280.7162
   5   2.0000     -10.315121      -280.6887
   6   2.0000     -10.310295      -280.5574
   7   2.0000     -10.303105      -280.3618
   8   2.0000     -10.295583      -280.1571
   9   2.0000     -10.290960      -280.0313
  10   2.0000     -10.288789      -279.9722
  11   2.0000     -10.285617      -279.8859
  12   2.0000     -10.281682      -279.7788
  13   2.0000     -10.277201      -279.6569
  14   2.0000     -10.272647      -279.5329
  15   2.0000     -10.272399      -279.5262
  16   2.0000      -8.078832      -219.8362
  17   2.0000      -8.073099      -219.6802
  18   2.0000      -6.037271      -164.2825
  19   2.0000      -6.033702      -164.1854
  20   2.0000      -6.031698      -164.1308
  21   2.0000      -6.029255      -164.0644
  22   2.0000      -6.027653      -164.0208
  23   2.0000      -6.023829      -163.9167
  24   2.0000      -1.001713       -27.2580
  25   2.0000      -0.979876       -26.6638
  26   2.0000      -0.913894       -24.8683
  27   2.0000      -0.911834       -24.8123
  28   2.0000      -0.870514       -23.6879
  29   2.0000      -0.847029       -23.0488
  30   2.0000      -0.841892       -22.9090
  31   2.0000      -0.816840       -22.2273
  32   2.0000      -0.781239       -21.2586
  33   2.0000      -0.769074       -20.9276
  34   2.0000      -0.709140       -19.2967
  35   2.0000      -0.707751       -19.2589
  36   2.0000      -0.691761       -18.8238
  37   2.0000      -0.654904       -17.8209
  38   2.0000      -0.642987       -17.4966
  39   2.0000      -0.623356       -16.9624
  40   2.0000      -0.599970       -16.3260
  41   2.0000      -0.570332       -15.5195
  42   2.0000      -0.565528       -15.3888
  43   2.0000      -0.561826       -15.2881
  44   2.0000      -0.543849       -14.7989
  45   2.0000      -0.534462       -14.5434
  46   2.0000      -0.515487       -14.0271
  47   2.0000      -0.509587       -13.8666
  48   2.0000      -0.499590       -13.5945
  49   2.0000      -0.493843       -13.4381
  50   2.0000      -0.487057       -13.2535
  51   2.0000      -0.475721       -12.9450
  52   2.0000      -0.472353       -12.8534
  53   2.0000      -0.469022       -12.7627
  54   2.0000      -0.458076       -12.4649
  55   2.0000      -0.447114       -12.1666
  56   2.0000      -0.443363       -12.0645
  57   2.0000      -0.439292       -11.9537
  58   2.0000      -0.428116       -11.6496
  59   2.0000      -0.423329       -11.5194
  60   2.0000      -0.421801       -11.4778
  61   2.0000      -0.414679       -11.2840
  62   2.0000      -0.409976       -11.1560
  63   2.0000      -0.342879        -9.3302
  64   2.0000      -0.326411        -8.8821
  65   2.0000      -0.322504        -8.7758
  66   2.0000      -0.296689        -8.0733
  67   0.0000       0.026823         0.7299
  68   0.0000       0.061760         1.6806
  69   0.0000       0.102078         2.7777
  70   0.0000       0.124267         3.3815
  71   0.0000       0.130816         3.5597

MULLIKEN ATOMIC CHARGES
-----------------------
   0 S :    0.113568
   1 C :   -0.143485
   2 C :   -0.087775
   3 C :    0.028641
   4 C :   -0.174633
   5 H :    0.035059
   6 C :    0.080111
   7 H :    0.016660
   8 H :    0.036327
   9 C :   -0.053783
  10 H :    0.019033
  11 H :    0.033462
  12 C :   -0.056522
  13 H :    0.023220
  14 H :    0.024215
  15 H :    0.035605
  16 S :    0.080875
  17 C :   -0.071340
  18 C :   -0.005497
  19 C :   -0.033428
  20 C :   -0.162861
  21 H :   -0.004382
  22 C :    0.107039
  23 H :    0.009473
  24 H :    0.036619
  25 C :   -0.070710
  26 H :    0.009153
  27 H :    0.023512
  28 C :   -0.029933
  29 H :    0.023437
  30 H :    0.031690
  31 H :    0.032770
  32 H :    0.064668
  33 H :    0.029212
Sum of atomic charges:    0.0000000

LOEWDIN ATOMIC CHARGES
----------------------
   0 S :    0.388262
   1 C :   -0.202162
   2 C :   -0.062100
   3 C :   -0.058879
   4 C :   -0.174018
   5 H :    0.041635
   6 C :   -0.029839
   7 H :    0.029969
   8 H :    0.027463
   9 C :   -0.036095
  10 H :    0.014528
  11 H :    0.027633
  12 C :   -0.069411
  13 H :    0.022036
  14 H :    0.028265
  15 H :    0.027553
  16 S :    0.372447
  17 C :   -0.143666
  18 C :   -0.068905
  19 C :   -0.042732
  20 C :   -0.200108
  21 H :    0.020327
  22 C :   -0.021392
  23 H :    0.019710
  24 H :    0.032224
  25 C :   -0.038594
  26 H :    0.010002
  27 H :    0.025313
  28 C :   -0.063001
  29 H :    0.018421
  30 H :    0.031322
  31 H :    0.030013
  32 H :    0.032731
  33 H :    0.011048

  Mayer bond orders larger than 0.100000
B(  0-S ,  1-C ) :   1.1407 B(  0-S ,  4-C ) :   1.1344 B(  1-C ,  2-C ) :   1.6183
B(  1-C , 32-H ) :   0.9670 B(  2-C ,  3-C ) :   1.1992 B(  2-C ,  6-C ) :   1.0191
B(  3-C ,  4-C ) :   1.6123 B(  3-C ,  5-H ) :   0.9900 B(  4-C , 20-C ) :   1.0580
B(  6-C ,  7-H ) :   0.9447 B(  6-C ,  8-H ) :   0.9427 B(  6-C ,  9-C ) :   1.0781
B(  9-C , 10-H ) :   0.9562 B(  9-C , 11-H ) :   0.9634 B(  9-C , 12-C ) :   1.0634
B( 12-C , 13-H ) :   0.9728 B( 12-C , 14-H ) :   0.9763 B( 12-C , 15-H ) :   0.9783
B( 16-S , 17-C ) :   1.1516 B( 16-S , 20-C ) :   1.1315 B( 17-C , 18-C ) :   1.6151
B( 17-C , 33-H ) :   0.9799 B( 18-C , 19-C ) :   1.2103 B( 18-C , 21-H ) :   1.0059
B( 19-C , 20-C ) :   1.5948 B( 19-C , 22-C ) :   1.0232 B( 22-C , 23-H ) :   0.9204
B( 22-C , 24-H ) :   0.9409 B( 22-C , 25-C ) :   1.0707 B( 25-C , 26-H ) :   0.9484
B( 25-C , 27-H ) :   0.9534 B( 25-C , 28-C ) :   1.0976 B( 28-C , 29-H ) :   0.9732
B( 28-C , 30-H ) :   0.9717 B( 28-C , 31-H ) :   0.9703

Dispersion correction           -0.014708323
FINAL SINGLE POINT ENERGY     -1339.854993294501

DIPOLE MOMENT
-------------
                                X             Y             Z
Electronic contribution:    -27.27927      -1.49872      -6.32747
Nuclear contribution   :     27.84054       1.58646       6.36165
                        -----------------------------------------
Total Dipole Moment    :      0.56127       0.08774       0.03418
                        -----------------------------------------
Magnitude (a.u.)       :      0.56912
Magnitude (Debye)      :      1.44658

Rotational constants in cm-1:     0.017259     0.009626     0.007007
Rotational constants in MHz :   517.419734   288.591706   210.054654

                             ****ORCA TERMINATED NORMALLY****
TOTAL RUN TIME: 0 days 0 hours 0 minutes 22 seconds 49 msec
