                         Program Version 4.2.1 -  RELEASE  -
|  1> ! wB97X-D3 SP def2-SVP
|  2> %pal
|  3> nprocs 24
|  4> end
|  5>
|  6> * xyz 0 1
|  7> S 	 -55.0045 	 18.2136 	 24.999
|  8> C 	 -54.5818 	 17.6633 	 23.3657
|  9> C 	 -53.2188 	 17.7304 	 23.096
| 10> C 	 -52.4981 	 18.3044 	 24.2148
| 11> C 	 -53.2803 	 18.3033 	 25.3595
| 12> H 	 -51.4452 	 18.4894 	 24.2674
| 13> C 	 -52.5015 	 17.4057 	 21.8052
| 14> H 	 -52.9108 	 17.8349 	 20.9688
| 15> H 	 -52.6884 	 16.3231 	 21.626
| 16> C 	 -50.9769 	 17.4838 	 21.6701
| 17> H 	 -50.5307 	 16.9011 	 22.4893
| 18> H 	 -50.7029 	 16.9914 	 20.7976
| 19> C 	 -50.2528 	 18.8073 	 21.5465
| 20> H 	 -50.4898 	 19.349 	 20.6243
| 21> H 	 -50.4768 	 19.3475 	 22.4079
| 22> H 	 -49.1595 	 18.723 	 21.6749
| 23> S 	 -52.6632 	 20.3939 	 26.9718
| 24> C 	 -51.7756 	 20.0751 	 28.4243
| 25> C 	 -51.7139 	 18.6968 	 28.657
| 26> C 	 -52.3649 	 17.904 	 27.6524
| 27> C 	 -52.8786 	 18.7407 	 26.6413
| 28> H 	 -51.1312 	 18.3371 	 29.447
| 29> C 	 -52.3708 	 16.395 	 27.6082
| 30> H 	 -51.4118 	 16.2042 	 27.1514
| 31> H 	 -53.0686 	 15.9902 	 26.8409
| 32> C 	 -52.63 	 15.7413 	 28.9612
| 33> H 	 -53.5128 	 16.2977 	 29.34
| 34> H 	 -51.7375 	 15.8721 	 29.6815
| 35> C 	 -52.7967 	 14.2451 	 28.8273
| 36> H 	 -53.8276 	 13.8476 	 28.4552
| 37> H 	 -52.6245 	 13.8222 	 29.809
| 38> H 	 -51.981 	 13.8018 	 28.288
| 39> H 	 -55.3642 	 17.3653 	 22.7174
| 40> H 	 -51.4111 	 20.7584 	 29.1709
| 41> *
| 42>
| 43>                          ****END OF INPUT****

CARTESIAN COORDINATES (ANGSTROEM)
---------------------------------
  S    -55.004500   18.213600   24.999000
  C    -54.581800   17.663300   23.365700
  C    -53.218800   17.730400   23.096000
  C    -52.498100   18.304400   24.214800
  C    -53.280300   18.303300   25.359500
  H    -51.445200   18.489400   24.267400
  C    -52.501500   17.405700   21.805200
  H    -52.910800   17.834900   20.968800
  H    -52.688400   16.323100   21.626000
  C    -50.976900   17.483800   21.670100
  H    -50.530700   16.901100   22.489300
  H    -50.702900   16.991400   20.797600
  C    -50.252800   18.807300   21.546500
  H    -50.489800   19.349000   20.624300
  H    -50.476800   19.347500   22.407900
  H    -49.159500   18.723000   21.674900
  S    -52.663200   20.393900   26.971800
  C    -51.775600   20.075100   28.424300
  C    -51.713900   18.696800   28.657000
  C    -52.364900   17.904000   27.652400
  C    -52.878600   18.740700   26.641300
  H    -51.131200   18.337100   29.447000
  C    -52.370800   16.395000   27.608200
  H    -51.411800   16.204200   27.151400
  H    -53.068600   15.990200   26.840900
  C    -52.630000   15.741300   28.961200
  H    -53.512800   16.297700   29.340000
  H    -51.737500   15.872100   29.681500
  C    -52.796700   14.245100   28.827300
  H    -53.827600   13.847600   28.455200
  H    -52.624500   13.822200   29.809000
  H    -51.981000   13.801800   28.288000
  H    -55.364200   17.365300   22.717400
  H    -51.411100   20.758400   29.170900

 Total Charge           Charge          ....    0
 Multiplicity           Mult            ....    1
 Number of Electrons    NEL             ....  134
 Basis Dimension        Dim             ....  322

ORBITAL ENERGIES
----------------

  NO   OCC          E(Eh)            E(eV)
   0   2.0000     -88.964777     -2420.8547
   1   2.0000     -88.963472     -2420.8191
   2   2.0000     -10.321995      -280.8758
   3   2.0000     -10.313113      -280.6341
   4   2.0000     -10.312488      -280.6171
   5   2.0000     -10.311084      -280.5788
   6   2.0000     -10.306431      -280.4522
   7   2.0000     -10.300018      -280.2777
   8   2.0000     -10.294800      -280.1357
   9   2.0000     -10.293825      -280.1092
  10   2.0000     -10.288532      -279.9652
  11   2.0000     -10.288212      -279.9565
  12   2.0000     -10.286890      -279.9205
  13   2.0000     -10.281749      -279.7806
  14   2.0000     -10.280877      -279.7569
  15   2.0000     -10.272595      -279.5315
  16   2.0000      -8.080315      -219.8765
  17   2.0000      -8.077846      -219.8094
  18   2.0000      -6.038670      -164.3206
  19   2.0000      -6.036253      -164.2548
  20   2.0000      -6.034571      -164.2090
  21   2.0000      -6.032629      -164.1562
  22   2.0000      -6.031334      -164.1209
  23   2.0000      -6.028521      -164.0444
  24   2.0000      -1.007655       -27.4197
  25   2.0000      -0.979244       -26.6466
  26   2.0000      -0.914320       -24.8799
  27   2.0000      -0.910948       -24.7882
  28   2.0000      -0.871868       -23.7247
  29   2.0000      -0.850326       -23.1386
  30   2.0000      -0.847025       -23.0487
  31   2.0000      -0.815028       -22.1780
  32   2.0000      -0.789040       -21.4709
  33   2.0000      -0.769369       -20.9356
  34   2.0000      -0.707120       -19.2417
  35   2.0000      -0.696994       -18.9662
  36   2.0000      -0.693557       -18.8726
  37   2.0000      -0.653568       -17.7845
  38   2.0000      -0.644735       -17.5441
  39   2.0000      -0.624681       -16.9984
  40   2.0000      -0.595252       -16.1976
  41   2.0000      -0.568587       -15.4720
  42   2.0000      -0.565394       -15.3851
  43   2.0000      -0.546791       -14.8789
  44   2.0000      -0.541215       -14.7272
  45   2.0000      -0.527057       -14.3420
  46   2.0000      -0.520998       -14.1771
  47   2.0000      -0.514364       -13.9966
  48   2.0000      -0.505897       -13.7662
  49   2.0000      -0.501142       -13.6368
  50   2.0000      -0.491492       -13.3742
  51   2.0000      -0.483837       -13.1659
  52   2.0000      -0.470148       -12.7934
  53   2.0000      -0.460680       -12.5357
  54   2.0000      -0.454583       -12.3698
  55   2.0000      -0.447470       -12.1763
  56   2.0000      -0.445296       -12.1171
  57   2.0000      -0.435151       -11.8411
  58   2.0000      -0.431100       -11.7308
  59   2.0000      -0.422292       -11.4912
  60   2.0000      -0.421437       -11.4679
  61   2.0000      -0.416156       -11.3242
  62   2.0000      -0.412234       -11.2175
  63   2.0000      -0.334846        -9.1116
  64   2.0000      -0.325513        -8.8577
  65   2.0000      -0.311655        -8.4806
  66   2.0000      -0.305029        -8.3003
  67   0.0000       0.042533         1.1574
  68   0.0000       0.053138         1.4459
  69   0.0000       0.109193         2.9713
  70   0.0000       0.128027         3.4838
  71   0.0000       0.130070         3.5394

MULLIKEN ATOMIC CHARGES
-----------------------
   0 S :    0.103528
   1 C :   -0.122112
   2 C :   -0.057130
   3 C :    0.035590
   4 C :   -0.187618
   5 H :    0.018646
   6 C :    0.094344
   7 H :    0.009079
   8 H :    0.035336
   9 C :   -0.084749
  10 H :    0.024320
  11 H :    0.011927
  12 C :   -0.021207
  13 H :    0.039441
  14 H :    0.002438
  15 H :    0.031027
  16 S :    0.141807
  17 C :   -0.095011
  18 C :   -0.034950
  19 C :   -0.045445
  20 C :   -0.178934
  21 H :   -0.003421
  22 C :    0.095727
  23 H :    0.024643
  24 H :    0.036271
  25 C :   -0.118377
  26 H :    0.048881
  27 H :    0.042427
  28 C :   -0.031841
  29 H :    0.055483
  30 H :    0.020463
  31 H :    0.021739
  32 H :    0.034472
  33 H :    0.053207
Sum of atomic charges:    0.0000000

LOEWDIN ATOMIC CHARGES
----------------------
   0 S :    0.389819
   1 C :   -0.183860
   2 C :   -0.053917
   3 C :   -0.050466
   4 C :   -0.189589
   5 H :    0.028929
   6 C :   -0.030343
   7 H :    0.019198
   8 H :    0.047042
   9 C :   -0.042396
  10 H :    0.025927
  11 H :    0.019652
  12 C :   -0.065582
  13 H :    0.027738
  14 H :    0.012402
  15 H :    0.033577
  16 S :    0.443905
  17 C :   -0.198988
  18 C :   -0.068450
  19 C :   -0.047015
  20 C :   -0.242232
  21 H :    0.019082
  22 C :   -0.040346
  23 H :    0.032567
  24 H :    0.036708
  25 C :   -0.047689
  26 H :    0.033145
  27 H :    0.033077
  28 C :   -0.074335
  29 H :    0.037753
  30 H :    0.024765
  31 H :    0.023857
  32 H :    0.015999
  33 H :    0.030067

  Mayer bond orders larger than 0.100000
B(  0-S ,  1-C ) :   1.1338 B(  0-S ,  4-C ) :   1.1483 B(  1-C ,  2-C ) :   1.6173
B(  1-C ,  4-C ) :   0.1008 B(  1-C , 32-H ) :   0.9799 B(  2-C ,  3-C ) :   1.2276
B(  2-C ,  6-C ) :   1.0045 B(  3-C ,  4-C ) :   1.6023 B(  3-C ,  5-H ) :   0.9822
B(  4-C , 20-C ) :   1.0226 B(  6-C ,  7-H ) :   0.9354 B(  6-C ,  8-H ) :   0.9296
B(  6-C ,  9-C ) :   1.0937 B(  9-C , 10-H ) :   0.9491 B(  9-C , 11-H ) :   0.9493
B(  9-C , 12-C ) :   1.0866 B( 12-C , 13-H ) :   0.9716 B( 12-C , 14-H ) :   0.9733
B( 12-C , 15-H ) :   0.9672 B( 16-S , 17-C ) :   1.1681 B( 16-S , 20-C ) :   1.1702
B( 17-C , 18-C ) :   1.5860 B( 17-C , 20-C ) :   0.1007 B( 17-C , 33-H ) :   0.9675
B( 18-C , 19-C ) :   1.2699 B( 18-C , 21-H ) :   0.9976 B( 19-C , 20-C ) :   1.5478
B( 19-C , 22-C ) :   1.0441 B( 22-C , 23-H ) :   0.9150 B( 22-C , 24-H ) :   0.9326
B( 22-C , 25-C ) :   1.0519 B( 25-C , 26-H ) :   0.9620 B( 25-C , 27-H ) :   0.9468
B( 25-C , 28-C ) :   1.0908 B( 28-C , 29-H ) :   0.9713 B( 28-C , 30-H ) :   0.9723
B( 28-C , 31-H ) :   0.9664

Dispersion correction           -0.014134105
FINAL SINGLE POINT ENERGY     -1339.855342407201

DIPOLE MOMENT
-------------
                                X             Y             Z
Electronic contribution:    -13.54598      17.05740       5.43617
Nuclear contribution   :     14.05107     -17.50309      -5.61173
                        -----------------------------------------
Total Dipole Moment    :      0.50509      -0.44569      -0.17556
                        -----------------------------------------
Magnitude (a.u.)       :      0.69612
Magnitude (Debye)      :      1.76939

Rotational constants in cm-1:     0.016744     0.008429     0.007598
Rotational constants in MHz :   501.978036   252.694119   227.780199

                             ****ORCA TERMINATED NORMALLY****
TOTAL RUN TIME: 0 days 0 hours 0 minutes 22 seconds 339 msec
