                         Program Version 4.2.1 -  RELEASE  -
|  1> ! wB97X-D3 SP def2-SVP
|  2> %pal
|  3> nprocs 24
|  4> end
|  5>
|  6> * xyz 0 1
|  7> S 	 15.9159 	 -14.4192 	 -123.897
|  8> C 	 14.9427 	 -13.0167 	 -124.191
|  9> C 	 14.4643 	 -12.438 	 -122.996
| 10> C 	 15.1973 	 -12.8698 	 -121.862
| 11> C 	 16.0654 	 -13.8879 	 -122.19
| 12> H 	 15.1812 	 -12.5659 	 -120.86
| 13> C 	 13.5327 	 -11.2128 	 -122.967
| 14> H 	 13.3926 	 -11.0146 	 -121.951
| 15> H 	 12.5458 	 -11.5446 	 -123.35
| 16> C 	 14.1865 	 -9.87704 	 -123.387
| 17> H 	 15.1863 	 -9.96613 	 -123.619
| 18> H 	 13.7258 	 -9.7291 	 -124.379
| 19> C 	 13.9453 	 -8.67501 	 -122.427
| 20> H 	 14.6436 	 -8.69743 	 -121.575
| 21> H 	 14.0343 	 -7.63389 	 -122.881
| 22> H 	 12.9217 	 -8.82037 	 -121.938
| 23> S 	 16.3481 	 -16.2577 	 -120.933
| 24> C 	 17.6362 	 -16.5351 	 -119.818
| 25> C 	 18.3714 	 -15.3766 	 -119.575
| 26> C 	 17.8402 	 -14.1942 	 -120.258
| 27> C 	 16.8537 	 -14.5979 	 -121.224
| 28> H 	 19.191 	 -15.396 	 -118.895
| 29> C 	 18.4947 	 -12.8661 	 -119.974
| 30> H 	 18.7103 	 -12.821 	 -118.935
| 31> H 	 17.7585 	 -12.1331 	 -120.046
| 32> C 	 19.5481 	 -12.4783 	 -120.93
| 33> H 	 19.6769 	 -11.4147 	 -120.723
| 34> H 	 19.2608 	 -12.5097 	 -121.97
| 35> C 	 20.8518 	 -13.3537 	 -120.873
| 36> H 	 21.4226 	 -13.3413 	 -120.003
| 37> H 	 21.562 	 -13.129 	 -121.652
| 38> H 	 20.659 	 -14.361 	 -121.131
| 39> H 	 14.6281 	 -12.7627 	 -125.177
| 40> H 	 17.9515 	 -17.4651 	 -119.376
| 41> *
| 42>
| 43>                          ****END OF INPUT****

CARTESIAN COORDINATES (ANGSTROEM)
---------------------------------
  S     15.915900  -14.419200  -123.897000
  C     14.942700  -13.016700  -124.191000
  C     14.464300  -12.438000  -122.996000
  C     15.197300  -12.869800  -121.862000
  C     16.065400  -13.887900  -122.190000
  H     15.181200  -12.565900  -120.860000
  C     13.532700  -11.212800  -122.967000
  H     13.392600  -11.014600  -121.951000
  H     12.545800  -11.544600  -123.350000
  C     14.186500   -9.877040  -123.387000
  H     15.186300   -9.966130  -123.619000
  H     13.725800   -9.729100  -124.379000
  C     13.945300   -8.675010  -122.427000
  H     14.643600   -8.697430  -121.575000
  H     14.034300   -7.633890  -122.881000
  H     12.921700   -8.820370  -121.938000
  S     16.348100  -16.257700  -120.933000
  C     17.636200  -16.535100  -119.818000
  C     18.371400  -15.376600  -119.575000
  C     17.840200  -14.194200  -120.258000
  C     16.853700  -14.597900  -121.224000
  H     19.191000  -15.396000  -118.895000
  C     18.494700  -12.866100  -119.974000
  H     18.710300  -12.821000  -118.935000
  H     17.758500  -12.133100  -120.046000
  C     19.548100  -12.478300  -120.930000
  H     19.676900  -11.414700  -120.723000
  H     19.260800  -12.509700  -121.970000
  C     20.851800  -13.353700  -120.873000
  H     21.422600  -13.341300  -120.003000
  H     21.562000  -13.129000  -121.652000
  H     20.659000  -14.361000  -121.131000
  H     14.628100  -12.762700  -125.177000
  H     17.951500  -17.465100  -119.376000

 Total Charge           Charge          ....    0
 Multiplicity           Mult            ....    1
 Number of Electrons    NEL             ....  134
 Basis Dimension        Dim             ....  322

ORBITAL ENERGIES
----------------

  NO   OCC          E(Eh)            E(eV)
   0   2.0000     -88.968731     -2420.9623
   1   2.0000     -88.962723     -2420.7988
   2   2.0000     -10.326396      -280.9955
   3   2.0000     -10.325966      -280.9838
   4   2.0000     -10.313985      -280.6578
   5   2.0000     -10.310701      -280.5684
   6   2.0000     -10.307168      -280.4723
   7   2.0000     -10.304364      -280.3960
   8   2.0000     -10.294738      -280.1341
   9   2.0000     -10.291657      -280.0502
  10   2.0000     -10.290039      -280.0062
  11   2.0000     -10.289652      -279.9957
  12   2.0000     -10.285349      -279.8786
  13   2.0000     -10.283529      -279.8290
  14   2.0000     -10.280278      -279.7406
  15   2.0000     -10.264226      -279.3038
  16   2.0000      -8.083077      -219.9517
  17   2.0000      -8.077623      -219.8033
  18   2.0000      -6.041425      -164.3955
  19   2.0000      -6.037843      -164.2981
  20   2.0000      -6.036139      -164.2517
  21   2.0000      -6.033828      -164.1888
  22   2.0000      -6.032066      -164.1409
  23   2.0000      -6.028412      -164.0414
  24   2.0000      -1.002375       -27.2760
  25   2.0000      -0.977608       -26.6021
  26   2.0000      -0.916032       -24.9265
  27   2.0000      -0.908590       -24.7240
  28   2.0000      -0.868371       -23.6296
  29   2.0000      -0.850965       -23.1559
  30   2.0000      -0.839932       -22.8557
  31   2.0000      -0.810289       -22.0491
  32   2.0000      -0.789215       -21.4756
  33   2.0000      -0.768036       -20.8993
  34   2.0000      -0.713123       -19.4051
  35   2.0000      -0.709069       -19.2948
  36   2.0000      -0.690039       -18.7769
  37   2.0000      -0.660609       -17.9761
  38   2.0000      -0.647457       -17.6182
  39   2.0000      -0.614676       -16.7262
  40   2.0000      -0.596628       -16.2351
  41   2.0000      -0.566313       -15.4102
  42   2.0000      -0.557469       -15.1695
  43   2.0000      -0.549152       -14.9432
  44   2.0000      -0.537381       -14.6229
  45   2.0000      -0.527176       -14.3452
  46   2.0000      -0.522628       -14.2214
  47   2.0000      -0.512879       -13.9561
  48   2.0000      -0.499480       -13.5916
  49   2.0000      -0.497193       -13.5293
  50   2.0000      -0.487545       -13.2668
  51   2.0000      -0.477908       -13.0045
  52   2.0000      -0.474514       -12.9122
  53   2.0000      -0.471599       -12.8329
  54   2.0000      -0.455131       -12.3847
  55   2.0000      -0.449089       -12.2203
  56   2.0000      -0.445006       -12.1092
  57   2.0000      -0.443449       -12.0669
  58   2.0000      -0.434937       -11.8353
  59   2.0000      -0.423254       -11.5173
  60   2.0000      -0.416945       -11.3456
  61   2.0000      -0.414709       -11.2848
  62   2.0000      -0.403451       -10.9785
  63   2.0000      -0.344399        -9.3716
  64   2.0000      -0.326777        -8.8921
  65   2.0000      -0.324510        -8.8304
  66   2.0000      -0.286646        -7.8000
  67   0.0000       0.030170         0.8210
  68   0.0000       0.057429         1.5627
  69   0.0000       0.112376         3.0579
  70   0.0000       0.117463         3.1963
  71   0.0000       0.132308         3.6003

MULLIKEN ATOMIC CHARGES
-----------------------
   0 S :    0.120228
   1 C :   -0.105165
   2 C :   -0.103787
   3 C :    0.054740
   4 C :   -0.164380
   5 H :    0.001010
   6 C :    0.078032
   7 H :   -0.009691
   8 H :    0.048981
   9 C :   -0.023083
  10 H :    0.020167
  11 H :    0.028557
  12 C :   -0.112518
  13 H :    0.038237
  14 H :    0.057468
  15 H :    0.044334
  16 S :    0.111023
  17 C :   -0.078160
  18 C :   -0.041325
  19 C :   -0.075177
  20 C :   -0.179999
  21 H :    0.008043
  22 C :    0.152100
  23 H :    0.014715
  24 H :   -0.014818
  25 C :   -0.041791
  26 H :    0.022618
  27 H :    0.032625
  28 C :   -0.025506
  29 H :    0.013815
  30 H :    0.016121
  31 H :    0.023554
  32 H :    0.039884
  33 H :    0.049148
Sum of atomic charges:    0.0000000

LOEWDIN ATOMIC CHARGES
----------------------
   0 S :    0.399091
   1 C :   -0.194163
   2 C :   -0.057678
   3 C :   -0.047415
   4 C :   -0.189255
   5 H :    0.027711
   6 C :   -0.032438
   7 H :    0.018723
   8 H :    0.037520
   9 C :   -0.038346
  10 H :    0.015377
  11 H :    0.029842
  12 C :   -0.078561
  13 H :    0.024866
  14 H :    0.037381
  15 H :    0.032148
  16 S :    0.413632
  17 C :   -0.201422
  18 C :   -0.068839
  19 C :   -0.046490
  20 C :   -0.202530
  21 H :    0.023916
  22 C :   -0.032376
  23 H :    0.031450
  24 H :    0.023735
  25 C :   -0.028654
  26 H :    0.025214
  27 H :    0.030778
  28 C :   -0.065118
  29 H :    0.013350
  30 H :    0.027192
  31 H :    0.024012
  32 H :    0.019249
  33 H :    0.028097

  Mayer bond orders larger than 0.100000
B(  0-S ,  1-C ) :   1.1534 B(  0-S ,  4-C ) :   1.1352 B(  1-C ,  2-C ) :   1.5788
B(  1-C ,  4-C ) :   0.1049 B(  1-C , 32-H ) :   0.9787 B(  2-C ,  3-C ) :   1.2271
B(  2-C ,  6-C ) :   1.0360 B(  3-C ,  4-C ) :   1.5816 B(  3-C ,  5-H ) :   1.0022
B(  4-C , 20-C ) :   1.0556 B(  6-C ,  7-H ) :   0.9454 B(  6-C ,  8-H ) :   0.9380
B(  6-C ,  9-C ) :   1.0279 B(  9-C , 10-H ) :   0.9620 B(  9-C , 11-H ) :   0.9551
B(  9-C , 12-C ) :   1.0744 B( 12-C , 13-H ) :   0.9738 B( 12-C , 14-H ) :   0.9748
B( 12-C , 15-H ) :   0.9783 B( 16-S , 17-C ) :   1.1486 B( 16-S , 20-C ) :   1.1574
B( 17-C , 18-C ) :   1.6164 B( 17-C , 20-C ) :   0.1022 B( 17-C , 33-H ) :   0.9660
B( 18-C , 19-C ) :   1.2323 B( 18-C , 21-H ) :   0.9895 B( 19-C , 20-C ) :   1.5665
B( 19-C , 22-C ) :   1.0480 B( 22-C , 23-H ) :   0.9259 B( 22-C , 24-H ) :   0.9099
B( 22-C , 25-C ) :   1.0852 B( 25-C , 26-H ) :   0.9546 B( 25-C , 27-H ) :   0.9542
B( 25-C , 28-C ) :   1.0723 B( 28-C , 29-H ) :   0.9785 B( 28-C , 30-H ) :   0.9710
B( 28-C , 31-H ) :   0.9691

Dispersion correction           -0.014398087
FINAL SINGLE POINT ENERGY     -1339.839153566474

DIPOLE MOMENT
-------------
                                X             Y             Z
Electronic contribution:     -5.54936     -25.37073      -3.87316
Nuclear contribution   :      5.60175      25.98324       4.07379
                        -----------------------------------------
Total Dipole Moment    :      0.05239       0.61252       0.20064
                        -----------------------------------------
Magnitude (a.u.)       :      0.64667
Magnitude (Debye)      :      1.64370

Rotational constants in cm-1:     0.019068     0.008322     0.006857
Rotational constants in MHz :   571.651065   249.486516   205.573032

                             ****ORCA TERMINATED NORMALLY****
TOTAL RUN TIME: 0 days 0 hours 0 minutes 21 seconds 417 msec
