                         Program Version 4.2.1 -  RELEASE  -
|  1> ! wB97X-D3 SP def2-SVP
|  2> %pal
|  3> nprocs 24
|  4> end
|  5>
|  6> * xyz 0 1
|  7> S 	 -83.08 	 -37.008 	 -70.3763
|  8> C 	 -83.9609 	 -36.8164 	 -71.9501
|  9> C 	 -83.7466 	 -37.9189 	 -72.7224
| 10> C 	 -83.1247 	 -39.0366 	 -72.0612
| 11> C 	 -82.6846 	 -38.6586 	 -70.8136
| 12> H 	 -82.8902 	 -39.9947 	 -72.5409
| 13> C 	 -84.4337 	 -38.2868 	 -74.0477
| 14> H 	 -85.1091 	 -37.4139 	 -74.4302
| 15> H 	 -85.1791 	 -39.1227 	 -73.9016
| 16> C 	 -83.631 	 -38.5023 	 -75.325
| 17> H 	 -84.2897 	 -38.6949 	 -76.1112
| 18> H 	 -83.0636 	 -37.6171 	 -75.6064
| 19> C 	 -82.6886 	 -39.7248 	 -75.2743
| 20> H 	 -82.0437 	 -39.8626 	 -74.3968
| 21> H 	 -83.1716 	 -40.685 	 -75.3097
| 22> H 	 -81.9821 	 -39.6693 	 -76.0679
| 23> S 	 -80.356 	 -38.6356 	 -69.4219
| 24> C 	 -79.8966 	 -40.0145 	 -68.4624
| 25> C 	 -80.8848 	 -41.003 	 -68.4403
| 26> C 	 -81.9863 	 -40.694 	 -69.2963
| 27> C 	 -81.8546 	 -39.4355 	 -69.8911
| 28> H 	 -80.6983 	 -41.8704 	 -67.8145
| 29> C 	 -83.1404 	 -41.6862 	 -69.5697
| 30> H 	 -83.7503 	 -41.4256 	 -70.3856
| 31> H 	 -83.747 	 -41.6382 	 -68.664
| 32> C 	 -82.6394 	 -43.1435 	 -69.7655
| 33> H 	 -83.535 	 -43.678 	 -69.8978
| 34> H 	 -82.2736 	 -43.5663 	 -68.8675
| 35> C 	 -81.655 	 -43.1525 	 -70.9364
| 36> H 	 -81.27 	 -44.1452 	 -71.2238
| 37> H 	 -80.7718 	 -42.6776 	 -70.6151
| 38> H 	 -82.0734 	 -42.7525 	 -71.9012
| 39> H 	 -84.3866 	 -35.8344 	 -72.1815
| 40> H 	 -79.2652 	 -39.9525 	 -67.6113
| 41> *
| 42>
| 43>                          ****END OF INPUT****

CARTESIAN COORDINATES (ANGSTROEM)
---------------------------------
  S    -83.080000  -37.008000  -70.376300
  C    -83.960900  -36.816400  -71.950100
  C    -83.746600  -37.918900  -72.722400
  C    -83.124700  -39.036600  -72.061200
  C    -82.684600  -38.658600  -70.813600
  H    -82.890200  -39.994700  -72.540900
  C    -84.433700  -38.286800  -74.047700
  H    -85.109100  -37.413900  -74.430200
  H    -85.179100  -39.122700  -73.901600
  C    -83.631000  -38.502300  -75.325000
  H    -84.289700  -38.694900  -76.111200
  H    -83.063600  -37.617100  -75.606400
  C    -82.688600  -39.724800  -75.274300
  H    -82.043700  -39.862600  -74.396800
  H    -83.171600  -40.685000  -75.309700
  H    -81.982100  -39.669300  -76.067900
  S    -80.356000  -38.635600  -69.421900
  C    -79.896600  -40.014500  -68.462400
  C    -80.884800  -41.003000  -68.440300
  C    -81.986300  -40.694000  -69.296300
  C    -81.854600  -39.435500  -69.891100
  H    -80.698300  -41.870400  -67.814500
  C    -83.140400  -41.686200  -69.569700
  H    -83.750300  -41.425600  -70.385600
  H    -83.747000  -41.638200  -68.664000
  C    -82.639400  -43.143500  -69.765500
  H    -83.535000  -43.678000  -69.897800
  H    -82.273600  -43.566300  -68.867500
  C    -81.655000  -43.152500  -70.936400
  H    -81.270000  -44.145200  -71.223800
  H    -80.771800  -42.677600  -70.615100
  H    -82.073400  -42.752500  -71.901200
  H    -84.386600  -35.834400  -72.181500
  H    -79.265200  -39.952500  -67.611300

 Total Charge           Charge          ....    0
 Multiplicity           Mult            ....    1
 Number of Electrons    NEL             ....  134
 Basis Dimension        Dim             ....  322

ORBITAL ENERGIES
----------------

  NO   OCC          E(Eh)            E(eV)
   0   2.0000     -88.965316     -2420.8693
   1   2.0000     -88.964331     -2420.8425
   2   2.0000     -10.331141      -281.1246
   3   2.0000     -10.325954      -280.9835
   4   2.0000     -10.322007      -280.8761
   5   2.0000     -10.310894      -280.5737
   6   2.0000     -10.306450      -280.4528
   7   2.0000     -10.305881      -280.4373
   8   2.0000     -10.302574      -280.3473
   9   2.0000     -10.296685      -280.1870
  10   2.0000     -10.295396      -280.1520
  11   2.0000     -10.289137      -279.9817
  12   2.0000     -10.284901      -279.8664
  13   2.0000     -10.281282      -279.7679
  14   2.0000     -10.276868      -279.6478
  15   2.0000     -10.271111      -279.4911
  16   2.0000      -8.079512      -219.8547
  17   2.0000      -8.079025      -219.8415
  18   2.0000      -6.038079      -164.3045
  19   2.0000      -6.037452      -164.2874
  20   2.0000      -6.034204      -164.1990
  21   2.0000      -6.033515      -164.1803
  22   2.0000      -6.030108      -164.0876
  23   2.0000      -6.029890      -164.0817
  24   2.0000      -1.003803       -27.3149
  25   2.0000      -0.979630       -26.6571
  26   2.0000      -0.911301       -24.7978
  27   2.0000      -0.907883       -24.7047
  28   2.0000      -0.868389       -23.6301
  29   2.0000      -0.846610       -23.0374
  30   2.0000      -0.840466       -22.8702
  31   2.0000      -0.813041       -22.1240
  32   2.0000      -0.785182       -21.3659
  33   2.0000      -0.775631       -21.1060
  34   2.0000      -0.710395       -19.3308
  35   2.0000      -0.704424       -19.1683
  36   2.0000      -0.695664       -18.9300
  37   2.0000      -0.656837       -17.8734
  38   2.0000      -0.641520       -17.4566
  39   2.0000      -0.617920       -16.8145
  40   2.0000      -0.596289       -16.2258
  41   2.0000      -0.568749       -15.4764
  42   2.0000      -0.555828       -15.1248
  43   2.0000      -0.544137       -14.8067
  44   2.0000      -0.539437       -14.6788
  45   2.0000      -0.533912       -14.5285
  46   2.0000      -0.524672       -14.2770
  47   2.0000      -0.515357       -14.0236
  48   2.0000      -0.500723       -13.6254
  49   2.0000      -0.494415       -13.4537
  50   2.0000      -0.482861       -13.1393
  51   2.0000      -0.480776       -13.0826
  52   2.0000      -0.472210       -12.8495
  53   2.0000      -0.467532       -12.7222
  54   2.0000      -0.459064       -12.4918
  55   2.0000      -0.445587       -12.1250
  56   2.0000      -0.441658       -12.0181
  57   2.0000      -0.436925       -11.8893
  58   2.0000      -0.435217       -11.8429
  59   2.0000      -0.426028       -11.5928
  60   2.0000      -0.416950       -11.3458
  61   2.0000      -0.414552       -11.2805
  62   2.0000      -0.406012       -11.0482
  63   2.0000      -0.341527        -9.2934
  64   2.0000      -0.333725        -9.0811
  65   2.0000      -0.329313        -8.9611
  66   2.0000      -0.295661        -8.0453
  67   0.0000       0.029713         0.8085
  68   0.0000       0.064076         1.7436
  69   0.0000       0.106084         2.8867
  70   0.0000       0.115388         3.1399
  71   0.0000       0.126115         3.4318

MULLIKEN ATOMIC CHARGES
-----------------------
   0 S :    0.090340
   1 C :   -0.142630
   2 C :   -0.003478
   3 C :    0.022751
   4 C :   -0.133975
   5 H :    0.025999
   6 C :   -0.053512
   7 H :    0.030017
   8 H :    0.051464
   9 C :   -0.006478
  10 H :    0.019252
  11 H :    0.031627
  12 C :   -0.068545
  13 H :    0.028950
  14 H :    0.019115
  15 H :    0.020668
  16 S :    0.103076
  17 C :   -0.071837
  18 C :   -0.085588
  19 C :   -0.034484
  20 C :   -0.175037
  21 H :    0.027972
  22 C :    0.089406
  23 H :    0.013003
  24 H :    0.034791
  25 C :   -0.035759
  26 H :    0.013233
  27 H :    0.014213
  28 C :   -0.039774
  29 H :    0.023253
  30 H :    0.035395
  31 H :    0.037669
  32 H :    0.063725
  33 H :    0.055177
Sum of atomic charges:   -0.0000000

LOEWDIN ATOMIC CHARGES
----------------------
   0 S :    0.374095
   1 C :   -0.172964
   2 C :   -0.062615
   3 C :   -0.063330
   4 C :   -0.183598
   5 H :    0.036085
   6 C :   -0.043311
   7 H :    0.036666
   8 H :    0.037570
   9 C :   -0.033641
  10 H :    0.021543
  11 H :    0.027903
  12 C :   -0.074800
  13 H :    0.024277
  14 H :    0.020557
  15 H :    0.022360
  16 S :    0.406354
  17 C :   -0.197400
  18 C :   -0.068753
  19 C :   -0.054891
  20 C :   -0.196650
  21 H :    0.033335
  22 C :   -0.018906
  23 H :    0.020549
  24 H :    0.035319
  25 C :   -0.033491
  26 H :    0.019179
  27 H :    0.017245
  28 C :   -0.064686
  29 H :    0.025329
  30 H :    0.023156
  31 H :    0.030696
  32 H :    0.032628
  33 H :    0.024189

  Mayer bond orders larger than 0.100000
B(  0-S ,  1-C ) :   1.1022 B(  0-S ,  4-C ) :   1.1516 B(  1-C ,  2-C ) :   1.6462
B(  1-C , 32-H ) :   0.9715 B(  2-C ,  3-C ) :   1.1926 B(  2-C ,  6-C ) :   1.0053
B(  3-C ,  4-C ) :   1.5983 B(  3-C ,  5-H ) :   0.9868 B(  4-C , 20-C ) :   1.0198
B(  6-C ,  7-H ) :   0.9489 B(  6-C ,  8-H ) :   0.9515 B(  6-C ,  9-C ) :   1.0835
B(  9-C , 10-H ) :   0.9498 B(  9-C , 11-H ) :   0.9545 B(  9-C , 12-C ) :   1.0782
B( 12-C , 13-H ) :   0.9703 B( 12-C , 14-H ) :   0.9757 B( 12-C , 15-H ) :   0.9712
B( 16-S , 17-C ) :   1.1567 B( 16-S , 20-C ) :   1.1511 B( 17-C , 18-C ) :   1.6193
B( 17-C , 20-C ) :   0.1033 B( 17-C , 33-H ) :   0.9578 B( 18-C , 19-C ) :   1.2354
B( 18-C , 21-H ) :   0.9875 B( 19-C , 20-C ) :   1.5950 B( 19-C , 22-C ) :   1.0274
B( 22-C , 23-H ) :   0.9436 B( 22-C , 24-H ) :   0.9285 B( 22-C , 25-C ) :   1.0800
B( 25-C , 26-H ) :   0.9547 B( 25-C , 27-H ) :   0.9481 B( 25-C , 28-C ) :   1.0710
B( 28-C , 29-H ) :   0.9715 B( 28-C , 30-H ) :   0.9694 B( 28-C , 31-H ) :   0.9747

Dispersion correction           -0.014945852
FINAL SINGLE POINT ENERGY     -1339.862758408606

DIPOLE MOMENT
-------------
                                X             Y             Z
Electronic contribution:      5.95751      19.81446      17.86448
Nuclear contribution   :     -6.26095     -20.29471     -18.12708
                        -----------------------------------------
Total Dipole Moment    :     -0.30344      -0.48025      -0.26261
                        -----------------------------------------
Magnitude (a.u.)       :      0.62584
Magnitude (Debye)      :      1.59076

Rotational constants in cm-1:     0.017959     0.009651     0.007399
Rotational constants in MHz :   538.387908   289.334545   221.817386

                             ****ORCA TERMINATED NORMALLY****
TOTAL RUN TIME: 0 days 0 hours 0 minutes 22 seconds 252 msec
