                         Program Version 4.2.1 -  RELEASE  -
|  1> ! wB97X-D3 SP def2-SVP
|  2> %pal
|  3> nprocs 24
|  4> end
|  5>
|  6> * xyz 0 1
|  7> S 	 -73.5462 	 3.03949 	 16.4858
|  8> C 	 -72.057 	 2.43572 	 16.0725
|  9> C 	 -71.5575 	 1.45845 	 16.9496
| 10> C 	 -72.3007 	 1.44656 	 18.1503
| 11> C 	 -73.4637 	 2.16839 	 18.0539
| 12> H 	 -72.086 	 0.841564 	 19.0053
| 13> C 	 -70.2104 	 0.71553 	 16.8132
| 14> H 	 -70.4623 	 -0.30409 	 17.0639
| 15> H 	 -69.5622 	 0.976811 	 17.6172
| 16> C 	 -69.3926 	 0.855285 	 15.5127
| 17> H 	 -68.7284 	 0.044872 	 15.3556
| 18> H 	 -70.0162 	 0.684103 	 14.6216
| 19> C 	 -68.5665 	 2.16618 	 15.3108
| 20> H 	 -67.9291 	 2.10214 	 14.3595
| 21> H 	 -69.2029 	 3.03519 	 15.2476
| 22> H 	 -67.9686 	 2.31368 	 16.2469
| 23> S 	 -76.0698 	 1.82752 	 18.4868
| 24> C 	 -76.7377 	 1.93273 	 20.1194
| 25> C 	 -75.8208 	 2.37452 	 21.0431
| 26> C 	 -74.5233 	 2.46042 	 20.3927
| 27> C 	 -74.5183 	 2.3505 	 19.0155
| 28> H 	 -76.0487 	 2.58245 	 22.1741
| 29> C 	 -73.3381 	 2.75946 	 21.3046
| 30> H 	 -72.7064 	 2.00233 	 21.081
| 31> H 	 -73.6765 	 2.73508 	 22.3667
| 32> C 	 -72.5466 	 4.05143 	 21.0352
| 33> H 	 -73.1618 	 4.95219 	 21.0966
| 34> H 	 -72.0712 	 3.93832 	 20.0629
| 35> C 	 -71.323 	 4.09211 	 21.9626
| 36> H 	 -70.6756 	 3.22658 	 21.8816
| 37> H 	 -71.6594 	 4.0645 	 23.0621
| 38> H 	 -70.8111 	 5.00536 	 21.7906
| 39> H 	 -71.5296 	 2.65508 	 15.1081
| 40> H 	 -77.6851 	 1.65877 	 20.4948
| 41> *
| 42>
| 43>                          ****END OF INPUT****

CARTESIAN COORDINATES (ANGSTROEM)
---------------------------------
  S    -73.546200    3.039490   16.485800
  C    -72.057000    2.435720   16.072500
  C    -71.557500    1.458450   16.949600
  C    -72.300700    1.446560   18.150300
  C    -73.463700    2.168390   18.053900
  H    -72.086000    0.841564   19.005300
  C    -70.210400    0.715530   16.813200
  H    -70.462300   -0.304090   17.063900
  H    -69.562200    0.976811   17.617200
  C    -69.392600    0.855285   15.512700
  H    -68.728400    0.044872   15.355600
  H    -70.016200    0.684103   14.621600
  C    -68.566500    2.166180   15.310800
  H    -67.929100    2.102140   14.359500
  H    -69.202900    3.035190   15.247600
  H    -67.968600    2.313680   16.246900
  S    -76.069800    1.827520   18.486800
  C    -76.737700    1.932730   20.119400
  C    -75.820800    2.374520   21.043100
  C    -74.523300    2.460420   20.392700
  C    -74.518300    2.350500   19.015500
  H    -76.048700    2.582450   22.174100
  C    -73.338100    2.759460   21.304600
  H    -72.706400    2.002330   21.081000
  H    -73.676500    2.735080   22.366700
  C    -72.546600    4.051430   21.035200
  H    -73.161800    4.952190   21.096600
  H    -72.071200    3.938320   20.062900
  C    -71.323000    4.092110   21.962600
  H    -70.675600    3.226580   21.881600
  H    -71.659400    4.064500   23.062100
  H    -70.811100    5.005360   21.790600
  H    -71.529600    2.655080   15.108100
  H    -77.685100    1.658770   20.494800

 Total Charge           Charge          ....    0
 Multiplicity           Mult            ....    1
 Number of Electrons    NEL             ....  134
 Basis Dimension        Dim             ....  322

ORBITAL ENERGIES
----------------

  NO   OCC          E(Eh)            E(eV)
   0   2.0000     -88.967595     -2420.9313
   1   2.0000     -88.964210     -2420.8392
   2   2.0000     -10.329488      -281.0797
   3   2.0000     -10.320123      -280.8248
   4   2.0000     -10.314176      -280.6630
   5   2.0000     -10.312084      -280.6061
   6   2.0000     -10.302134      -280.3353
   7   2.0000     -10.301777      -280.3256
   8   2.0000     -10.301269      -280.3118
   9   2.0000     -10.294928      -280.1392
  10   2.0000     -10.293986      -280.1136
  11   2.0000     -10.290008      -280.0054
  12   2.0000     -10.289197      -279.9833
  13   2.0000     -10.282016      -279.7879
  14   2.0000     -10.281466      -279.7729
  15   2.0000     -10.276812      -279.6463
  16   2.0000      -8.083427      -219.9612
  17   2.0000      -8.079228      -219.8470
  18   2.0000      -6.041643      -164.4015
  19   2.0000      -6.037923      -164.3002
  20   2.0000      -6.037865      -164.2987
  21   2.0000      -6.034336      -164.2026
  22   2.0000      -6.033653      -164.1840
  23   2.0000      -6.029792      -164.0790
  24   2.0000      -1.012126       -27.5414
  25   2.0000      -0.987768       -26.8785
  26   2.0000      -0.908806       -24.7299
  27   2.0000      -0.906588       -24.6695
  28   2.0000      -0.873625       -23.7725
  29   2.0000      -0.858217       -23.3533
  30   2.0000      -0.845225       -22.9998
  31   2.0000      -0.813558       -22.1381
  32   2.0000      -0.781613       -21.2688
  33   2.0000      -0.766377       -20.8542
  34   2.0000      -0.707631       -19.2556
  35   2.0000      -0.704356       -19.1665
  36   2.0000      -0.688272       -18.7288
  37   2.0000      -0.665294       -18.1036
  38   2.0000      -0.640466       -17.4280
  39   2.0000      -0.617658       -16.8073
  40   2.0000      -0.590150       -16.0588
  41   2.0000      -0.572068       -15.5668
  42   2.0000      -0.568395       -15.4668
  43   2.0000      -0.551301       -15.0017
  44   2.0000      -0.535211       -14.5638
  45   2.0000      -0.527553       -14.3554
  46   2.0000      -0.511492       -13.9184
  47   2.0000      -0.505740       -13.7619
  48   2.0000      -0.502213       -13.6659
  49   2.0000      -0.494294       -13.4504
  50   2.0000      -0.490326       -13.3425
  51   2.0000      -0.486548       -13.2396
  52   2.0000      -0.479254       -13.0412
  53   2.0000      -0.466760       -12.7012
  54   2.0000      -0.458820       -12.4851
  55   2.0000      -0.449329       -12.2269
  56   2.0000      -0.441436       -12.0121
  57   2.0000      -0.437262       -11.8985
  58   2.0000      -0.435345       -11.8463
  59   2.0000      -0.430327       -11.7098
  60   2.0000      -0.417237       -11.3536
  61   2.0000      -0.414558       -11.2807
  62   2.0000      -0.410002       -11.1567
  63   2.0000      -0.355787        -9.6815
  64   2.0000      -0.333821        -9.0837
  65   2.0000      -0.323383        -8.7997
  66   2.0000      -0.285983        -7.7820
  67   0.0000       0.035441         0.9644
  68   0.0000       0.065831         1.7913
  69   0.0000       0.111360         3.0303
  70   0.0000       0.118156         3.2152
  71   0.0000       0.130962         3.5636

MULLIKEN ATOMIC CHARGES
-----------------------
   0 S :    0.132847
   1 C :   -0.134682
   2 C :   -0.101577
   3 C :    0.014119
   4 C :   -0.161415
   5 H :    0.012619
   6 C :    0.088667
   7 H :    0.024546
   8 H :    0.020653
   9 C :   -0.069827
  10 H :    0.015703
  11 H :    0.020913
  12 C :   -0.077368
  13 H :    0.056055
  14 H :    0.028073
  15 H :    0.037830
  16 S :    0.102802
  17 C :   -0.061080
  18 C :   -0.074387
  19 C :   -0.096264
  20 C :   -0.092363
  21 H :    0.065145
  22 C :    0.105232
  23 H :   -0.017222
  24 H :    0.018720
  25 C :   -0.070543
  26 H :    0.039005
  27 H :    0.037564
  28 C :   -0.050307
  29 H :    0.026301
  30 H :    0.022906
  31 H :    0.033173
  32 H :    0.070452
  33 H :    0.033712
Sum of atomic charges:    0.0000000

LOEWDIN ATOMIC CHARGES
----------------------
   0 S :    0.429029
   1 C :   -0.234127
   2 C :   -0.064819
   3 C :   -0.056892
   4 C :   -0.182145
   5 H :    0.030562
   6 C :   -0.029614
   7 H :    0.033933
   8 H :    0.028184
   9 C :   -0.049806
  10 H :    0.022910
  11 H :    0.023902
  12 C :   -0.069509
  13 H :    0.038675
  14 H :    0.016915
  15 H :    0.029336
  16 S :    0.413954
  17 C :   -0.176624
  18 C :   -0.082875
  19 C :   -0.052229
  20 C :   -0.221684
  21 H :    0.054203
  22 C :   -0.026410
  23 H :    0.013115
  24 H :    0.030688
  25 C :   -0.034599
  26 H :    0.025320
  27 H :    0.028239
  28 C :   -0.064745
  29 H :    0.021803
  30 H :    0.025795
  31 H :    0.021037
  32 H :    0.036294
  33 H :    0.022185

  Mayer bond orders larger than 0.100000
B(  0-S ,  1-C ) :   1.1702 B(  0-S ,  4-C ) :   1.1430 B(  1-C ,  2-C ) :   1.6043
B(  1-C ,  4-C ) :   0.1007 B(  1-C , 32-H ) :   0.9443 B(  2-C ,  3-C ) :   1.2529
B(  2-C ,  6-C ) :   1.0088 B(  3-C ,  4-C ) :   1.5862 B(  3-C ,  5-H ) :   0.9965
B(  4-C , 20-C ) :   1.0197 B(  6-C ,  7-H ) :   0.9306 B(  6-C ,  8-H ) :   0.9427
B(  6-C ,  9-C ) :   1.0727 B(  9-C , 10-H ) :   0.9514 B(  9-C , 11-H ) :   0.9517
B(  9-C , 12-C ) :   1.0671 B( 12-C , 13-H ) :   0.9737 B( 12-C , 14-H ) :   0.9788
B( 12-C , 15-H ) :   0.9734 B( 16-S , 17-C ) :   1.1556 B( 16-S , 20-C ) :   1.1188
B( 17-C , 18-C ) :   1.6266 B( 17-C , 33-H ) :   0.9662 B( 18-C , 19-C ) :   1.2321
B( 18-C , 21-H ) :   0.9696 B( 19-C , 20-C ) :   1.6180 B( 19-C , 22-C ) :   1.0374
B( 22-C , 23-H ) :   0.9149 B( 22-C , 24-H ) :   0.9403 B( 22-C , 25-C ) :   1.0821
B( 25-C , 26-H ) :   0.9597 B( 25-C , 27-H ) :   0.9473 B( 25-C , 28-C ) :   1.0828
B( 28-C , 29-H ) :   0.9745 B( 28-C , 30-H ) :   0.9737 B( 28-C , 31-H ) :   0.9738

Dispersion correction           -0.014329198
FINAL SINGLE POINT ENERGY     -1339.858687336817

DIPOLE MOMENT
-------------
                                X             Y             Z
Electronic contribution:    -27.18621      -1.38117      -6.77194
Nuclear contribution   :     27.72861       1.14033       7.12418
                        -----------------------------------------
Total Dipole Moment    :      0.54240      -0.24084       0.35224
                        -----------------------------------------
Magnitude (a.u.)       :      0.69012
Magnitude (Debye)      :      1.75415

Rotational constants in cm-1:     0.020148     0.008349     0.006596
Rotational constants in MHz :   604.010625   250.300956   197.743607

                             ****ORCA TERMINATED NORMALLY****
TOTAL RUN TIME: 0 days 0 hours 0 minutes 21 seconds 735 msec
