                         Program Version 4.2.1 -  RELEASE  -
|  1> ! wB97X-D3 SP def2-SVP
|  2> %pal
|  3> nprocs 24
|  4> end
|  5>
|  6> * xyz 0 1
|  7> S 	 -116.003 	 35.0498 	 -120.215
|  8> C 	 -114.862 	 34.5885 	 -121.448
|  9> C 	 -113.946 	 33.6527 	 -120.963
| 10> C 	 -113.941 	 33.6287 	 -119.544
| 11> C 	 -114.943 	 34.3713 	 -118.954
| 12> H 	 -113.237 	 33.1798 	 -118.913
| 13> C 	 -112.843 	 32.8846 	 -121.654
| 14> H 	 -113.052 	 33.2112 	 -122.702
| 15> H 	 -113.078 	 31.8655 	 -121.546
| 16> C 	 -111.496 	 33.2604 	 -121.19
| 17> H 	 -111.471 	 34.3646 	 -121.057
| 18> H 	 -111.441 	 32.8112 	 -120.162
| 19> C 	 -110.331 	 32.9147 	 -122.081
| 20> H 	 -109.345 	 32.9003 	 -121.587
| 21> H 	 -110.548 	 31.9242 	 -122.522
| 22> H 	 -110.253 	 33.5501 	 -122.927
| 23> S 	 -114.027 	 35.5257 	 -116.654
| 24> C 	 -114.658 	 34.9966 	 -115.149
| 25> C 	 -115.781 	 34.1619 	 -115.29
| 26> C 	 -116.042 	 33.8831 	 -116.662
| 27> C 	 -115.141 	 34.4868 	 -117.484
| 28> H 	 -116.303 	 33.9076 	 -114.388
| 29> C 	 -117.132 	 32.974 	 -117.207
| 30> H 	 -117.384 	 32.2225 	 -116.383
| 31> H 	 -116.837 	 32.4416 	 -118.084
| 32> C 	 -118.502 	 33.6918 	 -117.516
| 33> H 	 -118.119 	 34.3541 	 -118.237
| 34> H 	 -118.86 	 34.3828 	 -116.688
| 35> C 	 -119.594 	 32.8322 	 -118.175
| 36> H 	 -119.903 	 31.9764 	 -117.5
| 37> H 	 -119.184 	 32.374 	 -119.087
| 38> H 	 -120.51 	 33.4296 	 -118.488
| 39> H 	 -114.983 	 34.6211 	 -122.528
| 40> H 	 -114.46 	 35.4632 	 -114.233
| 41> *
| 42>
| 43>                          ****END OF INPUT****

CARTESIAN COORDINATES (ANGSTROEM)
---------------------------------
  S    -116.003000   35.049800  -120.215000
  C    -114.862000   34.588500  -121.448000
  C    -113.946000   33.652700  -120.963000
  C    -113.941000   33.628700  -119.544000
  C    -114.943000   34.371300  -118.954000
  H    -113.237000   33.179800  -118.913000
  C    -112.843000   32.884600  -121.654000
  H    -113.052000   33.211200  -122.702000
  H    -113.078000   31.865500  -121.546000
  C    -111.496000   33.260400  -121.190000
  H    -111.471000   34.364600  -121.057000
  H    -111.441000   32.811200  -120.162000
  C    -110.331000   32.914700  -122.081000
  H    -109.345000   32.900300  -121.587000
  H    -110.548000   31.924200  -122.522000
  H    -110.253000   33.550100  -122.927000
  S    -114.027000   35.525700  -116.654000
  C    -114.658000   34.996600  -115.149000
  C    -115.781000   34.161900  -115.290000
  C    -116.042000   33.883100  -116.662000
  C    -115.141000   34.486800  -117.484000
  H    -116.303000   33.907600  -114.388000
  C    -117.132000   32.974000  -117.207000
  H    -117.384000   32.222500  -116.383000
  H    -116.837000   32.441600  -118.084000
  C    -118.502000   33.691800  -117.516000
  H    -118.119000   34.354100  -118.237000
  H    -118.860000   34.382800  -116.688000
  C    -119.594000   32.832200  -118.175000
  H    -119.903000   31.976400  -117.500000
  H    -119.184000   32.374000  -119.087000
  H    -120.510000   33.429600  -118.488000
  H    -114.983000   34.621100  -122.528000
  H    -114.460000   35.463200  -114.233000

 Total Charge           Charge          ....    0
 Multiplicity           Mult            ....    1
 Number of Electrons    NEL             ....  134
 Basis Dimension        Dim             ....  322

ORBITAL ENERGIES
----------------

  NO   OCC          E(Eh)            E(eV)
   0   2.0000     -88.970086     -2420.9991
   1   2.0000     -88.967162     -2420.9196
   2   2.0000     -10.330286      -281.1014
   3   2.0000     -10.322486      -280.8891
   4   2.0000     -10.315973      -280.7119
   5   2.0000     -10.311462      -280.5891
   6   2.0000     -10.302619      -280.3485
   7   2.0000     -10.299235      -280.2564
   8   2.0000     -10.295932      -280.1666
   9   2.0000     -10.294851      -280.1371
  10   2.0000     -10.288333      -279.9598
  11   2.0000     -10.287598      -279.9398
  12   2.0000     -10.287344      -279.9329
  13   2.0000     -10.286491      -279.9096
  14   2.0000     -10.284699      -279.8609
  15   2.0000     -10.277957      -279.6774
  16   2.0000      -8.083637      -219.9669
  17   2.0000      -8.082701      -219.9415
  18   2.0000      -6.042309      -164.4196
  19   2.0000      -6.040948      -164.3825
  20   2.0000      -6.038374      -164.3125
  21   2.0000      -6.037113      -164.2782
  22   2.0000      -6.034239      -164.2000
  23   2.0000      -6.033675      -164.1846
  24   2.0000      -1.009094       -27.4588
  25   2.0000      -0.987754       -26.8781
  26   2.0000      -0.922538       -25.1035
  27   2.0000      -0.902963       -24.5709
  28   2.0000      -0.867680       -23.6108
  29   2.0000      -0.851582       -23.1727
  30   2.0000      -0.850213       -23.1355
  31   2.0000      -0.814873       -22.1738
  32   2.0000      -0.782549       -21.2942
  33   2.0000      -0.771546       -20.9948
  34   2.0000      -0.707400       -19.2493
  35   2.0000      -0.693770       -18.8784
  36   2.0000      -0.690120       -18.7791
  37   2.0000      -0.666580       -18.1386
  38   2.0000      -0.640478       -17.4283
  39   2.0000      -0.620279       -16.8787
  40   2.0000      -0.595669       -16.2090
  41   2.0000      -0.581771       -15.8308
  42   2.0000      -0.561336       -15.2747
  43   2.0000      -0.558111       -15.1870
  44   2.0000      -0.528830       -14.3902
  45   2.0000      -0.517387       -14.0788
  46   2.0000      -0.514121       -13.9899
  47   2.0000      -0.510785       -13.8992
  48   2.0000      -0.504855       -13.7378
  49   2.0000      -0.500962       -13.6319
  50   2.0000      -0.492640       -13.4054
  51   2.0000      -0.480530       -13.0759
  52   2.0000      -0.471116       -12.8197
  53   2.0000      -0.468178       -12.7398
  54   2.0000      -0.464179       -12.6310
  55   2.0000      -0.449298       -12.2260
  56   2.0000      -0.445748       -12.1294
  57   2.0000      -0.435733       -11.8569
  58   2.0000      -0.431745       -11.7484
  59   2.0000      -0.428992       -11.6735
  60   2.0000      -0.415644       -11.3102
  61   2.0000      -0.414152       -11.2697
  62   2.0000      -0.403021       -10.9668
  63   2.0000      -0.338575        -9.2131
  64   2.0000      -0.331482        -9.0201
  65   2.0000      -0.326216        -8.8768
  66   2.0000      -0.305727        -8.3192
  67   0.0000       0.041258         1.1227
  68   0.0000       0.054796         1.4911
  69   0.0000       0.101853         2.7716
  70   0.0000       0.118580         3.2267
  71   0.0000       0.131710         3.5840

MULLIKEN ATOMIC CHARGES
-----------------------
   0 S :    0.109898
   1 C :   -0.098003
   2 C :   -0.131974
   3 C :    0.048761
   4 C :   -0.159030
   5 H :   -0.006235
   6 C :    0.110952
   7 H :    0.008600
   8 H :    0.031441
   9 C :   -0.122128
  10 H :    0.041855
  11 H :    0.039927
  12 C :   -0.011501
  13 H :    0.043625
  14 H :    0.021630
  15 H :    0.024125
  16 S :    0.131273
  17 C :   -0.078020
  18 C :   -0.054949
  19 C :    0.018294
  20 C :   -0.208507
  21 H :    0.016162
  22 C :    0.049775
  23 H :    0.026396
  24 H :    0.028412
  25 C :   -0.070890
  26 H :   -0.001701
  27 H :    0.039193
  28 C :   -0.061965
  29 H :    0.040077
  30 H :    0.031388
  31 H :    0.053813
  32 H :    0.050294
  33 H :    0.039012
Sum of atomic charges:    0.0000000

LOEWDIN ATOMIC CHARGES
----------------------
   0 S :    0.399191
   1 C :   -0.207824
   2 C :   -0.058813
   3 C :   -0.053087
   4 C :   -0.186669
   5 H :    0.021899
   6 C :   -0.031387
   7 H :    0.029901
   8 H :    0.027856
   9 C :   -0.051345
  10 H :    0.031996
  11 H :    0.029501
  12 C :   -0.063578
  13 H :    0.032694
  14 H :    0.026758
  15 H :    0.021304
  16 S :    0.434920
  17 C :   -0.191034
  18 C :   -0.063606
  19 C :   -0.057010
  20 C :   -0.204982
  21 H :    0.031340
  22 C :   -0.027434
  23 H :    0.031572
  24 H :    0.025975
  25 C :   -0.050080
  26 H :    0.006535
  27 H :    0.030106
  28 C :   -0.074181
  29 H :    0.028473
  30 H :    0.026642
  31 H :    0.037368
  32 H :    0.030004
  33 H :    0.016998

  Mayer bond orders larger than 0.100000
B(  0-S ,  1-C ) :   1.1357 B(  0-S ,  4-C ) :   1.1332 B(  1-C ,  2-C ) :   1.6319
B(  1-C , 32-H ) :   0.9541 B(  2-C ,  3-C ) :   1.2142 B(  2-C ,  6-C ) :   1.0202
B(  3-C ,  4-C ) :   1.6074 B(  3-C ,  5-H ) :   0.9989 B(  4-C , 20-C ) :   1.0003
B(  6-C ,  7-H ) :   0.9366 B(  6-C ,  8-H ) :   0.9246 B(  6-C ,  9-C ) :   1.0730
B(  9-C , 10-H ) :   0.9594 B(  9-C , 11-H ) :   0.9427 B(  9-C , 12-C ) :   1.0877
B( 12-C , 13-H ) :   0.9731 B( 12-C , 14-H ) :   0.9712 B( 12-C , 15-H ) :   0.9718
B( 16-S , 17-C ) :   1.1716 B( 16-S , 20-C ) :   1.1606 B( 17-C , 18-C ) :   1.6039
B( 17-C , 33-H ) :   0.9692 B( 18-C , 19-C ) :   1.2330 B( 18-C , 21-H ) :   0.9974
B( 19-C , 20-C ) :   1.6064 B( 19-C , 22-C ) :   1.0492 B( 22-C , 23-H ) :   0.9355
B( 22-C , 24-H ) :   0.9322 B( 22-C , 25-C ) :   1.0475 B( 25-C , 26-H ) :   0.9483
B( 25-C , 27-H ) :   0.9575 B( 25-C , 28-C ) :   1.0795 B( 28-C , 29-H ) :   0.9762
B( 28-C , 30-H ) :   0.9706 B( 28-C , 31-H ) :   0.9728

Dispersion correction           -0.014418439
FINAL SINGLE POINT ENERGY     -1339.866265640514

DIPOLE MOMENT
-------------
                                X             Y             Z
Electronic contribution:     -0.20121      13.63490       8.94002
Nuclear contribution   :      0.32772     -13.99233      -9.01531
                        -----------------------------------------
Total Dipole Moment    :      0.12651      -0.35743      -0.07529
                        -----------------------------------------
Magnitude (a.u.)       :      0.38656
Magnitude (Debye)      :      0.98256

Rotational constants in cm-1:     0.019079     0.008417     0.006669
Rotational constants in MHz :   571.964348   252.332638   199.922051

                             ****ORCA TERMINATED NORMALLY****
TOTAL RUN TIME: 0 days 0 hours 0 minutes 20 seconds 799 msec
