                         Program Version 4.2.1 -  RELEASE  -
|  1> ! wB97X-D3 SP def2-SVP
|  2> %pal
|  3> nprocs 24
|  4> end
|  5>
|  6> * xyz 0 1
|  7> S 	 -136.683 	 7.95184 	 -12.8715
|  8> C 	 -136.71 	 8.34149 	 -11.1482
|  9> C 	 -136.313 	 9.60848 	 -10.9034
| 10> C 	 -135.804 	 10.2073 	 -12.1067
| 11> C 	 -135.987 	 9.47202 	 -13.2312
| 12> H 	 -135.269 	 11.1245 	 -12.2812
| 13> C 	 -136.189 	 10.3011 	 -9.52039
| 14> H 	 -135.15 	 10.2644 	 -9.11815
| 15> H 	 -136.681 	 9.62045 	 -8.86904
| 16> C 	 -136.778 	 11.7289 	 -9.418
| 17> H 	 -136.627 	 12.1467 	 -8.37849
| 18> H 	 -136.19 	 12.1998 	 -10.1747
| 19> C 	 -138.316 	 11.9122 	 -9.74051
| 20> H 	 -138.577 	 11.6839 	 -10.7478
| 21> H 	 -138.868 	 11.2169 	 -9.07475
| 22> H 	 -138.671 	 12.8421 	 -9.54978
| 23> S 	 -135.212 	 11.4648 	 -14.9927
| 24> C 	 -134.514 	 10.9556 	 -16.509
| 25> C 	 -134.645 	 9.58158 	 -16.7799
| 26> C 	 -135.061 	 8.87234 	 -15.6463
| 27> C 	 -135.375 	 9.70035 	 -14.5368
| 28> H 	 -134.349 	 9.11563 	 -17.6982
| 29> C 	 -135.158 	 7.31468 	 -15.5931
| 30> H 	 -136.156 	 6.88461 	 -15.5449
| 31> H 	 -134.738 	 6.95327 	 -14.6368
| 32> C 	 -134.469 	 6.55843 	 -16.7698
| 33> H 	 -133.568 	 7.19715 	 -16.8756
| 34> H 	 -135.142 	 6.68959 	 -17.6038
| 35> C 	 -134.038 	 5.09837 	 -16.561
| 36> H 	 -133.275 	 5.03701 	 -15.8469
| 37> H 	 -133.558 	 4.70259 	 -17.4612
| 38> H 	 -134.96 	 4.49978 	 -16.3172
| 39> H 	 -136.975 	 7.61002 	 -10.3575
| 40> H 	 -134.036 	 11.5455 	 -17.219
| 41> *
| 42>
| 43>                          ****END OF INPUT****

CARTESIAN COORDINATES (ANGSTROEM)
---------------------------------
  S    -136.683000    7.951840  -12.871500
  C    -136.710000    8.341490  -11.148200
  C    -136.313000    9.608480  -10.903400
  C    -135.804000   10.207300  -12.106700
  C    -135.987000    9.472020  -13.231200
  H    -135.269000   11.124500  -12.281200
  C    -136.189000   10.301100   -9.520390
  H    -135.150000   10.264400   -9.118150
  H    -136.681000    9.620450   -8.869040
  C    -136.778000   11.728900   -9.418000
  H    -136.627000   12.146700   -8.378490
  H    -136.190000   12.199800  -10.174700
  C    -138.316000   11.912200   -9.740510
  H    -138.577000   11.683900  -10.747800
  H    -138.868000   11.216900   -9.074750
  H    -138.671000   12.842100   -9.549780
  S    -135.212000   11.464800  -14.992700
  C    -134.514000   10.955600  -16.509000
  C    -134.645000    9.581580  -16.779900
  C    -135.061000    8.872340  -15.646300
  C    -135.375000    9.700350  -14.536800
  H    -134.349000    9.115630  -17.698200
  C    -135.158000    7.314680  -15.593100
  H    -136.156000    6.884610  -15.544900
  H    -134.738000    6.953270  -14.636800
  C    -134.469000    6.558430  -16.769800
  H    -133.568000    7.197150  -16.875600
  H    -135.142000    6.689590  -17.603800
  C    -134.038000    5.098370  -16.561000
  H    -133.275000    5.037010  -15.846900
  H    -133.558000    4.702590  -17.461200
  H    -134.960000    4.499780  -16.317200
  H    -136.975000    7.610020  -10.357500
  H    -134.036000   11.545500  -17.219000

 Total Charge           Charge          ....    0
 Multiplicity           Mult            ....    1
 Number of Electrons    NEL             ....  134
 Basis Dimension        Dim             ....  322

ORBITAL ENERGIES
----------------

  NO   OCC          E(Eh)            E(eV)
   0   2.0000     -88.972072     -2421.0532
   1   2.0000     -88.964187     -2420.8386
   2   2.0000     -10.335266      -281.2369
   3   2.0000     -10.323456      -280.9155
   4   2.0000     -10.317671      -280.7581
   5   2.0000     -10.314818      -280.6805
   6   2.0000     -10.311977      -280.6032
   7   2.0000     -10.303213      -280.3647
   8   2.0000     -10.295287      -280.1490
   9   2.0000     -10.294864      -280.1375
  10   2.0000     -10.294119      -280.1172
  11   2.0000     -10.293055      -280.0883
  12   2.0000     -10.288072      -279.9527
  13   2.0000     -10.287274      -279.9310
  14   2.0000     -10.281653      -279.7780
  15   2.0000     -10.269242      -279.4403
  16   2.0000      -8.085275      -220.0115
  17   2.0000      -8.079207      -219.8464
  18   2.0000      -6.043755      -164.4589
  19   2.0000      -6.040163      -164.3612
  20   2.0000      -6.037740      -164.2953
  21   2.0000      -6.036021      -164.2485
  22   2.0000      -6.033727      -164.1861
  23   2.0000      -6.029855      -164.0807
  24   2.0000      -1.009330       -27.4653
  25   2.0000      -0.981262       -26.7015
  26   2.0000      -0.905965       -24.6526
  27   2.0000      -0.904234       -24.6055
  28   2.0000      -0.868539       -23.6342
  29   2.0000      -0.853696       -23.2302
  30   2.0000      -0.840338       -22.8668
  31   2.0000      -0.812870       -22.1193
  32   2.0000      -0.788703       -21.4617
  33   2.0000      -0.777488       -21.1565
  34   2.0000      -0.709213       -19.2987
  35   2.0000      -0.702373       -19.1125
  36   2.0000      -0.688760       -18.7421
  37   2.0000      -0.662217       -18.0198
  38   2.0000      -0.634491       -17.2654
  39   2.0000      -0.617875       -16.8132
  40   2.0000      -0.601736       -16.3741
  41   2.0000      -0.570121       -15.5138
  42   2.0000      -0.564197       -15.3526
  43   2.0000      -0.546365       -14.8674
  44   2.0000      -0.543391       -14.7864
  45   2.0000      -0.518180       -14.1004
  46   2.0000      -0.516544       -14.0559
  47   2.0000      -0.510663       -13.8958
  48   2.0000      -0.505560       -13.7570
  49   2.0000      -0.492543       -13.4028
  50   2.0000      -0.488522       -13.2933
  51   2.0000      -0.479543       -13.0490
  52   2.0000      -0.473613       -12.8877
  53   2.0000      -0.466784       -12.7019
  54   2.0000      -0.463678       -12.6173
  55   2.0000      -0.456170       -12.4130
  56   2.0000      -0.445977       -12.1357
  57   2.0000      -0.441669       -12.0184
  58   2.0000      -0.430676       -11.7193
  59   2.0000      -0.424178       -11.5425
  60   2.0000      -0.419729       -11.4214
  61   2.0000      -0.412254       -11.2180
  62   2.0000      -0.403042       -10.9673
  63   2.0000      -0.356208        -9.6929
  64   2.0000      -0.338537        -9.2121
  65   2.0000      -0.331659        -9.0249
  66   2.0000      -0.281053        -7.6478
  67   0.0000       0.017503         0.4763
  68   0.0000       0.082264         2.2385
  69   0.0000       0.098686         2.6854
  70   0.0000       0.122654         3.3376
  71   0.0000       0.125471         3.4142

MULLIKEN ATOMIC CHARGES
-----------------------
   0 S :    0.081781
   1 C :   -0.146219
   2 C :   -0.058281
   3 C :   -0.022610
   4 C :   -0.098662
   5 H :    0.010935
   6 C :    0.088154
   7 H :    0.050671
   8 H :   -0.008335
   9 C :   -0.100860
  10 H :    0.047310
  11 H :    0.030514
  12 C :   -0.010382
  13 H :    0.033447
  14 H :    0.023786
  15 H :    0.012743
  16 S :    0.092784
  17 C :   -0.044148
  18 C :   -0.049591
  19 C :   -0.041737
  20 C :   -0.133490
  21 H :    0.019554
  22 C :    0.020298
  23 H :    0.037685
  24 H :    0.034436
  25 C :   -0.126239
  26 H :    0.035194
  27 H :    0.036218
  28 C :   -0.006449
  29 H :    0.023990
  30 H :    0.034479
  31 H :    0.043430
  32 H :    0.058922
  33 H :    0.030673
Sum of atomic charges:   -0.0000000

LOEWDIN ATOMIC CHARGES
----------------------
   0 S :    0.422978
   1 C :   -0.192744
   2 C :   -0.061758
   3 C :   -0.074625
   4 C :   -0.202399
   5 H :    0.021728
   6 C :   -0.030455
   7 H :    0.040828
   8 H :    0.016878
   9 C :   -0.038005
  10 H :    0.034216
  11 H :    0.018671
  12 C :   -0.053810
  13 H :    0.023981
  14 H :    0.028572
  15 H :    0.011171
  16 S :    0.387721
  17 C :   -0.171856
  18 C :   -0.068308
  19 C :   -0.054104
  20 C :   -0.165967
  21 H :    0.031064
  22 C :   -0.047127
  23 H :    0.023460
  24 H :    0.026306
  25 C :   -0.047435
  26 H :    0.025198
  27 H :    0.020110
  28 C :   -0.058771
  29 H :    0.019013
  30 H :    0.031256
  31 H :    0.033084
  32 H :    0.035585
  33 H :    0.015542

  Mayer bond orders larger than 0.100000
B(  0-S ,  1-C ) :   1.1311 B(  0-S ,  4-C ) :   1.1360 B(  1-C ,  2-C ) :   1.6515
B(  1-C , 32-H ) :   0.9587 B(  2-C ,  3-C ) :   1.1971 B(  2-C ,  6-C ) :   1.0129
B(  3-C ,  4-C ) :   1.5983 B(  3-C ,  5-H ) :   0.9865 B(  4-C , 20-C ) :   1.0607
B(  6-C ,  7-H ) :   0.9441 B(  6-C ,  8-H ) :   0.9335 B(  6-C ,  9-C ) :   1.0549
B(  9-C , 10-H ) :   0.9581 B(  9-C , 11-H ) :   0.9611 B(  9-C , 12-C ) :   1.0736
B( 12-C , 13-H ) :   0.9750 B( 12-C , 14-H ) :   0.9761 B( 12-C , 15-H ) :   0.9767
B( 16-S , 17-C ) :   1.1629 B( 16-S , 20-C ) :   1.1247 B( 17-C , 18-C ) :   1.5796
B( 17-C , 20-C ) :   0.1111 B( 17-C , 33-H ) :   0.9680 B( 18-C , 19-C ) :   1.2868
B( 18-C , 21-H ) :   0.9822 B( 19-C , 20-C ) :   1.5696 B( 19-C , 22-C ) :   1.0097
B( 22-C , 23-H ) :   0.9337 B( 22-C , 24-H ) :   0.9405 B( 22-C , 25-C ) :   1.0598
B( 25-C , 26-H ) :   0.9568 B( 25-C , 27-H ) :   0.9531 B( 25-C , 28-C ) :   1.0882
B( 28-C , 29-H ) :   0.9728 B( 28-C , 30-H ) :   0.9705 B( 28-C , 31-H ) :   0.9737

Dispersion correction           -0.013551089
FINAL SINGLE POINT ENERGY     -1339.858720788881

DIPOLE MOMENT
-------------
                                X             Y             Z
Electronic contribution:     -0.32432       6.43051      -5.93106
Nuclear contribution   :      0.55788      -6.62164       6.02001
                        -----------------------------------------
Total Dipole Moment    :      0.23356      -0.19113       0.08895
                        -----------------------------------------
Magnitude (a.u.)       :      0.31463
Magnitude (Debye)      :      0.79972

Rotational constants in cm-1:     0.022915     0.007674     0.006039
Rotational constants in MHz :   686.976306   230.074829   181.034573

                             ****ORCA TERMINATED NORMALLY****
TOTAL RUN TIME: 0 days 0 hours 0 minutes 21 seconds 197 msec
