                         Program Version 4.2.1 -  RELEASE  -
|  1> ! wB97X-D3 SP def2-SVP
|  2> %pal
|  3> nprocs 24
|  4> end
|  5>
|  6> * xyz 0 1
|  7> S 	 -57.1694 	 9.28478 	 -106.284
|  8> C 	 -55.737 	 9.98112 	 -105.677
|  9> C 	 -55.2259 	 9.23967 	 -104.607
| 10> C 	 -55.8503 	 7.94058 	 -104.515
| 11> C 	 -56.9558 	 7.8259 	 -105.326
| 12> H 	 -55.5932 	 7.12128 	 -103.896
| 13> C 	 -54.0052 	 9.67153 	 -103.826
| 14> H 	 -54.1696 	 9.29631 	 -102.781
| 15> H 	 -54.1126 	 10.7081 	 -103.855
| 16> C 	 -52.613 	 9.10928 	 -104.27
| 17> H 	 -52.4321 	 9.48225 	 -105.276
| 18> H 	 -51.8212 	 9.43781 	 -103.623
| 19> C 	 -52.4225 	 7.55805 	 -104.322
| 20> H 	 -53.0808 	 7.19619 	 -105.136
| 21> H 	 -51.3896 	 7.39569 	 -104.686
| 22> H 	 -52.584 	 7.08446 	 -103.371
| 23> S 	 -59.114 	 6.77733 	 -106.733
| 24> C 	 -59.6672 	 5.13776 	 -106.467
| 25> C 	 -58.8189 	 4.4721 	 -105.55
| 26> C 	 -57.6727 	 5.26907 	 -105.151
| 27> C 	 -57.7521 	 6.59679 	 -105.586
| 28> H 	 -58.9768 	 3.43514 	 -105.36
| 29> C 	 -56.6085 	 4.71142 	 -104.184
| 30> H 	 -55.5572 	 4.93181 	 -104.401
| 31> H 	 -56.4649 	 3.71411 	 -104.487
| 32> C 	 -56.9598 	 4.97683 	 -102.684
| 33> H 	 -57.8656 	 4.41893 	 -102.411
| 34> H 	 -57.2447 	 5.97922 	 -102.471
| 35> C 	 -55.95 	 4.53945 	 -101.632
| 36> H 	 -56.2742 	 4.59047 	 -100.554
| 37> H 	 -55.028 	 5.10283 	 -101.621
| 38> H 	 -55.6244 	 3.49779 	 -101.807
| 39> H 	 -55.2512 	 10.9162 	 -106.017
| 40> H 	 -60.6145 	 4.72518 	 -106.886
| 41> *
| 42>
| 43>                          ****END OF INPUT****

CARTESIAN COORDINATES (ANGSTROEM)
---------------------------------
  S    -57.169400    9.284780  -106.284000
  C    -55.737000    9.981120  -105.677000
  C    -55.225900    9.239670  -104.607000
  C    -55.850300    7.940580  -104.515000
  C    -56.955800    7.825900  -105.326000
  H    -55.593200    7.121280  -103.896000
  C    -54.005200    9.671530  -103.826000
  H    -54.169600    9.296310  -102.781000
  H    -54.112600   10.708100  -103.855000
  C    -52.613000    9.109280  -104.270000
  H    -52.432100    9.482250  -105.276000
  H    -51.821200    9.437810  -103.623000
  C    -52.422500    7.558050  -104.322000
  H    -53.080800    7.196190  -105.136000
  H    -51.389600    7.395690  -104.686000
  H    -52.584000    7.084460  -103.371000
  S    -59.114000    6.777330  -106.733000
  C    -59.667200    5.137760  -106.467000
  C    -58.818900    4.472100  -105.550000
  C    -57.672700    5.269070  -105.151000
  C    -57.752100    6.596790  -105.586000
  H    -58.976800    3.435140  -105.360000
  C    -56.608500    4.711420  -104.184000
  H    -55.557200    4.931810  -104.401000
  H    -56.464900    3.714110  -104.487000
  C    -56.959800    4.976830  -102.684000
  H    -57.865600    4.418930  -102.411000
  H    -57.244700    5.979220  -102.471000
  C    -55.950000    4.539450  -101.632000
  H    -56.274200    4.590470  -100.554000
  H    -55.028000    5.102830  -101.621000
  H    -55.624400    3.497790  -101.807000
  H    -55.251200   10.916200  -106.017000
  H    -60.614500    4.725180  -106.886000

 Total Charge           Charge          ....    0
 Multiplicity           Mult            ....    1
 Number of Electrons    NEL             ....  134
 Basis Dimension        Dim             ....  322

ORBITAL ENERGIES
----------------

  NO   OCC          E(Eh)            E(eV)
   0   2.0000     -88.967383     -2420.9256
   1   2.0000     -88.965873     -2420.8845
   2   2.0000     -10.336546      -281.2717
   3   2.0000     -10.332296      -281.1561
   4   2.0000     -10.325686      -280.9762
   5   2.0000     -10.315730      -280.7053
   6   2.0000     -10.312237      -280.6102
   7   2.0000     -10.302527      -280.3460
   8   2.0000     -10.300441      -280.2892
   9   2.0000     -10.297639      -280.2130
  10   2.0000     -10.292015      -280.0600
  11   2.0000     -10.291745      -280.0526
  12   2.0000     -10.289564      -279.9933
  13   2.0000     -10.288844      -279.9737
  14   2.0000     -10.282533      -279.8019
  15   2.0000     -10.282206      -279.7931
  16   2.0000      -8.082655      -219.9402
  17   2.0000      -8.079991      -219.8677
  18   2.0000      -6.041257      -164.3910
  19   2.0000      -6.038608      -164.3189
  20   2.0000      -6.037060      -164.2767
  21   2.0000      -6.034507      -164.2073
  22   2.0000      -6.033318      -164.1749
  23   2.0000      -6.030780      -164.1059
  24   2.0000      -1.005141       -27.3513
  25   2.0000      -0.979869       -26.6636
  26   2.0000      -0.907137       -24.6845
  27   2.0000      -0.905078       -24.6284
  28   2.0000      -0.865570       -23.5534
  29   2.0000      -0.852770       -23.2050
  30   2.0000      -0.844754       -22.9869
  31   2.0000      -0.816454       -22.2168
  32   2.0000      -0.784796       -21.3554
  33   2.0000      -0.770913       -20.9776
  34   2.0000      -0.710324       -19.3289
  35   2.0000      -0.700219       -19.0539
  36   2.0000      -0.693084       -18.8598
  37   2.0000      -0.665478       -18.1086
  38   2.0000      -0.639078       -17.3902
  39   2.0000      -0.617461       -16.8020
  40   2.0000      -0.593986       -16.1632
  41   2.0000      -0.573028       -15.5929
  42   2.0000      -0.557230       -15.1630
  43   2.0000      -0.545324       -14.8390
  44   2.0000      -0.544334       -14.8121
  45   2.0000      -0.530664       -14.4401
  46   2.0000      -0.516374       -14.0512
  47   2.0000      -0.510220       -13.8838
  48   2.0000      -0.503980       -13.7140
  49   2.0000      -0.500011       -13.6060
  50   2.0000      -0.494904       -13.4670
  51   2.0000      -0.480741       -13.0816
  52   2.0000      -0.467161       -12.7121
  53   2.0000      -0.465370       -12.6634
  54   2.0000      -0.454632       -12.3712
  55   2.0000      -0.451486       -12.2856
  56   2.0000      -0.444957       -12.1079
  57   2.0000      -0.439905       -11.9704
  58   2.0000      -0.438955       -11.9446
  59   2.0000      -0.427701       -11.6383
  60   2.0000      -0.416362       -11.3298
  61   2.0000      -0.414612       -11.2822
  62   2.0000      -0.405412       -11.0318
  63   2.0000      -0.362183        -9.8555
  64   2.0000      -0.334777        -9.1097
  65   2.0000      -0.326566        -8.8863
  66   2.0000      -0.280158        -7.6235
  67   0.0000       0.018628         0.5069
  68   0.0000       0.083280         2.2662
  69   0.0000       0.094743         2.5781
  70   0.0000       0.111110         3.0235
  71   0.0000       0.126570         3.4442

MULLIKEN ATOMIC CHARGES
-----------------------
   0 S :    0.112230
   1 C :   -0.127061
   2 C :   -0.114027
   3 C :   -0.002562
   4 C :   -0.083068
   5 H :   -0.011865
   6 C :    0.092399
   7 H :    0.027712
   8 H :    0.013949
   9 C :   -0.063617
  10 H :    0.021539
  11 H :    0.031315
  12 C :   -0.078125
  13 H :    0.049731
  14 H :    0.039200
  15 H :    0.037964
  16 S :    0.082128
  17 C :   -0.106914
  18 C :   -0.024081
  19 C :   -0.075488
  20 C :   -0.105659
  21 H :    0.017175
  22 C :    0.060059
  23 H :    0.021062
  24 H :    0.001102
  25 C :   -0.036369
  26 H :    0.026657
  27 H :    0.028604
  28 C :   -0.066644
  29 H :    0.044052
  30 H :    0.019450
  31 H :    0.027021
  32 H :    0.062209
  33 H :    0.079921
Sum of atomic charges:   -0.0000000

LOEWDIN ATOMIC CHARGES
----------------------
   0 S :    0.415022
   1 C :   -0.215457
   2 C :   -0.063102
   3 C :   -0.059514
   4 C :   -0.185437
   5 H :    0.025516
   6 C :   -0.032832
   7 H :    0.035488
   8 H :    0.022928
   9 C :   -0.035269
  10 H :    0.021716
  11 H :    0.021074
  12 C :   -0.066894
  13 H :    0.029906
  14 H :    0.032299
  15 H :    0.019107
  16 S :    0.383984
  17 C :   -0.192197
  18 C :   -0.068133
  19 C :   -0.057712
  20 C :   -0.172211
  21 H :    0.028211
  22 C :   -0.039076
  23 H :    0.032558
  24 H :    0.027480
  25 C :   -0.040984
  26 H :    0.030800
  27 H :    0.022409
  28 C :   -0.075323
  29 H :    0.035287
  30 H :    0.016615
  31 H :    0.025148
  32 H :    0.038047
  33 H :    0.040546

  Mayer bond orders larger than 0.100000
B(  0-S ,  1-C ) :   1.1531 B(  0-S ,  4-C ) :   1.1358 B(  1-C ,  2-C ) :   1.5959
B(  1-C , 32-H ) :   0.9621 B(  2-C ,  3-C ) :   1.2202 B(  2-C ,  6-C ) :   1.0282
B(  3-C ,  4-C ) :   1.5841 B(  3-C ,  5-H ) :   0.9981 B(  4-C , 20-C ) :   1.0694
B(  6-C ,  7-H ) :   0.9362 B(  6-C ,  8-H ) :   0.9385 B(  6-C ,  9-C ) :   1.0617
B(  9-C , 10-H ) :   0.9561 B(  9-C , 11-H ) :   0.9592 B(  9-C , 12-C ) :   1.0828
B( 12-C , 13-H ) :   0.9728 B( 12-C , 14-H ) :   0.9720 B( 12-C , 15-H ) :   0.9765
B( 16-S , 17-C ) :   1.1568 B( 16-S , 20-C ) :   1.1305 B( 17-C , 18-C ) :   1.6006
B( 17-C , 33-H ) :   0.9630 B( 18-C , 19-C ) :   1.2467 B( 18-C , 21-H ) :   0.9902
B( 19-C , 20-C ) :   1.5895 B( 19-C , 22-C ) :   1.0436 B( 22-C , 23-H ) :   0.9409
B( 22-C , 24-H ) :   0.9187 B( 22-C , 25-C ) :   1.0348 B( 25-C , 26-H ) :   0.9523
B( 25-C , 27-H ) :   0.9612 B( 25-C , 28-C ) :   1.0792 B( 28-C , 29-H ) :   0.9734
B( 28-C , 30-H ) :   0.9746 B( 28-C , 31-H ) :   0.9731

Dispersion correction           -0.014890420
FINAL SINGLE POINT ENERGY     -1339.870623300174

DIPOLE MOMENT
-------------
                                X             Y             Z
Electronic contribution:    -22.76222       9.45069     -19.78711
Nuclear contribution   :     23.27262      -9.78299      20.17402
                        -----------------------------------------
Total Dipole Moment    :      0.51039      -0.33230       0.38692
                        -----------------------------------------
Magnitude (a.u.)       :      0.72155
Magnitude (Debye)      :      1.83403

Rotational constants in cm-1:     0.016911     0.010317     0.006956
Rotational constants in MHz :   506.971060   309.286674   208.548408

                             ****ORCA TERMINATED NORMALLY****
TOTAL RUN TIME: 0 days 0 hours 0 minutes 20 seconds 877 msec
