                         Program Version 4.2.1 -  RELEASE  -
|  1> ! wB97X-D3 SP def2-SVP
|  2> %pal
|  3> nprocs 24
|  4> end
|  5>
|  6> * xyz 0 1
|  7> S 	 -132.496 	 72.5877 	 -67.3923
|  8> C 	 -131.121 	 72.6831 	 -66.3459
|  9> C 	 -131.532 	 72.4933 	 -65.0159
| 10> C 	 -132.866 	 72.0532 	 -64.9245
| 11> C 	 -133.582 	 72.1311 	 -66.118
| 12> H 	 -133.31 	 71.6868 	 -64.0337
| 13> C 	 -130.53 	 72.6168 	 -63.8322
| 14> H 	 -129.493 	 72.5235 	 -64.1217
| 15> H 	 -130.739 	 71.8472 	 -63.1401
| 16> C 	 -130.581 	 74.0092 	 -63.1226
| 17> H 	 -131.584 	 74.2218 	 -62.717
| 18> H 	 -129.878 	 74.0385 	 -62.2425
| 19> C 	 -130.256 	 75.1946 	 -63.946
| 20> H 	 -131.104 	 75.3043 	 -64.6473
| 21> H 	 -129.973 	 76.1027 	 -63.3875
| 22> H 	 -129.471 	 74.9932 	 -64.6829
| 23> S 	 -135.091 	 70.7298 	 -67.8148
| 24> C 	 -136.755 	 71.0417 	 -68.028
| 25> C 	 -137.202 	 71.7319 	 -66.9298
| 26> C 	 -136.239 	 72.1652 	 -66.0067
| 27> C 	 -134.963 	 71.8117 	 -66.4888
| 28> H 	 -138.251 	 71.949 	 -66.9063
| 29> C 	 -136.526 	 72.9646 	 -64.741
| 30> H 	 -135.94 	 72.4807 	 -63.9407
| 31> H 	 -137.536 	 72.6085 	 -64.5634
| 32> C 	 -136.438 	 74.454 	 -64.8538
| 33> H 	 -137.022 	 74.9342 	 -65.6409
| 34> H 	 -135.399 	 74.658 	 -65.1429
| 35> C 	 -136.675 	 75.0684 	 -63.4634
| 36> H 	 -136.633 	 76.1361 	 -63.3817
| 37> H 	 -136.039 	 74.6333 	 -62.7597
| 38> H 	 -137.666 	 74.8326 	 -63.1528
| 39> H 	 -130.152 	 72.9109 	 -66.6246
| 40> H 	 -137.33 	 70.6646 	 -68.8217
| 41> *
| 42>
| 43>                          ****END OF INPUT****

CARTESIAN COORDINATES (ANGSTROEM)
---------------------------------
  S    -132.496000   72.587700  -67.392300
  C    -131.121000   72.683100  -66.345900
  C    -131.532000   72.493300  -65.015900
  C    -132.866000   72.053200  -64.924500
  C    -133.582000   72.131100  -66.118000
  H    -133.310000   71.686800  -64.033700
  C    -130.530000   72.616800  -63.832200
  H    -129.493000   72.523500  -64.121700
  H    -130.739000   71.847200  -63.140100
  C    -130.581000   74.009200  -63.122600
  H    -131.584000   74.221800  -62.717000
  H    -129.878000   74.038500  -62.242500
  C    -130.256000   75.194600  -63.946000
  H    -131.104000   75.304300  -64.647300
  H    -129.973000   76.102700  -63.387500
  H    -129.471000   74.993200  -64.682900
  S    -135.091000   70.729800  -67.814800
  C    -136.755000   71.041700  -68.028000
  C    -137.202000   71.731900  -66.929800
  C    -136.239000   72.165200  -66.006700
  C    -134.963000   71.811700  -66.488800
  H    -138.251000   71.949000  -66.906300
  C    -136.526000   72.964600  -64.741000
  H    -135.940000   72.480700  -63.940700
  H    -137.536000   72.608500  -64.563400
  C    -136.438000   74.454000  -64.853800
  H    -137.022000   74.934200  -65.640900
  H    -135.399000   74.658000  -65.142900
  C    -136.675000   75.068400  -63.463400
  H    -136.633000   76.136100  -63.381700
  H    -136.039000   74.633300  -62.759700
  H    -137.666000   74.832600  -63.152800
  H    -130.152000   72.910900  -66.624600
  H    -137.330000   70.664600  -68.821700

 Total Charge           Charge          ....    0
 Multiplicity           Mult            ....    1
 Number of Electrons    NEL             ....  134
 Basis Dimension        Dim             ....  322

ORBITAL ENERGIES
----------------

  NO   OCC          E(Eh)            E(eV)
   0   2.0000     -88.966624     -2420.9049
   1   2.0000     -88.961840     -2420.7747
   2   2.0000     -10.330966      -281.1199
   3   2.0000     -10.324439      -280.9423
   4   2.0000     -10.310382      -280.5598
   5   2.0000     -10.307597      -280.4840
   6   2.0000     -10.304336      -280.3952
   7   2.0000     -10.302512      -280.3456
   8   2.0000     -10.294253      -280.1209
   9   2.0000     -10.293750      -280.1072
  10   2.0000     -10.292527      -280.0739
  11   2.0000     -10.287783      -279.9448
  12   2.0000     -10.286727      -279.9161
  13   2.0000     -10.285204      -279.8746
  14   2.0000     -10.272837      -279.5381
  15   2.0000     -10.267625      -279.3963
  16   2.0000      -8.081701      -219.9143
  17   2.0000      -8.078126      -219.8170
  18   2.0000      -6.040065      -164.3585
  19   2.0000      -6.036326      -164.2568
  20   2.0000      -6.035920      -164.2457
  21   2.0000      -6.032796      -164.1607
  22   2.0000      -6.032265      -164.1463
  23   2.0000      -6.029253      -164.0643
  24   2.0000      -1.014826       -27.6148
  25   2.0000      -0.990826       -26.9617
  26   2.0000      -0.915945       -24.9241
  27   2.0000      -0.910500       -24.7760
  28   2.0000      -0.870616       -23.6907
  29   2.0000      -0.855353       -23.2753
  30   2.0000      -0.847938       -23.0736
  31   2.0000      -0.816271       -22.2119
  32   2.0000      -0.785584       -21.3768
  33   2.0000      -0.775673       -21.1071
  34   2.0000      -0.712604       -19.3909
  35   2.0000      -0.700098       -19.0506
  36   2.0000      -0.687764       -18.7150
  37   2.0000      -0.662929       -18.0392
  38   2.0000      -0.647058       -17.6074
  39   2.0000      -0.625002       -17.0072
  40   2.0000      -0.600010       -16.3271
  41   2.0000      -0.571822       -15.5601
  42   2.0000      -0.563792       -15.3416
  43   2.0000      -0.551854       -15.0167
  44   2.0000      -0.546584       -14.8733
  45   2.0000      -0.534115       -14.5340
  46   2.0000      -0.519412       -14.1339
  47   2.0000      -0.514999       -14.0138
  48   2.0000      -0.504381       -13.7249
  49   2.0000      -0.504068       -13.7164
  50   2.0000      -0.487957       -13.2780
  51   2.0000      -0.481961       -13.1148
  52   2.0000      -0.476791       -12.9741
  53   2.0000      -0.466138       -12.6843
  54   2.0000      -0.460825       -12.5397
  55   2.0000      -0.452085       -12.3019
  56   2.0000      -0.446882       -12.1603
  57   2.0000      -0.440339       -11.9822
  58   2.0000      -0.437430       -11.9031
  59   2.0000      -0.425109       -11.5678
  60   2.0000      -0.413978       -11.2649
  61   2.0000      -0.410162       -11.1611
  62   2.0000      -0.405059       -11.0222
  63   2.0000      -0.344463        -9.3733
  64   2.0000      -0.334710        -9.1079
  65   2.0000      -0.327900        -8.9226
  66   2.0000      -0.291564        -7.9339
  67   0.0000       0.025882         0.7043
  68   0.0000       0.072920         1.9843
  69   0.0000       0.115467         3.1420
  70   0.0000       0.126661         3.4466
  71   0.0000       0.129554         3.5253

MULLIKEN ATOMIC CHARGES
-----------------------
   0 S :    0.123021
   1 C :   -0.089554
   2 C :   -0.117567
   3 C :    0.054195
   4 C :   -0.150806
   5 H :   -0.003863
   6 C :    0.109896
   7 H :    0.021432
   8 H :    0.018281
   9 C :   -0.099138
  10 H :    0.026825
  11 H :    0.031764
  12 C :   -0.057183
  13 H :    0.037368
  14 H :    0.049606
  15 H :    0.007312
  16 S :    0.117542
  17 C :   -0.074622
  18 C :   -0.055814
  19 C :   -0.016027
  20 C :   -0.189707
  21 H :    0.005832
  22 C :    0.073766
  23 H :    0.028271
  24 H :    0.008106
  25 C :   -0.040641
  26 H :    0.032572
  27 H :    0.031083
  28 C :    0.009179
  29 H :    0.028383
  30 H :    0.011516
  31 H :    0.007944
  32 H :    0.021472
  33 H :    0.039554
Sum of atomic charges:    0.0000000

LOEWDIN ATOMIC CHARGES
----------------------
   0 S :    0.433752
   1 C :   -0.194206
   2 C :   -0.061171
   3 C :   -0.064610
   4 C :   -0.202725
   5 H :    0.025066
   6 C :   -0.018821
   7 H :    0.029007
   8 H :    0.025275
   9 C :   -0.048927
  10 H :    0.022472
  11 H :    0.025227
  12 C :   -0.076283
  13 H :    0.030216
  14 H :    0.032300
  15 H :    0.018268
  16 S :    0.443909
  17 C :   -0.195702
  18 C :   -0.074384
  19 C :   -0.057007
  20 C :   -0.213116
  21 H :    0.026824
  22 C :   -0.030634
  23 H :    0.035348
  24 H :    0.029251
  25 C :   -0.036286
  26 H :    0.028368
  27 H :    0.028405
  28 C :   -0.054951
  29 H :    0.023776
  30 H :    0.017694
  31 H :    0.019899
  32 H :    0.012495
  33 H :    0.021268

  Mayer bond orders larger than 0.100000
B(  0-S ,  1-C ) :   1.1623 B(  0-S ,  4-C ) :   1.1775 B(  1-C ,  2-C ) :   1.5522
B(  1-C ,  4-C ) :   0.1101 B(  1-C , 32-H ) :   0.9822 B(  2-C ,  3-C ) :   1.2819
B(  2-C ,  6-C ) :   1.0203 B(  3-C ,  4-C ) :   1.5312 B(  3-C ,  5-H ) :   1.0021
B(  4-C , 20-C ) :   1.0275 B(  6-C ,  7-H ) :   0.9471 B(  6-C ,  8-H ) :   0.9412
B(  6-C ,  9-C ) :   1.0658 B(  9-C , 10-H ) :   0.9576 B(  9-C , 11-H ) :   0.9585
B(  9-C , 12-C ) :   1.0791 B( 12-C , 13-H ) :   0.9691 B( 12-C , 14-H ) :   0.9725
B( 12-C , 15-H ) :   0.9706 B( 16-S , 17-C ) :   1.1665 B( 16-S , 20-C ) :   1.1979
B( 17-C , 18-C ) :   1.5611 B( 17-C , 20-C ) :   0.1065 B( 17-C , 33-H ) :   0.9796
B( 18-C , 19-C ) :   1.2844 B( 18-C , 21-H ) :   0.9942 B( 19-C , 20-C ) :   1.5219
B( 19-C , 22-C ) :   1.0193 B( 22-C , 23-H ) :   0.9353 B( 22-C , 24-H ) :   0.9236
B( 22-C , 25-C ) :   1.0652 B( 25-C , 26-H ) :   0.9545 B( 25-C , 27-H ) :   0.9537
B( 25-C , 28-C ) :   1.0789 B( 28-C , 29-H ) :   0.9740 B( 28-C , 30-H ) :   0.9722
B( 28-C , 31-H ) :   0.9725

Dispersion correction           -0.014409142
FINAL SINGLE POINT ENERGY     -1339.874643190279

DIPOLE MOMENT
-------------
                                X             Y             Z
Electronic contribution:     -2.52326     -17.85804     -22.78502
Nuclear contribution   :      2.40526      18.03664      23.23556
                        -----------------------------------------
Total Dipole Moment    :     -0.11799       0.17859       0.45054
                        -----------------------------------------
Magnitude (a.u.)       :      0.49880
Magnitude (Debye)      :      1.26786

Rotational constants in cm-1:     0.018635     0.009377     0.006842
Rotational constants in MHz :   558.665271   281.121809   205.132901

                             ****ORCA TERMINATED NORMALLY****
TOTAL RUN TIME: 0 days 0 hours 0 minutes 21 seconds 954 msec
