                         Program Version 4.2.1 -  RELEASE  -
|  1> ! wB97X-D3 SP def2-SVP
|  2> %pal
|  3> nprocs 24
|  4> end
|  5>
|  6> * xyz 0 1
|  7> S 	 -40.1547 	 -42.1049 	 -77.3947
|  8> C 	 -40.6951 	 -40.5735 	 -76.9088
|  9> C 	 -39.8477 	 -39.9856 	 -75.9784
| 10> C 	 -38.7386 	 -40.7951 	 -75.6733
| 11> C 	 -38.6673 	 -41.9472 	 -76.4593
| 12> H 	 -37.8644 	 -40.5501 	 -75.0606
| 13> C 	 -39.9219 	 -38.5407 	 -75.5154
| 14> H 	 -40.8625 	 -38.1294 	 -75.9012
| 15> H 	 -39.1588 	 -37.931 	 -75.9249
| 16> C 	 -39.7667 	 -38.319 	 -73.908
| 17> H 	 -40.4729 	 -38.9892 	 -73.4142
| 18> H 	 -38.7943 	 -38.7703 	 -73.6395
| 19> C 	 -39.9117 	 -36.8457 	 -73.4635
| 20> H 	 -39.2528 	 -36.2224 	 -73.9802
| 21> H 	 -40.8657 	 -36.4274 	 -73.6255
| 22> H 	 -39.7289 	 -36.6416 	 -72.3607
| 23> S 	 -38.1588 	 -44.7167 	 -76.6107
| 24> C 	 -36.6325 	 -45.3983 	 -76.1007
| 25> C 	 -35.6552 	 -44.3969 	 -76.138
| 26> C 	 -36.2485 	 -43.046 	 -76.1217
| 27> C 	 -37.6695 	 -43.0415 	 -76.4119
| 28> H 	 -34.5564 	 -44.5497 	 -75.9264
| 29> C 	 -35.3562 	 -41.7866 	 -75.94
| 30> H 	 -34.4167 	 -42.237 	 -75.7164
| 31> H 	 -35.6479 	 -41.2459 	 -75.0117
| 32> C 	 -35.1767 	 -40.8393 	 -77.1391
| 33> H 	 -36.1311 	 -40.3916 	 -77.5309
| 34> H 	 -34.842 	 -41.5512 	 -77.9213
| 35> C 	 -34.1019 	 -39.799 	 -76.7893
| 36> H 	 -33.1855 	 -40.1871 	 -76.4736
| 37> H 	 -34.432 	 -39.1312 	 -76.0085
| 38> H 	 -33.8501 	 -39.1799 	 -77.6868
| 39> H 	 -41.5214 	 -40.0954 	 -77.2984
| 40> H 	 -36.4534 	 -46.4816 	 -76.241
| 41> *
| 42>
| 43>                          ****END OF INPUT****

CARTESIAN COORDINATES (ANGSTROEM)
---------------------------------
  S    -40.154700  -42.104900  -77.394700
  C    -40.695100  -40.573500  -76.908800
  C    -39.847700  -39.985600  -75.978400
  C    -38.738600  -40.795100  -75.673300
  C    -38.667300  -41.947200  -76.459300
  H    -37.864400  -40.550100  -75.060600
  C    -39.921900  -38.540700  -75.515400
  H    -40.862500  -38.129400  -75.901200
  H    -39.158800  -37.931000  -75.924900
  C    -39.766700  -38.319000  -73.908000
  H    -40.472900  -38.989200  -73.414200
  H    -38.794300  -38.770300  -73.639500
  C    -39.911700  -36.845700  -73.463500
  H    -39.252800  -36.222400  -73.980200
  H    -40.865700  -36.427400  -73.625500
  H    -39.728900  -36.641600  -72.360700
  S    -38.158800  -44.716700  -76.610700
  C    -36.632500  -45.398300  -76.100700
  C    -35.655200  -44.396900  -76.138000
  C    -36.248500  -43.046000  -76.121700
  C    -37.669500  -43.041500  -76.411900
  H    -34.556400  -44.549700  -75.926400
  C    -35.356200  -41.786600  -75.940000
  H    -34.416700  -42.237000  -75.716400
  H    -35.647900  -41.245900  -75.011700
  C    -35.176700  -40.839300  -77.139100
  H    -36.131100  -40.391600  -77.530900
  H    -34.842000  -41.551200  -77.921300
  C    -34.101900  -39.799000  -76.789300
  H    -33.185500  -40.187100  -76.473600
  H    -34.432000  -39.131200  -76.008500
  H    -33.850100  -39.179900  -77.686800
  H    -41.521400  -40.095400  -77.298400
  H    -36.453400  -46.481600  -76.241000

 Total Charge           Charge          ....    0
 Multiplicity           Mult            ....    1
 Number of Electrons    NEL             ....  134
 Basis Dimension        Dim             ....  322

ORBITAL ENERGIES
----------------

  NO   OCC          E(Eh)            E(eV)
   0   2.0000     -88.969437     -2420.9815
   1   2.0000     -88.965737     -2420.8808
   2   2.0000     -10.338199      -281.3167
   3   2.0000     -10.336589      -281.2729
   4   2.0000     -10.324701      -280.9494
   5   2.0000     -10.314951      -280.6841
   6   2.0000     -10.309387      -280.5327
   7   2.0000     -10.309089      -280.5246
   8   2.0000     -10.301507      -280.3183
   9   2.0000     -10.296265      -280.1756
  10   2.0000     -10.296181      -280.1733
  11   2.0000     -10.295522      -280.1554
  12   2.0000     -10.294800      -280.1357
  13   2.0000     -10.292002      -280.0596
  14   2.0000     -10.278642      -279.6961
  15   2.0000     -10.276828      -279.6467
  16   2.0000      -8.084856      -220.0001
  17   2.0000      -8.080397      -219.8788
  18   2.0000      -6.043244      -164.4450
  19   2.0000      -6.039189      -164.3347
  20   2.0000      -6.039029      -164.3303
  21   2.0000      -6.035797      -164.2424
  22   2.0000      -6.034750      -164.2139
  23   2.0000      -6.031198      -164.1173
  24   2.0000      -1.007036       -27.4028
  25   2.0000      -0.982025       -26.7222
  26   2.0000      -0.906339       -24.6627
  27   2.0000      -0.901137       -24.5212
  28   2.0000      -0.867635       -23.6095
  29   2.0000      -0.853193       -23.2166
  30   2.0000      -0.843348       -22.9487
  31   2.0000      -0.814972       -22.1765
  32   2.0000      -0.780387       -21.2354
  33   2.0000      -0.769699       -20.9446
  34   2.0000      -0.712612       -19.3912
  35   2.0000      -0.703380       -19.1399
  36   2.0000      -0.690695       -18.7948
  37   2.0000      -0.661048       -17.9880
  38   2.0000      -0.643259       -17.5040
  39   2.0000      -0.620164       -16.8755
  40   2.0000      -0.590605       -16.0712
  41   2.0000      -0.568715       -15.4755
  42   2.0000      -0.563273       -15.3274
  43   2.0000      -0.552283       -15.0284
  44   2.0000      -0.520328       -14.1589
  45   2.0000      -0.516762       -14.0618
  46   2.0000      -0.512553       -13.9473
  47   2.0000      -0.510092       -13.8803
  48   2.0000      -0.506470       -13.7818
  49   2.0000      -0.501558       -13.6481
  50   2.0000      -0.492692       -13.4068
  51   2.0000      -0.485645       -13.2151
  52   2.0000      -0.477812       -13.0019
  53   2.0000      -0.466611       -12.6971
  54   2.0000      -0.463388       -12.6094
  55   2.0000      -0.450831       -12.2677
  56   2.0000      -0.449002       -12.2180
  57   2.0000      -0.437606       -11.9079
  58   2.0000      -0.432553       -11.7704
  59   2.0000      -0.425578       -11.5806
  60   2.0000      -0.420756       -11.4493
  61   2.0000      -0.420097       -11.4314
  62   2.0000      -0.407602       -11.0914
  63   2.0000      -0.359175        -9.7736
  64   2.0000      -0.334761        -9.1093
  65   2.0000      -0.324597        -8.8327
  66   2.0000      -0.283954        -7.7268
  67   0.0000       0.018271         0.4972
  68   0.0000       0.071337         1.9412
  69   0.0000       0.105341         2.8665
  70   0.0000       0.113393         3.0856
  71   0.0000       0.131682         3.5832

MULLIKEN ATOMIC CHARGES
-----------------------
   0 S :    0.116272
   1 C :   -0.078432
   2 C :   -0.064098
   3 C :    0.012871
   4 C :   -0.151555
   5 H :    0.015565
   6 C :    0.057995
   7 H :    0.013475
   8 H :    0.031761
   9 C :   -0.101422
  10 H :    0.034678
  11 H :    0.032022
  12 C :   -0.020138
  13 H :    0.013269
  14 H :    0.021230
  15 H :    0.042138
  16 S :    0.089578
  17 C :   -0.104230
  18 C :   -0.040483
  19 C :   -0.107049
  20 C :   -0.104556
  21 H :    0.051980
  22 C :    0.037625
  23 H :   -0.002845
  24 H :    0.037877
  25 C :   -0.071338
  26 H :    0.053460
  27 H :    0.032582
  28 C :   -0.024946
  29 H :    0.013166
  30 H :    0.025873
  31 H :    0.038421
  32 H :    0.016383
  33 H :    0.082870
Sum of atomic charges:    0.0000000

LOEWDIN ATOMIC CHARGES
----------------------
   0 S :    0.427040
   1 C :   -0.197617
   2 C :   -0.065914
   3 C :   -0.062904
   4 C :   -0.185586
   5 H :    0.033933
   6 C :   -0.024526
   7 H :    0.025904
   8 H :    0.024788
   9 C :   -0.037143
  10 H :    0.023628
  11 H :    0.022638
  12 C :   -0.065639
  13 H :    0.016267
  14 H :    0.020547
  15 H :    0.037747
  16 S :    0.405837
  17 C :   -0.198594
  18 C :   -0.077985
  19 C :   -0.058455
  20 C :   -0.199380
  21 H :    0.041432
  22 C :   -0.038077
  23 H :    0.023306
  24 H :    0.028050
  25 C :   -0.042636
  26 H :    0.032069
  27 H :    0.029490
  28 C :   -0.062557
  29 H :    0.015688
  30 H :    0.023976
  31 H :    0.033121
  32 H :    0.013874
  33 H :    0.037678

  Mayer bond orders larger than 0.100000
B(  0-S ,  1-C ) :   1.1613 B(  0-S ,  4-C ) :   1.1591 B(  1-C ,  2-C ) :   1.5803
B(  1-C ,  4-C ) :   0.1001 B(  1-C , 32-H ) :   0.9762 B(  2-C ,  3-C ) :   1.2585
B(  2-C ,  6-C ) :   1.0318 B(  3-C ,  4-C ) :   1.5561 B(  3-C ,  5-H ) :   0.9851
B(  4-C , 20-C ) :   1.0669 B(  6-C ,  7-H ) :   0.9450 B(  6-C ,  8-H ) :   0.9461
B(  6-C ,  9-C ) :   1.0360 B(  9-C , 10-H ) :   0.9633 B(  9-C , 11-H ) :   0.9584
B(  9-C , 12-C ) :   1.0749 B( 12-C , 13-H ) :   0.9738 B( 12-C , 14-H ) :   0.9759
B( 12-C , 15-H ) :   0.9739 B( 16-S , 17-C ) :   1.1690 B( 16-S , 20-C ) :   1.1489
B( 17-C , 18-C ) :   1.5754 B( 17-C , 20-C ) :   0.1035 B( 17-C , 33-H ) :   0.9591
B( 18-C , 19-C ) :   1.2866 B( 18-C , 21-H ) :   0.9679 B( 19-C , 20-C ) :   1.5349
B( 19-C , 22-C ) :   1.0399 B( 22-C , 23-H ) :   0.9311 B( 22-C , 24-H ) :   0.9340
B( 22-C , 25-C ) :   1.0539 B( 25-C , 26-H ) :   0.9563 B( 25-C , 27-H ) :   0.9526
B( 25-C , 28-C ) :   1.0764 B( 28-C , 29-H ) :   0.9744 B( 28-C , 30-H ) :   0.9745
B( 28-C , 31-H ) :   0.9735

Dispersion correction           -0.013819194
FINAL SINGLE POINT ENERGY     -1339.868697728210

DIPOLE MOMENT
-------------
                                X             Y             Z
Electronic contribution:    -12.10986     -27.82017     -10.28431
Nuclear contribution   :     12.55040      28.37803      10.41195
                        -----------------------------------------
Total Dipole Moment    :      0.44053       0.55787       0.12764
                        -----------------------------------------
Magnitude (a.u.)       :      0.72220
Magnitude (Debye)      :      1.83570

Rotational constants in cm-1:     0.016946     0.008667     0.006548
Rotational constants in MHz :   508.023122   259.829208   196.303620

                             ****ORCA TERMINATED NORMALLY****
TOTAL RUN TIME: 0 days 0 hours 0 minutes 21 seconds 296 msec
