                         Program Version 4.2.1 -  RELEASE  -
|  1> ! wB97X-D3 SP def2-SVP
|  2> %pal
|  3> nprocs 24
|  4> end
|  5>
|  6> * xyz 0 1
|  7> S 	 -103.985 	 47.3539 	 -97.1376
|  8> C 	 -104.804 	 48.8722 	 -96.8339
|  9> C 	 -104.385 	 49.7845 	 -97.7044
| 10> C 	 -103.428 	 49.3264 	 -98.6323
| 11> C 	 -103.079 	 47.9995 	 -98.5167
| 12> H 	 -103.02 	 49.8927 	 -99.4619
| 13> C 	 -104.793 	 51.2123 	 -97.842
| 14> H 	 -105.781 	 51.257 	 -97.3796
| 15> H 	 -104.872 	 51.4221 	 -98.896
| 16> C 	 -103.834 	 52.2222 	 -97.183
| 17> H 	 -102.886 	 52.1996 	 -97.7323
| 18> H 	 -104.343 	 53.201 	 -97.4056
| 19> C 	 -103.663 	 52.1795 	 -95.6467
| 20> H 	 -104.296 	 52.9328 	 -95.1604
| 21> H 	 -103.865 	 51.2134 	 -95.2147
| 22> H 	 -102.633 	 52.4371 	 -95.3912
| 23> S 	 -102.877 	 45.7226 	 -100.06
| 24> C 	 -101.56 	 45.5426 	 -101.237
| 25> C 	 -100.663 	 46.5626 	 -100.968
| 26> C 	 -101.087 	 47.6137 	 -100.053
| 27> C 	 -102.258 	 47.2665 	 -99.4362
| 28> H 	 -99.7361 	 46.6373 	 -101.541
| 29> C 	 -100.21 	 48.7718 	 -99.7815
| 30> H 	 -100.606 	 49.2069 	 -98.8473
| 31> H 	 -100.37 	 49.5165 	 -100.581
| 32> C 	 -98.7016 	 48.5508 	 -99.6126
| 33> H 	 -98.2416 	 49.5396 	 -99.7362
| 34> H 	 -98.3294 	 47.9057 	 -100.43
| 35> C 	 -98.3534 	 47.9769 	 -98.3183
| 36> H 	 -98.9026 	 47.096 	 -98.1995
| 37> H 	 -98.6286 	 48.6127 	 -97.4894
| 38> H 	 -97.2699 	 47.809 	 -98.2832
| 39> H 	 -105.398 	 49.1468 	 -95.9607
| 40> H 	 -101.436 	 44.6612 	 -101.843
| 41> *
| 42>
| 43>                          ****END OF INPUT****

CARTESIAN COORDINATES (ANGSTROEM)
---------------------------------
  S    -103.985000   47.353900  -97.137600
  C    -104.804000   48.872200  -96.833900
  C    -104.385000   49.784500  -97.704400
  C    -103.428000   49.326400  -98.632300
  C    -103.079000   47.999500  -98.516700
  H    -103.020000   49.892700  -99.461900
  C    -104.793000   51.212300  -97.842000
  H    -105.781000   51.257000  -97.379600
  H    -104.872000   51.422100  -98.896000
  C    -103.834000   52.222200  -97.183000
  H    -102.886000   52.199600  -97.732300
  H    -104.343000   53.201000  -97.405600
  C    -103.663000   52.179500  -95.646700
  H    -104.296000   52.932800  -95.160400
  H    -103.865000   51.213400  -95.214700
  H    -102.633000   52.437100  -95.391200
  S    -102.877000   45.722600  -100.060000
  C    -101.560000   45.542600  -101.237000
  C    -100.663000   46.562600  -100.968000
  C    -101.087000   47.613700  -100.053000
  C    -102.258000   47.266500  -99.436200
  H    -99.736100   46.637300  -101.541000
  C    -100.210000   48.771800  -99.781500
  H    -100.606000   49.206900  -98.847300
  H    -100.370000   49.516500  -100.581000
  C    -98.701600   48.550800  -99.612600
  H    -98.241600   49.539600  -99.736200
  H    -98.329400   47.905700  -100.430000
  C    -98.353400   47.976900  -98.318300
  H    -98.902600   47.096000  -98.199500
  H    -98.628600   48.612700  -97.489400
  H    -97.269900   47.809000  -98.283200
  H    -105.398000   49.146800  -95.960700
  H    -101.436000   44.661200  -101.843000

 Total Charge           Charge          ....    0
 Multiplicity           Mult            ....    1
 Number of Electrons    NEL             ....  134
 Basis Dimension        Dim             ....  322

ORBITAL ENERGIES
----------------

  NO   OCC          E(Eh)            E(eV)
   0   2.0000     -88.964449     -2420.8457
   1   2.0000     -88.960910     -2420.7494
   2   2.0000     -10.330123      -281.0969
   3   2.0000     -10.329005      -281.0665
   4   2.0000     -10.323046      -280.9044
   5   2.0000     -10.311094      -280.5791
   6   2.0000     -10.303215      -280.3647
   7   2.0000     -10.298000      -280.2228
   8   2.0000     -10.292395      -280.0703
   9   2.0000     -10.291219      -280.0383
  10   2.0000     -10.288969      -279.9771
  11   2.0000     -10.288628      -279.9678
  12   2.0000     -10.288049      -279.9520
  13   2.0000     -10.284480      -279.8549
  14   2.0000     -10.278965      -279.7049
  15   2.0000     -10.265181      -279.3298
  16   2.0000      -8.078867      -219.8372
  17   2.0000      -8.075284      -219.7396
  18   2.0000      -6.037596      -164.2913
  19   2.0000      -6.033996      -164.1934
  20   2.0000      -6.033351      -164.1758
  21   2.0000      -6.029786      -164.0788
  22   2.0000      -6.029451      -164.0697
  23   2.0000      -6.025876      -163.9724
  24   2.0000      -1.009866       -27.4798
  25   2.0000      -0.986391       -26.8411
  26   2.0000      -0.920114       -25.0376
  27   2.0000      -0.912431       -24.8285
  28   2.0000      -0.875927       -23.8352
  29   2.0000      -0.854554       -23.2536
  30   2.0000      -0.844414       -22.9777
  31   2.0000      -0.815233       -22.1836
  32   2.0000      -0.784371       -21.3438
  33   2.0000      -0.779528       -21.2120
  34   2.0000      -0.712800       -19.3963
  35   2.0000      -0.701381       -19.0856
  36   2.0000      -0.696559       -18.9543
  37   2.0000      -0.658450       -17.9173
  38   2.0000      -0.638688       -17.3796
  39   2.0000      -0.620178       -16.8759
  40   2.0000      -0.603155       -16.4127
  41   2.0000      -0.569329       -15.4922
  42   2.0000      -0.563325       -15.3288
  43   2.0000      -0.548894       -14.9362
  44   2.0000      -0.543694       -14.7947
  45   2.0000      -0.538702       -14.6588
  46   2.0000      -0.529696       -14.4138
  47   2.0000      -0.520911       -14.1747
  48   2.0000      -0.509632       -13.8678
  49   2.0000      -0.499015       -13.5789
  50   2.0000      -0.493158       -13.4195
  51   2.0000      -0.483087       -13.1455
  52   2.0000      -0.471828       -12.8391
  53   2.0000      -0.464409       -12.6372
  54   2.0000      -0.460921       -12.5423
  55   2.0000      -0.443158       -12.0589
  56   2.0000      -0.441340       -12.0095
  57   2.0000      -0.437005       -11.8915
  58   2.0000      -0.433670       -11.8008
  59   2.0000      -0.428389       -11.6570
  60   2.0000      -0.420238       -11.4353
  61   2.0000      -0.410395       -11.1674
  62   2.0000      -0.406387       -11.0584
  63   2.0000      -0.357607        -9.7310
  64   2.0000      -0.329643        -8.9700
  65   2.0000      -0.325820        -8.8660
  66   2.0000      -0.294484        -8.0133
  67   0.0000       0.026904         0.7321
  68   0.0000       0.073246         1.9931
  69   0.0000       0.117554         3.1988
  70   0.0000       0.123041         3.3481
  71   0.0000       0.129835         3.5330

MULLIKEN ATOMIC CHARGES
-----------------------
   0 S :    0.099407
   1 C :   -0.121180
   2 C :   -0.080273
   3 C :    0.002923
   4 C :   -0.140682
   5 H :    0.011518
   6 C :    0.077813
   7 H :    0.014163
   8 H :    0.027407
   9 C :   -0.091562
  10 H :    0.032499
  11 H :    0.037610
  12 C :   -0.034823
  13 H :    0.035207
  14 H :    0.026985
  15 H :    0.032516
  16 S :    0.084369
  17 C :   -0.090605
  18 C :   -0.038642
  19 C :   -0.049496
  20 C :   -0.139289
  21 H :    0.024208
  22 C :    0.029857
  23 H :    0.024257
  24 H :    0.041391
  25 C :   -0.062900
  26 H :    0.024657
  27 H :    0.025950
  28 C :   -0.002547
  29 H :    0.022894
  30 H :    0.022207
  31 H :    0.035980
  32 H :    0.051181
  33 H :    0.067001
Sum of atomic charges:   -0.0000000

LOEWDIN ATOMIC CHARGES
----------------------
   0 S :    0.390475
   1 C :   -0.196405
   2 C :   -0.076127
   3 C :   -0.061776
   4 C :   -0.184191
   5 H :    0.030018
   6 C :   -0.028512
   7 H :    0.027518
   8 H :    0.032474
   9 C :   -0.042178
  10 H :    0.022577
  11 H :    0.031594
  12 C :   -0.067040
  13 H :    0.028801
  14 H :    0.020505
  15 H :    0.030662
  16 S :    0.377426
  17 C :   -0.173029
  18 C :   -0.070657
  19 C :   -0.062037
  20 C :   -0.184963
  21 H :    0.028017
  22 C :   -0.038793
  23 H :    0.032662
  24 H :    0.036407
  25 C :   -0.040238
  26 H :    0.026477
  27 H :    0.023433
  28 C :   -0.057859
  29 H :    0.021177
  30 H :    0.024981
  31 H :    0.030403
  32 H :    0.036038
  33 H :    0.032161

  Mayer bond orders larger than 0.100000
B(  0-S ,  1-C ) :   1.1125 B(  0-S ,  4-C ) :   1.1351 B(  1-C ,  2-C ) :   1.6445
B(  1-C , 32-H ) :   0.9603 B(  2-C ,  3-C ) :   1.2309 B(  2-C ,  6-C ) :   1.0199
B(  3-C ,  4-C ) :   1.5680 B(  3-C ,  5-H ) :   0.9958 B(  4-C , 20-C ) :   1.0675
B(  6-C ,  7-H ) :   0.9384 B(  6-C ,  8-H ) :   0.9376 B(  6-C ,  9-C ) :   1.0773
B(  9-C , 10-H ) :   0.9605 B(  9-C , 11-H ) :   0.9610 B(  9-C , 12-C ) :   1.0584
B( 12-C , 13-H ) :   0.9783 B( 12-C , 14-H ) :   0.9800 B( 12-C , 15-H ) :   0.9754
B( 16-S , 17-C ) :   1.1354 B( 16-S , 20-C ) :   1.1232 B( 17-C , 18-C ) :   1.6210
B( 17-C , 33-H ) :   0.9722 B( 18-C , 19-C ) :   1.2115 B( 18-C , 21-H ) :   0.9807
B( 19-C , 20-C ) :   1.6073 B( 19-C , 22-C ) :   1.0552 B( 22-C , 23-H ) :   0.9320
B( 22-C , 24-H ) :   0.9183 B( 22-C , 25-C ) :   1.0813 B( 25-C , 26-H ) :   0.9457
B( 25-C , 27-H ) :   0.9483 B( 25-C , 28-C ) :   1.0943 B( 28-C , 29-H ) :   0.9732
B( 28-C , 30-H ) :   0.9671 B( 28-C , 31-H ) :   0.9690

Dispersion correction           -0.014398716
FINAL SINGLE POINT ENERGY     -1339.885976414070

DIPOLE MOMENT
-------------
                                X             Y             Z
Electronic contribution:    -12.82903     -22.81981      -5.80804
Nuclear contribution   :     13.21274      23.50422       5.66423
                        -----------------------------------------
Total Dipole Moment    :      0.38371       0.68440      -0.14380
                        -----------------------------------------
Magnitude (a.u.)       :      0.79770
Magnitude (Debye)      :      2.02758

Rotational constants in cm-1:     0.019403     0.008818     0.006958
Rotational constants in MHz :   581.677907   264.371957   208.589429

                             ****ORCA TERMINATED NORMALLY****
TOTAL RUN TIME: 0 days 0 hours 0 minutes 22 seconds 27 msec
