                         Program Version 4.2.1 -  RELEASE  -
|  1> ! wB97X-D3 SP def2-SVP
|  2> %pal
|  3> nprocs 24
|  4> end
|  5>
|  6> * xyz 0 1
|  7> S 	 -30.6272 	 15.6278 	 9.726
|  8> C 	 -31.1352 	 14.1297 	 9.11283
|  9> C 	 -30.12 	 13.1734 	 9.00621
| 10> C 	 -28.8351 	 13.729 	 9.35933
| 11> C 	 -28.9689 	 15.0898 	 9.71233
| 12> H 	 -27.7889 	 13.3827 	 9.4205
| 13> C 	 -30.179 	 11.7813 	 8.47483
| 14> H 	 -29.2487 	 11.5873 	 7.90067
| 15> H 	 -30.964 	 11.8274 	 7.65909
| 16> C 	 -30.6104 	 10.724 	 9.46745
| 17> H 	 -30.2551 	 11.1284 	 10.4871
| 18> H 	 -31.6928 	 10.5694 	 9.49612
| 19> C 	 -29.8784 	 9.33976 	 9.12837
| 20> H 	 -28.9057 	 9.4232 	 8.70475
| 21> H 	 -29.6765 	 8.68329 	 10.0252
| 22> H 	 -30.5305 	 8.81745 	 8.35253
| 23> S 	 -27.099 	 16.6832 	 8.55583
| 24> C 	 -25.9496 	 17.4905 	 9.68313
| 25> C 	 -26.0844 	 17.11 	 11.0328
| 26> C 	 -27.2316 	 16.293 	 11.2446
| 27> C 	 -27.8866 	 16.0095 	 10.0394
| 28> H 	 -25.4074 	 17.6088 	 11.7888
| 29> C 	 -27.4945 	 15.5957 	 12.6341
| 30> H 	 -26.7129 	 15.7902 	 13.3741
| 31> H 	 -27.4907 	 14.4945 	 12.5245
| 32> C 	 -28.8057 	 16.2009 	 13.2511
| 33> H 	 -29.6567 	 15.9402 	 12.6494
| 34> H 	 -28.7626 	 17.3074 	 13.3176
| 35> C 	 -29.1419 	 15.6258 	 14.6151
| 36> H 	 -29.3566 	 14.5373 	 14.4999
| 37> H 	 -30.0494 	 16.2186 	 14.9392
| 38> H 	 -28.3272 	 15.814 	 15.3579
| 39> H 	 -32.235 	 13.944 	 9.00278
| 40> H 	 -25.3568 	 18.3096 	 9.24099
| 41> *
| 42>
| 43>                          ****END OF INPUT****

CARTESIAN COORDINATES (ANGSTROEM)
---------------------------------
  S    -30.627200   15.627800    9.726000
  C    -31.135200   14.129700    9.112830
  C    -30.120000   13.173400    9.006210
  C    -28.835100   13.729000    9.359330
  C    -28.968900   15.089800    9.712330
  H    -27.788900   13.382700    9.420500
  C    -30.179000   11.781300    8.474830
  H    -29.248700   11.587300    7.900670
  H    -30.964000   11.827400    7.659090
  C    -30.610400   10.724000    9.467450
  H    -30.255100   11.128400   10.487100
  H    -31.692800   10.569400    9.496120
  C    -29.878400    9.339760    9.128370
  H    -28.905700    9.423200    8.704750
  H    -29.676500    8.683290   10.025200
  H    -30.530500    8.817450    8.352530
  S    -27.099000   16.683200    8.555830
  C    -25.949600   17.490500    9.683130
  C    -26.084400   17.110000   11.032800
  C    -27.231600   16.293000   11.244600
  C    -27.886600   16.009500   10.039400
  H    -25.407400   17.608800   11.788800
  C    -27.494500   15.595700   12.634100
  H    -26.712900   15.790200   13.374100
  H    -27.490700   14.494500   12.524500
  C    -28.805700   16.200900   13.251100
  H    -29.656700   15.940200   12.649400
  H    -28.762600   17.307400   13.317600
  C    -29.141900   15.625800   14.615100
  H    -29.356600   14.537300   14.499900
  H    -30.049400   16.218600   14.939200
  H    -28.327200   15.814000   15.357900
  H    -32.235000   13.944000    9.002780
  H    -25.356800   18.309600    9.240990

 Total Charge           Charge          ....    0
 Multiplicity           Mult            ....    1
 Number of Electrons    NEL             ....  134
 Basis Dimension        Dim             ....  322

ORBITAL ENERGIES
----------------

  NO   OCC          E(Eh)            E(eV)
   0   2.0000     -88.967177     -2420.9200
   1   2.0000     -88.965941     -2420.8863
   2   2.0000     -10.328397      -281.0500
   3   2.0000     -10.325067      -280.9594
   4   2.0000     -10.323360      -280.9129
   5   2.0000     -10.314768      -280.6791
   6   2.0000     -10.312185      -280.6088
   7   2.0000     -10.304087      -280.3885
   8   2.0000     -10.304061      -280.3878
   9   2.0000     -10.300841      -280.3001
  10   2.0000     -10.298225      -280.2290
  11   2.0000     -10.297453      -280.2079
  12   2.0000     -10.292446      -280.0717
  13   2.0000     -10.287900      -279.9480
  14   2.0000     -10.282528      -279.8018
  15   2.0000     -10.282302      -279.7957
  16   2.0000      -8.082581      -219.9382
  17   2.0000      -8.079288      -219.8486
  18   2.0000      -6.040769      -164.3777
  19   2.0000      -6.037614      -164.2918
  20   2.0000      -6.036945      -164.2736
  21   2.0000      -6.034262      -164.2006
  22   2.0000      -6.033698      -164.1853
  23   2.0000      -6.030044      -164.0858
  24   2.0000      -1.001771       -27.2596
  25   2.0000      -0.974219       -26.5099
  26   2.0000      -0.909091       -24.7376
  27   2.0000      -0.899525       -24.4773
  28   2.0000      -0.861930       -23.4543
  29   2.0000      -0.846699       -23.0399
  30   2.0000      -0.846125       -23.0242
  31   2.0000      -0.802371       -21.8336
  32   2.0000      -0.777370       -21.1533
  33   2.0000      -0.761914       -20.7327
  34   2.0000      -0.700951       -19.0738
  35   2.0000      -0.692234       -18.8367
  36   2.0000      -0.681787       -18.5524
  37   2.0000      -0.656147       -17.8547
  38   2.0000      -0.647675       -17.6241
  39   2.0000      -0.606463       -16.5027
  40   2.0000      -0.590110       -16.0577
  41   2.0000      -0.564276       -15.3547
  42   2.0000      -0.558859       -15.2073
  43   2.0000      -0.553248       -15.0546
  44   2.0000      -0.522849       -14.2274
  45   2.0000      -0.519599       -14.1390
  46   2.0000      -0.511779       -13.9262
  47   2.0000      -0.508236       -13.8298
  48   2.0000      -0.498061       -13.5529
  49   2.0000      -0.492397       -13.3988
  50   2.0000      -0.486222       -13.2308
  51   2.0000      -0.475581       -12.9412
  52   2.0000      -0.463194       -12.6042
  53   2.0000      -0.461562       -12.5597
  54   2.0000      -0.455318       -12.3898
  55   2.0000      -0.445456       -12.1215
  56   2.0000      -0.443192       -12.0599
  57   2.0000      -0.441199       -12.0056
  58   2.0000      -0.432552       -11.7703
  59   2.0000      -0.421571       -11.4715
  60   2.0000      -0.416522       -11.3341
  61   2.0000      -0.410908       -11.1814
  62   2.0000      -0.406861       -11.0713
  63   2.0000      -0.339387        -9.2352
  64   2.0000      -0.329967        -8.9788
  65   2.0000      -0.314075        -8.5464
  66   2.0000      -0.303364        -8.2550
  67   0.0000       0.039827         1.0837
  68   0.0000       0.048962         1.3323
  69   0.0000       0.094765         2.5787
  70   0.0000       0.119767         3.2590
  71   0.0000       0.125309         3.4098

MULLIKEN ATOMIC CHARGES
-----------------------
   0 S :    0.136597
   1 C :   -0.135840
   2 C :   -0.085164
   3 C :    0.042771
   4 C :   -0.208441
   5 H :    0.028794
   6 C :    0.037371
   7 H :    0.041016
   8 H :    0.029994
   9 C :   -0.072282
  10 H :    0.046624
  11 H :    0.045429
  12 C :   -0.093667
  13 H :    0.026547
  14 H :    0.046420
  15 H :    0.045106
  16 S :    0.096803
  17 C :   -0.120264
  18 C :   -0.052177
  19 C :    0.015624
  20 C :   -0.200971
  21 H :    0.049988
  22 C :    0.071535
  23 H :    0.016883
  24 H :    0.042025
  25 C :   -0.108202
  26 H :    0.026909
  27 H :    0.037217
  28 C :   -0.066811
  29 H :    0.044141
  30 H :    0.043503
  31 H :    0.034646
  32 H :    0.065067
  33 H :    0.072810
Sum of atomic charges:   -0.0000000

LOEWDIN ATOMIC CHARGES
----------------------
   0 S :    0.441584
   1 C :   -0.224993
   2 C :   -0.067148
   3 C :   -0.063086
   4 C :   -0.213181
   5 H :    0.042277
   6 C :   -0.045808
   7 H :    0.035950
   8 H :    0.037010
   9 C :   -0.042073
  10 H :    0.031040
  11 H :    0.027450
  12 C :   -0.075955
  13 H :    0.016311
  14 H :    0.032210
  15 H :    0.033509
  16 S :    0.365742
  17 C :   -0.169442
  18 C :   -0.079348
  19 C :   -0.048218
  20 C :   -0.188567
  21 H :    0.045529
  22 C :   -0.024477
  23 H :    0.027330
  24 H :    0.034508
  25 C :   -0.046282
  26 H :    0.015117
  27 H :    0.027357
  28 C :   -0.073853
  29 H :    0.029266
  30 H :    0.034364
  31 H :    0.022483
  32 H :    0.034984
  33 H :    0.028408

  Mayer bond orders larger than 0.100000
B(  0-S ,  1-C ) :   1.1657 B(  0-S ,  4-C ) :   1.1771 B(  1-C ,  2-C ) :   1.5899
B(  1-C , 32-H ) :   0.9616 B(  2-C ,  3-C ) :   1.2243 B(  2-C ,  6-C ) :   1.0298
B(  3-C ,  4-C ) :   1.5788 B(  3-C ,  5-H ) :   0.9903 B(  4-C , 20-C ) :   1.0097
B(  6-C ,  7-H ) :   0.9539 B(  6-C ,  8-H ) :   0.9367 B(  6-C ,  9-C ) :   1.0303
B(  9-C , 10-H ) :   0.9681 B(  9-C , 11-H ) :   0.9590 B(  9-C , 12-C ) :   1.0564
B( 12-C , 13-H ) :   0.9827 B( 12-C , 14-H ) :   0.9790 B( 12-C , 15-H ) :   0.9779
B( 16-S , 17-C ) :   1.1464 B( 16-S , 20-C ) :   1.1389 B( 17-C , 18-C ) :   1.6202
B( 17-C , 20-C ) :   0.1113 B( 17-C , 33-H ) :   0.9641 B( 18-C , 19-C ) :   1.2285
B( 18-C , 21-H ) :   0.9756 B( 19-C , 20-C ) :   1.6162 B( 19-C , 22-C ) :   1.0245
B( 22-C , 23-H ) :   0.9456 B( 22-C , 24-H ) :   0.9423 B( 22-C , 25-C ) :   1.0504
B( 25-C , 26-H ) :   0.9553 B( 25-C , 27-H ) :   0.9581 B( 25-C , 28-C ) :   1.0896
B( 28-C , 29-H ) :   0.9730 B( 28-C , 30-H ) :   0.9731 B( 28-C , 31-H ) :   0.9738

Dispersion correction           -0.014251873
FINAL SINGLE POINT ENERGY     -1339.859414489935

DIPOLE MOMENT
-------------
                                X             Y             Z
Electronic contribution:      4.00748      19.96184     -14.35250
Nuclear contribution   :     -3.93069     -20.25140      14.60668
                        -----------------------------------------
Total Dipole Moment    :      0.07679      -0.28956       0.25418
                        -----------------------------------------
Magnitude (a.u.)       :      0.39287
Magnitude (Debye)      :      0.99860

Rotational constants in cm-1:     0.017419     0.008238     0.007001
Rotational constants in MHz :   522.218247   246.964214   209.897671

                             ****ORCA TERMINATED NORMALLY****
TOTAL RUN TIME: 0 days 0 hours 0 minutes 21 seconds 114 msec
