                         Program Version 4.2.1 -  RELEASE  -
|  1> ! wB97X-D3 SP def2-SVP
|  2> %pal
|  3> nprocs 24
|  4> end
|  5>
|  6> * xyz 0 1
|  7> S 	 -97.2779 	 45.9298 	 -95.1652
|  8> C 	 -97.5938 	 44.2419 	 -94.9804
|  9> C 	 -97.1646 	 43.4826 	 -96.0357
| 10> C 	 -96.5823 	 44.3364 	 -96.9627
| 11> C 	 -96.7073 	 45.6562 	 -96.744
| 12> H 	 -96.1641 	 43.8987 	 -97.8436
| 13> C 	 -97.1166 	 42.0148 	 -96.2228
| 14> H 	 -96.36 	 41.8777 	 -97.0275
| 15> H 	 -98.1242 	 41.772 	 -96.5474
| 16> C 	 -96.7345 	 41.1696 	 -94.9506
| 17> H 	 -95.8068 	 41.4668 	 -94.645
| 18> H 	 -97.3662 	 41.264 	 -94.0869
| 19> C 	 -96.5518 	 39.6952 	 -95.3916
| 20> H 	 -95.9603 	 39.5982 	 -96.2913
| 21> H 	 -96.1386 	 39.1123 	 -94.5849
| 22> H 	 -97.469 	 39.1713 	 -95.6522
| 23> S 	 -94.6915 	 47.373 	 -97.5987
| 24> C 	 -94.9488 	 48.1449 	 -99.1614
| 25> C 	 -96.2731 	 48.1776 	 -99.4777
| 26> C 	 -97.0886 	 47.3379 	 -98.6937
| 27> C 	 -96.3199 	 46.718 	 -97.711
| 28> H 	 -96.598 	 48.7409 	 -100.26
| 29> C 	 -98.5724 	 47.2297 	 -98.9143
| 30> H 	 -98.761 	 46.1954 	 -98.7737
| 31> H 	 -98.7963 	 47.5737 	 -99.9474
| 32> C 	 -99.5013 	 48.0703 	 -98.0071
| 33> H 	 -99.3828 	 49.0664 	 -98.3557
| 34> H 	 -99.0698 	 47.9739 	 -97.0212
| 35> C 	 -100.951 	 47.6189 	 -98.1331
| 36> H 	 -101.04 	 46.5634 	 -98.081
| 37> H 	 -101.174 	 47.893 	 -99.1151
| 38> H 	 -101.552 	 48.0464 	 -97.2864
| 39> H 	 -98.0194 	 43.8118 	 -94.0845
| 40> H 	 -94.1355 	 48.6429 	 -99.6783
| 41> *
| 42>
| 43>                          ****END OF INPUT****

CARTESIAN COORDINATES (ANGSTROEM)
---------------------------------
  S    -97.277900   45.929800  -95.165200
  C    -97.593800   44.241900  -94.980400
  C    -97.164600   43.482600  -96.035700
  C    -96.582300   44.336400  -96.962700
  C    -96.707300   45.656200  -96.744000
  H    -96.164100   43.898700  -97.843600
  C    -97.116600   42.014800  -96.222800
  H    -96.360000   41.877700  -97.027500
  H    -98.124200   41.772000  -96.547400
  C    -96.734500   41.169600  -94.950600
  H    -95.806800   41.466800  -94.645000
  H    -97.366200   41.264000  -94.086900
  C    -96.551800   39.695200  -95.391600
  H    -95.960300   39.598200  -96.291300
  H    -96.138600   39.112300  -94.584900
  H    -97.469000   39.171300  -95.652200
  S    -94.691500   47.373000  -97.598700
  C    -94.948800   48.144900  -99.161400
  C    -96.273100   48.177600  -99.477700
  C    -97.088600   47.337900  -98.693700
  C    -96.319900   46.718000  -97.711000
  H    -96.598000   48.740900  -100.260000
  C    -98.572400   47.229700  -98.914300
  H    -98.761000   46.195400  -98.773700
  H    -98.796300   47.573700  -99.947400
  C    -99.501300   48.070300  -98.007100
  H    -99.382800   49.066400  -98.355700
  H    -99.069800   47.973900  -97.021200
  C    -100.951000   47.618900  -98.133100
  H    -101.040000   46.563400  -98.081000
  H    -101.174000   47.893000  -99.115100
  H    -101.552000   48.046400  -97.286400
  H    -98.019400   43.811800  -94.084500
  H    -94.135500   48.642900  -99.678300

 Total Charge           Charge          ....    0
 Multiplicity           Mult            ....    1
 Number of Electrons    NEL             ....  134
 Basis Dimension        Dim             ....  322

ORBITAL ENERGIES
----------------

  NO   OCC          E(Eh)            E(eV)
   0   2.0000     -88.965042     -2420.8619
   1   2.0000     -88.961869     -2420.7755
   2   2.0000     -10.323639      -280.9205
   3   2.0000     -10.317263      -280.7470
   4   2.0000     -10.313192      -280.6362
   5   2.0000     -10.305828      -280.4358
   6   2.0000     -10.298081      -280.2250
   7   2.0000     -10.296473      -280.1813
   8   2.0000     -10.287562      -279.9388
   9   2.0000     -10.285458      -279.8815
  10   2.0000     -10.284743      -279.8621
  11   2.0000     -10.281093      -279.7628
  12   2.0000     -10.277999      -279.6786
  13   2.0000     -10.276023      -279.6248
  14   2.0000     -10.275876      -279.6208
  15   2.0000     -10.271208      -279.4938
  16   2.0000      -8.080893      -219.8923
  17   2.0000      -8.076650      -219.7768
  18   2.0000      -6.039190      -164.3347
  19   2.0000      -6.035300      -164.2289
  20   2.0000      -6.035014      -164.2211
  21   2.0000      -6.031774      -164.1329
  22   2.0000      -6.031454      -164.1242
  23   2.0000      -6.027284      -164.0107
  24   2.0000      -1.014567       -27.6078
  25   2.0000      -0.989547       -26.9269
  26   2.0000      -0.914349       -24.8807
  27   2.0000      -0.910387       -24.7729
  28   2.0000      -0.866498       -23.5786
  29   2.0000      -0.855911       -23.2905
  30   2.0000      -0.852659       -23.2020
  31   2.0000      -0.813246       -22.1295
  32   2.0000      -0.782408       -21.2904
  33   2.0000      -0.769639       -20.9429
  34   2.0000      -0.718693       -19.5566
  35   2.0000      -0.701412       -19.0864
  36   2.0000      -0.689774       -18.7697
  37   2.0000      -0.664508       -18.0822
  38   2.0000      -0.641780       -17.4637
  39   2.0000      -0.621557       -16.9134
  40   2.0000      -0.595116       -16.1939
  41   2.0000      -0.578009       -15.7284
  42   2.0000      -0.574396       -15.6301
  43   2.0000      -0.561125       -15.2690
  44   2.0000      -0.525979       -14.3126
  45   2.0000      -0.522190       -14.2095
  46   2.0000      -0.514987       -14.0135
  47   2.0000      -0.513547       -13.9743
  48   2.0000      -0.506085       -13.7713
  49   2.0000      -0.497892       -13.5483
  50   2.0000      -0.488535       -13.2937
  51   2.0000      -0.485286       -13.2053
  52   2.0000      -0.473034       -12.8719
  53   2.0000      -0.463131       -12.6024
  54   2.0000      -0.456704       -12.4276
  55   2.0000      -0.452873       -12.3233
  56   2.0000      -0.443984       -12.0814
  57   2.0000      -0.435775       -11.8580
  58   2.0000      -0.431660       -11.7461
  59   2.0000      -0.430119       -11.7041
  60   2.0000      -0.427287       -11.6271
  61   2.0000      -0.421780       -11.4772
  62   2.0000      -0.419594       -11.4177
  63   2.0000      -0.335669        -9.1340
  64   2.0000      -0.328503        -8.9390
  65   2.0000      -0.315622        -8.5885
  66   2.0000      -0.307214        -8.3597
  67   0.0000       0.046306         1.2600
  68   0.0000       0.056170         1.5285
  69   0.0000       0.110677         3.0117
  70   0.0000       0.122533         3.3343
  71   0.0000       0.136932         3.7261

MULLIKEN ATOMIC CHARGES
-----------------------
   0 S :    0.131557
   1 C :   -0.143953
   2 C :   -0.072335
   3 C :    0.031487
   4 C :   -0.167533
   5 H :   -0.007420
   6 C :    0.068573
   7 H :    0.032234
   8 H :    0.043036
   9 C :   -0.037449
  10 H :    0.010660
  11 H :    0.031742
  12 C :   -0.046600
  13 H :    0.023990
  14 H :    0.030916
  15 H :    0.021650
  16 S :    0.106670
  17 C :   -0.095589
  18 C :    0.010133
  19 C :   -0.007646
  20 C :   -0.196488
  21 H :   -0.026074
  22 C :    0.064604
  23 H :    0.020528
  24 H :    0.014554
  25 C :   -0.049397
  26 H :    0.016856
  27 H :    0.016719
  28 C :    0.004479
  29 H :    0.017672
  30 H :    0.012650
  31 H :    0.051122
  32 H :    0.032837
  33 H :    0.055819
Sum of atomic charges:    0.0000000

LOEWDIN ATOMIC CHARGES
----------------------
   0 S :    0.436927
   1 C :   -0.204293
   2 C :   -0.071844
   3 C :   -0.061011
   4 C :   -0.221518
   5 H :    0.025327
   6 C :   -0.024757
   7 H :    0.037254
   8 H :    0.037319
   9 C :   -0.024835
  10 H :    0.014292
  11 H :    0.023110
  12 C :   -0.063438
  13 H :    0.023461
  14 H :    0.024178
  15 H :    0.022411
  16 S :    0.392914
  17 C :   -0.173101
  18 C :   -0.061536
  19 C :   -0.049846
  20 C :   -0.194623
  21 H :    0.014599
  22 C :   -0.028294
  23 H :    0.026815
  24 H :    0.028921
  25 C :   -0.030811
  26 H :    0.017886
  27 H :    0.014361
  28 C :   -0.054626
  29 H :    0.019767
  30 H :    0.018925
  31 H :    0.037942
  32 H :    0.021009
  33 H :    0.027114

  Mayer bond orders larger than 0.100000
B(  0-S ,  1-C ) :   1.1560 B(  0-S ,  4-C ) :   1.1695 B(  1-C ,  2-C ) :   1.5862
B(  1-C , 32-H ) :   0.9680 B(  2-C ,  3-C ) :   1.2960 B(  2-C ,  6-C ) :   1.0042
B(  3-C ,  4-C ) :   1.5737 B(  3-C ,  5-H ) :   0.9955 B(  4-C , 20-C ) :   0.9830
B(  6-C ,  7-H ) :   0.9471 B(  6-C ,  8-H ) :   0.9219 B(  6-C ,  9-C ) :   1.0702
B(  9-C , 10-H ) :   0.9567 B(  9-C , 11-H ) :   0.9546 B(  9-C , 12-C ) :   1.0863
B( 12-C , 13-H ) :   0.9742 B( 12-C , 14-H ) :   0.9749 B( 12-C , 15-H ) :   0.9760
B( 16-S , 17-C ) :   1.1473 B( 16-S , 20-C ) :   1.1559 B( 17-C , 18-C ) :   1.6020
B( 17-C , 20-C ) :   0.1019 B( 17-C , 33-H ) :   0.9701 B( 18-C , 19-C ) :   1.2399
B( 18-C , 21-H ) :   1.0057 B( 19-C , 20-C ) :   1.5993 B( 19-C , 22-C ) :   1.0499
B( 22-C , 23-H ) :   0.9208 B( 22-C , 24-H ) :   0.9322 B( 22-C , 25-C ) :   1.0670
B( 25-C , 26-H ) :   0.9563 B( 25-C , 27-H ) :   0.9547 B( 25-C , 28-C ) :   1.0735
B( 28-C , 29-H ) :   0.9769 B( 28-C , 30-H ) :   0.9733 B( 28-C , 31-H ) :   0.9727

Dispersion correction           -0.014005849
FINAL SINGLE POINT ENERGY     -1339.862149823682

DIPOLE MOMENT
-------------
                                X             Y             Z
Electronic contribution:     14.73583      16.37510       2.60103
Nuclear contribution   :    -14.97510     -16.73632      -2.82267
                        -----------------------------------------
Total Dipole Moment    :     -0.23927      -0.36122      -0.22164
                        -----------------------------------------
Magnitude (a.u.)       :      0.48668
Magnitude (Debye)      :      1.23704

Rotational constants in cm-1:     0.019887     0.007674     0.006480
Rotational constants in MHz :   596.196713   230.075236   194.251322

                             ****ORCA TERMINATED NORMALLY****
TOTAL RUN TIME: 0 days 0 hours 0 minutes 21 seconds 264 msec
