                         Program Version 4.2.1 -  RELEASE  -
|  1> ! wB97X-D3 SP def2-SVP
|  2> %pal
|  3> nprocs 24
|  4> end
|  5>
|  6> * xyz 0 1
|  7> S 	 -53.8569 	 -52.6035 	 -74.0223
|  8> C 	 -52.3812 	 -53.3463 	 -73.6532
|  9> C 	 -52.228 	 -54.5775 	 -74.2464
| 10> C 	 -53.3997 	 -54.9887 	 -74.9832
| 11> C 	 -54.3512 	 -53.9663 	 -75.0997
| 12> H 	 -53.5579 	 -55.8917 	 -75.5605
| 13> C 	 -50.9576 	 -55.3193 	 -74.2858
| 14> H 	 -50.2371 	 -54.5351 	 -74.2875
| 15> H 	 -50.9045 	 -55.8974 	 -75.227
| 16> C 	 -50.6505 	 -56.2159 	 -73.0569
| 17> H 	 -49.6261 	 -56.5028 	 -73.1875
| 18> H 	 -50.6346 	 -55.6088 	 -72.1657
| 19> C 	 -51.689 	 -57.419 	 -73.0081
| 20> H 	 -51.2988 	 -58.1437 	 -72.2954
| 21> H 	 -52.6525 	 -57.1124 	 -72.6228
| 22> H 	 -51.8475 	 -57.9148 	 -73.8779
| 23> S 	 -57.0497 	 -53.6171 	 -74.9807
| 24> C 	 -58.105 	 -54.1776 	 -76.2154
| 25> C 	 -57.3854 	 -54.6947 	 -77.2915
| 26> C 	 -55.9358 	 -54.5317 	 -77.0967
| 27> C 	 -55.6174 	 -54.0432 	 -75.8616
| 28> H 	 -57.9185 	 -54.962 	 -78.2185
| 29> C 	 -54.9259 	 -54.8271 	 -78.1197
| 30> H 	 -55.2797 	 -55.6702 	 -78.739
| 31> H 	 -54.0067 	 -55.2275 	 -77.744
| 32> C 	 -54.6652 	 -53.6167 	 -79.0481
| 33> H 	 -54.4686 	 -52.6896 	 -78.5085
| 34> H 	 -55.5398 	 -53.4332 	 -79.7011
| 35> C 	 -53.4628 	 -53.7276 	 -80.0497
| 36> H 	 -53.414 	 -54.5125 	 -80.816
| 37> H 	 -52.5772 	 -53.8863 	 -79.4315
| 38> H 	 -53.237 	 -52.7521 	 -80.5251
| 39> H 	 -51.5517 	 -52.814 	 -73.1856
| 40> H 	 -59.1745 	 -54.1587 	 -76.2681
| 41> *
| 42>
| 43>                          ****END OF INPUT****

CARTESIAN COORDINATES (ANGSTROEM)
---------------------------------
  S    -53.856900  -52.603500  -74.022300
  C    -52.381200  -53.346300  -73.653200
  C    -52.228000  -54.577500  -74.246400
  C    -53.399700  -54.988700  -74.983200
  C    -54.351200  -53.966300  -75.099700
  H    -53.557900  -55.891700  -75.560500
  C    -50.957600  -55.319300  -74.285800
  H    -50.237100  -54.535100  -74.287500
  H    -50.904500  -55.897400  -75.227000
  C    -50.650500  -56.215900  -73.056900
  H    -49.626100  -56.502800  -73.187500
  H    -50.634600  -55.608800  -72.165700
  C    -51.689000  -57.419000  -73.008100
  H    -51.298800  -58.143700  -72.295400
  H    -52.652500  -57.112400  -72.622800
  H    -51.847500  -57.914800  -73.877900
  S    -57.049700  -53.617100  -74.980700
  C    -58.105000  -54.177600  -76.215400
  C    -57.385400  -54.694700  -77.291500
  C    -55.935800  -54.531700  -77.096700
  C    -55.617400  -54.043200  -75.861600
  H    -57.918500  -54.962000  -78.218500
  C    -54.925900  -54.827100  -78.119700
  H    -55.279700  -55.670200  -78.739000
  H    -54.006700  -55.227500  -77.744000
  C    -54.665200  -53.616700  -79.048100
  H    -54.468600  -52.689600  -78.508500
  H    -55.539800  -53.433200  -79.701100
  C    -53.462800  -53.727600  -80.049700
  H    -53.414000  -54.512500  -80.816000
  H    -52.577200  -53.886300  -79.431500
  H    -53.237000  -52.752100  -80.525100
  H    -51.551700  -52.814000  -73.185600
  H    -59.174500  -54.158700  -76.268100

 Total Charge           Charge          ....    0
 Multiplicity           Mult            ....    1
 Number of Electrons    NEL             ....  134
 Basis Dimension        Dim             ....  322

ORBITAL ENERGIES
----------------

  NO   OCC          E(Eh)            E(eV)
   0   2.0000     -88.967248     -2420.9219
   1   2.0000     -88.963610     -2420.8229
   2   2.0000     -10.336777      -281.2780
   3   2.0000     -10.325047      -280.9588
   4   2.0000     -10.316548      -280.7275
   5   2.0000     -10.309791      -280.5437
   6   2.0000     -10.303581      -280.3747
   7   2.0000     -10.299821      -280.2724
   8   2.0000     -10.298031      -280.2237
   9   2.0000     -10.297107      -280.1985
  10   2.0000     -10.289422      -279.9894
  11   2.0000     -10.288479      -279.9637
  12   2.0000     -10.288255      -279.9576
  13   2.0000     -10.286029      -279.8971
  14   2.0000     -10.279278      -279.7134
  15   2.0000     -10.271532      -279.5026
  16   2.0000      -8.081977      -219.9218
  17   2.0000      -8.079286      -219.8485
  18   2.0000      -6.040477      -164.3697
  19   2.0000      -6.037847      -164.2982
  20   2.0000      -6.036459      -164.2604
  21   2.0000      -6.033543      -164.1811
  22   2.0000      -6.032781      -164.1603
  23   2.0000      -6.030038      -164.0857
  24   2.0000      -1.007534       -27.4164
  25   2.0000      -0.987268       -26.8649
  26   2.0000      -0.910468       -24.7751
  27   2.0000      -0.908170       -24.7126
  28   2.0000      -0.869064       -23.6484
  29   2.0000      -0.848208       -23.0809
  30   2.0000      -0.843316       -22.9478
  31   2.0000      -0.817783       -22.2530
  32   2.0000      -0.781970       -21.2785
  33   2.0000      -0.771796       -21.0016
  34   2.0000      -0.711004       -19.3474
  35   2.0000      -0.702782       -19.1237
  36   2.0000      -0.694609       -18.9013
  37   2.0000      -0.664669       -18.0866
  38   2.0000      -0.642034       -17.4706
  39   2.0000      -0.615120       -16.7383
  40   2.0000      -0.594723       -16.1832
  41   2.0000      -0.574209       -15.6250
  42   2.0000      -0.558191       -15.1891
  43   2.0000      -0.544404       -14.8140
  44   2.0000      -0.536695       -14.6042
  45   2.0000      -0.524579       -14.2745
  46   2.0000      -0.518701       -14.1146
  47   2.0000      -0.511399       -13.9159
  48   2.0000      -0.506033       -13.7699
  49   2.0000      -0.501964       -13.6591
  50   2.0000      -0.487641       -13.2694
  51   2.0000      -0.483486       -13.1563
  52   2.0000      -0.475376       -12.9356
  53   2.0000      -0.466635       -12.6978
  54   2.0000      -0.456727       -12.4282
  55   2.0000      -0.446533       -12.1508
  56   2.0000      -0.444199       -12.0873
  57   2.0000      -0.439188       -11.9509
  58   2.0000      -0.433314       -11.7911
  59   2.0000      -0.424764       -11.5584
  60   2.0000      -0.422625       -11.5002
  61   2.0000      -0.416305       -11.3282
  62   2.0000      -0.411372       -11.1940
  63   2.0000      -0.353579        -9.6214
  64   2.0000      -0.328204        -8.9309
  65   2.0000      -0.325234        -8.8501
  66   2.0000      -0.290867        -7.9149
  67   0.0000       0.030834         0.8390
  68   0.0000       0.070539         1.9195
  69   0.0000       0.110962         3.0194
  70   0.0000       0.114661         3.1201
  71   0.0000       0.133830         3.6417

MULLIKEN ATOMIC CHARGES
-----------------------
   0 S :    0.113205
   1 C :   -0.112619
   2 C :   -0.096916
   3 C :    0.037210
   4 C :   -0.157359
   5 H :    0.020440
   6 C :    0.044979
   7 H :    0.010815
   8 H :    0.031463
   9 C :   -0.039188
  10 H :    0.023366
  11 H :    0.021562
  12 C :   -0.023570
  13 H :    0.029689
  14 H :    0.041340
  15 H :    0.008919
  16 S :    0.110580
  17 C :   -0.077721
  18 C :   -0.048159
  19 C :   -0.068793
  20 C :   -0.135011
  21 H :    0.033010
  22 C :    0.095488
  23 H :    0.017275
  24 H :    0.001419
  25 C :   -0.078048
  26 H :    0.038762
  27 H :    0.030804
  28 C :   -0.070280
  29 H :    0.035754
  30 H :    0.020181
  31 H :    0.036616
  32 H :    0.053785
  33 H :    0.051007
Sum of atomic charges:   -0.0000000

LOEWDIN ATOMIC CHARGES
----------------------
   0 S :    0.404305
   1 C :   -0.216367
   2 C :   -0.067265
   3 C :   -0.056451
   4 C :   -0.179863
   5 H :    0.031107
   6 C :   -0.033807
   7 H :    0.026340
   8 H :    0.032298
   9 C :   -0.025677
  10 H :    0.019611
  11 H :    0.021974
  12 C :   -0.055442
  13 H :    0.028671
  14 H :    0.029980
  15 H :    0.008407
  16 S :    0.424107
  17 C :   -0.192455
  18 C :   -0.074358
  19 C :   -0.058440
  20 C :   -0.202362
  21 H :    0.036198
  22 C :   -0.036547
  23 H :    0.034415
  24 H :    0.022589
  25 C :   -0.034873
  26 H :    0.029117
  27 H :    0.024822
  28 C :   -0.076872
  29 H :    0.022091
  30 H :    0.021950
  31 H :    0.030919
  32 H :    0.032009
  33 H :    0.029870

  Mayer bond orders larger than 0.100000
B(  0-S ,  1-C ) :   1.1461 B(  0-S ,  4-C ) :   1.1464 B(  1-C ,  2-C ) :   1.6168
B(  1-C , 32-H ) :   0.9585 B(  2-C ,  3-C ) :   1.2291 B(  2-C ,  6-C ) :   1.0201
B(  3-C ,  4-C ) :   1.5773 B(  3-C ,  5-H ) :   0.9877 B(  4-C , 20-C ) :   1.0262
B(  6-C ,  7-H ) :   0.9343 B(  6-C ,  8-H ) :   0.9474 B(  6-C ,  9-C ) :   1.0825
B(  9-C , 10-H ) :   0.9595 B(  9-C , 11-H ) :   0.9565 B(  9-C , 12-C ) :   1.0596
B( 12-C , 13-H ) :   0.9758 B( 12-C , 14-H ) :   0.9758 B( 12-C , 15-H ) :   0.9801
B( 16-S , 17-C ) :   1.1641 B( 16-S , 20-C ) :   1.1321 B( 17-C , 18-C ) :   1.6201
B( 17-C , 33-H ) :   0.9678 B( 18-C , 19-C ) :   1.2250 B( 18-C , 21-H ) :   0.9834
B( 19-C , 20-C ) :   1.6215 B( 19-C , 22-C ) :   1.0735 B( 22-C , 23-H ) :   0.9219
B( 22-C , 24-H ) :   0.9307 B( 22-C , 25-C ) :   1.0540 B( 25-C , 26-H ) :   0.9592
B( 25-C , 27-H ) :   0.9576 B( 25-C , 28-C ) :   1.0763 B( 28-C , 29-H ) :   0.9784
B( 28-C , 30-H ) :   0.9741 B( 28-C , 31-H ) :   0.9751

Dispersion correction           -0.014266173
FINAL SINGLE POINT ENERGY     -1339.876855507219

DIPOLE MOMENT
-------------
                                X             Y             Z
Electronic contribution:    -18.00241      13.07236      11.56130
Nuclear contribution   :     18.39853     -13.41478     -11.94210
                        -----------------------------------------
Total Dipole Moment    :      0.39612      -0.34242      -0.38080
                        -----------------------------------------
Magnitude (a.u.)       :      0.64744
Magnitude (Debye)      :      1.64565

Rotational constants in cm-1:     0.017732     0.008557     0.007222
Rotational constants in MHz :   531.603144   256.541764   216.516258

                             ****ORCA TERMINATED NORMALLY****
TOTAL RUN TIME: 0 days 0 hours 0 minutes 21 seconds 649 msec
