                         Program Version 4.2.1 -  RELEASE  -
|  1> ! wB97X-D3 SP def2-SVP
|  2> %pal
|  3> nprocs 24
|  4> end
|  5>
|  6> * xyz 0 1
|  7> S 	 33.5975 	 -31.6866 	 -117.097
|  8> C 	 34.0508 	 -30.3881 	 -116.021
|  9> C 	 35.2463 	 -30.7205 	 -115.384
| 10> C 	 35.8476 	 -31.8317 	 -116.01
| 11> C 	 35.0267 	 -32.5422 	 -116.816
| 12> H 	 36.8177 	 -32.2919 	 -115.72
| 13> C 	 35.9681 	 -29.8735 	 -114.373
| 14> H 	 35.2874 	 -29.1196 	 -113.982
| 15> H 	 36.824 	 -29.4583 	 -114.898
| 16> C 	 36.4446 	 -30.6992 	 -113.137
| 17> H 	 37.1965 	 -31.4457 	 -113.429
| 18> H 	 36.8373 	 -30.0095 	 -112.419
| 19> C 	 35.3916 	 -31.4672 	 -112.299
| 20> H 	 35.8668 	 -32.2287 	 -111.772
| 21> H 	 34.8884 	 -30.8473 	 -111.59
| 22> H 	 34.6045 	 -31.8828 	 -112.975
| 23> S 	 35.1076 	 -33.9157 	 -119.331
| 24> C 	 35.7137 	 -35.4913 	 -119.435
| 25> C 	 36.1636 	 -35.9583 	 -118.219
| 26> C 	 35.9106 	 -35.0035 	 -117.178
| 27> C 	 35.3795 	 -33.7979 	 -117.611
| 28> H 	 36.6662 	 -36.9565 	 -118.13
| 29> C 	 36.2738 	 -35.2884 	 -115.686
| 30> H 	 36.975 	 -34.5488 	 -115.458
| 31> H 	 36.9512 	 -36.1096 	 -115.634
| 32> C 	 35.1082 	 -35.4241 	 -114.701
| 33> H 	 34.5318 	 -36.3305 	 -114.819
| 34> H 	 34.4327 	 -34.6901 	 -114.969
| 35> C 	 35.6491 	 -35.2516 	 -113.262
| 36> H 	 36.5858 	 -35.7137 	 -113.084
| 37> H 	 34.8743 	 -35.5392 	 -112.495
| 38> H 	 35.9568 	 -34.2005 	 -113.117
| 39> H 	 33.4235 	 -29.6632 	 -115.617
| 40> H 	 35.7928 	 -36.0962 	 -120.337
| 41> *
| 42>
| 43>                          ****END OF INPUT****

CARTESIAN COORDINATES (ANGSTROEM)
---------------------------------
  S     33.597500  -31.686600  -117.097000
  C     34.050800  -30.388100  -116.021000
  C     35.246300  -30.720500  -115.384000
  C     35.847600  -31.831700  -116.010000
  C     35.026700  -32.542200  -116.816000
  H     36.817700  -32.291900  -115.720000
  C     35.968100  -29.873500  -114.373000
  H     35.287400  -29.119600  -113.982000
  H     36.824000  -29.458300  -114.898000
  C     36.444600  -30.699200  -113.137000
  H     37.196500  -31.445700  -113.429000
  H     36.837300  -30.009500  -112.419000
  C     35.391600  -31.467200  -112.299000
  H     35.866800  -32.228700  -111.772000
  H     34.888400  -30.847300  -111.590000
  H     34.604500  -31.882800  -112.975000
  S     35.107600  -33.915700  -119.331000
  C     35.713700  -35.491300  -119.435000
  C     36.163600  -35.958300  -118.219000
  C     35.910600  -35.003500  -117.178000
  C     35.379500  -33.797900  -117.611000
  H     36.666200  -36.956500  -118.130000
  C     36.273800  -35.288400  -115.686000
  H     36.975000  -34.548800  -115.458000
  H     36.951200  -36.109600  -115.634000
  C     35.108200  -35.424100  -114.701000
  H     34.531800  -36.330500  -114.819000
  H     34.432700  -34.690100  -114.969000
  C     35.649100  -35.251600  -113.262000
  H     36.585800  -35.713700  -113.084000
  H     34.874300  -35.539200  -112.495000
  H     35.956800  -34.200500  -113.117000
  H     33.423500  -29.663200  -115.617000
  H     35.792800  -36.096200  -120.337000

 Total Charge           Charge          ....    0
 Multiplicity           Mult            ....    1
 Number of Electrons    NEL             ....  134
 Basis Dimension        Dim             ....  322

ORBITAL ENERGIES
----------------

  NO   OCC          E(Eh)            E(eV)
   0   2.0000     -88.966726     -2420.9077
   1   2.0000     -88.966686     -2420.9066
   2   2.0000     -10.329805      -281.0883
   3   2.0000     -10.329749      -281.0868
   4   2.0000     -10.313993      -280.6580
   5   2.0000     -10.309322      -280.5309
   6   2.0000     -10.304159      -280.3904
   7   2.0000     -10.299897      -280.2744
   8   2.0000     -10.296005      -280.1685
   9   2.0000     -10.295270      -280.1485
  10   2.0000     -10.289831      -280.0005
  11   2.0000     -10.287730      -279.9434
  12   2.0000     -10.283444      -279.8267
  13   2.0000     -10.278351      -279.6882
  14   2.0000     -10.277594      -279.6675
  15   2.0000     -10.271931      -279.5135
  16   2.0000      -8.082491      -219.9357
  17   2.0000      -8.082339      -219.9316
  18   2.0000      -6.040890      -164.3810
  19   2.0000      -6.040733      -164.3767
  20   2.0000      -6.036751      -164.2683
  21   2.0000      -6.036604      -164.2644
  22   2.0000      -6.033382      -164.1767
  23   2.0000      -6.033275      -164.1738
  24   2.0000      -1.014719       -27.6119
  25   2.0000      -0.994708       -27.0674
  26   2.0000      -0.912847       -24.8398
  27   2.0000      -0.907563       -24.6960
  28   2.0000      -0.865345       -23.5472
  29   2.0000      -0.851217       -23.1628
  30   2.0000      -0.844649       -22.9841
  31   2.0000      -0.819291       -22.2940
  32   2.0000      -0.785685       -21.3796
  33   2.0000      -0.774813       -21.0837
  34   2.0000      -0.714070       -19.4308
  35   2.0000      -0.701209       -19.0809
  36   2.0000      -0.693011       -18.8578
  37   2.0000      -0.655856       -17.8467
  38   2.0000      -0.640022       -17.4159
  39   2.0000      -0.624731       -16.9998
  40   2.0000      -0.594082       -16.1658
  41   2.0000      -0.572636       -15.5822
  42   2.0000      -0.559693       -15.2300
  43   2.0000      -0.556535       -15.1441
  44   2.0000      -0.542354       -14.7582
  45   2.0000      -0.529130       -14.3984
  46   2.0000      -0.519264       -14.1299
  47   2.0000      -0.506615       -13.7857
  48   2.0000      -0.504341       -13.7238
  49   2.0000      -0.502318       -13.6688
  50   2.0000      -0.490262       -13.3407
  51   2.0000      -0.480471       -13.0743
  52   2.0000      -0.475028       -12.9262
  53   2.0000      -0.467254       -12.7146
  54   2.0000      -0.460931       -12.5426
  55   2.0000      -0.454463       -12.3666
  56   2.0000      -0.448477       -12.2037
  57   2.0000      -0.442272       -12.0348
  58   2.0000      -0.432869       -11.7790
  59   2.0000      -0.427121       -11.6225
  60   2.0000      -0.416850       -11.3431
  61   2.0000      -0.410727       -11.1764
  62   2.0000      -0.406745       -11.0681
  63   2.0000      -0.348090        -9.4720
  64   2.0000      -0.332388        -9.0447
  65   2.0000      -0.331354        -9.0166
  66   2.0000      -0.298948        -8.1348
  67   0.0000       0.035774         0.9735
  68   0.0000       0.075096         2.0435
  69   0.0000       0.118420         3.2224
  70   0.0000       0.124154         3.3784
  71   0.0000       0.124667         3.3924

MULLIKEN ATOMIC CHARGES
-----------------------
   0 S :    0.111988
   1 C :   -0.086631
   2 C :   -0.138355
   3 C :    0.010818
   4 C :   -0.138958
   5 H :    0.022626
   6 C :    0.111313
   7 H :    0.015803
   8 H :    0.050194
   9 C :   -0.111786
  10 H :    0.030182
  11 H :    0.028488
  12 C :   -0.040636
  13 H :    0.030954
  14 H :    0.020801
  15 H :    0.045674
  16 S :    0.123211
  17 C :   -0.095244
  18 C :   -0.053378
  19 C :   -0.075172
  20 C :   -0.143723
  21 H :    0.038487
  22 C :    0.093685
  23 H :   -0.008546
  24 H :   -0.008585
  25 C :    0.008752
  26 H :    0.025596
  27 H :    0.015535
  28 C :   -0.049966
  29 H :    0.017411
  30 H :    0.048690
  31 H :    0.010061
  32 H :    0.030261
  33 H :    0.060449
Sum of atomic charges:    0.0000000

LOEWDIN ATOMIC CHARGES
----------------------
   0 S :    0.434825
   1 C :   -0.197979
   2 C :   -0.061637
   3 C :   -0.075461
   4 C :   -0.205766
   5 H :    0.033793
   6 C :   -0.024886
   7 H :    0.029272
   8 H :    0.040488
   9 C :   -0.040625
  10 H :    0.020820
  11 H :    0.022821
  12 C :   -0.060938
  13 H :    0.017588
  14 H :    0.019738
  15 H :    0.031262
  16 S :    0.435417
  17 C :   -0.205258
  18 C :   -0.084903
  19 C :   -0.054731
  20 C :   -0.209736
  21 H :    0.041963
  22 C :   -0.026061
  23 H :    0.019247
  24 H :    0.022708
  25 C :   -0.027323
  26 H :    0.025287
  27 H :    0.016158
  28 C :   -0.065433
  29 H :    0.017576
  30 H :    0.033479
  31 H :    0.027366
  32 H :    0.016345
  33 H :    0.034585

  Mayer bond orders larger than 0.100000
B(  0-S ,  1-C ) :   1.1464 B(  0-S ,  4-C ) :   1.1751 B(  1-C ,  2-C ) :   1.5882
B(  1-C , 32-H ) :   0.9687 B(  2-C ,  3-C ) :   1.2470 B(  2-C ,  6-C ) :   1.0348
B(  3-C ,  4-C ) :   1.5900 B(  3-C ,  5-H ) :   0.9790 B(  4-C , 20-C ) :   0.9861
B(  6-C ,  7-H ) :   0.9386 B(  6-C ,  8-H ) :   0.9389 B(  6-C ,  9-C ) :   1.0689
B(  9-C , 10-H ) :   0.9609 B(  9-C , 11-H ) :   0.9597 B(  9-C , 12-C ) :   1.0747
B( 12-C , 13-H ) :   0.9696 B( 12-C , 14-H ) :   0.9734 B( 12-C , 15-H ) :   0.9739
B( 16-S , 17-C ) :   1.1873 B( 16-S , 20-C ) :   1.1452 B( 17-C , 18-C ) :   1.5803
B( 17-C , 33-H ) :   0.9641 B( 18-C , 19-C ) :   1.2788 B( 18-C , 21-H ) :   0.9850
B( 19-C , 20-C ) :   1.5974 B( 19-C , 22-C ) :   1.0141 B( 22-C , 23-H ) :   0.9389
B( 22-C , 24-H ) :   0.9232 B( 22-C , 25-C ) :   1.0487 B( 25-C , 26-H ) :   0.9538
B( 25-C , 27-H ) :   0.9590 B( 25-C , 28-C ) :   1.0713 B( 28-C , 29-H ) :   0.9721
B( 28-C , 30-H ) :   0.9744 B( 28-C , 31-H ) :   0.9711

Dispersion correction           -0.016242376
FINAL SINGLE POINT ENERGY     -1339.873711814151

DIPOLE MOMENT
-------------
                                X             Y             Z
Electronic contribution:     -8.47788       2.08614     -29.95328
Nuclear contribution   :      8.86162      -2.19217      30.53126
                        -----------------------------------------
Total Dipole Moment    :      0.38374      -0.10604       0.57798
                        -----------------------------------------
Magnitude (a.u.)       :      0.70182
Magnitude (Debye)      :      1.78390

Rotational constants in cm-1:     0.019506     0.010247     0.007531
Rotational constants in MHz :   584.773974   307.200167   225.786986

                             ****ORCA TERMINATED NORMALLY****
TOTAL RUN TIME: 0 days 0 hours 0 minutes 23 seconds 319 msec
