                         Program Version 4.2.1 -  RELEASE  -
|  1> ! wB97X-D3 SP def2-SVP
|  2> %pal
|  3> nprocs 24
|  4> end
|  5>
|  6> * xyz 0 1
|  7> S 	 -51.2017 	 -3.96707 	 22.0429
|  8> C 	 -52.3907 	 -4.21554 	 20.7837
|  9> C 	 -51.8074 	 -4.71807 	 19.638
| 10> C 	 -50.4056 	 -4.98281 	 19.8645
| 11> C 	 -49.8981 	 -4.6518 	 21.0885
| 12> H 	 -49.7705 	 -5.42193 	 19.1673
| 13> C 	 -52.4866 	 -5.00796 	 18.3274
| 14> H 	 -52.2075 	 -4.13556 	 17.7349
| 15> H 	 -53.5399 	 -4.99314 	 18.3162
| 16> C 	 -52.0515 	 -6.2849 	 17.5313
| 17> H 	 -51.0074 	 -6.04244 	 17.4446
| 18> H 	 -52.2817 	 -7.0812 	 18.1403
| 19> C 	 -52.8835 	 -6.51751 	 16.2489
| 20> H 	 -52.5456 	 -7.45808 	 15.8319
| 21> H 	 -53.9204 	 -6.81031 	 16.3642
| 22> H 	 -52.8521 	 -5.76063 	 15.5276
| 23> S 	 -48.2988 	 -6.34117 	 22.3652
| 24> C 	 -46.5843 	 -5.9069 	 22.5166
| 25> C 	 -46.4284 	 -4.53131 	 22.4317
| 26> C 	 -47.5364 	 -3.97533 	 21.7651
| 27> C 	 -48.6371 	 -4.82442 	 21.7136
| 28> H 	 -45.4571 	 -4.08902 	 22.5814
| 29> C 	 -47.3911 	 -2.59264 	 21.1712
| 30> H 	 -47.5708 	 -1.82599 	 21.9279
| 31> H 	 -48.2255 	 -2.38794 	 20.5595
| 32> C 	 -46.022 	 -2.16518 	 20.3312
| 33> H 	 -45.0712 	 -2.18415 	 20.9824
| 34> H 	 -46.0992 	 -1.24965 	 19.9059
| 35> C 	 -45.8453 	 -3.2261 	 19.2028
| 36> H 	 -44.965 	 -3.10082 	 18.4745
| 37> H 	 -46.7281 	 -3.16101 	 18.5139
| 38> H 	 -45.8658 	 -4.23296 	 19.6115
| 39> H 	 -53.4131 	 -3.90474 	 20.8252
| 40> H 	 -45.7781 	 -6.48389 	 23.0026
| 41> *
| 42>
| 43>                          ****END OF INPUT****

CARTESIAN COORDINATES (ANGSTROEM)
---------------------------------
  S    -51.201700   -3.967070   22.042900
  C    -52.390700   -4.215540   20.783700
  C    -51.807400   -4.718070   19.638000
  C    -50.405600   -4.982810   19.864500
  C    -49.898100   -4.651800   21.088500
  H    -49.770500   -5.421930   19.167300
  C    -52.486600   -5.007960   18.327400
  H    -52.207500   -4.135560   17.734900
  H    -53.539900   -4.993140   18.316200
  C    -52.051500   -6.284900   17.531300
  H    -51.007400   -6.042440   17.444600
  H    -52.281700   -7.081200   18.140300
  C    -52.883500   -6.517510   16.248900
  H    -52.545600   -7.458080   15.831900
  H    -53.920400   -6.810310   16.364200
  H    -52.852100   -5.760630   15.527600
  S    -48.298800   -6.341170   22.365200
  C    -46.584300   -5.906900   22.516600
  C    -46.428400   -4.531310   22.431700
  C    -47.536400   -3.975330   21.765100
  C    -48.637100   -4.824420   21.713600
  H    -45.457100   -4.089020   22.581400
  C    -47.391100   -2.592640   21.171200
  H    -47.570800   -1.825990   21.927900
  H    -48.225500   -2.387940   20.559500
  C    -46.022000   -2.165180   20.331200
  H    -45.071200   -2.184150   20.982400
  H    -46.099200   -1.249650   19.905900
  C    -45.845300   -3.226100   19.202800
  H    -44.965000   -3.100820   18.474500
  H    -46.728100   -3.161010   18.513900
  H    -45.865800   -4.232960   19.611500
  H    -53.413100   -3.904740   20.825200
  H    -45.778100   -6.483890   23.002600

 Total Charge           Charge          ....    0
 Multiplicity           Mult            ....    1
 Number of Electrons    NEL             ....  134
 Basis Dimension        Dim             ....  322

ORBITAL ENERGIES
----------------

  NO   OCC          E(Eh)            E(eV)
   0   2.0000     -88.968370     -2420.9524
   1   2.0000     -88.958670     -2420.6885
   2   2.0000     -10.323286      -280.9109
   3   2.0000     -10.320175      -280.8262
   4   2.0000     -10.318904      -280.7917
   5   2.0000     -10.310637      -280.5667
   6   2.0000     -10.303620      -280.3757
   7   2.0000     -10.301562      -280.3197
   8   2.0000     -10.297924      -280.2208
   9   2.0000     -10.292871      -280.0833
  10   2.0000     -10.292329      -280.0685
  11   2.0000     -10.289397      -279.9887
  12   2.0000     -10.285913      -279.8939
  13   2.0000     -10.284458      -279.8543
  14   2.0000     -10.282000      -279.7875
  15   2.0000     -10.276714      -279.6436
  16   2.0000      -8.083787      -219.9710
  17   2.0000      -8.073720      -219.6971
  18   2.0000      -6.042216      -164.4171
  19   2.0000      -6.038249      -164.3091
  20   2.0000      -6.034503      -164.2072
  21   2.0000      -6.032262      -164.1462
  22   2.0000      -6.028065      -164.0320
  23   2.0000      -6.024540      -163.9361
  24   2.0000      -1.014743       -27.6126
  25   2.0000      -0.986298       -26.8385
  26   2.0000      -0.912849       -24.8399
  27   2.0000      -0.896807       -24.4034
  28   2.0000      -0.876464       -23.8498
  29   2.0000      -0.847849       -23.0711
  30   2.0000      -0.843617       -22.9560
  31   2.0000      -0.819043       -22.2873
  32   2.0000      -0.785066       -21.3627
  33   2.0000      -0.767433       -20.8829
  34   2.0000      -0.717677       -19.5290
  35   2.0000      -0.702693       -19.1213
  36   2.0000      -0.693966       -18.8838
  37   2.0000      -0.663722       -18.0608
  38   2.0000      -0.647590       -17.6218
  39   2.0000      -0.625090       -17.0096
  40   2.0000      -0.593804       -16.1582
  41   2.0000      -0.577550       -15.7159
  42   2.0000      -0.566134       -15.4053
  43   2.0000      -0.546494       -14.8709
  44   2.0000      -0.535887       -14.5822
  45   2.0000      -0.525580       -14.3018
  46   2.0000      -0.516640       -14.0585
  47   2.0000      -0.509976       -13.8772
  48   2.0000      -0.506033       -13.7699
  49   2.0000      -0.502447       -13.6723
  50   2.0000      -0.484918       -13.1953
  51   2.0000      -0.481198       -13.0941
  52   2.0000      -0.471876       -12.8404
  53   2.0000      -0.466393       -12.6912
  54   2.0000      -0.453922       -12.3518
  55   2.0000      -0.452848       -12.3226
  56   2.0000      -0.448799       -12.2124
  57   2.0000      -0.437785       -11.9127
  58   2.0000      -0.430882       -11.7249
  59   2.0000      -0.428063       -11.6482
  60   2.0000      -0.419562       -11.4169
  61   2.0000      -0.414911       -11.2903
  62   2.0000      -0.406007       -11.0480
  63   2.0000      -0.339846        -9.2477
  64   2.0000      -0.327496        -8.9116
  65   2.0000      -0.315815        -8.5938
  66   2.0000      -0.309588        -8.4243
  67   0.0000       0.042430         1.1546
  68   0.0000       0.056218         1.5298
  69   0.0000       0.108923         2.9639
  70   0.0000       0.126221         3.4347
  71   0.0000       0.131993         3.5917

MULLIKEN ATOMIC CHARGES
-----------------------
   0 S :    0.098418
   1 C :   -0.116065
   2 C :   -0.066125
   3 C :    0.057973
   4 C :   -0.184842
   5 H :   -0.019624
   6 C :    0.058401
   7 H :    0.033469
   8 H :    0.000280
   9 C :   -0.061573
  10 H :    0.042917
  11 H :    0.024195
  12 C :   -0.022887
  13 H :    0.023066
  14 H :    0.024548
  15 H :    0.024203
  16 S :    0.139487
  17 C :   -0.114001
  18 C :   -0.020005
  19 C :   -0.042051
  20 C :   -0.157654
  21 H :    0.025586
  22 C :    0.070702
  23 H :    0.036697
  24 H :    0.008777
  25 C :   -0.044026
  26 H :    0.042685
  27 H :    0.016525
  28 C :   -0.099925
  29 H :    0.045189
  30 H :    0.026038
  31 H :    0.045938
  32 H :    0.038318
  33 H :    0.065370
Sum of atomic charges:    0.0000000

LOEWDIN ATOMIC CHARGES
----------------------
   0 S :    0.398173
   1 C :   -0.192844
   2 C :   -0.061331
   3 C :   -0.054729
   4 C :   -0.196090
   5 H :    0.018482
   6 C :   -0.033603
   7 H :    0.035199
   8 H :    0.017926
   9 C :   -0.024534
  10 H :    0.024483
  11 H :    0.018186
  12 C :   -0.061430
  13 H :    0.030807
  14 H :    0.029368
  15 H :    0.016198
  16 S :    0.439450
  17 C :   -0.183924
  18 C :   -0.061651
  19 C :   -0.053076
  20 C :   -0.237604
  21 H :    0.032698
  22 C :   -0.030637
  23 H :    0.036319
  24 H :    0.023828
  25 C :   -0.025075
  26 H :    0.028634
  27 H :    0.009201
  28 C :   -0.080799
  29 H :    0.030469
  30 H :    0.025545
  31 H :    0.023931
  32 H :    0.025036
  33 H :    0.033393

  Mayer bond orders larger than 0.100000
B(  0-S ,  1-C ) :   1.1400 B(  0-S ,  4-C ) :   1.1434 B(  1-C ,  2-C ) :   1.6211
B(  1-C , 32-H ) :   0.9707 B(  2-C ,  3-C ) :   1.2138 B(  2-C ,  6-C ) :   1.0209
B(  3-C ,  4-C ) :   1.6232 B(  3-C ,  5-H ) :   1.0063 B(  4-C , 20-C ) :   1.0047
B(  6-C ,  7-H ) :   0.9315 B(  6-C ,  8-H ) :   0.9466 B(  6-C ,  9-C ) :   1.0509
B(  9-C , 10-H ) :   0.9564 B(  9-C , 11-H ) :   0.9615 B(  9-C , 12-C ) :   1.0911
B( 12-C , 13-H ) :   0.9694 B( 12-C , 14-H ) :   0.9690 B( 12-C , 15-H ) :   0.9784
B( 16-S , 17-C ) :   1.1599 B( 16-S , 20-C ) :   1.1645 B( 17-C , 18-C ) :   1.6096
B( 17-C , 20-C ) :   0.1052 B( 17-C , 33-H ) :   0.9593 B( 18-C , 19-C ) :   1.2497
B( 18-C , 21-H ) :   0.9821 B( 19-C , 20-C ) :   1.5835 B( 19-C , 22-C ) :   1.0529
B( 22-C , 23-H ) :   0.9301 B( 22-C , 24-H ) :   0.9273 B( 22-C , 25-C ) :   1.0516
B( 25-C , 26-H ) :   0.9594 B( 25-C , 27-H ) :   0.9600 B( 25-C , 28-C ) :   1.0592
B( 28-C , 29-H ) :   0.9756 B( 28-C , 30-H ) :   0.9754 B( 28-C , 31-H ) :   0.9766

Dispersion correction           -0.014306080
FINAL SINGLE POINT ENERGY     -1339.839918136882

DIPOLE MOMENT
-------------
                                X             Y             Z
Electronic contribution:     -2.08535      -3.80961      24.31965
Nuclear contribution   :      2.18979       3.93017     -24.86893
                        -----------------------------------------
Total Dipole Moment    :      0.10445       0.12056      -0.54928
                        -----------------------------------------
Magnitude (a.u.)       :      0.57197
Magnitude (Debye)      :      1.45383

Rotational constants in cm-1:     0.019143     0.007651     0.007022
Rotational constants in MHz :   573.895049   229.384671   210.507650

                             ****ORCA TERMINATED NORMALLY****
TOTAL RUN TIME: 0 days 0 hours 0 minutes 21 seconds 358 msec
