                         Program Version 4.2.1 -  RELEASE  -
|  1> ! wB97X-D3 SP def2-SVP
|  2> %pal
|  3> nprocs 24
|  4> end
|  5>
|  6> * xyz 0 1
|  7> S 	 -134.473 	 7.19024 	 -13.6804
|  8> C 	 -134.205 	 8.87411 	 -14.0096
|  9> C 	 -134.173 	 9.61892 	 -12.8444
| 10> C 	 -134.254 	 8.74671 	 -11.6594
| 11> C 	 -134.531 	 7.44867 	 -11.9856
| 12> H 	 -134.136 	 9.01064 	 -10.6406
| 13> C 	 -133.571 	 10.9863 	 -12.8071
| 14> H 	 -132.691 	 10.9097 	 -13.48
| 15> H 	 -133.197 	 11.1035 	 -11.8071
| 16> C 	 -134.563 	 12.2127 	 -13.1512
| 17> H 	 -134.272 	 13.1214 	 -12.6106
| 18> H 	 -134.573 	 12.5432 	 -14.2018
| 19> C 	 -135.977 	 12.0052 	 -12.6616
| 20> H 	 -136.55 	 12.8748 	 -12.978
| 21> H 	 -136.418 	 11.0685 	 -13.021
| 22> H 	 -136.031 	 11.997 	 -11.6148
| 23> S 	 -135.95 	 5.11616 	 -11.5369
| 24> C 	 -135.664 	 4.1805 	 -10.0558
| 25> C 	 -134.843 	 4.90442 	 -9.21628
| 26> C 	 -134.302 	 6.11703 	 -9.80441
| 27> C 	 -134.812 	 6.35842 	 -11.087
| 28> H 	 -134.541 	 4.41552 	 -8.28171
| 29> C 	 -133.222 	 7.0305 	 -9.10525
| 30> H 	 -132.643 	 7.5582 	 -9.86537
| 31> H 	 -132.487 	 6.38305 	 -8.63364
| 32> C 	 -133.719 	 8.02306 	 -8.00431
| 33> H 	 -134.122 	 7.31631 	 -7.29006
| 34> H 	 -134.563 	 8.72146 	 -8.37764
| 35> C 	 -132.685 	 8.75918 	 -7.24156
| 36> H 	 -132.463 	 9.73832 	 -7.75416
| 37> H 	 -131.738 	 8.27999 	 -7.15278
| 38> H 	 -132.973 	 8.97466 	 -6.21079
| 39> H 	 -134.126 	 9.28624 	 -15.0497
| 40> H 	 -136.045 	 3.25247 	 -9.6722
| 41> *
| 42>
| 43>                          ****END OF INPUT****

CARTESIAN COORDINATES (ANGSTROEM)
---------------------------------
  S    -134.473000    7.190240  -13.680400
  C    -134.205000    8.874110  -14.009600
  C    -134.173000    9.618920  -12.844400
  C    -134.254000    8.746710  -11.659400
  C    -134.531000    7.448670  -11.985600
  H    -134.136000    9.010640  -10.640600
  C    -133.571000   10.986300  -12.807100
  H    -132.691000   10.909700  -13.480000
  H    -133.197000   11.103500  -11.807100
  C    -134.563000   12.212700  -13.151200
  H    -134.272000   13.121400  -12.610600
  H    -134.573000   12.543200  -14.201800
  C    -135.977000   12.005200  -12.661600
  H    -136.550000   12.874800  -12.978000
  H    -136.418000   11.068500  -13.021000
  H    -136.031000   11.997000  -11.614800
  S    -135.950000    5.116160  -11.536900
  C    -135.664000    4.180500  -10.055800
  C    -134.843000    4.904420   -9.216280
  C    -134.302000    6.117030   -9.804410
  C    -134.812000    6.358420  -11.087000
  H    -134.541000    4.415520   -8.281710
  C    -133.222000    7.030500   -9.105250
  H    -132.643000    7.558200   -9.865370
  H    -132.487000    6.383050   -8.633640
  C    -133.719000    8.023060   -8.004310
  H    -134.122000    7.316310   -7.290060
  H    -134.563000    8.721460   -8.377640
  C    -132.685000    8.759180   -7.241560
  H    -132.463000    9.738320   -7.754160
  H    -131.738000    8.279990   -7.152780
  H    -132.973000    8.974660   -6.210790
  H    -134.126000    9.286240  -15.049700
  H    -136.045000    3.252470   -9.672200

 Total Charge           Charge          ....    0
 Multiplicity           Mult            ....    1
 Number of Electrons    NEL             ....  134
 Basis Dimension        Dim             ....  322

ORBITAL ENERGIES
----------------

  NO   OCC          E(Eh)            E(eV)
   0   2.0000     -88.969100     -2420.9723
   1   2.0000     -88.965787     -2420.8821
   2   2.0000     -10.329392      -281.0771
   3   2.0000     -10.325430      -280.9692
   4   2.0000     -10.318607      -280.7836
   5   2.0000     -10.317226      -280.7460
   6   2.0000     -10.310531      -280.5638
   7   2.0000     -10.303472      -280.3717
   8   2.0000     -10.298230      -280.2291
   9   2.0000     -10.298113      -280.2259
  10   2.0000     -10.295266      -280.1484
  11   2.0000     -10.294034      -280.1149
  12   2.0000     -10.292775      -280.0806
  13   2.0000     -10.289630      -279.9951
  14   2.0000     -10.279153      -279.7100
  15   2.0000     -10.267329      -279.3882
  16   2.0000      -8.083166      -219.9541
  17   2.0000      -8.081526      -219.9095
  18   2.0000      -6.041843      -164.4069
  19   2.0000      -6.039987      -164.3564
  20   2.0000      -6.037727      -164.2949
  21   2.0000      -6.035847      -164.2438
  22   2.0000      -6.033796      -164.1879
  23   2.0000      -6.032313      -164.1476
  24   2.0000      -1.010754       -27.5040
  25   2.0000      -0.982795       -26.7432
  26   2.0000      -0.908208       -24.7136
  27   2.0000      -0.907198       -24.6861
  28   2.0000      -0.872582       -23.7442
  29   2.0000      -0.854411       -23.2497
  30   2.0000      -0.845090       -22.9961
  31   2.0000      -0.819600       -22.3024
  32   2.0000      -0.782416       -21.2906
  33   2.0000      -0.771104       -20.9828
  34   2.0000      -0.705090       -19.1865
  35   2.0000      -0.700039       -19.0490
  36   2.0000      -0.692388       -18.8408
  37   2.0000      -0.661622       -18.0036
  38   2.0000      -0.637853       -17.3569
  39   2.0000      -0.613981       -16.7073
  40   2.0000      -0.587189       -15.9782
  41   2.0000      -0.571129       -15.5412
  42   2.0000      -0.565615       -15.3912
  43   2.0000      -0.550446       -14.9784
  44   2.0000      -0.545679       -14.8487
  45   2.0000      -0.523362       -14.2414
  46   2.0000      -0.516564       -14.0564
  47   2.0000      -0.514224       -13.9927
  48   2.0000      -0.510459       -13.8903
  49   2.0000      -0.501063       -13.6346
  50   2.0000      -0.492762       -13.4087
  51   2.0000      -0.479461       -13.0468
  52   2.0000      -0.474112       -12.9012
  53   2.0000      -0.465885       -12.6774
  54   2.0000      -0.456017       -12.4088
  55   2.0000      -0.450924       -12.2703
  56   2.0000      -0.440009       -11.9732
  57   2.0000      -0.436811       -11.8862
  58   2.0000      -0.431019       -11.7286
  59   2.0000      -0.426394       -11.6028
  60   2.0000      -0.420133       -11.4324
  61   2.0000      -0.411005       -11.1840
  62   2.0000      -0.409592       -11.1456
  63   2.0000      -0.356741        -9.7074
  64   2.0000      -0.331831        -9.0296
  65   2.0000      -0.328000        -8.9253
  66   2.0000      -0.289195        -7.8694
  67   0.0000       0.025252         0.6871
  68   0.0000       0.078193         2.1277
  69   0.0000       0.103248         2.8095
  70   0.0000       0.114588         3.1181
  71   0.0000       0.127223         3.4619

MULLIKEN ATOMIC CHARGES
-----------------------
   0 S :    0.114848
   1 C :   -0.135806
   2 C :   -0.096918
   3 C :    0.029145
   4 C :   -0.135561
   5 H :   -0.020534
   6 C :    0.065147
   7 H :    0.048476
   8 H :    0.014271
   9 C :   -0.086245
  10 H :    0.023201
  11 H :    0.033208
  12 C :   -0.037779
  13 H :    0.030430
  14 H :    0.047611
  15 H :    0.013953
  16 S :    0.110726
  17 C :   -0.082190
  18 C :   -0.047213
  19 C :   -0.041827
  20 C :   -0.122958
  21 H :    0.026858
  22 C :    0.035602
  23 H :    0.028623
  24 H :    0.018551
  25 C :   -0.091141
  26 H :    0.021383
  27 H :    0.054744
  28 C :   -0.028580
  29 H :    0.030281
  30 H :    0.018557
  31 H :    0.036823
  32 H :    0.074184
  33 H :    0.050130
Sum of atomic charges:   -0.0000000

LOEWDIN ATOMIC CHARGES
----------------------
   0 S :    0.423797
   1 C :   -0.203715
   2 C :   -0.067306
   3 C :   -0.057588
   4 C :   -0.200975
   5 H :    0.023535
   6 C :   -0.032014
   7 H :    0.039839
   8 H :    0.027740
   9 C :   -0.043619
  10 H :    0.025836
  11 H :    0.023246
  12 C :   -0.063936
  13 H :    0.028780
  14 H :    0.026424
  15 H :    0.015771
  16 S :    0.400418
  17 C :   -0.185385
  18 C :   -0.071771
  19 C :   -0.056971
  20 C :   -0.196729
  21 H :    0.033963
  22 C :   -0.032376
  23 H :    0.024350
  24 H :    0.028325
  25 C :   -0.053629
  26 H :    0.024423
  27 H :    0.033346
  28 C :   -0.069157
  29 H :    0.029718
  30 H :    0.021408
  31 H :    0.030167
  32 H :    0.040459
  33 H :    0.033625

  Mayer bond orders larger than 0.100000
B(  0-S ,  1-C ) :   1.1438 B(  0-S ,  4-C ) :   1.1529 B(  1-C ,  2-C ) :   1.6004
B(  1-C , 32-H ) :   0.9640 B(  2-C ,  3-C ) :   1.2172 B(  2-C ,  6-C ) :   1.0243
B(  3-C ,  4-C ) :   1.5749 B(  3-C ,  5-H ) :   0.9974 B(  4-C , 20-C ) :   1.0642
B(  6-C ,  7-H ) :   0.9573 B(  6-C ,  8-H ) :   0.9414 B(  6-C ,  9-C ) :   1.0344
B(  9-C , 10-H ) :   0.9593 B(  9-C , 11-H ) :   0.9623 B(  9-C , 12-C ) :   1.0981
B( 12-C , 13-H ) :   0.9712 B( 12-C , 14-H ) :   0.9637 B( 12-C , 15-H ) :   0.9761
B( 16-S , 17-C ) :   1.1283 B( 16-S , 20-C ) :   1.1358 B( 17-C , 18-C ) :   1.6444
B( 17-C , 33-H ) :   0.9663 B( 18-C , 19-C ) :   1.2365 B( 18-C , 21-H ) :   0.9812
B( 19-C , 20-C ) :   1.5904 B( 19-C , 22-C ) :   1.0363 B( 22-C , 23-H ) :   0.9393
B( 22-C , 24-H ) :   0.9340 B( 22-C , 25-C ) :   1.0554 B( 25-C , 26-H ) :   0.9527
B( 25-C , 27-H ) :   0.9503 B( 25-C , 28-C ) :   1.0881 B( 28-C , 29-H ) :   0.9715
B( 28-C , 30-H ) :   0.9690 B( 28-C , 31-H ) :   0.9739

Dispersion correction           -0.014214193
FINAL SINGLE POINT ENERGY     -1339.871475993377

DIPOLE MOMENT
-------------
                                X             Y             Z
Electronic contribution:     -7.18992     -24.69343     -14.39395
Nuclear contribution   :      7.57432      25.06163      14.87482
                        -----------------------------------------
Total Dipole Moment    :      0.38441       0.36820       0.48087
                        -----------------------------------------
Magnitude (a.u.)       :      0.71734
Magnitude (Debye)      :      1.82332

Rotational constants in cm-1:     0.017124     0.009393     0.006763
Rotational constants in MHz :   513.360940   281.609698   202.745295

                             ****ORCA TERMINATED NORMALLY****
TOTAL RUN TIME: 0 days 0 hours 0 minutes 22 seconds 614 msec
