                         Program Version 4.2.1 -  RELEASE  -
|  1> ! wB97X-D3 SP def2-SVP
|  2> %pal
|  3> nprocs 24
|  4> end
|  5>
|  6> * xyz 0 1
|  7> S 	 -117.752 	 19.6806 	 -109.637
|  8> C 	 -118.559 	 21.0029 	 -110.394
|  9> C 	 -119.179 	 20.6838 	 -111.621
| 10> C 	 -118.962 	 19.2722 	 -111.934
| 11> C 	 -118.143 	 18.6093 	 -111.048
| 12> H 	 -119.232 	 18.7284 	 -112.803
| 13> C 	 -119.855 	 21.6746 	 -112.505
| 14> H 	 -120.699 	 21.9711 	 -111.89
| 15> H 	 -120.345 	 21.0981 	 -113.345
| 16> C 	 -118.979 	 22.9439 	 -112.924
| 17> H 	 -119.632 	 23.7961 	 -113.274
| 18> H 	 -118.426 	 23.1233 	 -111.962
| 19> C 	 -117.957 	 22.5803 	 -114.082
| 20> H 	 -118.276 	 22.9182 	 -115.079
| 21> H 	 -116.976 	 22.9343 	 -113.991
| 22> H 	 -117.901 	 21.4787 	 -114.211
| 23> S 	 -116.314 	 16.9315 	 -112.278
| 24> C 	 -116.034 	 15.3557 	 -111.567
| 25> C 	 -116.965 	 15.0857 	 -110.593
| 26> C 	 -117.737 	 16.2216 	 -110.193
| 27> C 	 -117.636 	 17.225 	 -111.171
| 28> H 	 -116.939 	 14.1217 	 -110.104
| 29> C 	 -118.824 	 16.0917 	 -109.115
| 30> H 	 -119.118 	 16.993 	 -108.564
| 31> H 	 -118.487 	 15.5731 	 -108.206
| 32> C 	 -120.175 	 15.4587 	 -109.698
| 33> H 	 -119.915 	 14.5429 	 -110.328
| 34> H 	 -120.56 	 16.2635 	 -110.277
| 35> C 	 -121.13 	 15.1115 	 -108.551
| 36> H 	 -120.808 	 14.2797 	 -108.022
| 37> H 	 -122.014 	 14.781 	 -109.166
| 38> H 	 -121.407 	 15.9263 	 -107.832
| 39> H 	 -118.69 	 22.0024 	 -109.992
| 40> H 	 -115.318 	 14.6592 	 -112.047
| 41> *
| 42>
| 43>                          ****END OF INPUT****

CARTESIAN COORDINATES (ANGSTROEM)
---------------------------------
  S    -117.752000   19.680600  -109.637000
  C    -118.559000   21.002900  -110.394000
  C    -119.179000   20.683800  -111.621000
  C    -118.962000   19.272200  -111.934000
  C    -118.143000   18.609300  -111.048000
  H    -119.232000   18.728400  -112.803000
  C    -119.855000   21.674600  -112.505000
  H    -120.699000   21.971100  -111.890000
  H    -120.345000   21.098100  -113.345000
  C    -118.979000   22.943900  -112.924000
  H    -119.632000   23.796100  -113.274000
  H    -118.426000   23.123300  -111.962000
  C    -117.957000   22.580300  -114.082000
  H    -118.276000   22.918200  -115.079000
  H    -116.976000   22.934300  -113.991000
  H    -117.901000   21.478700  -114.211000
  S    -116.314000   16.931500  -112.278000
  C    -116.034000   15.355700  -111.567000
  C    -116.965000   15.085700  -110.593000
  C    -117.737000   16.221600  -110.193000
  C    -117.636000   17.225000  -111.171000
  H    -116.939000   14.121700  -110.104000
  C    -118.824000   16.091700  -109.115000
  H    -119.118000   16.993000  -108.564000
  H    -118.487000   15.573100  -108.206000
  C    -120.175000   15.458700  -109.698000
  H    -119.915000   14.542900  -110.328000
  H    -120.560000   16.263500  -110.277000
  C    -121.130000   15.111500  -108.551000
  H    -120.808000   14.279700  -108.022000
  H    -122.014000   14.781000  -109.166000
  H    -121.407000   15.926300  -107.832000
  H    -118.690000   22.002400  -109.992000
  H    -115.318000   14.659200  -112.047000

 Total Charge           Charge          ....    0
 Multiplicity           Mult            ....    1
 Number of Electrons    NEL             ....  134
 Basis Dimension        Dim             ....  322

ORBITAL ENERGIES
----------------

  NO   OCC          E(Eh)            E(eV)
   0   2.0000     -88.966427     -2420.8996
   1   2.0000     -88.965870     -2420.8844
   2   2.0000     -10.329722      -281.0860
   3   2.0000     -10.326958      -281.0108
   4   2.0000     -10.320184      -280.8265
   5   2.0000     -10.312591      -280.6199
   6   2.0000     -10.308830      -280.5175
   7   2.0000     -10.305398      -280.4241
   8   2.0000     -10.303449      -280.3711
   9   2.0000     -10.296448      -280.1806
  10   2.0000     -10.294628      -280.1311
  11   2.0000     -10.293311      -280.0952
  12   2.0000     -10.293177      -280.0916
  13   2.0000     -10.291730      -280.0522
  14   2.0000     -10.278796      -279.7003
  15   2.0000     -10.276146      -279.6281
  16   2.0000      -8.080733      -219.8879
  17   2.0000      -8.080101      -219.8707
  18   2.0000      -6.039177      -164.3344
  19   2.0000      -6.038654      -164.3201
  20   2.0000      -6.035190      -164.2259
  21   2.0000      -6.034809      -164.2155
  22   2.0000      -6.031583      -164.1277
  23   2.0000      -6.030831      -164.1073
  24   2.0000      -1.000823       -27.2338
  25   2.0000      -0.977950       -26.6114
  26   2.0000      -0.901013       -24.5178
  27   2.0000      -0.899611       -24.4796
  28   2.0000      -0.863383       -23.4939
  29   2.0000      -0.849245       -23.1091
  30   2.0000      -0.841007       -22.8850
  31   2.0000      -0.813132       -22.1265
  32   2.0000      -0.778577       -21.1862
  33   2.0000      -0.763539       -20.7770
  34   2.0000      -0.705878       -19.2079
  35   2.0000      -0.697947       -18.9921
  36   2.0000      -0.689125       -18.7520
  37   2.0000      -0.657920       -17.9029
  38   2.0000      -0.638550       -17.3758
  39   2.0000      -0.610853       -16.6222
  40   2.0000      -0.594730       -16.1834
  41   2.0000      -0.569592       -15.4994
  42   2.0000      -0.557558       -15.1719
  43   2.0000      -0.543422       -14.7873
  44   2.0000      -0.533576       -14.5193
  45   2.0000      -0.519330       -14.1317
  46   2.0000      -0.511557       -13.9202
  47   2.0000      -0.507283       -13.8039
  48   2.0000      -0.503207       -13.6930
  49   2.0000      -0.487781       -13.2732
  50   2.0000      -0.487240       -13.2585
  51   2.0000      -0.469548       -12.7771
  52   2.0000      -0.465678       -12.6718
  53   2.0000      -0.463854       -12.6221
  54   2.0000      -0.457539       -12.4503
  55   2.0000      -0.451309       -12.2807
  56   2.0000      -0.437826       -11.9139
  57   2.0000      -0.437495       -11.9048
  58   2.0000      -0.432339       -11.7645
  59   2.0000      -0.423177       -11.5152
  60   2.0000      -0.419358       -11.4113
  61   2.0000      -0.417618       -11.3640
  62   2.0000      -0.411444       -11.1960
  63   2.0000      -0.341039        -9.2801
  64   2.0000      -0.332274        -9.0416
  65   2.0000      -0.319478        -8.6934
  66   2.0000      -0.296238        -8.0610
  67   0.0000       0.034828         0.9477
  68   0.0000       0.057188         1.5562
  69   0.0000       0.106039         2.8855
  70   0.0000       0.115556         3.1444
  71   0.0000       0.131132         3.5683

MULLIKEN ATOMIC CHARGES
-----------------------
   0 S :    0.124227
   1 C :   -0.128195
   2 C :   -0.111070
   3 C :    0.044246
   4 C :   -0.150726
   5 H :   -0.000151
   6 C :    0.033687
   7 H :    0.037163
   8 H :    0.030715
   9 C :   -0.073416
  10 H :    0.054876
  11 H :    0.039422
  12 C :   -0.048801
  13 H :    0.026517
  14 H :    0.029089
  15 H :    0.032643
  16 S :    0.110555
  17 C :   -0.114786
  18 C :   -0.016482
  19 C :   -0.020853
  20 C :   -0.161777
  21 H :    0.022706
  22 C :    0.019615
  23 H :    0.014930
  24 H :    0.016409
  25 C :   -0.085973
  26 H :    0.047588
  27 H :    0.035932
  28 C :   -0.046490
  29 H :    0.022303
  30 H :    0.040094
  31 H :    0.049178
  32 H :    0.052210
  33 H :    0.074615
Sum of atomic charges:    0.0000000

LOEWDIN ATOMIC CHARGES
----------------------
   0 S :    0.394291
   1 C :   -0.211685
   2 C :   -0.066335
   3 C :   -0.059060
   4 C :   -0.176901
   5 H :    0.026678
   6 C :   -0.045834
   7 H :    0.034912
   8 H :    0.033419
   9 C :   -0.035988
  10 H :    0.033213
  11 H :    0.030255
  12 C :   -0.070067
  13 H :    0.026566
  14 H :    0.018631
  15 H :    0.030165
  16 S :    0.410938
  17 C :   -0.186295
  18 C :   -0.069312
  19 C :   -0.050080
  20 C :   -0.209278
  21 H :    0.032095
  22 C :   -0.046978
  23 H :    0.026291
  24 H :    0.027040
  25 C :   -0.030099
  26 H :    0.033458
  27 H :    0.022221
  28 C :   -0.068815
  29 H :    0.013457
  30 H :    0.037496
  31 H :    0.033099
  32 H :    0.027143
  33 H :    0.035358

  Mayer bond orders larger than 0.100000
B(  0-S ,  1-C ) :   1.1489 B(  0-S ,  4-C ) :   1.1160 B(  1-C ,  2-C ) :   1.6137
B(  1-C , 32-H ) :   0.9585 B(  2-C ,  3-C ) :   1.2122 B(  2-C ,  6-C ) :   1.0207
B(  3-C ,  4-C ) :   1.6144 B(  3-C ,  5-H ) :   0.9951 B(  4-C , 20-C ) :   1.0334
B(  6-C ,  7-H ) :   0.9319 B(  6-C ,  8-H ) :   0.9481 B(  6-C ,  9-C ) :   1.0537
B(  9-C , 10-H ) :   0.9617 B(  9-C , 11-H ) :   0.9591 B(  9-C , 12-C ) :   1.0480
B( 12-C , 13-H ) :   0.9780 B( 12-C , 14-H ) :   0.9792 B( 12-C , 15-H ) :   0.9826
B( 16-S , 17-C ) :   1.1607 B( 16-S , 20-C ) :   1.1560 B( 17-C , 18-C ) :   1.6060
B( 17-C , 33-H ) :   0.9626 B( 18-C , 19-C ) :   1.2373 B( 18-C , 21-H ) :   0.9878
B( 19-C , 20-C ) :   1.5588 B( 19-C , 22-C ) :   1.0586 B( 22-C , 23-H ) :   0.9358
B( 22-C , 24-H ) :   0.9429 B( 22-C , 25-C ) :   1.0368 B( 25-C , 26-H ) :   0.9597
B( 25-C , 27-H ) :   0.9599 B( 25-C , 28-C ) :   1.0728 B( 28-C , 29-H ) :   0.9769
B( 28-C , 30-H ) :   0.9722 B( 28-C , 31-H ) :   0.9733

Dispersion correction           -0.014357902
FINAL SINGLE POINT ENERGY     -1339.861109094167

DIPOLE MOMENT
-------------
                                X             Y             Z
Electronic contribution:     15.37681      -4.24742       1.70441
Nuclear contribution   :    -15.71183       4.11271      -1.75101
                        -----------------------------------------
Total Dipole Moment    :     -0.33501      -0.13471      -0.04660
                        -----------------------------------------
Magnitude (a.u.)       :      0.36408
Magnitude (Debye)      :      0.92541

Rotational constants in cm-1:     0.020259     0.007959     0.006596
Rotational constants in MHz :   607.364357   238.603170   197.736972

                             ****ORCA TERMINATED NORMALLY****
TOTAL RUN TIME: 0 days 0 hours 0 minutes 19 seconds 948 msec
