                         Program Version 4.2.1 -  RELEASE  -
|  1> ! wB97X-D3 SP def2-SVP
|  2> %pal
|  3> nprocs 24
|  4> end
|  5>
|  6> * xyz 0 1
|  7> S 	 -105.912 	 20.1107 	 -110.838
|  8> C 	 -104.633 	 19.6219 	 -109.78
|  9> C 	 -103.696 	 18.8449 	 -110.509
| 10> C 	 -104.077 	 18.5622 	 -111.83
| 11> C 	 -105.289 	 19.1733 	 -112.175
| 12> H 	 -103.536 	 17.8408 	 -112.475
| 13> C 	 -102.295 	 18.415 	 -110.047
| 14> H 	 -101.523 	 18.7361 	 -110.713
| 15> H 	 -102.476 	 17.3445 	 -110.155
| 16> C 	 -101.938 	 18.835 	 -108.603
| 17> H 	 -102.742 	 18.633 	 -107.918
| 18> H 	 -101.061 	 18.2938 	 -108.323
| 19> C 	 -101.556 	 20.3492 	 -108.398
| 20> H 	 -102.323 	 21.063 	 -108.646
| 21> H 	 -101.094 	 20.653 	 -107.436
| 22> H 	 -100.73 	 20.5737 	 -109.033
| 23> S 	 -107.713 	 18.4587 	 -113.165
| 24> C 	 -107.906 	 18.0007 	 -114.85
| 25> C 	 -106.716 	 18.2148 	 -115.497
| 26> C 	 -105.603 	 18.6322 	 -114.656
| 27> C 	 -106.042 	 18.9515 	 -113.382
| 28> H 	 -106.65 	 18.1366 	 -116.512
| 29> C 	 -104.249 	 18.9211 	 -115.212
| 30> H 	 -103.949 	 18.2722 	 -116.093
| 31> H 	 -103.515 	 18.9383 	 -114.457
| 32> C 	 -104.114 	 20.3344 	 -115.918
| 33> H 	 -104.709 	 20.5426 	 -116.805
| 34> H 	 -103.048 	 20.3286 	 -116.41
| 35> C 	 -104.18 	 21.5409 	 -114.925
| 36> H 	 -105.225 	 21.7941 	 -114.622
| 37> H 	 -103.825 	 22.5012 	 -115.381
| 38> H 	 -103.682 	 21.3857 	 -114.008
| 39> H 	 -104.531 	 19.891 	 -108.733
| 40> H 	 -108.877 	 17.8159 	 -115.338
| 41> *
| 42>
| 43>                          ****END OF INPUT****

CARTESIAN COORDINATES (ANGSTROEM)
---------------------------------
  S    -105.912000   20.110700  -110.838000
  C    -104.633000   19.621900  -109.780000
  C    -103.696000   18.844900  -110.509000
  C    -104.077000   18.562200  -111.830000
  C    -105.289000   19.173300  -112.175000
  H    -103.536000   17.840800  -112.475000
  C    -102.295000   18.415000  -110.047000
  H    -101.523000   18.736100  -110.713000
  H    -102.476000   17.344500  -110.155000
  C    -101.938000   18.835000  -108.603000
  H    -102.742000   18.633000  -107.918000
  H    -101.061000   18.293800  -108.323000
  C    -101.556000   20.349200  -108.398000
  H    -102.323000   21.063000  -108.646000
  H    -101.094000   20.653000  -107.436000
  H    -100.730000   20.573700  -109.033000
  S    -107.713000   18.458700  -113.165000
  C    -107.906000   18.000700  -114.850000
  C    -106.716000   18.214800  -115.497000
  C    -105.603000   18.632200  -114.656000
  C    -106.042000   18.951500  -113.382000
  H    -106.650000   18.136600  -116.512000
  C    -104.249000   18.921100  -115.212000
  H    -103.949000   18.272200  -116.093000
  H    -103.515000   18.938300  -114.457000
  C    -104.114000   20.334400  -115.918000
  H    -104.709000   20.542600  -116.805000
  H    -103.048000   20.328600  -116.410000
  C    -104.180000   21.540900  -114.925000
  H    -105.225000   21.794100  -114.622000
  H    -103.825000   22.501200  -115.381000
  H    -103.682000   21.385700  -114.008000
  H    -104.531000   19.891000  -108.733000
  H    -108.877000   17.815900  -115.338000

 Total Charge           Charge          ....    0
 Multiplicity           Mult            ....    1
 Number of Electrons    NEL             ....  134
 Basis Dimension        Dim             ....  322

ORBITAL ENERGIES
----------------

  NO   OCC          E(Eh)            E(eV)
   0   2.0000     -88.970586     -2421.0127
   1   2.0000     -88.961239     -2420.7584
   2   2.0000     -10.331228      -281.1270
   3   2.0000     -10.326185      -280.9898
   4   2.0000     -10.319271      -280.8016
   5   2.0000     -10.316023      -280.7133
   6   2.0000     -10.304633      -280.4033
   7   2.0000     -10.302553      -280.3467
   8   2.0000     -10.298522      -280.2370
   9   2.0000     -10.297629      -280.2127
  10   2.0000     -10.295822      -280.1635
  11   2.0000     -10.294652      -280.1317
  12   2.0000     -10.289688      -279.9966
  13   2.0000     -10.289585      -279.9938
  14   2.0000     -10.277074      -279.6534
  15   2.0000     -10.274381      -279.5801
  16   2.0000      -8.085159      -220.0084
  17   2.0000      -8.076069      -219.7610
  18   2.0000      -6.043613      -164.4551
  19   2.0000      -6.039579      -164.3453
  20   2.0000      -6.036108      -164.2509
  21   2.0000      -6.034754      -164.2140
  22   2.0000      -6.030473      -164.0975
  23   2.0000      -6.026698      -163.9948
  24   2.0000      -1.008660       -27.4470
  25   2.0000      -0.983603       -26.7652
  26   2.0000      -0.909667       -24.7533
  27   2.0000      -0.902346       -24.5541
  28   2.0000      -0.868885       -23.6436
  29   2.0000      -0.853837       -23.2341
  30   2.0000      -0.839354       -22.8400
  31   2.0000      -0.809873       -22.0378
  32   2.0000      -0.783804       -21.3284
  33   2.0000      -0.773299       -21.0425
  34   2.0000      -0.712593       -19.3906
  35   2.0000      -0.703548       -19.1445
  36   2.0000      -0.692588       -18.8463
  37   2.0000      -0.664496       -18.0819
  38   2.0000      -0.637371       -17.3438
  39   2.0000      -0.614756       -16.7284
  40   2.0000      -0.598159       -16.2767
  41   2.0000      -0.580319       -15.7913
  42   2.0000      -0.552141       -15.0245
  43   2.0000      -0.549262       -14.9462
  44   2.0000      -0.536203       -14.5908
  45   2.0000      -0.524717       -14.2783
  46   2.0000      -0.520380       -14.1602
  47   2.0000      -0.510554       -13.8929
  48   2.0000      -0.504855       -13.7378
  49   2.0000      -0.500681       -13.6242
  50   2.0000      -0.484728       -13.1901
  51   2.0000      -0.482858       -13.1392
  52   2.0000      -0.468499       -12.7485
  53   2.0000      -0.465933       -12.6787
  54   2.0000      -0.464122       -12.6294
  55   2.0000      -0.449295       -12.2259
  56   2.0000      -0.442678       -12.0459
  57   2.0000      -0.439458       -11.9582
  58   2.0000      -0.431152       -11.7322
  59   2.0000      -0.425148       -11.5689
  60   2.0000      -0.422139       -11.4870
  61   2.0000      -0.414329       -11.2745
  62   2.0000      -0.405164       -11.0251
  63   2.0000      -0.354106        -9.6357
  64   2.0000      -0.328941        -8.9509
  65   2.0000      -0.323708        -8.8085
  66   2.0000      -0.287420        -7.8211
  67   0.0000       0.022534         0.6132
  68   0.0000       0.077349         2.1048
  69   0.0000       0.108657         2.9567
  70   0.0000       0.113290         3.0828
  71   0.0000       0.133167         3.6237

MULLIKEN ATOMIC CHARGES
-----------------------
   0 S :    0.124175
   1 C :   -0.132467
   2 C :   -0.113954
   3 C :   -0.003229
   4 C :   -0.150583
   5 H :    0.039363
   6 C :    0.060098
   7 H :    0.039068
   8 H :    0.043170
   9 C :   -0.050449
  10 H :    0.028028
  11 H :    0.026582
  12 C :   -0.063451
  13 H :    0.034227
  14 H :    0.035177
  15 H :    0.009945
  16 S :    0.087175
  17 C :   -0.094187
  18 C :    0.007356
  19 C :   -0.043769
  20 C :   -0.107529
  21 H :   -0.018489
  22 C :    0.073441
  23 H :    0.040827
  24 H :    0.006929
  25 C :   -0.115801
  26 H :    0.032178
  27 H :    0.033541
  28 C :   -0.058420
  29 H :    0.038750
  30 H :    0.035446
  31 H :    0.026547
  32 H :    0.056681
  33 H :    0.073625
Sum of atomic charges:   -0.0000000

LOEWDIN ATOMIC CHARGES
----------------------
   0 S :    0.426157
   1 C :   -0.219920
   2 C :   -0.060730
   3 C :   -0.070598
   4 C :   -0.195759
   5 H :    0.039765
   6 C :   -0.027812
   7 H :    0.029776
   8 H :    0.040880
   9 C :   -0.035109
  10 H :    0.020267
  11 H :    0.025377
  12 C :   -0.072455
  13 H :    0.020174
  14 H :    0.031427
  15 H :    0.019499
  16 S :    0.396287
  17 C :   -0.185239
  18 C :   -0.054886
  19 C :   -0.055923
  20 C :   -0.196768
  21 H :    0.013439
  22 C :   -0.031628
  23 H :    0.043427
  24 H :    0.020969
  25 C :   -0.041876
  26 H :    0.020266
  27 H :    0.029852
  28 C :   -0.075622
  29 H :    0.029857
  30 H :    0.030588
  31 H :    0.017304
  32 H :    0.029991
  33 H :    0.039024

  Mayer bond orders larger than 0.100000
B(  0-S ,  1-C ) :   1.1404 B(  0-S ,  4-C ) :   1.1714 B(  1-C ,  2-C ) :   1.5751
B(  1-C ,  4-C ) :   0.1031 B(  1-C , 32-H ) :   0.9647 B(  2-C ,  3-C ) :   1.3040
B(  2-C ,  6-C ) :   0.9789 B(  3-C ,  4-C ) :   1.5243 B(  3-C ,  5-H ) :   0.9797
B(  4-C , 20-C ) :   1.0441 B(  6-C ,  7-H ) :   0.9523 B(  6-C ,  8-H ) :   0.9356
B(  6-C ,  9-C ) :   1.0873 B(  9-C , 10-H ) :   0.9564 B(  9-C , 11-H ) :   0.9528
B(  9-C , 12-C ) :   1.0663 B( 12-C , 13-H ) :   0.9788 B( 12-C , 14-H ) :   0.9757
B( 12-C , 15-H ) :   0.9715 B( 16-S , 17-C ) :   1.1408 B( 16-S , 20-C ) :   1.1353
B( 17-C , 18-C ) :   1.6157 B( 17-C , 33-H ) :   0.9640 B( 18-C , 19-C ) :   1.2191
B( 18-C , 21-H ) :   1.0029 B( 19-C , 20-C ) :   1.5858 B( 19-C , 22-C ) :   1.0747
B( 22-C , 23-H ) :   0.9340 B( 22-C , 24-H ) :   0.9333 B( 22-C , 25-C ) :   1.0563
B( 25-C , 26-H ) :   0.9598 B( 25-C , 27-H ) :   0.9578 B( 25-C , 28-C ) :   1.0662
B( 28-C , 29-H ) :   0.9740 B( 28-C , 30-H ) :   0.9744 B( 28-C , 31-H ) :   0.9774

Dispersion correction           -0.014986744
FINAL SINGLE POINT ENERGY     -1339.868378030162

DIPOLE MOMENT
-------------
                                X             Y             Z
Electronic contribution:    -24.16073      -6.27525      -0.39858
Nuclear contribution   :     24.76504       6.17380       0.14463
                        -----------------------------------------
Total Dipole Moment    :      0.60431      -0.10145      -0.25395
                        -----------------------------------------
Magnitude (a.u.)       :      0.66330
Magnitude (Debye)      :      1.68599

Rotational constants in cm-1:     0.022741     0.008164     0.006983
Rotational constants in MHz :   681.743330   244.753710   209.339560

                             ****ORCA TERMINATED NORMALLY****
TOTAL RUN TIME: 0 days 0 hours 0 minutes 20 seconds 944 msec
