                         Program Version 4.2.1 -  RELEASE  -
|  1> ! wB97X-D3 SP def2-SVP
|  2> %pal
|  3> nprocs 24
|  4> end
|  5>
|  6> * xyz 0 1
|  7> S 	 -104.397 	 37.1804 	 -22.293
|  8> C 	 -103.85 	 35.7395 	 -23.08
|  9> C 	 -104.559 	 35.4498 	 -24.2178
| 10> C 	 -105.659 	 36.3774 	 -24.4112
| 11> C 	 -105.705 	 37.3483 	 -23.4436
| 12> H 	 -106.383 	 36.3613 	 -25.207
| 13> C 	 -104.107 	 34.4603 	 -25.2741
| 14> H 	 -103.445 	 34.8922 	 -26.0218
| 15> H 	 -104.93 	 34.0633 	 -25.8424
| 16> C 	 -103.432 	 33.2003 	 -24.7691
| 17> H 	 -102.934 	 32.6576 	 -25.592
| 18> H 	 -102.562 	 33.4729 	 -24.1578
| 19> C 	 -104.36 	 32.1675 	 -24.0607
| 20> H 	 -104.787 	 32.4259 	 -23.1238
| 21> H 	 -105.328 	 32.19 	 -24.5557
| 22> H 	 -103.971 	 31.1493 	 -23.8966
| 23> S 	 -107.229 	 38.8674 	 -21.7859
| 24> C 	 -108.188 	 40.2554 	 -22.343
| 25> C 	 -108.11 	 40.3287 	 -23.7429
| 26> C 	 -107.233 	 39.3632 	 -24.292
| 27> C 	 -106.633 	 38.5242 	 -23.3827
| 28> H 	 -108.661 	 41.0452 	 -24.2777
| 29> C 	 -106.917 	 39.4028 	 -25.8314
| 30> H 	 -105.99 	 38.842 	 -25.8926
| 31> H 	 -106.552 	 40.3638 	 -26.1086
| 32> C 	 -107.927 	 39.0365 	 -26.8984
| 33> H 	 -108.835 	 39.6505 	 -26.819
| 34> H 	 -108.262 	 37.9983 	 -26.759
| 35> C 	 -107.467 	 39.0368 	 -28.3353
| 36> H 	 -107.133 	 40.0036 	 -28.6253
| 37> H 	 -108.309 	 38.61 	 -28.9263
| 38> H 	 -106.62 	 38.474 	 -28.5395
| 39> H 	 -102.943 	 35.1446 	 -22.8209
| 40> H 	 -108.85 	 40.9315 	 -21.7423
| 41> *
| 42>
| 43>                          ****END OF INPUT****

CARTESIAN COORDINATES (ANGSTROEM)
---------------------------------
  S    -104.397000   37.180400  -22.293000
  C    -103.850000   35.739500  -23.080000
  C    -104.559000   35.449800  -24.217800
  C    -105.659000   36.377400  -24.411200
  C    -105.705000   37.348300  -23.443600
  H    -106.383000   36.361300  -25.207000
  C    -104.107000   34.460300  -25.274100
  H    -103.445000   34.892200  -26.021800
  H    -104.930000   34.063300  -25.842400
  C    -103.432000   33.200300  -24.769100
  H    -102.934000   32.657600  -25.592000
  H    -102.562000   33.472900  -24.157800
  C    -104.360000   32.167500  -24.060700
  H    -104.787000   32.425900  -23.123800
  H    -105.328000   32.190000  -24.555700
  H    -103.971000   31.149300  -23.896600
  S    -107.229000   38.867400  -21.785900
  C    -108.188000   40.255400  -22.343000
  C    -108.110000   40.328700  -23.742900
  C    -107.233000   39.363200  -24.292000
  C    -106.633000   38.524200  -23.382700
  H    -108.661000   41.045200  -24.277700
  C    -106.917000   39.402800  -25.831400
  H    -105.990000   38.842000  -25.892600
  H    -106.552000   40.363800  -26.108600
  C    -107.927000   39.036500  -26.898400
  H    -108.835000   39.650500  -26.819000
  H    -108.262000   37.998300  -26.759000
  C    -107.467000   39.036800  -28.335300
  H    -107.133000   40.003600  -28.625300
  H    -108.309000   38.610000  -28.926300
  H    -106.620000   38.474000  -28.539500
  H    -102.943000   35.144600  -22.820900
  H    -108.850000   40.931500  -21.742300

 Total Charge           Charge          ....    0
 Multiplicity           Mult            ....    1
 Number of Electrons    NEL             ....  134
 Basis Dimension        Dim             ....  322

ORBITAL ENERGIES
----------------

  NO   OCC          E(Eh)            E(eV)
   0   2.0000     -88.969857     -2420.9929
   1   2.0000     -88.965963     -2420.8869
   2   2.0000     -10.334315      -281.2110
   3   2.0000     -10.330949      -281.1194
   4   2.0000     -10.325439      -280.9695
   5   2.0000     -10.315378      -280.6957
   6   2.0000     -10.306046      -280.4418
   7   2.0000     -10.303454      -280.3712
   8   2.0000     -10.296802      -280.1902
   9   2.0000     -10.292906      -280.0842
  10   2.0000     -10.292604      -280.0760
  11   2.0000     -10.291711      -280.0517
  12   2.0000     -10.287775      -279.9446
  13   2.0000     -10.286118      -279.8995
  14   2.0000     -10.275194      -279.6023
  15   2.0000     -10.272882      -279.5393
  16   2.0000      -8.084751      -219.9973
  17   2.0000      -8.080408      -219.8791
  18   2.0000      -6.043273      -164.4458
  19   2.0000      -6.039287      -164.3374
  20   2.0000      -6.038951      -164.3282
  21   2.0000      -6.035426      -164.2323
  22   2.0000      -6.034823      -164.2159
  23   2.0000      -6.031262      -164.1190
  24   2.0000      -1.008232       -27.4354
  25   2.0000      -0.985790       -26.8247
  26   2.0000      -0.914132       -24.8748
  27   2.0000      -0.908940       -24.7335
  28   2.0000      -0.865911       -23.5626
  29   2.0000      -0.854638       -23.2559
  30   2.0000      -0.846030       -23.0216
  31   2.0000      -0.815805       -22.1992
  32   2.0000      -0.786456       -21.4005
  33   2.0000      -0.777806       -21.1652
  34   2.0000      -0.710602       -19.3365
  35   2.0000      -0.703017       -19.1301
  36   2.0000      -0.692277       -18.8378
  37   2.0000      -0.667773       -18.1710
  38   2.0000      -0.638771       -17.3818
  39   2.0000      -0.614643       -16.7253
  40   2.0000      -0.593119       -16.1396
  41   2.0000      -0.578909       -15.7529
  42   2.0000      -0.564362       -15.3571
  43   2.0000      -0.559551       -15.2262
  44   2.0000      -0.536110       -14.5883
  45   2.0000      -0.534219       -14.5368
  46   2.0000      -0.514193       -13.9919
  47   2.0000      -0.508061       -13.8251
  48   2.0000      -0.505216       -13.7476
  49   2.0000      -0.493409       -13.4263
  50   2.0000      -0.491744       -13.3810
  51   2.0000      -0.482447       -13.1281
  52   2.0000      -0.478163       -13.0115
  53   2.0000      -0.468050       -12.7363
  54   2.0000      -0.462127       -12.5751
  55   2.0000      -0.445799       -12.1308
  56   2.0000      -0.443595       -12.0708
  57   2.0000      -0.439277       -11.9533
  58   2.0000      -0.432586       -11.7713
  59   2.0000      -0.430695       -11.7198
  60   2.0000      -0.416533       -11.3344
  61   2.0000      -0.410863       -11.1802
  62   2.0000      -0.410138       -11.1604
  63   2.0000      -0.352058        -9.5800
  64   2.0000      -0.332655        -9.0520
  65   2.0000      -0.331817        -9.0292
  66   2.0000      -0.295437        -8.0392
  67   0.0000       0.029908         0.8138
  68   0.0000       0.073689         2.0052
  69   0.0000       0.108934         2.9642
  70   0.0000       0.114580         3.1179
  71   0.0000       0.128238         3.4895

MULLIKEN ATOMIC CHARGES
-----------------------
   0 S :    0.123892
   1 C :   -0.129699
   2 C :   -0.080248
   3 C :    0.025278
   4 C :   -0.125476
   5 H :    0.008430
   6 C :    0.069885
   7 H :    0.046956
   8 H :    0.015389
   9 C :   -0.092354
  10 H :    0.028403
  11 H :    0.018120
  12 C :   -0.037091
  13 H :    0.014998
  14 H :    0.012173
  15 H :    0.045684
  16 S :    0.095188
  17 C :   -0.108672
  18 C :   -0.017824
  19 C :   -0.029029
  20 C :   -0.145500
  21 H :    0.002935
  22 C :    0.066407
  23 H :    0.008403
  24 H :    0.008473
  25 C :   -0.063288
  26 H :    0.027759
  27 H :    0.018699
  28 C :   -0.019101
  29 H :    0.014759
  30 H :    0.046175
  31 H :    0.008913
  32 H :    0.065383
  33 H :    0.075979
Sum of atomic charges:    0.0000000

LOEWDIN ATOMIC CHARGES
----------------------
   0 S :    0.415609
   1 C :   -0.205961
   2 C :   -0.065932
   3 C :   -0.057771
   4 C :   -0.192139
   5 H :    0.030855
   6 C :   -0.031934
   7 H :    0.038490
   8 H :    0.026714
   9 C :   -0.043384
  10 H :    0.029476
  11 H :    0.016972
  12 C :   -0.077186
  13 H :    0.022099
  14 H :    0.027283
  15 H :    0.031470
  16 S :    0.403762
  17 C :   -0.186599
  18 C :   -0.063464
  19 C :   -0.059912
  20 C :   -0.197285
  21 H :    0.024009
  22 C :   -0.035363
  23 H :    0.027842
  24 H :    0.024675
  25 C :   -0.044473
  26 H :    0.024870
  27 H :    0.022062
  28 C :   -0.056993
  29 H :    0.018312
  30 H :    0.038349
  31 H :    0.015146
  32 H :    0.038633
  33 H :    0.041768

  Mayer bond orders larger than 0.100000
B(  0-S ,  1-C ) :   1.1319 B(  0-S ,  4-C ) :   1.1544 B(  1-C ,  2-C ) :   1.6366
B(  1-C , 32-H ) :   0.9576 B(  2-C ,  3-C ) :   1.2213 B(  2-C ,  6-C ) :   1.0163
B(  3-C ,  4-C ) :   1.5936 B(  3-C ,  5-H ) :   1.0036 B(  4-C , 20-C ) :   0.9962
B(  6-C ,  7-H ) :   0.9350 B(  6-C ,  8-H ) :   0.9411 B(  6-C ,  9-C ) :   1.0912
B(  9-C , 10-H ) :   0.9530 B(  9-C , 11-H ) :   0.9498 B(  9-C , 12-C ) :   1.0618
B( 12-C , 13-H ) :   0.9705 B( 12-C , 14-H ) :   0.9684 B( 12-C , 15-H ) :   0.9787
B( 16-S , 17-C ) :   1.1528 B( 16-S , 20-C ) :   1.1483 B( 17-C , 18-C ) :   1.5908
B( 17-C , 20-C ) :   0.1043 B( 17-C , 33-H ) :   0.9631 B( 18-C , 19-C ) :   1.2541
B( 18-C , 21-H ) :   0.9998 B( 19-C , 20-C ) :   1.6130 B( 19-C , 22-C ) :   1.0207
B( 22-C , 23-H ) :   0.9350 B( 22-C , 24-H ) :   0.9365 B( 22-C , 25-C ) :   1.0658
B( 25-C , 26-H ) :   0.9507 B( 25-C , 27-H ) :   0.9530 B( 25-C , 28-C ) :   1.0895
B( 28-C , 29-H ) :   0.9715 B( 28-C , 30-H ) :   0.9733 B( 28-C , 31-H ) :   0.9724

Dispersion correction           -0.013678874
FINAL SINGLE POINT ENERGY     -1339.872724264898

DIPOLE MOMENT
-------------
                                X             Y             Z
Electronic contribution:     -0.62145      13.28134      24.75868
Nuclear contribution   :      0.61202     -13.36659     -25.45983
                        -----------------------------------------
Total Dipole Moment    :     -0.00943      -0.08525      -0.70116
                        -----------------------------------------
Magnitude (a.u.)       :      0.70638
Magnitude (Debye)      :      1.79548

Rotational constants in cm-1:     0.018114     0.008285     0.006122
Rotational constants in MHz :   543.045435   248.378075   183.535655

                             ****ORCA TERMINATED NORMALLY****
TOTAL RUN TIME: 0 days 0 hours 0 minutes 20 seconds 996 msec
