                         Program Version 4.2.1 -  RELEASE  -
|  1> ! wB97X-D3 SP def2-SVP
|  2> %pal
|  3> nprocs 24
|  4> end
|  5>
|  6> * xyz 0 1
|  7> S 	 -52.4209 	 24.8219 	 32.836
|  8> C 	 -50.6545 	 24.9073 	 32.8003
|  9> C 	 -50.066 	 23.6481 	 32.4909
| 10> C 	 -51.1253 	 22.6273 	 32.4287
| 11> C 	 -52.3838 	 23.1222 	 32.6119
| 12> H 	 -51.0261 	 21.5435 	 32.1909
| 13> C 	 -48.5675 	 23.3699 	 32.4449
| 14> H 	 -48.4621 	 22.3412 	 32.4813
| 15> H 	 -48.1675 	 23.8367 	 33.34
| 16> C 	 -47.8011 	 23.7906 	 31.1893
| 17> H 	 -47.7773 	 24.9197 	 31.3443
| 18> H 	 -46.7498 	 23.3349 	 31.1262
| 19> C 	 -48.4267 	 23.4978 	 29.7971
| 20> H 	 -47.7383 	 23.578 	 29.0121
| 21> H 	 -48.8312 	 22.4725 	 29.7738
| 22> H 	 -49.2348 	 24.2271 	 29.6401
| 23> S 	 -54.1774 	 22.2921 	 34.5691
| 24> C 	 -55.4492 	 21.1905 	 34.2317
| 25> C 	 -55.4388 	 20.7446 	 32.9108
| 26> C 	 -54.3227 	 21.3364 	 32.1626
| 27> C 	 -53.5824 	 22.2863 	 32.9086
| 28> H 	 -56.1497 	 19.9954 	 32.6422
| 29> C 	 -54.0434 	 21.0407 	 30.7287
| 30> H 	 -54.2494 	 19.983 	 30.5097
| 31> H 	 -53.0209 	 21.0737 	 30.6237
| 32> C 	 -54.7625 	 21.9888 	 29.7421
| 33> H 	 -54.804 	 22.9927 	 30.1392
| 34> H 	 -55.8206 	 21.6554 	 29.6356
| 35> C 	 -54.32 	 21.9175 	 28.2521
| 36> H 	 -54.8501 	 22.5379 	 27.4816
| 37> H 	 -54.4285 	 20.8316 	 27.885
| 38> H 	 -53.2357 	 22.2388 	 28.1436
| 39> H 	 -49.9997 	 25.7603 	 32.9668
| 40> H 	 -56.2545 	 20.8263 	 34.7971
| 41> *
| 42>
| 43>                          ****END OF INPUT****

CARTESIAN COORDINATES (ANGSTROEM)
---------------------------------
  S    -52.420900   24.821900   32.836000
  C    -50.654500   24.907300   32.800300
  C    -50.066000   23.648100   32.490900
  C    -51.125300   22.627300   32.428700
  C    -52.383800   23.122200   32.611900
  H    -51.026100   21.543500   32.190900
  C    -48.567500   23.369900   32.444900
  H    -48.462100   22.341200   32.481300
  H    -48.167500   23.836700   33.340000
  C    -47.801100   23.790600   31.189300
  H    -47.777300   24.919700   31.344300
  H    -46.749800   23.334900   31.126200
  C    -48.426700   23.497800   29.797100
  H    -47.738300   23.578000   29.012100
  H    -48.831200   22.472500   29.773800
  H    -49.234800   24.227100   29.640100
  S    -54.177400   22.292100   34.569100
  C    -55.449200   21.190500   34.231700
  C    -55.438800   20.744600   32.910800
  C    -54.322700   21.336400   32.162600
  C    -53.582400   22.286300   32.908600
  H    -56.149700   19.995400   32.642200
  C    -54.043400   21.040700   30.728700
  H    -54.249400   19.983000   30.509700
  H    -53.020900   21.073700   30.623700
  C    -54.762500   21.988800   29.742100
  H    -54.804000   22.992700   30.139200
  H    -55.820600   21.655400   29.635600
  C    -54.320000   21.917500   28.252100
  H    -54.850100   22.537900   27.481600
  H    -54.428500   20.831600   27.885000
  H    -53.235700   22.238800   28.143600
  H    -49.999700   25.760300   32.966800
  H    -56.254500   20.826300   34.797100

 Total Charge           Charge          ....    0
 Multiplicity           Mult            ....    1
 Number of Electrons    NEL             ....  134
 Basis Dimension        Dim             ....  322

ORBITAL ENERGIES
----------------

  NO   OCC          E(Eh)            E(eV)
   0   2.0000     -88.972200     -2421.0567
   1   2.0000     -88.966389     -2420.8985
   2   2.0000     -10.330924      -281.1187
   3   2.0000     -10.329251      -281.0732
   4   2.0000     -10.321927      -280.8739
   5   2.0000     -10.312777      -280.6249
   6   2.0000     -10.311823      -280.5990
   7   2.0000     -10.308822      -280.5173
   8   2.0000     -10.301416      -280.3158
   9   2.0000     -10.298373      -280.2330
  10   2.0000     -10.294183      -280.1190
  11   2.0000     -10.290394      -280.0158
  12   2.0000     -10.290347      -280.0146
  13   2.0000     -10.287742      -279.9437
  14   2.0000     -10.283573      -279.8302
  15   2.0000     -10.276293      -279.6322
  16   2.0000      -8.086837      -220.0540
  17   2.0000      -8.081099      -219.8979
  18   2.0000      -6.045393      -164.5035
  19   2.0000      -6.041332      -164.3930
  20   2.0000      -6.039613      -164.3462
  21   2.0000      -6.037573      -164.2907
  22   2.0000      -6.035473      -164.2336
  23   2.0000      -6.031971      -164.1383
  24   2.0000      -1.004258       -27.3273
  25   2.0000      -0.980628       -26.6842
  26   2.0000      -0.912095       -24.8194
  27   2.0000      -0.905767       -24.6472
  28   2.0000      -0.863588       -23.4994
  29   2.0000      -0.846298       -23.0289
  30   2.0000      -0.841439       -22.8967
  31   2.0000      -0.816530       -22.2189
  32   2.0000      -0.787893       -21.4396
  33   2.0000      -0.768845       -20.9213
  34   2.0000      -0.701178       -19.0800
  35   2.0000      -0.697216       -18.9722
  36   2.0000      -0.691601       -18.8194
  37   2.0000      -0.657203       -17.8834
  38   2.0000      -0.637953       -17.3596
  39   2.0000      -0.612204       -16.6589
  40   2.0000      -0.589231       -16.0338
  41   2.0000      -0.578381       -15.7385
  42   2.0000      -0.560746       -15.2587
  43   2.0000      -0.553944       -15.0736
  44   2.0000      -0.547341       -14.8939
  45   2.0000      -0.518109       -14.0985
  46   2.0000      -0.515077       -14.0160
  47   2.0000      -0.505138       -13.7455
  48   2.0000      -0.500856       -13.6290
  49   2.0000      -0.499981       -13.6052
  50   2.0000      -0.488486       -13.2924
  51   2.0000      -0.480146       -13.0654
  52   2.0000      -0.469971       -12.7886
  53   2.0000      -0.466581       -12.6963
  54   2.0000      -0.461145       -12.5484
  55   2.0000      -0.450622       -12.2621
  56   2.0000      -0.442352       -12.0370
  57   2.0000      -0.440822       -11.9954
  58   2.0000      -0.430552       -11.7159
  59   2.0000      -0.422259       -11.4903
  60   2.0000      -0.415781       -11.3140
  61   2.0000      -0.409393       -11.1402
  62   2.0000      -0.406003       -11.0479
  63   2.0000      -0.341651        -9.2968
  64   2.0000      -0.328445        -8.9375
  65   2.0000      -0.325554        -8.8588
  66   2.0000      -0.301977        -8.2172
  67   0.0000       0.034202         0.9307
  68   0.0000       0.063060         1.7160
  69   0.0000       0.113202         3.0804
  70   0.0000       0.115416         3.1406
  71   0.0000       0.121199         3.2980

MULLIKEN ATOMIC CHARGES
-----------------------
   0 S :    0.132593
   1 C :   -0.122087
   2 C :   -0.138908
   3 C :    0.041038
   4 C :   -0.175100
   5 H :    0.035571
   6 C :    0.133144
   7 H :   -0.001742
   8 H :    0.042686
   9 C :   -0.146503
  10 H :    0.032695
  11 H :    0.049755
  12 C :   -0.026605
  13 H :    0.026508
  14 H :    0.026974
  15 H :    0.043299
  16 S :    0.125314
  17 C :   -0.064017
  18 C :   -0.043173
  19 C :   -0.075354
  20 C :   -0.159855
  21 H :    0.014357
  22 C :    0.139108
  23 H :    0.014892
  24 H :   -0.015772
  25 C :   -0.059873
  26 H :    0.036765
  27 H :    0.029863
  28 C :   -0.109900
  29 H :    0.047834
  30 H :    0.038440
  31 H :    0.041503
  32 H :    0.050884
  33 H :    0.035665
Sum of atomic charges:    0.0000000

LOEWDIN ATOMIC CHARGES
----------------------
   0 S :    0.422474
   1 C :   -0.199638
   2 C :   -0.054227
   3 C :   -0.063203
   4 C :   -0.217543
   5 H :    0.039253
   6 C :   -0.029837
   7 H :    0.018974
   8 H :    0.038549
   9 C :   -0.049136
  10 H :    0.025813
  11 H :    0.033046
  12 C :   -0.063956
  13 H :    0.018457
  14 H :    0.025649
  15 H :    0.030618
  16 S :    0.422626
  17 C :   -0.193645
  18 C :   -0.071038
  19 C :   -0.047585
  20 C :   -0.203553
  21 H :    0.028856
  22 C :   -0.031550
  23 H :    0.032992
  24 H :    0.015898
  25 C :   -0.039802
  26 H :    0.023796
  27 H :    0.029222
  28 C :   -0.084156
  29 H :    0.030940
  30 H :    0.030777
  31 H :    0.026231
  32 H :    0.029825
  33 H :    0.024873

  Mayer bond orders larger than 0.100000
B(  0-S ,  1-C ) :   1.1405 B(  0-S ,  4-C ) :   1.1539 B(  1-C ,  2-C ) :   1.6053
B(  1-C , 32-H ) :   0.9668 B(  2-C ,  3-C ) :   1.2299 B(  2-C ,  6-C ) :   1.0161
B(  3-C ,  4-C ) :   1.6077 B(  3-C ,  5-H ) :   0.9772 B(  4-C , 20-C ) :   0.9977
B(  6-C ,  7-H ) :   0.9297 B(  6-C ,  8-H ) :   0.9477 B(  6-C ,  9-C ) :   1.0584
B(  9-C , 10-H ) :   0.9618 B(  9-C , 11-H ) :   0.9601 B(  9-C , 12-C ) :   1.0747
B( 12-C , 13-H ) :   0.9762 B( 12-C , 14-H ) :   0.9761 B( 12-C , 15-H ) :   0.9709
B( 16-S , 17-C ) :   1.1661 B( 16-S , 20-C ) :   1.1427 B( 17-C , 18-C ) :   1.6197
B( 17-C , 33-H ) :   0.9666 B( 18-C , 19-C ) :   1.2329 B( 18-C , 21-H ) :   0.9940
B( 19-C , 20-C ) :   1.5901 B( 19-C , 22-C ) :   1.0617 B( 22-C , 23-H ) :   0.9244
B( 22-C , 24-H ) :   0.9210 B( 22-C , 25-C ) :   1.0512 B( 25-C , 26-H ) :   0.9622
B( 25-C , 27-H ) :   0.9557 B( 25-C , 28-C ) :   1.0662 B( 28-C , 29-H ) :   0.9760
B( 28-C , 30-H ) :   0.9741 B( 28-C , 31-H ) :   0.9764

Dispersion correction           -0.014363201
FINAL SINGLE POINT ENERGY     -1339.862384869775

DIPOLE MOMENT
-------------
                                X             Y             Z
Electronic contribution:    -12.28910       5.39280      23.85072
Nuclear contribution   :     12.57586      -5.73476     -24.15294
                        -----------------------------------------
Total Dipole Moment    :      0.28676      -0.34196      -0.30223
                        -----------------------------------------
Magnitude (a.u.)       :      0.53899
Magnitude (Debye)      :      1.37001

Rotational constants in cm-1:     0.018113     0.008812     0.006879
Rotational constants in MHz :   543.001528   264.179887   206.240893

                             ****ORCA TERMINATED NORMALLY****
TOTAL RUN TIME: 0 days 0 hours 0 minutes 21 seconds 494 msec
