                         Program Version 4.2.1 -  RELEASE  -
|  1> ! wB97X-D3 SP def2-SVP
|  2> %pal
|  3> nprocs 24
|  4> end
|  5>
|  6> * xyz 0 1
|  7> S 	 -83.5463 	 -42.208 	 -86.8746
|  8> C 	 -82.4982 	 -40.8894 	 -86.3915
|  9> C 	 -82.7132 	 -39.7859 	 -87.1979
| 10> C 	 -83.7832 	 -39.9958 	 -88.1233
| 11> C 	 -84.3326 	 -41.3055 	 -88.1051
| 12> H 	 -84.0602 	 -39.2425 	 -88.8041
| 13> C 	 -81.8393 	 -38.6134 	 -87.2784
| 14> H 	 -82.1801 	 -38.1167 	 -88.1802
| 15> H 	 -80.7698 	 -38.8758 	 -87.3619
| 16> C 	 -82.0287 	 -37.6185 	 -86.2238
| 17> H 	 -83.0741 	 -37.2775 	 -86.1124
| 18> H 	 -81.6066 	 -38.0413 	 -85.2967
| 19> C 	 -81.1987 	 -36.3314 	 -86.4684
| 20> H 	 -81.519 	 -35.8377 	 -87.3684
| 21> H 	 -81.3052 	 -35.573 	 -85.6825
| 22> H 	 -80.1261 	 -36.478 	 -86.5085
| 23> S 	 -84.9939 	 -41.52 	 -90.7675
| 24> C 	 -86.5058 	 -42.3933 	 -91.2136
| 25> C 	 -86.8863 	 -43.1812 	 -90.1473
| 26> C 	 -86.1836 	 -42.8873 	 -88.94
| 27> C 	 -85.2186 	 -41.8585 	 -89.0927
| 28> H 	 -87.6193 	 -43.9639 	 -90.2916
| 29> C 	 -86.6634 	 -43.5684 	 -87.6701
| 30> H 	 -87.7235 	 -43.7442 	 -87.8035
| 31> H 	 -86.6393 	 -42.911 	 -86.8719
| 32> C 	 -85.9723 	 -44.8379 	 -87.2719
| 33> H 	 -86.5434 	 -45.2739 	 -86.4047
| 34> H 	 -85.0308 	 -44.5953 	 -86.8359
| 35> C 	 -85.8817 	 -45.8486 	 -88.38
| 36> H 	 -86.8254 	 -46.1645 	 -88.7878
| 37> H 	 -85.4208 	 -46.776 	 -88.0959
| 38> H 	 -85.2304 	 -45.4494 	 -89.1315
| 39> H 	 -81.6805 	 -40.9319 	 -85.7506
| 40> H 	 -86.7876 	 -42.6173 	 -92.2628
| 41> *
| 42>
| 43>                          ****END OF INPUT****

CARTESIAN COORDINATES (ANGSTROEM)
---------------------------------
  S    -83.546300  -42.208000  -86.874600
  C    -82.498200  -40.889400  -86.391500
  C    -82.713200  -39.785900  -87.197900
  C    -83.783200  -39.995800  -88.123300
  C    -84.332600  -41.305500  -88.105100
  H    -84.060200  -39.242500  -88.804100
  C    -81.839300  -38.613400  -87.278400
  H    -82.180100  -38.116700  -88.180200
  H    -80.769800  -38.875800  -87.361900
  C    -82.028700  -37.618500  -86.223800
  H    -83.074100  -37.277500  -86.112400
  H    -81.606600  -38.041300  -85.296700
  C    -81.198700  -36.331400  -86.468400
  H    -81.519000  -35.837700  -87.368400
  H    -81.305200  -35.573000  -85.682500
  H    -80.126100  -36.478000  -86.508500
  S    -84.993900  -41.520000  -90.767500
  C    -86.505800  -42.393300  -91.213600
  C    -86.886300  -43.181200  -90.147300
  C    -86.183600  -42.887300  -88.940000
  C    -85.218600  -41.858500  -89.092700
  H    -87.619300  -43.963900  -90.291600
  C    -86.663400  -43.568400  -87.670100
  H    -87.723500  -43.744200  -87.803500
  H    -86.639300  -42.911000  -86.871900
  C    -85.972300  -44.837900  -87.271900
  H    -86.543400  -45.273900  -86.404700
  H    -85.030800  -44.595300  -86.835900
  C    -85.881700  -45.848600  -88.380000
  H    -86.825400  -46.164500  -88.787800
  H    -85.420800  -46.776000  -88.095900
  H    -85.230400  -45.449400  -89.131500
  H    -81.680500  -40.931900  -85.750600
  H    -86.787600  -42.617300  -92.262800

 Total Charge           Charge          ....    0
 Multiplicity           Mult            ....    1
 Number of Electrons    NEL             ....  134
 Basis Dimension        Dim             ....  322

ORBITAL ENERGIES
----------------

  NO   OCC          E(Eh)            E(eV)
   0   2.0000     -88.972264     -2421.0584
   1   2.0000     -88.966877     -2420.9118
   2   2.0000     -10.332482      -281.1611
   3   2.0000     -10.330101      -281.0964
   4   2.0000     -10.320904      -280.8461
   5   2.0000     -10.310002      -280.5494
   6   2.0000     -10.302708      -280.3509
   7   2.0000     -10.296608      -280.1849
   8   2.0000     -10.294961      -280.1401
   9   2.0000     -10.293243      -280.0934
  10   2.0000     -10.285978      -279.8957
  11   2.0000     -10.285093      -279.8716
  12   2.0000     -10.278340      -279.6878
  13   2.0000     -10.278028      -279.6794
  14   2.0000     -10.275580      -279.6128
  15   2.0000     -10.265881      -279.3488
  16   2.0000      -8.086530      -220.0457
  17   2.0000      -8.081076      -219.8972
  18   2.0000      -6.045040      -164.4939
  19   2.0000      -6.040900      -164.3812
  20   2.0000      -6.039669      -164.3477
  21   2.0000      -6.037525      -164.2894
  22   2.0000      -6.035793      -164.2423
  23   2.0000      -6.031628      -164.1289
  24   2.0000      -1.008891       -27.4533
  25   2.0000      -0.984841       -26.7989
  26   2.0000      -0.926922       -25.2228
  27   2.0000      -0.914562       -24.8865
  28   2.0000      -0.873482       -23.7686
  29   2.0000      -0.853420       -23.2227
  30   2.0000      -0.842217       -22.9179
  31   2.0000      -0.814404       -22.1611
  32   2.0000      -0.788045       -21.4438
  33   2.0000      -0.776278       -21.1236
  34   2.0000      -0.712990       -19.4015
  35   2.0000      -0.701624       -19.0922
  36   2.0000      -0.689525       -18.7629
  37   2.0000      -0.664298       -18.0765
  38   2.0000      -0.641444       -17.4546
  39   2.0000      -0.618512       -16.8306
  40   2.0000      -0.595734       -16.2107
  41   2.0000      -0.578751       -15.7486
  42   2.0000      -0.571833       -15.5604
  43   2.0000      -0.559168       -15.2157
  44   2.0000      -0.545476       -14.8432
  45   2.0000      -0.525619       -14.3028
  46   2.0000      -0.522286       -14.2121
  47   2.0000      -0.512572       -13.9478
  48   2.0000      -0.506888       -13.7931
  49   2.0000      -0.502473       -13.6730
  50   2.0000      -0.490266       -13.3408
  51   2.0000      -0.480808       -13.0835
  52   2.0000      -0.473464       -12.8836
  53   2.0000      -0.468699       -12.7540
  54   2.0000      -0.461307       -12.5528
  55   2.0000      -0.445920       -12.1341
  56   2.0000      -0.440658       -11.9909
  57   2.0000      -0.437315       -11.8999
  58   2.0000      -0.431713       -11.7475
  59   2.0000      -0.429082       -11.6759
  60   2.0000      -0.422861       -11.5066
  61   2.0000      -0.411103       -11.1867
  62   2.0000      -0.407110       -11.0780
  63   2.0000      -0.352956        -9.6044
  64   2.0000      -0.332744        -9.0544
  65   2.0000      -0.328110        -8.9283
  66   2.0000      -0.286364        -7.7924
  67   0.0000       0.017475         0.4755
  68   0.0000       0.070748         1.9252
  69   0.0000       0.106859         2.9078
  70   0.0000       0.116885         3.1806
  71   0.0000       0.118746         3.2312

MULLIKEN ATOMIC CHARGES
-----------------------
   0 S :    0.112152
   1 C :   -0.077846
   2 C :   -0.095254
   3 C :    0.017466
   4 C :   -0.128889
   5 H :   -0.004252
   6 C :    0.079911
   7 H :    0.003059
   8 H :    0.039229
   9 C :   -0.076816
  10 H :    0.039301
  11 H :    0.023959
  12 C :   -0.048501
  13 H :    0.021594
  14 H :    0.030889
  15 H :    0.023469
  16 S :    0.102766
  17 C :   -0.108327
  18 C :   -0.034529
  19 C :   -0.075887
  20 C :   -0.119357
  21 H :    0.025233
  22 C :    0.099740
  23 H :    0.016088
  24 H :    0.003218
  25 C :   -0.057430
  26 H :    0.026448
  27 H :    0.017666
  28 C :   -0.026156
  29 H :    0.018051
  30 H :    0.019743
  31 H :    0.039830
  32 H :    0.020809
  33 H :    0.072625
Sum of atomic charges:    0.0000000

LOEWDIN ATOMIC CHARGES
----------------------
   0 S :    0.444533
   1 C :   -0.190883
   2 C :   -0.058289
   3 C :   -0.060898
   4 C :   -0.204473
   5 H :    0.019979
   6 C :   -0.038543
   7 H :    0.030024
   8 H :    0.038353
   9 C :   -0.037756
  10 H :    0.031002
  11 H :    0.022999
  12 C :   -0.067984
  13 H :    0.019119
  14 H :    0.027313
  15 H :    0.021461
  16 S :    0.403703
  17 C :   -0.184283
  18 C :   -0.062512
  19 C :   -0.059436
  20 C :   -0.203775
  21 H :    0.032472
  22 C :   -0.032287
  23 H :    0.030844
  24 H :    0.019890
  25 C :   -0.039770
  26 H :    0.029135
  27 H :    0.008331
  28 C :   -0.063186
  29 H :    0.020600
  30 H :    0.024471
  31 H :    0.026805
  32 H :    0.016287
  33 H :    0.036757

  Mayer bond orders larger than 0.100000
B(  0-S ,  1-C ) :   1.1418 B(  0-S ,  4-C ) :   1.1707 B(  1-C ,  2-C ) :   1.5751
B(  1-C , 32-H ) :   0.9762 B(  2-C ,  3-C ) :   1.2911 B(  2-C ,  6-C ) :   1.0276
B(  3-C ,  4-C ) :   1.4862 B(  3-C ,  5-H ) :   1.0003 B(  4-C , 20-C ) :   1.0986
B(  6-C ,  7-H ) :   0.9309 B(  6-C ,  8-H ) :   0.9359 B(  6-C ,  9-C ) :   1.0811
B(  9-C , 10-H ) :   0.9538 B(  9-C , 11-H ) :   0.9528 B(  9-C , 12-C ) :   1.0842
B( 12-C , 13-H ) :   0.9748 B( 12-C , 14-H ) :   0.9749 B( 12-C , 15-H ) :   0.9731
B( 16-S , 17-C ) :   1.1345 B( 16-S , 20-C ) :   1.1539 B( 17-C , 18-C ) :   1.6026
B( 17-C , 20-C ) :   0.1003 B( 17-C , 33-H ) :   0.9612 B( 18-C , 19-C ) :   1.2642
B( 18-C , 21-H ) :   0.9867 B( 19-C , 20-C ) :   1.5230 B( 19-C , 22-C ) :   1.0355
B( 22-C , 23-H ) :   0.9359 B( 22-C , 24-H ) :   0.9269 B( 22-C , 25-C ) :   1.0821
B( 25-C , 26-H ) :   0.9496 B( 25-C , 27-H ) :   0.9489 B( 25-C , 28-C ) :   1.0887
B( 28-C , 29-H ) :   0.9724 B( 28-C , 30-H ) :   0.9692 B( 28-C , 31-H ) :   0.9670

Dispersion correction           -0.014439314
FINAL SINGLE POINT ENERGY     -1339.873680960517

DIPOLE MOMENT
-------------
                                X             Y             Z
Electronic contribution:     -3.77082      -4.54972      -9.53414
Nuclear contribution   :      3.92053       4.53354       9.60592
                        -----------------------------------------
Total Dipole Moment    :      0.14970      -0.01618       0.07178
                        -----------------------------------------
Magnitude (a.u.)       :      0.16681
Magnitude (Debye)      :      0.42399

Rotational constants in cm-1:     0.026748     0.007279     0.006044
Rotational constants in MHz :   801.875939   218.209700   181.194952

                             ****ORCA TERMINATED NORMALLY****
TOTAL RUN TIME: 0 days 0 hours 0 minutes 20 seconds 382 msec
