                         Program Version 4.2.1 -  RELEASE  -
|  1> ! wB97X-D3 SP def2-SVP
|  2> %pal
|  3> nprocs 24
|  4> end
|  5>
|  6> * xyz 0 1
|  7> S 	 -88.7636 	 -29.3562 	 -60.828
|  8> C 	 -87.9586 	 -27.8939 	 -60.2851
|  9> C 	 -88.2943 	 -27.6958 	 -58.944
| 10> C 	 -89.2299 	 -28.6452 	 -58.3569
| 11> C 	 -89.676 	 -29.5795 	 -59.3422
| 12> H 	 -89.475 	 -28.7594 	 -57.3364
| 13> C 	 -87.5892 	 -26.7267 	 -58.021
| 14> H 	 -86.5102 	 -26.7639 	 -58.2799
| 15> H 	 -87.7034 	 -27.0611 	 -56.9966
| 16> C 	 -87.8693 	 -25.2379 	 -57.9694
| 17> H 	 -87.0736 	 -24.8029 	 -57.3477
| 18> H 	 -87.7471 	 -24.803 	 -58.9252
| 19> C 	 -89.3768 	 -25.0934 	 -57.4172
| 20> H 	 -89.5141 	 -25.385 	 -56.4026
| 21> H 	 -89.771 	 -24.1089 	 -57.6121
| 22> H 	 -90.0578 	 -25.7015 	 -58.1014
| 23> S 	 -90.4122 	 -32.1137 	 -59.9512
| 24> C 	 -91.8621 	 -32.8231 	 -59.2948
| 25> C 	 -92.4396 	 -31.8886 	 -58.412
| 26> C 	 -91.7171 	 -30.6916 	 -58.2341
| 27> C 	 -90.6088 	 -30.649 	 -59.0578
| 28> H 	 -93.3504 	 -32.2377 	 -57.9822
| 29> C 	 -92.1798 	 -29.6973 	 -57.1866
| 30> H 	 -91.6164 	 -28.7238 	 -57.2905
| 31> H 	 -91.777 	 -30.1272 	 -56.273
| 32> C 	 -93.6799 	 -29.4075 	 -56.9822
| 33> H 	 -93.7074 	 -28.5766 	 -56.2682
| 34> H 	 -94.2172 	 -30.2607 	 -56.5603
| 35> C 	 -94.365 	 -29.0403 	 -58.2758
| 36> H 	 -94.0526 	 -28.1001 	 -58.6948
| 37> H 	 -95.4444 	 -28.886 	 -58.0319
| 38> H 	 -94.2189 	 -29.8663 	 -59.0258
| 39> H 	 -87.1037 	 -27.4074 	 -60.6754
| 40> H 	 -92.2709 	 -33.7971 	 -59.4375
| 41> *
| 42>
| 43>                          ****END OF INPUT****

CARTESIAN COORDINATES (ANGSTROEM)
---------------------------------
  S    -88.763600  -29.356200  -60.828000
  C    -87.958600  -27.893900  -60.285100
  C    -88.294300  -27.695800  -58.944000
  C    -89.229900  -28.645200  -58.356900
  C    -89.676000  -29.579500  -59.342200
  H    -89.475000  -28.759400  -57.336400
  C    -87.589200  -26.726700  -58.021000
  H    -86.510200  -26.763900  -58.279900
  H    -87.703400  -27.061100  -56.996600
  C    -87.869300  -25.237900  -57.969400
  H    -87.073600  -24.802900  -57.347700
  H    -87.747100  -24.803000  -58.925200
  C    -89.376800  -25.093400  -57.417200
  H    -89.514100  -25.385000  -56.402600
  H    -89.771000  -24.108900  -57.612100
  H    -90.057800  -25.701500  -58.101400
  S    -90.412200  -32.113700  -59.951200
  C    -91.862100  -32.823100  -59.294800
  C    -92.439600  -31.888600  -58.412000
  C    -91.717100  -30.691600  -58.234100
  C    -90.608800  -30.649000  -59.057800
  H    -93.350400  -32.237700  -57.982200
  C    -92.179800  -29.697300  -57.186600
  H    -91.616400  -28.723800  -57.290500
  H    -91.777000  -30.127200  -56.273000
  C    -93.679900  -29.407500  -56.982200
  H    -93.707400  -28.576600  -56.268200
  H    -94.217200  -30.260700  -56.560300
  C    -94.365000  -29.040300  -58.275800
  H    -94.052600  -28.100100  -58.694800
  H    -95.444400  -28.886000  -58.031900
  H    -94.218900  -29.866300  -59.025800
  H    -87.103700  -27.407400  -60.675400
  H    -92.270900  -33.797100  -59.437500

 Total Charge           Charge          ....    0
 Multiplicity           Mult            ....    1
 Number of Electrons    NEL             ....  134
 Basis Dimension        Dim             ....  322

ORBITAL ENERGIES
----------------

  NO   OCC          E(Eh)            E(eV)
   0   2.0000     -88.971100     -2421.0267
   1   2.0000     -88.967466     -2420.9278
   2   2.0000     -10.337069      -281.2860
   3   2.0000     -10.327644      -281.0295
   4   2.0000     -10.318884      -280.7911
   5   2.0000     -10.312945      -280.6295
   6   2.0000     -10.306305      -280.4488
   7   2.0000     -10.304663      -280.4041
   8   2.0000     -10.296571      -280.1840
   9   2.0000     -10.295873      -280.1649
  10   2.0000     -10.293558      -280.1019
  11   2.0000     -10.289150      -279.9820
  12   2.0000     -10.288082      -279.9529
  13   2.0000     -10.286584      -279.9122
  14   2.0000     -10.280832      -279.7557
  15   2.0000     -10.276679      -279.6426
  16   2.0000      -8.084891      -220.0011
  17   2.0000      -8.082636      -219.9397
  18   2.0000      -6.043656      -164.4562
  19   2.0000      -6.041146      -164.3879
  20   2.0000      -6.039381      -164.3399
  21   2.0000      -6.036931      -164.2733
  22   2.0000      -6.035568      -164.2362
  23   2.0000      -6.033522      -164.1805
  24   2.0000      -1.009874       -27.4801
  25   2.0000      -0.982122       -26.7249
  26   2.0000      -0.913070       -24.8459
  27   2.0000      -0.908717       -24.7275
  28   2.0000      -0.870880       -23.6978
  29   2.0000      -0.853836       -23.2341
  30   2.0000      -0.838476       -22.8161
  31   2.0000      -0.812282       -22.1033
  32   2.0000      -0.782777       -21.3004
  33   2.0000      -0.773441       -21.0464
  34   2.0000      -0.710932       -19.3454
  35   2.0000      -0.706520       -19.2254
  36   2.0000      -0.693524       -18.8717
  37   2.0000      -0.663695       -18.0601
  38   2.0000      -0.639328       -17.3970
  39   2.0000      -0.613833       -16.7033
  40   2.0000      -0.594642       -16.1810
  41   2.0000      -0.576617       -15.6905
  42   2.0000      -0.555609       -15.1189
  43   2.0000      -0.547450       -14.8969
  44   2.0000      -0.542005       -14.7487
  45   2.0000      -0.538552       -14.6547
  46   2.0000      -0.523014       -14.2319
  47   2.0000      -0.511484       -13.9182
  48   2.0000      -0.510074       -13.8798
  49   2.0000      -0.498413       -13.5625
  50   2.0000      -0.493488       -13.4285
  51   2.0000      -0.482452       -13.1282
  52   2.0000      -0.468663       -12.7530
  53   2.0000      -0.464004       -12.6262
  54   2.0000      -0.457633       -12.4528
  55   2.0000      -0.448555       -12.2058
  56   2.0000      -0.439370       -11.9559
  57   2.0000      -0.432915       -11.7802
  58   2.0000      -0.430852       -11.7241
  59   2.0000      -0.423038       -11.5114
  60   2.0000      -0.419157       -11.4058
  61   2.0000      -0.415884       -11.3168
  62   2.0000      -0.412671       -11.2294
  63   2.0000      -0.356306        -9.6956
  64   2.0000      -0.332881        -9.0581
  65   2.0000      -0.325868        -8.8673
  66   2.0000      -0.283531        -7.7153
  67   0.0000       0.017274         0.4700
  68   0.0000       0.077766         2.1161
  69   0.0000       0.103496         2.8163
  70   0.0000       0.121183         3.2976
  71   0.0000       0.128483         3.4962

MULLIKEN ATOMIC CHARGES
-----------------------
   0 S :    0.110620
   1 C :   -0.084253
   2 C :   -0.087300
   3 C :   -0.003201
   4 C :   -0.111229
   5 H :    0.016376
   6 C :    0.011411
   7 H :    0.026495
   8 H :    0.017024
   9 C :   -0.024225
  10 H :    0.034680
  11 H :    0.015168
  12 C :   -0.079536
  13 H :    0.034266
  14 H :    0.027826
  15 H :    0.045505
  16 S :    0.109800
  17 C :   -0.088473
  18 C :   -0.057190
  19 C :   -0.025554
  20 C :   -0.156130
  21 H :    0.009211
  22 C :    0.035134
  23 H :    0.031872
  24 H :    0.041203
  25 C :   -0.056438
  26 H :    0.032101
  27 H :    0.030202
  28 C :   -0.062630
  29 H :    0.028902
  30 H :    0.035017
  31 H :    0.052724
  32 H :    0.040614
  33 H :    0.050009
Sum of atomic charges:   -0.0000000

LOEWDIN ATOMIC CHARGES
----------------------
   0 S :    0.408216
   1 C :   -0.206903
   2 C :   -0.055989
   3 C :   -0.066152
   4 C :   -0.182748
   5 H :    0.023953
   6 C :   -0.041414
   7 H :    0.031699
   8 H :    0.026960
   9 C :   -0.030572
  10 H :    0.027747
  11 H :    0.015550
  12 C :   -0.070196
  13 H :    0.018910
  14 H :    0.020912
  15 H :    0.036753
  16 S :    0.421663
  17 C :   -0.187142
  18 C :   -0.069547
  19 C :   -0.057566
  20 C :   -0.204803
  21 H :    0.026342
  22 C :   -0.039062
  23 H :    0.034819
  24 H :    0.036422
  25 C :   -0.041901
  26 H :    0.029617
  27 H :    0.023004
  28 C :   -0.068932
  29 H :    0.021643
  30 H :    0.029831
  31 H :    0.033649
  32 H :    0.027027
  33 H :    0.028209

  Mayer bond orders larger than 0.100000
B(  0-S ,  1-C ) :   1.1178 B(  0-S ,  4-C ) :   1.1629 B(  1-C ,  2-C ) :   1.6001
B(  1-C , 32-H ) :   0.9706 B(  2-C ,  3-C ) :   1.2470 B(  2-C ,  6-C ) :   1.0260
B(  3-C ,  4-C ) :   1.5091 B(  3-C ,  5-H ) :   0.9944 B(  4-C , 20-C ) :   1.0938
B(  6-C ,  7-H ) :   0.9387 B(  6-C ,  8-H ) :   0.9489 B(  6-C ,  9-C ) :   1.0778
B(  9-C , 10-H ) :   0.9556 B(  9-C , 11-H ) :   0.9557 B(  9-C , 12-C ) :   1.0592
B( 12-C , 13-H ) :   0.9796 B( 12-C , 14-H ) :   0.9772 B( 12-C , 15-H ) :   0.9755
B( 16-S , 17-C ) :   1.1612 B( 16-S , 20-C ) :   1.1447 B( 17-C , 18-C ) :   1.5906
B( 17-C , 20-C ) :   0.1014 B( 17-C , 33-H ) :   0.9723 B( 18-C , 19-C ) :   1.2512
B( 18-C , 21-H ) :   0.9951 B( 19-C , 20-C ) :   1.5573 B( 19-C , 22-C ) :   1.0309
B( 22-C , 23-H ) :   0.9268 B( 22-C , 24-H ) :   0.9291 B( 22-C , 25-C ) :   1.0786
B( 25-C , 26-H ) :   0.9509 B( 25-C , 27-H ) :   0.9472 B( 25-C , 28-C ) :   1.0903
B( 28-C , 29-H ) :   0.9748 B( 28-C , 30-H ) :   0.9728 B( 28-C , 31-H ) :   0.9684

Dispersion correction           -0.014432065
FINAL SINGLE POINT ENERGY     -1339.868867932972

DIPOLE MOMENT
-------------
                                X             Y             Z
Electronic contribution:      9.70780     -21.11208     -16.85918
Nuclear contribution   :     -9.86171      21.30232      17.50150
                        -----------------------------------------
Total Dipole Moment    :     -0.15391       0.19024       0.64232
                        -----------------------------------------
Magnitude (a.u.)       :      0.68736
Magnitude (Debye)      :      1.74712

Rotational constants in cm-1:     0.018582     0.009303     0.006724
Rotational constants in MHz :   557.078507   278.908741   201.579411

                             ****ORCA TERMINATED NORMALLY****
TOTAL RUN TIME: 0 days 0 hours 0 minutes 20 seconds 876 msec
