                         Program Version 4.2.1 -  RELEASE  -
|  1> ! wB97X-D3 SP def2-SVP
|  2> %pal
|  3> nprocs 24
|  4> end
|  5>
|  6> * xyz 0 1
|  7> S 	 4.36005 	 -26.1204 	 -112.529
|  8> C 	 4.07786 	 -24.9519 	 -111.34
|  9> C 	 3.61826 	 -23.7606 	 -111.932
| 10> C 	 3.3927 	 -23.8106 	 -113.338
| 11> C 	 3.64661 	 -25.0946 	 -113.758
| 12> H 	 2.9308 	 -22.9618 	 -113.836
| 13> C 	 3.2257 	 -22.536 	 -111.114
| 14> H 	 3.28904 	 -21.7887 	 -111.877
| 15> H 	 3.99453 	 -22.1853 	 -110.371
| 16> C 	 1.7934 	 -22.2901 	 -110.51
| 17> H 	 1.46309 	 -23.1969 	 -109.961
| 18> H 	 1.89257 	 -21.64 	 -109.712
| 19> C 	 0.685952 	 -21.8917 	 -111.521
| 20> H 	 -0.281494 	 -21.7642 	 -110.969
| 21> H 	 0.790926 	 -20.9071 	 -112.117
| 22> H 	 0.557349 	 -22.7167 	 -112.228
| 23> S 	 1.92295 	 -26.2053 	 -115.488
| 24> C 	 2.28742 	 -26.2123 	 -117.199
| 25> C 	 3.61436 	 -26.0048 	 -117.473
| 26> C 	 4.26598 	 -25.438 	 -116.299
| 27> C 	 3.43084 	 -25.5425 	 -115.136
| 28> H 	 3.92865 	 -25.9788 	 -118.485
| 29> C 	 5.67717 	 -25.0477 	 -116.251
| 30> H 	 5.79655 	 -25.2625 	 -115.126
| 31> H 	 5.68567 	 -23.9632 	 -116.377
| 32> C 	 6.76428 	 -25.6768 	 -117.169
| 33> H 	 7.76506 	 -25.2205 	 -116.912
| 34> H 	 6.60131 	 -25.6003 	 -118.242
| 35> C 	 6.82848 	 -27.1633 	 -117.009
| 36> H 	 7.50979 	 -27.6553 	 -117.697
| 37> H 	 5.97185 	 -27.6509 	 -117.458
| 38> H 	 7.02003 	 -27.6363 	 -116.025
| 39> H 	 4.31666 	 -25.0285 	 -110.325
| 40> H 	 1.82579 	 -26.8152 	 -117.924
| 41> *
| 42>
| 43>                          ****END OF INPUT****

CARTESIAN COORDINATES (ANGSTROEM)
---------------------------------
  S      4.360050  -26.120400  -112.529000
  C      4.077860  -24.951900  -111.340000
  C      3.618260  -23.760600  -111.932000
  C      3.392700  -23.810600  -113.338000
  C      3.646610  -25.094600  -113.758000
  H      2.930800  -22.961800  -113.836000
  C      3.225700  -22.536000  -111.114000
  H      3.289040  -21.788700  -111.877000
  H      3.994530  -22.185300  -110.371000
  C      1.793400  -22.290100  -110.510000
  H      1.463090  -23.196900  -109.961000
  H      1.892570  -21.640000  -109.712000
  C      0.685952  -21.891700  -111.521000
  H     -0.281494  -21.764200  -110.969000
  H      0.790926  -20.907100  -112.117000
  H      0.557349  -22.716700  -112.228000
  S      1.922950  -26.205300  -115.488000
  C      2.287420  -26.212300  -117.199000
  C      3.614360  -26.004800  -117.473000
  C      4.265980  -25.438000  -116.299000
  C      3.430840  -25.542500  -115.136000
  H      3.928650  -25.978800  -118.485000
  C      5.677170  -25.047700  -116.251000
  H      5.796550  -25.262500  -115.126000
  H      5.685670  -23.963200  -116.377000
  C      6.764280  -25.676800  -117.169000
  H      7.765060  -25.220500  -116.912000
  H      6.601310  -25.600300  -118.242000
  C      6.828480  -27.163300  -117.009000
  H      7.509790  -27.655300  -117.697000
  H      5.971850  -27.650900  -117.458000
  H      7.020030  -27.636300  -116.025000
  H      4.316660  -25.028500  -110.325000
  H      1.825790  -26.815200  -117.924000

 Total Charge           Charge          ....    0
 Multiplicity           Mult            ....    1
 Number of Electrons    NEL             ....  134
 Basis Dimension        Dim             ....  322

ORBITAL ENERGIES
----------------

  NO   OCC          E(Eh)            E(eV)
   0   2.0000     -88.972119     -2421.0544
   1   2.0000     -88.964303     -2420.8418
   2   2.0000     -10.329361      -281.0762
   3   2.0000     -10.318956      -280.7931
   4   2.0000     -10.308471      -280.5078
   5   2.0000     -10.304461      -280.3987
   6   2.0000     -10.302992      -280.3587
   7   2.0000     -10.300189      -280.2824
   8   2.0000     -10.297301      -280.2038
   9   2.0000     -10.294307      -280.1223
  10   2.0000     -10.290616      -280.0219
  11   2.0000     -10.289576      -279.9936
  12   2.0000     -10.289239      -279.9844
  13   2.0000     -10.289094      -279.9805
  14   2.0000     -10.287589      -279.9395
  15   2.0000     -10.269724      -279.4534
  16   2.0000      -8.087356      -220.0682
  17   2.0000      -8.080027      -219.8687
  18   2.0000      -6.045700      -164.5119
  19   2.0000      -6.041648      -164.4016
  20   2.0000      -6.038416      -164.3137
  21   2.0000      -6.038363      -164.3122
  22   2.0000      -6.034397      -164.2043
  23   2.0000      -6.030916      -164.1096
  24   2.0000      -1.011720       -27.5303
  25   2.0000      -0.988235       -26.8912
  26   2.0000      -0.909799       -24.7569
  27   2.0000      -0.902354       -24.5543
  28   2.0000      -0.873590       -23.7716
  29   2.0000      -0.853017       -23.2118
  30   2.0000      -0.851053       -23.1583
  31   2.0000      -0.819496       -22.2996
  32   2.0000      -0.778134       -21.1741
  33   2.0000      -0.763600       -20.7786
  34   2.0000      -0.708198       -19.2711
  35   2.0000      -0.705945       -19.2097
  36   2.0000      -0.694528       -18.8991
  37   2.0000      -0.653439       -17.7810
  38   2.0000      -0.647889       -17.6300
  39   2.0000      -0.616712       -16.7816
  40   2.0000      -0.585901       -15.9432
  41   2.0000      -0.568484       -15.4692
  42   2.0000      -0.555651       -15.1200
  43   2.0000      -0.547113       -14.8877
  44   2.0000      -0.538198       -14.6451
  45   2.0000      -0.529350       -14.4043
  46   2.0000      -0.520185       -14.1550
  47   2.0000      -0.508882       -13.8474
  48   2.0000      -0.506064       -13.7707
  49   2.0000      -0.495913       -13.4945
  50   2.0000      -0.488676       -13.2975
  51   2.0000      -0.473984       -12.8978
  52   2.0000      -0.472945       -12.8695
  53   2.0000      -0.469738       -12.7822
  54   2.0000      -0.451872       -12.2961
  55   2.0000      -0.446584       -12.1522
  56   2.0000      -0.439426       -11.9574
  57   2.0000      -0.437668       -11.9096
  58   2.0000      -0.433117       -11.7857
  59   2.0000      -0.424503       -11.5513
  60   2.0000      -0.414908       -11.2902
  61   2.0000      -0.409648       -11.1471
  62   2.0000      -0.407926       -11.1002
  63   2.0000      -0.343559        -9.3487
  64   2.0000      -0.333824        -9.0838
  65   2.0000      -0.310969        -8.4619
  66   2.0000      -0.302236        -8.2243
  67   0.0000       0.045175         1.2293
  68   0.0000       0.050963         1.3868
  69   0.0000       0.105537         2.8718
  70   0.0000       0.117030         3.1846
  71   0.0000       0.132325         3.6007

MULLIKEN ATOMIC CHARGES
-----------------------
   0 S :    0.143871
   1 C :   -0.080916
   2 C :   -0.112336
   3 C :    0.072397
   4 C :   -0.194835
   5 H :    0.028512
   6 C :    0.030811
   7 H :   -0.001199
   8 H :    0.036155
   9 C :   -0.012869
  10 H :    0.023885
  11 H :    0.007382
  12 C :   -0.106263
  13 H :    0.041481
  14 H :    0.046220
  15 H :    0.047763
  16 S :    0.127280
  17 C :   -0.059496
  18 C :   -0.054912
  19 C :   -0.054275
  20 C :   -0.186508
  21 H :    0.021358
  22 C :    0.050599
  23 H :    0.039389
  24 H :    0.039330
  25 C :   -0.036545
  26 H :    0.045218
  27 H :    0.029549
  28 C :   -0.064398
  29 H :    0.011772
  30 H :    0.014437
  31 H :    0.040859
  32 H :    0.026648
  33 H :    0.039637
Sum of atomic charges:   -0.0000000

LOEWDIN ATOMIC CHARGES
----------------------
   0 S :    0.442643
   1 C :   -0.208395
   2 C :   -0.064114
   3 C :   -0.049700
   4 C :   -0.205440
   5 H :    0.040909
   6 C :   -0.044862
   7 H :    0.023342
   8 H :    0.036708
   9 C :   -0.037305
  10 H :    0.028775
  11 H :    0.013866
  12 C :   -0.079470
  13 H :    0.032474
  14 H :    0.031966
  15 H :    0.027065
  16 S :    0.443375
  17 C :   -0.193542
  18 C :   -0.065588
  19 C :   -0.051817
  20 C :   -0.237382
  21 H :    0.027990
  22 C :   -0.050380
  23 H :    0.043902
  24 H :    0.036070
  25 C :   -0.040687
  26 H :    0.036159
  27 H :    0.028768
  28 C :   -0.080524
  29 H :    0.025057
  30 H :    0.024904
  31 H :    0.027100
  32 H :    0.018870
  33 H :    0.019261

  Mayer bond orders larger than 0.100000
B(  0-S ,  1-C ) :   1.1540 B(  0-S ,  4-C ) :   1.1761 B(  1-C ,  2-C ) :   1.5728
B(  1-C , 32-H ) :   0.9795 B(  2-C ,  3-C ) :   1.2731 B(  2-C ,  6-C ) :   1.0280
B(  3-C ,  4-C ) :   1.5412 B(  3-C ,  5-H ) :   0.9927 B(  4-C , 20-C ) :   0.9924
B(  6-C ,  7-H ) :   0.9371 B(  6-C ,  8-H ) :   0.9443 B(  6-C ,  9-C ) :   1.0548
B(  9-C , 10-H ) :   0.9541 B(  9-C , 11-H ) :   0.9534 B(  9-C , 12-C ) :   1.0742
B( 12-C , 13-H ) :   0.9728 B( 12-C , 14-H ) :   0.9741 B( 12-C , 15-H ) :   0.9768
B( 16-S , 17-C ) :   1.1653 B( 16-S , 20-C ) :   1.1813 B( 17-C , 18-C ) :   1.6313
B( 17-C , 33-H ) :   0.9541 B( 18-C , 19-C ) :   1.2457 B( 18-C , 21-H ) :   0.9808
B( 19-C , 20-C ) :   1.5612 B( 19-C , 22-C ) :   1.0390 B( 22-C , 23-H ) :   0.9354
B( 22-C , 24-H ) :   0.9162 B( 22-C , 25-C ) :   1.0736 B( 25-C , 26-H ) :   0.9539
B( 25-C , 27-H ) :   0.9477 B( 25-C , 28-C ) :   1.0866 B( 28-C , 29-H ) :   0.9657
B( 28-C , 30-H ) :   0.9637 B( 28-C , 31-H ) :   0.9763

Dispersion correction           -0.014670972
FINAL SINGLE POINT ENERGY     -1339.837861258146

DIPOLE MOMENT
-------------
                                X             Y             Z
Electronic contribution:     -4.92373     -11.56553      -0.14473
Nuclear contribution   :      5.10148      11.85142       0.13534
                        -----------------------------------------
Total Dipole Moment    :      0.17775       0.28589      -0.00939
                        -----------------------------------------
Magnitude (a.u.)       :      0.33677
Magnitude (Debye)      :      0.85601

Rotational constants in cm-1:     0.022903     0.007741     0.006806
Rotational constants in MHz :   686.624681   232.056640   204.042935

                             ****ORCA TERMINATED NORMALLY****
TOTAL RUN TIME: 0 days 0 hours 0 minutes 21 seconds 532 msec
