                         Program Version 4.2.1 -  RELEASE  -
|  1> ! wB97X-D3 SP def2-SVP
|  2> %pal
|  3> nprocs 24
|  4> end
|  5>
|  6> * xyz 0 1
|  7> S 	 -68.4453 	 17.9535 	 -71.7258
|  8> C 	 -66.8253 	 17.8285 	 -71.1543
|  9> C 	 -65.9221 	 17.9328 	 -72.2039
| 10> C 	 -66.4939 	 18.2918 	 -73.4725
| 11> C 	 -67.868 	 18.5198 	 -73.3743
| 12> H 	 -65.9788 	 18.3649 	 -74.4295
| 13> C 	 -64.4714 	 17.75 	 -71.9338
| 14> H 	 -64.3613 	 18.3648 	 -71.0317
| 15> H 	 -63.8906 	 18.2974 	 -72.6727
| 16> C 	 -64.0241 	 16.1931 	 -71.7718
| 17> H 	 -64.7911 	 15.8364 	 -71.0431
| 18> H 	 -64.2008 	 15.6003 	 -72.7466
| 19> C 	 -62.5994 	 16.0336 	 -71.2121
| 20> H 	 -61.9082 	 16.4215 	 -71.9757
| 21> H 	 -62.4877 	 16.7166 	 -70.3459
| 22> H 	 -62.3106 	 15.0559 	 -70.7302
| 23> S 	 -69.9699 	 17.6057 	 -74.8335
| 24> C 	 -70.8894 	 18.5598 	 -75.8569
| 25> C 	 -70.4474 	 19.8624 	 -75.7623
| 26> C 	 -69.2878 	 20.0168 	 -74.989
| 27> C 	 -68.8465 	 18.8537 	 -74.4028
| 28> H 	 -71.0496 	 20.6565 	 -76.3427
| 29> C 	 -68.5451 	 21.3634 	 -74.8278
| 30> H 	 -67.8388 	 21.3335 	 -73.9391
| 31> H 	 -69.2607 	 22.2435 	 -74.6432
| 32> C 	 -67.7839 	 21.645 	 -76.142
| 33> H 	 -67.6119 	 22.789 	 -76.2195
| 34> H 	 -68.4868 	 21.2656 	 -76.8957
| 35> C 	 -66.432 	 20.9847 	 -76.2262
| 36> H 	 -66.5245 	 19.9216 	 -76.1207
| 37> H 	 -65.8332 	 21.4002 	 -75.4418
| 38> H 	 -65.9801 	 21.2185 	 -77.1546
| 39> H 	 -66.5164 	 17.4344 	 -70.2179
| 40> H 	 -71.6708 	 18.3251 	 -76.5344
| 41> *
| 42>
| 43>                          ****END OF INPUT****

CARTESIAN COORDINATES (ANGSTROEM)
---------------------------------
  S    -68.445300   17.953500  -71.725800
  C    -66.825300   17.828500  -71.154300
  C    -65.922100   17.932800  -72.203900
  C    -66.493900   18.291800  -73.472500
  C    -67.868000   18.519800  -73.374300
  H    -65.978800   18.364900  -74.429500
  C    -64.471400   17.750000  -71.933800
  H    -64.361300   18.364800  -71.031700
  H    -63.890600   18.297400  -72.672700
  C    -64.024100   16.193100  -71.771800
  H    -64.791100   15.836400  -71.043100
  H    -64.200800   15.600300  -72.746600
  C    -62.599400   16.033600  -71.212100
  H    -61.908200   16.421500  -71.975700
  H    -62.487700   16.716600  -70.345900
  H    -62.310600   15.055900  -70.730200
  S    -69.969900   17.605700  -74.833500
  C    -70.889400   18.559800  -75.856900
  C    -70.447400   19.862400  -75.762300
  C    -69.287800   20.016800  -74.989000
  C    -68.846500   18.853700  -74.402800
  H    -71.049600   20.656500  -76.342700
  C    -68.545100   21.363400  -74.827800
  H    -67.838800   21.333500  -73.939100
  H    -69.260700   22.243500  -74.643200
  C    -67.783900   21.645000  -76.142000
  H    -67.611900   22.789000  -76.219500
  H    -68.486800   21.265600  -76.895700
  C    -66.432000   20.984700  -76.226200
  H    -66.524500   19.921600  -76.120700
  H    -65.833200   21.400200  -75.441800
  H    -65.980100   21.218500  -77.154600
  H    -66.516400   17.434400  -70.217900
  H    -71.670800   18.325100  -76.534400

 Total Charge           Charge          ....    0
 Multiplicity           Mult            ....    1
 Number of Electrons    NEL             ....  134
 Basis Dimension        Dim             ....  322

ORBITAL ENERGIES
----------------

  NO   OCC          E(Eh)            E(eV)
   0   2.0000     -88.965914     -2420.8856
   1   2.0000     -88.962400     -2420.7900
   2   2.0000     -10.338589      -281.3273
   3   2.0000     -10.323504      -280.9168
   4   2.0000     -10.311805      -280.5985
   5   2.0000     -10.310719      -280.5689
   6   2.0000     -10.304795      -280.4077
   7   2.0000     -10.303294      -280.3669
   8   2.0000     -10.302691      -280.3505
   9   2.0000     -10.299363      -280.2599
  10   2.0000     -10.298238      -280.2293
  11   2.0000     -10.295734      -280.1612
  12   2.0000     -10.293949      -280.1126
  13   2.0000     -10.287839      -279.9463
  14   2.0000     -10.287649      -279.9412
  15   2.0000     -10.267180      -279.3842
  16   2.0000      -8.079782      -219.8621
  17   2.0000      -8.079009      -219.8410
  18   2.0000      -6.038327      -164.3112
  19   2.0000      -6.037297      -164.2832
  20   2.0000      -6.034487      -164.2067
  21   2.0000      -6.033007      -164.1665
  22   2.0000      -6.030452      -164.0969
  23   2.0000      -6.030088      -164.0870
  24   2.0000      -1.015209       -27.6252
  25   2.0000      -0.986053       -26.8319
  26   2.0000      -0.909237       -24.7416
  27   2.0000      -0.902533       -24.5592
  28   2.0000      -0.870101       -23.6766
  29   2.0000      -0.849756       -23.1230
  30   2.0000      -0.847149       -23.0521
  31   2.0000      -0.819987       -22.3130
  32   2.0000      -0.779841       -21.2206
  33   2.0000      -0.763640       -20.7797
  34   2.0000      -0.707694       -19.2573
  35   2.0000      -0.699581       -19.0366
  36   2.0000      -0.686643       -18.6845
  37   2.0000      -0.652192       -17.7470
  38   2.0000      -0.643053       -17.4984
  39   2.0000      -0.617446       -16.8016
  40   2.0000      -0.598532       -16.2869
  41   2.0000      -0.570185       -15.5155
  42   2.0000      -0.554725       -15.0948
  43   2.0000      -0.549453       -14.9514
  44   2.0000      -0.535643       -14.5756
  45   2.0000      -0.523084       -14.2338
  46   2.0000      -0.518240       -14.1020
  47   2.0000      -0.513264       -13.9666
  48   2.0000      -0.508611       -13.8400
  49   2.0000      -0.508173       -13.8281
  50   2.0000      -0.487306       -13.2603
  51   2.0000      -0.484933       -13.1957
  52   2.0000      -0.472204       -12.8493
  53   2.0000      -0.464785       -12.6474
  54   2.0000      -0.457481       -12.4487
  55   2.0000      -0.443733       -12.0746
  56   2.0000      -0.433410       -11.7937
  57   2.0000      -0.431048       -11.7294
  58   2.0000      -0.429375       -11.6839
  59   2.0000      -0.422737       -11.5033
  60   2.0000      -0.420214       -11.4346
  61   2.0000      -0.418466       -11.3870
  62   2.0000      -0.406130       -11.0514
  63   2.0000      -0.343490        -9.3468
  64   2.0000      -0.332065        -9.0360
  65   2.0000      -0.324138        -8.8203
  66   2.0000      -0.299415        -8.1475
  67   0.0000       0.034503         0.9389
  68   0.0000       0.051047         1.3891
  69   0.0000       0.116617         3.1733
  70   0.0000       0.121635         3.3098
  71   0.0000       0.127357         3.4656

MULLIKEN ATOMIC CHARGES
-----------------------
   0 S :    0.107927
   1 C :   -0.084836
   2 C :   -0.123615
   3 C :    0.056834
   4 C :   -0.157947
   5 H :    0.026809
   6 C :    0.036281
   7 H :    0.035135
   8 H :    0.016298
   9 C :   -0.098128
  10 H :    0.028092
  11 H :    0.054702
  12 C :   -0.050242
  13 H :    0.041334
  14 H :    0.022249
  15 H :    0.053329
  16 S :    0.118602
  17 C :   -0.063767
  18 C :   -0.094957
  19 C :   -0.020851
  20 C :   -0.185546
  21 H :    0.048253
  22 C :    0.026767
  23 H :    0.039602
  24 H :    0.043527
  25 C :   -0.110244
  26 H :    0.038840
  27 H :    0.031350
  28 C :    0.004991
  29 H :    0.024821
  30 H :    0.022572
  31 H :    0.026329
  32 H :    0.040475
  33 H :    0.045016
Sum of atomic charges:    0.0000000

LOEWDIN ATOMIC CHARGES
----------------------
   0 S :    0.387254
   1 C :   -0.199608
   2 C :   -0.069277
   3 C :   -0.052082
   4 C :   -0.169867
   5 H :    0.036784
   6 C :   -0.039184
   7 H :    0.036789
   8 H :    0.023715
   9 C :   -0.043854
  10 H :    0.022942
  11 H :    0.035055
  12 C :   -0.081307
  13 H :    0.029385
  14 H :    0.026484
  15 H :    0.035289
  16 S :    0.449469
  17 C :   -0.204352
  18 C :   -0.091902
  19 C :   -0.059422
  20 C :   -0.220295
  21 H :    0.045238
  22 C :   -0.036658
  23 H :    0.032021
  24 H :    0.038251
  25 C :   -0.045778
  26 H :    0.029758
  27 H :    0.023143
  28 C :   -0.056990
  29 H :    0.019108
  30 H :    0.023564
  31 H :    0.022809
  32 H :    0.023026
  33 H :    0.030495

  Mayer bond orders larger than 0.100000
B(  0-S ,  1-C ) :   1.1428 B(  0-S ,  4-C ) :   1.1351 B(  1-C ,  2-C ) :   1.6056
B(  1-C ,  4-C ) :   0.1020 B(  1-C , 32-H ) :   0.9648 B(  2-C ,  3-C ) :   1.2435
B(  2-C ,  6-C ) :   1.0223 B(  3-C ,  4-C ) :   1.5771 B(  3-C ,  5-H ) :   0.9883
B(  4-C , 20-C ) :   1.0347 B(  6-C ,  7-H ) :   0.9474 B(  6-C ,  8-H ) :   0.9436
B(  6-C ,  9-C ) :   1.0271 B(  9-C , 10-H ) :   0.9603 B(  9-C , 11-H ) :   0.9582
B(  9-C , 12-C ) :   1.0681 B( 12-C , 13-H ) :   0.9743 B( 12-C , 14-H ) :   0.9726
B( 12-C , 15-H ) :   0.9740 B( 16-S , 17-C ) :   1.1877 B( 16-S , 20-C ) :   1.1620
B( 17-C , 18-C ) :   1.5744 B( 17-C , 20-C ) :   0.1033 B( 17-C , 33-H ) :   0.9708
B( 18-C , 19-C ) :   1.2836 B( 18-C , 21-H ) :   0.9751 B( 19-C , 20-C ) :   1.5669
B( 19-C , 22-C ) :   1.0373 B( 22-C , 23-H ) :   0.9409 B( 22-C , 24-H ) :   0.9420
B( 22-C , 25-C ) :   1.0487 B( 25-C , 26-H ) :   0.9551 B( 25-C , 27-H ) :   0.9556
B( 25-C , 28-C ) :   1.0889 B( 28-C , 29-H ) :   0.9691 B( 28-C , 30-H ) :   0.9725
B( 28-C , 31-H ) :   0.9677

Dispersion correction           -0.014573462
FINAL SINGLE POINT ENERGY     -1339.864814287497

DIPOLE MOMENT
-------------
                                X             Y             Z
Electronic contribution:    -24.54524      -6.22619       2.05693
Nuclear contribution   :     24.92330       6.42026      -2.24170
                        -----------------------------------------
Total Dipole Moment    :      0.37805       0.19406      -0.18476
                        -----------------------------------------
Magnitude (a.u.)       :      0.46338
Magnitude (Debye)      :      1.17782

Rotational constants in cm-1:     0.022334     0.007662     0.006461
Rotational constants in MHz :   669.568143   229.687022   193.696753

                             ****ORCA TERMINATED NORMALLY****
TOTAL RUN TIME: 0 days 0 hours 0 minutes 21 seconds 577 msec
