                         Program Version 4.2.1 -  RELEASE  -
|  1> ! wB97X-D3 SP def2-SVP
|  2> %pal
|  3> nprocs 24
|  4> end
|  5>
|  6> * xyz 0 1
|  7> S 	 -47.8124 	 2.5452 	 -18.4891
|  8> C 	 -48.3126 	 1.16588 	 -19.424
|  9> C 	 -49.6588 	 1.42455 	 -19.7804
| 10> C 	 -50.1719 	 2.7029 	 -19.3599
| 11> C 	 -49.3132 	 3.4497 	 -18.6156
| 12> H 	 -51.2152 	 2.9974 	 -19.6113
| 13> C 	 -50.4159 	 0.573471 	 -20.7266
| 14> H 	 -49.9401 	 0.534629 	 -21.7286
| 15> H 	 -51.3902 	 0.971059 	 -20.855
| 16> C 	 -50.6208 	 -0.855751 	 -20.2628
| 17> H 	 -49.7315 	 -1.25658 	 -19.9311
| 18> H 	 -51.1636 	 -0.891472 	 -19.4033
| 19> C 	 -51.3304 	 -1.75963 	 -21.2577
| 20> H 	 -52.2995 	 -1.33106 	 -21.583
| 21> H 	 -50.7442 	 -1.86852 	 -22.1592
| 22> H 	 -51.5252 	 -2.75838 	 -20.9077
| 23> S 	 -49.4118 	 6.10929 	 -19.1367
| 24> C 	 -49.7876 	 7.22605 	 -17.8842
| 25> C 	 -50.2775 	 6.61393 	 -16.7929
| 26> C 	 -50.0532 	 5.18471 	 -16.7957
| 27> C 	 -49.5578 	 4.76291 	 -18.0555
| 28> H 	 -50.7011 	 7.15781 	 -15.9766
| 29> C 	 -50.4537 	 4.21916 	 -15.6503
| 30> H 	 -50.0759 	 3.26791 	 -15.8831
| 31> H 	 -51.566 	 4.14501 	 -15.6979
| 32> C 	 -49.9926 	 4.54364 	 -14.2435
| 33> H 	 -48.9577 	 4.7614 	 -14.2984
| 34> H 	 -50.0583 	 3.66544 	 -13.5897
| 35> C 	 -50.8399 	 5.51428 	 -13.4611
| 36> H 	 -51.8728 	 5.13787 	 -13.6313
| 37> H 	 -50.9593 	 6.56426 	 -13.8363
| 38> H 	 -50.6271 	 5.67256 	 -12.3568
| 39> H 	 -47.6767 	 0.417578 	 -19.8576
| 40> H 	 -49.7593 	 8.33216 	 -17.8987
| 41> *
| 42>
| 43>                          ****END OF INPUT****

CARTESIAN COORDINATES (ANGSTROEM)
---------------------------------
  S    -47.812400    2.545200  -18.489100
  C    -48.312600    1.165880  -19.424000
  C    -49.658800    1.424550  -19.780400
  C    -50.171900    2.702900  -19.359900
  C    -49.313200    3.449700  -18.615600
  H    -51.215200    2.997400  -19.611300
  C    -50.415900    0.573471  -20.726600
  H    -49.940100    0.534629  -21.728600
  H    -51.390200    0.971059  -20.855000
  C    -50.620800   -0.855751  -20.262800
  H    -49.731500   -1.256580  -19.931100
  H    -51.163600   -0.891472  -19.403300
  C    -51.330400   -1.759630  -21.257700
  H    -52.299500   -1.331060  -21.583000
  H    -50.744200   -1.868520  -22.159200
  H    -51.525200   -2.758380  -20.907700
  S    -49.411800    6.109290  -19.136700
  C    -49.787600    7.226050  -17.884200
  C    -50.277500    6.613930  -16.792900
  C    -50.053200    5.184710  -16.795700
  C    -49.557800    4.762910  -18.055500
  H    -50.701100    7.157810  -15.976600
  C    -50.453700    4.219160  -15.650300
  H    -50.075900    3.267910  -15.883100
  H    -51.566000    4.145010  -15.697900
  C    -49.992600    4.543640  -14.243500
  H    -48.957700    4.761400  -14.298400
  H    -50.058300    3.665440  -13.589700
  C    -50.839900    5.514280  -13.461100
  H    -51.872800    5.137870  -13.631300
  H    -50.959300    6.564260  -13.836300
  H    -50.627100    5.672560  -12.356800
  H    -47.676700    0.417578  -19.857600
  H    -49.759300    8.332160  -17.898700

 Total Charge           Charge          ....    0
 Multiplicity           Mult            ....    1
 Number of Electrons    NEL             ....  134
 Basis Dimension        Dim             ....  322

ORBITAL ENERGIES
----------------

  NO   OCC          E(Eh)            E(eV)
   0   2.0000     -88.965610     -2420.8773
   1   2.0000     -88.964204     -2420.8391
   2   2.0000     -10.328799      -281.0609
   3   2.0000     -10.326690      -281.0035
   4   2.0000     -10.317956      -280.7659
   5   2.0000     -10.314324      -280.6670
   6   2.0000     -10.310539      -280.5640
   7   2.0000     -10.300640      -280.2947
   8   2.0000     -10.295878      -280.1651
   9   2.0000     -10.292173      -280.0643
  10   2.0000     -10.289034      -279.9788
  11   2.0000     -10.286454      -279.9086
  12   2.0000     -10.283075      -279.8167
  13   2.0000     -10.282501      -279.8011
  14   2.0000     -10.274970      -279.5961
  15   2.0000     -10.266672      -279.3703
  16   2.0000      -8.081218      -219.9011
  17   2.0000      -8.078729      -219.8334
  18   2.0000      -6.039736      -164.3496
  19   2.0000      -6.037262      -164.2823
  20   2.0000      -6.035611      -164.2373
  21   2.0000      -6.032972      -164.1655
  22   2.0000      -6.031894      -164.1362
  23   2.0000      -6.029718      -164.0770
  24   2.0000      -1.009351       -27.4658
  25   2.0000      -0.987784       -26.8790
  26   2.0000      -0.918144       -24.9840
  27   2.0000      -0.912481       -24.8299
  28   2.0000      -0.874868       -23.8064
  29   2.0000      -0.848546       -23.0901
  30   2.0000      -0.847190       -23.0532
  31   2.0000      -0.820088       -22.3157
  32   2.0000      -0.783008       -21.3067
  33   2.0000      -0.768882       -20.9223
  34   2.0000      -0.712727       -19.3943
  35   2.0000      -0.706914       -19.2361
  36   2.0000      -0.693606       -18.8740
  37   2.0000      -0.656975       -17.8772
  38   2.0000      -0.643428       -17.5086
  39   2.0000      -0.620077       -16.8732
  40   2.0000      -0.597116       -16.2484
  41   2.0000      -0.576452       -15.6861
  42   2.0000      -0.564629       -15.3643
  43   2.0000      -0.557634       -15.1740
  44   2.0000      -0.543090       -14.7782
  45   2.0000      -0.525357       -14.2957
  46   2.0000      -0.522094       -14.2069
  47   2.0000      -0.513474       -13.9723
  48   2.0000      -0.505848       -13.7648
  49   2.0000      -0.501994       -13.6600
  50   2.0000      -0.494715       -13.4619
  51   2.0000      -0.477844       -13.0028
  52   2.0000      -0.474835       -12.9209
  53   2.0000      -0.465079       -12.6554
  54   2.0000      -0.458365       -12.4728
  55   2.0000      -0.450151       -12.2492
  56   2.0000      -0.439518       -11.9599
  57   2.0000      -0.437239       -11.8979
  58   2.0000      -0.434760       -11.8304
  59   2.0000      -0.430598       -11.7172
  60   2.0000      -0.419025       -11.4023
  61   2.0000      -0.410882       -11.1807
  62   2.0000      -0.407734       -11.0950
  63   2.0000      -0.336471        -9.1558
  64   2.0000      -0.334605        -9.1051
  65   2.0000      -0.318289        -8.6611
  66   2.0000      -0.307762        -8.3746
  67   0.0000       0.043919         1.1951
  68   0.0000       0.050097         1.3632
  69   0.0000       0.110200         2.9987
  70   0.0000       0.126899         3.4531
  71   0.0000       0.135844         3.6965

MULLIKEN ATOMIC CHARGES
-----------------------
   0 S :    0.111519
   1 C :   -0.113689
   2 C :   -0.116347
   3 C :    0.037299
   4 C :   -0.159001
   5 H :    0.027438
   6 C :    0.073939
   7 H :    0.039202
   8 H :   -0.001596
   9 C :   -0.019128
  10 H :   -0.006475
  11 H :   -0.005065
  12 C :   -0.033693
  13 H :    0.024076
  14 H :    0.018759
  15 H :    0.029663
  16 S :    0.129532
  17 C :   -0.080863
  18 C :   -0.032967
  19 C :   -0.027571
  20 C :   -0.193104
  21 H :    0.005254
  22 C :    0.088081
  23 H :    0.013670
  24 H :    0.039071
  25 C :   -0.033166
  26 H :    0.025423
  27 H :    0.031280
  28 C :   -0.097005
  29 H :    0.021787
  30 H :    0.025808
  31 H :    0.053385
  32 H :    0.062306
  33 H :    0.062178
Sum of atomic charges:   -0.0000000

LOEWDIN ATOMIC CHARGES
----------------------
   0 S :    0.414804
   1 C :   -0.202023
   2 C :   -0.064976
   3 C :   -0.064981
   4 C :   -0.206479
   5 H :    0.038875
   6 C :   -0.030908
   7 H :    0.035965
   8 H :    0.021755
   9 C :   -0.033106
  10 H :    0.011097
  11 H :    0.014183
  12 C :   -0.059869
  13 H :    0.026330
  14 H :    0.020319
  15 H :    0.024675
  16 S :    0.431746
  17 C :   -0.195091
  18 C :   -0.075350
  19 C :   -0.041111
  20 C :   -0.215094
  21 H :    0.026067
  22 C :   -0.023647
  23 H :    0.026104
  24 H :    0.037127
  25 C :   -0.044627
  26 H :    0.020942
  27 H :    0.034127
  28 C :   -0.081478
  29 H :    0.027593
  30 H :    0.019292
  31 H :    0.035181
  32 H :    0.032515
  33 H :    0.040040

  Mayer bond orders larger than 0.100000
B(  0-S ,  1-C ) :   1.1553 B(  0-S ,  4-C ) :   1.1521 B(  1-C ,  2-C ) :   1.5501
B(  1-C ,  4-C ) :   0.1022 B(  1-C , 32-H ) :   0.9753 B(  2-C ,  3-C ) :   1.2792
B(  2-C ,  6-C ) :   1.0428 B(  3-C ,  4-C ) :   1.5612 B(  3-C ,  5-H ) :   0.9886
B(  4-C , 20-C ) :   1.0134 B(  6-C ,  7-H ) :   0.9396 B(  6-C ,  8-H ) :   0.9367
B(  6-C ,  9-C ) :   1.0590 B(  9-C , 10-H ) :   0.9517 B(  9-C , 11-H ) :   0.9451
B(  9-C , 12-C ) :   1.0911 B( 12-C , 13-H ) :   0.9722 B( 12-C , 14-H ) :   0.9742
B( 12-C , 15-H ) :   0.9732 B( 16-S , 17-C ) :   1.1544 B( 16-S , 20-C ) :   1.1602
B( 17-C , 18-C ) :   1.6290 B( 17-C , 33-H ) :   0.9596 B( 18-C , 19-C ) :   1.2359
B( 18-C , 21-H ) :   0.9893 B( 19-C , 20-C ) :   1.5864 B( 19-C , 22-C ) :   1.0396
B( 22-C , 23-H ) :   0.9225 B( 22-C , 24-H ) :   0.9376 B( 22-C , 25-C ) :   1.0777
B( 25-C , 26-H ) :   0.9548 B( 25-C , 27-H ) :   0.9514 B( 25-C , 28-C ) :   1.0620
B( 28-C , 29-H ) :   0.9699 B( 28-C , 30-H ) :   0.9742 B( 28-C , 31-H ) :   0.9726

Dispersion correction           -0.013641862
FINAL SINGLE POINT ENERGY     -1339.866127814687

DIPOLE MOMENT
-------------
                                X             Y             Z
Electronic contribution:     13.91895      15.24044      -7.85119
Nuclear contribution   :    -14.36055     -15.41080       7.97359
                        -----------------------------------------
Total Dipole Moment    :     -0.44160      -0.17036       0.12240
                        -----------------------------------------
Magnitude (a.u.)       :      0.48889
Magnitude (Debye)      :      1.24267

Rotational constants in cm-1:     0.021970     0.006770     0.006035
Rotational constants in MHz :   658.653587   202.955850   180.913842

                             ****ORCA TERMINATED NORMALLY****
TOTAL RUN TIME: 0 days 0 hours 0 minutes 20 seconds 740 msec
