                         Program Version 4.2.1 -  RELEASE  -
|  1> ! wB97X-D3 SP def2-SVP
|  2> %pal
|  3> nprocs 24
|  4> end
|  5>
|  6> * xyz 0 1
|  7> S 	 -109.742 	 57.6306 	 -100.861
|  8> C 	 -111.229 	 57.2991 	 -100.076
|  9> C 	 -111.372 	 57.9143 	 -98.8148
| 10> C 	 -110.236 	 58.7218 	 -98.5201
| 11> C 	 -109.329 	 58.7863 	 -99.574
| 12> H 	 -110.04 	 59.317 	 -97.6279
| 13> C 	 -112.595 	 57.8489 	 -97.8826
| 14> H 	 -113.57 	 58.079 	 -98.4311
| 15> H 	 -112.6 	 58.6663 	 -97.1584
| 16> C 	 -112.821 	 56.488 	 -97.1278
| 17> H 	 -111.918 	 56.0044 	 -96.8127
| 18> H 	 -113.34 	 56.8778 	 -96.3038
| 19> C 	 -113.695 	 55.4504 	 -97.9085
| 20> H 	 -113.356 	 55.2566 	 -98.9443
| 21> H 	 -113.909 	 54.5188 	 -97.3033
| 22> H 	 -114.632 	 55.9499 	 -98.062
| 23> S 	 -106.57 	 59.0043 	 -98.8629
| 24> C 	 -105.815 	 60.5459 	 -99.0147
| 25> C 	 -106.634 	 61.4916 	 -99.6116
| 26> C 	 -107.965 	 60.9825 	 -99.8621
| 27> C 	 -108.124 	 59.5896 	 -99.5926
| 28> H 	 -106.318 	 62.5059 	 -99.8716
| 29> C 	 -108.992 	 61.9612 	 -100.344
| 30> H 	 -109.938 	 61.4892 	 -100.57
| 31> H 	 -108.586 	 62.2855 	 -101.308
| 32> C 	 -109.258 	 63.1844 	 -99.4394
| 33> H 	 -108.424 	 63.8567 	 -99.1938
| 34> H 	 -109.616 	 62.7333 	 -98.4889
| 35> C 	 -110.333 	 64.1546 	 -99.8803
| 36> H 	 -111.287 	 63.7222 	 -99.8302
| 37> H 	 -110.276 	 64.3943 	 -100.933
| 38> H 	 -110.449 	 65.1175 	 -99.3439
| 39> H 	 -112.058 	 56.6337 	 -100.479
| 40> H 	 -104.772 	 60.7409 	 -98.8101
| 41> *
| 42>
| 43>                          ****END OF INPUT****

CARTESIAN COORDINATES (ANGSTROEM)
---------------------------------
  S    -109.742000   57.630600  -100.861000
  C    -111.229000   57.299100  -100.076000
  C    -111.372000   57.914300  -98.814800
  C    -110.236000   58.721800  -98.520100
  C    -109.329000   58.786300  -99.574000
  H    -110.040000   59.317000  -97.627900
  C    -112.595000   57.848900  -97.882600
  H    -113.570000   58.079000  -98.431100
  H    -112.600000   58.666300  -97.158400
  C    -112.821000   56.488000  -97.127800
  H    -111.918000   56.004400  -96.812700
  H    -113.340000   56.877800  -96.303800
  C    -113.695000   55.450400  -97.908500
  H    -113.356000   55.256600  -98.944300
  H    -113.909000   54.518800  -97.303300
  H    -114.632000   55.949900  -98.062000
  S    -106.570000   59.004300  -98.862900
  C    -105.815000   60.545900  -99.014700
  C    -106.634000   61.491600  -99.611600
  C    -107.965000   60.982500  -99.862100
  C    -108.124000   59.589600  -99.592600
  H    -106.318000   62.505900  -99.871600
  C    -108.992000   61.961200  -100.344000
  H    -109.938000   61.489200  -100.570000
  H    -108.586000   62.285500  -101.308000
  C    -109.258000   63.184400  -99.439400
  H    -108.424000   63.856700  -99.193800
  H    -109.616000   62.733300  -98.488900
  C    -110.333000   64.154600  -99.880300
  H    -111.287000   63.722200  -99.830200
  H    -110.276000   64.394300  -100.933000
  H    -110.449000   65.117500  -99.343900
  H    -112.058000   56.633700  -100.479000
  H    -104.772000   60.740900  -98.810100

 Total Charge           Charge          ....    0
 Multiplicity           Mult            ....    1
 Number of Electrons    NEL             ....  134
 Basis Dimension        Dim             ....  322

ORBITAL ENERGIES
----------------

  NO   OCC          E(Eh)            E(eV)
   0   2.0000     -88.970798     -2421.0185
   1   2.0000     -88.963470     -2420.8191
   2   2.0000     -10.329641      -281.0838
   3   2.0000     -10.327665      -281.0301
   4   2.0000     -10.320075      -280.8235
   5   2.0000     -10.318055      -280.7685
   6   2.0000     -10.308450      -280.5072
   7   2.0000     -10.304762      -280.4068
   8   2.0000     -10.302819      -280.3540
   9   2.0000     -10.297486      -280.2088
  10   2.0000     -10.294150      -280.1181
  11   2.0000     -10.290991      -280.0321
  12   2.0000     -10.288950      -279.9766
  13   2.0000     -10.284847      -279.8649
  14   2.0000     -10.284805      -279.8638
  15   2.0000     -10.271255      -279.4951
  16   2.0000      -8.085366      -220.0140
  17   2.0000      -8.077705      -219.8055
  18   2.0000      -6.043683      -164.4570
  19   2.0000      -6.039928      -164.3548
  20   2.0000      -6.036309      -164.2563
  21   2.0000      -6.036292      -164.2559
  22   2.0000      -6.032201      -164.1445
  23   2.0000      -6.028485      -164.0434
  24   2.0000      -0.999177       -27.1890
  25   2.0000      -0.978173       -26.6175
  26   2.0000      -0.908521       -24.7221
  27   2.0000      -0.903641       -24.5893
  28   2.0000      -0.865409       -23.5490
  29   2.0000      -0.850517       -23.1437
  30   2.0000      -0.850173       -23.1344
  31   2.0000      -0.806113       -21.9354
  32   2.0000      -0.782831       -21.3019
  33   2.0000      -0.768766       -20.9192
  34   2.0000      -0.705168       -19.1886
  35   2.0000      -0.699685       -19.0394
  36   2.0000      -0.692738       -18.8504
  37   2.0000      -0.652392       -17.7525
  38   2.0000      -0.641367       -17.4525
  39   2.0000      -0.614539       -16.7224
  40   2.0000      -0.597102       -16.2480
  41   2.0000      -0.572305       -15.5732
  42   2.0000      -0.563578       -15.3357
  43   2.0000      -0.538244       -14.6464
  44   2.0000      -0.533783       -14.5250
  45   2.0000      -0.523641       -14.2490
  46   2.0000      -0.516164       -14.0455
  47   2.0000      -0.510674       -13.8962
  48   2.0000      -0.504118       -13.7178
  49   2.0000      -0.490602       -13.3499
  50   2.0000      -0.488092       -13.2816
  51   2.0000      -0.481254       -13.0956
  52   2.0000      -0.467324       -12.7165
  53   2.0000      -0.463223       -12.6049
  54   2.0000      -0.458434       -12.4746
  55   2.0000      -0.456739       -12.4285
  56   2.0000      -0.446202       -12.1418
  57   2.0000      -0.438750       -11.9390
  58   2.0000      -0.426653       -11.6098
  59   2.0000      -0.422511       -11.4971
  60   2.0000      -0.420467       -11.4415
  61   2.0000      -0.418067       -11.3762
  62   2.0000      -0.413584       -11.2542
  63   2.0000      -0.338599        -9.2137
  64   2.0000      -0.325087        -8.8461
  65   2.0000      -0.314079        -8.5465
  66   2.0000      -0.307627        -8.3710
  67   0.0000       0.041699         1.1347
  68   0.0000       0.047698         1.2979
  69   0.0000       0.115606         3.1458
  70   0.0000       0.117723         3.2034
  71   0.0000       0.123769         3.3679

MULLIKEN ATOMIC CHARGES
-----------------------
   0 S :    0.136325
   1 C :   -0.137538
   2 C :   -0.061675
   3 C :    0.044276
   4 C :   -0.208028
   5 H :    0.023665
   6 C :   -0.000502
   7 H :    0.037102
   8 H :    0.022314
   9 C :   -0.029694
  10 H :    0.035617
  11 H :    0.018397
  12 C :   -0.065566
  13 H :    0.032437
  14 H :    0.054125
  15 H :    0.014050
  16 S :    0.103179
  17 C :   -0.083875
  18 C :   -0.033505
  19 C :   -0.036764
  20 C :   -0.164804
  21 H :    0.026042
  22 C :    0.088018
  23 H :    0.022774
  24 H :    0.028467
  25 C :   -0.089469
  26 H :    0.034471
  27 H :    0.031211
  28 C :   -0.034574
  29 H :    0.008061
  30 H :    0.014928
  31 H :    0.040166
  32 H :    0.069876
  33 H :    0.060494
Sum of atomic charges:   -0.0000000

LOEWDIN ATOMIC CHARGES
----------------------
   0 S :    0.420978
   1 C :   -0.217438
   2 C :   -0.070787
   3 C :   -0.046933
   4 C :   -0.203548
   5 H :    0.037278
   6 C :   -0.035274
   7 H :    0.038775
   8 H :    0.028221
   9 C :   -0.031175
  10 H :    0.021695
  11 H :    0.019434
  12 C :   -0.071319
  13 H :    0.024484
  14 H :    0.035964
  15 H :    0.018330
  16 S :    0.391441
  17 C :   -0.185814
  18 C :   -0.076725
  19 C :   -0.040098
  20 C :   -0.204622
  21 H :    0.033354
  22 C :   -0.031667
  23 H :    0.030525
  24 H :    0.034495
  25 C :   -0.044151
  26 H :    0.025291
  27 H :    0.028933
  28 C :   -0.070888
  29 H :    0.016056
  30 H :    0.022361
  31 H :    0.033129
  32 H :    0.039117
  33 H :    0.030579

  Mayer bond orders larger than 0.100000
B(  0-S ,  1-C ) :   1.1666 B(  0-S ,  4-C ) :   1.1437 B(  1-C ,  2-C ) :   1.5892
B(  1-C ,  4-C ) :   0.1011 B(  1-C , 32-H ) :   0.9537 B(  2-C ,  3-C ) :   1.2571
B(  2-C ,  6-C ) :   1.0179 B(  3-C ,  4-C ) :   1.5760 B(  3-C ,  5-H ) :   0.9923
B(  4-C , 20-C ) :   1.0466 B(  6-C ,  7-H ) :   0.9438 B(  6-C ,  8-H ) :   0.9532
B(  6-C ,  9-C ) :   1.0466 B(  9-C , 10-H ) :   0.9639 B(  9-C , 11-H ) :   0.9591
B(  9-C , 12-C ) :   1.0721 B( 12-C , 13-H ) :   0.9771 B( 12-C , 14-H ) :   0.9737
B( 12-C , 15-H ) :   0.9733 B( 16-S , 17-C ) :   1.1748 B( 16-S , 20-C ) :   1.1117
B( 17-C , 18-C ) :   1.5960 B( 17-C , 33-H ) :   0.9637 B( 18-C , 19-C ) :   1.2420
B( 18-C , 21-H ) :   0.9873 B( 19-C , 20-C ) :   1.5848 B( 19-C , 22-C ) :   1.0591
B( 22-C , 23-H ) :   0.9349 B( 22-C , 24-H ) :   0.9244 B( 22-C , 25-C ) :   1.0549
B( 25-C , 26-H ) :   0.9571 B( 25-C , 27-H ) :   0.9563 B( 25-C , 28-C ) :   1.0857
B( 28-C , 29-H ) :   0.9711 B( 28-C , 30-H ) :   0.9699 B( 28-C , 31-H ) :   0.9754

Dispersion correction           -0.013920281
FINAL SINGLE POINT ENERGY     -1339.872492802360

DIPOLE MOMENT
-------------
                                X             Y             Z
Electronic contribution:     22.00120      -9.79524      -7.06115
Nuclear contribution   :    -22.47998      10.24192       7.29531
                        -----------------------------------------
Total Dipole Moment    :     -0.47878       0.44668       0.23416
                        -----------------------------------------
Magnitude (a.u.)       :      0.69540
Magnitude (Debye)      :      1.76758

Rotational constants in cm-1:     0.019087     0.007481     0.006249
Rotational constants in MHz :   572.207701   224.263373   187.330295

                             ****ORCA TERMINATED NORMALLY****
TOTAL RUN TIME: 0 days 0 hours 0 minutes 20 seconds 755 msec
