                         Program Version 4.2.1 -  RELEASE  -
|  1> ! wB97X-D3 SP def2-SVP
|  2> %pal
|  3> nprocs 24
|  4> end
|  5>
|  6> * xyz 0 1
|  7> S 	 -42.4935 	 13.8376 	 22.2577
|  8> C 	 -44.1536 	 14.1768 	 22.4493
|  9> C 	 -44.7303 	 14.3522 	 21.169
| 10> C 	 -43.8413 	 14.0059 	 20.1243
| 11> C 	 -42.5793 	 13.6814 	 20.513
| 12> H 	 -44.0675 	 13.986 	 19.0723
| 13> C 	 -46.098 	 14.9544 	 21.0104
| 14> H 	 -46.2724 	 15.539 	 21.8982
| 15> H 	 -46.8235 	 14.0683 	 21.0912
| 16> C 	 -46.2798 	 15.7918 	 19.6152
| 17> H 	 -45.6408 	 16.6177 	 19.6562
| 18> H 	 -45.9653 	 15.2003 	 18.7345
| 19> C 	 -47.7155 	 16.3061 	 19.387
| 20> H 	 -48.5024 	 15.5798 	 19.3879
| 21> H 	 -47.9698 	 16.9916 	 20.2297
| 22> H 	 -47.7366 	 16.9236 	 18.4875
| 23> S 	 -40.4999 	 11.8487 	 20.2264
| 24> C 	 -39.3391 	 12.0947 	 18.9
| 25> C 	 -39.7011 	 13.1306 	 18.0488
| 26> C 	 -40.8448 	 13.777 	 18.4893
| 27> C 	 -41.3706 	 13.3032 	 19.749
| 28> H 	 -39.1675 	 13.421 	 17.1909
| 29> C 	 -41.477 	 14.8987 	 17.7226
| 30> H 	 -40.6187 	 15.5093 	 17.5781
| 31> H 	 -42.2392 	 15.4337 	 18.3576
| 32> C 	 -41.9804 	 14.4625 	 16.3099
| 33> H 	 -42.9256 	 13.8568 	 16.3064
| 34> H 	 -41.1919 	 13.7204 	 15.9048
| 35> C 	 -42.0118 	 15.6815 	 15.4073
| 36> H 	 -41.1436 	 16.2884 	 15.3144
| 37> H 	 -42.9316 	 16.2818 	 15.5614
| 38> H 	 -42.1862 	 15.209 	 14.4538
| 39> H 	 -44.6522 	 14.3196 	 23.4282
| 40> H 	 -38.5195 	 11.3992 	 18.6811
| 41> *
| 42>
| 43>                          ****END OF INPUT****

CARTESIAN COORDINATES (ANGSTROEM)
---------------------------------
  S    -42.493500   13.837600   22.257700
  C    -44.153600   14.176800   22.449300
  C    -44.730300   14.352200   21.169000
  C    -43.841300   14.005900   20.124300
  C    -42.579300   13.681400   20.513000
  H    -44.067500   13.986000   19.072300
  C    -46.098000   14.954400   21.010400
  H    -46.272400   15.539000   21.898200
  H    -46.823500   14.068300   21.091200
  C    -46.279800   15.791800   19.615200
  H    -45.640800   16.617700   19.656200
  H    -45.965300   15.200300   18.734500
  C    -47.715500   16.306100   19.387000
  H    -48.502400   15.579800   19.387900
  H    -47.969800   16.991600   20.229700
  H    -47.736600   16.923600   18.487500
  S    -40.499900   11.848700   20.226400
  C    -39.339100   12.094700   18.900000
  C    -39.701100   13.130600   18.048800
  C    -40.844800   13.777000   18.489300
  C    -41.370600   13.303200   19.749000
  H    -39.167500   13.421000   17.190900
  C    -41.477000   14.898700   17.722600
  H    -40.618700   15.509300   17.578100
  H    -42.239200   15.433700   18.357600
  C    -41.980400   14.462500   16.309900
  H    -42.925600   13.856800   16.306400
  H    -41.191900   13.720400   15.904800
  C    -42.011800   15.681500   15.407300
  H    -41.143600   16.288400   15.314400
  H    -42.931600   16.281800   15.561400
  H    -42.186200   15.209000   14.453800
  H    -44.652200   14.319600   23.428200
  H    -38.519500   11.399200   18.681100

 Total Charge           Charge          ....    0
 Multiplicity           Mult            ....    1
 Number of Electrons    NEL             ....  134
 Basis Dimension        Dim             ....  322

ORBITAL ENERGIES
----------------

  NO   OCC          E(Eh)            E(eV)
   0   2.0000     -88.968394     -2420.9531
   1   2.0000     -88.960481     -2420.7378
   2   2.0000     -10.329772      -281.0874
   3   2.0000     -10.327061      -281.0136
   4   2.0000     -10.322802      -280.8977
   5   2.0000     -10.313157      -280.6353
   6   2.0000     -10.301486      -280.3177
   7   2.0000     -10.300748      -280.2976
   8   2.0000     -10.300484      -280.2904
   9   2.0000     -10.299903      -280.2746
  10   2.0000     -10.294879      -280.1379
  11   2.0000     -10.290892      -280.0294
  12   2.0000     -10.288768      -279.9716
  13   2.0000     -10.288594      -279.9669
  14   2.0000     -10.280972      -279.7595
  15   2.0000     -10.277289      -279.6593
  16   2.0000      -8.082081      -219.9246
  17   2.0000      -8.075987      -219.7588
  18   2.0000      -6.040511      -164.3707
  19   2.0000      -6.036700      -164.2669
  20   2.0000      -6.034316      -164.2021
  21   2.0000      -6.033024      -164.1669
  22   2.0000      -6.030277      -164.0922
  23   2.0000      -6.026993      -164.0028
  24   2.0000      -1.004768       -27.3411
  25   2.0000      -0.983417       -26.7601
  26   2.0000      -0.910520       -24.7765
  27   2.0000      -0.900168       -24.4948
  28   2.0000      -0.867583       -23.6081
  29   2.0000      -0.854563       -23.2539
  30   2.0000      -0.847294       -23.0560
  31   2.0000      -0.818810       -22.2809
  32   2.0000      -0.778285       -21.1782
  33   2.0000      -0.759743       -20.6737
  34   2.0000      -0.712294       -19.3825
  35   2.0000      -0.697384       -18.9768
  36   2.0000      -0.688957       -18.7475
  37   2.0000      -0.660948       -17.9853
  38   2.0000      -0.643481       -17.5100
  39   2.0000      -0.620635       -16.8883
  40   2.0000      -0.592121       -16.1124
  41   2.0000      -0.566419       -15.4130
  42   2.0000      -0.560184       -15.2434
  43   2.0000      -0.556756       -15.1501
  44   2.0000      -0.528109       -14.3706
  45   2.0000      -0.524135       -14.2624
  46   2.0000      -0.517099       -14.0710
  47   2.0000      -0.512337       -13.9414
  48   2.0000      -0.505152       -13.7459
  49   2.0000      -0.495635       -13.4869
  50   2.0000      -0.494820       -13.4647
  51   2.0000      -0.482710       -13.1352
  52   2.0000      -0.470996       -12.8164
  53   2.0000      -0.466642       -12.6980
  54   2.0000      -0.459492       -12.5034
  55   2.0000      -0.453558       -12.3419
  56   2.0000      -0.452203       -12.3051
  57   2.0000      -0.440008       -11.9732
  58   2.0000      -0.436154       -11.8684
  59   2.0000      -0.425137       -11.5686
  60   2.0000      -0.419764       -11.4224
  61   2.0000      -0.410826       -11.1792
  62   2.0000      -0.405473       -11.0335
  63   2.0000      -0.348969        -9.4959
  64   2.0000      -0.331153        -9.0111
  65   2.0000      -0.321377        -8.7451
  66   2.0000      -0.283675        -7.7192
  67   0.0000       0.026967         0.7338
  68   0.0000       0.070943         1.9304
  69   0.0000       0.112855         3.0709
  70   0.0000       0.121586         3.3085
  71   0.0000       0.125571         3.4170

MULLIKEN ATOMIC CHARGES
-----------------------
   0 S :    0.109556
   1 C :   -0.134190
   2 C :   -0.111194
   3 C :    0.032822
   4 C :   -0.158277
   5 H :   -0.000013
   6 C :    0.050327
   7 H :    0.024287
   8 H :    0.050715
   9 C :   -0.084124
  10 H :    0.027801
  11 H :    0.041248
  12 C :   -0.044259
  13 H :    0.031759
  14 H :    0.026931
  15 H :    0.036080
  16 S :    0.112234
  17 C :   -0.096952
  18 C :   -0.017470
  19 C :   -0.036900
  20 C :   -0.147965
  21 H :    0.004587
  22 C :    0.070161
  23 H :    0.016753
  24 H :    0.043791
  25 C :   -0.133958
  26 H :    0.045214
  27 H :    0.035252
  28 C :   -0.018897
  29 H :    0.036721
  30 H :    0.036849
  31 H :    0.020745
  32 H :    0.065576
  33 H :    0.064788
Sum of atomic charges:    0.0000000

LOEWDIN ATOMIC CHARGES
----------------------
   0 S :    0.423888
   1 C :   -0.221879
   2 C :   -0.070441
   3 C :   -0.072939
   4 C :   -0.194835
   5 H :    0.028709
   6 C :   -0.034382
   7 H :    0.026964
   8 H :    0.041248
   9 C :   -0.031339
  10 H :    0.018808
  11 H :    0.025108
  12 C :   -0.066135
  13 H :    0.020177
  14 H :    0.028603
  15 H :    0.027894
  16 S :    0.402881
  17 C :   -0.173418
  18 C :   -0.070124
  19 C :   -0.050147
  20 C :   -0.210195
  21 H :    0.026995
  22 C :   -0.038373
  23 H :    0.028395
  24 H :    0.036232
  25 C :   -0.043391
  26 H :    0.030414
  27 H :    0.029912
  28 C :   -0.067082
  29 H :    0.022155
  30 H :    0.030549
  31 H :    0.027141
  32 H :    0.037003
  33 H :    0.031603

  Mayer bond orders larger than 0.100000
B(  0-S ,  1-C ) :   1.1659 B(  0-S ,  4-C ) :   1.1720 B(  1-C ,  2-C ) :   1.5544
B(  1-C ,  4-C ) :   0.1064 B(  1-C , 32-H ) :   0.9700 B(  2-C ,  3-C ) :   1.2699
B(  2-C ,  6-C ) :   1.0161 B(  3-C ,  4-C ) :   1.5542 B(  3-C ,  5-H ) :   1.0001
B(  4-C , 20-C ) :   1.0222 B(  6-C ,  7-H ) :   0.9481 B(  6-C ,  8-H ) :   0.9360
B(  6-C ,  9-C ) :   1.0520 B(  9-C , 10-H ) :   0.9589 B(  9-C , 11-H ) :   0.9555
B(  9-C , 12-C ) :   1.0875 B( 12-C , 13-H ) :   0.9786 B( 12-C , 14-H ) :   0.9740
B( 12-C , 15-H ) :   0.9740 B( 16-S , 17-C ) :   1.1730 B( 16-S , 20-C ) :   1.1504
B( 17-C , 18-C ) :   1.5544 B( 17-C , 20-C ) :   0.1149 B( 17-C , 33-H ) :   0.9641
B( 18-C , 19-C ) :   1.2969 B( 18-C , 21-H ) :   0.9938 B( 19-C , 20-C ) :   1.5331
B( 19-C , 22-C ) :   1.0362 B( 22-C , 23-H ) :   0.9339 B( 22-C , 24-H ) :   0.9343
B( 22-C , 25-C ) :   1.0471 B( 25-C , 26-H ) :   0.9526 B( 25-C , 27-H ) :   0.9600
B( 25-C , 28-C ) :   1.0741 B( 28-C , 29-H ) :   0.9770 B( 28-C , 30-H ) :   0.9720
B( 28-C , 31-H ) :   0.9709

Dispersion correction           -0.013836399
FINAL SINGLE POINT ENERGY     -1339.869024405697

DIPOLE MOMENT
-------------
                                X             Y             Z
Electronic contribution:     18.81388     -16.92783      20.76504
Nuclear contribution   :    -19.13461      17.29393     -21.41197
                        -----------------------------------------
Total Dipole Moment    :     -0.32073       0.36609      -0.64693
                        -----------------------------------------
Magnitude (a.u.)       :      0.80957
Magnitude (Debye)      :      2.05776

Rotational constants in cm-1:     0.016244     0.009511     0.006286
Rotational constants in MHz :   486.974471   285.119664   188.447735

                             ****ORCA TERMINATED NORMALLY****
TOTAL RUN TIME: 0 days 0 hours 0 minutes 21 seconds 349 msec
