                         Program Version 4.2.1 -  RELEASE  -
|  1> ! wB97X-D3 SP def2-SVP
|  2> %pal
|  3> nprocs 24
|  4> end
|  5>
|  6> * xyz 0 1
|  7> S 	 -48.7731 	 19.8602 	 23.9547
|  8> C 	 -50.4418 	 20.22 	 23.5715
|  9> C 	 -51.0162 	 19.1833 	 22.8698
| 10> C 	 -50.1998 	 18.0531 	 22.7969
| 11> C 	 -48.964 	 18.2248 	 23.4277
| 12> H 	 -50.4314 	 17.0805 	 22.3871
| 13> C 	 -52.4832 	 19.0507 	 22.5456
| 14> H 	 -53.1456 	 19.5698 	 23.2771
| 15> H 	 -52.6137 	 18.0212 	 22.7758
| 16> C 	 -52.9239 	 19.3498 	 21.0884
| 17> H 	 -52.3064 	 18.6605 	 20.4736
| 18> H 	 -53.9899 	 19.1078 	 20.8748
| 19> C 	 -52.6082 	 20.789 	 20.53
| 20> H 	 -53.1557 	 20.9476 	 19.6514
| 21> H 	 -53.0046 	 21.5855 	 21.2442
| 22> H 	 -51.5534 	 21.0012 	 20.404
| 23> S 	 -46.3765 	 17.965 	 22.8952
| 24> C 	 -45.5098 	 16.474 	 23.3019
| 25> C 	 -46.4361 	 15.4635 	 23.5732
| 26> C 	 -47.7726 	 15.9512 	 23.7379
| 27> C 	 -47.8539 	 17.268 	 23.4127
| 28> H 	 -46.2142 	 14.4479 	 23.7813
| 29> C 	 -48.8879 	 15.1294 	 24.211
| 30> H 	 -48.6594 	 14.0954 	 24.1364
| 31> H 	 -49.7624 	 15.2089 	 23.6016
| 32> C 	 -49.4755 	 15.4025 	 25.596
| 33> H 	 -49.8074 	 16.397 	 25.5927
| 34> H 	 -48.6178 	 15.1768 	 26.2758
| 35> C 	 -50.7745 	 14.576 	 25.7187
| 36> H 	 -51.109 	 14.737 	 26.7131
| 37> H 	 -50.5903 	 13.5762 	 25.5671
| 38> H 	 -51.5568 	 14.8615 	 25.0374
| 39> H 	 -50.9073 	 21.136 	 23.8211
| 40> H 	 -44.4393 	 16.3058 	 23.1645
| 41> *
| 42>
| 43>                          ****END OF INPUT****

CARTESIAN COORDINATES (ANGSTROEM)
---------------------------------
  S    -48.773100   19.860200   23.954700
  C    -50.441800   20.220000   23.571500
  C    -51.016200   19.183300   22.869800
  C    -50.199800   18.053100   22.796900
  C    -48.964000   18.224800   23.427700
  H    -50.431400   17.080500   22.387100
  C    -52.483200   19.050700   22.545600
  H    -53.145600   19.569800   23.277100
  H    -52.613700   18.021200   22.775800
  C    -52.923900   19.349800   21.088400
  H    -52.306400   18.660500   20.473600
  H    -53.989900   19.107800   20.874800
  C    -52.608200   20.789000   20.530000
  H    -53.155700   20.947600   19.651400
  H    -53.004600   21.585500   21.244200
  H    -51.553400   21.001200   20.404000
  S    -46.376500   17.965000   22.895200
  C    -45.509800   16.474000   23.301900
  C    -46.436100   15.463500   23.573200
  C    -47.772600   15.951200   23.737900
  C    -47.853900   17.268000   23.412700
  H    -46.214200   14.447900   23.781300
  C    -48.887900   15.129400   24.211000
  H    -48.659400   14.095400   24.136400
  H    -49.762400   15.208900   23.601600
  C    -49.475500   15.402500   25.596000
  H    -49.807400   16.397000   25.592700
  H    -48.617800   15.176800   26.275800
  C    -50.774500   14.576000   25.718700
  H    -51.109000   14.737000   26.713100
  H    -50.590300   13.576200   25.567100
  H    -51.556800   14.861500   25.037400
  H    -50.907300   21.136000   23.821100
  H    -44.439300   16.305800   23.164500

 Total Charge           Charge          ....    0
 Multiplicity           Mult            ....    1
 Number of Electrons    NEL             ....  134
 Basis Dimension        Dim             ....  322

ORBITAL ENERGIES
----------------

  NO   OCC          E(Eh)            E(eV)
   0   2.0000     -88.968955     -2420.9683
   1   2.0000     -88.965014     -2420.8611
   2   2.0000     -10.328234      -281.0455
   3   2.0000     -10.319529      -280.8087
   4   2.0000     -10.319370      -280.8043
   5   2.0000     -10.311768      -280.5975
   6   2.0000     -10.298517      -280.2369
   7   2.0000     -10.295138      -280.1449
   8   2.0000     -10.293903      -280.1113
   9   2.0000     -10.293495      -280.1003
  10   2.0000     -10.291927      -280.0576
  11   2.0000     -10.291694      -280.0512
  12   2.0000     -10.280661      -279.7510
  13   2.0000     -10.277953      -279.6773
  14   2.0000     -10.277240      -279.6579
  15   2.0000     -10.267917      -279.4042
  16   2.0000      -8.083899      -219.9741
  17   2.0000      -8.080163      -219.8724
  18   2.0000      -6.042282      -164.4189
  19   2.0000      -6.038694      -164.3212
  20   2.0000      -6.038309      -164.3108
  21   2.0000      -6.034843      -164.2164
  22   2.0000      -6.034603      -164.2099
  23   2.0000      -6.030878      -164.1085
  24   2.0000      -1.013942       -27.5908
  25   2.0000      -0.988905       -26.9095
  26   2.0000      -0.918240       -24.9866
  27   2.0000      -0.907853       -24.7039
  28   2.0000      -0.866667       -23.5832
  29   2.0000      -0.856453       -23.3053
  30   2.0000      -0.848233       -23.0816
  31   2.0000      -0.812472       -22.1085
  32   2.0000      -0.784148       -21.3377
  33   2.0000      -0.776145       -21.1200
  34   2.0000      -0.708701       -19.2847
  35   2.0000      -0.698870       -19.0172
  36   2.0000      -0.692982       -18.8570
  37   2.0000      -0.672537       -18.3007
  38   2.0000      -0.644791       -17.5456
  39   2.0000      -0.619220       -16.8498
  40   2.0000      -0.602201       -16.3867
  41   2.0000      -0.577571       -15.7165
  42   2.0000      -0.564274       -15.3547
  43   2.0000      -0.548143       -14.9157
  44   2.0000      -0.540004       -14.6943
  45   2.0000      -0.526486       -14.3264
  46   2.0000      -0.517112       -14.0713
  47   2.0000      -0.512711       -13.9516
  48   2.0000      -0.502210       -13.6658
  49   2.0000      -0.497385       -13.5345
  50   2.0000      -0.492300       -13.3962
  51   2.0000      -0.485744       -13.2178
  52   2.0000      -0.473310       -12.8794
  53   2.0000      -0.468123       -12.7383
  54   2.0000      -0.463068       -12.6007
  55   2.0000      -0.449921       -12.2430
  56   2.0000      -0.441844       -12.0232
  57   2.0000      -0.440823       -11.9954
  58   2.0000      -0.430934       -11.7263
  59   2.0000      -0.429629       -11.6908
  60   2.0000      -0.420902       -11.4533
  61   2.0000      -0.419983       -11.4283
  62   2.0000      -0.409599       -11.1457
  63   2.0000      -0.346838        -9.4380
  64   2.0000      -0.334479        -9.1016
  65   2.0000      -0.329672        -8.9708
  66   2.0000      -0.289388        -7.8746
  67   0.0000       0.028194         0.7672
  68   0.0000       0.069216         1.8835
  69   0.0000       0.103253         2.8097
  70   0.0000       0.113192         3.0801
  71   0.0000       0.142260         3.8711

MULLIKEN ATOMIC CHARGES
-----------------------
   0 S :    0.119772
   1 C :   -0.118212
   2 C :   -0.038657
   3 C :    0.012028
   4 C :   -0.154815
   5 H :    0.014357
   6 C :    0.057354
   7 H :    0.031294
   8 H :    0.012950
   9 C :   -0.084441
  10 H :    0.026925
  11 H :    0.040789
  12 C :   -0.054194
  13 H :    0.026921
  14 H :    0.024332
  15 H :    0.046891
  16 S :    0.105753
  17 C :   -0.100122
  18 C :   -0.010379
  19 C :   -0.017009
  20 C :   -0.150844
  21 H :    0.002020
  22 C :    0.052479
  23 H :   -0.003330
  24 H :   -0.009227
  25 C :   -0.069076
  26 H :    0.030186
  27 H :    0.042488
  28 C :    0.002794
  29 H :    0.026977
  30 H :    0.007386
  31 H :    0.027421
  32 H :    0.035161
  33 H :    0.064027
Sum of atomic charges:   -0.0000000

LOEWDIN ATOMIC CHARGES
----------------------
   0 S :    0.420422
   1 C :   -0.186296
   2 C :   -0.066220
   3 C :   -0.064287
   4 C :   -0.202435
   5 H :    0.030051
   6 C :   -0.032494
   7 H :    0.031801
   8 H :    0.027691
   9 C :   -0.042815
  10 H :    0.025281
  11 H :    0.028248
  12 C :   -0.067447
  13 H :    0.018977
  14 H :    0.027573
  15 H :    0.026324
  16 S :    0.412990
  17 C :   -0.186147
  18 C :   -0.056670
  19 C :   -0.066361
  20 C :   -0.198811
  21 H :    0.023961
  22 C :   -0.038691
  23 H :    0.022334
  24 H :    0.022128
  25 C :   -0.024540
  26 H :    0.019412
  27 H :    0.030805
  28 C :   -0.050224
  29 H :    0.025287
  30 H :    0.011749
  31 H :    0.026126
  32 H :    0.020677
  33 H :    0.031600

  Mayer bond orders larger than 0.100000
B(  0-S ,  1-C ) :   1.1455 B(  0-S ,  4-C ) :   1.1694 B(  1-C ,  2-C ) :   1.5701
B(  1-C ,  4-C ) :   0.1043 B(  1-C , 32-H ) :   0.9796 B(  2-C ,  3-C ) :   1.2692
B(  2-C ,  6-C ) :   1.0012 B(  3-C ,  4-C ) :   1.5399 B(  3-C ,  5-H ) :   0.9912
B(  4-C , 20-C ) :   1.0302 B(  6-C ,  7-H ) :   0.9508 B(  6-C ,  8-H ) :   0.9456
B(  6-C ,  9-C ) :   1.0648 B(  9-C , 10-H ) :   0.9553 B(  9-C , 11-H ) :   0.9601
B(  9-C , 12-C ) :   1.0727 B( 12-C , 13-H ) :   0.9759 B( 12-C , 14-H ) :   0.9762
B( 12-C , 15-H ) :   0.9759 B( 16-S , 17-C ) :   1.1421 B( 16-S , 20-C ) :   1.1530
B( 17-C , 18-C ) :   1.5935 B( 17-C , 33-H ) :   0.9692 B( 18-C , 19-C ) :   1.2502
B( 18-C , 21-H ) :   0.9888 B( 19-C , 20-C ) :   1.6056 B( 19-C , 22-C ) :   1.0613
B( 22-C , 23-H ) :   0.9217 B( 22-C , 24-H ) :   0.9240 B( 22-C , 25-C ) :   1.0631
B( 25-C , 26-H ) :   0.9526 B( 25-C , 27-H ) :   0.9569 B( 25-C , 28-C ) :   1.0821
B( 28-C , 29-H ) :   0.9721 B( 28-C , 30-H ) :   0.9742 B( 28-C , 31-H ) :   0.9696

Dispersion correction           -0.014605737
FINAL SINGLE POINT ENERGY     -1339.869578216394

DIPOLE MOMENT
-------------
                                X             Y             Z
Electronic contribution:     24.17243       8.56774       1.21866
Nuclear contribution   :    -24.67392      -8.96203      -1.23255
                        -----------------------------------------
Total Dipole Moment    :     -0.50149      -0.39429      -0.01389
                        -----------------------------------------
Magnitude (a.u.)       :      0.63808
Magnitude (Debye)      :      1.62187

Rotational constants in cm-1:     0.018981     0.008918     0.007065
Rotational constants in MHz :   569.038853   267.369171   211.814148

                             ****ORCA TERMINATED NORMALLY****
TOTAL RUN TIME: 0 days 0 hours 0 minutes 21 seconds 48 msec
