                         Program Version 4.2.1 -  RELEASE  -
|  1> ! wB97X-D3 SP def2-SVP
|  2> %pal
|  3> nprocs 24
|  4> end
|  5>
|  6> * xyz 0 1
|  7> S 	 -32.0879 	 -35.5831 	 -93.6326
|  8> C 	 -32.8367 	 -33.9872 	 -93.6289
|  9> C 	 -32.0147 	 -33.1885 	 -92.8049
| 10> C 	 -30.7523 	 -33.8015 	 -92.441
| 11> C 	 -30.6427 	 -35.1613 	 -92.7349
| 12> H 	 -29.9397 	 -33.3529 	 -91.8727
| 13> C 	 -32.532 	 -31.7749 	 -92.4543
| 14> H 	 -32.8272 	 -31.9809 	 -91.4682
| 15> H 	 -33.4626 	 -31.4682 	 -92.9022
| 16> C 	 -31.4229 	 -30.6389 	 -92.5417
| 17> H 	 -31.8828 	 -29.7265 	 -92.098
| 18> H 	 -30.4694 	 -30.7891 	 -92.0781
| 19> C 	 -31.1283 	 -30.1585 	 -93.9289
| 20> H 	 -30.6759 	 -30.9395 	 -94.5616
| 21> H 	 -32.1057 	 -29.8333 	 -94.3368
| 22> H 	 -30.4107 	 -29.2807 	 -93.7811
| 23> S 	 -29.4368 	 -37.3801 	 -93.6246
| 24> C 	 -28.1465 	 -38.1607 	 -92.7691
| 25> C 	 -27.7963 	 -37.3917 	 -91.6178
| 26> C 	 -28.664 	 -36.218 	 -91.4096
| 27> C 	 -29.5678 	 -36.1036 	 -92.4581
| 28> H 	 -27.0289 	 -37.884 	 -91.0201
| 29> C 	 -28.5327 	 -35.3875 	 -90.1328
| 30> H 	 -29.1222 	 -34.4744 	 -90.099
| 31> H 	 -27.5535 	 -34.9572 	 -90.186
| 32> C 	 -28.5968 	 -36.1474 	 -88.7723
| 33> H 	 -27.7867 	 -36.82 	 -88.8109
| 34> H 	 -29.3987 	 -36.8721 	 -88.7253
| 35> C 	 -28.4546 	 -35.1795 	 -87.5975
| 36> H 	 -28.2315 	 -35.7609 	 -86.6766
| 37> H 	 -29.3152 	 -34.6007 	 -87.3312
| 38> H 	 -27.6612 	 -34.4792 	 -87.8662
| 39> H 	 -33.8582 	 -33.7277 	 -93.7243
| 40> H 	 -27.6348 	 -39.0375 	 -93.0126
| 41> *
| 42>
| 43>                          ****END OF INPUT****

CARTESIAN COORDINATES (ANGSTROEM)
---------------------------------
  S    -32.087900  -35.583100  -93.632600
  C    -32.836700  -33.987200  -93.628900
  C    -32.014700  -33.188500  -92.804900
  C    -30.752300  -33.801500  -92.441000
  C    -30.642700  -35.161300  -92.734900
  H    -29.939700  -33.352900  -91.872700
  C    -32.532000  -31.774900  -92.454300
  H    -32.827200  -31.980900  -91.468200
  H    -33.462600  -31.468200  -92.902200
  C    -31.422900  -30.638900  -92.541700
  H    -31.882800  -29.726500  -92.098000
  H    -30.469400  -30.789100  -92.078100
  C    -31.128300  -30.158500  -93.928900
  H    -30.675900  -30.939500  -94.561600
  H    -32.105700  -29.833300  -94.336800
  H    -30.410700  -29.280700  -93.781100
  S    -29.436800  -37.380100  -93.624600
  C    -28.146500  -38.160700  -92.769100
  C    -27.796300  -37.391700  -91.617800
  C    -28.664000  -36.218000  -91.409600
  C    -29.567800  -36.103600  -92.458100
  H    -27.028900  -37.884000  -91.020100
  C    -28.532700  -35.387500  -90.132800
  H    -29.122200  -34.474400  -90.099000
  H    -27.553500  -34.957200  -90.186000
  C    -28.596800  -36.147400  -88.772300
  H    -27.786700  -36.820000  -88.810900
  H    -29.398700  -36.872100  -88.725300
  C    -28.454600  -35.179500  -87.597500
  H    -28.231500  -35.760900  -86.676600
  H    -29.315200  -34.600700  -87.331200
  H    -27.661200  -34.479200  -87.866200
  H    -33.858200  -33.727700  -93.724300
  H    -27.634800  -39.037500  -93.012600

 Total Charge           Charge          ....    0
 Multiplicity           Mult            ....    1
 Number of Electrons    NEL             ....  134
 Basis Dimension        Dim             ....  322

ORBITAL ENERGIES
----------------

  NO   OCC          E(Eh)            E(eV)
   0   2.0000     -88.968972     -2420.9688
   1   2.0000     -88.962509     -2420.7929
   2   2.0000     -10.336085      -281.2592
   3   2.0000     -10.333160      -281.1796
   4   2.0000     -10.319155      -280.7985
   5   2.0000     -10.318281      -280.7747
   6   2.0000     -10.310662      -280.5674
   7   2.0000     -10.309820      -280.5445
   8   2.0000     -10.305044      -280.4145
   9   2.0000     -10.298326      -280.2317
  10   2.0000     -10.295434      -280.1530
  11   2.0000     -10.294476      -280.1269
  12   2.0000     -10.287330      -279.9325
  13   2.0000     -10.285599      -279.8854
  14   2.0000     -10.282643      -279.8049
  15   2.0000     -10.279512      -279.7198
  16   2.0000      -8.084047      -219.9781
  17   2.0000      -8.076693      -219.7780
  18   2.0000      -6.042579      -164.4269
  19   2.0000      -6.038320      -164.3111
  20   2.0000      -6.035329      -164.2297
  21   2.0000      -6.034927      -164.2187
  22   2.0000      -6.031086      -164.1142
  23   2.0000      -6.027487      -164.0163
  24   2.0000      -1.006786       -27.3960
  25   2.0000      -0.979940       -26.6655
  26   2.0000      -0.912112       -24.8198
  27   2.0000      -0.907575       -24.6964
  28   2.0000      -0.871842       -23.7240
  29   2.0000      -0.854385       -23.2490
  30   2.0000      -0.839182       -22.8353
  31   2.0000      -0.819106       -22.2890
  32   2.0000      -0.783384       -21.3170
  33   2.0000      -0.772280       -21.0148
  34   2.0000      -0.715161       -19.4605
  35   2.0000      -0.705810       -19.2061
  36   2.0000      -0.685876       -18.6636
  37   2.0000      -0.662481       -18.0270
  38   2.0000      -0.641103       -17.4453
  39   2.0000      -0.618189       -16.8218
  40   2.0000      -0.599437       -16.3115
  41   2.0000      -0.571359       -15.5475
  42   2.0000      -0.561492       -15.2790
  43   2.0000      -0.550543       -14.9810
  44   2.0000      -0.540165       -14.6986
  45   2.0000      -0.528241       -14.3742
  46   2.0000      -0.519518       -14.1368
  47   2.0000      -0.517190       -14.0734
  48   2.0000      -0.514893       -14.0109
  49   2.0000      -0.502866       -13.6837
  50   2.0000      -0.484574       -13.1859
  51   2.0000      -0.478737       -13.0271
  52   2.0000      -0.476331       -12.9616
  53   2.0000      -0.465844       -12.6763
  54   2.0000      -0.460010       -12.5175
  55   2.0000      -0.449978       -12.2445
  56   2.0000      -0.442651       -12.0451
  57   2.0000      -0.436336       -11.8733
  58   2.0000      -0.434361       -11.8196
  59   2.0000      -0.429629       -11.6908
  60   2.0000      -0.424298       -11.5457
  61   2.0000      -0.411835       -11.2066
  62   2.0000      -0.392352       -10.6765
  63   2.0000      -0.358055        -9.7432
  64   2.0000      -0.330830        -9.0023
  65   2.0000      -0.323437        -8.8012
  66   2.0000      -0.287277        -7.8172
  67   0.0000       0.020055         0.5457
  68   0.0000       0.078446         2.1346
  69   0.0000       0.110048         2.9946
  70   0.0000       0.111105         3.0233
  71   0.0000       0.139449         3.7946

MULLIKEN ATOMIC CHARGES
-----------------------
   0 S :    0.086758
   1 C :   -0.085792
   2 C :   -0.145598
   3 C :    0.009704
   4 C :   -0.116108
   5 H :    0.012147
   6 C :    0.103839
   7 H :    0.026935
   8 H :    0.013082
   9 C :   -0.095342
  10 H :    0.026561
  11 H :    0.030809
  12 C :   -0.067266
  13 H :    0.049013
  14 H :    0.027289
  15 H :    0.044055
  16 S :    0.117990
  17 C :   -0.079893
  18 C :   -0.069180
  19 C :   -0.023920
  20 C :   -0.140865
  21 H :    0.031773
  22 C :    0.065818
  23 H :    0.012617
  24 H :    0.021204
  25 C :   -0.047810
  26 H :    0.007642
  27 H :    0.029972
  28 C :   -0.041591
  29 H :    0.039652
  30 H :    0.035704
  31 H :    0.028397
  32 H :    0.051911
  33 H :    0.040494
Sum of atomic charges:   -0.0000000

LOEWDIN ATOMIC CHARGES
----------------------
   0 S :    0.394705
   1 C :   -0.210862
   2 C :   -0.049424
   3 C :   -0.082938
   4 C :   -0.183269
   5 H :    0.027437
   6 C :   -0.026497
   7 H :    0.029864
   8 H :    0.029025
   9 C :   -0.045845
  10 H :    0.028291
  11 H :    0.019044
  12 C :   -0.067751
  13 H :    0.025452
  14 H :    0.023315
  15 H :    0.034852
  16 S :    0.427991
  17 C :   -0.185269
  18 C :   -0.071185
  19 C :   -0.048450
  20 C :   -0.200701
  21 H :    0.032815
  22 C :   -0.033255
  23 H :    0.024681
  24 H :    0.032233
  25 C :   -0.034768
  26 H :    0.016485
  27 H :    0.024499
  28 C :   -0.062250
  29 H :    0.033739
  30 H :    0.023338
  31 H :    0.027264
  32 H :    0.027373
  33 H :    0.020062

  Mayer bond orders larger than 0.100000
B(  0-S ,  1-C ) :   1.1226 B(  0-S ,  4-C ) :   1.1644 B(  1-C ,  2-C ) :   1.5913
B(  1-C ,  4-C ) :   0.1053 B(  1-C , 32-H ) :   0.9687 B(  2-C ,  3-C ) :   1.2483
B(  2-C ,  6-C ) :   1.0061 B(  3-C ,  4-C ) :   1.5539 B(  3-C ,  5-H ) :   0.9884
B(  4-C , 20-C ) :   1.0661 B(  6-C ,  7-H ) :   0.9306 B(  6-C ,  8-H ) :   0.9476
B(  6-C ,  9-C ) :   1.0640 B(  9-C , 10-H ) :   0.9573 B(  9-C , 11-H ) :   0.9629
B(  9-C , 12-C ) :   1.0716 B( 12-C , 13-H ) :   0.9759 B( 12-C , 14-H ) :   0.9759
B( 12-C , 15-H ) :   0.9736 B( 16-S , 17-C ) :   1.1600 B( 16-S , 20-C ) :   1.1450
B( 17-C , 18-C ) :   1.6175 B( 17-C , 33-H ) :   0.9755 B( 18-C , 19-C ) :   1.2103
B( 18-C , 21-H ) :   0.9862 B( 19-C , 20-C ) :   1.5918 B( 19-C , 22-C ) :   1.0411
B( 22-C , 23-H ) :   0.9400 B( 22-C , 24-H ) :   0.9219 B( 22-C , 25-C ) :   1.0538
B( 25-C , 26-H ) :   0.9488 B( 25-C , 27-H ) :   0.9590 B( 25-C , 28-C ) :   1.0799
B( 28-C , 29-H ) :   0.9731 B( 28-C , 30-H ) :   0.9772 B( 28-C , 31-H ) :   0.9717

Dispersion correction           -0.013345536
FINAL SINGLE POINT ENERGY     -1339.851696074061

DIPOLE MOMENT
-------------
                                X             Y             Z
Electronic contribution:     -4.52885     -21.65351     -17.60151
Nuclear contribution   :      4.76052      21.96503      18.37358
                        -----------------------------------------
Total Dipole Moment    :      0.23166       0.31152       0.77207
                        -----------------------------------------
Magnitude (a.u.)       :      0.86418
Magnitude (Debye)      :      2.19656

Rotational constants in cm-1:     0.016817     0.008562     0.006432
Rotational constants in MHz :   504.149453   256.690520   192.812333

                             ****ORCA TERMINATED NORMALLY****
TOTAL RUN TIME: 0 days 0 hours 0 minutes 19 seconds 808 msec
