                         Program Version 4.2.1 -  RELEASE  -
|  1> ! wB97X-D3 SP def2-SVP
|  2> %pal
|  3> nprocs 24
|  4> end
|  5>
|  6> * xyz 0 1
|  7> S 	 -61.9525 	 -59.2482 	 -75.4236
|  8> C 	 -63.6937 	 -59.201 	 -75.2737
|  9> C 	 -64.244 	 -58.3814 	 -76.296
| 10> C 	 -63.2709 	 -57.8663 	 -77.2475
| 11> C 	 -61.9889 	 -58.142 	 -76.8493
| 12> H 	 -63.4424 	 -57.3054 	 -78.176
| 13> C 	 -65.7657 	 -58.1437 	 -76.526
| 14> H 	 -66.2828 	 -58.6825 	 -75.7124
| 15> H 	 -66.0329 	 -58.6795 	 -77.3934
| 16> C 	 -66.3018 	 -56.6644 	 -76.5344
| 17> H 	 -65.6794 	 -56.195 	 -77.3068
| 18> H 	 -67.3889 	 -56.5355 	 -76.73
| 19> C 	 -65.8258 	 -56.0777 	 -75.165
| 20> H 	 -66.1264 	 -55.0169 	 -75.0557
| 21> H 	 -66.1459 	 -56.6953 	 -74.3399
| 22> H 	 -64.7268 	 -55.9479 	 -75.0482
| 23> S 	 -59.6301 	 -58.9382 	 -77.9735
| 24> C 	 -58.8041 	 -57.8146 	 -79.0181
| 25> C 	 -59.2366 	 -56.5152 	 -78.7832
| 26> C 	 -60.3084 	 -56.4109 	 -77.8294
| 27> C 	 -60.7538 	 -57.669 	 -77.4195
| 28> H 	 -58.7096 	 -55.7472 	 -79.3836
| 29> C 	 -61.0316 	 -55.1645 	 -77.4285
| 30> H 	 -61.5284 	 -55.278 	 -76.4564
| 31> H 	 -61.8818 	 -55.101 	 -78.1676
| 32> C 	 -60.0745 	 -53.9413 	 -77.471
| 33> H 	 -60.4945 	 -52.9545 	 -77.385
| 34> H 	 -59.7312 	 -53.8256 	 -78.5086
| 35> C 	 -58.8885 	 -53.9935 	 -76.4992
| 36> H 	 -58.3227 	 -53.0594 	 -76.5658
| 37> H 	 -58.1382 	 -54.7917 	 -76.7351
| 38> H 	 -59.166 	 -54.0444 	 -75.4533
| 39> H 	 -64.2098 	 -59.7409 	 -74.483
| 40> H 	 -58.0237 	 -58.0706 	 -79.6872
| 41> *
| 42>
| 43>                          ****END OF INPUT****

CARTESIAN COORDINATES (ANGSTROEM)
---------------------------------
  S    -61.952500  -59.248200  -75.423600
  C    -63.693700  -59.201000  -75.273700
  C    -64.244000  -58.381400  -76.296000
  C    -63.270900  -57.866300  -77.247500
  C    -61.988900  -58.142000  -76.849300
  H    -63.442400  -57.305400  -78.176000
  C    -65.765700  -58.143700  -76.526000
  H    -66.282800  -58.682500  -75.712400
  H    -66.032900  -58.679500  -77.393400
  C    -66.301800  -56.664400  -76.534400
  H    -65.679400  -56.195000  -77.306800
  H    -67.388900  -56.535500  -76.730000
  C    -65.825800  -56.077700  -75.165000
  H    -66.126400  -55.016900  -75.055700
  H    -66.145900  -56.695300  -74.339900
  H    -64.726800  -55.947900  -75.048200
  S    -59.630100  -58.938200  -77.973500
  C    -58.804100  -57.814600  -79.018100
  C    -59.236600  -56.515200  -78.783200
  C    -60.308400  -56.410900  -77.829400
  C    -60.753800  -57.669000  -77.419500
  H    -58.709600  -55.747200  -79.383600
  C    -61.031600  -55.164500  -77.428500
  H    -61.528400  -55.278000  -76.456400
  H    -61.881800  -55.101000  -78.167600
  C    -60.074500  -53.941300  -77.471000
  H    -60.494500  -52.954500  -77.385000
  H    -59.731200  -53.825600  -78.508600
  C    -58.888500  -53.993500  -76.499200
  H    -58.322700  -53.059400  -76.565800
  H    -58.138200  -54.791700  -76.735100
  H    -59.166000  -54.044400  -75.453300
  H    -64.209800  -59.740900  -74.483000
  H    -58.023700  -58.070600  -79.687200

 Total Charge           Charge          ....    0
 Multiplicity           Mult            ....    1
 Number of Electrons    NEL             ....  134
 Basis Dimension        Dim             ....  322

ORBITAL ENERGIES
----------------

  NO   OCC          E(Eh)            E(eV)
   0   2.0000     -88.964396     -2420.8443
   1   2.0000     -88.961604     -2420.7683
   2   2.0000     -10.332847      -281.1710
   3   2.0000     -10.324745      -280.9506
   4   2.0000     -10.321435      -280.8605
   5   2.0000     -10.317389      -280.7504
   6   2.0000     -10.312980      -280.6304
   7   2.0000     -10.310016      -280.5498
   8   2.0000     -10.300691      -280.2960
   9   2.0000     -10.300019      -280.2778
  10   2.0000     -10.299084      -280.2523
  11   2.0000     -10.296497      -280.1819
  12   2.0000     -10.291568      -280.0478
  13   2.0000     -10.289084      -279.9802
  14   2.0000     -10.278150      -279.6827
  15   2.0000     -10.277552      -279.6664
  16   2.0000      -8.078551      -219.8285
  17   2.0000      -8.076357      -219.7688
  18   2.0000      -6.037108      -164.2781
  19   2.0000      -6.034769      -164.2144
  20   2.0000      -6.033155      -164.1705
  21   2.0000      -6.030885      -164.1087
  22   2.0000      -6.029285      -164.0652
  23   2.0000      -6.027180      -164.0079
  24   2.0000      -1.002016       -27.2662
  25   2.0000      -0.976786       -26.5797
  26   2.0000      -0.908748       -24.7283
  27   2.0000      -0.902016       -24.5451
  28   2.0000      -0.869542       -23.6614
  29   2.0000      -0.846088       -23.0232
  30   2.0000      -0.839700       -22.8494
  31   2.0000      -0.812089       -22.0981
  32   2.0000      -0.780666       -21.2430
  33   2.0000      -0.766414       -20.8552
  34   2.0000      -0.710190       -19.3253
  35   2.0000      -0.702458       -19.1149
  36   2.0000      -0.693427       -18.8691
  37   2.0000      -0.651940       -17.7402
  38   2.0000      -0.643780       -17.5181
  39   2.0000      -0.618247       -16.8234
  40   2.0000      -0.596964       -16.2442
  41   2.0000      -0.559617       -15.2279
  42   2.0000      -0.554257       -15.0821
  43   2.0000      -0.550521       -14.9804
  44   2.0000      -0.541528       -14.7357
  45   2.0000      -0.529872       -14.4186
  46   2.0000      -0.520174       -14.1547
  47   2.0000      -0.513868       -13.9830
  48   2.0000      -0.503378       -13.6976
  49   2.0000      -0.489273       -13.3138
  50   2.0000      -0.487584       -13.2678
  51   2.0000      -0.477320       -12.9885
  52   2.0000      -0.472461       -12.8563
  53   2.0000      -0.465555       -12.6684
  54   2.0000      -0.451987       -12.2992
  55   2.0000      -0.447533       -12.1780
  56   2.0000      -0.441258       -12.0072
  57   2.0000      -0.436281       -11.8718
  58   2.0000      -0.424539       -11.5523
  59   2.0000      -0.421390       -11.4666
  60   2.0000      -0.419182       -11.4065
  61   2.0000      -0.418325       -11.3832
  62   2.0000      -0.412972       -11.2375
  63   2.0000      -0.346635        -9.4324
  64   2.0000      -0.329250        -8.9594
  65   2.0000      -0.325580        -8.8595
  66   2.0000      -0.288954        -7.8628
  67   0.0000       0.026389         0.7181
  68   0.0000       0.061522         1.6741
  69   0.0000       0.107894         2.9360
  70   0.0000       0.117553         3.1988
  71   0.0000       0.130006         3.5376

MULLIKEN ATOMIC CHARGES
-----------------------
   0 S :    0.094702
   1 C :   -0.118697
   2 C :   -0.113953
   3 C :    0.027158
   4 C :   -0.147972
   5 H :    0.035152
   6 C :    0.053196
   7 H :    0.013940
   8 H :    0.029461
   9 C :   -0.063647
  10 H :    0.027625
  11 H :    0.056122
  12 C :   -0.078164
  13 H :    0.030035
  14 H :    0.029323
  15 H :    0.045583
  16 S :    0.098610
  17 C :   -0.081933
  18 C :   -0.071834
  19 C :   -0.025686
  20 C :   -0.162207
  21 H :    0.036488
  22 C :    0.070701
  23 H :    0.043407
  24 H :    0.047086
  25 C :   -0.066363
  26 H :    0.017601
  27 H :    0.016339
  28 C :   -0.061400
  29 H :    0.027061
  30 H :    0.047997
  31 H :    0.035528
  32 H :    0.061587
  33 H :    0.047154
Sum of atomic charges:    0.0000000

LOEWDIN ATOMIC CHARGES
----------------------
   0 S :    0.378191
   1 C :   -0.200091
   2 C :   -0.055379
   3 C :   -0.063586
   4 C :   -0.174372
   5 H :    0.040403
   6 C :   -0.033165
   7 H :    0.025552
   8 H :    0.022364
   9 C :   -0.039380
  10 H :    0.022890
  11 H :    0.033179
  12 C :   -0.073046
  13 H :    0.024560
  14 H :    0.020210
  15 H :    0.032524
  16 S :    0.392183
  17 C :   -0.176209
  18 C :   -0.081352
  19 C :   -0.049409
  20 C :   -0.196289
  21 H :    0.038274
  22 C :   -0.033682
  23 H :    0.034860
  24 H :    0.041393
  25 C :   -0.048194
  26 H :    0.023819
  27 H :    0.024176
  28 C :   -0.069830
  29 H :    0.027986
  30 H :    0.030856
  31 H :    0.025346
  32 H :    0.031426
  33 H :    0.023794

  Mayer bond orders larger than 0.100000
B(  0-S ,  1-C ) :   1.1333 B(  0-S ,  4-C ) :   1.1336 B(  1-C ,  2-C ) :   1.6150
B(  1-C , 32-H ) :   0.9693 B(  2-C ,  3-C ) :   1.2007 B(  2-C ,  6-C ) :   1.0142
B(  3-C ,  4-C ) :   1.6084 B(  3-C ,  5-H ) :   0.9884 B(  4-C , 20-C ) :   1.0397
B(  6-C ,  7-H ) :   0.9485 B(  6-C ,  8-H ) :   0.9458 B(  6-C ,  9-C ) :   1.0531
B(  9-C , 10-H ) :   0.9560 B(  9-C , 11-H ) :   0.9611 B(  9-C , 12-C ) :   1.0657
B( 12-C , 13-H ) :   0.9744 B( 12-C , 14-H ) :   0.9803 B( 12-C , 15-H ) :   0.9704
B( 16-S , 17-C ) :   1.1611 B( 16-S , 20-C ) :   1.1294 B( 17-C , 18-C ) :   1.6184
B( 17-C , 20-C ) :   0.1034 B( 17-C , 33-H ) :   0.9711 B( 18-C , 19-C ) :   1.2044
B( 18-C , 21-H ) :   0.9871 B( 19-C , 20-C ) :   1.5897 B( 19-C , 22-C ) :   1.0341
B( 22-C , 23-H ) :   0.9404 B( 22-C , 24-H ) :   0.9313 B( 22-C , 25-C ) :   1.0636
B( 25-C , 26-H ) :   0.9567 B( 25-C , 27-H ) :   0.9456 B( 25-C , 28-C ) :   1.0813
B( 28-C , 29-H ) :   0.9720 B( 28-C , 30-H ) :   0.9725 B( 28-C , 31-H ) :   0.9750

Dispersion correction           -0.014939352
FINAL SINGLE POINT ENERGY     -1339.873788374074

DIPOLE MOMENT
-------------
                                X             Y             Z
Electronic contribution:     11.97273     -22.85783      -2.22846
Nuclear contribution   :    -12.24376      23.46897       1.92856
                        -----------------------------------------
Total Dipole Moment    :     -0.27103       0.61114      -0.29990
                        -----------------------------------------
Magnitude (a.u.)       :      0.73273
Magnitude (Debye)      :      1.86244

Rotational constants in cm-1:     0.019002     0.008937     0.007009
Rotational constants in MHz :   569.655632   267.921689   210.133736

                             ****ORCA TERMINATED NORMALLY****
TOTAL RUN TIME: 0 days 0 hours 0 minutes 20 seconds 792 msec
