                         Program Version 4.2.1 -  RELEASE  -
|  1> ! wB97X-D3 SP def2-SVP
|  2> %pal
|  3> nprocs 24
|  4> end
|  5>
|  6> * xyz 0 1
|  7> S 	 -66.032 	 8.56297 	 18.3963
|  8> C 	 -65.3293 	 9.84514 	 19.29
|  9> C 	 -64.5007 	 9.41555 	 20.2775
| 10> C 	 -64.5795 	 8.01067 	 20.481
| 11> C 	 -65.3654 	 7.36428 	 19.5527
| 12> H 	 -64.0204 	 7.43986 	 21.2283
| 13> C 	 -63.7137 	 10.2826 	 21.2942
| 14> H 	 -63.8011 	 9.75317 	 22.2693
| 15> H 	 -64.1629 	 11.2647 	 21.5698
| 16> C 	 -62.1993 	 10.4708 	 21.0606
| 17> H 	 -61.7404 	 9.47539 	 21.2478
| 18> H 	 -61.9524 	 10.7198 	 20.047
| 19> C 	 -61.5913 	 11.4147 	 22.0383
| 20> H 	 -60.5375 	 11.1885 	 21.9976
| 21> H 	 -61.821 	 12.3587 	 21.6217
| 22> H 	 -61.9465 	 11.1224 	 23.0251
| 23> S 	 -67.4069 	 5.64597 	 19.5982
| 24> C 	 -67.1173 	 3.95991 	 19.8074
| 25> C 	 -65.793 	 3.61204 	 19.5857
| 26> C 	 -64.9942 	 4.76798 	 19.3908
| 27> C 	 -65.7515 	 5.96185 	 19.4701
| 28> H 	 -65.4297 	 2.60254 	 19.6409
| 29> C 	 -63.4231 	 4.61906 	 19.2945
| 30> H 	 -63.1519 	 3.57062 	 19.4515
| 31> H 	 -63.0349 	 5.1698 	 20.1527
| 32> C 	 -62.8617 	 5.17498 	 17.9436
| 33> H 	 -63.0512 	 6.25438 	 17.9865
| 34> H 	 -63.529 	 5.03813 	 17.1187
| 35> C 	 -61.4333 	 4.77183 	 17.645
| 36> H 	 -61.3701 	 3.69441 	 17.5206
| 37> H 	 -60.9018 	 4.90367 	 18.6142
| 38> H 	 -61.0143 	 5.38624 	 16.8632
| 39> H 	 -65.5515 	 10.9528 	 19.1726
| 40> H 	 -67.8604 	 3.15823 	 19.8085
| 41> *
| 42>
| 43>                          ****END OF INPUT****

CARTESIAN COORDINATES (ANGSTROEM)
---------------------------------
  S    -66.032000    8.562970   18.396300
  C    -65.329300    9.845140   19.290000
  C    -64.500700    9.415550   20.277500
  C    -64.579500    8.010670   20.481000
  C    -65.365400    7.364280   19.552700
  H    -64.020400    7.439860   21.228300
  C    -63.713700   10.282600   21.294200
  H    -63.801100    9.753170   22.269300
  H    -64.162900   11.264700   21.569800
  C    -62.199300   10.470800   21.060600
  H    -61.740400    9.475390   21.247800
  H    -61.952400   10.719800   20.047000
  C    -61.591300   11.414700   22.038300
  H    -60.537500   11.188500   21.997600
  H    -61.821000   12.358700   21.621700
  H    -61.946500   11.122400   23.025100
  S    -67.406900    5.645970   19.598200
  C    -67.117300    3.959910   19.807400
  C    -65.793000    3.612040   19.585700
  C    -64.994200    4.767980   19.390800
  C    -65.751500    5.961850   19.470100
  H    -65.429700    2.602540   19.640900
  C    -63.423100    4.619060   19.294500
  H    -63.151900    3.570620   19.451500
  H    -63.034900    5.169800   20.152700
  C    -62.861700    5.174980   17.943600
  H    -63.051200    6.254380   17.986500
  H    -63.529000    5.038130   17.118700
  C    -61.433300    4.771830   17.645000
  H    -61.370100    3.694410   17.520600
  H    -60.901800    4.903670   18.614200
  H    -61.014300    5.386240   16.863200
  H    -65.551500   10.952800   19.172600
  H    -67.860400    3.158230   19.808500

 Total Charge           Charge          ....    0
 Multiplicity           Mult            ....    1
 Number of Electrons    NEL             ....  134
 Basis Dimension        Dim             ....  322

ORBITAL ENERGIES
----------------

  NO   OCC          E(Eh)            E(eV)
   0   2.0000     -88.968845     -2420.9653
   1   2.0000     -88.965719     -2420.8803
   2   2.0000     -10.330651      -281.1113
   3   2.0000     -10.323179      -280.9080
   4   2.0000     -10.314449      -280.6704
   5   2.0000     -10.313865      -280.6545
   6   2.0000     -10.307087      -280.4701
   7   2.0000     -10.298834      -280.2455
   8   2.0000     -10.297651      -280.2133
   9   2.0000     -10.296653      -280.1862
  10   2.0000     -10.294973      -280.1405
  11   2.0000     -10.291964      -280.0586
  12   2.0000     -10.280362      -279.7429
  13   2.0000     -10.278153      -279.6828
  14   2.0000     -10.277297      -279.6595
  15   2.0000     -10.272362      -279.5252
  16   2.0000      -8.084861      -220.0003
  17   2.0000      -8.080544      -219.8828
  18   2.0000      -6.043149      -164.4424
  19   2.0000      -6.039099      -164.3322
  20   2.0000      -6.039086      -164.3319
  21   2.0000      -6.035848      -164.2438
  22   2.0000      -6.035089      -164.2231
  23   2.0000      -6.031217      -164.1178
  24   2.0000      -1.011822       -27.5331
  25   2.0000      -0.988812       -26.9069
  26   2.0000      -0.913508       -24.8578
  27   2.0000      -0.901965       -24.5437
  28   2.0000      -0.874086       -23.7851
  29   2.0000      -0.853121       -23.2146
  30   2.0000      -0.850508       -23.1435
  31   2.0000      -0.813249       -22.1296
  32   2.0000      -0.779662       -21.2157
  33   2.0000      -0.767605       -20.8876
  34   2.0000      -0.706433       -19.2230
  35   2.0000      -0.693215       -18.8633
  36   2.0000      -0.689619       -18.7655
  37   2.0000      -0.663448       -18.0533
  38   2.0000      -0.638058       -17.3624
  39   2.0000      -0.621158       -16.9026
  40   2.0000      -0.592153       -16.1133
  41   2.0000      -0.578368       -15.7382
  42   2.0000      -0.563995       -15.3471
  43   2.0000      -0.552657       -15.0386
  44   2.0000      -0.530732       -14.4420
  45   2.0000      -0.524037       -14.2598
  46   2.0000      -0.512430       -13.9439
  47   2.0000      -0.506799       -13.7907
  48   2.0000      -0.502406       -13.6712
  49   2.0000      -0.499778       -13.5997
  50   2.0000      -0.493470       -13.4280
  51   2.0000      -0.486534       -13.2393
  52   2.0000      -0.472455       -12.8562
  53   2.0000      -0.464795       -12.6477
  54   2.0000      -0.461780       -12.5657
  55   2.0000      -0.453999       -12.3539
  56   2.0000      -0.446357       -12.1460
  57   2.0000      -0.438910       -11.9433
  58   2.0000      -0.432264       -11.7625
  59   2.0000      -0.423055       -11.5119
  60   2.0000      -0.421514       -11.4700
  61   2.0000      -0.410042       -11.1578
  62   2.0000      -0.398340       -10.8394
  63   2.0000      -0.345357        -9.3976
  64   2.0000      -0.333019        -9.0619
  65   2.0000      -0.327698        -8.9171
  66   2.0000      -0.296322        -8.0633
  67   0.0000       0.032179         0.8756
  68   0.0000       0.067732         1.8431
  69   0.0000       0.116120         3.1598
  70   0.0000       0.123130         3.3505
  71   0.0000       0.129858         3.5336

MULLIKEN ATOMIC CHARGES
-----------------------
   0 S :    0.107818
   1 C :   -0.143153
   2 C :   -0.045169
   3 C :    0.040267
   4 C :   -0.167524
   5 H :    0.019260
   6 C :    0.006731
   7 H :    0.022195
   8 H :    0.022898
   9 C :   -0.093117
  10 H :    0.015665
  11 H :    0.024805
  12 C :    0.005424
  13 H :    0.030964
  14 H :    0.034235
  15 H :    0.027499
  16 S :    0.142703
  17 C :   -0.087777
  18 C :   -0.054728
  19 C :   -0.033507
  20 C :   -0.184547
  21 H :    0.016806
  22 C :    0.078972
  23 H :    0.013135
  24 H :    0.032570
  25 C :   -0.091916
  26 H :    0.026610
  27 H :    0.017674
  28 C :   -0.010601
  29 H :    0.030911
  30 H :    0.021905
  31 H :    0.046145
  32 H :    0.069657
  33 H :    0.057193
Sum of atomic charges:   -0.0000000

LOEWDIN ATOMIC CHARGES
----------------------
   0 S :    0.394264
   1 C :   -0.213184
   2 C :   -0.072728
   3 C :   -0.057324
   4 C :   -0.184637
   5 H :    0.034678
   6 C :   -0.038627
   7 H :    0.031485
   8 H :    0.027044
   9 C :   -0.042723
  10 H :    0.020359
  11 H :    0.017441
  12 C :   -0.054798
  13 H :    0.029233
  14 H :    0.023521
  15 H :    0.026873
  16 S :    0.460193
  17 C :   -0.201757
  18 C :   -0.070873
  19 C :   -0.047393
  20 C :   -0.234895
  21 H :    0.030636
  22 C :   -0.022801
  23 H :    0.023757
  24 H :    0.029953
  25 C :   -0.052393
  26 H :    0.028148
  27 H :    0.019556
  28 C :   -0.063038
  29 H :    0.025370
  30 H :    0.028932
  31 H :    0.029443
  32 H :    0.045324
  33 H :    0.030962

  Mayer bond orders larger than 0.100000
B(  0-S ,  1-C ) :   1.1382 B(  0-S ,  4-C ) :   1.1333 B(  1-C ,  2-C ) :   1.6382
B(  1-C , 32-H ) :   0.9542 B(  2-C ,  3-C ) :   1.2360 B(  2-C ,  6-C ) :   1.0047
B(  3-C ,  4-C ) :   1.6049 B(  3-C ,  5-H ) :   0.9889 B(  4-C , 20-C ) :   1.0252
B(  6-C ,  7-H ) :   0.9414 B(  6-C ,  8-H ) :   0.9545 B(  6-C ,  9-C ) :   1.0569
B(  9-C , 10-H ) :   0.9551 B(  9-C , 11-H ) :   0.9598 B(  9-C , 12-C ) :   1.0785
B( 12-C , 13-H ) :   0.9728 B( 12-C , 14-H ) :   0.9777 B( 12-C , 15-H ) :   0.9704
B( 16-S , 17-C ) :   1.1797 B( 16-S , 20-C ) :   1.1808 B( 17-C , 18-C ) :   1.5735
B( 17-C , 20-C ) :   0.1060 B( 17-C , 33-H ) :   0.9617 B( 18-C , 19-C ) :   1.2962
B( 18-C , 21-H ) :   0.9913 B( 19-C , 20-C ) :   1.5360 B( 19-C , 22-C ) :   1.0252
B( 22-C , 23-H ) :   0.9468 B( 22-C , 24-H ) :   0.9345 B( 22-C , 25-C ) :   1.0433
B( 25-C , 26-H ) :   0.9484 B( 25-C , 27-H ) :   0.9593 B( 25-C , 28-C ) :   1.0809
B( 28-C , 29-H ) :   0.9743 B( 28-C , 30-H ) :   0.9706 B( 28-C , 31-H ) :   0.9725

Dispersion correction           -0.013846627
FINAL SINGLE POINT ENERGY     -1339.869593108991

DIPOLE MOMENT
-------------
                                X             Y             Z
Electronic contribution:    -28.42260      -5.29464      -5.84880
Nuclear contribution   :     28.92219       5.20453       6.11663
                        -----------------------------------------
Total Dipole Moment    :      0.49959      -0.09011       0.26783
                        -----------------------------------------
Magnitude (a.u.)       :      0.57397
Magnitude (Debye)      :      1.45892

Rotational constants in cm-1:     0.017682     0.008371     0.006665
Rotational constants in MHz :   530.084001   250.947431   199.820565

                             ****ORCA TERMINATED NORMALLY****
TOTAL RUN TIME: 0 days 0 hours 0 minutes 22 seconds 418 msec
