                         Program Version 4.2.1 -  RELEASE  -
|  1> ! wB97X-D3 SP def2-SVP
|  2> %pal
|  3> nprocs 24
|  4> end
|  5>
|  6> * xyz 0 1
|  7> S 	 -49.9821 	 20.1324 	 -90.2241
|  8> C 	 -49.09 	 21.2813 	 -89.1916
|  9> C 	 -48.6282 	 22.4406 	 -89.737
| 10> C 	 -48.9769 	 22.3773 	 -91.1316
| 11> C 	 -49.699 	 21.2869 	 -91.5153
| 12> H 	 -48.6736 	 23.0472 	 -91.9073
| 13> C 	 -47.7958 	 23.5502 	 -89.1143
| 14> H 	 -47.4406 	 23.2789 	 -88.1083
| 15> H 	 -48.5215 	 24.3764 	 -89.0626
| 16> C 	 -46.4336 	 23.9309 	 -89.9096
| 17> H 	 -46.6881 	 24.3023 	 -90.9219
| 18> H 	 -45.853 	 24.7496 	 -89.4868
| 19> C 	 -45.7184 	 22.558 	 -90.1423
| 20> H 	 -45.729 	 21.9908 	 -89.237
| 21> H 	 -46.202 	 22.1074 	 -91.0019
| 22> H 	 -44.6853 	 22.5638 	 -90.2986
| 23> S 	 -51.6317 	 22.1186 	 -93.3486
| 24> C 	 -51.8382 	 21.2607 	 -94.7982
| 25> C 	 -50.7387 	 20.3873 	 -95.0108
| 26> C 	 -49.8813 	 20.3017 	 -93.9078
| 27> C 	 -50.2653 	 21.1248 	 -92.8394
| 28> H 	 -50.6628 	 19.8409 	 -95.9598
| 29> C 	 -48.9203 	 19.1756 	 -93.7996
| 30> H 	 -48.1181 	 19.4954 	 -93.1188
| 31> H 	 -48.4559 	 19.0129 	 -94.7562
| 32> C 	 -49.5334 	 17.7919 	 -93.2845
| 33> H 	 -50.2035 	 17.8938 	 -92.4024
| 34> H 	 -48.6797 	 17.1467 	 -92.8551
| 35> C 	 -50.2546 	 16.9264 	 -94.2789
| 36> H 	 -50.5751 	 15.9576 	 -93.9202
| 37> H 	 -49.5935 	 16.7319 	 -95.1367
| 38> H 	 -51.2815 	 17.3998 	 -94.6673
| 39> H 	 -48.894 	 21.0807 	 -88.0879
| 40> H 	 -52.5718 	 21.4863 	 -95.4819
| 41> *
| 42>
| 43>                          ****END OF INPUT****

CARTESIAN COORDINATES (ANGSTROEM)
---------------------------------
  S    -49.982100   20.132400  -90.224100
  C    -49.090000   21.281300  -89.191600
  C    -48.628200   22.440600  -89.737000
  C    -48.976900   22.377300  -91.131600
  C    -49.699000   21.286900  -91.515300
  H    -48.673600   23.047200  -91.907300
  C    -47.795800   23.550200  -89.114300
  H    -47.440600   23.278900  -88.108300
  H    -48.521500   24.376400  -89.062600
  C    -46.433600   23.930900  -89.909600
  H    -46.688100   24.302300  -90.921900
  H    -45.853000   24.749600  -89.486800
  C    -45.718400   22.558000  -90.142300
  H    -45.729000   21.990800  -89.237000
  H    -46.202000   22.107400  -91.001900
  H    -44.685300   22.563800  -90.298600
  S    -51.631700   22.118600  -93.348600
  C    -51.838200   21.260700  -94.798200
  C    -50.738700   20.387300  -95.010800
  C    -49.881300   20.301700  -93.907800
  C    -50.265300   21.124800  -92.839400
  H    -50.662800   19.840900  -95.959800
  C    -48.920300   19.175600  -93.799600
  H    -48.118100   19.495400  -93.118800
  H    -48.455900   19.012900  -94.756200
  C    -49.533400   17.791900  -93.284500
  H    -50.203500   17.893800  -92.402400
  H    -48.679700   17.146700  -92.855100
  C    -50.254600   16.926400  -94.278900
  H    -50.575100   15.957600  -93.920200
  H    -49.593500   16.731900  -95.136700
  H    -51.281500   17.399800  -94.667300
  H    -48.894000   21.080700  -88.087900
  H    -52.571800   21.486300  -95.481900

 Total Charge           Charge          ....    0
 Multiplicity           Mult            ....    1
 Number of Electrons    NEL             ....  134
 Basis Dimension        Dim             ....  322

ORBITAL ENERGIES
----------------

  NO   OCC          E(Eh)            E(eV)
   0   2.0000     -88.969312     -2420.9781
   1   2.0000     -88.964961     -2420.8597
   2   2.0000     -10.323338      -280.9123
   3   2.0000     -10.321162      -280.8531
   4   2.0000     -10.318093      -280.7696
   5   2.0000     -10.311015      -280.5770
   6   2.0000     -10.305935      -280.4387
   7   2.0000     -10.302796      -280.3533
   8   2.0000     -10.299376      -280.2603
   9   2.0000     -10.296925      -280.1936
  10   2.0000     -10.295074      -280.1432
  11   2.0000     -10.292670      -280.0778
  12   2.0000     -10.291361      -280.0422
  13   2.0000     -10.290339      -280.0144
  14   2.0000     -10.283478      -279.8277
  15   2.0000     -10.270287      -279.4687
  16   2.0000      -8.083268      -219.9569
  17   2.0000      -8.080240      -219.8745
  18   2.0000      -6.041782      -164.4052
  19   2.0000      -6.038466      -164.3150
  20   2.0000      -6.038211      -164.3081
  21   2.0000      -6.034483      -164.2066
  22   2.0000      -6.033736      -164.1863
  23   2.0000      -6.031457      -164.1243
  24   2.0000      -1.006441       -27.3867
  25   2.0000      -0.984642       -26.7935
  26   2.0000      -0.906391       -24.6642
  27   2.0000      -0.903196       -24.5772
  28   2.0000      -0.865085       -23.5402
  29   2.0000      -0.850607       -23.1462
  30   2.0000      -0.845774       -23.0147
  31   2.0000      -0.807879       -21.9835
  32   2.0000      -0.783486       -21.3197
  33   2.0000      -0.771126       -20.9834
  34   2.0000      -0.710891       -19.3443
  35   2.0000      -0.696019       -18.9396
  36   2.0000      -0.687486       -18.7074
  37   2.0000      -0.662889       -18.0381
  38   2.0000      -0.635700       -17.2983
  39   2.0000      -0.618154       -16.8208
  40   2.0000      -0.593491       -16.1497
  41   2.0000      -0.563316       -15.3286
  42   2.0000      -0.556446       -15.1417
  43   2.0000      -0.548749       -14.9322
  44   2.0000      -0.544535       -14.8175
  45   2.0000      -0.533685       -14.5223
  46   2.0000      -0.516958       -14.0671
  47   2.0000      -0.505796       -13.7634
  48   2.0000      -0.497852       -13.5472
  49   2.0000      -0.490300       -13.3417
  50   2.0000      -0.480031       -13.0623
  51   2.0000      -0.472305       -12.8521
  52   2.0000      -0.467293       -12.7157
  53   2.0000      -0.464424       -12.6376
  54   2.0000      -0.458831       -12.4854
  55   2.0000      -0.450668       -12.2633
  56   2.0000      -0.440851       -11.9962
  57   2.0000      -0.437826       -11.9139
  58   2.0000      -0.434685       -11.8284
  59   2.0000      -0.429578       -11.6894
  60   2.0000      -0.420026       -11.4295
  61   2.0000      -0.417345       -11.3565
  62   2.0000      -0.404638       -11.0108
  63   2.0000      -0.335724        -9.1355
  64   2.0000      -0.328641        -8.9428
  65   2.0000      -0.325423        -8.8552
  66   2.0000      -0.301632        -8.2078
  67   0.0000       0.041494         1.1291
  68   0.0000       0.056362         1.5337
  69   0.0000       0.099750         2.7143
  70   0.0000       0.116127         3.1600
  71   0.0000       0.133183         3.6241

MULLIKEN ATOMIC CHARGES
-----------------------
   0 S :    0.120811
   1 C :   -0.144856
   2 C :   -0.069637
   3 C :    0.016318
   4 C :   -0.173371
   5 H :    0.004562
   6 C :    0.063812
   7 H :    0.031573
   8 H :    0.051821
   9 C :   -0.102045
  10 H :    0.031988
  11 H :    0.042879
  12 C :   -0.017269
  13 H :    0.019526
  14 H :    0.047091
  15 H :    0.014760
  16 S :    0.132022
  17 C :   -0.078021
  18 C :   -0.052615
  19 C :   -0.001533
  20 C :   -0.193539
  21 H :    0.026207
  22 C :    0.082803
  23 H :    0.033210
  24 H :    0.015424
  25 C :   -0.085875
  26 H :    0.030176
  27 H :    0.038311
  28 C :   -0.076769
  29 H :    0.032711
  30 H :    0.027576
  31 H :    0.046081
  32 H :    0.054823
  33 H :    0.031044
Sum of atomic charges:   -0.0000000

LOEWDIN ATOMIC CHARGES
----------------------
   0 S :    0.389804
   1 C :   -0.187279
   2 C :   -0.066290
   3 C :   -0.054102
   4 C :   -0.197549
   5 H :    0.027018
   6 C :   -0.024997
   7 H :    0.030084
   8 H :    0.037238
   9 C :   -0.037124
  10 H :    0.022138
  11 H :    0.024885
  12 C :   -0.060872
  13 H :    0.022716
  14 H :    0.032236
  15 H :    0.017011
  16 S :    0.436972
  17 C :   -0.190431
  18 C :   -0.073272
  19 C :   -0.062019
  20 C :   -0.206475
  21 H :    0.033506
  22 C :   -0.029673
  23 H :    0.034436
  24 H :    0.027673
  25 C :   -0.047536
  26 H :    0.021551
  27 H :    0.033902
  28 C :   -0.080068
  29 H :    0.024242
  30 H :    0.021637
  31 H :    0.035820
  32 H :    0.033439
  33 H :    0.011378

  Mayer bond orders larger than 0.100000
B(  0-S ,  1-C ) :   1.1248 B(  0-S ,  4-C ) :   1.1167 B(  1-C ,  2-C ) :   1.6818
B(  1-C , 32-H ) :   0.9457 B(  2-C ,  3-C ) :   1.1792 B(  2-C ,  6-C ) :   1.0087
B(  3-C ,  4-C ) :   1.6504 B(  3-C ,  5-H ) :   0.9928 B(  4-C , 20-C ) :   1.0337
B(  6-C ,  7-H ) :   0.9497 B(  6-C ,  8-H ) :   0.9378 B(  6-C ,  9-C ) :   1.0483
B(  9-C , 10-H ) :   0.9609 B(  9-C , 11-H ) :   0.9665 B(  9-C , 12-C ) :   1.0588
B( 12-C , 13-H ) :   0.9780 B( 12-C , 14-H ) :   0.9709 B( 12-C , 15-H ) :   0.9731
B( 16-S , 17-C ) :   1.2009 B( 16-S , 20-C ) :   1.1607 B( 17-C , 18-C ) :   1.5352
B( 17-C , 20-C ) :   0.1143 B( 17-C , 33-H ) :   0.9803 B( 18-C , 19-C ) :   1.2866
B( 18-C , 21-H ) :   0.9893 B( 19-C , 20-C ) :   1.5323 B( 19-C , 22-C ) :   1.0758
B( 22-C , 23-H ) :   0.9244 B( 22-C , 24-H ) :   0.9334 B( 22-C , 25-C ) :   1.0468
B( 25-C , 26-H ) :   0.9544 B( 25-C , 27-H ) :   0.9537 B( 25-C , 28-C ) :   1.0893
B( 28-C , 29-H ) :   0.9698 B( 28-C , 30-H ) :   0.9728 B( 28-C , 31-H ) :   0.9669

Dispersion correction           -0.015616837
FINAL SINGLE POINT ENERGY     -1339.863095047667

DIPOLE MOMENT
-------------
                                X             Y             Z
Electronic contribution:    -16.86255       5.72913       0.69034
Nuclear contribution   :     17.30533      -5.68589      -0.75704
                        -----------------------------------------
Total Dipole Moment    :      0.44278       0.04323      -0.06670
                        -----------------------------------------
Magnitude (a.u.)       :      0.44985
Magnitude (Debye)      :      1.14344

Rotational constants in cm-1:     0.021290     0.008339     0.007432
Rotational constants in MHz :   638.247953   250.006287   222.805754

                             ****ORCA TERMINATED NORMALLY****
TOTAL RUN TIME: 0 days 0 hours 0 minutes 22 seconds 84 msec
