                         Program Version 4.2.1 -  RELEASE  -
|  1> ! wB97X-D3 SP def2-SVP
|  2> %pal
|  3> nprocs 24
|  4> end
|  5>
|  6> * xyz 0 1
|  7> S 	 -31.5354 	 -34.9272 	 -93.5942
|  8> C 	 -32.8125 	 -35.4523 	 -92.4139
|  9> C 	 -32.521 	 -36.5896 	 -91.753
| 10> C 	 -31.2143 	 -36.9847 	 -92.0586
| 11> C 	 -30.5265 	 -36.1583 	 -92.9363
| 12> H 	 -30.6718 	 -37.7395 	 -91.5798
| 13> C 	 -33.3678 	 -37.2759 	 -90.8057
| 14> H 	 -34.0193 	 -36.5932 	 -90.2668
| 15> H 	 -32.7406 	 -37.7201 	 -90.1267
| 16> C 	 -34.2081 	 -38.3658 	 -91.4391
| 17> H 	 -34.9283 	 -37.911 	 -92.1337
| 18> H 	 -33.5685 	 -39.0521 	 -92.0009
| 19> C 	 -35.0549 	 -39.2306 	 -90.5127
| 20> H 	 -35.7239 	 -39.8909 	 -90.9921
| 21> H 	 -34.4494 	 -39.7212 	 -89.7642
| 22> H 	 -35.5511 	 -38.4704 	 -89.8917
| 23> S 	 -28.514 	 -37.8024 	 -93.9129
| 24> C 	 -26.9861 	 -37.088 	 -94.4421
| 25> C 	 -26.927 	 -35.7868 	 -93.9321
| 26> C 	 -28.1879 	 -35.3357 	 -93.4112
| 27> C 	 -29.1322 	 -36.3012 	 -93.3884
| 28> H 	 -26.0554 	 -35.2555 	 -94.1054
| 29> C 	 -28.329 	 -33.9271 	 -92.9274
| 30> H 	 -27.5106 	 -33.6824 	 -92.1672
| 31> H 	 -29.13 	 -33.9995 	 -92.2459
| 32> C 	 -28.5221 	 -32.8467 	 -93.9339
| 33> H 	 -29.0978 	 -33.1228 	 -94.8154
| 34> H 	 -27.496 	 -32.6686 	 -94.4164
| 35> C 	 -29.037 	 -31.5297 	 -93.3685
| 36> H 	 -29.2792 	 -30.843 	 -94.1991
| 37> H 	 -28.3586 	 -30.8568 	 -92.7597
| 38> H 	 -29.9219 	 -31.7145 	 -92.7428
| 39> H 	 -33.7836 	 -35.0434 	 -92.4795
| 40> H 	 -26.1229 	 -37.6423 	 -94.7933
| 41> *
| 42>
| 43>                          ****END OF INPUT****

CARTESIAN COORDINATES (ANGSTROEM)
---------------------------------
  S    -31.535400  -34.927200  -93.594200
  C    -32.812500  -35.452300  -92.413900
  C    -32.521000  -36.589600  -91.753000
  C    -31.214300  -36.984700  -92.058600
  C    -30.526500  -36.158300  -92.936300
  H    -30.671800  -37.739500  -91.579800
  C    -33.367800  -37.275900  -90.805700
  H    -34.019300  -36.593200  -90.266800
  H    -32.740600  -37.720100  -90.126700
  C    -34.208100  -38.365800  -91.439100
  H    -34.928300  -37.911000  -92.133700
  H    -33.568500  -39.052100  -92.000900
  C    -35.054900  -39.230600  -90.512700
  H    -35.723900  -39.890900  -90.992100
  H    -34.449400  -39.721200  -89.764200
  H    -35.551100  -38.470400  -89.891700
  S    -28.514000  -37.802400  -93.912900
  C    -26.986100  -37.088000  -94.442100
  C    -26.927000  -35.786800  -93.932100
  C    -28.187900  -35.335700  -93.411200
  C    -29.132200  -36.301200  -93.388400
  H    -26.055400  -35.255500  -94.105400
  C    -28.329000  -33.927100  -92.927400
  H    -27.510600  -33.682400  -92.167200
  H    -29.130000  -33.999500  -92.245900
  C    -28.522100  -32.846700  -93.933900
  H    -29.097800  -33.122800  -94.815400
  H    -27.496000  -32.668600  -94.416400
  C    -29.037000  -31.529700  -93.368500
  H    -29.279200  -30.843000  -94.199100
  H    -28.358600  -30.856800  -92.759700
  H    -29.921900  -31.714500  -92.742800
  H    -33.783600  -35.043400  -92.479500
  H    -26.122900  -37.642300  -94.793300

 Total Charge           Charge          ....    0
 Multiplicity           Mult            ....    1
 Number of Electrons    NEL             ....  134
 Basis Dimension        Dim             ....  322

ORBITAL ENERGIES
----------------

  NO   OCC          E(Eh)            E(eV)
   0   2.0000     -88.968660     -2420.9603
   1   2.0000     -88.963457     -2420.8187
   2   2.0000     -10.328976      -281.0657
   3   2.0000     -10.320751      -280.8419
   4   2.0000     -10.318803      -280.7889
   5   2.0000     -10.309247      -280.5289
   6   2.0000     -10.295497      -280.1547
   7   2.0000     -10.293785      -280.1081
   8   2.0000     -10.289810      -280.0000
   9   2.0000     -10.287016      -279.9239
  10   2.0000     -10.286294      -279.9043
  11   2.0000     -10.284989      -279.8688
  12   2.0000     -10.283270      -279.8220
  13   2.0000     -10.283000      -279.8147
  14   2.0000     -10.280404      -279.7440
  15   2.0000     -10.274750      -279.5902
  16   2.0000      -8.082611      -219.9390
  17   2.0000      -8.078719      -219.8331
  18   2.0000      -6.041058      -164.3855
  19   2.0000      -6.037391      -164.2858
  20   2.0000      -6.037222      -164.2812
  21   2.0000      -6.033332      -164.1753
  22   2.0000      -6.033156      -164.1705
  23   2.0000      -6.029447      -164.0696
  24   2.0000      -1.012799       -27.5597
  25   2.0000      -0.990221       -26.9453
  26   2.0000      -0.926288       -25.2056
  27   2.0000      -0.910782       -24.7836
  28   2.0000      -0.873286       -23.7633
  29   2.0000      -0.853184       -23.2163
  30   2.0000      -0.847750       -23.0685
  31   2.0000      -0.817334       -22.2408
  32   2.0000      -0.790540       -21.5117
  33   2.0000      -0.772978       -21.0338
  34   2.0000      -0.703952       -19.1555
  35   2.0000      -0.702830       -19.1250
  36   2.0000      -0.696608       -18.9557
  37   2.0000      -0.670052       -18.2330
  38   2.0000      -0.643255       -17.5039
  39   2.0000      -0.624849       -17.0030
  40   2.0000      -0.597706       -16.2644
  41   2.0000      -0.579605       -15.7719
  42   2.0000      -0.568082       -15.4583
  43   2.0000      -0.553849       -15.0710
  44   2.0000      -0.538249       -14.6465
  45   2.0000      -0.528708       -14.3869
  46   2.0000      -0.524282       -14.2664
  47   2.0000      -0.515158       -14.0182
  48   2.0000      -0.511696       -13.9240
  49   2.0000      -0.504849       -13.7376
  50   2.0000      -0.491437       -13.3727
  51   2.0000      -0.480452       -13.0738
  52   2.0000      -0.466176       -12.6853
  53   2.0000      -0.463441       -12.6109
  54   2.0000      -0.457794       -12.4572
  55   2.0000      -0.453535       -12.3413
  56   2.0000      -0.442122       -12.0308
  57   2.0000      -0.439590       -11.9619
  58   2.0000      -0.432953       -11.7813
  59   2.0000      -0.425591       -11.5809
  60   2.0000      -0.420627       -11.4458
  61   2.0000      -0.417925       -11.3723
  62   2.0000      -0.396774       -10.7968
  63   2.0000      -0.347091        -9.4448
  64   2.0000      -0.335817        -9.1381
  65   2.0000      -0.328429        -8.9370
  66   2.0000      -0.295312        -8.0359
  67   0.0000       0.031033         0.8444
  68   0.0000       0.071806         1.9539
  69   0.0000       0.100282         2.7288
  70   0.0000       0.112783         3.0690
  71   0.0000       0.134570         3.6618

MULLIKEN ATOMIC CHARGES
-----------------------
   0 S :    0.108520
   1 C :   -0.124669
   2 C :   -0.053669
   3 C :    0.026286
   4 C :   -0.169979
   5 H :   -0.016733
   6 C :    0.148106
   7 H :    0.018690
   8 H :   -0.008871
   9 C :   -0.111519
  10 H :    0.025949
  11 H :    0.026181
  12 C :    0.002298
  13 H :    0.041633
  14 H :    0.017285
  15 H :    0.010805
  16 S :    0.104931
  17 C :   -0.106972
  18 C :   -0.000651
  19 C :   -0.062123
  20 C :   -0.114599
  21 H :   -0.002725
  22 C :    0.074008
  23 H :    0.034988
  24 H :    0.001646
  25 C :   -0.054160
  26 H :    0.030839
  27 H :    0.025805
  28 C :   -0.068373
  29 H :    0.033747
  30 H :    0.035308
  31 H :    0.036938
  32 H :    0.027245
  33 H :    0.063834
Sum of atomic charges:   -0.0000000

LOEWDIN ATOMIC CHARGES
----------------------
   0 S :    0.401813
   1 C :   -0.165956
   2 C :   -0.056933
   3 C :   -0.060975
   4 C :   -0.185231
   5 H :    0.019148
   6 C :   -0.022443
   7 H :    0.033283
   8 H :    0.021446
   9 C :   -0.036328
  10 H :    0.024377
  11 H :    0.021766
  12 C :   -0.060268
  13 H :    0.023430
  14 H :    0.021100
  15 H :    0.025401
  16 S :    0.414030
  17 C :   -0.181876
  18 C :   -0.054252
  19 C :   -0.062056
  20 C :   -0.213570
  21 H :    0.019209
  22 C :   -0.045254
  23 H :    0.042837
  24 H :    0.016144
  25 C :   -0.049648
  26 H :    0.024400
  27 H :    0.030354
  28 C :   -0.074256
  29 H :    0.029782
  30 H :    0.029265
  31 H :    0.025494
  32 H :    0.014681
  33 H :    0.031084

  Mayer bond orders larger than 0.100000
B(  0-S ,  1-C ) :   1.1163 B(  0-S ,  4-C ) :   1.1660 B(  1-C ,  2-C ) :   1.6330
B(  1-C , 32-H ) :   0.9685 B(  2-C ,  3-C ) :   1.2279 B(  2-C ,  6-C ) :   1.0371
B(  3-C ,  4-C ) :   1.5801 B(  3-C ,  5-H ) :   1.0040 B(  4-C , 20-C ) :   1.0101
B(  6-C ,  7-H ) :   0.9274 B(  6-C ,  8-H ) :   0.9178 B(  6-C ,  9-C ) :   1.0668
B(  9-C , 10-H ) :   0.9563 B(  9-C , 11-H ) :   0.9554 B(  9-C , 12-C ) :   1.0850
B( 12-C , 13-H ) :   0.9753 B( 12-C , 14-H ) :   0.9722 B( 12-C , 15-H ) :   0.9687
B( 16-S , 17-C ) :   1.1512 B( 16-S , 20-C ) :   1.1414 B( 17-C , 18-C ) :   1.6054
B( 17-C , 33-H ) :   0.9670 B( 18-C , 19-C ) :   1.2313 B( 18-C , 21-H ) :   1.0020
B( 19-C , 20-C ) :   1.5958 B( 19-C , 22-C ) :   1.0503 B( 22-C , 23-H ) :   0.9286
B( 22-C , 24-H ) :   0.9227 B( 22-C , 25-C ) :   1.0564 B( 25-C , 26-H ) :   0.9553
B( 25-C , 27-H ) :   0.9453 B( 25-C , 28-C ) :   1.0824 B( 28-C , 29-H ) :   0.9732
B( 28-C , 30-H ) :   0.9747 B( 28-C , 31-H ) :   0.9743

Dispersion correction           -0.014254664
FINAL SINGLE POINT ENERGY     -1339.868017094673

DIPOLE MOMENT
-------------
                                X             Y             Z
Electronic contribution:     10.35322      -5.93838     -10.08774
Nuclear contribution   :    -10.40562       5.96888      10.41278
                        -----------------------------------------
Total Dipole Moment    :     -0.05240       0.03050       0.32504
                        -----------------------------------------
Magnitude (a.u.)       :      0.33065
Magnitude (Debye)      :      0.84043

Rotational constants in cm-1:     0.021634     0.007989     0.006183
Rotational constants in MHz :   648.585236   239.519161   185.352427

                             ****ORCA TERMINATED NORMALLY****
TOTAL RUN TIME: 0 days 0 hours 0 minutes 21 seconds 350 msec
