                         Program Version 4.2.1 -  RELEASE  -
|  1> ! wB97X-D3 SP def2-SVP
|  2> %pal
|  3> nprocs 24
|  4> end
|  5>
|  6> * xyz 0 1
|  7> S 	 -1.33813 	 -24.5766 	 -111.402
|  8> C 	 -0.419779 	 -24.9052 	 -112.898
|  9> C 	 0.21994 	 -26.1055 	 -112.739
| 10> C 	 0.114845 	 -26.6818 	 -111.486
| 11> C 	 -0.71514 	 -25.9735 	 -110.601
| 12> H 	 0.612136 	 -27.5683 	 -111.191
| 13> C 	 1.17433 	 -26.7439 	 -113.726
| 14> H 	 1.14309 	 -26.0504 	 -114.678
| 15> H 	 0.856958 	 -27.6831 	 -114.147
| 16> C 	 2.56783 	 -26.8171 	 -113.131
| 17> H 	 2.90222 	 -25.7581 	 -112.892
| 18> H 	 2.6071 	 -27.4657 	 -112.243
| 19> C 	 3.5685 	 -27.4432 	 -114.12
| 20> H 	 3.25021 	 -28.4616 	 -114.273
| 21> H 	 3.52985 	 -26.8909 	 -115.038
| 22> H 	 4.57298 	 -27.5818 	 -113.766
| 23> S 	 -0.592557 	 -24.6123 	 -108.129
| 24> C 	 -0.801201 	 -25.4972 	 -106.637
| 25> C 	 -0.864476 	 -26.8155 	 -106.915
| 26> C 	 -0.880985 	 -27.1888 	 -108.335
| 27> C 	 -0.684538 	 -26.0486 	 -109.136
| 28> H 	 -1.02906 	 -27.4547 	 -106.04
| 29> C 	 -1.14498 	 -28.653 	 -108.683
| 30> H 	 -1.66015 	 -28.8231 	 -109.636
| 31> H 	 -1.73377 	 -29.0086 	 -107.83
| 32> C 	 0.0628997 	 -29.5696 	 -108.733
| 33> H 	 0.55782 	 -29.6383 	 -107.761
| 34> H 	 0.829464 	 -29.1134 	 -109.367
| 35> C 	 -0.309561 	 -31.0341 	 -109.101
| 36> H 	 0.590971 	 -31.6384 	 -108.954
| 37> H 	 -0.422875 	 -31.2263 	 -110.08
| 38> H 	 -1.19474 	 -31.477 	 -108.592
| 39> H 	 -0.316184 	 -24.2506 	 -113.775
| 40> H 	 -0.926508 	 -25.1768 	 -105.617
| 41> *
| 42>
| 43>                          ****END OF INPUT****

CARTESIAN COORDINATES (ANGSTROEM)
---------------------------------
  S     -1.338130  -24.576600  -111.402000
  C     -0.419779  -24.905200  -112.898000
  C      0.219940  -26.105500  -112.739000
  C      0.114845  -26.681800  -111.486000
  C     -0.715140  -25.973500  -110.601000
  H      0.612136  -27.568300  -111.191000
  C      1.174330  -26.743900  -113.726000
  H      1.143090  -26.050400  -114.678000
  H      0.856958  -27.683100  -114.147000
  C      2.567830  -26.817100  -113.131000
  H      2.902220  -25.758100  -112.892000
  H      2.607100  -27.465700  -112.243000
  C      3.568500  -27.443200  -114.120000
  H      3.250210  -28.461600  -114.273000
  H      3.529850  -26.890900  -115.038000
  H      4.572980  -27.581800  -113.766000
  S     -0.592557  -24.612300  -108.129000
  C     -0.801201  -25.497200  -106.637000
  C     -0.864476  -26.815500  -106.915000
  C     -0.880985  -27.188800  -108.335000
  C     -0.684538  -26.048600  -109.136000
  H     -1.029060  -27.454700  -106.040000
  C     -1.144980  -28.653000  -108.683000
  H     -1.660150  -28.823100  -109.636000
  H     -1.733770  -29.008600  -107.830000
  C      0.062900  -29.569600  -108.733000
  H      0.557820  -29.638300  -107.761000
  H      0.829464  -29.113400  -109.367000
  C     -0.309561  -31.034100  -109.101000
  H      0.590971  -31.638400  -108.954000
  H     -0.422875  -31.226300  -110.080000
  H     -1.194740  -31.477000  -108.592000
  H     -0.316184  -24.250600  -113.775000
  H     -0.926508  -25.176800  -105.617000

 Total Charge           Charge          ....    0
 Multiplicity           Mult            ....    1
 Number of Electrons    NEL             ....  134
 Basis Dimension        Dim             ....  322

ORBITAL ENERGIES
----------------

  NO   OCC          E(Eh)            E(eV)
   0   2.0000     -88.967522     -2420.9293
   1   2.0000     -88.965515     -2420.8747
   2   2.0000     -10.333136      -281.1789
   3   2.0000     -10.331800      -281.1426
   4   2.0000     -10.319164      -280.7987
   5   2.0000     -10.312775      -280.6249
   6   2.0000     -10.308710      -280.5143
   7   2.0000     -10.298740      -280.2430
   8   2.0000     -10.296342      -280.1777
   9   2.0000     -10.293091      -280.0892
  10   2.0000     -10.292248      -280.0663
  11   2.0000     -10.291782      -280.0536
  12   2.0000     -10.289717      -279.9974
  13   2.0000     -10.288803      -279.9726
  14   2.0000     -10.274800      -279.5915
  15   2.0000     -10.273051      -279.5439
  16   2.0000      -8.082049      -219.9237
  17   2.0000      -8.079979      -219.8674
  18   2.0000      -6.040611      -164.3734
  19   2.0000      -6.038755      -164.3229
  20   2.0000      -6.036383      -164.2583
  21   2.0000      -6.034463      -164.2061
  22   2.0000      -6.032937      -164.1646
  23   2.0000      -6.030488      -164.0979
  24   2.0000      -1.008081       -27.4313
  25   2.0000      -0.985554       -26.8183
  26   2.0000      -0.916340       -24.9349
  27   2.0000      -0.910114       -24.7655
  28   2.0000      -0.871891       -23.7254
  29   2.0000      -0.850941       -23.1553
  30   2.0000      -0.843894       -22.9635
  31   2.0000      -0.817573       -22.2473
  32   2.0000      -0.783841       -21.3294
  33   2.0000      -0.775351       -21.0984
  34   2.0000      -0.713514       -19.4157
  35   2.0000      -0.698436       -19.0054
  36   2.0000      -0.691808       -18.8251
  37   2.0000      -0.655909       -17.8482
  38   2.0000      -0.638772       -17.3819
  39   2.0000      -0.627321       -17.0703
  40   2.0000      -0.597204       -16.2507
  41   2.0000      -0.574891       -15.6436
  42   2.0000      -0.568273       -15.4635
  43   2.0000      -0.564624       -15.3642
  44   2.0000      -0.527246       -14.3471
  45   2.0000      -0.520585       -14.1658
  46   2.0000      -0.514736       -14.0067
  47   2.0000      -0.511676       -13.9234
  48   2.0000      -0.510352       -13.8874
  49   2.0000      -0.504684       -13.7331
  50   2.0000      -0.495215       -13.4755
  51   2.0000      -0.479615       -13.0510
  52   2.0000      -0.477031       -12.9807
  53   2.0000      -0.465500       -12.6669
  54   2.0000      -0.454815       -12.3761
  55   2.0000      -0.450576       -12.2608
  56   2.0000      -0.443076       -12.0567
  57   2.0000      -0.437252       -11.8982
  58   2.0000      -0.431137       -11.7318
  59   2.0000      -0.423432       -11.5222
  60   2.0000      -0.419351       -11.4111
  61   2.0000      -0.416988       -11.3468
  62   2.0000      -0.412752       -11.2316
  63   2.0000      -0.352675        -9.5968
  64   2.0000      -0.335109        -9.1188
  65   2.0000      -0.326777        -8.8920
  66   2.0000      -0.290440        -7.9033
  67   0.0000       0.020433         0.5560
  68   0.0000       0.081794         2.2257
  69   0.0000       0.115900         3.1538
  70   0.0000       0.126554         3.4437
  71   0.0000       0.128075         3.4851

MULLIKEN ATOMIC CHARGES
-----------------------
   0 S :    0.098812
   1 C :   -0.142155
   2 C :   -0.042637
   3 C :    0.031934
   4 C :   -0.125548
   5 H :   -0.014532
   6 C :    0.035355
   7 H :    0.023265
   8 H :    0.029049
   9 C :   -0.118807
  10 H :    0.047353
  11 H :    0.038976
  12 C :   -0.009152
  13 H :    0.013342
  14 H :    0.026772
  15 H :    0.031228
  16 S :    0.106796
  17 C :   -0.084485
  18 C :   -0.048065
  19 C :   -0.043085
  20 C :   -0.132969
  21 H :    0.022955
  22 C :    0.071287
  23 H :    0.033920
  24 H :    0.023902
  25 C :   -0.083735
  26 H :    0.022116
  27 H :    0.025477
  28 C :   -0.013753
  29 H :    0.024358
  30 H :   -0.000017
  31 H :    0.042031
  32 H :    0.058176
  33 H :    0.051838
Sum of atomic charges:   -0.0000000

LOEWDIN ATOMIC CHARGES
----------------------
   0 S :    0.409096
   1 C :   -0.191138
   2 C :   -0.070083
   3 C :   -0.053754
   4 C :   -0.194686
   5 H :    0.021686
   6 C :   -0.034006
   7 H :    0.035333
   8 H :    0.025348
   9 C :   -0.042171
  10 H :    0.033530
  11 H :    0.024361
  12 C :   -0.062430
  13 H :    0.021689
  14 H :    0.021496
  15 H :    0.024054
  16 S :    0.400159
  17 C :   -0.191268
  18 C :   -0.076604
  19 C :   -0.054496
  20 C :   -0.197385
  21 H :    0.032261
  22 C :   -0.034669
  23 H :    0.032538
  24 H :    0.034354
  25 C :   -0.039427
  26 H :    0.022967
  27 H :    0.020620
  28 C :   -0.064820
  29 H :    0.033040
  30 H :    0.007372
  31 H :    0.033749
  32 H :    0.036997
  33 H :    0.036286

  Mayer bond orders larger than 0.100000
B(  0-S ,  1-C ) :   1.1329 B(  0-S ,  4-C ) :   1.1679 B(  1-C ,  2-C ) :   1.5834
B(  1-C , 32-H ) :   0.9660 B(  2-C ,  3-C ) :   1.2883 B(  2-C ,  6-C ) :   1.0200
B(  3-C ,  4-C ) :   1.5177 B(  3-C ,  5-H ) :   0.9983 B(  4-C , 20-C ) :   1.0544
B(  6-C ,  7-H ) :   0.9440 B(  6-C ,  8-H ) :   0.9394 B(  6-C ,  9-C ) :   1.0584
B(  9-C , 10-H ) :   0.9553 B(  9-C , 11-H ) :   0.9540 B(  9-C , 12-C ) :   1.0846
B( 12-C , 13-H ) :   0.9708 B( 12-C , 14-H ) :   0.9745 B( 12-C , 15-H ) :   0.9741
B( 16-S , 17-C ) :   1.1275 B( 16-S , 20-C ) :   1.1290 B( 17-C , 18-C ) :   1.6679
B( 17-C , 33-H ) :   0.9651 B( 18-C , 19-C ) :   1.2197 B( 18-C , 21-H ) :   0.9793
B( 19-C , 20-C ) :   1.5900 B( 19-C , 22-C ) :   1.0477 B( 22-C , 23-H ) :   0.9380
B( 22-C , 24-H ) :   0.9282 B( 22-C , 25-C ) :   1.0725 B( 25-C , 26-H ) :   0.9534
B( 25-C , 27-H ) :   0.9516 B( 25-C , 28-C ) :   1.0744 B( 28-C , 29-H ) :   0.9695
B( 28-C , 30-H ) :   0.9715 B( 28-C , 31-H ) :   0.9743

Dispersion correction           -0.013756735
FINAL SINGLE POINT ENERGY     -1339.865631666276

DIPOLE MOMENT
-------------
                                X             Y             Z
Electronic contribution:    -14.69920      25.43919       9.73628
Nuclear contribution   :     15.02561     -26.08371      -9.80886
                        -----------------------------------------
Total Dipole Moment    :      0.32641      -0.64452      -0.07258
                        -----------------------------------------
Magnitude (a.u.)       :      0.72609
Magnitude (Debye)      :      1.84558

Rotational constants in cm-1:     0.015736     0.009475     0.006804
Rotational constants in MHz :   471.758339   284.050395   203.966932

                             ****ORCA TERMINATED NORMALLY****
TOTAL RUN TIME: 0 days 0 hours 0 minutes 21 seconds 451 msec
