                         Program Version 4.2.1 -  RELEASE  -
|  1> ! wB97X-D3 SP def2-SVP
|  2> %pal
|  3> nprocs 24
|  4> end
|  5>
|  6> * xyz 0 1
|  7> S 	 -102.014 	 14.6657 	 -120.431
|  8> C 	 -100.47 	 15.2302 	 -119.97
|  9> C 	 -99.4464 	 14.5733 	 -120.6
| 10> C 	 -99.8693 	 13.345 	 -121.204
| 11> C 	 -101.246 	 13.1919 	 -121.111
| 12> H 	 -99.3432 	 12.5677 	 -121.836
| 13> C 	 -97.9617 	 14.8955 	 -120.391
| 14> H 	 -97.7259 	 14.4012 	 -119.487
| 15> H 	 -97.7922 	 15.9146 	 -120.084
| 16> C 	 -96.9577 	 14.3389 	 -121.467
| 17> H 	 -97.1202 	 13.2019 	 -121.514
| 18> H 	 -97.1599 	 14.7099 	 -122.474
| 19> C 	 -95.4925 	 14.6055 	 -121.13
| 20> H 	 -94.6736 	 14.0269 	 -121.664
| 21> H 	 -95.2175 	 15.6475 	 -121.154
| 22> H 	 -95.2807 	 14.2346 	 -120.09
| 23> S 	 -103.201 	 12.3233 	 -122.821
| 24> C 	 -103.528 	 10.6226 	 -122.863
| 25> C 	 -102.676 	 9.861 	 -122.102
| 26> C 	 -101.808 	 10.6903 	 -121.328
| 27> C 	 -101.962 	 12.0676 	 -121.627
| 28> H 	 -102.656 	 8.76708 	 -121.997
| 29> C 	 -100.928 	 9.9899 	 -120.321
| 30> H 	 -101.483 	 9.28583 	 -119.645
| 31> H 	 -100.504 	 10.6258 	 -119.519
| 32> C 	 -99.7366 	 9.27373 	 -120.983
| 33> H 	 -99.1657 	 10.0152 	 -121.6
| 34> H 	 -100.164 	 8.56841 	 -121.718
| 35> C 	 -99.0184 	 8.43103 	 -119.895
| 36> H 	 -98.3323 	 7.69462 	 -120.305
| 37> H 	 -99.6701 	 7.69463 	 -119.328
| 38> H 	 -98.5492 	 9.05667 	 -119.196
| 39> H 	 -100.364 	 16.2128 	 -119.539
| 40> H 	 -104.172 	 10.2037 	 -123.679
| 41> *
| 42>
| 43>                          ****END OF INPUT****

CARTESIAN COORDINATES (ANGSTROEM)
---------------------------------
  S    -102.014000   14.665700  -120.431000
  C    -100.470000   15.230200  -119.970000
  C    -99.446400   14.573300  -120.600000
  C    -99.869300   13.345000  -121.204000
  C    -101.246000   13.191900  -121.111000
  H    -99.343200   12.567700  -121.836000
  C    -97.961700   14.895500  -120.391000
  H    -97.725900   14.401200  -119.487000
  H    -97.792200   15.914600  -120.084000
  C    -96.957700   14.338900  -121.467000
  H    -97.120200   13.201900  -121.514000
  H    -97.159900   14.709900  -122.474000
  C    -95.492500   14.605500  -121.130000
  H    -94.673600   14.026900  -121.664000
  H    -95.217500   15.647500  -121.154000
  H    -95.280700   14.234600  -120.090000
  S    -103.201000   12.323300  -122.821000
  C    -103.528000   10.622600  -122.863000
  C    -102.676000    9.861000  -122.102000
  C    -101.808000   10.690300  -121.328000
  C    -101.962000   12.067600  -121.627000
  H    -102.656000    8.767080  -121.997000
  C    -100.928000    9.989900  -120.321000
  H    -101.483000    9.285830  -119.645000
  H    -100.504000   10.625800  -119.519000
  C    -99.736600    9.273730  -120.983000
  H    -99.165700   10.015200  -121.600000
  H    -100.164000    8.568410  -121.718000
  C    -99.018400    8.431030  -119.895000
  H    -98.332300    7.694620  -120.305000
  H    -99.670100    7.694630  -119.328000
  H    -98.549200    9.056670  -119.196000
  H    -100.364000   16.212800  -119.539000
  H    -104.172000   10.203700  -123.679000

 Total Charge           Charge          ....    0
 Multiplicity           Mult            ....    1
 Number of Electrons    NEL             ....  134
 Basis Dimension        Dim             ....  322

ORBITAL ENERGIES
----------------

  NO   OCC          E(Eh)            E(eV)
   0   2.0000     -88.967089     -2420.9176
   1   2.0000     -88.964348     -2420.8430
   2   2.0000     -10.327055      -281.0135
   3   2.0000     -10.325178      -280.9624
   4   2.0000     -10.318306      -280.7754
   5   2.0000     -10.307634      -280.4850
   6   2.0000     -10.303989      -280.3858
   7   2.0000     -10.303350      -280.3684
   8   2.0000     -10.299311      -280.2585
   9   2.0000     -10.299080      -280.2522
  10   2.0000     -10.294770      -280.1349
  11   2.0000     -10.294612      -280.1306
  12   2.0000     -10.293138      -280.0905
  13   2.0000     -10.291601      -280.0487
  14   2.0000     -10.286208      -279.9020
  15   2.0000     -10.282029      -279.7882
  16   2.0000      -8.082472      -219.9352
  17   2.0000      -8.079390      -219.8514
  18   2.0000      -6.040834      -164.3794
  19   2.0000      -6.037789      -164.2966
  20   2.0000      -6.036934      -164.2733
  21   2.0000      -6.034100      -164.1962
  22   2.0000      -6.033303      -164.1745
  23   2.0000      -6.030004      -164.0848
  24   2.0000      -1.007524       -27.4161
  25   2.0000      -0.986013       -26.8308
  26   2.0000      -0.909498       -24.7487
  27   2.0000      -0.905134       -24.6300
  28   2.0000      -0.873158       -23.7598
  29   2.0000      -0.851607       -23.1734
  30   2.0000      -0.846748       -23.0412
  31   2.0000      -0.811744       -22.0887
  32   2.0000      -0.780357       -21.2346
  33   2.0000      -0.766355       -20.8536
  34   2.0000      -0.709721       -19.3125
  35   2.0000      -0.699427       -19.0324
  36   2.0000      -0.688947       -18.7472
  37   2.0000      -0.660646       -17.9771
  38   2.0000      -0.642930       -17.4950
  39   2.0000      -0.616665       -16.7803
  40   2.0000      -0.602032       -16.3821
  41   2.0000      -0.564206       -15.3528
  42   2.0000      -0.559494       -15.2246
  43   2.0000      -0.554625       -15.0921
  44   2.0000      -0.520496       -14.1634
  45   2.0000      -0.519010       -14.1230
  46   2.0000      -0.518179       -14.1004
  47   2.0000      -0.504914       -13.7394
  48   2.0000      -0.501587       -13.6489
  49   2.0000      -0.494460       -13.4549
  50   2.0000      -0.490857       -13.3569
  51   2.0000      -0.482356       -13.1256
  52   2.0000      -0.472217       -12.8497
  53   2.0000      -0.463244       -12.6055
  54   2.0000      -0.460187       -12.5223
  55   2.0000      -0.456952       -12.4343
  56   2.0000      -0.446467       -12.1490
  57   2.0000      -0.440907       -11.9977
  58   2.0000      -0.429605       -11.6902
  59   2.0000      -0.422578       -11.4989
  60   2.0000      -0.421552       -11.4710
  61   2.0000      -0.417483       -11.3603
  62   2.0000      -0.411527       -11.1982
  63   2.0000      -0.348034        -9.4705
  64   2.0000      -0.331997        -9.0341
  65   2.0000      -0.327041        -8.8992
  66   2.0000      -0.288041        -7.8380
  67   0.0000       0.030236         0.8228
  68   0.0000       0.064587         1.7575
  69   0.0000       0.108295         2.9469
  70   0.0000       0.120361         3.2752
  71   0.0000       0.126567         3.4441

MULLIKEN ATOMIC CHARGES
-----------------------
   0 S :    0.112615
   1 C :   -0.116176
   2 C :   -0.048996
   3 C :   -0.017971
   4 C :   -0.152804
   5 H :    0.051005
   6 C :    0.068638
   7 H :    0.027236
   8 H :    0.010906
   9 C :   -0.093953
  10 H :    0.043067
  11 H :    0.040598
  12 C :   -0.073164
  13 H :    0.043902
  14 H :    0.036316
  15 H :    0.022227
  16 S :    0.117710
  17 C :   -0.100529
  18 C :   -0.032516
  19 C :   -0.006633
  20 C :   -0.182862
  21 H :    0.033124
  22 C :    0.005592
  23 H :    0.031633
  24 H :    0.024432
  25 C :   -0.087880
  26 H :    0.038950
  27 H :    0.024116
  28 C :   -0.032469
  29 H :    0.030361
  30 H :    0.031582
  31 H :    0.028774
  32 H :    0.048528
  33 H :    0.074639
Sum of atomic charges:   -0.0000000

LOEWDIN ATOMIC CHARGES
----------------------
   0 S :    0.398375
   1 C :   -0.209216
   2 C :   -0.060256
   3 C :   -0.066973
   4 C :   -0.181298
   5 H :    0.045823
   6 C :   -0.030239
   7 H :    0.032012
   8 H :    0.025419
   9 C :   -0.044327
  10 H :    0.032253
  11 H :    0.023381
  12 C :   -0.078743
  13 H :    0.035173
  14 H :    0.022013
  15 H :    0.027057
  16 S :    0.419754
  17 C :   -0.197520
  18 C :   -0.070148
  19 C :   -0.053212
  20 C :   -0.208926
  21 H :    0.037551
  22 C :   -0.044354
  23 H :    0.034345
  24 H :    0.029824
  25 C :   -0.040691
  26 H :    0.028375
  27 H :    0.021431
  28 C :   -0.067243
  29 H :    0.025865
  30 H :    0.035102
  31 H :    0.017332
  32 H :    0.025718
  33 H :    0.036344

  Mayer bond orders larger than 0.100000
B(  0-S ,  1-C ) :   1.1404 B(  0-S ,  4-C ) :   1.1341 B(  1-C ,  2-C ) :   1.6252
B(  1-C , 32-H ) :   0.9648 B(  2-C ,  3-C ) :   1.2075 B(  2-C ,  6-C ) :   1.0242
B(  3-C ,  4-C ) :   1.5933 B(  3-C ,  5-H ) :   0.9778 B(  4-C , 20-C ) :   1.0783
B(  6-C ,  7-H ) :   0.9367 B(  6-C ,  8-H ) :   0.9442 B(  6-C ,  9-C ) :   1.0483
B(  9-C , 10-H ) :   0.9459 B(  9-C , 11-H ) :   0.9638 B(  9-C , 12-C ) :   1.0804
B( 12-C , 13-H ) :   0.9744 B( 12-C , 14-H ) :   0.9770 B( 12-C , 15-H ) :   0.9717
B( 16-S , 17-C ) :   1.1612 B( 16-S , 20-C ) :   1.1491 B( 17-C , 18-C ) :   1.5952
B( 17-C , 33-H ) :   0.9572 B( 18-C , 19-C ) :   1.2589 B( 18-C , 21-H ) :   0.9837
B( 19-C , 20-C ) :   1.5700 B( 19-C , 22-C ) :   1.0397 B( 22-C , 23-H ) :   0.9455
B( 22-C , 24-H ) :   0.9370 B( 22-C , 25-C ) :   1.0453 B( 25-C , 26-H ) :   0.9538
B( 25-C , 27-H ) :   0.9590 B( 25-C , 28-C ) :   1.0678 B( 28-C , 29-H ) :   0.9736
B( 28-C , 30-H ) :   0.9713 B( 28-C , 31-H ) :   0.9776

Dispersion correction           -0.013929567
FINAL SINGLE POINT ENERGY     -1339.870293845725

DIPOLE MOMENT
-------------
                                X             Y             Z
Electronic contribution:    -29.60903      11.44396      -6.22247
Nuclear contribution   :     30.22953     -11.80229       6.29467
                        -----------------------------------------
Total Dipole Moment    :      0.62050      -0.35833       0.07220
                        -----------------------------------------
Magnitude (a.u.)       :      0.72016
Magnitude (Debye)      :      1.83051

Rotational constants in cm-1:     0.015784     0.009279     0.006664
Rotational constants in MHz :   473.203566   278.191619   199.777745

                             ****ORCA TERMINATED NORMALLY****
TOTAL RUN TIME: 0 days 0 hours 0 minutes 21 seconds 423 msec
