                         Program Version 4.2.1 -  RELEASE  -
|  1> ! wB97X-D3 SP def2-SVP
|  2> %pal
|  3> nprocs 24
|  4> end
|  5>
|  6> * xyz 0 1
|  7> S 	 -71.5713 	 17.7787 	 -76.919
|  8> C 	 -72.2535 	 19.044 	 -75.9155
|  9> C 	 -71.3661 	 20.0942 	 -75.7842
| 10> C 	 -70.1758 	 19.8481 	 -76.573
| 11> C 	 -70.1069 	 18.6171 	 -77.2487
| 12> H 	 -69.3113 	 20.4944 	 -76.7274
| 13> C 	 -71.6887 	 21.355 	 -75.0395
| 14> H 	 -72.8147 	 21.4581 	 -75.0651
| 15> H 	 -71.3363 	 22.243 	 -75.5941
| 16> C 	 -71.1144 	 21.492 	 -73.5874
| 17> H 	 -71.4428 	 20.7259 	 -72.971
| 18> H 	 -70.0465 	 21.4055 	 -73.6092
| 19> C 	 -71.4698 	 22.7901 	 -72.9309
| 20> H 	 -71.2205 	 23.6305 	 -73.6149
| 21> H 	 -72.5627 	 22.9317 	 -72.6757
| 22> H 	 -71.0044 	 23.078 	 -71.9865
| 23> S 	 -68.458 	 16.383 	 -77.17
| 24> C 	 -67.1999 	 16.1568 	 -78.4131
| 25> C 	 -67.3027 	 17.1767 	 -79.3386
| 26> C 	 -68.2347 	 18.2272 	 -78.9777
| 27> C 	 -69.0101 	 17.9248 	 -77.8705
| 28> H 	 -66.6314 	 17.2177 	 -80.1905
| 29> C 	 -68.6467 	 19.4387 	 -79.8923
| 30> H 	 -69.3738 	 20.1415 	 -79.4467
| 31> H 	 -69.1058 	 19.0287 	 -80.7956
| 32> C 	 -67.4747 	 20.2102 	 -80.5206
| 33> H 	 -67.9028 	 20.9386 	 -81.2055
| 34> H 	 -66.7606 	 19.6227 	 -81.1563
| 35> C 	 -66.7116 	 20.9954 	 -79.4131
| 36> H 	 -65.9432 	 21.6602 	 -79.7813
| 37> H 	 -66.2549 	 20.25 	 -78.7769
| 38> H 	 -67.3369 	 21.5624 	 -78.6962
| 39> H 	 -73.1664 	 19.0265 	 -75.3475
| 40> H 	 -66.6013 	 15.2737 	 -78.668
| 41> *
| 42>
| 43>                          ****END OF INPUT****

CARTESIAN COORDINATES (ANGSTROEM)
---------------------------------
  S    -71.571300   17.778700  -76.919000
  C    -72.253500   19.044000  -75.915500
  C    -71.366100   20.094200  -75.784200
  C    -70.175800   19.848100  -76.573000
  C    -70.106900   18.617100  -77.248700
  H    -69.311300   20.494400  -76.727400
  C    -71.688700   21.355000  -75.039500
  H    -72.814700   21.458100  -75.065100
  H    -71.336300   22.243000  -75.594100
  C    -71.114400   21.492000  -73.587400
  H    -71.442800   20.725900  -72.971000
  H    -70.046500   21.405500  -73.609200
  C    -71.469800   22.790100  -72.930900
  H    -71.220500   23.630500  -73.614900
  H    -72.562700   22.931700  -72.675700
  H    -71.004400   23.078000  -71.986500
  S    -68.458000   16.383000  -77.170000
  C    -67.199900   16.156800  -78.413100
  C    -67.302700   17.176700  -79.338600
  C    -68.234700   18.227200  -78.977700
  C    -69.010100   17.924800  -77.870500
  H    -66.631400   17.217700  -80.190500
  C    -68.646700   19.438700  -79.892300
  H    -69.373800   20.141500  -79.446700
  H    -69.105800   19.028700  -80.795600
  C    -67.474700   20.210200  -80.520600
  H    -67.902800   20.938600  -81.205500
  H    -66.760600   19.622700  -81.156300
  C    -66.711600   20.995400  -79.413100
  H    -65.943200   21.660200  -79.781300
  H    -66.254900   20.250000  -78.776900
  H    -67.336900   21.562400  -78.696200
  H    -73.166400   19.026500  -75.347500
  H    -66.601300   15.273700  -78.668000

 Total Charge           Charge          ....    0
 Multiplicity           Mult            ....    1
 Number of Electrons    NEL             ....  134
 Basis Dimension        Dim             ....  322

ORBITAL ENERGIES
----------------

  NO   OCC          E(Eh)            E(eV)
   0   2.0000     -88.966672     -2420.9062
   1   2.0000     -88.966498     -2420.9015
   2   2.0000     -10.330975      -281.1201
   3   2.0000     -10.330309      -281.1020
   4   2.0000     -10.324964      -280.9566
   5   2.0000     -10.315709      -280.7047
   6   2.0000     -10.310693      -280.5682
   7   2.0000     -10.305794      -280.4349
   8   2.0000     -10.301621      -280.3214
   9   2.0000     -10.300503      -280.2909
  10   2.0000     -10.300252      -280.2841
  11   2.0000     -10.297407      -280.2067
  12   2.0000     -10.291352      -280.0419
  13   2.0000     -10.282351      -279.7970
  14   2.0000     -10.281950      -279.7861
  15   2.0000     -10.273823      -279.5649
  16   2.0000      -8.081745      -219.9155
  17   2.0000      -8.080142      -219.8718
  18   2.0000      -6.040214      -164.3626
  19   2.0000      -6.038861      -164.3258
  20   2.0000      -6.035978      -164.2473
  21   2.0000      -6.034748      -164.2139
  22   2.0000      -6.032720      -164.1587
  23   2.0000      -6.030737      -164.1047
  24   2.0000      -1.007115       -27.4050
  25   2.0000      -0.981134       -26.6980
  26   2.0000      -0.913620       -24.8609
  27   2.0000      -0.902847       -24.5677
  28   2.0000      -0.876060       -23.8388
  29   2.0000      -0.847528       -23.0624
  30   2.0000      -0.837809       -22.7979
  31   2.0000      -0.816723       -22.2242
  32   2.0000      -0.780786       -21.2463
  33   2.0000      -0.772668       -21.0254
  34   2.0000      -0.712464       -19.3871
  35   2.0000      -0.703443       -19.1417
  36   2.0000      -0.694117       -18.8879
  37   2.0000      -0.655343       -17.8328
  38   2.0000      -0.645472       -17.5642
  39   2.0000      -0.613796       -16.7022
  40   2.0000      -0.593267       -16.1436
  41   2.0000      -0.577340       -15.7102
  42   2.0000      -0.560954       -15.2643
  43   2.0000      -0.548465       -14.9245
  44   2.0000      -0.538776       -14.6609
  45   2.0000      -0.522136       -14.2080
  46   2.0000      -0.518498       -14.1091
  47   2.0000      -0.513995       -13.9865
  48   2.0000      -0.508654       -13.8412
  49   2.0000      -0.503899       -13.7118
  50   2.0000      -0.489072       -13.3083
  51   2.0000      -0.477515       -12.9938
  52   2.0000      -0.468508       -12.7487
  53   2.0000      -0.461201       -12.5499
  54   2.0000      -0.457734       -12.4556
  55   2.0000      -0.450903       -12.2697
  56   2.0000      -0.442814       -12.0496
  57   2.0000      -0.433701       -11.8016
  58   2.0000      -0.431571       -11.7436
  59   2.0000      -0.425040       -11.5659
  60   2.0000      -0.423028       -11.5112
  61   2.0000      -0.418197       -11.3797
  62   2.0000      -0.407885       -11.0991
  63   2.0000      -0.345783        -9.4092
  64   2.0000      -0.332151        -9.0383
  65   2.0000      -0.327093        -8.9007
  66   2.0000      -0.298914        -8.1339
  67   0.0000       0.027996         0.7618
  68   0.0000       0.062852         1.7103
  69   0.0000       0.114078         3.1042
  70   0.0000       0.116948         3.1823
  71   0.0000       0.124734         3.3942

MULLIKEN ATOMIC CHARGES
-----------------------
   0 S :    0.113843
   1 C :   -0.103036
   2 C :   -0.077692
   3 C :    0.052476
   4 C :   -0.190998
   5 H :    0.007075
   6 C :    0.010554
   7 H :    0.033490
   8 H :    0.028613
   9 C :    0.002639
  10 H :    0.013024
  11 H :    0.026397
  12 C :   -0.081416
  13 H :    0.022661
  14 H :    0.031815
  15 H :    0.034871
  16 S :    0.104138
  17 C :   -0.091329
  18 C :   -0.042400
  19 C :   -0.017263
  20 C :   -0.144858
  21 H :    0.024985
  22 C :    0.040050
  23 H :    0.044127
  24 H :    0.040664
  25 C :   -0.098036
  26 H :    0.028293
  27 H :    0.037948
  28 C :   -0.058967
  29 H :    0.034487
  30 H :    0.030595
  31 H :    0.025695
  32 H :    0.045617
  33 H :    0.071938
Sum of atomic charges:   -0.0000000

LOEWDIN ATOMIC CHARGES
----------------------
   0 S :    0.426660
   1 C :   -0.192911
   2 C :   -0.068052
   3 C :   -0.061141
   4 C :   -0.211801
   5 H :    0.028774
   6 C :   -0.033253
   7 H :    0.036720
   8 H :    0.033162
   9 C :   -0.034002
  10 H :    0.016250
  11 H :    0.026289
  12 C :   -0.076425
  13 H :    0.024632
  14 H :    0.028758
  15 H :    0.027017
  16 S :    0.382683
  17 C :   -0.181204
  18 C :   -0.070579
  19 C :   -0.054425
  20 C :   -0.194245
  21 H :    0.030553
  22 C :   -0.028558
  23 H :    0.035663
  24 H :    0.036358
  25 C :   -0.045656
  26 H :    0.022632
  27 H :    0.026761
  28 C :   -0.072787
  29 H :    0.021970
  30 H :    0.023897
  31 H :    0.024504
  32 H :    0.029977
  33 H :    0.041779

  Mayer bond orders larger than 0.100000
B(  0-S ,  1-C ) :   1.1487 B(  0-S ,  4-C ) :   1.1624 B(  1-C ,  2-C ) :   1.5978
B(  1-C , 32-H ) :   0.9678 B(  2-C ,  3-C ) :   1.2461 B(  2-C ,  6-C ) :   1.0280
B(  3-C ,  4-C ) :   1.5548 B(  3-C ,  5-H ) :   0.9937 B(  4-C , 20-C ) :   1.0462
B(  6-C ,  7-H ) :   0.9477 B(  6-C ,  8-H ) :   0.9410 B(  6-C ,  9-C ) :   1.0525
B(  9-C , 10-H ) :   0.9532 B(  9-C , 11-H ) :   0.9528 B(  9-C , 12-C ) :   1.0850
B( 12-C , 13-H ) :   0.9724 B( 12-C , 14-H ) :   0.9742 B( 12-C , 15-H ) :   0.9738
B( 16-S , 17-C ) :   1.1358 B( 16-S , 20-C ) :   1.1237 B( 17-C , 18-C ) :   1.6445
B( 17-C , 33-H ) :   0.9607 B( 18-C , 19-C ) :   1.2232 B( 18-C , 21-H ) :   0.9810
B( 19-C , 20-C ) :   1.6075 B( 19-C , 22-C ) :   1.0304 B( 22-C , 23-H ) :   0.9433
B( 22-C , 24-H ) :   0.9396 B( 22-C , 25-C ) :   1.0717 B( 25-C , 26-H ) :   0.9563
B( 25-C , 27-H ) :   0.9553 B( 25-C , 28-C ) :   1.0645 B( 28-C , 29-H ) :   0.9766
B( 28-C , 30-H ) :   0.9755 B( 28-C , 31-H ) :   0.9747

Dispersion correction           -0.013950018
FINAL SINGLE POINT ENERGY     -1339.879433527568

DIPOLE MOMENT
-------------
                                X             Y             Z
Electronic contribution:     -3.84517     -26.90945      -2.89808
Nuclear contribution   :      3.95100      27.40375       2.75520
                        -----------------------------------------
Total Dipole Moment    :      0.10583       0.49430      -0.14288
                        -----------------------------------------
Magnitude (a.u.)       :      0.52531
Magnitude (Debye)      :      1.33523

Rotational constants in cm-1:     0.019316     0.007731     0.006375
Rotational constants in MHz :   579.070541   231.775435   191.126697

                             ****ORCA TERMINATED NORMALLY****
TOTAL RUN TIME: 0 days 0 hours 0 minutes 21 seconds 3 msec
