                         Program Version 4.2.1 -  RELEASE  -
|  1> ! wB97X-D3 SP def2-SVP
|  2> %pal
|  3> nprocs 24
|  4> end
|  5>
|  6> * xyz 0 1
|  7> S 	 -45.2799 	 16.6125 	 -100.291
|  8> C 	 -44.3789 	 15.1675 	 -99.8481
|  9> C 	 -44.8703 	 14.0456 	 -100.496
| 10> C 	 -45.8252 	 14.3598 	 -101.525
| 11> C 	 -46.1654 	 15.722 	 -101.554
| 12> H 	 -46.2195 	 13.8042 	 -102.373
| 13> C 	 -44.2224 	 12.7076 	 -100.383
| 14> H 	 -43.9696 	 12.6211 	 -99.2754
| 15> H 	 -43.3127 	 12.8136 	 -100.906
| 16> C 	 -44.9575 	 11.3153 	 -100.89
| 17> H 	 -45.2015 	 11.41 	 -101.999
| 18> H 	 -44.2181 	 10.4458 	 -100.893
| 19> C 	 -46.2863 	 11.0253 	 -100.221
| 20> H 	 -46.3423 	 11.2694 	 -99.146
| 21> H 	 -46.8994 	 11.6908 	 -100.833
| 22> H 	 -46.6746 	 10.0035 	 -100.339
| 23> S 	 -48.6009 	 16.7919 	 -101.711
| 24> C 	 -49.4352 	 17.0071 	 -103.276
| 25> C 	 -48.5335 	 16.7276 	 -104.259
| 26> C 	 -47.2983 	 16.1532 	 -103.859
| 27> C 	 -47.1668 	 16.2816 	 -102.463
| 28> H 	 -48.8324 	 16.9429 	 -105.302
| 29> C 	 -46.1649 	 15.7114 	 -104.788
| 30> H 	 -45.2119 	 15.5328 	 -104.294
| 31> H 	 -46.0556 	 16.5404 	 -105.39
| 32> C 	 -46.537 	 14.4091 	 -105.626
| 33> H 	 -47.5662 	 14.4136 	 -106.027
| 34> H 	 -46.6482 	 13.5499 	 -104.983
| 35> C 	 -45.463 	 14.1497 	 -106.757
| 36> H 	 -44.4723 	 14.207 	 -106.224
| 37> H 	 -45.4153 	 14.9622 	 -107.429
| 38> H 	 -45.4912 	 13.1465 	 -107.172
| 39> H 	 -43.4845 	 15.243 	 -99.2523
| 40> H 	 -50.4415 	 17.3832 	 -103.37
| 41> *
| 42>
| 43>                          ****END OF INPUT****

CARTESIAN COORDINATES (ANGSTROEM)
---------------------------------
  S    -45.279900   16.612500  -100.291000
  C    -44.378900   15.167500  -99.848100
  C    -44.870300   14.045600  -100.496000
  C    -45.825200   14.359800  -101.525000
  C    -46.165400   15.722000  -101.554000
  H    -46.219500   13.804200  -102.373000
  C    -44.222400   12.707600  -100.383000
  H    -43.969600   12.621100  -99.275400
  H    -43.312700   12.813600  -100.906000
  C    -44.957500   11.315300  -100.890000
  H    -45.201500   11.410000  -101.999000
  H    -44.218100   10.445800  -100.893000
  C    -46.286300   11.025300  -100.221000
  H    -46.342300   11.269400  -99.146000
  H    -46.899400   11.690800  -100.833000
  H    -46.674600   10.003500  -100.339000
  S    -48.600900   16.791900  -101.711000
  C    -49.435200   17.007100  -103.276000
  C    -48.533500   16.727600  -104.259000
  C    -47.298300   16.153200  -103.859000
  C    -47.166800   16.281600  -102.463000
  H    -48.832400   16.942900  -105.302000
  C    -46.164900   15.711400  -104.788000
  H    -45.211900   15.532800  -104.294000
  H    -46.055600   16.540400  -105.390000
  C    -46.537000   14.409100  -105.626000
  H    -47.566200   14.413600  -106.027000
  H    -46.648200   13.549900  -104.983000
  C    -45.463000   14.149700  -106.757000
  H    -44.472300   14.207000  -106.224000
  H    -45.415300   14.962200  -107.429000
  H    -45.491200   13.146500  -107.172000
  H    -43.484500   15.243000  -99.252300
  H    -50.441500   17.383200  -103.370000

 Total Charge           Charge          ....    0
 Multiplicity           Mult            ....    1
 Number of Electrons    NEL             ....  134
 Basis Dimension        Dim             ....  322

ORBITAL ENERGIES
----------------

  NO   OCC          E(Eh)            E(eV)
   0   2.0000     -88.967109     -2420.9181
   1   2.0000     -88.961436     -2420.7637
   2   2.0000     -10.331524      -281.1351
   3   2.0000     -10.324036      -280.9313
   4   2.0000     -10.317036      -280.7408
   5   2.0000     -10.314965      -280.6845
   6   2.0000     -10.306462      -280.4531
   7   2.0000     -10.306381      -280.4509
   8   2.0000     -10.305899      -280.4378
   9   2.0000     -10.299251      -280.2569
  10   2.0000     -10.297388      -280.2062
  11   2.0000     -10.296480      -280.1815
  12   2.0000     -10.294560      -280.1292
  13   2.0000     -10.293805      -280.1087
  14   2.0000     -10.283135      -279.8183
  15   2.0000     -10.278432      -279.6904
  16   2.0000      -8.081049      -219.8965
  17   2.0000      -8.076913      -219.7840
  18   2.0000      -6.039581      -164.3453
  19   2.0000      -6.035613      -164.2374
  20   2.0000      -6.035358      -164.2304
  21   2.0000      -6.031898      -164.1363
  22   2.0000      -6.031236      -164.1183
  23   2.0000      -6.027750      -164.0234
  24   2.0000      -1.006569       -27.3901
  25   2.0000      -0.981649       -26.7120
  26   2.0000      -0.902490       -24.5580
  27   2.0000      -0.900517       -24.5043
  28   2.0000      -0.871269       -23.7084
  29   2.0000      -0.848210       -23.0810
  30   2.0000      -0.846083       -23.0231
  31   2.0000      -0.817466       -22.2444
  32   2.0000      -0.778838       -21.1933
  33   2.0000      -0.767115       -20.8742
  34   2.0000      -0.710527       -19.3344
  35   2.0000      -0.702450       -19.1146
  36   2.0000      -0.690393       -18.7866
  37   2.0000      -0.659104       -17.9351
  38   2.0000      -0.641487       -17.4558
  39   2.0000      -0.613974       -16.7071
  40   2.0000      -0.596725       -16.2377
  41   2.0000      -0.560278       -15.2459
  42   2.0000      -0.556178       -15.1344
  43   2.0000      -0.550246       -14.9730
  44   2.0000      -0.535072       -14.5601
  45   2.0000      -0.530748       -14.4424
  46   2.0000      -0.521876       -14.2010
  47   2.0000      -0.514643       -14.0042
  48   2.0000      -0.512200       -13.9377
  49   2.0000      -0.496728       -13.5167
  50   2.0000      -0.488716       -13.2986
  51   2.0000      -0.477713       -12.9992
  52   2.0000      -0.469895       -12.7865
  53   2.0000      -0.463767       -12.6197
  54   2.0000      -0.456698       -12.4274
  55   2.0000      -0.448246       -12.1974
  56   2.0000      -0.446585       -12.1522
  57   2.0000      -0.440027       -11.9737
  58   2.0000      -0.432162       -11.7597
  59   2.0000      -0.422943       -11.5089
  60   2.0000      -0.417232       -11.3535
  61   2.0000      -0.413863       -11.2618
  62   2.0000      -0.407950       -11.1009
  63   2.0000      -0.347511        -9.4562
  64   2.0000      -0.328898        -8.9498
  65   2.0000      -0.323398        -8.8001
  66   2.0000      -0.293306        -7.9813
  67   0.0000       0.034341         0.9345
  68   0.0000       0.061074         1.6619
  69   0.0000       0.112050         3.0490
  70   0.0000       0.120635         3.2827
  71   0.0000       0.126008         3.4289

MULLIKEN ATOMIC CHARGES
-----------------------
   0 S :    0.110975
   1 C :   -0.137423
   2 C :   -0.041270
   3 C :    0.032482
   4 C :   -0.180821
   5 H :    0.018101
   6 C :    0.017103
   7 H :    0.044928
   8 H :    0.042766
   9 C :   -0.117197
  10 H :    0.034085
  11 H :    0.042170
  12 C :   -0.048750
  13 H :    0.046488
  14 H :    0.032036
  15 H :    0.040295
  16 S :    0.101964
  17 C :   -0.108644
  18 C :   -0.024961
  19 C :   -0.047098
  20 C :   -0.150739
  21 H :    0.027371
  22 C :    0.088269
  23 H :    0.036527
  24 H :    0.016699
  25 C :   -0.103550
  26 H :    0.029508
  27 H :    0.018986
  28 C :   -0.028602
  29 H :    0.021013
  30 H :    0.029421
  31 H :    0.044214
  32 H :    0.053560
  33 H :    0.060094
Sum of atomic charges:    0.0000000

LOEWDIN ATOMIC CHARGES
----------------------
   0 S :    0.389571
   1 C :   -0.194779
   2 C :   -0.063108
   3 C :   -0.064076
   4 C :   -0.189708
   5 H :    0.033974
   6 C :   -0.035988
   7 H :    0.039730
   8 H :    0.030913
   9 C :   -0.048446
  10 H :    0.025965
  11 H :    0.027297
  12 C :   -0.075007
  13 H :    0.028659
  14 H :    0.030271
  15 H :    0.029422
  16 S :    0.416560
  17 C :   -0.179917
  18 C :   -0.071639
  19 C :   -0.060983
  20 C :   -0.213144
  21 H :    0.035750
  22 C :   -0.018494
  23 H :    0.033376
  24 H :    0.022988
  25 C :   -0.040752
  26 H :    0.023046
  27 H :    0.017855
  28 C :   -0.064410
  29 H :    0.029951
  30 H :    0.018882
  31 H :    0.027844
  32 H :    0.027917
  33 H :    0.030480

  Mayer bond orders larger than 0.100000
B(  0-S ,  1-C ) :   1.1339 B(  0-S ,  4-C ) :   1.1491 B(  1-C ,  2-C ) :   1.6047
B(  1-C ,  4-C ) :   0.1009 B(  1-C , 32-H ) :   0.9766 B(  2-C ,  3-C ) :   1.2137
B(  2-C ,  6-C ) :   1.0056 B(  3-C ,  4-C ) :   1.5878 B(  3-C ,  5-H ) :   0.9875
B(  4-C , 20-C ) :   1.0116 B(  6-C ,  7-H ) :   0.9452 B(  6-C ,  8-H ) :   0.9452
B(  6-C ,  9-C ) :   1.0595 B(  9-C , 10-H ) :   0.9610 B(  9-C , 11-H ) :   0.9604
B(  9-C , 12-C ) :   1.0517 B( 12-C , 13-H ) :   0.9792 B( 12-C , 14-H ) :   0.9790
B( 12-C , 15-H ) :   0.9741 B( 16-S , 17-C ) :   1.1421 B( 16-S , 20-C ) :   1.1814
B( 17-C , 18-C ) :   1.6063 B( 17-C , 20-C ) :   0.1021 B( 17-C , 33-H ) :   0.9739
B( 18-C , 19-C ) :   1.2435 B( 18-C , 21-H ) :   0.9820 B( 19-C , 20-C ) :   1.5692
B( 19-C , 22-C ) :   1.0319 B( 22-C , 23-H ) :   0.9422 B( 22-C , 24-H ) :   0.9412
B( 22-C , 25-C ) :   1.0355 B( 25-C , 26-H ) :   0.9617 B( 25-C , 27-H ) :   0.9571
B( 25-C , 28-C ) :   1.0682 B( 28-C , 29-H ) :   0.9724 B( 28-C , 30-H ) :   0.9794
B( 28-C , 31-H ) :   0.9759

Dispersion correction           -0.014490040
FINAL SINGLE POINT ENERGY     -1339.855342721405

DIPOLE MOMENT
-------------
                                X             Y             Z
Electronic contribution:     -7.88070      23.67650      14.13310
Nuclear contribution   :      8.11758     -24.13023     -14.66848
                        -----------------------------------------
Total Dipole Moment    :      0.23688      -0.45373      -0.53538
                        -----------------------------------------
Magnitude (a.u.)       :      0.74068
Magnitude (Debye)      :      1.88267

Rotational constants in cm-1:     0.014981     0.009733     0.007469
Rotational constants in MHz :   449.125569   291.788963   223.921538

                             ****ORCA TERMINATED NORMALLY****
TOTAL RUN TIME: 0 days 0 hours 0 minutes 21 seconds 678 msec
