                         Program Version 4.2.1 -  RELEASE  -
|  1> ! wB97X-D3 SP def2-SVP
|  2> %pal
|  3> nprocs 24
|  4> end
|  5>
|  6> * xyz 0 1
|  7> S 	 -50.9297 	 24.9911 	 27.1661
|  8> C 	 -52.1865 	 24.8348 	 28.3953
|  9> C 	 -51.8676 	 25.6488 	 29.4617
| 10> C 	 -50.601 	 26.3283 	 29.3075
| 11> C 	 -49.9553 	 26.107 	 28.1535
| 12> H 	 -50.1433 	 27.0065 	 30.0747
| 13> C 	 -52.7896 	 25.9004 	 30.6187
| 14> H 	 -52.2192 	 26.369 	 31.429
| 15> H 	 -53.0948 	 24.9687 	 31.1079
| 16> C 	 -53.8916 	 26.8078 	 30.215
| 17> H 	 -53.5658 	 27.4646 	 29.3741
| 18> H 	 -54.6893 	 26.2609 	 29.8063
| 19> C 	 -54.3548 	 27.7146 	 31.393
| 20> H 	 -54.9845 	 28.516 	 31.141
| 21> H 	 -54.8486 	 27.1514 	 32.2268
| 22> H 	 -53.3452 	 28.0998 	 31.6892
| 23> S 	 -48.4572 	 28.3044 	 27.133
| 24> C 	 -46.6784 	 28.1915 	 27.1472
| 25> C 	 -46.2759 	 26.9572 	 27.5891
| 26> C 	 -47.362 	 26.1094 	 28.0503
| 27> C 	 -48.597 	 26.6572 	 27.8327
| 28> H 	 -45.218 	 26.7112 	 27.7674
| 29> C 	 -47.0777 	 24.7361 	 28.525
| 30> H 	 -46.03 	 24.4055 	 28.4417
| 31> H 	 -47.59 	 24.0742 	 27.8636
| 32> C 	 -47.3508 	 24.4667 	 30.0275
| 33> H 	 -48.4319 	 24.5434 	 30.1372
| 34> H 	 -46.981 	 25.1935 	 30.8021
| 35> C 	 -46.8656 	 23.1135 	 30.4895
| 36> H 	 -45.8327 	 22.829 	 30.2198
| 37> H 	 -47.5088 	 22.3341 	 30.0252
| 38> H 	 -47.1283 	 22.9631 	 31.5387
| 39> H 	 -53.0168 	 24.2321 	 28.1404
| 40> H 	 -46.028 	 29.0262 	 26.791
| 41> *
| 42>
| 43>                          ****END OF INPUT****

CARTESIAN COORDINATES (ANGSTROEM)
---------------------------------
  S    -50.929700   24.991100   27.166100
  C    -52.186500   24.834800   28.395300
  C    -51.867600   25.648800   29.461700
  C    -50.601000   26.328300   29.307500
  C    -49.955300   26.107000   28.153500
  H    -50.143300   27.006500   30.074700
  C    -52.789600   25.900400   30.618700
  H    -52.219200   26.369000   31.429000
  H    -53.094800   24.968700   31.107900
  C    -53.891600   26.807800   30.215000
  H    -53.565800   27.464600   29.374100
  H    -54.689300   26.260900   29.806300
  C    -54.354800   27.714600   31.393000
  H    -54.984500   28.516000   31.141000
  H    -54.848600   27.151400   32.226800
  H    -53.345200   28.099800   31.689200
  S    -48.457200   28.304400   27.133000
  C    -46.678400   28.191500   27.147200
  C    -46.275900   26.957200   27.589100
  C    -47.362000   26.109400   28.050300
  C    -48.597000   26.657200   27.832700
  H    -45.218000   26.711200   27.767400
  C    -47.077700   24.736100   28.525000
  H    -46.030000   24.405500   28.441700
  H    -47.590000   24.074200   27.863600
  C    -47.350800   24.466700   30.027500
  H    -48.431900   24.543400   30.137200
  H    -46.981000   25.193500   30.802100
  C    -46.865600   23.113500   30.489500
  H    -45.832700   22.829000   30.219800
  H    -47.508800   22.334100   30.025200
  H    -47.128300   22.963100   31.538700
  H    -53.016800   24.232100   28.140400
  H    -46.028000   29.026200   26.791000

 Total Charge           Charge          ....    0
 Multiplicity           Mult            ....    1
 Number of Electrons    NEL             ....  134
 Basis Dimension        Dim             ....  322

ORBITAL ENERGIES
----------------

  NO   OCC          E(Eh)            E(eV)
   0   2.0000     -88.964094     -2420.8361
   1   2.0000     -88.961955     -2420.7779
   2   2.0000     -10.330989      -281.1205
   3   2.0000     -10.330780      -281.1148
   4   2.0000     -10.325262      -280.9647
   5   2.0000     -10.317170      -280.7445
   6   2.0000     -10.304227      -280.3923
   7   2.0000     -10.303128      -280.3624
   8   2.0000     -10.296809      -280.1904
   9   2.0000     -10.296696      -280.1873
  10   2.0000     -10.287617      -279.9403
  11   2.0000     -10.287597      -279.9397
  12   2.0000     -10.284352      -279.8514
  13   2.0000     -10.281191      -279.7654
  14   2.0000     -10.280969      -279.7594
  15   2.0000     -10.277141      -279.6552
  16   2.0000      -8.077832      -219.8090
  17   2.0000      -8.076286      -219.7669
  18   2.0000      -6.036526      -164.2622
  19   2.0000      -6.034903      -164.2181
  20   2.0000      -6.032531      -164.1535
  21   2.0000      -6.030716      -164.1041
  22   2.0000      -6.028401      -164.0411
  23   2.0000      -6.027081      -164.0052
  24   2.0000      -1.001576       -27.2543
  25   2.0000      -0.981427       -26.7060
  26   2.0000      -0.918405       -24.9911
  27   2.0000      -0.907735       -24.7007
  28   2.0000      -0.867607       -23.6088
  29   2.0000      -0.849634       -23.1197
  30   2.0000      -0.843046       -22.9404
  31   2.0000      -0.816757       -22.2251
  32   2.0000      -0.778728       -21.1903
  33   2.0000      -0.768357       -20.9081
  34   2.0000      -0.705950       -19.2099
  35   2.0000      -0.700821       -19.0703
  36   2.0000      -0.687199       -18.6996
  37   2.0000      -0.661561       -18.0020
  38   2.0000      -0.650077       -17.6895
  39   2.0000      -0.616173       -16.7669
  40   2.0000      -0.597736       -16.2652
  41   2.0000      -0.572215       -15.5708
  42   2.0000      -0.565471       -15.3873
  43   2.0000      -0.560007       -15.2386
  44   2.0000      -0.528725       -14.3873
  45   2.0000      -0.522228       -14.2105
  46   2.0000      -0.518216       -14.1014
  47   2.0000      -0.515692       -14.0327
  48   2.0000      -0.509575       -13.8662
  49   2.0000      -0.503688       -13.7060
  50   2.0000      -0.485640       -13.2149
  51   2.0000      -0.481822       -13.1110
  52   2.0000      -0.463437       -12.6108
  53   2.0000      -0.460446       -12.5294
  54   2.0000      -0.454971       -12.3804
  55   2.0000      -0.451401       -12.2832
  56   2.0000      -0.445623       -12.1260
  57   2.0000      -0.436287       -11.8720
  58   2.0000      -0.425483       -11.5780
  59   2.0000      -0.423486       -11.5236
  60   2.0000      -0.416917       -11.3449
  61   2.0000      -0.412923       -11.2362
  62   2.0000      -0.399676       -10.8757
  63   2.0000      -0.336349        -9.1525
  64   2.0000      -0.330331        -8.9888
  65   2.0000      -0.321017        -8.7353
  66   2.0000      -0.318030        -8.6540
  67   0.0000       0.045819         1.2468
  68   0.0000       0.052376         1.4252
  69   0.0000       0.111559         3.0357
  70   0.0000       0.120762         3.2861
  71   0.0000       0.130165         3.5420

MULLIKEN ATOMIC CHARGES
-----------------------
   0 S :    0.085045
   1 C :   -0.125331
   2 C :   -0.089727
   3 C :    0.036090
   4 C :   -0.157058
   5 H :    0.036382
   6 C :    0.079571
   7 H :    0.006895
   8 H :    0.033157
   9 C :   -0.055848
  10 H :    0.045260
  11 H :    0.015535
  12 C :   -0.066643
  13 H :    0.031340
  14 H :    0.042378
  15 H :    0.031249
  16 S :    0.090957
  17 C :   -0.113967
  18 C :   -0.017907
  19 C :   -0.010999
  20 C :   -0.185140
  21 H :    0.031459
  22 C :    0.083903
  23 H :    0.007851
  24 H :    0.029852
  25 C :   -0.105116
  26 H :    0.034147
  27 H :    0.035855
  28 C :   -0.046995
  29 H :    0.038677
  30 H :    0.020106
  31 H :    0.032409
  32 H :    0.046767
  33 H :    0.079846
Sum of atomic charges:    0.0000000

LOEWDIN ATOMIC CHARGES
----------------------
   0 S :    0.377828
   1 C :   -0.175303
   2 C :   -0.062481
   3 C :   -0.065100
   4 C :   -0.190316
   5 H :    0.042912
   6 C :   -0.037150
   7 H :    0.026111
   8 H :    0.033760
   9 C :   -0.039589
  10 H :    0.033857
  11 H :    0.014019
  12 C :   -0.063455
  13 H :    0.016852
  14 H :    0.029568
  15 H :    0.029360
  16 S :    0.369502
  17 C :   -0.175071
  18 C :   -0.073459
  19 C :   -0.050340
  20 C :   -0.185487
  21 H :    0.036128
  22 C :   -0.031466
  23 H :    0.029415
  24 H :    0.032617
  25 C :   -0.047233
  26 H :    0.024652
  27 H :    0.029527
  28 C :   -0.074250
  29 H :    0.025038
  30 H :    0.027228
  31 H :    0.029052
  32 H :    0.022276
  33 H :    0.040997

  Mayer bond orders larger than 0.100000
B(  0-S ,  1-C ) :   1.1378 B(  0-S ,  4-C ) :   1.1315 B(  1-C ,  2-C ) :   1.5906
B(  1-C , 32-H ) :   0.9881 B(  2-C ,  3-C ) :   1.2297 B(  2-C ,  6-C ) :   1.0333
B(  3-C ,  4-C ) :   1.6217 B(  3-C ,  5-H ) :   0.9826 B(  4-C , 20-C ) :   1.0008
B(  6-C ,  7-H ) :   0.9445 B(  6-C ,  8-H ) :   0.9312 B(  6-C ,  9-C ) :   1.0462
B(  9-C , 10-H ) :   0.9609 B(  9-C , 11-H ) :   0.9493 B(  9-C , 12-C ) :   1.0713
B( 12-C , 13-H ) :   0.9777 B( 12-C , 14-H ) :   0.9758 B( 12-C , 15-H ) :   0.9798
B( 16-S , 17-C ) :   1.1421 B( 16-S , 20-C ) :   1.1190 B( 17-C , 18-C ) :   1.6306
B( 17-C , 33-H ) :   0.9610 B( 18-C , 19-C ) :   1.2258 B( 18-C , 21-H ) :   0.9806
B( 19-C , 20-C ) :   1.6441 B( 19-C , 22-C ) :   1.0452 B( 22-C , 23-H ) :   0.9413
B( 22-C , 24-H ) :   0.9282 B( 22-C , 25-C ) :   1.0453 B( 25-C , 26-H ) :   0.9502
B( 25-C , 27-H ) :   0.9603 B( 25-C , 28-C ) :   1.0966 B( 28-C , 29-H ) :   0.9731
B( 28-C , 30-H ) :   0.9695 B( 28-C , 31-H ) :   0.9704

Dispersion correction           -0.014561443
FINAL SINGLE POINT ENERGY     -1339.876910710523

DIPOLE MOMENT
-------------
                                X             Y             Z
Electronic contribution:      5.23493       7.42768     -21.03296
Nuclear contribution   :     -5.25670      -7.57707      21.53596
                        -----------------------------------------
Total Dipole Moment    :     -0.02177      -0.14939       0.50300
                        -----------------------------------------
Magnitude (a.u.)       :      0.52517
Magnitude (Debye)      :      1.33487

Rotational constants in cm-1:     0.018024     0.008237     0.006992
Rotational constants in MHz :   540.349033   246.927518   209.613930

                             ****ORCA TERMINATED NORMALLY****
TOTAL RUN TIME: 0 days 0 hours 0 minutes 21 seconds 433 msec
