                         Program Version 4.2.1 -  RELEASE  -
|  1> ! wB97X-D3 SP def2-SVP
|  2> %pal
|  3> nprocs 24
|  4> end
|  5>
|  6> * xyz 0 1
|  7> S 	 -125.871 	 68.0964 	 -42.8697
|  8> C 	 -127.335 	 68.4994 	 -41.9458
|  9> C 	 -127.94 	 69.677 	 -42.3271
| 10> C 	 -127.115 	 70.32 	 -43.2903
| 11> C 	 -125.905 	 69.6216 	 -43.5978
| 12> H 	 -127.25 	 71.3193 	 -43.689
| 13> C 	 -129.201 	 70.1769 	 -41.797
| 14> H 	 -129.949 	 70.1449 	 -42.5086
| 15> H 	 -129.098 	 71.2415 	 -41.6076
| 16> C 	 -129.725 	 69.4248 	 -40.5508
| 17> H 	 -129.702 	 68.3953 	 -40.6412
| 18> H 	 -129.056 	 69.6782 	 -39.7032
| 19> C 	 -131.11 	 69.8393 	 -40.1398
| 20> H 	 -131.252 	 70.7865 	 -39.6632
| 21> H 	 -131.843 	 69.8552 	 -41.0518
| 22> H 	 -131.545 	 69.1355 	 -39.4933
| 23> S 	 -123.2 	 70.0527 	 -43.4668
| 24> C 	 -122.286 	 70.6271 	 -44.8733
| 25> C 	 -123.101 	 70.8984 	 -45.9369
| 26> C 	 -124.488 	 70.5851 	 -45.6993
| 27> C 	 -124.732 	 70.0948 	 -44.393
| 28> H 	 -122.628 	 71.3466 	 -46.8557
| 29> C 	 -125.451 	 70.7266 	 -46.836
| 30> H 	 -126.209 	 70.0365 	 -46.5843
| 31> H 	 -124.93 	 70.3346 	 -47.7915
| 32> C 	 -126.033 	 72.147 	 -47.1206
| 33> H 	 -125.238 	 72.8497 	 -47.0865
| 34> H 	 -126.741 	 72.3688 	 -46.3985
| 35> C 	 -126.747 	 72.2364 	 -48.5135
| 36> H 	 -127.799 	 72.1268 	 -48.3604
| 37> H 	 -126.381 	 71.4265 	 -49.1478
| 38> H 	 -126.575 	 73.1755 	 -49.0309
| 39> H 	 -127.771 	 67.9084 	 -41.1536
| 40> H 	 -121.252 	 70.922 	 -44.951
| 41> *
| 42>
| 43>                          ****END OF INPUT****

CARTESIAN COORDINATES (ANGSTROEM)
---------------------------------
  S    -125.871000   68.096400  -42.869700
  C    -127.335000   68.499400  -41.945800
  C    -127.940000   69.677000  -42.327100
  C    -127.115000   70.320000  -43.290300
  C    -125.905000   69.621600  -43.597800
  H    -127.250000   71.319300  -43.689000
  C    -129.201000   70.176900  -41.797000
  H    -129.949000   70.144900  -42.508600
  H    -129.098000   71.241500  -41.607600
  C    -129.725000   69.424800  -40.550800
  H    -129.702000   68.395300  -40.641200
  H    -129.056000   69.678200  -39.703200
  C    -131.110000   69.839300  -40.139800
  H    -131.252000   70.786500  -39.663200
  H    -131.843000   69.855200  -41.051800
  H    -131.545000   69.135500  -39.493300
  S    -123.200000   70.052700  -43.466800
  C    -122.286000   70.627100  -44.873300
  C    -123.101000   70.898400  -45.936900
  C    -124.488000   70.585100  -45.699300
  C    -124.732000   70.094800  -44.393000
  H    -122.628000   71.346600  -46.855700
  C    -125.451000   70.726600  -46.836000
  H    -126.209000   70.036500  -46.584300
  H    -124.930000   70.334600  -47.791500
  C    -126.033000   72.147000  -47.120600
  H    -125.238000   72.849700  -47.086500
  H    -126.741000   72.368800  -46.398500
  C    -126.747000   72.236400  -48.513500
  H    -127.799000   72.126800  -48.360400
  H    -126.381000   71.426500  -49.147800
  H    -126.575000   73.175500  -49.030900
  H    -127.771000   67.908400  -41.153600
  H    -121.252000   70.922000  -44.951000

 Total Charge           Charge          ....    0
 Multiplicity           Mult            ....    1
 Number of Electrons    NEL             ....  134
 Basis Dimension        Dim             ....  322

ORBITAL ENERGIES
----------------

  NO   OCC          E(Eh)            E(eV)
   0   2.0000     -88.969393     -2420.9803
   1   2.0000     -88.964516     -2420.8476
   2   2.0000     -10.336027      -281.2576
   3   2.0000     -10.332590      -281.1641
   4   2.0000     -10.315045      -280.6867
   5   2.0000     -10.309985      -280.5490
   6   2.0000     -10.307744      -280.4880
   7   2.0000     -10.298510      -280.2367
   8   2.0000     -10.296620      -280.1853
   9   2.0000     -10.294772      -280.1350
  10   2.0000     -10.291394      -280.0431
  11   2.0000     -10.286602      -279.9127
  12   2.0000     -10.286472      -279.9091
  13   2.0000     -10.280874      -279.7568
  14   2.0000     -10.279934      -279.7312
  15   2.0000     -10.275885      -279.6211
  16   2.0000      -8.084458      -219.9893
  17   2.0000      -8.078174      -219.8183
  18   2.0000      -6.042790      -164.4327
  19   2.0000      -6.038985      -164.3291
  20   2.0000      -6.036893      -164.2722
  21   2.0000      -6.035307      -164.2290
  22   2.0000      -6.032817      -164.1613
  23   2.0000      -6.028763      -164.0510
  24   2.0000      -1.003728       -27.3128
  25   2.0000      -0.979371       -26.6500
  26   2.0000      -0.924378       -25.1536
  27   2.0000      -0.903838       -24.5947
  28   2.0000      -0.870854       -23.6971
  29   2.0000      -0.848167       -23.0798
  30   2.0000      -0.846364       -23.0307
  31   2.0000      -0.811821       -22.0908
  32   2.0000      -0.787376       -21.4256
  33   2.0000      -0.768027       -20.8991
  34   2.0000      -0.720484       -19.6054
  35   2.0000      -0.706472       -19.2241
  36   2.0000      -0.690920       -18.8009
  37   2.0000      -0.656167       -17.8552
  38   2.0000      -0.636474       -17.3193
  39   2.0000      -0.614246       -16.7145
  40   2.0000      -0.590526       -16.0690
  41   2.0000      -0.578468       -15.7409
  42   2.0000      -0.573481       -15.6052
  43   2.0000      -0.567268       -15.4361
  44   2.0000      -0.527220       -14.3464
  45   2.0000      -0.522431       -14.2161
  46   2.0000      -0.520837       -14.1727
  47   2.0000      -0.509690       -13.8694
  48   2.0000      -0.502712       -13.6795
  49   2.0000      -0.496519       -13.5110
  50   2.0000      -0.492973       -13.4145
  51   2.0000      -0.476570       -12.9681
  52   2.0000      -0.466703       -12.6996
  53   2.0000      -0.465406       -12.6643
  54   2.0000      -0.456162       -12.4128
  55   2.0000      -0.454909       -12.3787
  56   2.0000      -0.445578       -12.1248
  57   2.0000      -0.439094       -11.9484
  58   2.0000      -0.433627       -11.7996
  59   2.0000      -0.432980       -11.7820
  60   2.0000      -0.423640       -11.5278
  61   2.0000      -0.420486       -11.4420
  62   2.0000      -0.417264       -11.3543
  63   2.0000      -0.339155        -9.2289
  64   2.0000      -0.334848        -9.1117
  65   2.0000      -0.323587        -8.8053
  66   2.0000      -0.292993        -7.9727
  67   0.0000       0.030473         0.8292
  68   0.0000       0.068317         1.8590
  69   0.0000       0.113551         3.0899
  70   0.0000       0.118242         3.2175
  71   0.0000       0.127826         3.4783

MULLIKEN ATOMIC CHARGES
-----------------------
   0 S :    0.138409
   1 C :   -0.134444
   2 C :   -0.091037
   3 C :    0.035238
   4 C :   -0.172086
   5 H :    0.005730
   6 C :    0.135459
   7 H :    0.011104
   8 H :    0.024440
   9 C :   -0.098563
  10 H :    0.026127
  11 H :    0.038448
  12 C :   -0.036808
  13 H :    0.031382
  14 H :    0.026449
  15 H :    0.018548
  16 S :    0.095089
  17 C :   -0.075965
  18 C :   -0.070097
  19 C :   -0.020608
  20 C :   -0.163321
  21 H :    0.041034
  22 C :    0.025249
  23 H :    0.018706
  24 H :    0.038543
  25 C :   -0.017120
  26 H :    0.018112
  27 H :    0.013974
  28 C :   -0.049430
  29 H :    0.031779
  30 H :    0.028198
  31 H :    0.036043
  32 H :    0.040043
  33 H :    0.051373
Sum of atomic charges:   -0.0000000

LOEWDIN ATOMIC CHARGES
----------------------
   0 S :    0.431269
   1 C :   -0.196092
   2 C :   -0.060368
   3 C :   -0.062660
   4 C :   -0.220344
   5 H :    0.027288
   6 C :   -0.024004
   7 H :    0.025041
   8 H :    0.037229
   9 C :   -0.035793
  10 H :    0.014625
  11 H :    0.033008
  12 C :   -0.064269
  13 H :    0.021933
  14 H :    0.031818
  15 H :    0.020318
  16 S :    0.381616
  17 C :   -0.181082
  18 C :   -0.080058
  19 C :   -0.055958
  20 C :   -0.189403
  21 H :    0.042411
  22 C :   -0.034498
  23 H :    0.024230
  24 H :    0.039096
  25 C :   -0.024489
  26 H :    0.017863
  27 H :    0.014510
  28 C :   -0.061876
  29 H :    0.023318
  30 H :    0.024315
  31 H :    0.026741
  32 H :    0.022861
  33 H :    0.031404

  Mayer bond orders larger than 0.100000
B(  0-S ,  1-C ) :   1.1288 B(  0-S ,  4-C ) :   1.1856 B(  1-C ,  2-C ) :   1.6191
B(  1-C , 32-H ) :   0.9548 B(  2-C ,  3-C ) :   1.2533 B(  2-C ,  6-C ) :   1.0268
B(  3-C ,  4-C ) :   1.5425 B(  3-C ,  5-H ) :   0.9973 B(  4-C , 20-C ) :   1.0132
B(  6-C ,  7-H ) :   0.9165 B(  6-C ,  8-H ) :   0.9266 B(  6-C ,  9-C ) :   1.0796
B(  9-C , 10-H ) :   0.9479 B(  9-C , 11-H ) :   0.9520 B(  9-C , 12-C ) :   1.0974
B( 12-C , 13-H ) :   0.9748 B( 12-C , 14-H ) :   0.9703 B( 12-C , 15-H ) :   0.9710
B( 16-S , 17-C ) :   1.1342 B( 16-S , 20-C ) :   1.1299 B( 17-C , 18-C ) :   1.6579
B( 17-C , 33-H ) :   0.9611 B( 18-C , 19-C ) :   1.2157 B( 18-C , 21-H ) :   0.9773
B( 19-C , 20-C ) :   1.6033 B( 19-C , 22-C ) :   1.0509 B( 22-C , 23-H ) :   0.9297
B( 22-C , 24-H ) :   0.9400 B( 22-C , 25-C ) :   1.0626 B( 25-C , 26-H ) :   0.9630
B( 25-C , 27-H ) :   0.9578 B( 25-C , 28-C ) :   1.0698 B( 28-C , 29-H ) :   0.9802
B( 28-C , 30-H ) :   0.9785 B( 28-C , 31-H ) :   0.9781

Dispersion correction           -0.013150273
FINAL SINGLE POINT ENERGY     -1339.863021803280

DIPOLE MOMENT
-------------
                                X             Y             Z
Electronic contribution:     23.80427     -11.06116       5.90442
Nuclear contribution   :    -24.30112      11.46764      -6.04436
                        -----------------------------------------
Total Dipole Moment    :     -0.49685       0.40647      -0.13994
                        -----------------------------------------
Magnitude (a.u.)       :      0.65701
Magnitude (Debye)      :      1.67000

Rotational constants in cm-1:     0.019421     0.007315     0.005716
Rotational constants in MHz :   582.212855   219.307688   171.374043

                             ****ORCA TERMINATED NORMALLY****
TOTAL RUN TIME: 0 days 0 hours 0 minutes 20 seconds 645 msec
