                         Program Version 4.2.1 -  RELEASE  -
|  1> ! wB97X-D3 SP def2-SVP
|  2> %pal
|  3> nprocs 24
|  4> end
|  5>
|  6> * xyz 0 1
|  7> S 	 -119.385 	 49.4813 	 -32.1864
|  8> C 	 -120.725 	 48.4216 	 -32.5909
|  9> C 	 -121.702 	 49.0911 	 -33.2968
| 10> C 	 -121.247 	 50.4676 	 -33.4781
| 11> C 	 -120.001 	 50.8101 	 -32.9802
| 12> H 	 -121.753 	 51.1734 	 -34.0889
| 13> C 	 -122.977 	 48.6384 	 -33.8904
| 14> H 	 -123.39 	 47.9868 	 -33.0941
| 15> H 	 -122.826 	 47.9692 	 -34.7263
| 16> C 	 -124.024 	 49.6382 	 -34.314
| 17> H 	 -123.607 	 50.1214 	 -35.2186
| 18> H 	 -124.888 	 49.1188 	 -34.6553
| 19> C 	 -124.468 	 50.5045 	 -33.1408
| 20> H 	 -123.723 	 51.1204 	 -32.6495
| 21> H 	 -125.264 	 51.119 	 -33.3524
| 22> H 	 -124.747 	 49.8343 	 -32.3189
| 23> S 	 -117.74 	 52.3559 	 -33.1833
| 24> C 	 -117.948 	 54.0111 	 -33.1744
| 25> C 	 -119.204 	 54.4647 	 -32.7415
| 26> C 	 -120.107 	 53.3421 	 -32.6676
| 27> C 	 -119.498 	 52.1569 	 -33.034
| 28> H 	 -119.342 	 55.5476 	 -32.727
| 29> C 	 -121.549 	 53.5235 	 -32.3397
| 30> H 	 -122.286 	 52.9798 	 -32.9639
| 31> H 	 -121.933 	 54.577 	 -32.5499
| 32> C 	 -121.92 	 53.0814 	 -30.955
| 33> H 	 -121.513 	 52.0575 	 -30.7613
| 34> H 	 -122.975 	 53.0323 	 -30.8363
| 35> C 	 -121.42 	 53.9645 	 -29.7633
| 36> H 	 -121.848 	 53.5903 	 -28.8602
| 37> H 	 -121.764 	 55.0009 	 -29.7935
| 38> H 	 -120.288 	 53.9714 	 -29.7432
| 39> H 	 -120.855 	 47.3589 	 -32.406
| 40> H 	 -117.064 	 54.6836 	 -33.158
| 41> *
| 42>
| 43>                          ****END OF INPUT****

CARTESIAN COORDINATES (ANGSTROEM)
---------------------------------
  S    -119.385000   49.481300  -32.186400
  C    -120.725000   48.421600  -32.590900
  C    -121.702000   49.091100  -33.296800
  C    -121.247000   50.467600  -33.478100
  C    -120.001000   50.810100  -32.980200
  H    -121.753000   51.173400  -34.088900
  C    -122.977000   48.638400  -33.890400
  H    -123.390000   47.986800  -33.094100
  H    -122.826000   47.969200  -34.726300
  C    -124.024000   49.638200  -34.314000
  H    -123.607000   50.121400  -35.218600
  H    -124.888000   49.118800  -34.655300
  C    -124.468000   50.504500  -33.140800
  H    -123.723000   51.120400  -32.649500
  H    -125.264000   51.119000  -33.352400
  H    -124.747000   49.834300  -32.318900
  S    -117.740000   52.355900  -33.183300
  C    -117.948000   54.011100  -33.174400
  C    -119.204000   54.464700  -32.741500
  C    -120.107000   53.342100  -32.667600
  C    -119.498000   52.156900  -33.034000
  H    -119.342000   55.547600  -32.727000
  C    -121.549000   53.523500  -32.339700
  H    -122.286000   52.979800  -32.963900
  H    -121.933000   54.577000  -32.549900
  C    -121.920000   53.081400  -30.955000
  H    -121.513000   52.057500  -30.761300
  H    -122.975000   53.032300  -30.836300
  C    -121.420000   53.964500  -29.763300
  H    -121.848000   53.590300  -28.860200
  H    -121.764000   55.000900  -29.793500
  H    -120.288000   53.971400  -29.743200
  H    -120.855000   47.358900  -32.406000
  H    -117.064000   54.683600  -33.158000

 Total Charge           Charge          ....    0
 Multiplicity           Mult            ....    1
 Number of Electrons    NEL             ....  134
 Basis Dimension        Dim             ....  322

ORBITAL ENERGIES
----------------

  NO   OCC          E(Eh)            E(eV)
   0   2.0000     -88.967484     -2420.9283
   1   2.0000     -88.966344     -2420.8973
   2   2.0000     -10.326275      -280.9922
   3   2.0000     -10.319094      -280.7968
   4   2.0000     -10.316157      -280.7169
   5   2.0000     -10.311614      -280.5933
   6   2.0000     -10.308869      -280.5186
   7   2.0000     -10.300123      -280.2806
   8   2.0000     -10.298612      -280.2395
   9   2.0000     -10.293182      -280.0917
  10   2.0000     -10.290187      -280.0102
  11   2.0000     -10.288642      -279.9682
  12   2.0000     -10.282233      -279.7938
  13   2.0000     -10.281533      -279.7747
  14   2.0000     -10.273773      -279.5636
  15   2.0000     -10.271724      -279.5078
  16   2.0000      -8.083736      -219.9696
  17   2.0000      -8.082096      -219.9250
  18   2.0000      -6.041856      -164.4072
  19   2.0000      -6.040647      -164.3744
  20   2.0000      -6.038237      -164.3088
  21   2.0000      -6.036360      -164.2577
  22   2.0000      -6.034608      -164.2100
  23   2.0000      -6.032825      -164.1615
  24   2.0000      -1.015472       -27.6324
  25   2.0000      -0.991457       -26.9789
  26   2.0000      -0.924195       -25.1486
  27   2.0000      -0.912942       -24.8424
  28   2.0000      -0.873436       -23.7674
  29   2.0000      -0.851632       -23.1741
  30   2.0000      -0.842560       -22.9272
  31   2.0000      -0.809031       -22.0149
  32   2.0000      -0.791764       -21.5450
  33   2.0000      -0.779428       -21.2093
  34   2.0000      -0.715516       -19.4702
  35   2.0000      -0.702451       -19.1147
  36   2.0000      -0.683681       -18.6039
  37   2.0000      -0.661733       -18.0067
  38   2.0000      -0.632494       -17.2110
  39   2.0000      -0.625130       -17.0106
  40   2.0000      -0.601467       -16.3667
  41   2.0000      -0.570180       -15.5154
  42   2.0000      -0.565403       -15.3854
  43   2.0000      -0.549490       -14.9524
  44   2.0000      -0.542096       -14.7512
  45   2.0000      -0.538039       -14.6408
  46   2.0000      -0.517530       -14.0827
  47   2.0000      -0.511482       -13.9181
  48   2.0000      -0.502299       -13.6682
  49   2.0000      -0.492195       -13.3933
  50   2.0000      -0.490006       -13.3337
  51   2.0000      -0.483977       -13.1697
  52   2.0000      -0.475553       -12.9405
  53   2.0000      -0.470463       -12.8020
  54   2.0000      -0.459103       -12.4928
  55   2.0000      -0.450126       -12.2485
  56   2.0000      -0.446429       -12.1479
  57   2.0000      -0.440375       -11.9832
  58   2.0000      -0.434462       -11.8223
  59   2.0000      -0.423073       -11.5124
  60   2.0000      -0.418225       -11.3805
  61   2.0000      -0.412287       -11.2189
  62   2.0000      -0.402599       -10.9553
  63   2.0000      -0.350446        -9.5361
  64   2.0000      -0.333600        -9.0777
  65   2.0000      -0.324565        -8.8319
  66   2.0000      -0.288341        -7.8462
  67   0.0000       0.028773         0.7830
  68   0.0000       0.072811         1.9813
  69   0.0000       0.108452         2.9511
  70   0.0000       0.117837         3.2065
  71   0.0000       0.133344         3.6285

MULLIKEN ATOMIC CHARGES
-----------------------
   0 S :    0.120023
   1 C :   -0.134006
   2 C :   -0.070109
   3 C :   -0.036017
   4 C :   -0.095600
   5 H :    0.001129
   6 C :    0.049894
   7 H :    0.021448
   8 H :    0.040571
   9 C :   -0.048494
  10 H :    0.035711
  11 H :    0.022934
  12 C :   -0.018628
  13 H :    0.024763
  14 H :    0.018323
  15 H :    0.020103
  16 S :    0.119349
  17 C :   -0.098541
  18 C :   -0.050024
  19 C :    0.002547
  20 C :   -0.173004
  21 H :    0.032346
  22 C :    0.050469
  23 H :    0.016498
  24 H :    0.026728
  25 C :   -0.101507
  26 H :    0.048697
  27 H :    0.022661
  28 C :   -0.044794
  29 H :    0.024742
  30 H :    0.019219
  31 H :    0.046071
  32 H :    0.038978
  33 H :    0.067521
Sum of atomic charges:   -0.0000000

LOEWDIN ATOMIC CHARGES
----------------------
   0 S :    0.438156
   1 C :   -0.207644
   2 C :   -0.057943
   3 C :   -0.071768
   4 C :   -0.230822
   5 H :    0.017530
   6 C :   -0.039570
   7 H :    0.034218
   8 H :    0.035983
   9 C :   -0.037548
  10 H :    0.027211
  11 H :    0.027339
  12 C :   -0.060135
  13 H :    0.024868
  14 H :    0.014233
  15 H :    0.032397
  16 S :    0.431178
  17 C :   -0.209090
  18 C :   -0.075221
  19 C :   -0.043635
  20 C :   -0.188851
  21 H :    0.037538
  22 C :   -0.043651
  23 H :    0.032928
  24 H :    0.036175
  25 C :   -0.040337
  26 H :    0.033297
  27 H :    0.016982
  28 C :   -0.068569
  29 H :    0.020893
  30 H :    0.019352
  31 H :    0.031022
  32 H :    0.031038
  33 H :    0.032443

  Mayer bond orders larger than 0.100000
B(  0-S ,  1-C ) :   1.1346 B(  0-S ,  4-C ) :   1.1554 B(  1-C ,  2-C ) :   1.6086
B(  1-C , 32-H ) :   0.9685 B(  2-C ,  3-C ) :   1.2512 B(  2-C ,  6-C ) :   1.0088
B(  3-C ,  4-C ) :   1.5494 B(  3-C ,  5-H ) :   0.9979 B(  4-C , 20-C ) :   1.0588
B(  6-C ,  7-H ) :   0.9303 B(  6-C ,  8-H ) :   0.9288 B(  6-C ,  9-C ) :   1.1061
B(  9-C , 10-H ) :   0.9431 B(  9-C , 11-H ) :   0.9451 B(  9-C , 12-C ) :   1.0740
B( 12-C , 13-H ) :   0.9722 B( 12-C , 14-H ) :   0.9733 B( 12-C , 15-H ) :   0.9641
B( 16-S , 17-C ) :   1.1988 B( 16-S , 20-C ) :   1.1302 B( 17-C , 18-C ) :   1.5974
B( 17-C , 33-H ) :   0.9570 B( 18-C , 19-C ) :   1.2324 B( 18-C , 21-H ) :   0.9926
B( 19-C , 20-C ) :   1.5902 B( 19-C , 22-C ) :   1.0386 B( 22-C , 23-H ) :   0.9355
B( 22-C , 24-H ) :   0.9352 B( 22-C , 25-C ) :   1.0799 B( 25-C , 26-H ) :   0.9529
B( 25-C , 27-H ) :   0.9503 B( 25-C , 28-C ) :   1.0786 B( 28-C , 29-H ) :   0.9745
B( 28-C , 30-H ) :   0.9736 B( 28-C , 31-H ) :   0.9758

Dispersion correction           -0.016320104
FINAL SINGLE POINT ENERGY     -1339.866627427322

DIPOLE MOMENT
-------------
                                X             Y             Z
Electronic contribution:     26.92338      -5.17823      -4.55282
Nuclear contribution   :    -27.59964       5.33133       4.47944
                        -----------------------------------------
Total Dipole Moment    :     -0.67627       0.15310      -0.07337
                        -----------------------------------------
Magnitude (a.u.)       :      0.69725
Magnitude (Debye)      :      1.77227

Rotational constants in cm-1:     0.018866     0.010440     0.008123
Rotational constants in MHz :   565.600929   312.994680   243.515930

                             ****ORCA TERMINATED NORMALLY****
TOTAL RUN TIME: 0 days 0 hours 0 minutes 23 seconds 814 msec
