                         Program Version 4.2.1 -  RELEASE  -
|  1> ! wB97X-D3 SP def2-SVP
|  2> %pal
|  3> nprocs 24
|  4> end
|  5>
|  6> * xyz 0 1
|  7> S 	 -136.113 	 5.97258 	 -14.4113
|  8> C 	 -136.102 	 7.15686 	 -13.1272
|  9> C 	 -135.103 	 8.08128 	 -13.2684
| 10> C 	 -134.538 	 7.9785 	 -14.5964
| 11> C 	 -134.861 	 6.80026 	 -15.3019
| 12> H 	 -133.835 	 8.69533 	 -15.0121
| 13> C 	 -134.684 	 9.20361 	 -12.2633
| 14> H 	 -133.682 	 9.32584 	 -12.4808
| 15> H 	 -134.741 	 8.76917 	 -11.2483
| 16> C 	 -135.597 	 10.407 	 -12.4009
| 17> H 	 -135.21 	 10.7071 	 -13.3957
| 18> H 	 -136.585 	 9.9888 	 -12.4204
| 19> C 	 -135.595 	 11.4745 	 -11.3325
| 20> H 	 -135.959 	 11.2218 	 -10.3512
| 21> H 	 -134.567 	 11.8449 	 -11.2648
| 22> H 	 -136.202 	 12.3157 	 -11.727
| 23> S 	 -133.808 	 7.66321 	 -17.666
| 24> C 	 -133.421 	 6.50711 	 -18.898
| 25> C 	 -133.52 	 5.23735 	 -18.5476
| 26> C 	 -134.12 	 5.178 	 -17.2314
| 27> C 	 -134.441 	 6.4365 	 -16.6464
| 28> H 	 -133.169 	 4.48405 	 -19.1985
| 29> C 	 -134.13 	 3.87209 	 -16.4567
| 30> H 	 -133.914 	 3.13358 	 -17.1543
| 31> H 	 -135.089 	 3.79017 	 -16.0189
| 32> C 	 -133.01 	 3.89418 	 -15.4027
| 33> H 	 -133.043 	 4.7551 	 -14.7627
| 34> H 	 -131.996 	 3.96451 	 -15.856
| 35> C 	 -132.992 	 2.47723 	 -14.7071
| 36> H 	 -132.772 	 1.71968 	 -15.5134
| 37> H 	 -133.917 	 2.25615 	 -14.1512
| 38> H 	 -132.171 	 2.4296 	 -13.9555
| 39> H 	 -136.763 	 7.10361 	 -12.2601
| 40> H 	 -132.842 	 6.66891 	 -19.8157
| 41> *
| 42>
| 43>                          ****END OF INPUT****

CARTESIAN COORDINATES (ANGSTROEM)
---------------------------------
  S    -136.113000    5.972580  -14.411300
  C    -136.102000    7.156860  -13.127200
  C    -135.103000    8.081280  -13.268400
  C    -134.538000    7.978500  -14.596400
  C    -134.861000    6.800260  -15.301900
  H    -133.835000    8.695330  -15.012100
  C    -134.684000    9.203610  -12.263300
  H    -133.682000    9.325840  -12.480800
  H    -134.741000    8.769170  -11.248300
  C    -135.597000   10.407000  -12.400900
  H    -135.210000   10.707100  -13.395700
  H    -136.585000    9.988800  -12.420400
  C    -135.595000   11.474500  -11.332500
  H    -135.959000   11.221800  -10.351200
  H    -134.567000   11.844900  -11.264800
  H    -136.202000   12.315700  -11.727000
  S    -133.808000    7.663210  -17.666000
  C    -133.421000    6.507110  -18.898000
  C    -133.520000    5.237350  -18.547600
  C    -134.120000    5.178000  -17.231400
  C    -134.441000    6.436500  -16.646400
  H    -133.169000    4.484050  -19.198500
  C    -134.130000    3.872090  -16.456700
  H    -133.914000    3.133580  -17.154300
  H    -135.089000    3.790170  -16.018900
  C    -133.010000    3.894180  -15.402700
  H    -133.043000    4.755100  -14.762700
  H    -131.996000    3.964510  -15.856000
  C    -132.992000    2.477230  -14.707100
  H    -132.772000    1.719680  -15.513400
  H    -133.917000    2.256150  -14.151200
  H    -132.171000    2.429600  -13.955500
  H    -136.763000    7.103610  -12.260100
  H    -132.842000    6.668910  -19.815700

 Total Charge           Charge          ....    0
 Multiplicity           Mult            ....    1
 Number of Electrons    NEL             ....  134
 Basis Dimension        Dim             ....  322

ORBITAL ENERGIES
----------------

  NO   OCC          E(Eh)            E(eV)
   0   2.0000     -88.967951     -2420.9410
   1   2.0000     -88.965360     -2420.8705
   2   2.0000     -10.334846      -281.2255
   3   2.0000     -10.325995      -280.9846
   4   2.0000     -10.314315      -280.6668
   5   2.0000     -10.309404      -280.5331
   6   2.0000     -10.304141      -280.3899
   7   2.0000     -10.303839      -280.3817
   8   2.0000     -10.298258      -280.2299
   9   2.0000     -10.290146      -280.0091
  10   2.0000     -10.287053      -279.9250
  11   2.0000     -10.285453      -279.8814
  12   2.0000     -10.283334      -279.8237
  13   2.0000     -10.282741      -279.8076
  14   2.0000     -10.280714      -279.7525
  15   2.0000     -10.278809      -279.7006
  16   2.0000      -8.082375      -219.9326
  17   2.0000      -8.080831      -219.8906
  18   2.0000      -6.041000      -164.3840
  19   2.0000      -6.039445      -164.3417
  20   2.0000      -6.036834      -164.2706
  21   2.0000      -6.035365      -164.2306
  22   2.0000      -6.033148      -164.1703
  23   2.0000      -6.031320      -164.1206
  24   2.0000      -1.010564       -27.4988
  25   2.0000      -0.988071       -26.8868
  26   2.0000      -0.916843       -24.9486
  27   2.0000      -0.906560       -24.6687
  28   2.0000      -0.878756       -23.9122
  29   2.0000      -0.851006       -23.1571
  30   2.0000      -0.837320       -22.7846
  31   2.0000      -0.816708       -22.2238
  32   2.0000      -0.788515       -21.4566
  33   2.0000      -0.764380       -20.7998
  34   2.0000      -0.707512       -19.2524
  35   2.0000      -0.699164       -19.0252
  36   2.0000      -0.691312       -18.8115
  37   2.0000      -0.665413       -18.1068
  38   2.0000      -0.635399       -17.2901
  39   2.0000      -0.618100       -16.8193
  40   2.0000      -0.590587       -16.0707
  41   2.0000      -0.580117       -15.7858
  42   2.0000      -0.571349       -15.5472
  43   2.0000      -0.562963       -15.3190
  44   2.0000      -0.527342       -14.3497
  45   2.0000      -0.518060       -14.0971
  46   2.0000      -0.516597       -14.0573
  47   2.0000      -0.515204       -14.0194
  48   2.0000      -0.506779       -13.7901
  49   2.0000      -0.499739       -13.5986
  50   2.0000      -0.488628       -13.2962
  51   2.0000      -0.483201       -13.1486
  52   2.0000      -0.474027       -12.8989
  53   2.0000      -0.471128       -12.8200
  54   2.0000      -0.463372       -12.6090
  55   2.0000      -0.449029       -12.2187
  56   2.0000      -0.442354       -12.0371
  57   2.0000      -0.436273       -11.8716
  58   2.0000      -0.432790       -11.7768
  59   2.0000      -0.420993       -11.4558
  60   2.0000      -0.416384       -11.3304
  61   2.0000      -0.415816       -11.3149
  62   2.0000      -0.404600       -11.0097
  63   2.0000      -0.362736        -9.8705
  64   2.0000      -0.331863        -9.0304
  65   2.0000      -0.327647        -8.9157
  66   2.0000      -0.281005        -7.6465
  67   0.0000       0.022400         0.6095
  68   0.0000       0.085250         2.3198
  69   0.0000       0.103269         2.8101
  70   0.0000       0.123055         3.3485
  71   0.0000       0.132592         3.6080

MULLIKEN ATOMIC CHARGES
-----------------------
   0 S :    0.109188
   1 C :   -0.130485
   2 C :   -0.115444
   3 C :   -0.024483
   4 C :   -0.138269
   5 H :    0.018435
   6 C :    0.102575
   7 H :    0.009003
   8 H :    0.018624
   9 C :   -0.078914
  10 H :    0.029900
  11 H :    0.026315
  12 C :   -0.011904
  13 H :    0.035802
  14 H :    0.024362
  15 H :    0.040991
  16 S :    0.093419
  17 C :   -0.061578
  18 C :   -0.026636
  19 C :   -0.105851
  20 C :   -0.099701
  21 H :    0.009596
  22 C :    0.135616
  23 H :   -0.005100
  24 H :    0.020919
  25 C :   -0.088910
  26 H :    0.040488
  27 H :    0.024856
  28 C :   -0.069737
  29 H :    0.038789
  30 H :    0.040563
  31 H :    0.035164
  32 H :    0.051566
  33 H :    0.050843
Sum of atomic charges:    0.0000000

LOEWDIN ATOMIC CHARGES
----------------------
   0 S :    0.413849
   1 C :   -0.198295
   2 C :   -0.057140
   3 C :   -0.076523
   4 C :   -0.195700
   5 H :    0.022436
   6 C :   -0.021550
   7 H :    0.016294
   8 H :    0.027720
   9 C :   -0.044511
  10 H :    0.033105
  11 H :    0.023531
  12 C :   -0.065215
  13 H :    0.023776
  14 H :    0.025833
  15 H :    0.035441
  16 S :    0.426042
  17 C :   -0.187356
  18 C :   -0.071404
  19 C :   -0.044930
  20 C :   -0.216875
  21 H :    0.031698
  22 C :   -0.024358
  23 H :    0.019595
  24 H :    0.019996
  25 C :   -0.035468
  26 H :    0.020127
  27 H :    0.027262
  28 C :   -0.071375
  29 H :    0.029683
  30 H :    0.024163
  31 H :    0.025379
  32 H :    0.029298
  33 H :    0.035472

  Mayer bond orders larger than 0.100000
B(  0-S ,  1-C ) :   1.1418 B(  0-S ,  4-C ) :   1.1491 B(  1-C ,  2-C ) :   1.6237
B(  1-C , 32-H ) :   0.9628 B(  2-C ,  3-C ) :   1.2538 B(  2-C ,  6-C ) :   1.0118
B(  3-C ,  4-C ) :   1.5600 B(  3-C ,  5-H ) :   0.9759 B(  4-C , 20-C ) :   1.0834
B(  6-C ,  7-H ) :   0.9402 B(  6-C ,  8-H ) :   0.9379 B(  6-C ,  9-C ) :   1.0487
B(  9-C , 10-H ) :   0.9578 B(  9-C , 11-H ) :   0.9580 B(  9-C , 12-C ) :   1.0868
B( 12-C , 13-H ) :   0.9735 B( 12-C , 14-H ) :   0.9710 B( 12-C , 15-H ) :   0.9708
B( 16-S , 17-C ) :   1.1553 B( 16-S , 20-C ) :   1.1332 B( 17-C , 18-C ) :   1.6493
B( 17-C , 33-H ) :   0.9512 B( 18-C , 19-C ) :   1.2386 B( 18-C , 21-H ) :   0.9991
B( 19-C , 20-C ) :   1.5469 B( 19-C , 22-C ) :   1.0514 B( 22-C , 23-H ) :   0.9292
B( 22-C , 24-H ) :   0.9296 B( 22-C , 25-C ) :   1.0596 B( 25-C , 26-H ) :   0.9607
B( 25-C , 27-H ) :   0.9550 B( 25-C , 28-C ) :   1.0688 B( 28-C , 29-H ) :   0.9753
B( 28-C , 30-H ) :   0.9776 B( 28-C , 31-H ) :   0.9763

Dispersion correction           -0.014242120
FINAL SINGLE POINT ENERGY     -1339.859081463063

DIPOLE MOMENT
-------------
                                X             Y             Z
Electronic contribution:     -4.88184      -0.96206     -16.11856
Nuclear contribution   :      5.25024       0.99556      16.35703
                        -----------------------------------------
Total Dipole Moment    :      0.36840       0.03349       0.23847
                        -----------------------------------------
Magnitude (a.u.)       :      0.44012
Magnitude (Debye)      :      1.11870

Rotational constants in cm-1:     0.021709     0.007771     0.006346
Rotational constants in MHz :   650.812842   232.960545   190.253222

                             ****ORCA TERMINATED NORMALLY****
TOTAL RUN TIME: 0 days 0 hours 0 minutes 21 seconds 357 msec
