                         Program Version 4.2.1 -  RELEASE  -
|  1> ! wB97X-D3 SP def2-SVP
|  2> %pal
|  3> nprocs 24
|  4> end
|  5>
|  6> * xyz 0 1
|  7> S 	 -16.914 	 -28.9811 	 -97.3362
|  8> C 	 -16.0289 	 -28.9766 	 -98.889
|  9> C 	 -16.3136 	 -29.963 	 -99.7555
| 10> C 	 -17.4223 	 -30.6718 	 -99.2242
| 11> C 	 -17.9546 	 -30.1871 	 -98.0503
| 12> H 	 -17.9092 	 -31.5308 	 -99.6173
| 13> C 	 -15.6771 	 -30.2362 	 -101.068
| 14> H 	 -15.2189 	 -31.1586 	 -101.026
| 15> H 	 -14.917 	 -29.4858 	 -101.319
| 16> C 	 -16.5654 	 -30.3138 	 -102.283
| 17> H 	 -15.9894 	 -30.4224 	 -103.179
| 18> H 	 -17.2259 	 -31.1467 	 -102.296
| 19> C 	 -17.3863 	 -29.0985 	 -102.556
| 20> H 	 -17.9271 	 -29.1192 	 -103.459
| 21> H 	 -18.1155 	 -28.9552 	 -101.732
| 22> H 	 -16.7698 	 -28.2689 	 -102.71
| 23> S 	 -19.0796 	 -30.3972 	 -95.5658
| 24> C 	 -20.807 	 -30.8274 	 -95.415
| 25> C 	 -21.3208 	 -31.1671 	 -96.669
| 26> C 	 -20.4166 	 -31.008 	 -97.7474
| 27> C 	 -19.1724 	 -30.5866 	 -97.3013
| 28> H 	 -22.3246 	 -31.3623 	 -96.5207
| 29> C 	 -20.8733 	 -31.1647 	 -99.1582
| 30> H 	 -21.0088 	 -32.2915 	 -99.1986
| 31> H 	 -20.0581 	 -30.9151 	 -99.8503
| 32> C 	 -22.2083 	 -30.4371 	 -99.4913
| 33> H 	 -23.0948 	 -30.5976 	 -98.8559
| 34> H 	 -22.4676 	 -30.6654 	 -100.48
| 35> C 	 -22.2453 	 -28.8724 	 -99.5414
| 36> H 	 -21.8465 	 -28.4796 	 -98.6411
| 37> H 	 -23.1955 	 -28.4322 	 -99.7862
| 38> H 	 -21.6163 	 -28.5867 	 -100.352
| 39> H 	 -15.2462 	 -28.2495 	 -99.1856
| 40> H 	 -21.3382 	 -30.8719 	 -94.4638
| 41> *
| 42>
| 43>                          ****END OF INPUT****

CARTESIAN COORDINATES (ANGSTROEM)
---------------------------------
  S    -16.914000  -28.981100  -97.336200
  C    -16.028900  -28.976600  -98.889000
  C    -16.313600  -29.963000  -99.755500
  C    -17.422300  -30.671800  -99.224200
  C    -17.954600  -30.187100  -98.050300
  H    -17.909200  -31.530800  -99.617300
  C    -15.677100  -30.236200  -101.068000
  H    -15.218900  -31.158600  -101.026000
  H    -14.917000  -29.485800  -101.319000
  C    -16.565400  -30.313800  -102.283000
  H    -15.989400  -30.422400  -103.179000
  H    -17.225900  -31.146700  -102.296000
  C    -17.386300  -29.098500  -102.556000
  H    -17.927100  -29.119200  -103.459000
  H    -18.115500  -28.955200  -101.732000
  H    -16.769800  -28.268900  -102.710000
  S    -19.079600  -30.397200  -95.565800
  C    -20.807000  -30.827400  -95.415000
  C    -21.320800  -31.167100  -96.669000
  C    -20.416600  -31.008000  -97.747400
  C    -19.172400  -30.586600  -97.301300
  H    -22.324600  -31.362300  -96.520700
  C    -20.873300  -31.164700  -99.158200
  H    -21.008800  -32.291500  -99.198600
  H    -20.058100  -30.915100  -99.850300
  C    -22.208300  -30.437100  -99.491300
  H    -23.094800  -30.597600  -98.855900
  H    -22.467600  -30.665400  -100.480000
  C    -22.245300  -28.872400  -99.541400
  H    -21.846500  -28.479600  -98.641100
  H    -23.195500  -28.432200  -99.786200
  H    -21.616300  -28.586700  -100.352000
  H    -15.246200  -28.249500  -99.185600
  H    -21.338200  -30.871900  -94.463800

 Total Charge           Charge          ....    0
 Multiplicity           Mult            ....    1
 Number of Electrons    NEL             ....  134
 Basis Dimension        Dim             ....  322

ORBITAL ENERGIES
----------------

  NO   OCC          E(Eh)            E(eV)
   0   2.0000     -88.965885     -2420.8848
   1   2.0000     -88.964345     -2420.8429
   2   2.0000     -10.329522      -281.0806
   3   2.0000     -10.329043      -281.0676
   4   2.0000     -10.321415      -280.8600
   5   2.0000     -10.311718      -280.5961
   6   2.0000     -10.305364      -280.4232
   7   2.0000     -10.302470      -280.3445
   8   2.0000     -10.296715      -280.1879
   9   2.0000     -10.291109      -280.0353
  10   2.0000     -10.289464      -279.9905
  11   2.0000     -10.288139      -279.9545
  12   2.0000     -10.286189      -279.9014
  13   2.0000     -10.277002      -279.6515
  14   2.0000     -10.266669      -279.3703
  15   2.0000     -10.263827      -279.2929
  16   2.0000      -8.080373      -219.8781
  17   2.0000      -8.078769      -219.8345
  18   2.0000      -6.038947      -164.3281
  19   2.0000      -6.037266      -164.2824
  20   2.0000      -6.035291      -164.2286
  21   2.0000      -6.033431      -164.1780
  22   2.0000      -6.030687      -164.1033
  23   2.0000      -6.029474      -164.0703
  24   2.0000      -1.008163       -27.4335
  25   2.0000      -0.985099       -26.8059
  26   2.0000      -0.925163       -25.1750
  27   2.0000      -0.906504       -24.6672
  28   2.0000      -0.873651       -23.7732
  29   2.0000      -0.852821       -23.2064
  30   2.0000      -0.845256       -23.0006
  31   2.0000      -0.819183       -22.2911
  32   2.0000      -0.793323       -21.5874
  33   2.0000      -0.777863       -21.1667
  34   2.0000      -0.711750       -19.3677
  35   2.0000      -0.699653       -19.0385
  36   2.0000      -0.694687       -18.9034
  37   2.0000      -0.660579       -17.9753
  38   2.0000      -0.639867       -17.4117
  39   2.0000      -0.625532       -17.0216
  40   2.0000      -0.597220       -16.2512
  41   2.0000      -0.573439       -15.6041
  42   2.0000      -0.567125       -15.4322
  43   2.0000      -0.553299       -15.0560
  44   2.0000      -0.551099       -14.9962
  45   2.0000      -0.539336       -14.6761
  46   2.0000      -0.529299       -14.4030
  47   2.0000      -0.512346       -13.9416
  48   2.0000      -0.497904       -13.5487
  49   2.0000      -0.491694       -13.3797
  50   2.0000      -0.486934       -13.2501
  51   2.0000      -0.476989       -12.9795
  52   2.0000      -0.472819       -12.8661
  53   2.0000      -0.466850       -12.7036
  54   2.0000      -0.459766       -12.5109
  55   2.0000      -0.452890       -12.3238
  56   2.0000      -0.445027       -12.1098
  57   2.0000      -0.442956       -12.0534
  58   2.0000      -0.433668       -11.8007
  59   2.0000      -0.425868       -11.5885
  60   2.0000      -0.420975       -11.4553
  61   2.0000      -0.417936       -11.3726
  62   2.0000      -0.406014       -11.0482
  63   2.0000      -0.354053        -9.6343
  64   2.0000      -0.334685        -9.1073
  65   2.0000      -0.329847        -8.9756
  66   2.0000      -0.284168        -7.7326
  67   0.0000       0.024678         0.6715
  68   0.0000       0.075872         2.0646
  69   0.0000       0.094927         2.5831
  70   0.0000       0.121588         3.3086
  71   0.0000       0.131993         3.5917

MULLIKEN ATOMIC CHARGES
-----------------------
   0 S :    0.100977
   1 C :   -0.131606
   2 C :   -0.066690
   3 C :   -0.000616
   4 C :   -0.128454
   5 H :   -0.004846
   6 C :    0.155966
   7 H :    0.018376
   8 H :    0.015414
   9 C :   -0.082640
  10 H :    0.016604
  11 H :    0.014425
  12 C :   -0.023257
  13 H :    0.014549
  14 H :    0.042545
  15 H :    0.005298
  16 S :    0.080342
  17 C :   -0.122099
  18 C :   -0.019256
  19 C :   -0.036655
  20 C :   -0.127287
  21 H :   -0.004409
  22 C :    0.086480
  23 H :    0.053317
  24 H :    0.021064
  25 C :   -0.079566
  26 H :    0.037677
  27 H :    0.014582
  28 C :   -0.034642
  29 H :    0.035133
  30 H :    0.029746
  31 H :    0.012374
  32 H :    0.041532
  33 H :    0.065622
Sum of atomic charges:   -0.0000000

LOEWDIN ATOMIC CHARGES
----------------------
   0 S :    0.380364
   1 C :   -0.180013
   2 C :   -0.064348
   3 C :   -0.066625
   4 C :   -0.179658
   5 H :    0.021924
   6 C :   -0.019333
   7 H :    0.029731
   8 H :    0.034780
   9 C :   -0.039911
  10 H :    0.025014
  11 H :    0.016048
  12 C :   -0.059068
  13 H :    0.020573
  14 H :    0.029032
  15 H :    0.015694
  16 S :    0.378146
  17 C :   -0.170691
  18 C :   -0.062823
  19 C :   -0.063991
  20 C :   -0.193056
  21 H :    0.023793
  22 C :   -0.031083
  23 H :    0.049356
  24 H :    0.031143
  25 C :   -0.038453
  26 H :    0.027727
  27 H :    0.016962
  28 C :   -0.056357
  29 H :    0.020328
  30 H :    0.025059
  31 H :    0.017783
  32 H :    0.030342
  33 H :    0.031610

  Mayer bond orders larger than 0.100000
B(  0-S ,  1-C ) :   1.1121 B(  0-S ,  4-C ) :   1.1301 B(  1-C ,  2-C ) :   1.6789
B(  1-C , 32-H ) :   0.9514 B(  2-C ,  3-C ) :   1.1794 B(  2-C ,  6-C ) :   1.0311
B(  3-C ,  4-C ) :   1.6135 B(  3-C ,  5-H ) :   0.9986 B(  4-C , 20-C ) :   1.0391
B(  6-C ,  7-H ) :   0.9183 B(  6-C ,  8-H ) :   0.9357 B(  6-C ,  9-C ) :   1.0835
B(  9-C , 10-H ) :   0.9501 B(  9-C , 11-H ) :   0.9506 B(  9-C , 12-C ) :   1.0920
B( 12-C , 13-H ) :   0.9694 B( 12-C , 14-H ) :   0.9704 B( 12-C , 15-H ) :   0.9709
B( 16-S , 17-C ) :   1.1341 B( 16-S , 20-C ) :   1.1387 B( 17-C , 18-C ) :   1.6332
B( 17-C , 33-H ) :   0.9676 B( 18-C , 19-C ) :   1.1888 B( 18-C , 21-H ) :   1.0057
B( 19-C , 20-C ) :   1.5976 B( 19-C , 22-C ) :   1.0432 B( 22-C , 23-H ) :   0.9249
B( 22-C , 24-H ) :   0.9305 B( 22-C , 25-C ) :   1.0623 B( 25-C , 26-H ) :   0.9625
B( 25-C , 27-H ) :   0.9574 B( 25-C , 28-C ) :   1.0685 B( 28-C , 29-H ) :   0.9786
B( 28-C , 30-H ) :   0.9754 B( 28-C , 31-H ) :   0.9759

Dispersion correction           -0.014780560
FINAL SINGLE POINT ENERGY     -1339.854392906989

DIPOLE MOMENT
-------------
                                X             Y             Z
Electronic contribution:      9.09837      -1.19927      27.52305
Nuclear contribution   :     -9.39532       1.00649     -28.19775
                        -----------------------------------------
Total Dipole Moment    :     -0.29695      -0.19279      -0.67470
                        -----------------------------------------
Magnitude (a.u.)       :      0.76195
Magnitude (Debye)      :      1.93672

Rotational constants in cm-1:     0.018537     0.009913     0.007230
Rotational constants in MHz :   555.716330   297.190299   216.763352

                             ****ORCA TERMINATED NORMALLY****
TOTAL RUN TIME: 0 days 0 hours 0 minutes 22 seconds 512 msec
