                         Program Version 4.2.1 -  RELEASE  -
|  1> ! wB97X-D3 SP def2-SVP
|  2> %pal
|  3> nprocs 24
|  4> end
|  5>
|  6> * xyz 0 1
|  7> S 	 -48.4713 	 -2.80418 	 19.6503
|  8> C 	 -50.0561 	 -2.81205 	 19.016
|  9> C 	 -50.2409 	 -4.06476 	 18.3716
| 10> C 	 -49.0997 	 -4.91175 	 18.4598
| 11> C 	 -48.0372 	 -4.38225 	 19.1826
| 12> H 	 -49.0197 	 -5.88769 	 17.8926
| 13> C 	 -51.4801 	 -4.67669 	 17.6797
| 14> H 	 -52.4351 	 -4.25227 	 17.9516
| 15> H 	 -51.4723 	 -5.67404 	 17.9905
| 16> C 	 -51.5275 	 -4.43544 	 16.1835
| 17> H 	 -51.5247 	 -3.36654 	 15.9518
| 18> H 	 -50.5406 	 -4.69994 	 15.7732
| 19> C 	 -52.5853 	 -5.1909 	 15.4113
| 20> H 	 -52.3947 	 -6.16127 	 15.5098
| 21> H 	 -53.6369 	 -4.97676 	 15.6949
| 22> H 	 -52.5708 	 -4.91823 	 14.346
| 23> S 	 -45.6618 	 -5.57802 	 18.1714
| 24> C 	 -44.5205 	 -6.03224 	 19.4295
| 25> C 	 -44.8335 	 -5.66794 	 20.7195
| 26> C 	 -46.1166 	 -5.13734 	 20.7695
| 27> C 	 -46.7406 	 -5.00045 	 19.5197
| 28> H 	 -44.1168 	 -5.9244 	 21.5566
| 29> C 	 -46.7104 	 -4.84271 	 22.1099
| 30> H 	 -47.7418 	 -4.55792 	 21.8441
| 31> H 	 -46.2014 	 -3.93591 	 22.5236
| 32> C 	 -46.5629 	 -6.00709 	 23.0902
| 33> H 	 -45.4907 	 -6.27534 	 23.1913
| 34> H 	 -47.0736 	 -6.90677 	 22.7463
| 35> C 	 -47.1165 	 -5.71737 	 24.4873
| 36> H 	 -46.8457 	 -6.53854 	 25.2419
| 37> H 	 -48.2451 	 -5.81094 	 24.4693
| 38> H 	 -46.6762 	 -4.75702 	 24.9419
| 39> H 	 -50.8856 	 -2.08442 	 19.0763
| 40> H 	 -43.547 	 -6.38266 	 19.0941
| 41> *
| 42>
| 43>                          ****END OF INPUT****

CARTESIAN COORDINATES (ANGSTROEM)
---------------------------------
  S    -48.471300   -2.804180   19.650300
  C    -50.056100   -2.812050   19.016000
  C    -50.240900   -4.064760   18.371600
  C    -49.099700   -4.911750   18.459800
  C    -48.037200   -4.382250   19.182600
  H    -49.019700   -5.887690   17.892600
  C    -51.480100   -4.676690   17.679700
  H    -52.435100   -4.252270   17.951600
  H    -51.472300   -5.674040   17.990500
  C    -51.527500   -4.435440   16.183500
  H    -51.524700   -3.366540   15.951800
  H    -50.540600   -4.699940   15.773200
  C    -52.585300   -5.190900   15.411300
  H    -52.394700   -6.161270   15.509800
  H    -53.636900   -4.976760   15.694900
  H    -52.570800   -4.918230   14.346000
  S    -45.661800   -5.578020   18.171400
  C    -44.520500   -6.032240   19.429500
  C    -44.833500   -5.667940   20.719500
  C    -46.116600   -5.137340   20.769500
  C    -46.740600   -5.000450   19.519700
  H    -44.116800   -5.924400   21.556600
  C    -46.710400   -4.842710   22.109900
  H    -47.741800   -4.557920   21.844100
  H    -46.201400   -3.935910   22.523600
  C    -46.562900   -6.007090   23.090200
  H    -45.490700   -6.275340   23.191300
  H    -47.073600   -6.906770   22.746300
  C    -47.116500   -5.717370   24.487300
  H    -46.845700   -6.538540   25.241900
  H    -48.245100   -5.810940   24.469300
  H    -46.676200   -4.757020   24.941900
  H    -50.885600   -2.084420   19.076300
  H    -43.547000   -6.382660   19.094100

 Total Charge           Charge          ....    0
 Multiplicity           Mult            ....    1
 Number of Electrons    NEL             ....  134
 Basis Dimension        Dim             ....  322

ORBITAL ENERGIES
----------------

  NO   OCC          E(Eh)            E(eV)
   0   2.0000     -88.969399     -2420.9804
   1   2.0000     -88.968232     -2420.9487
   2   2.0000     -10.333273      -281.1826
   3   2.0000     -10.327779      -281.0332
   4   2.0000     -10.319961      -280.8204
   5   2.0000     -10.318059      -280.7687
   6   2.0000     -10.302873      -280.3554
   7   2.0000     -10.302390      -280.3423
   8   2.0000     -10.295844      -280.1642
   9   2.0000     -10.294358      -280.1237
  10   2.0000     -10.292529      -280.0740
  11   2.0000     -10.291667      -280.0505
  12   2.0000     -10.289379      -279.9882
  13   2.0000     -10.285073      -279.8711
  14   2.0000     -10.281237      -279.7667
  15   2.0000     -10.269874      -279.4575
  16   2.0000      -8.083655      -219.9674
  17   2.0000      -8.083062      -219.9513
  18   2.0000      -6.042056      -164.4127
  19   2.0000      -6.041390      -164.3946
  20   2.0000      -6.038012      -164.3027
  21   2.0000      -6.037680      -164.2936
  22   2.0000      -6.034829      -164.2161
  23   2.0000      -6.033787      -164.1877
  24   2.0000      -1.008556       -27.4442
  25   2.0000      -0.986425       -26.8420
  26   2.0000      -0.913900       -24.8685
  27   2.0000      -0.909823       -24.7576
  28   2.0000      -0.866737       -23.5851
  29   2.0000      -0.852841       -23.2070
  30   2.0000      -0.847964       -23.0743
  31   2.0000      -0.810738       -22.0613
  32   2.0000      -0.784508       -21.3476
  33   2.0000      -0.768282       -20.9060
  34   2.0000      -0.701192       -19.0804
  35   2.0000      -0.698153       -18.9977
  36   2.0000      -0.693330       -18.8665
  37   2.0000      -0.658087       -17.9075
  38   2.0000      -0.634487       -17.2653
  39   2.0000      -0.618879       -16.8405
  40   2.0000      -0.596719       -16.2375
  41   2.0000      -0.569752       -15.5037
  42   2.0000      -0.566062       -15.4033
  43   2.0000      -0.562649       -15.3105
  44   2.0000      -0.528377       -14.3779
  45   2.0000      -0.526006       -14.3133
  46   2.0000      -0.515056       -14.0154
  47   2.0000      -0.510247       -13.8845
  48   2.0000      -0.503510       -13.7012
  49   2.0000      -0.497010       -13.5243
  50   2.0000      -0.489158       -13.3107
  51   2.0000      -0.478544       -13.0218
  52   2.0000      -0.467921       -12.7328
  53   2.0000      -0.463589       -12.6149
  54   2.0000      -0.457930       -12.4609
  55   2.0000      -0.451976       -12.2989
  56   2.0000      -0.443453       -12.0670
  57   2.0000      -0.440622       -11.9899
  58   2.0000      -0.429538       -11.6883
  59   2.0000      -0.425376       -11.5751
  60   2.0000      -0.417396       -11.3579
  61   2.0000      -0.414952       -11.2914
  62   2.0000      -0.403880       -10.9901
  63   2.0000      -0.342311        -9.3147
  64   2.0000      -0.337430        -9.1819
  65   2.0000      -0.327019        -8.8987
  66   2.0000      -0.293252        -7.9798
  67   0.0000       0.029401         0.8000
  68   0.0000       0.068586         1.8663
  69   0.0000       0.099183         2.6989
  70   0.0000       0.123096         3.3496
  71   0.0000       0.135655         3.6913

MULLIKEN ATOMIC CHARGES
-----------------------
   0 S :    0.134603
   1 C :   -0.120601
   2 C :   -0.124562
   3 C :   -0.002091
   4 C :   -0.169979
   5 H :    0.035879
   6 C :    0.097972
   7 H :    0.007422
   8 H :    0.014802
   9 C :   -0.087765
  10 H :    0.020854
  11 H :    0.010351
  12 C :    0.008142
  13 H :    0.005411
  14 H :    0.026239
  15 H :    0.032943
  16 S :    0.103949
  17 C :   -0.096483
  18 C :   -0.055037
  19 C :   -0.036507
  20 C :   -0.148685
  21 H :    0.053629
  22 C :    0.096340
  23 H :    0.026161
  24 H :    0.040440
  25 C :   -0.091495
  26 H :    0.030701
  27 H :    0.035316
  28 C :   -0.096784
  29 H :    0.038909
  30 H :    0.047884
  31 H :    0.047127
  32 H :    0.060200
  33 H :    0.054713
Sum of atomic charges:   -0.0000000

LOEWDIN ATOMIC CHARGES
----------------------
   0 S :    0.462588
   1 C :   -0.229433
   2 C :   -0.062029
   3 C :   -0.078288
   4 C :   -0.221214
   5 H :    0.040153
   6 C :   -0.026218
   7 H :    0.026468
   8 H :    0.022484
   9 C :   -0.043850
  10 H :    0.023588
  11 H :    0.020232
  12 C :   -0.055239
  13 H :    0.006366
  14 H :    0.026824
  15 H :    0.033347
  16 S :    0.376789
  17 C :   -0.167198
  18 C :   -0.079673
  19 C :   -0.052751
  20 C :   -0.186654
  21 H :    0.048710
  22 C :   -0.035049
  23 H :    0.027166
  24 H :    0.039267
  25 C :   -0.046262
  26 H :    0.023917
  27 H :    0.029040
  28 C :   -0.082598
  29 H :    0.031555
  30 H :    0.032247
  31 H :    0.031743
  32 H :    0.041591
  33 H :    0.022380

  Mayer bond orders larger than 0.100000
B(  0-S ,  1-C ) :   1.1670 B(  0-S ,  4-C ) :   1.1827 B(  1-C ,  2-C ) :   1.5477
B(  1-C ,  4-C ) :   0.1042 B(  1-C , 32-H ) :   0.9697 B(  2-C ,  3-C ) :   1.3076
B(  2-C ,  6-C ) :   1.0207 B(  3-C ,  4-C ) :   1.5149 B(  3-C ,  5-H ) :   0.9831
B(  4-C , 20-C ) :   1.0280 B(  6-C ,  7-H ) :   0.9420 B(  6-C ,  8-H ) :   0.9454
B(  6-C ,  9-C ) :   1.0567 B(  9-C , 10-H ) :   0.9544 B(  9-C , 11-H ) :   0.9525
B(  9-C , 12-C ) :   1.0840 B( 12-C , 13-H ) :   0.9735 B( 12-C , 14-H ) :   0.9727
B( 12-C , 15-H ) :   0.9702 B( 16-S , 17-C ) :   1.1638 B( 16-S , 20-C ) :   1.1195
B( 17-C , 18-C ) :   1.6202 B( 17-C , 20-C ) :   0.1024 B( 17-C , 33-H ) :   0.9610
B( 18-C , 19-C ) :   1.2320 B( 18-C , 21-H ) :   0.9774 B( 19-C , 20-C ) :   1.5965
B( 19-C , 22-C ) :   1.0439 B( 22-C , 23-H ) :   0.9265 B( 22-C , 24-H ) :   0.9251
B( 22-C , 25-C ) :   1.0630 B( 25-C , 26-H ) :   0.9497 B( 25-C , 27-H ) :   0.9539
B( 25-C , 28-C ) :   1.0904 B( 28-C , 29-H ) :   0.9731 B( 28-C , 30-H ) :   0.9743
B( 28-C , 31-H ) :   0.9713

Dispersion correction           -0.013517144
FINAL SINGLE POINT ENERGY     -1339.865683326786

DIPOLE MOMENT
-------------
                                X             Y             Z
Electronic contribution:     15.32799       6.89290      -5.43126
Nuclear contribution   :    -15.43949      -7.14503       5.59291
                        -----------------------------------------
Total Dipole Moment    :     -0.11149      -0.25212       0.16166
                        -----------------------------------------
Magnitude (a.u.)       :      0.31958
Magnitude (Debye)      :      0.81230

Rotational constants in cm-1:     0.020733     0.007131     0.006109
Rotational constants in MHz :   621.565650   213.772111   183.141030

                             ****ORCA TERMINATED NORMALLY****
TOTAL RUN TIME: 0 days 0 hours 0 minutes 20 seconds 823 msec
