                         Program Version 4.2.1 -  RELEASE  -
|  1> ! wB97X-D3 SP def2-SVP
|  2> %pal
|  3> nprocs 24
|  4> end
|  5>
|  6> * xyz 0 1
|  7> S 	 -125.809 	 68.8366 	 -53.3307
|  8> C 	 -124.891 	 68.3029 	 -54.7398
|  9> C 	 -124.082 	 69.3133 	 -55.18
| 10> C 	 -124.197 	 70.5466 	 -54.4426
| 11> C 	 -125.047 	 70.4279 	 -53.3535
| 12> H 	 -123.639 	 71.4614 	 -54.584
| 13> C 	 -123.121 	 69.1455 	 -56.3086
| 14> H 	 -122.504 	 68.2915 	 -56.0733
| 15> H 	 -122.301 	 69.9619 	 -56.4005
| 16> C 	 -123.746 	 68.9891 	 -57.7374
| 17> H 	 -124.439 	 69.8212 	 -57.9786
| 18> H 	 -122.832 	 69.1525 	 -58.3398
| 19> C 	 -124.291 	 67.677 	 -58.2669
| 20> H 	 -123.555 	 66.8839 	 -58.0796
| 21> H 	 -125.153 	 67.3547 	 -57.7268
| 22> H 	 -124.578 	 67.6222 	 -59.3034
| 23> S 	 -126.745 	 72.2506 	 -52.2991
| 24> C 	 -126.129 	 73.3234 	 -51.0869
| 25> C 	 -124.873 	 73.0727 	 -50.6866
| 26> C 	 -124.283 	 72.0561 	 -51.4225
| 27> C 	 -125.201 	 71.4614 	 -52.3134
| 28> H 	 -124.443 	 73.5756 	 -49.9303
| 29> C 	 -122.888 	 71.6359 	 -51.0989
| 30> H 	 -122.746 	 70.7421 	 -51.6226
| 31> H 	 -122.914 	 71.3822 	 -50.0883
| 32> C 	 -121.722 	 72.5738 	 -51.4688
| 33> H 	 -121.861 	 73.4005 	 -50.7742
| 34> H 	 -121.719 	 72.928 	 -52.5005
| 35> C 	 -120.357 	 71.8481 	 -51.3131
| 36> H 	 -119.611 	 72.6643 	 -51.3263
| 37> H 	 -120.196 	 71.2472 	 -52.1862
| 38> H 	 -120.276 	 71.2762 	 -50.3657
| 39> H 	 -125.061 	 67.376 	 -55.256
| 40> H 	 -126.775 	 73.9922 	 -50.6431
| 41> *
| 42>
| 43>                          ****END OF INPUT****

CARTESIAN COORDINATES (ANGSTROEM)
---------------------------------
  S    -125.809000   68.836600  -53.330700
  C    -124.891000   68.302900  -54.739800
  C    -124.082000   69.313300  -55.180000
  C    -124.197000   70.546600  -54.442600
  C    -125.047000   70.427900  -53.353500
  H    -123.639000   71.461400  -54.584000
  C    -123.121000   69.145500  -56.308600
  H    -122.504000   68.291500  -56.073300
  H    -122.301000   69.961900  -56.400500
  C    -123.746000   68.989100  -57.737400
  H    -124.439000   69.821200  -57.978600
  H    -122.832000   69.152500  -58.339800
  C    -124.291000   67.677000  -58.266900
  H    -123.555000   66.883900  -58.079600
  H    -125.153000   67.354700  -57.726800
  H    -124.578000   67.622200  -59.303400
  S    -126.745000   72.250600  -52.299100
  C    -126.129000   73.323400  -51.086900
  C    -124.873000   73.072700  -50.686600
  C    -124.283000   72.056100  -51.422500
  C    -125.201000   71.461400  -52.313400
  H    -124.443000   73.575600  -49.930300
  C    -122.888000   71.635900  -51.098900
  H    -122.746000   70.742100  -51.622600
  H    -122.914000   71.382200  -50.088300
  C    -121.722000   72.573800  -51.468800
  H    -121.861000   73.400500  -50.774200
  H    -121.719000   72.928000  -52.500500
  C    -120.357000   71.848100  -51.313100
  H    -119.611000   72.664300  -51.326300
  H    -120.196000   71.247200  -52.186200
  H    -120.276000   71.276200  -50.365700
  H    -125.061000   67.376000  -55.256000
  H    -126.775000   73.992200  -50.643100

 Total Charge           Charge          ....    0
 Multiplicity           Mult            ....    1
 Number of Electrons    NEL             ....  134
 Basis Dimension        Dim             ....  322

ORBITAL ENERGIES
----------------

  NO   OCC          E(Eh)            E(eV)
   0   2.0000     -88.963486     -2420.8195
   1   2.0000     -88.963371     -2420.8164
   2   2.0000     -10.327975      -281.0385
   3   2.0000     -10.323449      -280.9153
   4   2.0000     -10.310933      -280.5748
   5   2.0000     -10.304064      -280.3878
   6   2.0000     -10.298416      -280.2341
   7   2.0000     -10.297920      -280.2206
   8   2.0000     -10.297503      -280.2093
   9   2.0000     -10.292544      -280.0744
  10   2.0000     -10.289953      -280.0039
  11   2.0000     -10.288372      -279.9608
  12   2.0000     -10.281991      -279.7872
  13   2.0000     -10.276146      -279.6281
  14   2.0000     -10.275967      -279.6233
  15   2.0000     -10.275400      -279.6078
  16   2.0000      -8.079144      -219.8447
  17   2.0000      -8.077764      -219.8071
  18   2.0000      -6.037325      -164.2840
  19   2.0000      -6.036369      -164.2579
  20   2.0000      -6.033636      -164.1836
  21   2.0000      -6.032282      -164.1467
  22   2.0000      -6.030070      -164.0866
  23   2.0000      -6.028507      -164.0440
  24   2.0000      -1.008070       -27.4310
  25   2.0000      -0.984987       -26.8028
  26   2.0000      -0.912687       -24.8355
  27   2.0000      -0.906687       -24.6722
  28   2.0000      -0.870275       -23.6814
  29   2.0000      -0.855117       -23.2689
  30   2.0000      -0.846882       -23.0448
  31   2.0000      -0.816915       -22.2294
  32   2.0000      -0.784769       -21.3546
  33   2.0000      -0.772986       -21.0340
  34   2.0000      -0.705384       -19.1945
  35   2.0000      -0.698097       -18.9962
  36   2.0000      -0.695759       -18.9326
  37   2.0000      -0.669157       -18.2087
  38   2.0000      -0.641667       -17.4606
  39   2.0000      -0.615441       -16.7470
  40   2.0000      -0.602463       -16.3938
  41   2.0000      -0.577856       -15.7243
  42   2.0000      -0.570172       -15.5152
  43   2.0000      -0.539648       -14.6846
  44   2.0000      -0.534919       -14.5559
  45   2.0000      -0.527538       -14.3551
  46   2.0000      -0.522271       -14.2117
  47   2.0000      -0.514535       -14.0012
  48   2.0000      -0.508812       -13.8455
  49   2.0000      -0.496961       -13.5230
  50   2.0000      -0.491027       -13.3615
  51   2.0000      -0.487063       -13.2537
  52   2.0000      -0.474708       -12.9175
  53   2.0000      -0.466948       -12.7063
  54   2.0000      -0.455372       -12.3913
  55   2.0000      -0.451671       -12.2906
  56   2.0000      -0.444370       -12.0919
  57   2.0000      -0.439109       -11.9488
  58   2.0000      -0.432927       -11.7805
  59   2.0000      -0.424710       -11.5569
  60   2.0000      -0.421382       -11.4664
  61   2.0000      -0.415263       -11.2999
  62   2.0000      -0.404893       -11.0177
  63   2.0000      -0.342309        -9.3147
  64   2.0000      -0.328072        -8.9273
  65   2.0000      -0.323424        -8.8008
  66   2.0000      -0.300232        -8.1697
  67   0.0000       0.039448         1.0734
  68   0.0000       0.064872         1.7653
  69   0.0000       0.117112         3.1868
  70   0.0000       0.118491         3.2243
  71   0.0000       0.133450         3.6313

MULLIKEN ATOMIC CHARGES
-----------------------
   0 S :    0.104037
   1 C :   -0.123996
   2 C :   -0.049041
   3 C :    0.043948
   4 C :   -0.158812
   5 H :    0.011976
   6 C :    0.015026
   7 H :    0.028476
   8 H :    0.036994
   9 C :   -0.086522
  10 H :    0.039798
  11 H :    0.026622
  12 C :   -0.026013
  13 H :    0.018958
  14 H :    0.016108
  15 H :    0.037759
  16 S :    0.113546
  17 C :   -0.048559
  18 C :    0.017442
  19 C :   -0.023466
  20 C :   -0.197702
  21 H :   -0.034104
  22 C :    0.115658
  23 H :   -0.004001
  24 H :    0.017197
  25 C :   -0.080792
  26 H :    0.025160
  27 H :    0.032414
  28 C :   -0.053066
  29 H :    0.035421
  30 H :    0.038992
  31 H :    0.041683
  32 H :    0.047488
  33 H :    0.021370
Sum of atomic charges:    0.0000000

LOEWDIN ATOMIC CHARGES
----------------------
   0 S :    0.390420
   1 C :   -0.192285
   2 C :   -0.067889
   3 C :   -0.060317
   4 C :   -0.196209
   5 H :    0.032419
   6 C :   -0.040062
   7 H :    0.030919
   8 H :    0.041197
   9 C :   -0.045266
  10 H :    0.028027
  11 H :    0.027568
  12 C :   -0.068807
  13 H :    0.025326
  14 H :    0.015794
  15 H :    0.029773
  16 S :    0.424834
  17 C :   -0.164556
  18 C :   -0.058374
  19 C :   -0.045542
  20 C :   -0.209738
  21 H :    0.014509
  22 C :   -0.027557
  23 H :    0.021658
  24 H :    0.027897
  25 C :   -0.033067
  26 H :    0.018638
  27 H :    0.026427
  28 C :   -0.062405
  29 H :    0.029410
  30 H :    0.023867
  31 H :    0.028055
  32 H :    0.027014
  33 H :    0.008320

  Mayer bond orders larger than 0.100000
B(  0-S ,  1-C ) :   1.1229 B(  0-S ,  4-C ) :   1.1555 B(  1-C ,  2-C ) :   1.6184
B(  1-C , 32-H ) :   0.9719 B(  2-C ,  3-C ) :   1.2246 B(  2-C ,  6-C ) :   1.0160
B(  3-C ,  4-C ) :   1.5783 B(  3-C ,  5-H ) :   1.0013 B(  4-C , 20-C ) :   1.0007
B(  6-C ,  7-H ) :   0.9380 B(  6-C ,  8-H ) :   0.9516 B(  6-C ,  9-C ) :   1.0627
B(  9-C , 10-H ) :   0.9576 B(  9-C , 11-H ) :   0.9564 B(  9-C , 12-C ) :   1.0830
B( 12-C , 13-H ) :   0.9716 B( 12-C , 14-H ) :   0.9717 B( 12-C , 15-H ) :   0.9703
B( 16-S , 17-C ) :   1.1685 B( 16-S , 20-C ) :   1.1678 B( 17-C , 18-C ) :   1.5893
B( 17-C , 20-C ) :   0.1006 B( 17-C , 33-H ) :   0.9745 B( 18-C , 19-C ) :   1.2455
B( 18-C , 21-H ) :   1.0169 B( 19-C , 20-C ) :   1.5802 B( 19-C , 22-C ) :   1.0441
B( 22-C , 23-H ) :   0.9232 B( 22-C , 24-H ) :   0.9292 B( 22-C , 25-C ) :   1.0603
B( 25-C , 26-H ) :   0.9583 B( 25-C , 27-H ) :   0.9570 B( 25-C , 28-C ) :   1.0810
B( 28-C , 29-H ) :   0.9753 B( 28-C , 30-H ) :   0.9775 B( 28-C , 31-H ) :   0.9748

Dispersion correction           -0.014039588
FINAL SINGLE POINT ENERGY     -1339.868001691392

DIPOLE MOMENT
-------------
                                X             Y             Z
Electronic contribution:    -23.51829       2.93893      11.42443
Nuclear contribution   :     24.14072      -2.79735     -11.51398
                        -----------------------------------------
Total Dipole Moment    :      0.62243       0.14158      -0.08955
                        -----------------------------------------
Magnitude (a.u.)       :      0.64458
Magnitude (Debye)      :      1.63838

Rotational constants in cm-1:     0.018916     0.008049     0.006349
Rotational constants in MHz :   567.074298   241.314622   190.331011

                             ****ORCA TERMINATED NORMALLY****
TOTAL RUN TIME: 0 days 0 hours 0 minutes 21 seconds 277 msec
