                         Program Version 4.2.1 -  RELEASE  -
|  1> ! wB97X-D3 SP def2-SVP
|  2> %pal
|  3> nprocs 24
|  4> end
|  5>
|  6> * xyz 0 1
|  7> S 	 -42.9302 	 21.1947 	 -99.9784
|  8> C 	 -44.2889 	 21.8358 	 -99.0205
|  9> C 	 -45.1671 	 20.8116 	 -98.7443
| 10> C 	 -44.9123 	 19.6177 	 -99.4603
| 11> C 	 -43.7727 	 19.6696 	 -100.203
| 12> H 	 -45.5457 	 18.7294 	 -99.469
| 13> C 	 -46.3289 	 20.9876 	 -97.7855
| 14> H 	 -47.0258 	 20.1025 	 -97.9125
| 15> H 	 -46.8956 	 21.8227 	 -98.1394
| 16> C 	 -45.9759 	 21.0436 	 -96.2916
| 17> H 	 -45.5359 	 22.017 	 -96.179
| 18> H 	 -46.9178 	 21.0105 	 -95.7825
| 19> C 	 -44.975 	 20.0197 	 -95.7762
| 20> H 	 -45.2879 	 19.0264 	 -96.2639
| 21> H 	 -43.9557 	 20.1333 	 -96.1849
| 22> H 	 -44.8387 	 20.0172 	 -94.6782
| 23> S 	 -43.0212 	 19.2656 	 -102.873
| 24> C 	 -42.8385 	 17.6478 	 -103.418
| 25> C 	 -42.8896 	 16.742 	 -102.39
| 26> C 	 -43.2383 	 17.3277 	 -101.174
| 27> C 	 -43.3895 	 18.6917 	 -101.222
| 28> H 	 -42.8189 	 15.6789 	 -102.527
| 29> C 	 -43.6771 	 16.4974 	 -99.9897
| 30> H 	 -44.6134 	 16.1027 	 -100.402
| 31> H 	 -44.0557 	 17.1399 	 -99.1906
| 32> C 	 -42.728 	 15.5218 	 -99.3836
| 33> H 	 -42.2301 	 14.8784 	 -100.134
| 34> H 	 -43.2243 	 14.7769 	 -98.7768
| 35> C 	 -41.6736 	 16.1399 	 -98.5019
| 36> H 	 -40.9114 	 15.4326 	 -98.1302
| 37> H 	 -42.2907 	 16.5506 	 -97.6722
| 38> H 	 -41.1299 	 16.9727 	 -98.9236
| 39> H 	 -44.4293 	 22.8289 	 -98.5715
| 40> H 	 -42.5106 	 17.4277 	 -104.482
| 41> *
| 42>
| 43>                          ****END OF INPUT****

CARTESIAN COORDINATES (ANGSTROEM)
---------------------------------
  S    -42.930200   21.194700  -99.978400
  C    -44.288900   21.835800  -99.020500
  C    -45.167100   20.811600  -98.744300
  C    -44.912300   19.617700  -99.460300
  C    -43.772700   19.669600  -100.203000
  H    -45.545700   18.729400  -99.469000
  C    -46.328900   20.987600  -97.785500
  H    -47.025800   20.102500  -97.912500
  H    -46.895600   21.822700  -98.139400
  C    -45.975900   21.043600  -96.291600
  H    -45.535900   22.017000  -96.179000
  H    -46.917800   21.010500  -95.782500
  C    -44.975000   20.019700  -95.776200
  H    -45.287900   19.026400  -96.263900
  H    -43.955700   20.133300  -96.184900
  H    -44.838700   20.017200  -94.678200
  S    -43.021200   19.265600  -102.873000
  C    -42.838500   17.647800  -103.418000
  C    -42.889600   16.742000  -102.390000
  C    -43.238300   17.327700  -101.174000
  C    -43.389500   18.691700  -101.222000
  H    -42.818900   15.678900  -102.527000
  C    -43.677100   16.497400  -99.989700
  H    -44.613400   16.102700  -100.402000
  H    -44.055700   17.139900  -99.190600
  C    -42.728000   15.521800  -99.383600
  H    -42.230100   14.878400  -100.134000
  H    -43.224300   14.776900  -98.776800
  C    -41.673600   16.139900  -98.501900
  H    -40.911400   15.432600  -98.130200
  H    -42.290700   16.550600  -97.672200
  H    -41.129900   16.972700  -98.923600
  H    -44.429300   22.828900  -98.571500
  H    -42.510600   17.427700  -104.482000

 Total Charge           Charge          ....    0
 Multiplicity           Mult            ....    1
 Number of Electrons    NEL             ....  134
 Basis Dimension        Dim             ....  322

ORBITAL ENERGIES
----------------

  NO   OCC          E(Eh)            E(eV)
   0   2.0000     -88.968360     -2420.9521
   1   2.0000     -88.963883     -2420.8303
   2   2.0000     -10.328882      -281.0632
   3   2.0000     -10.324787      -280.9517
   4   2.0000     -10.320277      -280.8290
   5   2.0000     -10.315536      -280.7000
   6   2.0000     -10.298244      -280.2295
   7   2.0000     -10.297708      -280.2149
   8   2.0000     -10.292382      -280.0699
   9   2.0000     -10.291402      -280.0433
  10   2.0000     -10.289673      -279.9962
  11   2.0000     -10.288622      -279.9676
  12   2.0000     -10.285135      -279.8728
  13   2.0000     -10.283431      -279.8264
  14   2.0000     -10.283398      -279.8255
  15   2.0000     -10.274750      -279.5902
  16   2.0000      -8.082249      -219.9292
  17   2.0000      -8.078840      -219.8364
  18   2.0000      -6.040911      -164.3816
  19   2.0000      -6.037255      -164.2821
  20   2.0000      -6.036920      -164.2729
  21   2.0000      -6.033329      -164.1752
  22   2.0000      -6.032846      -164.1621
  23   2.0000      -6.029670      -164.0757
  24   2.0000      -1.009389       -27.4669
  25   2.0000      -0.987937       -26.8831
  26   2.0000      -0.917018       -24.9533
  27   2.0000      -0.912648       -24.8344
  28   2.0000      -0.867926       -23.6175
  29   2.0000      -0.856277       -23.3005
  30   2.0000      -0.844463       -22.9790
  31   2.0000      -0.814053       -22.1515
  32   2.0000      -0.784930       -21.3590
  33   2.0000      -0.772961       -21.0333
  34   2.0000      -0.705012       -19.1844
  35   2.0000      -0.701969       -19.1016
  36   2.0000      -0.694333       -18.8938
  37   2.0000      -0.659317       -17.9409
  38   2.0000      -0.635252       -17.2861
  39   2.0000      -0.615832       -16.7576
  40   2.0000      -0.598545       -16.2872
  41   2.0000      -0.574421       -15.6308
  42   2.0000      -0.562937       -15.3183
  43   2.0000      -0.555715       -15.1218
  44   2.0000      -0.548724       -14.9315
  45   2.0000      -0.539302       -14.6752
  46   2.0000      -0.515329       -14.0228
  47   2.0000      -0.507398       -13.8070
  48   2.0000      -0.499316       -13.5871
  49   2.0000      -0.492065       -13.3898
  50   2.0000      -0.491139       -13.3646
  51   2.0000      -0.478337       -13.0162
  52   2.0000      -0.470340       -12.7986
  53   2.0000      -0.465432       -12.6651
  54   2.0000      -0.458668       -12.4810
  55   2.0000      -0.450932       -12.2705
  56   2.0000      -0.447700       -12.1825
  57   2.0000      -0.442963       -12.0536
  58   2.0000      -0.436556       -11.8793
  59   2.0000      -0.420194       -11.4341
  60   2.0000      -0.416418       -11.3313
  61   2.0000      -0.409145       -11.1334
  62   2.0000      -0.404679       -11.0119
  63   2.0000      -0.348451        -9.4818
  64   2.0000      -0.333855        -9.0847
  65   2.0000      -0.329904        -8.9771
  66   2.0000      -0.292733        -7.9657
  67   0.0000       0.028587         0.7779
  68   0.0000       0.069623         1.8945
  69   0.0000       0.108728         2.9586
  70   0.0000       0.123923         3.3721
  71   0.0000       0.131380         3.5750

MULLIKEN ATOMIC CHARGES
-----------------------
   0 S :    0.111099
   1 C :   -0.133052
   2 C :   -0.094701
   3 C :    0.019382
   4 C :   -0.142560
   5 H :    0.021422
   6 C :    0.029317
   7 H :    0.019573
   8 H :    0.034826
   9 C :   -0.027382
  10 H :    0.014337
  11 H :    0.032710
  12 C :   -0.075324
  13 H :    0.025805
  14 H :    0.043788
  15 H :    0.051673
  16 S :    0.109604
  17 C :   -0.115007
  18 C :   -0.020962
  19 C :   -0.025502
  20 C :   -0.171512
  21 H :    0.013168
  22 C :    0.050775
  23 H :    0.040709
  24 H :    0.007121
  25 C :   -0.040219
  26 H :    0.017055
  27 H :    0.020588
  28 C :   -0.060250
  29 H :    0.041462
  30 H :    0.027366
  31 H :    0.037606
  32 H :    0.054630
  33 H :    0.082455
Sum of atomic charges:   -0.0000000

LOEWDIN ATOMIC CHARGES
----------------------
   0 S :    0.390473
   1 C :   -0.195142
   2 C :   -0.065534
   3 C :   -0.068745
   4 C :   -0.185021
   5 H :    0.033326
   6 C :   -0.034239
   7 H :    0.029360
   8 H :    0.030861
   9 C :   -0.039091
  10 H :    0.017702
  11 H :    0.024408
  12 C :   -0.075130
  13 H :    0.029831
  14 H :    0.030618
  15 H :    0.032179
  16 S :    0.404090
  17 C :   -0.194913
  18 C :   -0.076352
  19 C :   -0.055108
  20 C :   -0.192114
  21 H :    0.030337
  22 C :   -0.033851
  23 H :    0.039435
  24 H :    0.028232
  25 C :   -0.047315
  26 H :    0.020125
  27 H :    0.025821
  28 C :   -0.064777
  29 H :    0.029761
  30 H :    0.028744
  31 H :    0.023941
  32 H :    0.035480
  33 H :    0.042609

  Mayer bond orders larger than 0.100000
B(  0-S ,  1-C ) :   1.1161 B(  0-S ,  4-C ) :   1.1464 B(  1-C ,  2-C ) :   1.6180
B(  1-C , 32-H ) :   0.9675 B(  2-C ,  3-C ) :   1.2421 B(  2-C ,  6-C ) :   1.0135
B(  3-C ,  4-C ) :   1.5747 B(  3-C ,  5-H ) :   0.9862 B(  4-C , 20-C ) :   1.0410
B(  6-C ,  7-H ) :   0.9421 B(  6-C ,  8-H ) :   0.9436 B(  6-C ,  9-C ) :   1.0704
B(  9-C , 10-H ) :   0.9517 B(  9-C , 11-H ) :   0.9570 B(  9-C , 12-C ) :   1.0780
B( 12-C , 13-H ) :   0.9752 B( 12-C , 14-H ) :   0.9665 B( 12-C , 15-H ) :   0.9735
B( 16-S , 17-C ) :   1.1769 B( 16-S , 20-C ) :   1.1278 B( 17-C , 18-C ) :   1.5820
B( 17-C , 33-H ) :   0.9571 B( 18-C , 19-C ) :   1.2659 B( 18-C , 21-H ) :   0.9940
B( 19-C , 20-C ) :   1.5912 B( 19-C , 22-C ) :   1.0292 B( 22-C , 23-H ) :   0.9340
B( 22-C , 24-H ) :   0.9275 B( 22-C , 25-C ) :   1.0748 B( 25-C , 26-H ) :   0.9543
B( 25-C , 27-H ) :   0.9498 B( 25-C , 28-C ) :   1.0714 B( 28-C , 29-H ) :   0.9729
B( 28-C , 30-H ) :   0.9726 B( 28-C , 31-H ) :   0.9793

Dispersion correction           -0.014989103
FINAL SINGLE POINT ENERGY     -1339.883349765444

DIPOLE MOMENT
-------------
                                X             Y             Z
Electronic contribution:      6.15795      12.08469     -23.65079
Nuclear contribution   :     -6.52001     -12.47137      24.00357
                        -----------------------------------------
Total Dipole Moment    :     -0.36205      -0.38668       0.35278
                        -----------------------------------------
Magnitude (a.u.)       :      0.63644
Magnitude (Debye)      :      1.61771

Rotational constants in cm-1:     0.019393     0.009328     0.007173
Rotational constants in MHz :   581.386063   279.633733   215.055196

                             ****ORCA TERMINATED NORMALLY****
TOTAL RUN TIME: 0 days 0 hours 0 minutes 21 seconds 190 msec
