                         Program Version 4.2.1 -  RELEASE  -
|  1> ! wB97X-D3 SP def2-SVP
|  2> %pal
|  3> nprocs 24
|  4> end
|  5>
|  6> * xyz 0 1
|  7> S 	 -131.877 	 56.9853 	 -62.3118
|  8> C 	 -130.863 	 57.7378 	 -63.4436
|  9> C 	 -129.795 	 56.9463 	 -63.8449
| 10> C 	 -129.733 	 55.7317 	 -63.1609
| 11> C 	 -130.773 	 55.5312 	 -62.2366
| 12> H 	 -128.997 	 54.9692 	 -63.2938
| 13> C 	 -128.956 	 57.2533 	 -65.0613
| 14> H 	 -129.686 	 57.4244 	 -65.8294
| 15> H 	 -128.491 	 56.3973 	 -65.4585
| 16> C 	 -127.846 	 58.2489 	 -64.9141
| 17> H 	 -128.262 	 59.2061 	 -64.4886
| 18> H 	 -126.973 	 57.9133 	 -64.2725
| 19> C 	 -127.337 	 58.6053 	 -66.3156
| 20> H 	 -128.001 	 59.1845 	 -66.9706
| 21> H 	 -126.41 	 59.1882 	 -66.3099
| 22> H 	 -127.024 	 57.6666 	 -66.8316
| 23> S 	 -132.076 	 54.8311 	 -60.0803
| 24> C 	 -131.748 	 53.3197 	 -59.2679
| 25> C 	 -130.767 	 52.5721 	 -59.906
| 26> C 	 -130.44 	 53.1416 	 -61.1956
| 27> C 	 -131.033 	 54.3821 	 -61.3551
| 28> H 	 -130.41 	 51.6938 	 -59.4248
| 29> C 	 -129.44 	 52.4901 	 -62.1456
| 30> H 	 -129.321 	 51.563 	 -61.6661
| 31> H 	 -128.489 	 53.0177 	 -62.1646
| 32> C 	 -129.883 	 52.2717 	 -63.6471
| 33> H 	 -130.194 	 53.2467 	 -64.0955
| 34> H 	 -130.763 	 51.6011 	 -63.6404
| 35> C 	 -128.795 	 51.686 	 -64.6197
| 36> H 	 -129.287 	 51.5753 	 -65.6061
| 37> H 	 -128.493 	 50.6949 	 -64.2323
| 38> H 	 -127.849 	 52.2381 	 -64.8091
| 39> H 	 -131.056 	 58.6668 	 -63.8687
| 40> H 	 -132.131 	 53.1058 	 -58.3239
| 41> *
| 42>
| 43>                          ****END OF INPUT****

CARTESIAN COORDINATES (ANGSTROEM)
---------------------------------
  S    -131.877000   56.985300  -62.311800
  C    -130.863000   57.737800  -63.443600
  C    -129.795000   56.946300  -63.844900
  C    -129.733000   55.731700  -63.160900
  C    -130.773000   55.531200  -62.236600
  H    -128.997000   54.969200  -63.293800
  C    -128.956000   57.253300  -65.061300
  H    -129.686000   57.424400  -65.829400
  H    -128.491000   56.397300  -65.458500
  C    -127.846000   58.248900  -64.914100
  H    -128.262000   59.206100  -64.488600
  H    -126.973000   57.913300  -64.272500
  C    -127.337000   58.605300  -66.315600
  H    -128.001000   59.184500  -66.970600
  H    -126.410000   59.188200  -66.309900
  H    -127.024000   57.666600  -66.831600
  S    -132.076000   54.831100  -60.080300
  C    -131.748000   53.319700  -59.267900
  C    -130.767000   52.572100  -59.906000
  C    -130.440000   53.141600  -61.195600
  C    -131.033000   54.382100  -61.355100
  H    -130.410000   51.693800  -59.424800
  C    -129.440000   52.490100  -62.145600
  H    -129.321000   51.563000  -61.666100
  H    -128.489000   53.017700  -62.164600
  C    -129.883000   52.271700  -63.647100
  H    -130.194000   53.246700  -64.095500
  H    -130.763000   51.601100  -63.640400
  C    -128.795000   51.686000  -64.619700
  H    -129.287000   51.575300  -65.606100
  H    -128.493000   50.694900  -64.232300
  H    -127.849000   52.238100  -64.809100
  H    -131.056000   58.666800  -63.868700
  H    -132.131000   53.105800  -58.323900

 Total Charge           Charge          ....    0
 Multiplicity           Mult            ....    1
 Number of Electrons    NEL             ....  134
 Basis Dimension        Dim             ....  322

ORBITAL ENERGIES
----------------

  NO   OCC          E(Eh)            E(eV)
   0   2.0000     -88.968803     -2420.9642
   1   2.0000     -88.964646     -2420.8511
   2   2.0000     -10.335946      -281.2554
   3   2.0000     -10.325038      -280.9586
   4   2.0000     -10.312337      -280.6130
   5   2.0000     -10.306635      -280.4578
   6   2.0000     -10.305826      -280.4358
   7   2.0000     -10.297807      -280.2176
   8   2.0000     -10.296016      -280.1689
   9   2.0000     -10.294378      -280.1243
  10   2.0000     -10.294085      -280.1163
  11   2.0000     -10.292829      -280.0821
  12   2.0000     -10.291204      -280.0379
  13   2.0000     -10.287905      -279.9481
  14   2.0000     -10.282386      -279.7979
  15   2.0000     -10.280978      -279.7596
  16   2.0000      -8.083038      -219.9506
  17   2.0000      -8.080619      -219.8848
  18   2.0000      -6.041517      -164.3980
  19   2.0000      -6.038990      -164.3293
  20   2.0000      -6.037627      -164.2922
  21   2.0000      -6.035047      -164.2220
  22   2.0000      -6.033869      -164.1899
  23   2.0000      -6.031358      -164.1216
  24   2.0000      -1.009246       -27.4630
  25   2.0000      -0.985739       -26.8233
  26   2.0000      -0.915868       -24.9220
  27   2.0000      -0.901625       -24.5345
  28   2.0000      -0.871159       -23.7054
  29   2.0000      -0.854646       -23.2561
  30   2.0000      -0.846788       -23.0423
  31   2.0000      -0.815892       -22.2015
  32   2.0000      -0.781238       -21.2586
  33   2.0000      -0.769890       -20.9498
  34   2.0000      -0.706986       -19.2381
  35   2.0000      -0.700119       -19.0512
  36   2.0000      -0.691899       -18.8275
  37   2.0000      -0.674564       -18.3558
  38   2.0000      -0.643307       -17.5053
  39   2.0000      -0.621024       -16.8989
  40   2.0000      -0.593288       -16.1442
  41   2.0000      -0.577891       -15.7252
  42   2.0000      -0.565314       -15.3830
  43   2.0000      -0.553570       -15.0634
  44   2.0000      -0.527604       -14.3568
  45   2.0000      -0.522464       -14.2170
  46   2.0000      -0.517672       -14.0866
  47   2.0000      -0.507693       -13.8150
  48   2.0000      -0.506408       -13.7801
  49   2.0000      -0.499267       -13.5858
  50   2.0000      -0.493078       -13.4173
  51   2.0000      -0.488326       -13.2880
  52   2.0000      -0.477096       -12.9824
  53   2.0000      -0.461926       -12.5697
  54   2.0000      -0.460574       -12.5329
  55   2.0000      -0.450654       -12.2629
  56   2.0000      -0.439982       -11.9725
  57   2.0000      -0.437855       -11.9146
  58   2.0000      -0.430501       -11.7145
  59   2.0000      -0.428899       -11.6709
  60   2.0000      -0.421237       -11.4625
  61   2.0000      -0.416676       -11.3383
  62   2.0000      -0.410100       -11.1594
  63   2.0000      -0.361386        -9.8338
  64   2.0000      -0.338486        -9.2107
  65   2.0000      -0.327278        -8.9057
  66   2.0000      -0.276239        -7.5168
  67   0.0000       0.018461         0.5023
  68   0.0000       0.085436         2.3248
  69   0.0000       0.090211         2.4548
  70   0.0000       0.115697         3.1483
  71   0.0000       0.137509         3.7418

MULLIKEN ATOMIC CHARGES
-----------------------
   0 S :    0.105904
   1 C :   -0.080572
   2 C :   -0.066699
   3 C :    0.016948
   4 C :   -0.131001
   5 H :   -0.007861
   6 C :    0.073963
   7 H :    0.027854
   8 H :   -0.008747
   9 C :   -0.072556
  10 H :    0.032625
  11 H :    0.049726
  12 C :   -0.069073
  13 H :    0.038730
  14 H :    0.027705
  15 H :    0.024001
  16 S :    0.090408
  17 C :   -0.062319
  18 C :   -0.028342
  19 C :   -0.093490
  20 C :   -0.084452
  21 H :    0.013610
  22 C :    0.090506
  23 H :    0.001183
  24 H :    0.040642
  25 C :   -0.109053
  26 H :    0.046471
  27 H :    0.039005
  28 C :   -0.071916
  29 H :    0.044539
  30 H :    0.031844
  31 H :    0.037895
  32 H :    0.020679
  33 H :    0.031844
Sum of atomic charges:   -0.0000000

LOEWDIN ATOMIC CHARGES
----------------------
   0 S :    0.397224
   1 C :   -0.198871
   2 C :   -0.065537
   3 C :   -0.061036
   4 C :   -0.170636
   5 H :    0.026522
   6 C :   -0.035148
   7 H :    0.035103
   8 H :    0.022777
   9 C :   -0.042618
  10 H :    0.025894
  11 H :    0.036095
  12 C :   -0.073628
  13 H :    0.025850
  14 H :    0.024329
  15 H :    0.024620
  16 S :    0.423873
  17 C :   -0.174538
  18 C :   -0.059966
  19 C :   -0.061394
  20 C :   -0.199291
  21 H :    0.029548
  22 C :   -0.031464
  23 H :    0.023437
  24 H :    0.029551
  25 C :   -0.042334
  26 H :    0.026207
  27 H :    0.029378
  28 C :   -0.074711
  29 H :    0.032736
  30 H :    0.024178
  31 H :    0.025628
  32 H :    0.015017
  33 H :    0.013204

  Mayer bond orders larger than 0.100000
B(  0-S ,  1-C ) :   1.1559 B(  0-S ,  4-C ) :   1.1427 B(  1-C ,  2-C ) :   1.5784
B(  1-C ,  4-C ) :   0.1072 B(  1-C , 32-H ) :   0.9730 B(  2-C ,  3-C ) :   1.2935
B(  2-C ,  6-C ) :   1.0029 B(  3-C ,  4-C ) :   1.5420 B(  3-C ,  5-H ) :   0.9915
B(  4-C , 20-C ) :   1.0695 B(  6-C ,  7-H ) :   0.9476 B(  6-C ,  8-H ) :   0.9349
B(  6-C ,  9-C ) :   1.0581 B(  9-C , 10-H ) :   0.9590 B(  9-C , 11-H ) :   0.9526
B(  9-C , 12-C ) :   1.0762 B( 12-C , 13-H ) :   0.9773 B( 12-C , 14-H ) :   0.9734
B( 12-C , 15-H ) :   0.9711 B( 16-S , 17-C ) :   1.1578 B( 16-S , 20-C ) :   1.1484
B( 17-C , 18-C ) :   1.6162 B( 17-C , 33-H ) :   0.9747 B( 18-C , 19-C ) :   1.2360
B( 18-C , 21-H ) :   0.9952 B( 19-C , 20-C ) :   1.5739 B( 19-C , 22-C ) :   1.0390
B( 22-C , 23-H ) :   0.9250 B( 22-C , 24-H ) :   0.9331 B( 22-C , 25-C ) :   1.0552
B( 25-C , 26-H ) :   0.9575 B( 25-C , 27-H ) :   0.9541 B( 25-C , 28-C ) :   1.0741
B( 28-C , 29-H ) :   0.9745 B( 28-C , 30-H ) :   0.9760 B( 28-C , 31-H ) :   0.9761

Dispersion correction           -0.013900991
FINAL SINGLE POINT ENERGY     -1339.870805128612

DIPOLE MOMENT
-------------
                                X             Y             Z
Electronic contribution:    -21.85006       4.20596      23.31914
Nuclear contribution   :     22.34976      -4.46316     -23.63982
                        -----------------------------------------
Total Dipole Moment    :      0.49970      -0.25720      -0.32067
                        -----------------------------------------
Magnitude (a.u.)       :      0.64706
Magnitude (Debye)      :      1.64469

Rotational constants in cm-1:     0.018638     0.008667     0.006314
Rotational constants in MHz :   558.739884   259.837624   189.297643

                             ****ORCA TERMINATED NORMALLY****
TOTAL RUN TIME: 0 days 0 hours 0 minutes 21 seconds 484 msec
