                         Program Version 4.2.1 -  RELEASE  -
|  1> ! wB97X-D3 SP def2-SVP
|  2> %pal
|  3> nprocs 24
|  4> end
|  5>
|  6> * xyz 0 1
|  7> S 	 -52.5705 	 13.1987 	 -99.2654
|  8> C 	 -52.9192 	 11.5058 	 -99.1635
|  9> C 	 -51.7602 	 10.7119 	 -99.023
| 10> C 	 -50.6373 	 11.5516 	 -99.2185
| 11> C 	 -50.8085 	 12.9379 	 -99.1539
| 12> H 	 -49.6695 	 11.1726 	 -99.212
| 13> C 	 -51.7801 	 9.23251 	 -98.9378
| 14> H 	 -52.6265 	 8.81099 	 -99.4195
| 15> H 	 -51.9113 	 9.02331 	 -97.8097
| 16> C 	 -50.6007 	 8.39006 	 -99.4487
| 17> H 	 -49.6582 	 8.58007 	 -98.9534
| 18> H 	 -50.7825 	 7.27016 	 -99.359
| 19> C 	 -50.5296 	 8.58715 	 -101.049
| 20> H 	 -49.5792 	 8.24078 	 -101.462
| 21> H 	 -51.2621 	 7.98342 	 -101.614
| 22> H 	 -50.66 	 9.68621 	 -101.364
| 23> S 	 -49.9811 	 15.0457 	 -100.756
| 24> C 	 -48.5297 	 15.8876 	 -100.268
| 25> C 	 -47.933 	 15.2557 	 -99.243
| 26> C 	 -48.687 	 14.205 	 -98.6759
| 27> C 	 -49.786 	 13.9258 	 -99.4533
| 28> H 	 -47.0241 	 15.6113 	 -98.7185
| 29> C 	 -48.1672 	 13.3938 	 -97.3713
| 30> H 	 -47.1227 	 13.5918 	 -97.3071
| 31> H 	 -48.2394 	 12.346 	 -97.4606
| 32> C 	 -48.8113 	 13.9468 	 -96.149
| 33> H 	 -49.891 	 13.922 	 -96.3885
| 34> H 	 -48.6169 	 14.9912 	 -96.0225
| 35> C 	 -48.5411 	 13.1704 	 -94.8687
| 36> H 	 -48.9264 	 12.1848 	 -94.9886
| 37> H 	 -49.105 	 13.7795 	 -94.1988
| 38> H 	 -47.5548 	 13.3817 	 -94.5409
| 39> H 	 -53.9896 	 11.2091 	 -99.2529
| 40> H 	 -48.0468 	 16.8126 	 -100.586
| 41> *
| 42>
| 43>                          ****END OF INPUT****

CARTESIAN COORDINATES (ANGSTROEM)
---------------------------------
  S    -52.570500   13.198700  -99.265400
  C    -52.919200   11.505800  -99.163500
  C    -51.760200   10.711900  -99.023000
  C    -50.637300   11.551600  -99.218500
  C    -50.808500   12.937900  -99.153900
  H    -49.669500   11.172600  -99.212000
  C    -51.780100    9.232510  -98.937800
  H    -52.626500    8.810990  -99.419500
  H    -51.911300    9.023310  -97.809700
  C    -50.600700    8.390060  -99.448700
  H    -49.658200    8.580070  -98.953400
  H    -50.782500    7.270160  -99.359000
  C    -50.529600    8.587150  -101.049000
  H    -49.579200    8.240780  -101.462000
  H    -51.262100    7.983420  -101.614000
  H    -50.660000    9.686210  -101.364000
  S    -49.981100   15.045700  -100.756000
  C    -48.529700   15.887600  -100.268000
  C    -47.933000   15.255700  -99.243000
  C    -48.687000   14.205000  -98.675900
  C    -49.786000   13.925800  -99.453300
  H    -47.024100   15.611300  -98.718500
  C    -48.167200   13.393800  -97.371300
  H    -47.122700   13.591800  -97.307100
  H    -48.239400   12.346000  -97.460600
  C    -48.811300   13.946800  -96.149000
  H    -49.891000   13.922000  -96.388500
  H    -48.616900   14.991200  -96.022500
  C    -48.541100   13.170400  -94.868700
  H    -48.926400   12.184800  -94.988600
  H    -49.105000   13.779500  -94.198800
  H    -47.554800   13.381700  -94.540900
  H    -53.989600   11.209100  -99.252900
  H    -48.046800   16.812600  -100.586000

 Total Charge           Charge          ....    0
 Multiplicity           Mult            ....    1
 Number of Electrons    NEL             ....  134
 Basis Dimension        Dim             ....  322

ORBITAL ENERGIES
----------------

  NO   OCC          E(Eh)            E(eV)
   0   2.0000     -88.968330     -2420.9513
   1   2.0000     -88.966030     -2420.8888
   2   2.0000     -10.328744      -281.0594
   3   2.0000     -10.322192      -280.8811
   4   2.0000     -10.320166      -280.8260
   5   2.0000     -10.311534      -280.5911
   6   2.0000     -10.305010      -280.4136
   7   2.0000     -10.301312      -280.3130
   8   2.0000     -10.299363      -280.2599
   9   2.0000     -10.297745      -280.2159
  10   2.0000     -10.290675      -280.0235
  11   2.0000     -10.286615      -279.9130
  12   2.0000     -10.286537      -279.9109
  13   2.0000     -10.286478      -279.9093
  14   2.0000     -10.273531      -279.5570
  15   2.0000     -10.267534      -279.3938
  16   2.0000      -8.083189      -219.9547
  17   2.0000      -8.080420      -219.8794
  18   2.0000      -6.041773      -164.4050
  19   2.0000      -6.038821      -164.3247
  20   2.0000      -6.037698      -164.2941
  21   2.0000      -6.034837      -164.2163
  22   2.0000      -6.033823      -164.1887
  23   2.0000      -6.031455      -164.1242
  24   2.0000      -1.008834       -27.4518
  25   2.0000      -0.986210       -26.8361
  26   2.0000      -0.912078       -24.8189
  27   2.0000      -0.909864       -24.7587
  28   2.0000      -0.869305       -23.6550
  29   2.0000      -0.850882       -23.1537
  30   2.0000      -0.840655       -22.8754
  31   2.0000      -0.814437       -22.1620
  32   2.0000      -0.786607       -21.4047
  33   2.0000      -0.770731       -20.9727
  34   2.0000      -0.710395       -19.3308
  35   2.0000      -0.693841       -18.8804
  36   2.0000      -0.688540       -18.7361
  37   2.0000      -0.656353       -17.8603
  38   2.0000      -0.642042       -17.4708
  39   2.0000      -0.625780       -17.0284
  40   2.0000      -0.595914       -16.2156
  41   2.0000      -0.573740       -15.6123
  42   2.0000      -0.567480       -15.4419
  43   2.0000      -0.548873       -14.9356
  44   2.0000      -0.532986       -14.5033
  45   2.0000      -0.526131       -14.3167
  46   2.0000      -0.512217       -13.9381
  47   2.0000      -0.508934       -13.8488
  48   2.0000      -0.501463       -13.6455
  49   2.0000      -0.497988       -13.5509
  50   2.0000      -0.489845       -13.3294
  51   2.0000      -0.480836       -13.0842
  52   2.0000      -0.474558       -12.9134
  53   2.0000      -0.466598       -12.6968
  54   2.0000      -0.460413       -12.5285
  55   2.0000      -0.445945       -12.1348
  56   2.0000      -0.442924       -12.0526
  57   2.0000      -0.440079       -11.9752
  58   2.0000      -0.434392       -11.8204
  59   2.0000      -0.425367       -11.5748
  60   2.0000      -0.413052       -11.2397
  61   2.0000      -0.409484       -11.1426
  62   2.0000      -0.407641       -11.0925
  63   2.0000      -0.345537        -9.4025
  64   2.0000      -0.334854        -9.1119
  65   2.0000      -0.326118        -8.8741
  66   2.0000      -0.292359        -7.9555
  67   0.0000       0.027677         0.7531
  68   0.0000       0.072156         1.9635
  69   0.0000       0.115435         3.1411
  70   0.0000       0.124569         3.3897
  71   0.0000       0.133625         3.6361

MULLIKEN ATOMIC CHARGES
-----------------------
   0 S :    0.104136
   1 C :   -0.160698
   2 C :   -0.062987
   3 C :    0.030674
   4 C :   -0.147137
   5 H :   -0.007313
   6 C :    0.062184
   7 H :    0.020466
   8 H :    0.054361
   9 C :   -0.086444
  10 H :    0.038729
  11 H :    0.047314
  12 C :   -0.114928
  13 H :    0.032860
  14 H :    0.036611
  15 H :    0.060567
  16 S :    0.129554
  17 C :   -0.078569
  18 C :   -0.036397
  19 C :   -0.079101
  20 C :   -0.166431
  21 H :    0.021762
  22 C :    0.149691
  23 H :   -0.003269
  24 H :    0.005867
  25 C :   -0.148210
  26 H :    0.032896
  27 H :    0.014851
  28 C :    0.047799
  29 H :    0.041146
  30 H :    0.016338
  31 H :    0.018664
  32 H :    0.072119
  33 H :    0.052894
Sum of atomic charges:    0.0000000

LOEWDIN ATOMIC CHARGES
----------------------
   0 S :    0.402967
   1 C :   -0.199791
   2 C :   -0.068940
   3 C :   -0.049463
   4 C :   -0.195425
   5 H :    0.016718
   6 C :   -0.039032
   7 H :    0.028776
   8 H :    0.046728
   9 C :   -0.042635
  10 H :    0.019330
  11 H :    0.038133
  12 C :   -0.081247
  13 H :    0.022489
  14 H :    0.025541
  15 H :    0.035456
  16 S :    0.418781
  17 C :   -0.195250
  18 C :   -0.079012
  19 C :   -0.050461
  20 C :   -0.209950
  21 H :    0.034300
  22 C :   -0.014633
  23 H :    0.020687
  24 H :    0.018792
  25 C :   -0.046253
  26 H :    0.026668
  27 H :    0.018966
  28 C :   -0.053192
  29 H :    0.026506
  30 H :    0.029333
  31 H :    0.021888
  32 H :    0.034264
  33 H :    0.038962

  Mayer bond orders larger than 0.100000
B(  0-S ,  1-C ) :   1.1878 B(  0-S ,  4-C ) :   1.1352 B(  1-C ,  2-C ) :   1.5325
B(  1-C ,  4-C ) :   0.1049 B(  1-C , 32-H ) :   0.9644 B(  2-C ,  3-C ) :   1.2937
B(  2-C ,  6-C ) :   1.0245 B(  3-C ,  4-C ) :   1.5461 B(  3-C ,  5-H ) :   0.9878
B(  4-C , 20-C ) :   1.0524 B(  6-C ,  7-H ) :   0.9462 B(  6-C ,  8-H ) :   0.9225
B(  6-C ,  9-C ) :   1.0820 B(  9-C , 10-H ) :   0.9572 B(  9-C , 11-H ) :   0.9569
B(  9-C , 12-C ) :   1.0496 B( 12-C , 13-H ) :   0.9778 B( 12-C , 14-H ) :   0.9777
B( 12-C , 15-H ) :   0.9784 B( 16-S , 17-C ) :   1.1341 B( 16-S , 20-C ) :   1.1398
B( 17-C , 18-C ) :   1.6332 B( 17-C , 33-H ) :   0.9598 B( 18-C , 19-C ) :   1.2768
B( 18-C , 21-H ) :   0.9720 B( 19-C , 20-C ) :   1.6123 B( 19-C , 22-C ) :   1.0137
B( 22-C , 23-H ) :   0.9288 B( 22-C , 24-H ) :   0.9398 B( 22-C , 25-C ) :   1.0662
B( 25-C , 26-H ) :   0.9582 B( 25-C , 27-H ) :   0.9516 B( 25-C , 28-C ) :   1.0827
B( 28-C , 29-H ) :   0.9725 B( 28-C , 30-H ) :   0.9680 B( 28-C , 31-H ) :   0.9691

Dispersion correction           -0.014433631
FINAL SINGLE POINT ENERGY     -1339.853333559496

DIPOLE MOMENT
-------------
                                X             Y             Z
Electronic contribution:     -9.51733      19.06966     -12.51006
Nuclear contribution   :      9.80346     -19.50659      12.81739
                        -----------------------------------------
Total Dipole Moment    :      0.28612      -0.43694       0.30733
                        -----------------------------------------
Magnitude (a.u.)       :      0.60600
Magnitude (Debye)      :      1.54033

Rotational constants in cm-1:     0.016609     0.009141     0.007671
Rotational constants in MHz :   497.920946   274.051010   229.959335

                             ****ORCA TERMINATED NORMALLY****
TOTAL RUN TIME: 0 days 0 hours 0 minutes 20 seconds 825 msec
