                         Program Version 4.2.1 -  RELEASE  -
|  1> ! wB97X-D3 SP def2-SVP
|  2> %pal
|  3> nprocs 24
|  4> end
|  5>
|  6> * xyz 0 1
|  7> S 	 -31.8611 	 11.6824 	 13.6051
|  8> C 	 -32.5434 	 12.9063 	 12.5864
|  9> C 	 -33.0194 	 12.34 	 11.3951
| 10> C 	 -32.9216 	 10.9179 	 11.3942
| 11> C 	 -32.3958 	 10.3711 	 12.5713
| 12> H 	 -33.2696 	 10.2229 	 10.5903
| 13> C 	 -33.6254 	 13.1901 	 10.2948
| 14> H 	 -34.5189 	 13.7664 	 10.5524
| 15> H 	 -33.9848 	 12.5292 	 9.56152
| 16> C 	 -32.6135 	 14.0818 	 9.52096
| 17> H 	 -32.0513 	 14.7243 	 10.1566
| 18> H 	 -31.754 	 13.5589 	 9.06802
| 19> C 	 -33.2032 	 14.9615 	 8.43447
| 20> H 	 -32.4565 	 15.0858 	 7.66703
| 21> H 	 -34.1864 	 14.6607 	 8.12516
| 22> H 	 -33.3799 	 16.0217 	 8.8117
| 23> S 	 -31.7212 	 7.74768 	 11.5248
| 24> C 	 -31.7752 	 6.42357 	 12.6979
| 25> C 	 -32.0694 	 6.88184 	 13.9457
| 26> C 	 -32.2323 	 8.30733 	 14.066
| 27> C 	 -32.1295 	 8.94842 	 12.8211
| 28> H 	 -32.1661 	 6.16371 	 14.6974
| 29> C 	 -32.6078 	 8.94173 	 15.3735
| 30> H 	 -33.3418 	 8.23204 	 15.8366
| 31> H 	 -33.1643 	 9.85262 	 15.1824
| 32> C 	 -31.5303 	 9.15798 	 16.3873
| 33> H 	 -30.8301 	 9.87545 	 15.9461
| 34> H 	 -30.9326 	 8.28782 	 16.7253
| 35> C 	 -32.0092 	 9.77444 	 17.7195
| 36> H 	 -32.512 	 10.7192 	 17.4419
| 37> H 	 -31.221 	 10.1023 	 18.3242
| 38> H 	 -32.8227 	 9.18688 	 18.2145
| 39> H 	 -32.5383 	 13.9213 	 12.8248
| 40> H 	 -31.4875 	 5.37729 	 12.5977
| 41> *
| 42>
| 43>                          ****END OF INPUT****

CARTESIAN COORDINATES (ANGSTROEM)
---------------------------------
  S    -31.861100   11.682400   13.605100
  C    -32.543400   12.906300   12.586400
  C    -33.019400   12.340000   11.395100
  C    -32.921600   10.917900   11.394200
  C    -32.395800   10.371100   12.571300
  H    -33.269600   10.222900   10.590300
  C    -33.625400   13.190100   10.294800
  H    -34.518900   13.766400   10.552400
  H    -33.984800   12.529200    9.561520
  C    -32.613500   14.081800    9.520960
  H    -32.051300   14.724300   10.156600
  H    -31.754000   13.558900    9.068020
  C    -33.203200   14.961500    8.434470
  H    -32.456500   15.085800    7.667030
  H    -34.186400   14.660700    8.125160
  H    -33.379900   16.021700    8.811700
  S    -31.721200    7.747680   11.524800
  C    -31.775200    6.423570   12.697900
  C    -32.069400    6.881840   13.945700
  C    -32.232300    8.307330   14.066000
  C    -32.129500    8.948420   12.821100
  H    -32.166100    6.163710   14.697400
  C    -32.607800    8.941730   15.373500
  H    -33.341800    8.232040   15.836600
  H    -33.164300    9.852620   15.182400
  C    -31.530300    9.157980   16.387300
  H    -30.830100    9.875450   15.946100
  H    -30.932600    8.287820   16.725300
  C    -32.009200    9.774440   17.719500
  H    -32.512000   10.719200   17.441900
  H    -31.221000   10.102300   18.324200
  H    -32.822700    9.186880   18.214500
  H    -32.538300   13.921300   12.824800
  H    -31.487500    5.377290   12.597700

 Total Charge           Charge          ....    0
 Multiplicity           Mult            ....    1
 Number of Electrons    NEL             ....  134
 Basis Dimension        Dim             ....  322

ORBITAL ENERGIES
----------------

  NO   OCC          E(Eh)            E(eV)
   0   2.0000     -88.971558     -2421.0392
   1   2.0000     -88.970543     -2421.0115
   2   2.0000     -10.336007      -281.2570
   3   2.0000     -10.334004      -281.2026
   4   2.0000     -10.319231      -280.8005
   5   2.0000     -10.312384      -280.6142
   6   2.0000     -10.306013      -280.4409
   7   2.0000     -10.305622      -280.4302
   8   2.0000     -10.299691      -280.2689
   9   2.0000     -10.291392      -280.0430
  10   2.0000     -10.290914      -280.0300
  11   2.0000     -10.288817      -279.9730
  12   2.0000     -10.284794      -279.8635
  13   2.0000     -10.281735      -279.7802
  14   2.0000     -10.277733      -279.6713
  15   2.0000     -10.275383      -279.6074
  16   2.0000      -8.085643      -220.0215
  17   2.0000      -8.083503      -219.9633
  18   2.0000      -6.044205      -164.4712
  19   2.0000      -6.042369      -164.4212
  20   2.0000      -6.040048      -164.3581
  21   2.0000      -6.038326      -164.3112
  22   2.0000      -6.036598      -164.2642
  23   2.0000      -6.033920      -164.1913
  24   2.0000      -1.002958       -27.2919
  25   2.0000      -0.981124       -26.6977
  26   2.0000      -0.912509       -24.8306
  27   2.0000      -0.909067       -24.7370
  28   2.0000      -0.870267       -23.6812
  29   2.0000      -0.852782       -23.2054
  30   2.0000      -0.847392       -23.0587
  31   2.0000      -0.816547       -22.2194
  32   2.0000      -0.784227       -21.3399
  33   2.0000      -0.771245       -20.9867
  34   2.0000      -0.707015       -19.2388
  35   2.0000      -0.702076       -19.1044
  36   2.0000      -0.691439       -18.8150
  37   2.0000      -0.666302       -18.1310
  38   2.0000      -0.638807       -17.3828
  39   2.0000      -0.616079       -16.7644
  40   2.0000      -0.596640       -16.2354
  41   2.0000      -0.573726       -15.6119
  42   2.0000      -0.566996       -15.4288
  43   2.0000      -0.551994       -15.0205
  44   2.0000      -0.533008       -14.5039
  45   2.0000      -0.529214       -14.4007
  46   2.0000      -0.523170       -14.2362
  47   2.0000      -0.509720       -13.8702
  48   2.0000      -0.506337       -13.7781
  49   2.0000      -0.500789       -13.6272
  50   2.0000      -0.494189       -13.4476
  51   2.0000      -0.480585       -13.0774
  52   2.0000      -0.467155       -12.7119
  53   2.0000      -0.464048       -12.6274
  54   2.0000      -0.460890       -12.5414
  55   2.0000      -0.451470       -12.2851
  56   2.0000      -0.445480       -12.1221
  57   2.0000      -0.440004       -11.9731
  58   2.0000      -0.435347       -11.8464
  59   2.0000      -0.422568       -11.4987
  60   2.0000      -0.417254       -11.3541
  61   2.0000      -0.410949       -11.1825
  62   2.0000      -0.400568       -10.9000
  63   2.0000      -0.356332        -9.6963
  64   2.0000      -0.332950        -9.0600
  65   2.0000      -0.331776        -9.0281
  66   2.0000      -0.286301        -7.7907
  67   0.0000       0.020730         0.5641
  68   0.0000       0.076335         2.0772
  69   0.0000       0.103470         2.8156
  70   0.0000       0.112199         3.0531
  71   0.0000       0.132870         3.6156

MULLIKEN ATOMIC CHARGES
-----------------------
   0 S :    0.106539
   1 C :   -0.094309
   2 C :   -0.085365
   3 C :   -0.011454
   4 C :   -0.159430
   5 H :    0.032037
   6 C :    0.101948
   7 H :    0.041023
   8 H :    0.000731
   9 C :   -0.082422
  10 H :    0.007129
  11 H :    0.024825
  12 C :   -0.046699
  13 H :    0.035215
  14 H :    0.025679
  15 H :    0.028984
  16 S :    0.101618
  17 C :   -0.088211
  18 C :   -0.010467
  19 C :   -0.029823
  20 C :   -0.113187
  21 H :   -0.004967
  22 C :    0.043322
  23 H :    0.026207
  24 H :    0.027157
  25 C :   -0.071987
  26 H :    0.022740
  27 H :    0.034350
  28 C :   -0.036322
  29 H :    0.013946
  30 H :    0.030742
  31 H :    0.037700
  32 H :    0.031892
  33 H :    0.060860
Sum of atomic charges:   -0.0000000

LOEWDIN ATOMIC CHARGES
----------------------
   0 S :    0.431973
   1 C :   -0.190972
   2 C :   -0.059328
   3 C :   -0.073115
   4 C :   -0.190599
   5 H :    0.037900
   6 C :   -0.029571
   7 H :    0.035418
   8 H :    0.023938
   9 C :   -0.046349
  10 H :    0.015442
  11 H :    0.027993
  12 C :   -0.067187
  13 H :    0.027574
  14 H :    0.019818
  15 H :    0.030583
  16 S :    0.371250
  17 C :   -0.179086
  18 C :   -0.062555
  19 C :   -0.048449
  20 C :   -0.179080
  21 H :    0.021876
  22 C :   -0.042766
  23 H :    0.036509
  24 H :    0.023106
  25 C :   -0.044853
  26 H :    0.020237
  27 H :    0.026269
  28 C :   -0.065548
  29 H :    0.024893
  30 H :    0.020210
  31 H :    0.028549
  32 H :    0.017153
  33 H :    0.038768

  Mayer bond orders larger than 0.100000
B(  0-S ,  1-C ) :   1.1537 B(  0-S ,  4-C ) :   1.1595 B(  1-C ,  2-C ) :   1.5568
B(  1-C ,  4-C ) :   0.1018 B(  1-C , 32-H ) :   0.9827 B(  2-C ,  3-C ) :   1.2871
B(  2-C ,  6-C ) :   1.0263 B(  3-C ,  4-C ) :   1.5296 B(  3-C ,  5-H ) :   0.9854
B(  4-C , 20-C ) :   1.0829 B(  6-C ,  7-H ) :   0.9449 B(  6-C ,  8-H ) :   0.9313
B(  6-C ,  9-C ) :   1.0526 B(  9-C , 10-H ) :   0.9579 B(  9-C , 11-H ) :   0.9622
B(  9-C , 12-C ) :   1.0734 B( 12-C , 13-H ) :   0.9773 B( 12-C , 14-H ) :   0.9768
B( 12-C , 15-H ) :   0.9763 B( 16-S , 17-C ) :   1.1246 B( 16-S , 20-C ) :   1.1080
B( 17-C , 18-C ) :   1.6592 B( 17-C , 33-H ) :   0.9597 B( 18-C , 19-C ) :   1.2204
B( 18-C , 21-H ) :   0.9948 B( 19-C , 20-C ) :   1.5741 B( 19-C , 22-C ) :   1.0534
B( 22-C , 23-H ) :   0.9294 B( 22-C , 24-H ) :   0.9213 B( 22-C , 25-C ) :   1.0703
B( 25-C , 26-H ) :   0.9469 B( 25-C , 27-H ) :   0.9563 B( 25-C , 28-C ) :   1.0870
B( 28-C , 29-H ) :   0.9703 B( 28-C , 30-H ) :   0.9732 B( 28-C , 31-H ) :   0.9744

Dispersion correction           -0.013687520
FINAL SINGLE POINT ENERGY     -1339.875781103781

DIPOLE MOMENT
-------------
                                X             Y             Z
Electronic contribution:      4.61479     -14.71037      -2.58484
Nuclear contribution   :     -4.76531      14.83007       2.69423
                        -----------------------------------------
Total Dipole Moment    :     -0.15053       0.11970       0.10939
                        -----------------------------------------
Magnitude (a.u.)       :      0.22125
Magnitude (Debye)      :      0.56238

Rotational constants in cm-1:     0.021766     0.007399     0.005716
Rotational constants in MHz :   652.517354   221.817986   171.353972

                             ****ORCA TERMINATED NORMALLY****
TOTAL RUN TIME: 0 days 0 hours 0 minutes 21 seconds 656 msec
