                         Program Version 4.2.1 -  RELEASE  -
|  1> ! wB97X-D3 SP def2-SVP
|  2> %pal
|  3> nprocs 24
|  4> end
|  5>
|  6> * xyz 0 1
|  7> S 	 -83.015 	 -12.6752 	 -54.7321
|  8> C 	 -84.408 	 -13.0645 	 -55.7449
|  9> C 	 -84.8352 	 -14.351 	 -55.6036
| 10> C 	 -84.0252 	 -15.0669 	 -54.6618
| 11> C 	 -82.9477 	 -14.2992 	 -54.1269
| 12> H 	 -84.089 	 -16.1548 	 -54.4275
| 13> C 	 -85.9342 	 -15.0895 	 -56.4683
| 14> H 	 -85.6409 	 -16.1262 	 -56.2256
| 15> H 	 -85.7641 	 -15.0115 	 -57.5715
| 16> C 	 -87.4087 	 -14.8682 	 -55.9918
| 17> H 	 -88.0193 	 -15.7252 	 -56.4363
| 18> H 	 -87.4293 	 -14.9631 	 -54.8968
| 19> C 	 -88.0059 	 -13.4307 	 -56.3824
| 20> H 	 -88.2819 	 -13.3457 	 -57.4993
| 21> H 	 -88.8883 	 -13.1845 	 -55.7476
| 22> H 	 -87.2369 	 -12.7003 	 -56.177
| 23> S 	 -81.3708 	 -13.6773 	 -51.9545
| 24> C 	 -80.2858 	 -14.8139 	 -51.2034
| 25> C 	 -80.3973 	 -16.0108 	 -51.8534
| 26> C 	 -81.3615 	 -15.9865 	 -52.9157
| 27> C 	 -81.9825 	 -14.7491 	 -53.149
| 28> H 	 -79.8359 	 -16.8655 	 -51.5797
| 29> C 	 -81.4422 	 -17.2874 	 -53.8523
| 30> H 	 -82.5213 	 -17.3683 	 -54.0793
| 31> H 	 -81.1263 	 -18.0874 	 -53.2643
| 32> C 	 -80.6213 	 -17.1937 	 -55.1914
| 33> H 	 -79.5244 	 -17.0367 	 -55.0585
| 34> H 	 -80.9743 	 -16.2835 	 -55.7905
| 35> C 	 -80.7678 	 -18.4399 	 -56.0916
| 36> H 	 -80.1447 	 -18.4143 	 -56.9679
| 37> H 	 -81.801 	 -18.632 	 -56.4958
| 38> H 	 -80.545 	 -19.3548 	 -55.643
| 39> H 	 -84.742 	 -12.3366 	 -56.4871
| 40> H 	 -79.7672 	 -14.6587 	 -50.338
| 41> *
| 42>
| 43>                          ****END OF INPUT****

CARTESIAN COORDINATES (ANGSTROEM)
---------------------------------
  S    -83.015000  -12.675200  -54.732100
  C    -84.408000  -13.064500  -55.744900
  C    -84.835200  -14.351000  -55.603600
  C    -84.025200  -15.066900  -54.661800
  C    -82.947700  -14.299200  -54.126900
  H    -84.089000  -16.154800  -54.427500
  C    -85.934200  -15.089500  -56.468300
  H    -85.640900  -16.126200  -56.225600
  H    -85.764100  -15.011500  -57.571500
  C    -87.408700  -14.868200  -55.991800
  H    -88.019300  -15.725200  -56.436300
  H    -87.429300  -14.963100  -54.896800
  C    -88.005900  -13.430700  -56.382400
  H    -88.281900  -13.345700  -57.499300
  H    -88.888300  -13.184500  -55.747600
  H    -87.236900  -12.700300  -56.177000
  S    -81.370800  -13.677300  -51.954500
  C    -80.285800  -14.813900  -51.203400
  C    -80.397300  -16.010800  -51.853400
  C    -81.361500  -15.986500  -52.915700
  C    -81.982500  -14.749100  -53.149000
  H    -79.835900  -16.865500  -51.579700
  C    -81.442200  -17.287400  -53.852300
  H    -82.521300  -17.368300  -54.079300
  H    -81.126300  -18.087400  -53.264300
  C    -80.621300  -17.193700  -55.191400
  H    -79.524400  -17.036700  -55.058500
  H    -80.974300  -16.283500  -55.790500
  C    -80.767800  -18.439900  -56.091600
  H    -80.144700  -18.414300  -56.967900
  H    -81.801000  -18.632000  -56.495800
  H    -80.545000  -19.354800  -55.643000
  H    -84.742000  -12.336600  -56.487100
  H    -79.767200  -14.658700  -50.338000

 Total Charge           Charge          ....    0
 Multiplicity           Mult            ....    1
 Number of Electrons    NEL             ....  134
 Basis Dimension        Dim             ....  322

ORBITAL ENERGIES
----------------

  NO   OCC          E(Eh)            E(eV)
   0   2.0000     -88.971221     -2421.0300
   1   2.0000     -88.964204     -2420.8391
   2   2.0000     -10.337289      -281.2919
   3   2.0000     -10.330196      -281.0989
   4   2.0000     -10.316884      -280.7367
   5   2.0000     -10.311732      -280.5965
   6   2.0000     -10.307891      -280.4920
   7   2.0000     -10.306808      -280.4625
   8   2.0000     -10.306152      -280.4447
   9   2.0000     -10.303889      -280.3831
  10   2.0000     -10.302412      -280.3429
  11   2.0000     -10.296915      -280.1933
  12   2.0000     -10.296868      -280.1920
  13   2.0000     -10.291640      -280.0498
  14   2.0000     -10.290198      -280.0105
  15   2.0000     -10.273924      -279.5677
  16   2.0000      -8.085868      -220.0276
  17   2.0000      -8.079721      -219.8604
  18   2.0000      -6.044316      -164.4742
  19   2.0000      -6.040383      -164.3672
  20   2.0000      -6.038192      -164.3076
  21   2.0000      -6.036700      -164.2670
  22   2.0000      -6.033915      -164.1912
  23   2.0000      -6.030659      -164.1026
  24   2.0000      -1.010036       -27.4845
  25   2.0000      -0.986572       -26.8460
  26   2.0000      -0.901307       -24.5258
  27   2.0000      -0.894858       -24.3503
  28   2.0000      -0.871029       -23.7019
  29   2.0000      -0.846997       -23.0480
  30   2.0000      -0.840533       -22.8721
  31   2.0000      -0.811798       -22.0902
  32   2.0000      -0.780938       -21.2504
  33   2.0000      -0.774595       -21.0778
  34   2.0000      -0.709519       -19.3070
  35   2.0000      -0.695071       -18.9138
  36   2.0000      -0.694337       -18.8939
  37   2.0000      -0.669483       -18.2176
  38   2.0000      -0.639723       -17.4077
  39   2.0000      -0.617359       -16.7992
  40   2.0000      -0.591104       -16.0847
  41   2.0000      -0.571352       -15.5473
  42   2.0000      -0.558064       -15.1857
  43   2.0000      -0.539262       -14.6741
  44   2.0000      -0.533227       -14.5099
  45   2.0000      -0.520508       -14.1637
  46   2.0000      -0.515915       -14.0388
  47   2.0000      -0.511219       -13.9110
  48   2.0000      -0.507130       -13.7997
  49   2.0000      -0.494732       -13.4623
  50   2.0000      -0.493932       -13.4406
  51   2.0000      -0.483169       -13.1477
  52   2.0000      -0.476590       -12.9687
  53   2.0000      -0.465264       -12.6605
  54   2.0000      -0.460397       -12.5280
  55   2.0000      -0.447965       -12.1898
  56   2.0000      -0.439333       -11.9549
  57   2.0000      -0.438128       -11.9221
  58   2.0000      -0.433751       -11.8030
  59   2.0000      -0.425820       -11.5872
  60   2.0000      -0.416347       -11.3294
  61   2.0000      -0.411660       -11.2018
  62   2.0000      -0.405303       -11.0289
  63   2.0000      -0.361366        -9.8333
  64   2.0000      -0.337217        -9.1761
  65   2.0000      -0.330136        -8.9835
  66   2.0000      -0.286441        -7.7945
  67   0.0000       0.020348         0.5537
  68   0.0000       0.079111         2.1527
  69   0.0000       0.105299         2.8653
  70   0.0000       0.118751         3.2314
  71   0.0000       0.139238         3.7889

MULLIKEN ATOMIC CHARGES
-----------------------
   0 S :    0.116776
   1 C :   -0.148013
   2 C :   -0.063601
   3 C :   -0.012212
   4 C :   -0.145285
   5 H :    0.031494
   6 C :    0.034092
   7 H :    0.019428
   8 H :    0.053404
   9 C :   -0.081037
  10 H :    0.049058
  11 H :    0.039816
  12 C :   -0.082938
  13 H :    0.047517
  14 H :    0.049488
  15 H :    0.028430
  16 S :    0.092651
  17 C :   -0.047926
  18 C :   -0.014447
  19 C :   -0.087587
  20 C :   -0.121692
  21 H :    0.007025
  22 C :    0.097147
  23 H :    0.015514
  24 H :    0.005943
  25 C :   -0.087568
  26 H :    0.038782
  27 H :    0.049892
  28 C :   -0.036809
  29 H :    0.027811
  30 H :    0.024272
  31 H :    0.010351
  32 H :    0.063355
  33 H :    0.026871
Sum of atomic charges:    0.0000000

LOEWDIN ATOMIC CHARGES
----------------------
   0 S :    0.411688
   1 C :   -0.194158
   2 C :   -0.066218
   3 C :   -0.070378
   4 C :   -0.196665
   5 H :    0.034586
   6 C :   -0.033227
   7 H :    0.031454
   8 H :    0.036379
   9 C :   -0.042666
  10 H :    0.031430
  11 H :    0.027997
  12 C :   -0.076833
  13 H :    0.033590
  14 H :    0.031389
  15 H :    0.020051
  16 S :    0.423478
  17 C :   -0.172194
  18 C :   -0.067094
  19 C :   -0.060188
  20 C :   -0.211777
  21 H :    0.026470
  22 C :   -0.020096
  23 H :    0.027008
  24 H :    0.016812
  25 C :   -0.044299
  26 H :    0.028814
  27 H :    0.036268
  28 C :   -0.071806
  29 H :    0.025504
  30 H :    0.027909
  31 H :    0.013429
  32 H :    0.029303
  33 H :    0.014041

  Mayer bond orders larger than 0.100000
B(  0-S ,  1-C ) :   1.1355 B(  0-S ,  4-C ) :   1.1646 B(  1-C ,  2-C ) :   1.6122
B(  1-C , 32-H ) :   0.9636 B(  2-C ,  3-C ) :   1.2743 B(  2-C ,  6-C ) :   0.9867
B(  3-C ,  4-C ) :   1.5429 B(  3-C ,  5-H ) :   0.9748 B(  4-C , 20-C ) :   1.0843
B(  6-C ,  7-H ) :   0.9423 B(  6-C ,  8-H ) :   0.9537 B(  6-C ,  9-C ) :   1.0594
B(  9-C , 10-H ) :   0.9593 B(  9-C , 11-H ) :   0.9572 B(  9-C , 12-C ) :   1.0592
B( 12-C , 13-H ) :   0.9771 B( 12-C , 14-H ) :   0.9776 B( 12-C , 15-H ) :   0.9755
B( 16-S , 17-C ) :   1.1632 B( 16-S , 20-C ) :   1.1494 B( 17-C , 18-C ) :   1.5659
B( 17-C , 33-H ) :   0.9827 B( 18-C , 19-C ) :   1.2892 B( 18-C , 21-H ) :   0.9970
B( 19-C , 20-C ) :   1.5484 B( 19-C , 22-C ) :   1.0312 B( 22-C , 23-H ) :   0.9395
B( 22-C , 24-H ) :   0.9363 B( 22-C , 25-C ) :   1.0559 B( 25-C , 26-H ) :   0.9578
B( 25-C , 27-H ) :   0.9561 B( 25-C , 28-C ) :   1.0758 B( 28-C , 29-H ) :   0.9741
B( 28-C , 30-H ) :   0.9741 B( 28-C , 31-H ) :   0.9750

Dispersion correction           -0.014060991
FINAL SINGLE POINT ENERGY     -1339.872976859577

DIPOLE MOMENT
-------------
                                X             Y             Z
Electronic contribution:     12.22652      17.77149      16.50902
Nuclear contribution   :    -12.30260     -18.35370     -16.77298
                        -----------------------------------------
Total Dipole Moment    :     -0.07608      -0.58221      -0.26397
                        -----------------------------------------
Magnitude (a.u.)       :      0.64377
Magnitude (Debye)      :      1.63632

Rotational constants in cm-1:     0.018912     0.008192     0.006413
Rotational constants in MHz :   566.970180   245.577073   192.271218

                             ****ORCA TERMINATED NORMALLY****
TOTAL RUN TIME: 0 days 0 hours 0 minutes 21 seconds 328 msec
