                         Program Version 4.2.1 -  RELEASE  -
|  1> ! wB97X-D3 SP def2-SVP
|  2> %pal
|  3> nprocs 24
|  4> end
|  5>
|  6> * xyz 0 1
|  7> S 	 -110.847 	 70.4171 	 -10.4094
|  8> C 	 -110.079 	 71.7353 	 -11.3563
|  9> C 	 -109.587 	 71.345 	 -12.608
| 10> C 	 -109.457 	 69.9 	 -12.6202
| 11> C 	 -110.184 	 69.2576 	 -11.64
| 12> H 	 -109.051 	 69.4656 	 -13.4632
| 13> C 	 -108.963 	 72.298 	 -13.587
| 14> H 	 -109.698 	 73.1035 	 -13.7607
| 15> H 	 -108.916 	 71.7178 	 -14.432
| 16> C 	 -107.565 	 72.9751 	 -13.3372
| 17> H 	 -107.84 	 73.4794 	 -12.3467
| 18> H 	 -106.868 	 72.1776 	 -13.0245
| 19> C 	 -107.053 	 73.9593 	 -14.4235
| 20> H 	 -107.607 	 74.9039 	 -14.5205
| 21> H 	 -106.028 	 74.1594 	 -14.3227
| 22> H 	 -106.975 	 73.5158 	 -15.4311
| 23> S 	 -110.023 	 66.9607 	 -10.2058
| 24> C 	 -110.483 	 65.4199 	 -10.9255
| 25> C 	 -111.059 	 65.6702 	 -12.1874
| 26> C 	 -110.975 	 67.0192 	 -12.6075
| 27> C 	 -110.435 	 67.8442 	 -11.6704
| 28> H 	 -111.404 	 64.7804 	 -12.6815
| 29> C 	 -111.512 	 67.5806 	 -13.9283
| 30> H 	 -111.598 	 66.7765 	 -14.6535
| 31> H 	 -110.881 	 68.2468 	 -14.4132
| 32> C 	 -112.914 	 68.1626 	 -13.9199
| 33> H 	 -113.029 	 68.7506 	 -14.8479
| 34> H 	 -113.081 	 68.8615 	 -13.1053
| 35> C 	 -114.016 	 67.1399 	 -13.8084
| 36> H 	 -113.874 	 66.371 	 -14.5648
| 37> H 	 -114.929 	 67.6166 	 -13.9657
| 38> H 	 -114.146 	 66.7349 	 -12.7587
| 39> H 	 -110.149 	 72.8408 	 -11.0889
| 40> H 	 -110.421 	 64.4917 	 -10.4826
| 41> *
| 42>
| 43>                          ****END OF INPUT****

CARTESIAN COORDINATES (ANGSTROEM)
---------------------------------
  S    -110.847000   70.417100  -10.409400
  C    -110.079000   71.735300  -11.356300
  C    -109.587000   71.345000  -12.608000
  C    -109.457000   69.900000  -12.620200
  C    -110.184000   69.257600  -11.640000
  H    -109.051000   69.465600  -13.463200
  C    -108.963000   72.298000  -13.587000
  H    -109.698000   73.103500  -13.760700
  H    -108.916000   71.717800  -14.432000
  C    -107.565000   72.975100  -13.337200
  H    -107.840000   73.479400  -12.346700
  H    -106.868000   72.177600  -13.024500
  C    -107.053000   73.959300  -14.423500
  H    -107.607000   74.903900  -14.520500
  H    -106.028000   74.159400  -14.322700
  H    -106.975000   73.515800  -15.431100
  S    -110.023000   66.960700  -10.205800
  C    -110.483000   65.419900  -10.925500
  C    -111.059000   65.670200  -12.187400
  C    -110.975000   67.019200  -12.607500
  C    -110.435000   67.844200  -11.670400
  H    -111.404000   64.780400  -12.681500
  C    -111.512000   67.580600  -13.928300
  H    -111.598000   66.776500  -14.653500
  H    -110.881000   68.246800  -14.413200
  C    -112.914000   68.162600  -13.919900
  H    -113.029000   68.750600  -14.847900
  H    -113.081000   68.861500  -13.105300
  C    -114.016000   67.139900  -13.808400
  H    -113.874000   66.371000  -14.564800
  H    -114.929000   67.616600  -13.965700
  H    -114.146000   66.734900  -12.758700
  H    -110.149000   72.840800  -11.088900
  H    -110.421000   64.491700  -10.482600

 Total Charge           Charge          ....    0
 Multiplicity           Mult            ....    1
 Number of Electrons    NEL             ....  134
 Basis Dimension        Dim             ....  322

ORBITAL ENERGIES
----------------

  NO   OCC          E(Eh)            E(eV)
   0   2.0000     -88.972378     -2421.0615
   1   2.0000     -88.962024     -2420.7798
   2   2.0000     -10.332618      -281.1648
   3   2.0000     -10.323428      -280.9148
   4   2.0000     -10.321445      -280.8608
   5   2.0000     -10.316092      -280.7151
   6   2.0000     -10.303246      -280.3656
   7   2.0000     -10.303171      -280.3635
   8   2.0000     -10.301603      -280.3209
   9   2.0000     -10.295720      -280.1608
  10   2.0000     -10.292407      -280.0706
  11   2.0000     -10.288554      -279.9658
  12   2.0000     -10.285195      -279.8744
  13   2.0000     -10.282519      -279.8016
  14   2.0000     -10.278324      -279.6874
  15   2.0000     -10.269376      -279.4439
  16   2.0000      -8.085048      -220.0053
  17   2.0000      -8.076652      -219.7769
  18   2.0000      -6.043769      -164.4593
  19   2.0000      -6.040061      -164.3584
  20   2.0000      -6.035497      -164.2342
  21   2.0000      -6.035107      -164.2236
  22   2.0000      -6.031060      -164.1135
  23   2.0000      -6.027595      -164.0192
  24   2.0000      -1.003237       -27.2995
  25   2.0000      -0.975533       -26.5456
  26   2.0000      -0.910762       -24.7831
  27   2.0000      -0.906304       -24.6618
  28   2.0000      -0.867561       -23.6075
  29   2.0000      -0.851834       -23.1796
  30   2.0000      -0.845114       -22.9967
  31   2.0000      -0.814661       -22.1681
  32   2.0000      -0.787253       -21.4223
  33   2.0000      -0.775381       -21.0992
  34   2.0000      -0.708897       -19.2901
  35   2.0000      -0.707327       -19.2473
  36   2.0000      -0.687972       -18.7207
  37   2.0000      -0.667991       -18.1770
  38   2.0000      -0.633414       -17.2361
  39   2.0000      -0.622009       -16.9257
  40   2.0000      -0.597401       -16.2561
  41   2.0000      -0.565439       -15.3864
  42   2.0000      -0.562503       -15.3065
  43   2.0000      -0.555675       -15.1207
  44   2.0000      -0.542858       -14.7719
  45   2.0000      -0.524575       -14.2744
  46   2.0000      -0.515976       -14.0404
  47   2.0000      -0.508782       -13.8447
  48   2.0000      -0.504171       -13.7192
  49   2.0000      -0.499196       -13.5838
  50   2.0000      -0.480898       -13.0859
  51   2.0000      -0.479377       -13.0445
  52   2.0000      -0.474917       -12.9231
  53   2.0000      -0.462369       -12.5817
  54   2.0000      -0.459239       -12.4965
  55   2.0000      -0.456729       -12.4282
  56   2.0000      -0.439018       -11.9463
  57   2.0000      -0.435883       -11.8610
  58   2.0000      -0.429783       -11.6950
  59   2.0000      -0.428826       -11.6689
  60   2.0000      -0.421133       -11.4596
  61   2.0000      -0.410413       -11.1679
  62   2.0000      -0.408485       -11.1154
  63   2.0000      -0.341484        -9.2922
  64   2.0000      -0.332324        -9.0430
  65   2.0000      -0.330767        -9.0006
  66   2.0000      -0.292182        -7.9507
  67   0.0000       0.025495         0.6937
  68   0.0000       0.061476         1.6728
  69   0.0000       0.097679         2.6580
  70   0.0000       0.120918         3.2904
  71   0.0000       0.128711         3.5024

MULLIKEN ATOMIC CHARGES
-----------------------
   0 S :    0.112759
   1 C :   -0.138203
   2 C :   -0.133389
   3 C :    0.068684
   4 C :   -0.113207
   5 H :   -0.009257
   6 C :    0.078221
   7 H :    0.032670
   8 H :   -0.010308
   9 C :   -0.083076
  10 H :    0.029474
  11 H :    0.038848
  12 C :   -0.023976
  13 H :    0.046634
  14 H :    0.023320
  15 H :    0.025997
  16 S :    0.096789
  17 C :   -0.071306
  18 C :   -0.053278
  19 C :    0.004651
  20 C :   -0.183784
  21 H :    0.016473
  22 C :    0.128303
  23 H :   -0.002293
  24 H :   -0.001953
  25 C :   -0.082199
  26 H :    0.025911
  27 H :    0.027790
  28 C :   -0.032021
  29 H :    0.020800
  30 H :    0.014036
  31 H :    0.043968
  32 H :    0.072392
  33 H :    0.030530
Sum of atomic charges:    0.0000000

LOEWDIN ATOMIC CHARGES
----------------------
   0 S :    0.362124
   1 C :   -0.188343
   2 C :   -0.062550
   3 C :   -0.041942
   4 C :   -0.175360
   5 H :    0.017271
   6 C :   -0.036384
   7 H :    0.035665
   8 H :    0.012375
   9 C :   -0.042050
  10 H :    0.030408
  11 H :    0.028478
  12 C :   -0.070513
  13 H :    0.032544
  14 H :    0.025215
  15 H :    0.031342
  16 S :    0.398060
  17 C :   -0.167352
  18 C :   -0.067264
  19 C :   -0.054052
  20 C :   -0.192418
  21 H :    0.030861
  22 C :   -0.025041
  23 H :    0.027464
  24 H :    0.018796
  25 C :   -0.038407
  26 H :    0.026811
  27 H :    0.023566
  28 C :   -0.064590
  29 H :    0.019831
  30 H :    0.017881
  31 H :    0.035041
  32 H :    0.038499
  33 H :    0.014031

  Mayer bond orders larger than 0.100000
B(  0-S ,  1-C ) :   1.1218 B(  0-S ,  4-C ) :   1.1064 B(  1-C ,  2-C ) :   1.6262
B(  1-C , 32-H ) :   0.9551 B(  2-C ,  3-C ) :   1.2181 B(  2-C ,  6-C ) :   1.0460
B(  3-C ,  4-C ) :   1.5938 B(  3-C ,  5-H ) :   0.9912 B(  4-C , 20-C ) :   1.0631
B(  6-C ,  7-H ) :   0.9370 B(  6-C ,  8-H ) :   0.9264 B(  6-C ,  9-C ) :   1.0453
B(  9-C , 10-H ) :   0.9574 B(  9-C , 11-H ) :   0.9590 B(  9-C , 12-C ) :   1.0667
B( 12-C , 13-H ) :   0.9754 B( 12-C , 14-H ) :   0.9712 B( 12-C , 15-H ) :   0.9720
B( 16-S , 17-C ) :   1.1609 B( 16-S , 20-C ) :   1.1370 B( 17-C , 18-C ) :   1.5973
B( 17-C , 20-C ) :   0.1082 B( 17-C , 33-H ) :   0.9799 B( 18-C , 19-C ) :   1.2298
B( 18-C , 21-H ) :   0.9965 B( 19-C , 20-C ) :   1.5989 B( 19-C , 22-C ) :   1.0407
B( 22-C , 23-H ) :   0.9252 B( 22-C , 24-H ) :   0.9282 B( 22-C , 25-C ) :   1.0782
B( 25-C , 26-H ) :   0.9524 B( 25-C , 27-H ) :   0.9531 B( 25-C , 28-C ) :   1.0920
B( 28-C , 29-H ) :   0.9734 B( 28-C , 30-H ) :   0.9694 B( 28-C , 31-H ) :   0.9716

Dispersion correction           -0.014449372
FINAL SINGLE POINT ENERGY     -1339.851662195668

DIPOLE MOMENT
-------------
                                X             Y             Z
Electronic contribution:      0.32146     -11.62736      22.33552
Nuclear contribution   :     -0.29738      11.80363     -23.07206
                        -----------------------------------------
Total Dipole Moment    :      0.02408       0.17627      -0.73654
                        -----------------------------------------
Magnitude (a.u.)       :      0.75772
Magnitude (Debye)      :      1.92598

Rotational constants in cm-1:     0.020978     0.007450     0.006597
Rotational constants in MHz :   628.895975   223.332322   197.783229

                             ****ORCA TERMINATED NORMALLY****
TOTAL RUN TIME: 0 days 0 hours 0 minutes 20 seconds 373 msec
