                         Program Version 4.2.1 -  RELEASE  -
|  1> ! wB97X-D3 SP def2-SVP
|  2> %pal
|  3> nprocs 24
|  4> end
|  5>
|  6> * xyz 0 1
|  7> S 	 -116.858 	 16.6686 	 -108.409
|  8> C 	 -116.614 	 18.4116 	 -107.951
|  9> C 	 -117.854 	 19.0776 	 -107.927
| 10> C 	 -118.932 	 18.2776 	 -108.316
| 11> C 	 -118.625 	 16.9677 	 -108.556
| 12> H 	 -119.976 	 18.6097 	 -108.407
| 13> C 	 -117.917 	 20.5876 	 -107.676
| 14> H 	 -119.016 	 20.7797 	 -107.556
| 15> H 	 -117.666 	 21.0078 	 -108.616
| 16> C 	 -117.116 	 21.2019 	 -106.544
| 17> H 	 -117.154 	 20.5923 	 -105.588
| 18> H 	 -116.1 	 21.4017 	 -106.845
| 19> C 	 -117.688 	 22.5715 	 -106.094
| 20> H 	 -116.975 	 23.1093 	 -105.494
| 21> H 	 -117.79 	 23.133 	 -107.01
| 22> H 	 -118.682 	 22.605 	 -105.583
| 23> S 	 -119.903 	 14.7164 	 -107.985
| 24> C 	 -120.776 	 13.8455 	 -109.265
| 25> C 	 -120.54 	 14.3752 	 -110.512
| 26> C 	 -119.838 	 15.6444 	 -110.408
| 27> C 	 -119.499 	 15.9913 	 -109.066
| 28> H 	 -120.865 	 13.7957 	 -111.243
| 29> C 	 -119.551 	 16.4813 	 -111.644
| 30> H 	 -120.081 	 17.3788 	 -111.652
| 31> H 	 -120.115 	 15.9823 	 -112.452
| 32> C 	 -118.028 	 16.4989 	 -111.918
| 33> H 	 -117.579 	 15.5325 	 -111.612
| 34> H 	 -117.6 	 17.1995 	 -111.279
| 35> C 	 -117.568 	 16.8704 	 -113.323
| 36> H 	 -116.463 	 17.0881 	 -113.206
| 37> H 	 -118.097 	 17.7207 	 -113.693
| 38> H 	 -117.726 	 16.0952 	 -114.041
| 39> H 	 -115.665 	 18.8477 	 -107.78
| 40> H 	 -121.314 	 12.8776 	 -109.176
| 41> *
| 42>
| 43>                          ****END OF INPUT****

CARTESIAN COORDINATES (ANGSTROEM)
---------------------------------
  S    -116.858000   16.668600  -108.409000
  C    -116.614000   18.411600  -107.951000
  C    -117.854000   19.077600  -107.927000
  C    -118.932000   18.277600  -108.316000
  C    -118.625000   16.967700  -108.556000
  H    -119.976000   18.609700  -108.407000
  C    -117.917000   20.587600  -107.676000
  H    -119.016000   20.779700  -107.556000
  H    -117.666000   21.007800  -108.616000
  C    -117.116000   21.201900  -106.544000
  H    -117.154000   20.592300  -105.588000
  H    -116.100000   21.401700  -106.845000
  C    -117.688000   22.571500  -106.094000
  H    -116.975000   23.109300  -105.494000
  H    -117.790000   23.133000  -107.010000
  H    -118.682000   22.605000  -105.583000
  S    -119.903000   14.716400  -107.985000
  C    -120.776000   13.845500  -109.265000
  C    -120.540000   14.375200  -110.512000
  C    -119.838000   15.644400  -110.408000
  C    -119.499000   15.991300  -109.066000
  H    -120.865000   13.795700  -111.243000
  C    -119.551000   16.481300  -111.644000
  H    -120.081000   17.378800  -111.652000
  H    -120.115000   15.982300  -112.452000
  C    -118.028000   16.498900  -111.918000
  H    -117.579000   15.532500  -111.612000
  H    -117.600000   17.199500  -111.279000
  C    -117.568000   16.870400  -113.323000
  H    -116.463000   17.088100  -113.206000
  H    -118.097000   17.720700  -113.693000
  H    -117.726000   16.095200  -114.041000
  H    -115.665000   18.847700  -107.780000
  H    -121.314000   12.877600  -109.176000

 Total Charge           Charge          ....    0
 Multiplicity           Mult            ....    1
 Number of Electrons    NEL             ....  134
 Basis Dimension        Dim             ....  322

ORBITAL ENERGIES
----------------

  NO   OCC          E(Eh)            E(eV)
   0   2.0000     -88.966260     -2420.8950
   1   2.0000     -88.963315     -2420.8149
   2   2.0000     -10.325416      -280.9689
   3   2.0000     -10.318941      -280.7927
   4   2.0000     -10.317498      -280.7534
   5   2.0000     -10.317467      -280.7526
   6   2.0000     -10.310317      -280.5580
   7   2.0000     -10.302284      -280.3394
   8   2.0000     -10.293519      -280.1009
   9   2.0000     -10.293448      -280.0989
  10   2.0000     -10.293117      -280.0899
  11   2.0000     -10.286022      -279.8969
  12   2.0000     -10.284321      -279.8506
  13   2.0000     -10.279197      -279.7112
  14   2.0000     -10.275331      -279.6060
  15   2.0000     -10.272078      -279.5175
  16   2.0000      -8.078785      -219.8349
  17   2.0000      -8.078181      -219.8185
  18   2.0000      -6.037346      -164.2845
  19   2.0000      -6.036697      -164.2669
  20   2.0000      -6.033682      -164.1848
  21   2.0000      -6.032612      -164.1557
  22   2.0000      -6.029519      -164.0715
  23   2.0000      -6.028975      -164.0567
  24   2.0000      -1.003108       -27.2959
  25   2.0000      -0.975221       -26.5371
  26   2.0000      -0.911338       -24.7988
  27   2.0000      -0.903636       -24.5892
  28   2.0000      -0.874181       -23.7877
  29   2.0000      -0.846909       -23.0456
  30   2.0000      -0.845451       -23.0059
  31   2.0000      -0.818433       -22.2707
  32   2.0000      -0.782314       -21.2878
  33   2.0000      -0.762833       -20.7577
  34   2.0000      -0.710968       -19.3464
  35   2.0000      -0.703728       -19.1494
  36   2.0000      -0.693811       -18.8795
  37   2.0000      -0.660550       -17.9745
  38   2.0000      -0.641213       -17.4483
  39   2.0000      -0.616260       -16.7693
  40   2.0000      -0.590107       -16.0576
  41   2.0000      -0.571983       -15.5644
  42   2.0000      -0.568281       -15.4637
  43   2.0000      -0.555647       -15.1199
  44   2.0000      -0.530988       -14.4489
  45   2.0000      -0.525512       -14.2999
  46   2.0000      -0.520720       -14.1695
  47   2.0000      -0.512857       -13.9555
  48   2.0000      -0.502704       -13.6793
  49   2.0000      -0.496296       -13.5049
  50   2.0000      -0.493023       -13.4158
  51   2.0000      -0.476178       -12.9575
  52   2.0000      -0.471398       -12.8274
  53   2.0000      -0.461857       -12.5678
  54   2.0000      -0.453888       -12.3509
  55   2.0000      -0.447532       -12.1780
  56   2.0000      -0.443528       -12.0690
  57   2.0000      -0.438352       -11.9282
  58   2.0000      -0.433766       -11.8034
  59   2.0000      -0.425919       -11.5898
  60   2.0000      -0.414789       -11.2870
  61   2.0000      -0.409488       -11.1427
  62   2.0000      -0.407731       -11.0949
  63   2.0000      -0.338861        -9.2209
  64   2.0000      -0.331399        -9.0178
  65   2.0000      -0.317435        -8.6378
  66   2.0000      -0.299109        -8.1392
  67   0.0000       0.038770         1.0550
  68   0.0000       0.045501         1.2381
  69   0.0000       0.108491         2.9522
  70   0.0000       0.115279         3.1369
  71   0.0000       0.131710         3.5840

MULLIKEN ATOMIC CHARGES
-----------------------
   0 S :    0.101897
   1 C :   -0.126446
   2 C :   -0.069642
   3 C :    0.028394
   4 C :   -0.152902
   5 H :    0.022395
   6 C :    0.067576
   7 H :    0.022730
   8 H :    0.036672
   9 C :   -0.077366
  10 H :    0.050050
  11 H :    0.031243
  12 C :   -0.067472
  13 H :    0.029710
  14 H :    0.018255
  15 H :    0.047884
  16 S :    0.108731
  17 C :   -0.110134
  18 C :    0.019062
  19 C :   -0.051098
  20 C :   -0.180427
  21 H :   -0.037899
  22 C :    0.127982
  23 H :    0.015498
  24 H :   -0.000675
  25 C :   -0.081344
  26 H :    0.034022
  27 H :    0.028664
  28 C :   -0.029568
  29 H :    0.042651
  30 H :    0.020891
  31 H :    0.026577
  32 H :    0.039380
  33 H :    0.064708
Sum of atomic charges:    0.0000000

LOEWDIN ATOMIC CHARGES
----------------------
   0 S :    0.366231
   1 C :   -0.171545
   2 C :   -0.060668
   3 C :   -0.059929
   4 C :   -0.187259
   5 H :    0.039735
   6 C :   -0.034054
   7 H :    0.033605
   8 H :    0.031627
   9 C :   -0.043451
  10 H :    0.035149
  11 H :    0.023534
  12 C :   -0.067316
  13 H :    0.023094
  14 H :    0.019930
  15 H :    0.030247
  16 S :    0.414856
  17 C :   -0.178766
  18 C :   -0.057995
  19 C :   -0.034441
  20 C :   -0.225381
  21 H :    0.009533
  22 C :   -0.031927
  23 H :    0.023328
  24 H :    0.029245
  25 C :   -0.038425
  26 H :    0.028743
  27 H :    0.014025
  28 C :   -0.062103
  29 H :    0.037642
  30 H :    0.019356
  31 H :    0.017932
  32 H :    0.018992
  33 H :    0.036454

  Mayer bond orders larger than 0.100000
B(  0-S ,  1-C ) :   1.1265 B(  0-S ,  4-C ) :   1.1220 B(  1-C ,  2-C ) :   1.5938
B(  1-C ,  4-C ) :   0.1085 B(  1-C , 32-H ) :   0.9794 B(  2-C ,  3-C ) :   1.2475
B(  2-C ,  6-C ) :   1.0056 B(  3-C ,  4-C ) :   1.5970 B(  3-C ,  5-H ) :   0.9904
B(  4-C , 20-C ) :   1.0576 B(  6-C ,  7-H ) :   0.9485 B(  6-C ,  8-H ) :   0.9285
B(  6-C ,  9-C ) :   1.0643 B(  9-C , 10-H ) :   0.9644 B(  9-C , 11-H ) :   0.9472
B(  9-C , 12-C ) :   1.0849 B( 12-C , 13-H ) :   0.9750 B( 12-C , 14-H ) :   0.9738
B( 12-C , 15-H ) :   0.9766 B( 16-S , 17-C ) :   1.1548 B( 16-S , 20-C ) :   1.1481
B( 17-C , 18-C ) :   1.6295 B( 17-C , 33-H ) :   0.9588 B( 18-C , 19-C ) :   1.2235
B( 18-C , 21-H ) :   1.0131 B( 19-C , 20-C ) :   1.5591 B( 19-C , 22-C ) :   1.0387
B( 22-C , 23-H ) :   0.9308 B( 22-C , 24-H ) :   0.9326 B( 22-C , 25-C ) :   1.0369
B( 25-C , 26-H ) :   0.9595 B( 25-C , 27-H ) :   0.9542 B( 25-C , 28-C ) :   1.0908
B( 28-C , 29-H ) :   0.9745 B( 28-C , 30-H ) :   0.9715 B( 28-C , 31-H ) :   0.9772

Dispersion correction           -0.014499561
FINAL SINGLE POINT ENERGY     -1339.851254392622

DIPOLE MOMENT
-------------
                                X             Y             Z
Electronic contribution:     -4.38576     -22.28533       8.56857
Nuclear contribution   :      4.32618      22.76488      -8.96044
                        -----------------------------------------
Total Dipole Moment    :     -0.05959       0.47956      -0.39188
                        -----------------------------------------
Magnitude (a.u.)       :      0.62217
Magnitude (Debye)      :      1.58143

Rotational constants in cm-1:     0.020799     0.007685     0.006551
Rotational constants in MHz :   623.549681   230.399084   196.379645

                             ****ORCA TERMINATED NORMALLY****
TOTAL RUN TIME: 0 days 0 hours 0 minutes 20 seconds 304 msec
