                         Program Version 4.2.1 -  RELEASE  -
|  1> ! wB97X-D3 SP def2-SVP
|  2> %pal
|  3> nprocs 24
|  4> end
|  5>
|  6> * xyz 0 1
|  7> S 	 -106.832 	 16.3169 	 -117.296
|  8> C 	 -106.655 	 14.9312 	 -116.221
|  9> C 	 -106.952 	 15.3278 	 -114.91
| 10> C 	 -107.243 	 16.7197 	 -114.838
| 11> C 	 -107.144 	 17.3961 	 -115.994
| 12> H 	 -107.305 	 17.3161 	 -113.921
| 13> C 	 -106.92 	 14.5029 	 -113.635
| 14> H 	 -106.986 	 13.4498 	 -114.014
| 15> H 	 -107.794 	 14.6087 	 -113.011
| 16> C 	 -105.599 	 14.6879 	 -112.838
| 17> H 	 -105.624 	 14.0008 	 -111.99
| 18> H 	 -104.846 	 14.3467 	 -113.627
| 19> C 	 -105.378 	 16.0438 	 -112.19
| 20> H 	 -106.223 	 16.2657 	 -111.518
| 21> H 	 -104.471 	 16.1115 	 -111.518
| 22> H 	 -105.355 	 16.7713 	 -113.018
| 23> S 	 -108.544 	 19.5938 	 -115.565
| 24> C 	 -107.883 	 21.231 	 -115.8
| 25> C 	 -106.809 	 21.1719 	 -116.657
| 26> C 	 -106.354 	 19.8038 	 -116.93
| 27> C 	 -107.143 	 18.8498 	 -116.266
| 28> H 	 -106.406 	 22.0578 	 -117.035
| 29> C 	 -105.176 	 19.4871 	 -117.817
| 30> H 	 -105.03 	 19.9971 	 -118.755
| 31> H 	 -105.416 	 18.468 	 -118.217
| 32> C 	 -103.811 	 19.5946 	 -116.961
| 33> H 	 -103.967 	 19.1239 	 -116.031
| 34> H 	 -103.649 	 20.658 	 -116.712
| 35> C 	 -102.54 	 18.969 	 -117.662
| 36> H 	 -102.491 	 19.1395 	 -118.706
| 37> H 	 -102.382 	 17.8904 	 -117.508
| 38> H 	 -101.688 	 19.4208 	 -117.145
| 39> H 	 -106.494 	 13.8687 	 -116.457
| 40> H 	 -108.425 	 22.0962 	 -115.442
| 41> *
| 42>
| 43>                          ****END OF INPUT****

CARTESIAN COORDINATES (ANGSTROEM)
---------------------------------
  S    -106.832000   16.316900  -117.296000
  C    -106.655000   14.931200  -116.221000
  C    -106.952000   15.327800  -114.910000
  C    -107.243000   16.719700  -114.838000
  C    -107.144000   17.396100  -115.994000
  H    -107.305000   17.316100  -113.921000
  C    -106.920000   14.502900  -113.635000
  H    -106.986000   13.449800  -114.014000
  H    -107.794000   14.608700  -113.011000
  C    -105.599000   14.687900  -112.838000
  H    -105.624000   14.000800  -111.990000
  H    -104.846000   14.346700  -113.627000
  C    -105.378000   16.043800  -112.190000
  H    -106.223000   16.265700  -111.518000
  H    -104.471000   16.111500  -111.518000
  H    -105.355000   16.771300  -113.018000
  S    -108.544000   19.593800  -115.565000
  C    -107.883000   21.231000  -115.800000
  C    -106.809000   21.171900  -116.657000
  C    -106.354000   19.803800  -116.930000
  C    -107.143000   18.849800  -116.266000
  H    -106.406000   22.057800  -117.035000
  C    -105.176000   19.487100  -117.817000
  H    -105.030000   19.997100  -118.755000
  H    -105.416000   18.468000  -118.217000
  C    -103.811000   19.594600  -116.961000
  H    -103.967000   19.123900  -116.031000
  H    -103.649000   20.658000  -116.712000
  C    -102.540000   18.969000  -117.662000
  H    -102.491000   19.139500  -118.706000
  H    -102.382000   17.890400  -117.508000
  H    -101.688000   19.420800  -117.145000
  H    -106.494000   13.868700  -116.457000
  H    -108.425000   22.096200  -115.442000

 Total Charge           Charge          ....    0
 Multiplicity           Mult            ....    1
 Number of Electrons    NEL             ....  134
 Basis Dimension        Dim             ....  322

ORBITAL ENERGIES
----------------

  NO   OCC          E(Eh)            E(eV)
   0   2.0000     -88.966995     -2420.9150
   1   2.0000     -88.960683     -2420.7432
   2   2.0000     -10.331256      -281.1278
   3   2.0000     -10.328295      -281.0472
   4   2.0000     -10.321219      -280.8547
   5   2.0000     -10.318819      -280.7894
   6   2.0000     -10.312119      -280.6070
   7   2.0000     -10.303873      -280.3826
   8   2.0000     -10.295807      -280.1631
   9   2.0000     -10.295673      -280.1595
  10   2.0000     -10.293651      -280.1045
  11   2.0000     -10.292499      -280.0731
  12   2.0000     -10.289872      -280.0016
  13   2.0000     -10.289179      -279.9828
  14   2.0000     -10.284056      -279.8434
  15   2.0000     -10.276050      -279.6255
  16   2.0000      -8.081764      -219.9160
  17   2.0000      -8.075516      -219.7460
  18   2.0000      -6.040356      -164.3665
  19   2.0000      -6.036149      -164.2520
  20   2.0000      -6.034132      -164.1971
  21   2.0000      -6.032537      -164.1537
  22   2.0000      -6.029988      -164.0843
  23   2.0000      -6.026171      -163.9805
  24   2.0000      -1.010625       -27.5005
  25   2.0000      -0.983338       -26.7580
  26   2.0000      -0.911774       -24.8106
  27   2.0000      -0.894227       -24.3331
  28   2.0000      -0.870338       -23.6831
  29   2.0000      -0.847284       -23.0558
  30   2.0000      -0.838568       -22.8186
  31   2.0000      -0.819602       -22.3025
  32   2.0000      -0.783134       -21.3102
  33   2.0000      -0.767830       -20.8937
  34   2.0000      -0.706362       -19.2211
  35   2.0000      -0.693996       -18.8846
  36   2.0000      -0.693590       -18.8735
  37   2.0000      -0.667050       -18.1513
  38   2.0000      -0.639037       -17.3891
  39   2.0000      -0.617969       -16.8158
  40   2.0000      -0.595586       -16.2067
  41   2.0000      -0.579523       -15.7696
  42   2.0000      -0.551176       -14.9983
  43   2.0000      -0.547435       -14.8965
  44   2.0000      -0.538181       -14.6446
  45   2.0000      -0.523335       -14.2407
  46   2.0000      -0.517836       -14.0910
  47   2.0000      -0.512976       -13.9588
  48   2.0000      -0.503486       -13.7005
  49   2.0000      -0.495590       -13.4857
  50   2.0000      -0.490521       -13.3478
  51   2.0000      -0.484103       -13.1731
  52   2.0000      -0.472518       -12.8579
  53   2.0000      -0.463359       -12.6086
  54   2.0000      -0.457066       -12.4374
  55   2.0000      -0.445617       -12.1258
  56   2.0000      -0.441457       -12.0127
  57   2.0000      -0.431321       -11.7368
  58   2.0000      -0.430077       -11.7030
  59   2.0000      -0.420715       -11.4482
  60   2.0000      -0.418100       -11.3771
  61   2.0000      -0.412571       -11.2266
  62   2.0000      -0.410432       -11.1684
  63   2.0000      -0.346944        -9.4408
  64   2.0000      -0.333294        -9.0694
  65   2.0000      -0.324320        -8.8252
  66   2.0000      -0.295682        -8.0459
  67   0.0000       0.026915         0.7324
  68   0.0000       0.075440         2.0528
  69   0.0000       0.106965         2.9107
  70   0.0000       0.118092         3.2135
  71   0.0000       0.125305         3.4097

MULLIKEN ATOMIC CHARGES
-----------------------
   0 S :    0.111572
   1 C :   -0.118743
   2 C :   -0.122162
   3 C :    0.028638
   4 C :   -0.132984
   5 H :    0.021902
   6 C :    0.053317
   7 H :    0.021611
   8 H :    0.031049
   9 C :   -0.075554
  10 H :    0.030121
  11 H :    0.040144
  12 C :   -0.072693
  13 H :    0.031453
  14 H :    0.050587
  15 H :    0.048827
  16 S :    0.087772
  17 C :   -0.098225
  18 C :    0.000329
  19 C :   -0.035810
  20 C :   -0.153428
  21 H :    0.001043
  22 C :    0.044088
  23 H :    0.026352
  24 H :    0.020690
  25 C :   -0.072969
  26 H :    0.026744
  27 H :    0.032959
  28 C :   -0.037475
  29 H :    0.026448
  30 H :    0.038929
  31 H :    0.029268
  32 H :    0.054485
  33 H :    0.061715
Sum of atomic charges:   -0.0000000

LOEWDIN ATOMIC CHARGES
----------------------
   0 S :    0.423627
   1 C :   -0.201759
   2 C :   -0.063667
   3 C :   -0.073501
   4 C :   -0.206060
   5 H :    0.033958
   6 C :   -0.034444
   7 H :    0.034361
   8 H :    0.026676
   9 C :   -0.044030
  10 H :    0.022190
  11 H :    0.032724
  12 C :   -0.074580
  13 H :    0.026915
  14 H :    0.035498
  15 H :    0.026575
  16 S :    0.401564
  17 C :   -0.173439
  18 C :   -0.059272
  19 C :   -0.055287
  20 C :   -0.197312
  21 H :    0.023040
  22 C :   -0.042785
  23 H :    0.027852
  24 H :    0.022935
  25 C :   -0.028496
  26 H :    0.018884
  27 H :    0.025553
  28 C :   -0.067047
  29 H :    0.017417
  30 H :    0.029574
  31 H :    0.028808
  32 H :    0.035586
  33 H :    0.027941

  Mayer bond orders larger than 0.100000
B(  0-S ,  1-C ) :   1.1375 B(  0-S ,  4-C ) :   1.1532 B(  1-C ,  2-C ) :   1.6163
B(  1-C , 32-H ) :   0.9650 B(  2-C ,  3-C ) :   1.2361 B(  2-C ,  6-C ) :   1.0228
B(  3-C ,  4-C ) :   1.6023 B(  3-C ,  5-H ) :   0.9818 B(  4-C , 20-C ) :   0.9920
B(  6-C ,  7-H ) :   0.9375 B(  6-C ,  8-H ) :   0.9445 B(  6-C ,  9-C ) :   1.0667
B(  9-C , 10-H ) :   0.9552 B(  9-C , 11-H ) :   0.9531 B(  9-C , 12-C ) :   1.0797
B( 12-C , 13-H ) :   0.9693 B( 12-C , 14-H ) :   0.9705 B( 12-C , 15-H ) :   0.9690
B( 16-S , 17-C ) :   1.1410 B( 16-S , 20-C ) :   1.1576 B( 17-C , 18-C ) :   1.6096
B( 17-C , 33-H ) :   0.9726 B( 18-C , 19-C ) :   1.2096 B( 18-C , 21-H ) :   1.0035
B( 19-C , 20-C ) :   1.5937 B( 19-C , 22-C ) :   1.0503 B( 22-C , 23-H ) :   0.9402
B( 22-C , 24-H ) :   0.9382 B( 22-C , 25-C ) :   1.0339 B( 25-C , 26-H ) :   0.9610
B( 25-C , 27-H ) :   0.9642 B( 25-C , 28-C ) :   1.0682 B( 28-C , 29-H ) :   0.9785
B( 28-C , 30-H ) :   0.9790 B( 28-C , 31-H ) :   0.9752

Dispersion correction           -0.014612988
FINAL SINGLE POINT ENERGY     -1339.867642331534

DIPOLE MOMENT
-------------
                                X             Y             Z
Electronic contribution:    -20.02141       4.48003      -8.99944
Nuclear contribution   :     20.37437      -4.47414       9.25927
                        -----------------------------------------
Total Dipole Moment    :      0.35296       0.00588       0.25983
                        -----------------------------------------
Magnitude (a.u.)       :      0.43832
Magnitude (Debye)      :      1.11412

Rotational constants in cm-1:     0.016824     0.009304     0.007994
Rotational constants in MHz :   504.375481   278.930298   239.642737

                             ****ORCA TERMINATED NORMALLY****
TOTAL RUN TIME: 0 days 0 hours 0 minutes 21 seconds 925 msec
