                         Program Version 4.2.1 -  RELEASE  -
|  1> ! wB97X-D3 SP def2-SVP
|  2> %pal
|  3> nprocs 24
|  4> end
|  5>
|  6> * xyz 0 1
|  7> S 	 -52.676 	 -51.7685 	 -83.7295
|  8> C 	 -52.2692 	 -52.9148 	 -82.4322
|  9> C 	 -52.9041 	 -52.5142 	 -81.2615
| 10> C 	 -53.7184 	 -51.4029 	 -81.4514
| 11> C 	 -53.7838 	 -50.8727 	 -82.7531
| 12> H 	 -54.4728 	 -51.0967 	 -80.6504
| 13> C 	 -52.6185 	 -53.1941 	 -79.9001
| 14> H 	 -52.668 	 -54.2947 	 -79.9713
| 15> H 	 -53.5129 	 -53.0019 	 -79.3104
| 16> C 	 -51.2534 	 -52.6854 	 -79.3264
| 17> H 	 -50.5141 	 -52.8661 	 -80.0568
| 18> H 	 -51.3188 	 -51.5542 	 -79.055
| 19> C 	 -50.8713 	 -53.4145 	 -77.9833
| 20> H 	 -50.4583 	 -54.3794 	 -78.216
| 21> H 	 -50.2198 	 -52.7923 	 -77.3464
| 22> H 	 -51.7189 	 -53.6625 	 -77.3431
| 23> S 	 -55.5997 	 -48.8644 	 -82.0996
| 24> C 	 -56.1175 	 -47.7148 	 -83.3705
| 25> C 	 -55.982 	 -48.3805 	 -84.556
| 26> C 	 -55.0791 	 -49.4555 	 -84.5421
| 27> C 	 -54.7106 	 -49.8481 	 -83.2506
| 28> H 	 -56.4729 	 -47.9617 	 -85.3902
| 29> C 	 -54.7781 	 -50.0801 	 -85.8604
| 30> H 	 -55.6104 	 -49.8025 	 -86.5786
| 31> H 	 -54.8077 	 -51.1868 	 -85.804
| 32> C 	 -53.3962 	 -49.7221 	 -86.448
| 33> H 	 -52.5417 	 -49.9464 	 -85.7701
| 34> H 	 -53.2894 	 -48.635 	 -86.5639
| 35> C 	 -53.1672 	 -50.377 	 -87.8032
| 36> H 	 -53.1438 	 -51.4306 	 -87.6408
| 37> H 	 -52.1273 	 -50.0773 	 -88.1755
| 38> H 	 -53.8501 	 -50.1435 	 -88.5675
| 39> H 	 -51.6789 	 -53.8378 	 -82.4468
| 40> H 	 -56.7175 	 -46.8466 	 -83.304
| 41> *
| 42>
| 43>                          ****END OF INPUT****

CARTESIAN COORDINATES (ANGSTROEM)
---------------------------------
  S    -52.676000  -51.768500  -83.729500
  C    -52.269200  -52.914800  -82.432200
  C    -52.904100  -52.514200  -81.261500
  C    -53.718400  -51.402900  -81.451400
  C    -53.783800  -50.872700  -82.753100
  H    -54.472800  -51.096700  -80.650400
  C    -52.618500  -53.194100  -79.900100
  H    -52.668000  -54.294700  -79.971300
  H    -53.512900  -53.001900  -79.310400
  C    -51.253400  -52.685400  -79.326400
  H    -50.514100  -52.866100  -80.056800
  H    -51.318800  -51.554200  -79.055000
  C    -50.871300  -53.414500  -77.983300
  H    -50.458300  -54.379400  -78.216000
  H    -50.219800  -52.792300  -77.346400
  H    -51.718900  -53.662500  -77.343100
  S    -55.599700  -48.864400  -82.099600
  C    -56.117500  -47.714800  -83.370500
  C    -55.982000  -48.380500  -84.556000
  C    -55.079100  -49.455500  -84.542100
  C    -54.710600  -49.848100  -83.250600
  H    -56.472900  -47.961700  -85.390200
  C    -54.778100  -50.080100  -85.860400
  H    -55.610400  -49.802500  -86.578600
  H    -54.807700  -51.186800  -85.804000
  C    -53.396200  -49.722100  -86.448000
  H    -52.541700  -49.946400  -85.770100
  H    -53.289400  -48.635000  -86.563900
  C    -53.167200  -50.377000  -87.803200
  H    -53.143800  -51.430600  -87.640800
  H    -52.127300  -50.077300  -88.175500
  H    -53.850100  -50.143500  -88.567500
  H    -51.678900  -53.837800  -82.446800
  H    -56.717500  -46.846600  -83.304000

 Total Charge           Charge          ....    0
 Multiplicity           Mult            ....    1
 Number of Electrons    NEL             ....  134
 Basis Dimension        Dim             ....  322

ORBITAL ENERGIES
----------------

  NO   OCC          E(Eh)            E(eV)
   0   2.0000     -88.972961     -2421.0774
   1   2.0000     -88.965458     -2420.8732
   2   2.0000     -10.337272      -281.2915
   3   2.0000     -10.335405      -281.2407
   4   2.0000     -10.316609      -280.7292
   5   2.0000     -10.316435      -280.7245
   6   2.0000     -10.301398      -280.3153
   7   2.0000     -10.299790      -280.2715
   8   2.0000     -10.299146      -280.2540
   9   2.0000     -10.297336      -280.2048
  10   2.0000     -10.296727      -280.1882
  11   2.0000     -10.295323      -280.1500
  12   2.0000     -10.287486      -279.9367
  13   2.0000     -10.285012      -279.8694
  14   2.0000     -10.279681      -279.7243
  15   2.0000     -10.273237      -279.5490
  16   2.0000      -8.086403      -220.0422
  17   2.0000      -8.079322      -219.8495
  18   2.0000      -6.044981      -164.4923
  19   2.0000      -6.040894      -164.3811
  20   2.0000      -6.038086      -164.3047
  21   2.0000      -6.037342      -164.2844
  22   2.0000      -6.034148      -164.1975
  23   2.0000      -6.029654      -164.0752
  24   2.0000      -1.008288       -27.4369
  25   2.0000      -0.987277       -26.8652
  26   2.0000      -0.907827       -24.7032
  27   2.0000      -0.905092       -24.6288
  28   2.0000      -0.869293       -23.6547
  29   2.0000      -0.852200       -23.1895
  30   2.0000      -0.843635       -22.9565
  31   2.0000      -0.813068       -22.1247
  32   2.0000      -0.781154       -21.2563
  33   2.0000      -0.768505       -20.9121
  34   2.0000      -0.709527       -19.3072
  35   2.0000      -0.703080       -19.1318
  36   2.0000      -0.692926       -18.8555
  37   2.0000      -0.671096       -18.2614
  38   2.0000      -0.625508       -17.0209
  39   2.0000      -0.617987       -16.8163
  40   2.0000      -0.596814       -16.2401
  41   2.0000      -0.571942       -15.5633
  42   2.0000      -0.561963       -15.2918
  43   2.0000      -0.556244       -15.1362
  44   2.0000      -0.525632       -14.3032
  45   2.0000      -0.521557       -14.1923
  46   2.0000      -0.517771       -14.0893
  47   2.0000      -0.515348       -14.0233
  48   2.0000      -0.510656       -13.8957
  49   2.0000      -0.498308       -13.5597
  50   2.0000      -0.489587       -13.3223
  51   2.0000      -0.481526       -13.1030
  52   2.0000      -0.469115       -12.7653
  53   2.0000      -0.464030       -12.6269
  54   2.0000      -0.460970       -12.5436
  55   2.0000      -0.450054       -12.2466
  56   2.0000      -0.443145       -12.0586
  57   2.0000      -0.436664       -11.8822
  58   2.0000      -0.428575       -11.6621
  59   2.0000      -0.420876       -11.4526
  60   2.0000      -0.417644       -11.3647
  61   2.0000      -0.414694       -11.2844
  62   2.0000      -0.408286       -11.1100
  63   2.0000      -0.361756        -9.8439
  64   2.0000      -0.335735        -9.1358
  65   2.0000      -0.326722        -8.8905
  66   2.0000      -0.278935        -7.5902
  67   0.0000       0.010522         0.2863
  68   0.0000       0.078404         2.1335
  69   0.0000       0.102203         2.7811
  70   0.0000       0.118900         3.2354
  71   0.0000       0.134073         3.6483

MULLIKEN ATOMIC CHARGES
-----------------------
   0 S :    0.103440
   1 C :   -0.121635
   2 C :   -0.109547
   3 C :   -0.028920
   4 C :   -0.104053
   5 H :    0.038315
   6 C :    0.051248
   7 H :    0.029192
   8 H :    0.018677
   9 C :   -0.071833
  10 H :    0.029250
  11 H :    0.054830
  12 C :   -0.047892
  13 H :    0.027660
  14 H :    0.041820
  15 H :    0.025618
  16 S :    0.081453
  17 C :   -0.068613
  18 C :   -0.027717
  19 C :   -0.043825
  20 C :   -0.088552
  21 H :    0.005675
  22 C :    0.008906
  23 H :    0.034268
  24 H :    0.031938
  25 C :   -0.089954
  26 H :    0.038451
  27 H :    0.021214
  28 C :   -0.024844
  29 H :    0.023633
  30 H :    0.036494
  31 H :    0.026040
  32 H :    0.053623
  33 H :    0.045637
Sum of atomic charges:    0.0000000

LOEWDIN ATOMIC CHARGES
----------------------
   0 S :    0.430891
   1 C :   -0.203672
   2 C :   -0.065161
   3 C :   -0.088466
   4 C :   -0.193963
   5 H :    0.037493
   6 C :   -0.032005
   7 H :    0.030771
   8 H :    0.027618
   9 C :   -0.032763
  10 H :    0.017872
  11 H :    0.039752
  12 C :   -0.071467
  13 H :    0.021217
  14 H :    0.029243
  15 H :    0.024423
  16 S :    0.388132
  17 C :   -0.163571
  18 C :   -0.061772
  19 C :   -0.064355
  20 C :   -0.183133
  21 H :    0.025047
  22 C :   -0.041636
  23 H :    0.038708
  24 H :    0.027044
  25 C :   -0.048661
  26 H :    0.018971
  27 H :    0.021410
  28 C :   -0.061659
  29 H :    0.020659
  30 H :    0.035281
  31 H :    0.016360
  32 H :    0.035660
  33 H :    0.025733

  Mayer bond orders larger than 0.100000
B(  0-S ,  1-C ) :   1.1353 B(  0-S ,  4-C ) :   1.1617 B(  1-C ,  2-C ) :   1.5735
B(  1-C ,  4-C ) :   0.1041 B(  1-C , 32-H ) :   0.9649 B(  2-C ,  3-C ) :   1.3374
B(  2-C ,  6-C ) :   1.0148 B(  3-C ,  4-C ) :   1.4995 B(  3-C ,  5-H ) :   0.9678
B(  4-C , 20-C ) :   1.0980 B(  6-C ,  7-H ) :   0.9464 B(  6-C ,  8-H ) :   0.9399
B(  6-C ,  9-C ) :   1.0484 B(  9-C , 10-H ) :   0.9631 B(  9-C , 11-H ) :   0.9606
B(  9-C , 12-C ) :   1.0647 B( 12-C , 13-H ) :   0.9769 B( 12-C , 14-H ) :   0.9788
B( 12-C , 15-H ) :   0.9765 B( 16-S , 17-C ) :   1.1339 B( 16-S , 20-C ) :   1.1285
B( 17-C , 18-C ) :   1.6188 B( 17-C , 33-H ) :   0.9698 B( 18-C , 19-C ) :   1.2563
B( 18-C , 21-H ) :   0.9889 B( 19-C , 20-C ) :   1.5463 B( 19-C , 22-C ) :   1.0458
B( 22-C , 23-H ) :   0.9390 B( 22-C , 24-H ) :   0.9328 B( 22-C , 25-C ) :   1.0550
B( 25-C , 26-H ) :   0.9498 B( 25-C , 27-H ) :   0.9518 B( 25-C , 28-C ) :   1.0860
B( 28-C , 29-H ) :   0.9727 B( 28-C , 30-H ) :   0.9726 B( 28-C , 31-H ) :   0.9762

Dispersion correction           -0.013799540
FINAL SINGLE POINT ENERGY     -1339.864073236435

DIPOLE MOMENT
-------------
                                X             Y             Z
Electronic contribution:    -11.06189       8.74326      -0.38826
Nuclear contribution   :     10.97307      -8.93530       0.34503
                        -----------------------------------------
Total Dipole Moment    :     -0.08881      -0.19205      -0.04323
                        -----------------------------------------
Magnitude (a.u.)       :      0.21596
Magnitude (Debye)      :      0.54893

Rotational constants in cm-1:     0.022033     0.007614     0.005864
Rotational constants in MHz :   660.541015   228.247851   175.794441

                             ****ORCA TERMINATED NORMALLY****
TOTAL RUN TIME: 0 days 0 hours 0 minutes 20 seconds 959 msec
