                         Program Version 4.2.1 -  RELEASE  -
|  1> ! wB97X-D3 SP def2-SVP
|  2> %pal
|  3> nprocs 24
|  4> end
|  5>
|  6> * xyz 0 1
|  7> S 	 -135.166 	 66.1359 	 -64.6856
|  8> C 	 -135.178 	 67.801 	 -65.1331
|  9> C 	 -135.832 	 68.6124 	 -64.2361
| 10> C 	 -136.517 	 67.7642 	 -63.2471
| 11> C 	 -136.214 	 66.4305 	 -63.315
| 12> H 	 -137.153 	 68.1438 	 -62.5086
| 13> C 	 -135.658 	 70.1619 	 -64.2862
| 14> H 	 -134.682 	 70.3788 	 -64.7227
| 15> H 	 -135.637 	 70.5392 	 -63.2179
| 16> C 	 -136.736 	 70.8926 	 -65.1293
| 17> H 	 -137.713 	 70.7659 	 -64.6074
| 18> H 	 -136.493 	 71.9779 	 -65.1037
| 19> C 	 -136.641 	 70.4494 	 -66.5834
| 20> H 	 -137.04 	 69.4426 	 -66.8197
| 21> H 	 -137.14 	 71.1894 	 -67.0725
| 22> H 	 -135.667 	 70.5716 	 -67.0083
| 23> S 	 -137.597 	 64.0555 	 -63.0513
| 24> C 	 -137.812 	 63.399 	 -61.4206
| 25> C 	 -137.228 	 64.2437 	 -60.458
| 26> C 	 -136.635 	 65.4045 	 -60.9933
| 27> C 	 -136.711 	 65.4336 	 -62.3644
| 28> H 	 -137.114 	 64.1033 	 -59.3239
| 29> C 	 -135.981 	 66.4067 	 -60.0913
| 30> H 	 -136.12 	 66.1902 	 -58.9919
| 31> H 	 -136.401 	 67.4135 	 -60.2678
| 32> C 	 -134.463 	 66.5023 	 -60.0445
| 33> H 	 -134.127 	 67.4047 	 -59.4406
| 34> H 	 -134.058 	 66.34 	 -61.0812
| 35> C 	 -133.792 	 65.332 	 -59.1947
| 36> H 	 -133.949 	 65.4496 	 -58.158
| 37> H 	 -132.695 	 65.3362 	 -59.449
| 38> H 	 -134.104 	 64.3437 	 -59.4837
| 39> H 	 -134.577 	 68.2059 	 -65.921
| 40> H 	 -138.328 	 62.5334 	 -61.1131
| 41> *
| 42>
| 43>                          ****END OF INPUT****

CARTESIAN COORDINATES (ANGSTROEM)
---------------------------------
  S    -135.166000   66.135900  -64.685600
  C    -135.178000   67.801000  -65.133100
  C    -135.832000   68.612400  -64.236100
  C    -136.517000   67.764200  -63.247100
  C    -136.214000   66.430500  -63.315000
  H    -137.153000   68.143800  -62.508600
  C    -135.658000   70.161900  -64.286200
  H    -134.682000   70.378800  -64.722700
  H    -135.637000   70.539200  -63.217900
  C    -136.736000   70.892600  -65.129300
  H    -137.713000   70.765900  -64.607400
  H    -136.493000   71.977900  -65.103700
  C    -136.641000   70.449400  -66.583400
  H    -137.040000   69.442600  -66.819700
  H    -137.140000   71.189400  -67.072500
  H    -135.667000   70.571600  -67.008300
  S    -137.597000   64.055500  -63.051300
  C    -137.812000   63.399000  -61.420600
  C    -137.228000   64.243700  -60.458000
  C    -136.635000   65.404500  -60.993300
  C    -136.711000   65.433600  -62.364400
  H    -137.114000   64.103300  -59.323900
  C    -135.981000   66.406700  -60.091300
  H    -136.120000   66.190200  -58.991900
  H    -136.401000   67.413500  -60.267800
  C    -134.463000   66.502300  -60.044500
  H    -134.127000   67.404700  -59.440600
  H    -134.058000   66.340000  -61.081200
  C    -133.792000   65.332000  -59.194700
  H    -133.949000   65.449600  -58.158000
  H    -132.695000   65.336200  -59.449000
  H    -134.104000   64.343700  -59.483700
  H    -134.577000   68.205900  -65.921000
  H    -138.328000   62.533400  -61.113100

 Total Charge           Charge          ....    0
 Multiplicity           Mult            ....    1
 Number of Electrons    NEL             ....  134
 Basis Dimension        Dim             ....  322

ORBITAL ENERGIES
----------------

  NO   OCC          E(Eh)            E(eV)
   0   2.0000     -88.971795     -2421.0456
   1   2.0000     -88.965597     -2420.8770
   2   2.0000     -10.328896      -281.0635
   3   2.0000     -10.326959      -281.0108
   4   2.0000     -10.320774      -280.8425
   5   2.0000     -10.308515      -280.5089
   6   2.0000     -10.303437      -280.3708
   7   2.0000     -10.300605      -280.2937
   8   2.0000     -10.300271      -280.2846
   9   2.0000     -10.300159      -280.2816
  10   2.0000     -10.294793      -280.1356
  11   2.0000     -10.294715      -280.1334
  12   2.0000     -10.293105      -280.0896
  13   2.0000     -10.292467      -280.0723
  14   2.0000     -10.274540      -279.5844
  15   2.0000     -10.269081      -279.4359
  16   2.0000      -8.085428      -220.0157
  17   2.0000      -8.080728      -219.8878
  18   2.0000      -6.043977      -164.4650
  19   2.0000      -6.040102      -164.3595
  20   2.0000      -6.039255      -164.3365
  21   2.0000      -6.036196      -164.2532
  22   2.0000      -6.035190      -164.2259
  23   2.0000      -6.031434      -164.1237
  24   2.0000      -1.005601       -27.3638
  25   2.0000      -0.982943       -26.7472
  26   2.0000      -0.909113       -24.7382
  27   2.0000      -0.906737       -24.6736
  28   2.0000      -0.867896       -23.6167
  29   2.0000      -0.849232       -23.1088
  30   2.0000      -0.843442       -22.9512
  31   2.0000      -0.810808       -22.0632
  32   2.0000      -0.783718       -21.3260
  33   2.0000      -0.775339       -21.0980
  34   2.0000      -0.708096       -19.2683
  35   2.0000      -0.693190       -18.8627
  36   2.0000      -0.681908       -18.5557
  37   2.0000      -0.664197       -18.0737
  38   2.0000      -0.643845       -17.5199
  39   2.0000      -0.615935       -16.7604
  40   2.0000      -0.598081       -16.2746
  41   2.0000      -0.566524       -15.4159
  42   2.0000      -0.551974       -15.0200
  43   2.0000      -0.547110       -14.8876
  44   2.0000      -0.545159       -14.8345
  45   2.0000      -0.541911       -14.7462
  46   2.0000      -0.512683       -13.9508
  47   2.0000      -0.507508       -13.8100
  48   2.0000      -0.499079       -13.5806
  49   2.0000      -0.489718       -13.3259
  50   2.0000      -0.488017       -13.2796
  51   2.0000      -0.482399       -13.1268
  52   2.0000      -0.470207       -12.7950
  53   2.0000      -0.466918       -12.7055
  54   2.0000      -0.461514       -12.5584
  55   2.0000      -0.446606       -12.1528
  56   2.0000      -0.445201       -12.1145
  57   2.0000      -0.435217       -11.8429
  58   2.0000      -0.430945       -11.7266
  59   2.0000      -0.425606       -11.5813
  60   2.0000      -0.421734       -11.4760
  61   2.0000      -0.415753       -11.3132
  62   2.0000      -0.399825       -10.8798
  63   2.0000      -0.344413        -9.3719
  64   2.0000      -0.336546        -9.1579
  65   2.0000      -0.325724        -8.8634
  66   2.0000      -0.295735        -8.0474
  67   0.0000       0.031016         0.8440
  68   0.0000       0.067971         1.8496
  69   0.0000       0.107216         2.9175
  70   0.0000       0.111732         3.0404
  71   0.0000       0.133269         3.6264

MULLIKEN ATOMIC CHARGES
-----------------------
   0 S :    0.120159
   1 C :   -0.113752
   2 C :   -0.095305
   3 C :    0.047141
   4 C :   -0.148924
   5 H :   -0.011023
   6 C :    0.031361
   7 H :    0.025375
   8 H :    0.038182
   9 C :   -0.089451
  10 H :    0.042802
  11 H :    0.034121
  12 C :   -0.006001
  13 H :    0.059524
  14 H :    0.005219
  15 H :    0.010253
  16 S :    0.121201
  17 C :   -0.072146
  18 C :   -0.058077
  19 C :   -0.006787
  20 C :   -0.184042
  21 H :    0.043242
  22 C :    0.053760
  23 H :    0.014830
  24 H :    0.037191
  25 C :   -0.096392
  26 H :    0.047698
  27 H :    0.050910
  28 C :   -0.083088
  29 H :    0.026981
  30 H :    0.041990
  31 H :    0.028206
  32 H :    0.041364
  33 H :    0.043478
Sum of atomic charges:   -0.0000000

LOEWDIN ATOMIC CHARGES
----------------------
   0 S :    0.408886
   1 C :   -0.199175
   2 C :   -0.061335
   3 C :   -0.051956
   4 C :   -0.203627
   5 H :    0.018950
   6 C :   -0.032827
   7 H :    0.026904
   8 H :    0.034051
   9 C :   -0.040221
  10 H :    0.029091
  11 H :    0.027501
  12 C :   -0.063492
  13 H :    0.034361
  14 H :    0.016160
  15 H :    0.022948
  16 S :    0.400274
  17 C :   -0.178868
  18 C :   -0.072944
  19 C :   -0.061914
  20 C :   -0.185750
  21 H :    0.044285
  22 C :   -0.043762
  23 H :    0.035448
  24 H :    0.032769
  25 C :   -0.040568
  26 H :    0.036209
  27 H :    0.030321
  28 C :   -0.072945
  29 H :    0.012892
  30 H :    0.034295
  31 H :    0.018704
  32 H :    0.022801
  33 H :    0.022536

  Mayer bond orders larger than 0.100000
B(  0-S ,  1-C ) :   1.1427 B(  0-S ,  4-C ) :   1.1325 B(  1-C ,  2-C ) :   1.6302
B(  1-C , 32-H ) :   0.9641 B(  2-C ,  3-C ) :   1.2244 B(  2-C ,  6-C ) :   1.0045
B(  3-C ,  4-C ) :   1.5959 B(  3-C ,  5-H ) :   1.0035 B(  4-C , 20-C ) :   1.0335
B(  6-C ,  7-H ) :   0.9504 B(  6-C ,  8-H ) :   0.9469 B(  6-C ,  9-C ) :   1.0722
B(  9-C , 10-H ) :   0.9570 B(  9-C , 11-H ) :   0.9567 B(  9-C , 12-C ) :   1.0754
B( 12-C , 13-H ) :   0.9707 B( 12-C , 14-H ) :   0.9668 B( 12-C , 15-H ) :   0.9678
B( 16-S , 17-C ) :   1.1486 B( 16-S , 20-C ) :   1.1407 B( 17-C , 18-C ) :   1.5903
B( 17-C , 20-C ) :   0.1062 B( 17-C , 33-H ) :   0.9731 B( 18-C , 19-C ) :   1.2778
B( 18-C , 21-H ) :   0.9662 B( 19-C , 20-C ) :   1.5982 B( 19-C , 22-C ) :   1.0435
B( 22-C , 23-H ) :   0.9352 B( 22-C , 24-H ) :   0.9301 B( 22-C , 25-C ) :   1.0583
B( 25-C , 26-H ) :   0.9556 B( 25-C , 27-H ) :   0.9596 B( 25-C , 28-C ) :   1.0687
B( 28-C , 29-H ) :   0.9762 B( 28-C , 30-H ) :   0.9767 B( 28-C , 31-H ) :   0.9786

Dispersion correction           -0.014782461
FINAL SINGLE POINT ENERGY     -1339.865528264852

DIPOLE MOMENT
-------------
                                X             Y             Z
Electronic contribution:     -7.04999     -19.52010      -7.46812
Nuclear contribution   :      7.14841      20.11622       7.80162
                        -----------------------------------------
Total Dipole Moment    :      0.09842       0.59613       0.33350
                        -----------------------------------------
Magnitude (a.u.)       :      0.69012
Magnitude (Debye)      :      1.75416

Rotational constants in cm-1:     0.021464     0.007978     0.006838
Rotational constants in MHz :   643.467757   239.161619   205.008177

                             ****ORCA TERMINATED NORMALLY****
TOTAL RUN TIME: 0 days 0 hours 0 minutes 21 seconds 648 msec
