                         Program Version 4.2.1 -  RELEASE  -
|  1> ! wB97X-D3 SP def2-SVP
|  2> %pal
|  3> nprocs 24
|  4> end
|  5>
|  6> * xyz 0 1
|  7> S 	 -64.728 	 17.9997 	 -114.512
|  8> C 	 -63.3312 	 17.6673 	 -115.495
|  9> C 	 -63.3786 	 18.3891 	 -116.681
| 10> C 	 -64.6186 	 19.0808 	 -116.889
| 11> C 	 -65.4876 	 18.9034 	 -115.829
| 12> H 	 -64.8617 	 19.6949 	 -117.737
| 13> C 	 -62.3268 	 18.5133 	 -117.699
| 14> H 	 -61.7335 	 19.4484 	 -117.483
| 15> H 	 -62.8963 	 18.6759 	 -118.659
| 16> C 	 -61.3584 	 17.3439 	 -117.893
| 17> H 	 -60.685 	 17.2241 	 -117.066
| 18> H 	 -61.9782 	 16.4578 	 -117.989
| 19> C 	 -60.6226 	 17.5631 	 -119.159
| 20> H 	 -61.3073 	 17.5072 	 -120.069
| 21> H 	 -60.254 	 18.6125 	 -119.173
| 22> H 	 -59.8069 	 16.8342 	 -119.279
| 23> S 	 -67.2908 	 19.8228 	 -113.941
| 24> C 	 -68.8586 	 20.6019 	 -114.398
| 25> C 	 -68.9371 	 20.6902 	 -115.75
| 26> C 	 -67.8283 	 20.092 	 -116.43
| 27> C 	 -66.8072 	 19.5767 	 -115.606
| 28> H 	 -69.7951 	 21.1501 	 -116.148
| 29> C 	 -67.7914 	 19.9356 	 -117.924
| 30> H 	 -68.8078 	 19.5662 	 -118.18
| 31> H 	 -67.1345 	 19.1295 	 -118.099
| 32> C 	 -67.432 	 21.1923 	 -118.74
| 33> H 	 -66.3178 	 21.2484 	 -118.572
| 34> H 	 -67.9546 	 22.1028 	 -118.351
| 35> C 	 -67.8365 	 21.0122 	 -120.246
| 36> H 	 -67.2383 	 20.378 	 -120.864
| 37> H 	 -67.7579 	 22.0159 	 -120.721
| 38> H 	 -68.9249 	 20.6911 	 -120.337
| 39> H 	 -62.4569 	 17.1326 	 -115.151
| 40> H 	 -69.6509 	 20.9422 	 -113.78
| 41> *
| 42>
| 43>                          ****END OF INPUT****

CARTESIAN COORDINATES (ANGSTROEM)
---------------------------------
  S    -64.728000   17.999700  -114.512000
  C    -63.331200   17.667300  -115.495000
  C    -63.378600   18.389100  -116.681000
  C    -64.618600   19.080800  -116.889000
  C    -65.487600   18.903400  -115.829000
  H    -64.861700   19.694900  -117.737000
  C    -62.326800   18.513300  -117.699000
  H    -61.733500   19.448400  -117.483000
  H    -62.896300   18.675900  -118.659000
  C    -61.358400   17.343900  -117.893000
  H    -60.685000   17.224100  -117.066000
  H    -61.978200   16.457800  -117.989000
  C    -60.622600   17.563100  -119.159000
  H    -61.307300   17.507200  -120.069000
  H    -60.254000   18.612500  -119.173000
  H    -59.806900   16.834200  -119.279000
  S    -67.290800   19.822800  -113.941000
  C    -68.858600   20.601900  -114.398000
  C    -68.937100   20.690200  -115.750000
  C    -67.828300   20.092000  -116.430000
  C    -66.807200   19.576700  -115.606000
  H    -69.795100   21.150100  -116.148000
  C    -67.791400   19.935600  -117.924000
  H    -68.807800   19.566200  -118.180000
  H    -67.134500   19.129500  -118.099000
  C    -67.432000   21.192300  -118.740000
  H    -66.317800   21.248400  -118.572000
  H    -67.954600   22.102800  -118.351000
  C    -67.836500   21.012200  -120.246000
  H    -67.238300   20.378000  -120.864000
  H    -67.757900   22.015900  -120.721000
  H    -68.924900   20.691100  -120.337000
  H    -62.456900   17.132600  -115.151000
  H    -69.650900   20.942200  -113.780000

 Total Charge           Charge          ....    0
 Multiplicity           Mult            ....    1
 Number of Electrons    NEL             ....  134
 Basis Dimension        Dim             ....  322

ORBITAL ENERGIES
----------------

  NO   OCC          E(Eh)            E(eV)
   0   2.0000     -88.969120     -2420.9728
   1   2.0000     -88.962073     -2420.7811
   2   2.0000     -10.339240      -281.3450
   3   2.0000     -10.333539      -281.1899
   4   2.0000     -10.317651      -280.7576
   5   2.0000     -10.314691      -280.6770
   6   2.0000     -10.303270      -280.3662
   7   2.0000     -10.300430      -280.2889
   8   2.0000     -10.299926      -280.2752
   9   2.0000     -10.296782      -280.1897
  10   2.0000     -10.295696      -280.1601
  11   2.0000     -10.290563      -280.0205
  12   2.0000     -10.287371      -279.9336
  13   2.0000     -10.284770      -279.8628
  14   2.0000     -10.284249      -279.8487
  15   2.0000     -10.283103      -279.8174
  16   2.0000      -8.083574      -219.9652
  17   2.0000      -8.076034      -219.7601
  18   2.0000      -6.042222      -164.4172
  19   2.0000      -6.038177      -164.3071
  20   2.0000      -6.034788      -164.2149
  21   2.0000      -6.034142      -164.1974
  22   2.0000      -6.030612      -164.1013
  23   2.0000      -6.026611      -163.9924
  24   2.0000      -1.004579       -27.3360
  25   2.0000      -0.982521       -26.7357
  26   2.0000      -0.922133       -25.0925
  27   2.0000      -0.904845       -24.6221
  28   2.0000      -0.872702       -23.7474
  29   2.0000      -0.857400       -23.3311
  30   2.0000      -0.841888       -22.9089
  31   2.0000      -0.821644       -22.3581
  32   2.0000      -0.774034       -21.0625
  33   2.0000      -0.765287       -20.8245
  34   2.0000      -0.712305       -19.3828
  35   2.0000      -0.699874       -19.0445
  36   2.0000      -0.692454       -18.8426
  37   2.0000      -0.665331       -18.1046
  38   2.0000      -0.641089       -17.4449
  39   2.0000      -0.620192       -16.8763
  40   2.0000      -0.590735       -16.0747
  41   2.0000      -0.579270       -15.7627
  42   2.0000      -0.574510       -15.6332
  43   2.0000      -0.563643       -15.3375
  44   2.0000      -0.527899       -14.3648
  45   2.0000      -0.525588       -14.3020
  46   2.0000      -0.518880       -14.1194
  47   2.0000      -0.510760       -13.8985
  48   2.0000      -0.504643       -13.7320
  49   2.0000      -0.501237       -13.6393
  50   2.0000      -0.486330       -13.2337
  51   2.0000      -0.482760       -13.1366
  52   2.0000      -0.477047       -12.9811
  53   2.0000      -0.464914       -12.6510
  54   2.0000      -0.456757       -12.4290
  55   2.0000      -0.453183       -12.3317
  56   2.0000      -0.445104       -12.1119
  57   2.0000      -0.434936       -11.8352
  58   2.0000      -0.429229       -11.6799
  59   2.0000      -0.426708       -11.6113
  60   2.0000      -0.425084       -11.5671
  61   2.0000      -0.423061       -11.5121
  62   2.0000      -0.405319       -11.0293
  63   2.0000      -0.361476        -9.8363
  64   2.0000      -0.334438        -9.1005
  65   2.0000      -0.322502        -8.7757
  66   2.0000      -0.285658        -7.7731
  67   0.0000       0.020483         0.5574
  68   0.0000       0.079676         2.1681
  69   0.0000       0.098570         2.6822
  70   0.0000       0.120957         3.2914
  71   0.0000       0.129624         3.5273

MULLIKEN ATOMIC CHARGES
-----------------------
   0 S :    0.105904
   1 C :   -0.112065
   2 C :   -0.075065
   3 C :    0.001374
   4 C :   -0.091514
   5 H :    0.001340
   6 C :   -0.007758
   7 H :    0.054487
   8 H :    0.030173
   9 C :   -0.048394
  10 H :    0.030466
  11 H :    0.029768
  12 C :   -0.058475
  13 H :    0.036935
  14 H :    0.027554
  15 H :    0.039484
  16 S :    0.067312
  17 C :   -0.072913
  18 C :   -0.007472
  19 C :   -0.068941
  20 C :   -0.114422
  21 H :    0.002352
  22 C :    0.049227
  23 H :    0.020279
  24 H :    0.013043
  25 C :   -0.075231
  26 H :    0.038592
  27 H :    0.043072
  28 C :   -0.065297
  29 H :    0.032907
  30 H :    0.037267
  31 H :    0.042428
  32 H :    0.048774
  33 H :    0.044810
Sum of atomic charges:    0.0000000

LOEWDIN ATOMIC CHARGES
----------------------
   0 S :    0.403627
   1 C :   -0.204601
   2 C :   -0.064560
   3 C :   -0.062945
   4 C :   -0.175034
   5 H :    0.028682
   6 C :   -0.041447
   7 H :    0.041804
   8 H :    0.035657
   9 C :   -0.044948
  10 H :    0.021332
  11 H :    0.026580
  12 C :   -0.067266
  13 H :    0.030880
  14 H :    0.026361
  15 H :    0.026395
  16 S :    0.370343
  17 C :   -0.158618
  18 C :   -0.065226
  19 C :   -0.062642
  20 C :   -0.190231
  21 H :    0.027377
  22 C :   -0.038011
  23 H :    0.030139
  24 H :    0.021271
  25 C :   -0.040190
  26 H :    0.028219
  27 H :    0.030882
  28 C :   -0.072841
  29 H :    0.019466
  30 H :    0.029937
  31 H :    0.032910
  32 H :    0.028952
  33 H :    0.027748

  Mayer bond orders larger than 0.100000
B(  0-S ,  1-C ) :   1.1217 B(  0-S ,  4-C ) :   1.1545 B(  1-C ,  2-C ) :   1.6062
B(  1-C , 32-H ) :   0.9696 B(  2-C ,  3-C ) :   1.2431 B(  2-C ,  6-C ) :   1.0276
B(  3-C ,  4-C ) :   1.5564 B(  3-C ,  5-H ) :   0.9937 B(  4-C , 20-C ) :   1.0458
B(  6-C ,  7-H ) :   0.9145 B(  6-C ,  8-H ) :   0.9512 B(  6-C ,  9-C ) :   1.0807
B(  9-C , 10-H ) :   0.9421 B(  9-C , 11-H ) :   0.9552 B(  9-C , 12-C ) :   1.0975
B( 12-C , 13-H ) :   0.9730 B( 12-C , 14-H ) :   0.9686 B( 12-C , 15-H ) :   0.9710
B( 16-S , 17-C ) :   1.1299 B( 16-S , 20-C ) :   1.1237 B( 17-C , 18-C ) :   1.6396
B( 17-C , 33-H ) :   0.9694 B( 18-C , 19-C ) :   1.2252 B( 18-C , 21-H ) :   0.9986
B( 19-C , 20-C ) :   1.5952 B( 19-C , 22-C ) :   1.0464 B( 22-C , 23-H ) :   0.9352
B( 22-C , 24-H ) :   0.9349 B( 22-C , 25-C ) :   1.0530 B( 25-C , 26-H ) :   0.9504
B( 25-C , 27-H ) :   0.9593 B( 25-C , 28-C ) :   1.0692 B( 28-C , 29-H ) :   0.9780
B( 28-C , 30-H ) :   0.9765 B( 28-C , 31-H ) :   0.9748

Dispersion correction           -0.013472243
FINAL SINGLE POINT ENERGY     -1339.881173980396

DIPOLE MOMENT
-------------
                                X             Y             Z
Electronic contribution:    -10.01582      -2.43394      29.70164
Nuclear contribution   :     10.12924       2.63453     -30.36740
                        -----------------------------------------
Total Dipole Moment    :      0.11342       0.20059      -0.66576
                        -----------------------------------------
Magnitude (a.u.)       :      0.70451
Magnitude (Debye)      :      1.79072

Rotational constants in cm-1:     0.018280     0.008329     0.005855
Rotational constants in MHz :   548.031060   249.691639   175.531109

                             ****ORCA TERMINATED NORMALLY****
TOTAL RUN TIME: 0 days 0 hours 0 minutes 21 seconds 142 msec
