                         Program Version 4.2.1 -  RELEASE  -
|  1> ! wB97X-D3 SP def2-SVP
|  2> %pal
|  3> nprocs 24
|  4> end
|  5>
|  6> * xyz 0 1
|  7> S 	 -124.038 	 61.1667 	 -59.6426
|  8> C 	 -124.966 	 61.6495 	 -60.994
|  9> C 	 -126.183 	 62.146 	 -60.6367
| 10> C 	 -126.377 	 62.1603 	 -59.2074
| 11> C 	 -125.331 	 61.5905 	 -58.4855
| 12> H 	 -127.245 	 62.4864 	 -58.6983
| 13> C 	 -127.288 	 62.6201 	 -61.6077
| 14> H 	 -126.798 	 62.9553 	 -62.4715
| 15> H 	 -127.774 	 63.5073 	 -61.143
| 16> C 	 -128.411 	 61.6028 	 -62.0854
| 17> H 	 -128.806 	 62.1978 	 -62.8772
| 18> H 	 -127.956 	 60.7186 	 -62.5778
| 19> C 	 -129.442 	 61.2294 	 -61.0388
| 20> H 	 -130.119 	 62.1246 	 -60.8735
| 21> H 	 -130.026 	 60.3212 	 -61.3535
| 22> H 	 -128.802 	 60.9854 	 -60.1399
| 23> S 	 -126.573 	 61.4432 	 -56.0183
| 24> C 	 -125.689 	 61.3435 	 -54.5412
| 25> C 	 -124.391 	 61.0363 	 -54.8355
| 26> C 	 -124.093 	 61.0069 	 -56.2467
| 27> C 	 -125.173 	 61.3738 	 -57.0318
| 28> H 	 -123.648 	 61.073 	 -54.1041
| 29> C 	 -122.617 	 60.7308 	 -56.7338
| 30> H 	 -122.819 	 60.1008 	 -57.5745
| 31> H 	 -122.086 	 60.0831 	 -56.0062
| 32> C 	 -121.72 	 61.898 	 -57.0577
| 33> H 	 -122.292 	 62.5562 	 -57.674
| 34> H 	 -120.833 	 61.6387 	 -57.6363
| 35> C 	 -121.217 	 62.6553 	 -55.8223
| 36> H 	 -120.56 	 62.1531 	 -55.1786
| 37> H 	 -121.989 	 63.0886 	 -55.2638
| 38> H 	 -120.656 	 63.4861 	 -56.2061
| 39> H 	 -124.644 	 61.4126 	 -61.9505
| 40> H 	 -126.218 	 61.3975 	 -53.6097
| 41> *
| 42>
| 43>                          ****END OF INPUT****

CARTESIAN COORDINATES (ANGSTROEM)
---------------------------------
  S    -124.038000   61.166700  -59.642600
  C    -124.966000   61.649500  -60.994000
  C    -126.183000   62.146000  -60.636700
  C    -126.377000   62.160300  -59.207400
  C    -125.331000   61.590500  -58.485500
  H    -127.245000   62.486400  -58.698300
  C    -127.288000   62.620100  -61.607700
  H    -126.798000   62.955300  -62.471500
  H    -127.774000   63.507300  -61.143000
  C    -128.411000   61.602800  -62.085400
  H    -128.806000   62.197800  -62.877200
  H    -127.956000   60.718600  -62.577800
  C    -129.442000   61.229400  -61.038800
  H    -130.119000   62.124600  -60.873500
  H    -130.026000   60.321200  -61.353500
  H    -128.802000   60.985400  -60.139900
  S    -126.573000   61.443200  -56.018300
  C    -125.689000   61.343500  -54.541200
  C    -124.391000   61.036300  -54.835500
  C    -124.093000   61.006900  -56.246700
  C    -125.173000   61.373800  -57.031800
  H    -123.648000   61.073000  -54.104100
  C    -122.617000   60.730800  -56.733800
  H    -122.819000   60.100800  -57.574500
  H    -122.086000   60.083100  -56.006200
  C    -121.720000   61.898000  -57.057700
  H    -122.292000   62.556200  -57.674000
  H    -120.833000   61.638700  -57.636300
  C    -121.217000   62.655300  -55.822300
  H    -120.560000   62.153100  -55.178600
  H    -121.989000   63.088600  -55.263800
  H    -120.656000   63.486100  -56.206100
  H    -124.644000   61.412600  -61.950500
  H    -126.218000   61.397500  -53.609700

 Total Charge           Charge          ....    0
 Multiplicity           Mult            ....    1
 Number of Electrons    NEL             ....  134
 Basis Dimension        Dim             ....  322

ORBITAL ENERGIES
----------------

  NO   OCC          E(Eh)            E(eV)
   0   2.0000     -88.966585     -2420.9039
   1   2.0000     -88.962117     -2420.7823
   2   2.0000     -10.339315      -281.3471
   3   2.0000     -10.331639      -281.1382
   4   2.0000     -10.316410      -280.7238
   5   2.0000     -10.307339      -280.4769
   6   2.0000     -10.306695      -280.4594
   7   2.0000     -10.302599      -280.3480
   8   2.0000     -10.295747      -280.1615
   9   2.0000     -10.294126      -280.1174
  10   2.0000     -10.290381      -280.0155
  11   2.0000     -10.290260      -280.0122
  12   2.0000     -10.288441      -279.9627
  13   2.0000     -10.287441      -279.9355
  14   2.0000     -10.278862      -279.7020
  15   2.0000     -10.261982      -279.2427
  16   2.0000      -8.081021      -219.8958
  17   2.0000      -8.078019      -219.8141
  18   2.0000      -6.039632      -164.3467
  19   2.0000      -6.036559      -164.2631
  20   2.0000      -6.035468      -164.2334
  21   2.0000      -6.032304      -164.1473
  22   2.0000      -6.031792      -164.1334
  23   2.0000      -6.028747      -164.0505
  24   2.0000      -1.010149       -27.4875
  25   2.0000      -0.989840       -26.9349
  26   2.0000      -0.908197       -24.7133
  27   2.0000      -0.903672       -24.5902
  28   2.0000      -0.874155       -23.7870
  29   2.0000      -0.851098       -23.1596
  30   2.0000      -0.842919       -22.9370
  31   2.0000      -0.819258       -22.2931
  32   2.0000      -0.786041       -21.3893
  33   2.0000      -0.775478       -21.1018
  34   2.0000      -0.707057       -19.2400
  35   2.0000      -0.696464       -18.9517
  36   2.0000      -0.692644       -18.8478
  37   2.0000      -0.672013       -18.2864
  38   2.0000      -0.646047       -17.5798
  39   2.0000      -0.612984       -16.6802
  40   2.0000      -0.595754       -16.2113
  41   2.0000      -0.574158       -15.6236
  42   2.0000      -0.556815       -15.1517
  43   2.0000      -0.552335       -15.0298
  44   2.0000      -0.547750       -14.9050
  45   2.0000      -0.539624       -14.6839
  46   2.0000      -0.517284       -14.0760
  47   2.0000      -0.514621       -14.0035
  48   2.0000      -0.508723       -13.8431
  49   2.0000      -0.496857       -13.5202
  50   2.0000      -0.487797       -13.2736
  51   2.0000      -0.483518       -13.1572
  52   2.0000      -0.475161       -12.9298
  53   2.0000      -0.469400       -12.7730
  54   2.0000      -0.462936       -12.5971
  55   2.0000      -0.442268       -12.0347
  56   2.0000      -0.439996       -11.9729
  57   2.0000      -0.436013       -11.8645
  58   2.0000      -0.429555       -11.6888
  59   2.0000      -0.428008       -11.6467
  60   2.0000      -0.417154       -11.3513
  61   2.0000      -0.410600       -11.1730
  62   2.0000      -0.404969       -11.0198
  63   2.0000      -0.368006       -10.0140
  64   2.0000      -0.331234        -9.0133
  65   2.0000      -0.329456        -8.9650
  66   2.0000      -0.286784        -7.8038
  67   0.0000       0.019783         0.5383
  68   0.0000       0.086927         2.3654
  69   0.0000       0.116043         3.1577
  70   0.0000       0.119892         3.2624
  71   0.0000       0.128906         3.5077

MULLIKEN ATOMIC CHARGES
-----------------------
   0 S :    0.078508
   1 C :   -0.083735
   2 C :   -0.074828
   3 C :    0.004444
   4 C :   -0.118899
   5 H :    0.004690
   6 C :    0.052395
   7 H :    0.008647
   8 H :    0.030314
   9 C :   -0.059901
  10 H :    0.022397
  11 H :    0.030531
  12 C :   -0.082882
  13 H :    0.046358
  14 H :    0.052600
  15 H :    0.050863
  16 S :    0.081843
  17 C :   -0.087355
  18 C :    0.008415
  19 C :   -0.110631
  20 C :   -0.099498
  21 H :    0.002361
  22 C :    0.050930
  23 H :    0.029143
  24 H :    0.021417
  25 C :   -0.024542
  26 H :    0.016462
  27 H :    0.029700
  28 C :   -0.019225
  29 H :    0.016088
  30 H :    0.020697
  31 H :    0.018588
  32 H :    0.022894
  33 H :    0.061209
Sum of atomic charges:    0.0000000

LOEWDIN ATOMIC CHARGES
----------------------
   0 S :    0.420407
   1 C :   -0.194115
   2 C :   -0.064060
   3 C :   -0.067446
   4 C :   -0.169974
   5 H :    0.021099
   6 C :   -0.026998
   7 H :    0.022003
   8 H :    0.034204
   9 C :   -0.041747
  10 H :    0.018648
  11 H :    0.025596
  12 C :   -0.078705
  13 H :    0.033240
  14 H :    0.034303
  15 H :    0.035222
  16 S :    0.418646
  17 C :   -0.182580
  18 C :   -0.066826
  19 C :   -0.058929
  20 C :   -0.200281
  21 H :    0.021031
  22 C :   -0.037248
  23 H :    0.016211
  24 H :    0.031834
  25 C :   -0.036966
  26 H :    0.016207
  27 H :    0.028267
  28 C :   -0.056775
  29 H :    0.015618
  30 H :    0.018062
  31 H :    0.027907
  32 H :    0.015125
  33 H :    0.029021

  Mayer bond orders larger than 0.100000
B(  0-S ,  1-C ) :   1.1439 B(  0-S ,  4-C ) :   1.1428 B(  1-C ,  2-C ) :   1.6163
B(  1-C , 32-H ) :   0.9779 B(  2-C ,  3-C ) :   1.2348 B(  2-C ,  6-C ) :   1.0169
B(  3-C ,  4-C ) :   1.5659 B(  3-C ,  5-H ) :   0.9921 B(  4-C , 20-C ) :   1.0709
B(  6-C ,  7-H ) :   0.9394 B(  6-C ,  8-H ) :   0.9444 B(  6-C ,  9-C ) :   1.0627
B(  9-C , 10-H ) :   0.9573 B(  9-C , 11-H ) :   0.9563 B(  9-C , 12-C ) :   1.0689
B( 12-C , 13-H ) :   0.9734 B( 12-C , 14-H ) :   0.9724 B( 12-C , 15-H ) :   0.9750
B( 16-S , 17-C ) :   1.1612 B( 16-S , 20-C ) :   1.1473 B( 17-C , 18-C ) :   1.5787
B( 17-C , 33-H ) :   0.9758 B( 18-C , 19-C ) :   1.2614 B( 18-C , 21-H ) :   0.9989
B( 19-C , 20-C ) :   1.5722 B( 19-C , 22-C ) :   1.0209 B( 22-C , 23-H ) :   0.9276
B( 22-C , 24-H ) :   0.9386 B( 22-C , 25-C ) :   1.0736 B( 25-C , 26-H ) :   0.9490
B( 25-C , 27-H ) :   0.9530 B( 25-C , 28-C ) :   1.0873 B( 28-C , 29-H ) :   0.9758
B( 28-C , 30-H ) :   0.9741 B( 28-C , 31-H ) :   0.9695

Dispersion correction           -0.014536882
FINAL SINGLE POINT ENERGY     -1339.878615822853

DIPOLE MOMENT
-------------
                                X             Y             Z
Electronic contribution:     -0.81992      -3.69304       6.95590
Nuclear contribution   :      0.82620       3.80391      -7.11913
                        -----------------------------------------
Total Dipole Moment    :      0.00628       0.11087      -0.16323
                        -----------------------------------------
Magnitude (a.u.)       :      0.19742
Magnitude (Debye)      :      0.50181

Rotational constants in cm-1:     0.022893     0.008272     0.006431
Rotational constants in MHz :   686.324426   248.000989   192.786731

                             ****ORCA TERMINATED NORMALLY****
TOTAL RUN TIME: 0 days 0 hours 0 minutes 21 seconds 491 msec
