                         Program Version 4.2.1 -  RELEASE  -
|  1> ! wB97X-D3 SP def2-SVP
|  2> %pal
|  3> nprocs 24
|  4> end
|  5>
|  6> * xyz 0 1
|  7> S 	 -48.2354 	 -49.9019 	 -76.2852
|  8> C 	 -49.5148 	 -49.5666 	 -75.1941
|  9> C 	 -50.2568 	 -48.4842 	 -75.5766
| 10> C 	 -49.8974 	 -48.0011 	 -76.8809
| 11> C 	 -48.8751 	 -48.8063 	 -77.4629
| 12> H 	 -50.3324 	 -47.2147 	 -77.4253
| 13> C 	 -51.4981 	 -48.0094 	 -74.8742
| 14> H 	 -51.3188 	 -48.1736 	 -73.8649
| 15> H 	 -52.3363 	 -48.6527 	 -75.136
| 16> C 	 -52.0084 	 -46.5876 	 -75.029
| 17> H 	 -52.7073 	 -46.3877 	 -74.2375
| 18> H 	 -51.1911 	 -45.8796 	 -74.8964
| 19> C 	 -52.8774 	 -46.2588 	 -76.2461
| 20> H 	 -53.6003 	 -47.0686 	 -76.3854
| 21> H 	 -53.4403 	 -45.3525 	 -76.3312
| 22> H 	 -52.2301 	 -46.218 	 -77.1684
| 23> S 	 -46.3593 	 -48.2211 	 -78.507
| 24> C 	 -46.2731 	 -47.984 	 -80.2482
| 25> C 	 -47.457 	 -48.3638 	 -80.9043
| 26> C 	 -48.5296 	 -48.6565 	 -80.0056
| 27> C 	 -48.1164 	 -48.5306 	 -78.6661
| 28> H 	 -47.5839 	 -48.4705 	 -81.9823
| 29> C 	 -49.919 	 -49.1669 	 -80.4468
| 30> H 	 -49.9749 	 -48.8427 	 -81.461
| 31> H 	 -50.693 	 -48.693 	 -79.8194
| 32> C 	 -50.0882 	 -50.6679 	 -80.548
| 33> H 	 -50.9423 	 -50.8349 	 -81.1996
| 34> H 	 -50.3539 	 -51.1978 	 -79.5814
| 35> C 	 -48.9381 	 -51.4944 	 -81.1806
| 36> H 	 -47.9589 	 -51.2467 	 -80.7367
| 37> H 	 -48.9339 	 -51.4174 	 -82.2665
| 38> H 	 -49.0305 	 -52.5112 	 -80.9332
| 39> H 	 -49.718 	 -50.1524 	 -74.2995
| 40> H 	 -45.4261 	 -47.7352 	 -80.8359
| 41> *
| 42>
| 43>                          ****END OF INPUT****

CARTESIAN COORDINATES (ANGSTROEM)
---------------------------------
  S    -48.235400  -49.901900  -76.285200
  C    -49.514800  -49.566600  -75.194100
  C    -50.256800  -48.484200  -75.576600
  C    -49.897400  -48.001100  -76.880900
  C    -48.875100  -48.806300  -77.462900
  H    -50.332400  -47.214700  -77.425300
  C    -51.498100  -48.009400  -74.874200
  H    -51.318800  -48.173600  -73.864900
  H    -52.336300  -48.652700  -75.136000
  C    -52.008400  -46.587600  -75.029000
  H    -52.707300  -46.387700  -74.237500
  H    -51.191100  -45.879600  -74.896400
  C    -52.877400  -46.258800  -76.246100
  H    -53.600300  -47.068600  -76.385400
  H    -53.440300  -45.352500  -76.331200
  H    -52.230100  -46.218000  -77.168400
  S    -46.359300  -48.221100  -78.507000
  C    -46.273100  -47.984000  -80.248200
  C    -47.457000  -48.363800  -80.904300
  C    -48.529600  -48.656500  -80.005600
  C    -48.116400  -48.530600  -78.666100
  H    -47.583900  -48.470500  -81.982300
  C    -49.919000  -49.166900  -80.446800
  H    -49.974900  -48.842700  -81.461000
  H    -50.693000  -48.693000  -79.819400
  C    -50.088200  -50.667900  -80.548000
  H    -50.942300  -50.834900  -81.199600
  H    -50.353900  -51.197800  -79.581400
  C    -48.938100  -51.494400  -81.180600
  H    -47.958900  -51.246700  -80.736700
  H    -48.933900  -51.417400  -82.266500
  H    -49.030500  -52.511200  -80.933200
  H    -49.718000  -50.152400  -74.299500
  H    -45.426100  -47.735200  -80.835900

 Total Charge           Charge          ....    0
 Multiplicity           Mult            ....    1
 Number of Electrons    NEL             ....  134
 Basis Dimension        Dim             ....  322

ORBITAL ENERGIES
----------------

  NO   OCC          E(Eh)            E(eV)
   0   2.0000     -88.969950     -2420.9954
   1   2.0000     -88.966256     -2420.8949
   2   2.0000     -10.327382      -281.0224
   3   2.0000     -10.326101      -280.9875
   4   2.0000     -10.317701      -280.7589
   5   2.0000     -10.309225      -280.5283
   6   2.0000     -10.302734      -280.3516
   7   2.0000     -10.298735      -280.2428
   8   2.0000     -10.296377      -280.1787
   9   2.0000     -10.293907      -280.1115
  10   2.0000     -10.292128      -280.0630
  11   2.0000     -10.286015      -279.8967
  12   2.0000     -10.285992      -279.8961
  13   2.0000     -10.285521      -279.8832
  14   2.0000     -10.280791      -279.7545
  15   2.0000     -10.270468      -279.4736
  16   2.0000      -8.083516      -219.9636
  17   2.0000      -8.081903      -219.9197
  18   2.0000      -6.042089      -164.4136
  19   2.0000      -6.040251      -164.3636
  20   2.0000      -6.038356      -164.3120
  21   2.0000      -6.036285      -164.2557
  22   2.0000      -6.034112      -164.1965
  23   2.0000      -6.032787      -164.1605
  24   2.0000      -1.005550       -27.3624
  25   2.0000      -0.979030       -26.6408
  26   2.0000      -0.916217       -24.9315
  27   2.0000      -0.905499       -24.6399
  28   2.0000      -0.868646       -23.6370
  29   2.0000      -0.848366       -23.0852
  30   2.0000      -0.842990       -22.9389
  31   2.0000      -0.812483       -22.1088
  32   2.0000      -0.789384       -21.4802
  33   2.0000      -0.774736       -21.0816
  34   2.0000      -0.710560       -19.3353
  35   2.0000      -0.697309       -18.9747
  36   2.0000      -0.684840       -18.6354
  37   2.0000      -0.660434       -17.9713
  38   2.0000      -0.643906       -17.5216
  39   2.0000      -0.619311       -16.8523
  40   2.0000      -0.584335       -15.9006
  41   2.0000      -0.572602       -15.5813
  42   2.0000      -0.560302       -15.2466
  43   2.0000      -0.551230       -14.9997
  44   2.0000      -0.541391       -14.7320
  45   2.0000      -0.536295       -14.5933
  46   2.0000      -0.517670       -14.0865
  47   2.0000      -0.506678       -13.7874
  48   2.0000      -0.504362       -13.7244
  49   2.0000      -0.498287       -13.5591
  50   2.0000      -0.488400       -13.2900
  51   2.0000      -0.481391       -13.0993
  52   2.0000      -0.473486       -12.8842
  53   2.0000      -0.462758       -12.5923
  54   2.0000      -0.455896       -12.4056
  55   2.0000      -0.448187       -12.1958
  56   2.0000      -0.446200       -12.1417
  57   2.0000      -0.441190       -12.0054
  58   2.0000      -0.434987       -11.8366
  59   2.0000      -0.427100       -11.6220
  60   2.0000      -0.417065       -11.3489
  61   2.0000      -0.410414       -11.1679
  62   2.0000      -0.408246       -11.1089
  63   2.0000      -0.341055        -9.2806
  64   2.0000      -0.332742        -9.0544
  65   2.0000      -0.327817        -8.9204
  66   2.0000      -0.287092        -7.8122
  67   0.0000       0.031115         0.8467
  68   0.0000       0.055015         1.4970
  69   0.0000       0.108560         2.9541
  70   0.0000       0.119205         3.2437
  71   0.0000       0.132459         3.6044

MULLIKEN ATOMIC CHARGES
-----------------------
   0 S :    0.115940
   1 C :   -0.131280
   2 C :   -0.063234
   3 C :    0.055407
   4 C :   -0.169386
   5 H :   -0.010426
   6 C :    0.095709
   7 H :    0.004926
   8 H :    0.034834
   9 C :   -0.068378
  10 H :    0.024416
  11 H :    0.031562
  12 C :   -0.064259
  13 H :    0.025039
  14 H :    0.034738
  15 H :    0.022997
  16 S :    0.117558
  17 C :   -0.073832
  18 C :   -0.040928
  19 C :   -0.087223
  20 C :   -0.170413
  21 H :    0.020988
  22 C :    0.148711
  23 H :    0.002975
  24 H :    0.037629
  25 C :   -0.097718
  26 H :    0.025768
  27 H :    0.041128
  28 C :   -0.051139
  29 H :    0.046609
  30 H :    0.028814
  31 H :    0.019805
  32 H :    0.047679
  33 H :    0.044984
Sum of atomic charges:    0.0000000

LOEWDIN ATOMIC CHARGES
----------------------
   0 S :    0.429983
   1 C :   -0.210042
   2 C :   -0.062803
   3 C :   -0.051364
   4 C :   -0.200603
   5 H :    0.020463
   6 C :   -0.028072
   7 H :    0.024390
   8 H :    0.036240
   9 C :   -0.042606
  10 H :    0.028375
  11 H :    0.024898
  12 C :   -0.070831
  13 H :    0.024676
  14 H :    0.024510
  15 H :    0.023226
  16 S :    0.390598
  17 C :   -0.182977
  18 C :   -0.069404
  19 C :   -0.055039
  20 C :   -0.194828
  21 H :    0.031438
  22 C :   -0.027007
  23 H :    0.026446
  24 H :    0.038489
  25 C :   -0.043757
  26 H :    0.024194
  27 H :    0.029932
  28 C :   -0.066410
  29 H :    0.030893
  30 H :    0.021700
  31 H :    0.021752
  32 H :    0.030139
  33 H :    0.023404

  Mayer bond orders larger than 0.100000
B(  0-S ,  1-C ) :   1.1472 B(  0-S ,  4-C ) :   1.1704 B(  1-C ,  2-C ) :   1.5958
B(  1-C , 32-H ) :   0.9706 B(  2-C ,  3-C ) :   1.2476 B(  2-C ,  6-C ) :   1.0235
B(  3-C ,  4-C ) :   1.5422 B(  3-C ,  5-H ) :   1.0007 B(  4-C , 20-C ) :   1.0541
B(  6-C ,  7-H ) :   0.9270 B(  6-C ,  8-H ) :   0.9337 B(  6-C ,  9-C ) :   1.0854
B(  9-C , 10-H ) :   0.9513 B(  9-C , 11-H ) :   0.9577 B(  9-C , 12-C ) :   1.0669
B( 12-C , 13-H ) :   0.9707 B( 12-C , 14-H ) :   0.9737 B( 12-C , 15-H ) :   0.9776
B( 16-S , 17-C ) :   1.1456 B( 16-S , 20-C ) :   1.1332 B( 17-C , 18-C ) :   1.6037
B( 17-C , 20-C ) :   0.1021 B( 17-C , 33-H ) :   0.9695 B( 18-C , 19-C ) :   1.2640
B( 18-C , 21-H ) :   0.9800 B( 19-C , 20-C ) :   1.5832 B( 19-C , 22-C ) :   1.0393
B( 22-C , 23-H ) :   0.9226 B( 22-C , 24-H ) :   0.9299 B( 22-C , 25-C ) :   1.0713
B( 25-C , 26-H ) :   0.9570 B( 25-C , 27-H ) :   0.9584 B( 25-C , 28-C ) :   1.0836
B( 28-C , 29-H ) :   0.9689 B( 28-C , 30-H ) :   0.9771 B( 28-C , 31-H ) :   0.9724

Dispersion correction           -0.014864712
FINAL SINGLE POINT ENERGY     -1339.870666263313

DIPOLE MOMENT
-------------
                                X             Y             Z
Electronic contribution:     22.61596      -1.09935       5.47898
Nuclear contribution   :    -23.20953       1.07182      -5.58716
                        -----------------------------------------
Total Dipole Moment    :     -0.59357      -0.02753      -0.10818
                        -----------------------------------------
Magnitude (a.u.)       :      0.60398
Magnitude (Debye)      :      1.53519

Rotational constants in cm-1:     0.019434     0.008447     0.007709
Rotational constants in MHz :   582.620978   253.227851   231.112870

                             ****ORCA TERMINATED NORMALLY****
TOTAL RUN TIME: 0 days 0 hours 0 minutes 22 seconds 64 msec
