                         Program Version 4.2.1 -  RELEASE  -
|  1> ! wB97X-D3 SP def2-SVP
|  2> %pal
|  3> nprocs 24
|  4> end
|  5>
|  6> * xyz 0 1
|  7> S 	 -33.4577 	 -30.2781 	 -94.2952
|  8> C 	 -33.5368 	 -28.9605 	 -95.4246
|  9> C 	 -32.3066 	 -28.7828 	 -96.006
| 10> C 	 -31.3532 	 -29.8365 	 -95.67
| 11> C 	 -31.8311 	 -30.6351 	 -94.6708
| 12> H 	 -30.3986 	 -30.0545 	 -96.0884
| 13> C 	 -31.8923 	 -27.676 	 -96.9459
| 14> H 	 -30.9273 	 -27.8574 	 -97.427
| 15> H 	 -31.6744 	 -26.8067 	 -96.327
| 16> C 	 -32.9692 	 -27.216 	 -97.9834
| 17> H 	 -33.7856 	 -26.7643 	 -97.3975
| 18> H 	 -32.5538 	 -26.4192 	 -98.5677
| 19> C 	 -33.4055 	 -28.2965 	 -98.9428
| 20> H 	 -33.8923 	 -29.0974 	 -98.4241
| 21> H 	 -34.1884 	 -27.7945 	 -99.5929
| 22> H 	 -32.6103 	 -28.6719 	 -99.603
| 23> S 	 -31.9676 	 -33.3998 	 -94.5773
| 24> C 	 -31.0762 	 -34.1669 	 -93.2902
| 25> C 	 -30.1526 	 -33.3507 	 -92.6641
| 26> C 	 -30.3402 	 -32.0083 	 -93.0938
| 27> C 	 -31.2686 	 -31.8673 	 -94.1449
| 28> H 	 -29.6104 	 -33.6367 	 -91.7696
| 29> C 	 -29.571 	 -30.9046 	 -92.3969
| 30> H 	 -29.6372 	 -31.2048 	 -91.3767
| 31> H 	 -30.0903 	 -29.9582 	 -92.5133
| 32> C 	 -28.0984 	 -30.6003 	 -92.8177
| 33> H 	 -28.0556 	 -30.2005 	 -93.7903
| 34> H 	 -27.6022 	 -31.4869 	 -92.9249
| 35> C 	 -27.373 	 -29.6711 	 -91.802
| 36> H 	 -27.5503 	 -29.6897 	 -90.6927
| 37> H 	 -27.492 	 -28.7 	 -92.2191
| 38> H 	 -26.2477 	 -29.9118 	 -91.8356
| 39> H 	 -34.3924 	 -28.3088 	 -95.5636
| 40> H 	 -31.3305 	 -35.13 	 -93.0123
| 41> *
| 42>
| 43>                          ****END OF INPUT****

CARTESIAN COORDINATES (ANGSTROEM)
---------------------------------
  S    -33.457700  -30.278100  -94.295200
  C    -33.536800  -28.960500  -95.424600
  C    -32.306600  -28.782800  -96.006000
  C    -31.353200  -29.836500  -95.670000
  C    -31.831100  -30.635100  -94.670800
  H    -30.398600  -30.054500  -96.088400
  C    -31.892300  -27.676000  -96.945900
  H    -30.927300  -27.857400  -97.427000
  H    -31.674400  -26.806700  -96.327000
  C    -32.969200  -27.216000  -97.983400
  H    -33.785600  -26.764300  -97.397500
  H    -32.553800  -26.419200  -98.567700
  C    -33.405500  -28.296500  -98.942800
  H    -33.892300  -29.097400  -98.424100
  H    -34.188400  -27.794500  -99.592900
  H    -32.610300  -28.671900  -99.603000
  S    -31.967600  -33.399800  -94.577300
  C    -31.076200  -34.166900  -93.290200
  C    -30.152600  -33.350700  -92.664100
  C    -30.340200  -32.008300  -93.093800
  C    -31.268600  -31.867300  -94.144900
  H    -29.610400  -33.636700  -91.769600
  C    -29.571000  -30.904600  -92.396900
  H    -29.637200  -31.204800  -91.376700
  H    -30.090300  -29.958200  -92.513300
  C    -28.098400  -30.600300  -92.817700
  H    -28.055600  -30.200500  -93.790300
  H    -27.602200  -31.486900  -92.924900
  C    -27.373000  -29.671100  -91.802000
  H    -27.550300  -29.689700  -90.692700
  H    -27.492000  -28.700000  -92.219100
  H    -26.247700  -29.911800  -91.835600
  H    -34.392400  -28.308800  -95.563600
  H    -31.330500  -35.130000  -93.012300

 Total Charge           Charge          ....    0
 Multiplicity           Mult            ....    1
 Number of Electrons    NEL             ....  134
 Basis Dimension        Dim             ....  322

ORBITAL ENERGIES
----------------

  NO   OCC          E(Eh)            E(eV)
   0   2.0000     -88.965933     -2420.8861
   1   2.0000     -88.960215     -2420.7305
   2   2.0000     -10.320322      -280.8302
   3   2.0000     -10.319787      -280.8157
   4   2.0000     -10.313130      -280.6345
   5   2.0000     -10.311286      -280.5844
   6   2.0000     -10.301802      -280.3263
   7   2.0000     -10.301342      -280.3138
   8   2.0000     -10.292790      -280.0811
   9   2.0000     -10.290665      -280.0232
  10   2.0000     -10.289247      -279.9847
  11   2.0000     -10.285648      -279.8867
  12   2.0000     -10.284949      -279.8677
  13   2.0000     -10.284256      -279.8488
  14   2.0000     -10.278194      -279.6839
  15   2.0000     -10.276122      -279.6275
  16   2.0000      -8.081078      -219.8973
  17   2.0000      -8.076202      -219.7646
  18   2.0000      -6.039411      -164.3407
  19   2.0000      -6.035524      -164.2349
  20   2.0000      -6.034664      -164.2116
  21   2.0000      -6.032008      -164.1393
  22   2.0000      -6.030405      -164.0957
  23   2.0000      -6.027053      -164.0045
  24   2.0000      -1.010069       -27.4854
  25   2.0000      -0.985704       -26.8224
  26   2.0000      -0.909996       -24.7622
  27   2.0000      -0.904431       -24.6108
  28   2.0000      -0.868337       -23.6287
  29   2.0000      -0.851453       -23.1692
  30   2.0000      -0.846234       -23.0272
  31   2.0000      -0.813661       -22.1408
  32   2.0000      -0.782076       -21.2814
  33   2.0000      -0.769090       -20.9280
  34   2.0000      -0.709440       -19.3048
  35   2.0000      -0.701182       -19.0801
  36   2.0000      -0.694295       -18.8927
  37   2.0000      -0.663023       -18.0418
  38   2.0000      -0.645489       -17.5646
  39   2.0000      -0.607078       -16.5194
  40   2.0000      -0.596149       -16.2220
  41   2.0000      -0.576942       -15.6994
  42   2.0000      -0.564015       -15.3476
  43   2.0000      -0.545564       -14.8456
  44   2.0000      -0.542149       -14.7526
  45   2.0000      -0.520103       -14.1527
  46   2.0000      -0.516572       -14.0566
  47   2.0000      -0.510375       -13.8880
  48   2.0000      -0.508242       -13.8300
  49   2.0000      -0.497370       -13.5341
  50   2.0000      -0.491161       -13.3652
  51   2.0000      -0.478177       -13.0119
  52   2.0000      -0.470723       -12.8090
  53   2.0000      -0.467844       -12.7307
  54   2.0000      -0.459214       -12.4959
  55   2.0000      -0.453171       -12.3314
  56   2.0000      -0.440684       -11.9916
  57   2.0000      -0.438228       -11.9248
  58   2.0000      -0.431989       -11.7550
  59   2.0000      -0.419864       -11.4251
  60   2.0000      -0.417940       -11.3727
  61   2.0000      -0.415765       -11.3136
  62   2.0000      -0.413334       -11.2474
  63   2.0000      -0.339324        -9.2335
  64   2.0000      -0.328133        -8.9289
  65   2.0000      -0.319980        -8.7071
  66   2.0000      -0.303417        -8.2564
  67   0.0000       0.039448         1.0734
  68   0.0000       0.064891         1.7658
  69   0.0000       0.121432         3.3043
  70   0.0000       0.124127         3.3777
  71   0.0000       0.127498         3.4694

MULLIKEN ATOMIC CHARGES
-----------------------
   0 S :    0.114075
   1 C :   -0.132381
   2 C :   -0.080943
   3 C :    0.037536
   4 C :   -0.161679
   5 H :    0.004088
   6 C :    0.065945
   7 H :    0.015949
   8 H :    0.036506
   9 C :   -0.085342
  10 H :    0.027507
  11 H :    0.021858
  12 C :   -0.047804
  13 H :    0.037440
  14 H :    0.035305
  15 H :    0.038970
  16 S :    0.122411
  17 C :   -0.083942
  18 C :   -0.002264
  19 C :   -0.057805
  20 C :   -0.171979
  21 H :    0.027039
  22 C :    0.071302
  23 H :    0.013096
  24 H :    0.026266
  25 C :    0.006269
  26 H :    0.012921
  27 H :   -0.003148
  28 C :   -0.094012
  29 H :    0.049488
  30 H :    0.036801
  31 H :    0.037272
  32 H :    0.050281
  33 H :    0.032972
Sum of atomic charges:   -0.0000000

LOEWDIN ATOMIC CHARGES
----------------------
   0 S :    0.427208
   1 C :   -0.206964
   2 C :   -0.059896
   3 C :   -0.057229
   4 C :   -0.208557
   5 H :    0.028626
   6 C :   -0.037444
   7 H :    0.026890
   8 H :    0.035991
   9 C :   -0.042504
  10 H :    0.023157
  11 H :    0.022014
  12 C :   -0.066936
  13 H :    0.021223
  14 H :    0.033439
  15 H :    0.028272
  16 S :    0.417884
  17 C :   -0.164683
  18 C :   -0.072052
  19 C :   -0.047492
  20 C :   -0.223130
  21 H :    0.035347
  22 C :   -0.027868
  23 H :    0.025816
  24 H :    0.029790
  25 C :   -0.024974
  26 H :    0.021519
  27 H :    0.008015
  28 C :   -0.075342
  29 H :    0.032534
  30 H :    0.022541
  31 H :    0.035638
  32 H :    0.029284
  33 H :    0.009885

  Mayer bond orders larger than 0.100000
B(  0-S ,  1-C ) :   1.1325 B(  0-S ,  4-C ) :   1.1688 B(  1-C ,  2-C ) :   1.6194
B(  1-C , 32-H ) :   0.9716 B(  2-C ,  3-C ) :   1.2089 B(  2-C ,  6-C ) :   1.0185
B(  3-C ,  4-C ) :   1.5998 B(  3-C ,  5-H ) :   0.9992 B(  4-C , 20-C ) :   1.0122
B(  6-C ,  7-H ) :   0.9460 B(  6-C ,  8-H ) :   0.9306 B(  6-C ,  9-C ) :   1.0806
B(  9-C , 10-H ) :   0.9512 B(  9-C , 11-H ) :   0.9543 B(  9-C , 12-C ) :   1.0828
B( 12-C , 13-H ) :   0.9737 B( 12-C , 14-H ) :   0.9729 B( 12-C , 15-H ) :   0.9743
B( 16-S , 17-C ) :   1.1806 B( 16-S , 20-C ) :   1.1437 B( 17-C , 18-C ) :   1.5815
B( 17-C , 33-H ) :   0.9761 B( 18-C , 19-C ) :   1.2611 B( 18-C , 21-H ) :   0.9860
B( 19-C , 20-C ) :   1.5872 B( 19-C , 22-C ) :   1.0480 B( 22-C , 23-H ) :   0.9346
B( 22-C , 24-H ) :   0.9306 B( 22-C , 25-C ) :   1.0635 B( 25-C , 26-H ) :   0.9522
B( 25-C , 27-H ) :   0.9589 B( 25-C , 28-C ) :   1.0618 B( 28-C , 29-H ) :   0.9789
B( 28-C , 30-H ) :   0.9823 B( 28-C , 31-H ) :   0.9766

Dispersion correction           -0.014021880
FINAL SINGLE POINT ENERGY     -1339.873027112356

DIPOLE MOMENT
-------------
                                X             Y             Z
Electronic contribution:    -13.27359     -18.12665       5.07429
Nuclear contribution   :     13.61587      18.46792      -5.04828
                        -----------------------------------------
Total Dipole Moment    :      0.34228       0.34127       0.02602
                        -----------------------------------------
Magnitude (a.u.)       :      0.48404
Magnitude (Debye)      :      1.23034

Rotational constants in cm-1:     0.019416     0.008088     0.006429
Rotational constants in MHz :   582.089268   242.471597   192.731963

                             ****ORCA TERMINATED NORMALLY****
TOTAL RUN TIME: 0 days 0 hours 0 minutes 21 seconds 294 msec
