                         Program Version 4.2.1 -  RELEASE  -
|  1> ! wB97X-D3 SP def2-SVP
|  2> %pal
|  3> nprocs 24
|  4> end
|  5>
|  6> * xyz 0 1
|  7> S 	 -42.6983 	 9.06211 	 28.4472
|  8> C 	 -42.4505 	 10.6402 	 27.7175
|  9> C 	 -43.6152 	 11.1556 	 27.1549
| 10> C 	 -44.7127 	 10.1959 	 27.2286
| 11> C 	 -44.3679 	 9.00722 	 27.9154
| 12> H 	 -45.6665 	 10.3959 	 26.7875
| 13> C 	 -43.7201 	 12.5459 	 26.5645
| 14> H 	 -42.8173 	 12.7511 	 25.8739
| 15> H 	 -43.7242 	 13.2847 	 27.3466
| 16> C 	 -44.949 	 12.8373 	 25.6828
| 17> H 	 -45.8794 	 12.5917 	 26.1719
| 18> H 	 -44.943 	 13.9119 	 25.5009
| 19> C 	 -45.0375 	 12.0963 	 24.3413
| 20> H 	 -44.04 	 11.9412 	 23.8734
| 21> H 	 -45.4243 	 11.0839 	 24.5122
| 22> H 	 -45.7866 	 12.5441 	 23.6682
| 23> S 	 -45.117 	 6.46048 	 27.2613
| 24> C 	 -46.4387 	 5.66396 	 28.0068
| 25> C 	 -47.0981 	 6.61086 	 28.8527
| 26> C 	 -46.4569 	 7.89608 	 28.9224
| 27> C 	 -45.3052 	 7.93054 	 28.1581
| 28> H 	 -47.8995 	 6.27803 	 29.3497
| 29> C 	 -46.9218 	 9.008 	 29.9408
| 30> H 	 -47.9374 	 9.12886 	 29.8867
| 31> H 	 -46.454 	 9.92844 	 29.643
| 32> C 	 -46.444 	 8.91158 	 31.3978
| 33> H 	 -46.9465 	 9.72586 	 31.8736
| 34> H 	 -45.3827 	 9.21235 	 31.504
| 35> C 	 -46.8385 	 7.62769 	 32.2045
| 36> H 	 -46.4635 	 7.66699 	 33.2216
| 37> H 	 -46.5226 	 6.71035 	 31.6744
| 38> H 	 -47.9493 	 7.54447 	 32.2683
| 39> H 	 -41.527 	 11.1509 	 27.7754
| 40> H 	 -46.8677 	 4.66584 	 27.8083
| 41> *
| 42>
| 43>                          ****END OF INPUT****

CARTESIAN COORDINATES (ANGSTROEM)
---------------------------------
  S    -42.698300    9.062110   28.447200
  C    -42.450500   10.640200   27.717500
  C    -43.615200   11.155600   27.154900
  C    -44.712700   10.195900   27.228600
  C    -44.367900    9.007220   27.915400
  H    -45.666500   10.395900   26.787500
  C    -43.720100   12.545900   26.564500
  H    -42.817300   12.751100   25.873900
  H    -43.724200   13.284700   27.346600
  C    -44.949000   12.837300   25.682800
  H    -45.879400   12.591700   26.171900
  H    -44.943000   13.911900   25.500900
  C    -45.037500   12.096300   24.341300
  H    -44.040000   11.941200   23.873400
  H    -45.424300   11.083900   24.512200
  H    -45.786600   12.544100   23.668200
  S    -45.117000    6.460480   27.261300
  C    -46.438700    5.663960   28.006800
  C    -47.098100    6.610860   28.852700
  C    -46.456900    7.896080   28.922400
  C    -45.305200    7.930540   28.158100
  H    -47.899500    6.278030   29.349700
  C    -46.921800    9.008000   29.940800
  H    -47.937400    9.128860   29.886700
  H    -46.454000    9.928440   29.643000
  C    -46.444000    8.911580   31.397800
  H    -46.946500    9.725860   31.873600
  H    -45.382700    9.212350   31.504000
  C    -46.838500    7.627690   32.204500
  H    -46.463500    7.666990   33.221600
  H    -46.522600    6.710350   31.674400
  H    -47.949300    7.544470   32.268300
  H    -41.527000   11.150900   27.775400
  H    -46.867700    4.665840   27.808300

 Total Charge           Charge          ....    0
 Multiplicity           Mult            ....    1
 Number of Electrons    NEL             ....  134
 Basis Dimension        Dim             ....  322

ORBITAL ENERGIES
----------------

  NO   OCC          E(Eh)            E(eV)
   0   2.0000     -88.970320     -2421.0055
   1   2.0000     -88.964987     -2420.8604
   2   2.0000     -10.332369      -281.1580
   3   2.0000     -10.322810      -280.8980
   4   2.0000     -10.319996      -280.8214
   5   2.0000     -10.313433      -280.6428
   6   2.0000     -10.305928      -280.4386
   7   2.0000     -10.305659      -280.4312
   8   2.0000     -10.300475      -280.2902
   9   2.0000     -10.300246      -280.2839
  10   2.0000     -10.288202      -279.9562
  11   2.0000     -10.287149      -279.9275
  12   2.0000     -10.285668      -279.8872
  13   2.0000     -10.284128      -279.8454
  14   2.0000     -10.280137      -279.7367
  15   2.0000     -10.278216      -279.6845
  16   2.0000      -8.084493      -219.9902
  17   2.0000      -8.080374      -219.8781
  18   2.0000      -6.042976      -164.4377
  19   2.0000      -6.038999      -164.3295
  20   2.0000      -6.038793      -164.3239
  21   2.0000      -6.035402      -164.2316
  22   2.0000      -6.034485      -164.2067
  23   2.0000      -6.031481      -164.1249
  24   2.0000      -1.004442       -27.3323
  25   2.0000      -0.980447       -26.6793
  26   2.0000      -0.910839       -24.7852
  27   2.0000      -0.901391       -24.5281
  28   2.0000      -0.868820       -23.6418
  29   2.0000      -0.844414       -22.9777
  30   2.0000      -0.840643       -22.8751
  31   2.0000      -0.811403       -22.0794
  32   2.0000      -0.786111       -21.3912
  33   2.0000      -0.775647       -21.1064
  34   2.0000      -0.709043       -19.2940
  35   2.0000      -0.693627       -18.8745
  36   2.0000      -0.688120       -18.7247
  37   2.0000      -0.664337       -18.0775
  38   2.0000      -0.640061       -17.4169
  39   2.0000      -0.623392       -16.9634
  40   2.0000      -0.586650       -15.9636
  41   2.0000      -0.571216       -15.5436
  42   2.0000      -0.558004       -15.1841
  43   2.0000      -0.551214       -14.9993
  44   2.0000      -0.537733       -14.6325
  45   2.0000      -0.532140       -14.4803
  46   2.0000      -0.517090       -14.0707
  47   2.0000      -0.513458       -13.9719
  48   2.0000      -0.505070       -13.7437
  49   2.0000      -0.496819       -13.5191
  50   2.0000      -0.485353       -13.2071
  51   2.0000      -0.483246       -13.1498
  52   2.0000      -0.472158       -12.8481
  53   2.0000      -0.468198       -12.7403
  54   2.0000      -0.458408       -12.4739
  55   2.0000      -0.442347       -12.0369
  56   2.0000      -0.439438       -11.9577
  57   2.0000      -0.437607       -11.9079
  58   2.0000      -0.430231       -11.7072
  59   2.0000      -0.423445       -11.5225
  60   2.0000      -0.420956       -11.4548
  61   2.0000      -0.417262       -11.3543
  62   2.0000      -0.408020       -11.1028
  63   2.0000      -0.334422        -9.1001
  64   2.0000      -0.331056        -9.0085
  65   2.0000      -0.325788        -8.8651
  66   2.0000      -0.301955        -8.2166
  67   0.0000       0.035339         0.9616
  68   0.0000       0.060455         1.6451
  69   0.0000       0.119386         3.2487
  70   0.0000       0.122845         3.3428
  71   0.0000       0.128408         3.4942

MULLIKEN ATOMIC CHARGES
-----------------------
   0 S :    0.126996
   1 C :   -0.116700
   2 C :   -0.087863
   3 C :    0.057422
   4 C :   -0.169647
   5 H :    0.007789
   6 C :    0.050757
   7 H :    0.045633
   8 H :    0.042971
   9 C :   -0.094300
  10 H :    0.025768
  11 H :    0.031219
  12 C :   -0.066293
  13 H :    0.037844
  14 H :    0.026492
  15 H :    0.042335
  16 S :    0.127477
  17 C :   -0.114193
  18 C :   -0.017910
  19 C :   -0.013751
  20 C :   -0.188122
  21 H :   -0.031883
  22 C :    0.130179
  23 H :    0.004620
  24 H :    0.013116
  25 C :   -0.073052
  26 H :    0.017587
  27 H :    0.035808
  28 C :   -0.069060
  29 H :    0.039490
  30 H :    0.046784
  31 H :    0.024317
  32 H :    0.035225
  33 H :    0.072946
Sum of atomic charges:   -0.0000000

LOEWDIN ATOMIC CHARGES
----------------------
   0 S :    0.412988
   1 C :   -0.189306
   2 C :   -0.063837
   3 C :   -0.051030
   4 C :   -0.204594
   5 H :    0.026201
   6 C :   -0.034615
   7 H :    0.042409
   8 H :    0.032941
   9 C :   -0.047666
  10 H :    0.019985
  11 H :    0.026681
  12 C :   -0.071819
  13 H :    0.027786
  14 H :    0.023633
  15 H :    0.030550
  16 S :    0.439671
  17 C :   -0.208677
  18 C :   -0.060756
  19 C :   -0.049290
  20 C :   -0.215135
  21 H :    0.004816
  22 C :   -0.017138
  23 H :    0.016217
  24 H :    0.032238
  25 C :   -0.038292
  26 H :    0.022169
  27 H :    0.027776
  28 C :   -0.072732
  29 H :    0.026227
  30 H :    0.027111
  31 H :    0.025107
  32 H :    0.020120
  33 H :    0.040259

  Mayer bond orders larger than 0.100000
B(  0-S ,  1-C ) :   1.1446 B(  0-S ,  4-C ) :   1.1608 B(  1-C ,  2-C ) :   1.6010
B(  1-C , 32-H ) :   0.9780 B(  2-C ,  3-C ) :   1.2598 B(  2-C ,  6-C ) :   1.0075
B(  3-C ,  4-C ) :   1.5445 B(  3-C ,  5-H ) :   0.9895 B(  4-C , 20-C ) :   1.0260
B(  6-C ,  7-H ) :   0.9436 B(  6-C ,  8-H ) :   0.9358 B(  6-C ,  9-C ) :   1.0942
B(  9-C , 10-H ) :   0.9487 B(  9-C , 11-H ) :   0.9548 B(  9-C , 12-C ) :   1.0743
B( 12-C , 13-H ) :   0.9752 B( 12-C , 14-H ) :   0.9739 B( 12-C , 15-H ) :   0.9738
B( 16-S , 17-C ) :   1.1794 B( 16-S , 20-C ) :   1.1694 B( 17-C , 18-C ) :   1.5644
B( 17-C , 20-C ) :   0.1068 B( 17-C , 33-H ) :   0.9664 B( 18-C , 19-C ) :   1.2525
B( 18-C , 21-H ) :   1.0091 B( 19-C , 20-C ) :   1.5729 B( 19-C , 22-C ) :   1.0381
B( 22-C , 23-H ) :   0.9355 B( 22-C , 24-H ) :   0.9243 B( 22-C , 25-C ) :   1.0840
B( 25-C , 26-H ) :   0.9498 B( 25-C , 27-H ) :   0.9584 B( 25-C , 28-C ) :   1.0727
B( 28-C , 29-H ) :   0.9744 B( 28-C , 30-H ) :   0.9748 B( 28-C , 31-H ) :   0.9747

Dispersion correction           -0.014732657
FINAL SINGLE POINT ENERGY     -1339.877532598571

DIPOLE MOMENT
-------------
                                X             Y             Z
Electronic contribution:     11.51580     -16.04632      -2.99654
Nuclear contribution   :    -11.90085      16.58118       3.07650
                        -----------------------------------------
Total Dipole Moment    :     -0.38505       0.53486       0.07996
                        -----------------------------------------
Magnitude (a.u.)       :      0.66388
Magnitude (Debye)      :      1.68745

Rotational constants in cm-1:     0.019200     0.008112     0.007619
Rotational constants in MHz :   575.607663   243.195016   228.421312

                             ****ORCA TERMINATED NORMALLY****
TOTAL RUN TIME: 0 days 0 hours 0 minutes 20 seconds 524 msec
