                         Program Version 4.2.1 -  RELEASE  -
|  1> ! wB97X-D3 SP def2-SVP
|  2> %pal
|  3> nprocs 24
|  4> end
|  5>
|  6> * xyz 0 1
|  7> S 	 -46.7815 	 7.09951 	 -19.7287
|  8> C 	 -46.8837 	 5.87684 	 -18.5004
|  9> C 	 -47.2691 	 6.36002 	 -17.2387
| 10> C 	 -47.3534 	 7.75487 	 -17.2194
| 11> C 	 -47.1833 	 8.3346 	 -18.4537
| 12> H 	 -47.5403 	 8.36093 	 -16.3546
| 13> C 	 -47.4062 	 5.56734 	 -15.9677
| 14> H 	 -47.3303 	 6.15759 	 -15.0807
| 15> H 	 -46.5126 	 4.96562 	 -15.7727
| 16> C 	 -48.6588 	 4.67337 	 -15.757
| 17> H 	 -48.6444 	 3.8981 	 -16.5041
| 18> H 	 -48.7111 	 4.18671 	 -14.7971
| 19> C 	 -49.9252 	 5.68801 	 -15.8562
| 20> H 	 -50.8765 	 5.38578 	 -15.4386
| 21> H 	 -49.7808 	 6.60768 	 -15.3902
| 22> H 	 -50.0676 	 5.93343 	 -16.9415
| 23> S 	 -46.2906 	 10.4695 	 -19.9579
| 24> C 	 -46.8878 	 12.0052 	 -19.6899
| 25> C 	 -47.9743 	 11.9394 	 -18.7989
| 26> C 	 -48.2449 	 10.6772 	 -18.259
| 27> C 	 -47.304 	 9.73847 	 -18.7687
| 28> H 	 -48.5226 	 12.8943 	 -18.5627
| 29> C 	 -49.4284 	 10.4453 	 -17.4186
| 30> H 	 -49.6759 	 11.5068 	 -16.9794
| 31> H 	 -49.1361 	 9.89935 	 -16.6158
| 32> C 	 -50.6172 	 9.72285 	 -17.9246
| 33> H 	 -50.3543 	 8.86375 	 -18.4638
| 34> H 	 -51.1962 	 10.3864 	 -18.6043
| 35> C 	 -51.5498 	 9.13337 	 -16.7669
| 36> H 	 -51.9696 	 9.91757 	 -16.2059
| 37> H 	 -51.0358 	 8.51861 	 -16.0495
| 38> H 	 -52.3597 	 8.59387 	 -17.1179
| 39> H 	 -46.7315 	 4.84539 	 -18.6533
| 40> H 	 -46.6792 	 12.8501 	 -20.3258
| 41> *
| 42>
| 43>                          ****END OF INPUT****

CARTESIAN COORDINATES (ANGSTROEM)
---------------------------------
  S    -46.781500    7.099510  -19.728700
  C    -46.883700    5.876840  -18.500400
  C    -47.269100    6.360020  -17.238700
  C    -47.353400    7.754870  -17.219400
  C    -47.183300    8.334600  -18.453700
  H    -47.540300    8.360930  -16.354600
  C    -47.406200    5.567340  -15.967700
  H    -47.330300    6.157590  -15.080700
  H    -46.512600    4.965620  -15.772700
  C    -48.658800    4.673370  -15.757000
  H    -48.644400    3.898100  -16.504100
  H    -48.711100    4.186710  -14.797100
  C    -49.925200    5.688010  -15.856200
  H    -50.876500    5.385780  -15.438600
  H    -49.780800    6.607680  -15.390200
  H    -50.067600    5.933430  -16.941500
  S    -46.290600   10.469500  -19.957900
  C    -46.887800   12.005200  -19.689900
  C    -47.974300   11.939400  -18.798900
  C    -48.244900   10.677200  -18.259000
  C    -47.304000    9.738470  -18.768700
  H    -48.522600   12.894300  -18.562700
  C    -49.428400   10.445300  -17.418600
  H    -49.675900   11.506800  -16.979400
  H    -49.136100    9.899350  -16.615800
  C    -50.617200    9.722850  -17.924600
  H    -50.354300    8.863750  -18.463800
  H    -51.196200   10.386400  -18.604300
  C    -51.549800    9.133370  -16.766900
  H    -51.969600    9.917570  -16.205900
  H    -51.035800    8.518610  -16.049500
  H    -52.359700    8.593870  -17.117900
  H    -46.731500    4.845390  -18.653300
  H    -46.679200   12.850100  -20.325800

 Total Charge           Charge          ....    0
 Multiplicity           Mult            ....    1
 Number of Electrons    NEL             ....  134
 Basis Dimension        Dim             ....  322

ORBITAL ENERGIES
----------------

  NO   OCC          E(Eh)            E(eV)
   0   2.0000     -88.971665     -2421.0421
   1   2.0000     -88.968696     -2420.9613
   2   2.0000     -10.331532      -281.1353
   3   2.0000     -10.324786      -280.9517
   4   2.0000     -10.313479      -280.6440
   5   2.0000     -10.311552      -280.5916
   6   2.0000     -10.301388      -280.3150
   7   2.0000     -10.300864      -280.3008
   8   2.0000     -10.294528      -280.1284
   9   2.0000     -10.294252      -280.1208
  10   2.0000     -10.290568      -280.0206
  11   2.0000     -10.289912      -280.0027
  12   2.0000     -10.285722      -279.8887
  13   2.0000     -10.284052      -279.8433
  14   2.0000     -10.277387      -279.6619
  15   2.0000     -10.269447      -279.4459
  16   2.0000      -8.085383      -220.0144
  17   2.0000      -8.085063      -220.0058
  18   2.0000      -6.043897      -164.4628
  19   2.0000      -6.043215      -164.4442
  20   2.0000      -6.040159      -164.3611
  21   2.0000      -6.039144      -164.3335
  22   2.0000      -6.036325      -164.2567
  23   2.0000      -6.036089      -164.2503
  24   2.0000      -1.012563       -27.5532
  25   2.0000      -0.987097       -26.8603
  26   2.0000      -0.919279       -25.0148
  27   2.0000      -0.906309       -24.6619
  28   2.0000      -0.867461       -23.6048
  29   2.0000      -0.856705       -23.3121
  30   2.0000      -0.847171       -23.0527
  31   2.0000      -0.809039       -22.0151
  32   2.0000      -0.788130       -21.4461
  33   2.0000      -0.773651       -21.0521
  34   2.0000      -0.714945       -19.4547
  35   2.0000      -0.712360       -19.3843
  36   2.0000      -0.696982       -18.9659
  37   2.0000      -0.662579       -18.0297
  38   2.0000      -0.640239       -17.4218
  39   2.0000      -0.623293       -16.9607
  40   2.0000      -0.603674       -16.4268
  41   2.0000      -0.573026       -15.5928
  42   2.0000      -0.564596       -15.3634
  43   2.0000      -0.545044       -14.8314
  44   2.0000      -0.536229       -14.5915
  45   2.0000      -0.524553       -14.2738
  46   2.0000      -0.516288       -14.0489
  47   2.0000      -0.510259       -13.8848
  48   2.0000      -0.501659       -13.6508
  49   2.0000      -0.497883       -13.5481
  50   2.0000      -0.490881       -13.3576
  51   2.0000      -0.483027       -13.1438
  52   2.0000      -0.475048       -12.9267
  53   2.0000      -0.465068       -12.6552
  54   2.0000      -0.463582       -12.6147
  55   2.0000      -0.453716       -12.3462
  56   2.0000      -0.448434       -12.2025
  57   2.0000      -0.439100       -11.9485
  58   2.0000      -0.438175       -11.9234
  59   2.0000      -0.424891       -11.5619
  60   2.0000      -0.424041       -11.5387
  61   2.0000      -0.416025       -11.3206
  62   2.0000      -0.411413       -11.1951
  63   2.0000      -0.354433        -9.6446
  64   2.0000      -0.335804        -9.1377
  65   2.0000      -0.333107        -9.0643
  66   2.0000      -0.279146        -7.5960
  67   0.0000       0.018671         0.5081
  68   0.0000       0.072974         1.9857
  69   0.0000       0.103278         2.8103
  70   0.0000       0.120109         3.2683
  71   0.0000       0.131862         3.5882

MULLIKEN ATOMIC CHARGES
-----------------------
   0 S :    0.112034
   1 C :   -0.088873
   2 C :   -0.055443
   3 C :    0.000515
   4 C :   -0.129868
   5 H :    0.014538
   6 C :    0.031315
   7 H :    0.009717
   8 H :    0.028178
   9 C :   -0.032179
  10 H :    0.030003
  11 H :    0.031700
  12 C :   -0.088042
  13 H :    0.029168
  14 H :    0.017526
  15 H :    0.051756
  16 S :    0.133359
  17 C :   -0.092961
  18 C :   -0.083585
  19 C :   -0.032501
  20 C :   -0.168598
  21 H :    0.032570
  22 C :    0.126079
  23 H :    0.028893
  24 H :   -0.038206
  25 C :   -0.038961
  26 H :    0.025254
  27 H :    0.030289
  28 C :   -0.017218
  29 H :    0.011931
  30 H :    0.014695
  31 H :    0.018907
  32 H :    0.027314
  33 H :    0.060695
Sum of atomic charges:    0.0000000

LOEWDIN ATOMIC CHARGES
----------------------
   0 S :    0.385003
   1 C :   -0.189341
   2 C :   -0.061731
   3 C :   -0.057849
   4 C :   -0.167639
   5 H :    0.031377
   6 C :   -0.038562
   7 H :    0.025826
   8 H :    0.033008
   9 C :   -0.023601
  10 H :    0.018763
  11 H :    0.022803
  12 C :   -0.070141
  13 H :    0.021729
  14 H :    0.009480
  15 H :    0.034790
  16 S :    0.464100
  17 C :   -0.222973
  18 C :   -0.077864
  19 C :   -0.057049
  20 C :   -0.215185
  21 H :    0.037078
  22 C :   -0.035972
  23 H :    0.043614
  24 H :    0.012218
  25 C :   -0.024474
  26 H :    0.021006
  27 H :    0.027416
  28 C :   -0.052273
  29 H :    0.018006
  30 H :    0.021346
  31 H :    0.018671
  32 H :    0.017864
  33 H :    0.030557

  Mayer bond orders larger than 0.100000
B(  0-S ,  1-C ) :   1.1430 B(  0-S ,  4-C ) :   1.1241 B(  1-C ,  2-C ) :   1.5972
B(  1-C ,  4-C ) :   0.1032 B(  1-C , 32-H ) :   0.9699 B(  2-C ,  3-C ) :   1.2483
B(  2-C ,  6-C ) :   1.0150 B(  3-C ,  4-C ) :   1.5717 B(  3-C ,  5-H ) :   0.9955
B(  4-C , 20-C ) :   1.0939 B(  6-C ,  7-H ) :   0.9470 B(  6-C ,  8-H ) :   0.9388
B(  6-C ,  9-C ) :   1.0705 B(  9-C , 10-H ) :   0.9651 B(  9-C , 11-H ) :   0.9590
B(  9-C , 12-C ) :   1.0499 B( 12-C , 13-H ) :   0.9793 B( 12-C , 14-H ) :   0.9733
B( 12-C , 15-H ) :   0.9763 B( 16-S , 17-C ) :   1.2020 B( 16-S , 20-C ) :   1.1811
B( 17-C , 18-C ) :   1.5250 B( 17-C , 20-C ) :   0.1107 B( 17-C , 33-H ) :   0.9691
B( 18-C , 19-C ) :   1.3333 B( 18-C , 21-H ) :   0.9813 B( 19-C , 20-C ) :   1.4715
B( 19-C , 22-C ) :   1.0558 B( 22-C , 23-H ) :   0.9189 B( 22-C , 24-H ) :   0.9023
B( 22-C , 25-C ) :   1.0729 B( 25-C , 26-H ) :   0.9521 B( 25-C , 27-H ) :   0.9535
B( 25-C , 28-C ) :   1.0763 B( 28-C , 29-H ) :   0.9732 B( 28-C , 30-H ) :   0.9731
B( 28-C , 31-H ) :   0.9740

Dispersion correction           -0.016032761
FINAL SINGLE POINT ENERGY     -1339.857289872233

DIPOLE MOMENT
-------------
                                X             Y             Z
Electronic contribution:     22.36022       8.36242     -20.79507
Nuclear contribution   :    -22.73892      -8.40051      21.23923
                        -----------------------------------------
Total Dipole Moment    :     -0.37869      -0.03809       0.44415
                        -----------------------------------------
Magnitude (a.u.)       :      0.58492
Magnitude (Debye)      :      1.48675

Rotational constants in cm-1:     0.019115     0.010254     0.007316
Rotational constants in MHz :   573.055926   307.411625   219.320035

                             ****ORCA TERMINATED NORMALLY****
TOTAL RUN TIME: 0 days 0 hours 0 minutes 23 seconds 76 msec
