                         Program Version 4.2.1 -  RELEASE  -
|  1> ! wB97X-D3 SP def2-SVP
|  2> %pal
|  3> nprocs 24
|  4> end
|  5>
|  6> * xyz 0 1
|  7> S 	 46.534 	 -24.2182 	 -118.721
|  8> C 	 44.8815 	 -24.583 	 -118.47
|  9> C 	 44.1872 	 -23.5092 	 -117.857
| 10> C 	 45.0934 	 -22.4241 	 -117.507
| 11> C 	 46.3778 	 -22.679 	 -117.924
| 12> H 	 44.8731 	 -21.4145 	 -117.048
| 13> C 	 42.7605 	 -23.5158 	 -117.437
| 14> H 	 42.4556 	 -24.367 	 -116.831
| 15> H 	 42.2477 	 -23.57 	 -118.361
| 16> C 	 42.0441 	 -22.2997 	 -116.815
| 17> H 	 42.3698 	 -21.3551 	 -117.158
| 18> H 	 40.9879 	 -22.307 	 -117.127
| 19> C 	 42.0465 	 -22.2825 	 -115.337
| 20> H 	 43.0149 	 -22.5581 	 -114.949
| 21> H 	 41.6894 	 -21.3154 	 -114.927
| 22> H 	 41.4395 	 -23.0865 	 -114.945
| 23> S 	 47.7371 	 -20.7778 	 -119.357
| 24> C 	 49.1796 	 -20.0612 	 -118.639
| 25> C 	 49.4211 	 -20.5123 	 -117.342
| 26> C 	 48.4906 	 -21.4966 	 -116.943
| 27> C 	 47.4842 	 -21.7443 	 -117.895
| 28> H 	 50.3333 	 -20.2801 	 -116.788
| 29> C 	 48.6841 	 -22.1237 	 -115.609
| 30> H 	 49.7174 	 -22.0736 	 -115.589
| 31> H 	 48.282 	 -23.1277 	 -115.549
| 32> C 	 48.112 	 -21.4041 	 -114.356
| 33> H 	 46.993 	 -21.3905 	 -114.449
| 34> H 	 48.4339 	 -20.3537 	 -114.305
| 35> C 	 48.6362 	 -21.962 	 -113.012
| 36> H 	 49.7543 	 -22.1912 	 -112.996
| 37> H 	 48.1023 	 -22.91 	 -112.797
| 38> H 	 48.4999 	 -21.201 	 -112.182
| 39> H 	 44.3163 	 -25.3963 	 -118.874
| 40> H 	 49.7636 	 -19.3094 	 -119.059
| 41> *
| 42>
| 43>                          ****END OF INPUT****

CARTESIAN COORDINATES (ANGSTROEM)
---------------------------------
  S     46.534000  -24.218200  -118.721000
  C     44.881500  -24.583000  -118.470000
  C     44.187200  -23.509200  -117.857000
  C     45.093400  -22.424100  -117.507000
  C     46.377800  -22.679000  -117.924000
  H     44.873100  -21.414500  -117.048000
  C     42.760500  -23.515800  -117.437000
  H     42.455600  -24.367000  -116.831000
  H     42.247700  -23.570000  -118.361000
  C     42.044100  -22.299700  -116.815000
  H     42.369800  -21.355100  -117.158000
  H     40.987900  -22.307000  -117.127000
  C     42.046500  -22.282500  -115.337000
  H     43.014900  -22.558100  -114.949000
  H     41.689400  -21.315400  -114.927000
  H     41.439500  -23.086500  -114.945000
  S     47.737100  -20.777800  -119.357000
  C     49.179600  -20.061200  -118.639000
  C     49.421100  -20.512300  -117.342000
  C     48.490600  -21.496600  -116.943000
  C     47.484200  -21.744300  -117.895000
  H     50.333300  -20.280100  -116.788000
  C     48.684100  -22.123700  -115.609000
  H     49.717400  -22.073600  -115.589000
  H     48.282000  -23.127700  -115.549000
  C     48.112000  -21.404100  -114.356000
  H     46.993000  -21.390500  -114.449000
  H     48.433900  -20.353700  -114.305000
  C     48.636200  -21.962000  -113.012000
  H     49.754300  -22.191200  -112.996000
  H     48.102300  -22.910000  -112.797000
  H     48.499900  -21.201000  -112.182000
  H     44.316300  -25.396300  -118.874000
  H     49.763600  -19.309400  -119.059000

 Total Charge           Charge          ....    0
 Multiplicity           Mult            ....    1
 Number of Electrons    NEL             ....  134
 Basis Dimension        Dim             ....  322

ORBITAL ENERGIES
----------------

  NO   OCC          E(Eh)            E(eV)
   0   2.0000     -88.967888     -2420.9393
   1   2.0000     -88.966768     -2420.9088
   2   2.0000     -10.323618      -280.9199
   3   2.0000     -10.322650      -280.8936
   4   2.0000     -10.315451      -280.6977
   5   2.0000     -10.311774      -280.5976
   6   2.0000     -10.306134      -280.4442
   7   2.0000     -10.300150      -280.2813
   8   2.0000     -10.298638      -280.2402
   9   2.0000     -10.292501      -280.0732
  10   2.0000     -10.290540      -280.0198
  11   2.0000     -10.289700      -279.9970
  12   2.0000     -10.286098      -279.8989
  13   2.0000     -10.281769      -279.7812
  14   2.0000     -10.280481      -279.7461
  15   2.0000     -10.271125      -279.4915
  16   2.0000      -8.083107      -219.9525
  17   2.0000      -8.080830      -219.8906
  18   2.0000      -6.041518      -164.3981
  19   2.0000      -6.039297      -164.3376
  20   2.0000      -6.037441      -164.2871
  21   2.0000      -6.035383      -164.2311
  22   2.0000      -6.034050      -164.1949
  23   2.0000      -6.031723      -164.1315
  24   2.0000      -1.004720       -27.3398
  25   2.0000      -0.981423       -26.7059
  26   2.0000      -0.918242       -24.9866
  27   2.0000      -0.907279       -24.6883
  28   2.0000      -0.870743       -23.6941
  29   2.0000      -0.851587       -23.1729
  30   2.0000      -0.849137       -23.1062
  31   2.0000      -0.814427       -22.1617
  32   2.0000      -0.782897       -21.3037
  33   2.0000      -0.767414       -20.8824
  34   2.0000      -0.708148       -19.2697
  35   2.0000      -0.696791       -18.9607
  36   2.0000      -0.687669       -18.7124
  37   2.0000      -0.665726       -18.1153
  38   2.0000      -0.641539       -17.4572
  39   2.0000      -0.617372       -16.7995
  40   2.0000      -0.596761       -16.2387
  41   2.0000      -0.571313       -15.5462
  42   2.0000      -0.562075       -15.2948
  43   2.0000      -0.554762       -15.0958
  44   2.0000      -0.534537       -14.5455
  45   2.0000      -0.523808       -14.2535
  46   2.0000      -0.518562       -14.1108
  47   2.0000      -0.509760       -13.8713
  48   2.0000      -0.506963       -13.7952
  49   2.0000      -0.497936       -13.5495
  50   2.0000      -0.489504       -13.3201
  51   2.0000      -0.478882       -13.0311
  52   2.0000      -0.470544       -12.8042
  53   2.0000      -0.464456       -12.6385
  54   2.0000      -0.457901       -12.4601
  55   2.0000      -0.453960       -12.3529
  56   2.0000      -0.443570       -12.0702
  57   2.0000      -0.441435       -12.0120
  58   2.0000      -0.427865       -11.6428
  59   2.0000      -0.423264       -11.5176
  60   2.0000      -0.421577       -11.4717
  61   2.0000      -0.413818       -11.2605
  62   2.0000      -0.409206       -11.1351
  63   2.0000      -0.339195        -9.2300
  64   2.0000      -0.328502        -8.9390
  65   2.0000      -0.310779        -8.4567
  66   2.0000      -0.307784        -8.3752
  67   0.0000       0.044171         1.2020
  68   0.0000       0.050322         1.3693
  69   0.0000       0.115757         3.1499
  70   0.0000       0.120650         3.2831
  71   0.0000       0.128938         3.5086

MULLIKEN ATOMIC CHARGES
-----------------------
   0 S :    0.140287
   1 C :   -0.107873
   2 C :   -0.088283
   3 C :    0.018480
   4 C :   -0.179638
   5 H :    0.043689
   6 C :    0.058717
   7 H :    0.036910
   8 H :    0.024709
   9 C :   -0.060549
  10 H :    0.008649
  11 H :    0.023311
  12 C :   -0.042835
  13 H :    0.022047
  14 H :    0.040100
  15 H :    0.018315
  16 S :    0.117429
  17 C :   -0.065390
  18 C :   -0.052166
  19 C :   -0.010452
  20 C :   -0.202535
  21 H :    0.028688
  22 C :    0.113731
  23 H :   -0.002551
  24 H :    0.026843
  25 C :   -0.085665
  26 H :    0.041386
  27 H :    0.020930
  28 C :   -0.091121
  29 H :    0.040649
  30 H :    0.042357
  31 H :    0.048308
  32 H :    0.040142
  33 H :    0.033383
Sum of atomic charges:   -0.0000000

LOEWDIN ATOMIC CHARGES
----------------------
   0 S :    0.436233
   1 C :   -0.215193
   2 C :   -0.057642
   3 C :   -0.066592
   4 C :   -0.214007
   5 H :    0.046090
   6 C :   -0.039153
   7 H :    0.035226
   8 H :    0.036670
   9 C :   -0.041425
  10 H :    0.015832
  11 H :    0.029457
  12 C :   -0.066810
  13 H :    0.021380
  14 H :    0.030135
  15 H :    0.020994
  16 S :    0.401724
  17 C :   -0.168105
  18 C :   -0.073396
  19 C :   -0.048206
  20 C :   -0.207133
  21 H :    0.035514
  22 C :   -0.026952
  23 H :    0.021590
  24 H :    0.032170
  25 C :   -0.043625
  26 H :    0.029570
  27 H :    0.021223
  28 C :   -0.078339
  29 H :    0.031692
  30 H :    0.026036
  31 H :    0.033365
  32 H :    0.026121
  33 H :    0.015556

  Mayer bond orders larger than 0.100000
B(  0-S ,  1-C ) :   1.1516 B(  0-S ,  4-C ) :   1.1632 B(  1-C ,  2-C ) :   1.5988
B(  1-C , 32-H ) :   0.9726 B(  2-C ,  3-C ) :   1.2431 B(  2-C ,  6-C ) :   1.0142
B(  3-C ,  4-C ) :   1.5905 B(  3-C ,  5-H ) :   0.9762 B(  4-C , 20-C ) :   1.0215
B(  6-C ,  7-H ) :   0.9468 B(  6-C ,  8-H ) :   0.9203 B(  6-C ,  9-C ) :   1.0852
B(  9-C , 10-H ) :   0.9486 B(  9-C , 11-H ) :   0.9545 B(  9-C , 12-C ) :   1.0881
B( 12-C , 13-H ) :   0.9748 B( 12-C , 14-H ) :   0.9730 B( 12-C , 15-H ) :   0.9703
B( 16-S , 17-C ) :   1.1641 B( 16-S , 20-C ) :   1.1388 B( 17-C , 18-C ) :   1.6036
B( 17-C , 20-C ) :   0.1049 B( 17-C , 33-H ) :   0.9714 B( 18-C , 19-C ) :   1.2605
B( 18-C , 21-H ) :   0.9797 B( 19-C , 20-C ) :   1.5824 B( 19-C , 22-C ) :   1.0483
B( 22-C , 23-H ) :   0.9217 B( 22-C , 24-H ) :   0.9287 B( 22-C , 25-C ) :   1.0722
B( 25-C , 26-H ) :   0.9549 B( 25-C , 27-H ) :   0.9575 B( 25-C , 28-C ) :   1.0681
B( 28-C , 29-H ) :   0.9737 B( 28-C , 30-H ) :   0.9763 B( 28-C , 31-H ) :   0.9768

Dispersion correction           -0.013902461
FINAL SINGLE POINT ENERGY     -1339.866666914304

DIPOLE MOMENT
-------------
                                X             Y             Z
Electronic contribution:     11.61033      -2.22724     -25.43870
Nuclear contribution   :    -11.81628       2.35036      25.80529
                        -----------------------------------------
Total Dipole Moment    :     -0.20595       0.12311       0.36659
                        -----------------------------------------
Magnitude (a.u.)       :      0.43813
Magnitude (Debye)      :      1.11363

Rotational constants in cm-1:     0.015816     0.009041     0.007160
Rotational constants in MHz :   474.145043   271.034362   214.658532

                             ****ORCA TERMINATED NORMALLY****
TOTAL RUN TIME: 0 days 0 hours 0 minutes 20 seconds 145 msec
