                         Program Version 4.2.1 -  RELEASE  -
|  1> ! wB97X-D3 SP def2-SVP
|  2> %pal
|  3> nprocs 24
|  4> end
|  5>
|  6> * xyz 0 1
|  7> S 	 -104.71 	 59.2729 	 -100.785
|  8> C 	 -106.003 	 59.8277 	 -101.795
|  9> C 	 -105.511 	 60.5795 	 -102.863
| 10> C 	 -104.098 	 60.8146 	 -102.774
| 11> C 	 -103.496 	 60.0031 	 -101.824
| 12> H 	 -103.481 	 61.4559 	 -103.443
| 13> C 	 -106.301 	 61.4099 	 -103.806
| 14> H 	 -107.04 	 60.8753 	 -104.203
| 15> H 	 -105.764 	 61.5521 	 -104.735
| 16> C 	 -106.808 	 62.788 	 -103.13
| 17> H 	 -105.958 	 63.4112 	 -103.002
| 18> H 	 -107.569 	 63.2798 	 -103.853
| 19> C 	 -107.511 	 62.6776 	 -101.769
| 20> H 	 -108.5 	 62.2424 	 -101.855
| 21> H 	 -106.919 	 62.0699 	 -101.108
| 22> H 	 -107.529 	 63.7121 	 -101.42
| 23> S 	 -101.665 	 59.9841 	 -99.7405
| 24> C 	 -99.9299 	 59.9168 	 -100.112
| 25> C 	 -99.7335 	 60.0086 	 -101.45
| 26> C 	 -100.92 	 60.1395 	 -102.263
| 27> C 	 -102.062 	 60.0374 	 -101.507
| 28> H 	 -98.6955 	 60.0451 	 -101.797
| 29> C 	 -100.907 	 60.1427 	 -103.773
| 30> H 	 -99.8714 	 60.1421 	 -104.147
| 31> H 	 -101.442 	 60.9937 	 -104.183
| 32> C 	 -101.531 	 58.8812 	 -104.367
| 33> H 	 -102.38 	 58.4395 	 -103.876
| 34> H 	 -100.654 	 58.1461 	 -104.315
| 35> C 	 -101.95 	 59.0564 	 -105.851
| 36> H 	 -102.671 	 59.8019 	 -106.055
| 37> H 	 -102.39 	 58.1425 	 -106.341
| 38> H 	 -101.123 	 59.2726 	 -106.396
| 39> H 	 -106.981 	 59.4358 	 -101.736
| 40> H 	 -99.199 	 59.9958 	 -99.3324
| 41> *
| 42>
| 43>                          ****END OF INPUT****

CARTESIAN COORDINATES (ANGSTROEM)
---------------------------------
  S    -104.710000   59.272900  -100.785000
  C    -106.003000   59.827700  -101.795000
  C    -105.511000   60.579500  -102.863000
  C    -104.098000   60.814600  -102.774000
  C    -103.496000   60.003100  -101.824000
  H    -103.481000   61.455900  -103.443000
  C    -106.301000   61.409900  -103.806000
  H    -107.040000   60.875300  -104.203000
  H    -105.764000   61.552100  -104.735000
  C    -106.808000   62.788000  -103.130000
  H    -105.958000   63.411200  -103.002000
  H    -107.569000   63.279800  -103.853000
  C    -107.511000   62.677600  -101.769000
  H    -108.500000   62.242400  -101.855000
  H    -106.919000   62.069900  -101.108000
  H    -107.529000   63.712100  -101.420000
  S    -101.665000   59.984100  -99.740500
  C    -99.929900   59.916800  -100.112000
  C    -99.733500   60.008600  -101.450000
  C    -100.920000   60.139500  -102.263000
  C    -102.062000   60.037400  -101.507000
  H    -98.695500   60.045100  -101.797000
  C    -100.907000   60.142700  -103.773000
  H    -99.871400   60.142100  -104.147000
  H    -101.442000   60.993700  -104.183000
  C    -101.531000   58.881200  -104.367000
  H    -102.380000   58.439500  -103.876000
  H    -100.654000   58.146100  -104.315000
  C    -101.950000   59.056400  -105.851000
  H    -102.671000   59.801900  -106.055000
  H    -102.390000   58.142500  -106.341000
  H    -101.123000   59.272600  -106.396000
  H    -106.981000   59.435800  -101.736000
  H    -99.199000   59.995800  -99.332400

 Total Charge           Charge          ....    0
 Multiplicity           Mult            ....    1
 Number of Electrons    NEL             ....  134
 Basis Dimension        Dim             ....  322

ORBITAL ENERGIES
----------------

  NO   OCC          E(Eh)            E(eV)
   0   2.0000     -88.970580     -2421.0126
   1   2.0000     -88.960709     -2420.7440
   2   2.0000     -10.332560      -281.1632
   3   2.0000     -10.332079      -281.1502
   4   2.0000     -10.315941      -280.7110
   5   2.0000     -10.313504      -280.6447
   6   2.0000     -10.305878      -280.4372
   7   2.0000     -10.301507      -280.3182
   8   2.0000     -10.297836      -280.2184
   9   2.0000     -10.296133      -280.1720
  10   2.0000     -10.295159      -280.1455
  11   2.0000     -10.294743      -280.1342
  12   2.0000     -10.286776      -279.9174
  13   2.0000     -10.281798      -279.7819
  14   2.0000     -10.271846      -279.5111
  15   2.0000     -10.268283      -279.4142
  16   2.0000      -8.085145      -220.0080
  17   2.0000      -8.074598      -219.7210
  18   2.0000      -6.043783      -164.4597
  19   2.0000      -6.039575      -164.3452
  20   2.0000      -6.035887      -164.2448
  21   2.0000      -6.033270      -164.1736
  22   2.0000      -6.029343      -164.0668
  23   2.0000      -6.025128      -163.9521
  24   2.0000      -1.005704       -27.3666
  25   2.0000      -0.982213       -26.7274
  26   2.0000      -0.909843       -24.7581
  27   2.0000      -0.907794       -24.7023
  28   2.0000      -0.867352       -23.6018
  29   2.0000      -0.851531       -23.1713
  30   2.0000      -0.844537       -22.9810
  31   2.0000      -0.815421       -22.1887
  32   2.0000      -0.785190       -21.3661
  33   2.0000      -0.777192       -21.1485
  34   2.0000      -0.708972       -19.2921
  35   2.0000      -0.695588       -18.9279
  36   2.0000      -0.691060       -18.8047
  37   2.0000      -0.664499       -18.0819
  38   2.0000      -0.643711       -17.5163
  39   2.0000      -0.621401       -16.9092
  40   2.0000      -0.597749       -16.2656
  41   2.0000      -0.571970       -15.5641
  42   2.0000      -0.564340       -15.3565
  43   2.0000      -0.546309       -14.8658
  44   2.0000      -0.543974       -14.8023
  45   2.0000      -0.523056       -14.2331
  46   2.0000      -0.518893       -14.1198
  47   2.0000      -0.514895       -14.0110
  48   2.0000      -0.504730       -13.7344
  49   2.0000      -0.496481       -13.5099
  50   2.0000      -0.492171       -13.3926
  51   2.0000      -0.487807       -13.2739
  52   2.0000      -0.471043       -12.8177
  53   2.0000      -0.462022       -12.5723
  54   2.0000      -0.452497       -12.3131
  55   2.0000      -0.446238       -12.1428
  56   2.0000      -0.436662       -11.8822
  57   2.0000      -0.435025       -11.8376
  58   2.0000      -0.431686       -11.7468
  59   2.0000      -0.427111       -11.6223
  60   2.0000      -0.420096       -11.4314
  61   2.0000      -0.417007       -11.3473
  62   2.0000      -0.413711       -11.2576
  63   2.0000      -0.356510        -9.7011
  64   2.0000      -0.331658        -9.0249
  65   2.0000      -0.328913        -8.9502
  66   2.0000      -0.287495        -7.8231
  67   0.0000       0.020251         0.5511
  68   0.0000       0.071859         1.9554
  69   0.0000       0.100927         2.7464
  70   0.0000       0.117510         3.1976
  71   0.0000       0.130840         3.5603

MULLIKEN ATOMIC CHARGES
-----------------------
   0 S :    0.115161
   1 C :   -0.114741
   2 C :   -0.116271
   3 C :   -0.012387
   4 C :   -0.123464
   5 H :    0.030050
   6 C :    0.146623
   7 H :   -0.023398
   8 H :    0.007364
   9 C :   -0.098976
  10 H :    0.027384
  11 H :    0.044482
  12 C :   -0.044372
  13 H :    0.030778
  14 H :    0.047658
  15 H :    0.038686
  16 S :    0.067136
  17 C :   -0.084305
  18 C :   -0.032366
  19 C :   -0.019031
  20 C :   -0.144858
  21 H :    0.022540
  22 C :    0.065806
  23 H :    0.024187
  24 H :    0.026574
  25 C :   -0.104008
  26 H :    0.054163
  27 H :    0.035408
  28 C :   -0.020767
  29 H :    0.017345
  30 H :    0.033810
  31 H :    0.001614
  32 H :    0.046947
  33 H :    0.055226
Sum of atomic charges:   -0.0000000

LOEWDIN ATOMIC CHARGES
----------------------
   0 S :    0.415693
   1 C :   -0.197825
   2 C :   -0.060506
   3 C :   -0.061593
   4 C :   -0.193591
   5 H :    0.037271
   6 C :   -0.033287
   7 H :    0.009908
   8 H :    0.032248
   9 C :   -0.029472
  10 H :    0.017271
  11 H :    0.033174
  12 C :   -0.064365
  13 H :    0.022216
  14 H :    0.022348
  15 H :    0.032200
  16 S :    0.354042
  17 C :   -0.169657
  18 C :   -0.071867
  19 C :   -0.060248
  20 C :   -0.162160
  21 H :    0.034697
  22 C :   -0.030970
  23 H :    0.034556
  24 H :    0.023972
  25 C :   -0.037257
  26 H :    0.023420
  27 H :    0.032335
  28 C :   -0.061996
  29 H :    0.016908
  30 H :    0.034805
  31 H :    0.007949
  32 H :    0.022540
  33 H :    0.027240

  Mayer bond orders larger than 0.100000
B(  0-S ,  1-C ) :   1.1389 B(  0-S ,  4-C ) :   1.1536 B(  1-C ,  2-C ) :   1.5784
B(  1-C , 32-H ) :   0.9712 B(  2-C ,  3-C ) :   1.2460 B(  2-C ,  6-C ) :   1.0589
B(  3-C ,  4-C ) :   1.5465 B(  3-C ,  5-H ) :   0.9839 B(  4-C , 20-C ) :   1.0652
B(  6-C ,  7-H ) :   0.9208 B(  6-C ,  8-H ) :   0.9320 B(  6-C ,  9-C ) :   1.0329
B(  9-C , 10-H ) :   0.9624 B(  9-C , 11-H ) :   0.9579 B(  9-C , 12-C ) :   1.0838
B( 12-C , 13-H ) :   0.9769 B( 12-C , 14-H ) :   0.9666 B( 12-C , 15-H ) :   0.9708
B( 16-S , 17-C ) :   1.1262 B( 16-S , 20-C ) :   1.1203 B( 17-C , 18-C ) :   1.6467
B( 17-C , 33-H ) :   0.9700 B( 18-C , 19-C ) :   1.2131 B( 18-C , 21-H ) :   0.9858
B( 19-C , 20-C ) :   1.6208 B( 19-C , 22-C ) :   1.0486 B( 22-C , 23-H ) :   0.9338
B( 22-C , 24-H ) :   0.9382 B( 22-C , 25-C ) :   1.0430 B( 25-C , 26-H ) :   0.9665
B( 25-C , 27-H ) :   0.9592 B( 25-C , 28-C ) :   1.0748 B( 28-C , 29-H ) :   0.9755
B( 28-C , 30-H ) :   0.9731 B( 28-C , 31-H ) :   0.9726

Dispersion correction           -0.015211544
FINAL SINGLE POINT ENERGY     -1339.862129598642

DIPOLE MOMENT
-------------
                                X             Y             Z
Electronic contribution:      7.69319      -7.61429      21.93577
Nuclear contribution   :     -7.66914       7.87841     -22.54761
                        -----------------------------------------
Total Dipole Moment    :      0.02405       0.26412      -0.61184
                        -----------------------------------------
Magnitude (a.u.)       :      0.66685
Magnitude (Debye)      :      1.69499

Rotational constants in cm-1:     0.019087     0.009456     0.007339
Rotational constants in MHz :   572.226444   283.477758   220.011312

                             ****ORCA TERMINATED NORMALLY****
TOTAL RUN TIME: 0 days 0 hours 0 minutes 21 seconds 377 msec
