                         Program Version 4.2.1 -  RELEASE  -
|  1> ! wB97X-D3 SP def2-SVP
|  2> %pal
|  3> nprocs 24
|  4> end
|  5>
|  6> * xyz 0 1
|  7> S 	 -120.724 	 32.9196 	 -116.448
|  8> C 	 -119.728 	 32.5778 	 -117.832
|  9> C 	 -118.385 	 32.7997 	 -117.54
| 10> C 	 -118.18 	 33.2087 	 -116.161
| 11> C 	 -119.372 	 33.3535 	 -115.478
| 12> H 	 -117.242 	 33.4602 	 -115.709
| 13> C 	 -117.274 	 32.5554 	 -118.568
| 14> H 	 -116.375 	 33.1014 	 -118.339
| 15> H 	 -117.596 	 32.9343 	 -119.587
| 16> C 	 -116.942 	 31.0834 	 -118.853
| 17> H 	 -116.458 	 30.6488 	 -117.923
| 18> H 	 -117.858 	 30.55 	 -119.041
| 19> C 	 -115.853 	 30.8864 	 -119.919
| 20> H 	 -114.925 	 31.3698 	 -119.559
| 21> H 	 -115.672 	 29.7374 	 -120.034
| 22> H 	 -116.039 	 31.3117 	 -120.925
| 23> S 	 -120.05 	 32.1416 	 -113.048
| 24> C 	 -119.98 	 33.1388 	 -111.653
| 25> C 	 -119.609 	 34.4087 	 -111.877
| 26> C 	 -119.179 	 34.6524 	 -113.21
| 27> C 	 -119.461 	 33.5798 	 -114.013
| 28> H 	 -119.531 	 35.0664 	 -111.018
| 29> C 	 -118.849 	 35.9711 	 -113.718
| 30> H 	 -118.429 	 35.8666 	 -114.804
| 31> H 	 -117.937 	 36.2667 	 -113.204
| 32> C 	 -119.853 	 37.1329 	 -113.645
| 33> H 	 -120.313 	 36.9851 	 -112.661
| 34> H 	 -120.563 	 37.034 	 -114.405
| 35> C 	 -119.092 	 38.5051 	 -113.852
| 36> H 	 -118.073 	 38.4955 	 -113.431
| 37> H 	 -119.684 	 39.2839 	 -113.271
| 38> H 	 -118.987 	 38.9152 	 -114.794
| 39> H 	 -120.111 	 32.1665 	 -118.741
| 40> H 	 -120.395 	 32.9041 	 -110.675
| 41> *
| 42>
| 43>                          ****END OF INPUT****

CARTESIAN COORDINATES (ANGSTROEM)
---------------------------------
  S    -120.724000   32.919600  -116.448000
  C    -119.728000   32.577800  -117.832000
  C    -118.385000   32.799700  -117.540000
  C    -118.180000   33.208700  -116.161000
  C    -119.372000   33.353500  -115.478000
  H    -117.242000   33.460200  -115.709000
  C    -117.274000   32.555400  -118.568000
  H    -116.375000   33.101400  -118.339000
  H    -117.596000   32.934300  -119.587000
  C    -116.942000   31.083400  -118.853000
  H    -116.458000   30.648800  -117.923000
  H    -117.858000   30.550000  -119.041000
  C    -115.853000   30.886400  -119.919000
  H    -114.925000   31.369800  -119.559000
  H    -115.672000   29.737400  -120.034000
  H    -116.039000   31.311700  -120.925000
  S    -120.050000   32.141600  -113.048000
  C    -119.980000   33.138800  -111.653000
  C    -119.609000   34.408700  -111.877000
  C    -119.179000   34.652400  -113.210000
  C    -119.461000   33.579800  -114.013000
  H    -119.531000   35.066400  -111.018000
  C    -118.849000   35.971100  -113.718000
  H    -118.429000   35.866600  -114.804000
  H    -117.937000   36.266700  -113.204000
  C    -119.853000   37.132900  -113.645000
  H    -120.313000   36.985100  -112.661000
  H    -120.563000   37.034000  -114.405000
  C    -119.092000   38.505100  -113.852000
  H    -118.073000   38.495500  -113.431000
  H    -119.684000   39.283900  -113.271000
  H    -118.987000   38.915200  -114.794000
  H    -120.111000   32.166500  -118.741000
  H    -120.395000   32.904100  -110.675000

 Total Charge           Charge          ....    0
 Multiplicity           Mult            ....    1
 Number of Electrons    NEL             ....  134
 Basis Dimension        Dim             ....  322

ORBITAL ENERGIES
----------------

  NO   OCC          E(Eh)            E(eV)
   0   2.0000     -88.967611     -2420.9318
   1   2.0000     -88.962192     -2420.7843
   2   2.0000     -10.328682      -281.0577
   3   2.0000     -10.327105      -281.0148
   4   2.0000     -10.313513      -280.6450
   5   2.0000     -10.309412      -280.5334
   6   2.0000     -10.306167      -280.4451
   7   2.0000     -10.298010      -280.2231
   8   2.0000     -10.295370      -280.1513
   9   2.0000     -10.295276      -280.1487
  10   2.0000     -10.290485      -280.0183
  11   2.0000     -10.289511      -279.9918
  12   2.0000     -10.288656      -279.9686
  13   2.0000     -10.288548      -279.9656
  14   2.0000     -10.286198      -279.9017
  15   2.0000     -10.281216      -279.7661
  16   2.0000      -8.082896      -219.9468
  17   2.0000      -8.076824      -219.7816
  18   2.0000      -6.041347      -164.3934
  19   2.0000      -6.037210      -164.2808
  20   2.0000      -6.035325      -164.2295
  21   2.0000      -6.033802      -164.1881
  22   2.0000      -6.031560      -164.1271
  23   2.0000      -6.027385      -164.0135
  24   2.0000      -1.006848       -27.3977
  25   2.0000      -0.986887       -26.8545
  26   2.0000      -0.910128       -24.7658
  27   2.0000      -0.908561       -24.7232
  28   2.0000      -0.866796       -23.5867
  29   2.0000      -0.851444       -23.1690
  30   2.0000      -0.845749       -23.0140
  31   2.0000      -0.814454       -22.1624
  32   2.0000      -0.779938       -21.2232
  33   2.0000      -0.768797       -20.9200
  34   2.0000      -0.712156       -19.3788
  35   2.0000      -0.696531       -18.9536
  36   2.0000      -0.692770       -18.8512
  37   2.0000      -0.657134       -17.8815
  38   2.0000      -0.646913       -17.6034
  39   2.0000      -0.615014       -16.7354
  40   2.0000      -0.596861       -16.2414
  41   2.0000      -0.573794       -15.6137
  42   2.0000      -0.563160       -15.3244
  43   2.0000      -0.555645       -15.1199
  44   2.0000      -0.521875       -14.2009
  45   2.0000      -0.518109       -14.0985
  46   2.0000      -0.511488       -13.9183
  47   2.0000      -0.510508       -13.8916
  48   2.0000      -0.506292       -13.7769
  49   2.0000      -0.502026       -13.6608
  50   2.0000      -0.489606       -13.3228
  51   2.0000      -0.475234       -12.9318
  52   2.0000      -0.469462       -12.7747
  53   2.0000      -0.464534       -12.6406
  54   2.0000      -0.457996       -12.4627
  55   2.0000      -0.448690       -12.2095
  56   2.0000      -0.445775       -12.1301
  57   2.0000      -0.441122       -12.0035
  58   2.0000      -0.433496       -11.7960
  59   2.0000      -0.429037       -11.6747
  60   2.0000      -0.423557       -11.5256
  61   2.0000      -0.413101       -11.2411
  62   2.0000      -0.404501       -11.0070
  63   2.0000      -0.339475        -9.2376
  64   2.0000      -0.333457        -9.0738
  65   2.0000      -0.324918        -8.8415
  66   2.0000      -0.301875        -8.2144
  67   0.0000       0.038020         1.0346
  68   0.0000       0.064416         1.7528
  69   0.0000       0.114675         3.1205
  70   0.0000       0.124310         3.3827
  71   0.0000       0.128752         3.5035

MULLIKEN ATOMIC CHARGES
-----------------------
   0 S :    0.123836
   1 C :   -0.123982
   2 C :   -0.068359
   3 C :    0.060925
   4 C :   -0.172710
   5 H :    0.008375
   6 C :    0.046122
   7 H :    0.014441
   8 H :    0.028507
   9 C :   -0.076092
  10 H :    0.034764
  11 H :    0.027252
  12 C :   -0.084006
  13 H :    0.034272
  14 H :    0.053847
  15 H :    0.036200
  16 S :    0.100265
  17 C :   -0.069088
  18 C :   -0.061480
  19 C :    0.011430
  20 C :   -0.173673
  21 H :    0.019989
  22 C :    0.000231
  23 H :    0.032004
  24 H :    0.015783
  25 C :   -0.004456
  26 H :    0.030303
  27 H :    0.028644
  28 C :   -0.066886
  29 H :    0.029942
  30 H :    0.037728
  31 H :    0.029134
  32 H :    0.045506
  33 H :    0.051232
Sum of atomic charges:    0.0000000

LOEWDIN ATOMIC CHARGES
----------------------
   0 S :    0.429140
   1 C :   -0.198163
   2 C :   -0.059158
   3 C :   -0.055408
   4 C :   -0.212620
   5 H :    0.029558
   6 C :   -0.037296
   7 H :    0.023593
   8 H :    0.034743
   9 C :   -0.044924
  10 H :    0.031238
  11 H :    0.018285
  12 C :   -0.076588
  13 H :    0.026447
  14 H :    0.040116
  15 H :    0.021699
  16 S :    0.377738
  17 C :   -0.187808
  18 C :   -0.078530
  19 C :   -0.061361
  20 C :   -0.165194
  21 H :    0.032440
  22 C :   -0.047356
  23 H :    0.038650
  24 H :    0.027782
  25 C :   -0.022888
  26 H :    0.026706
  27 H :    0.021067
  28 C :   -0.064910
  29 H :    0.026107
  30 H :    0.035841
  31 H :    0.015399
  32 H :    0.024155
  33 H :    0.031501

  Mayer bond orders larger than 0.100000
B(  0-S ,  1-C ) :   1.1465 B(  0-S ,  4-C ) :   1.1734 B(  1-C ,  2-C ) :   1.5884
B(  1-C , 32-H ) :   0.9752 B(  2-C ,  3-C ) :   1.2493 B(  2-C ,  6-C ) :   1.0247
B(  3-C ,  4-C ) :   1.5599 B(  3-C ,  5-H ) :   0.9981 B(  4-C , 20-C ) :   1.0043
B(  6-C ,  7-H ) :   0.9437 B(  6-C ,  8-H ) :   0.9438 B(  6-C ,  9-C ) :   1.0621
B(  9-C , 10-H ) :   0.9530 B(  9-C , 11-H ) :   0.9587 B(  9-C , 12-C ) :   1.0734
B( 12-C , 13-H ) :   0.9733 B( 12-C , 14-H ) :   0.9737 B( 12-C , 15-H ) :   0.9754
B( 16-S , 17-C ) :   1.1411 B( 16-S , 20-C ) :   1.1177 B( 17-C , 18-C ) :   1.6822
B( 17-C , 33-H ) :   0.9546 B( 18-C , 19-C ) :   1.1838 B( 18-C , 21-H ) :   0.9843
B( 19-C , 20-C ) :   1.6432 B( 19-C , 22-C ) :   1.0820 B( 22-C , 23-H ) :   0.9250
B( 22-C , 24-H ) :   0.9170 B( 22-C , 25-C ) :   1.0582 B( 25-C , 26-H ) :   0.9590
B( 25-C , 27-H ) :   0.9563 B( 25-C , 28-C ) :   1.0583 B( 28-C , 29-H ) :   0.9791
B( 28-C , 30-H ) :   0.9764 B( 28-C , 31-H ) :   0.9807

Dispersion correction           -0.013446728
FINAL SINGLE POINT ENERGY     -1339.873018827921

DIPOLE MOMENT
-------------
                                X             Y             Z
Electronic contribution:    -16.05668     -11.39373      11.66844
Nuclear contribution   :     16.39549      11.71614     -11.77296
                        -----------------------------------------
Total Dipole Moment    :      0.33881       0.32241      -0.10452
                        -----------------------------------------
Magnitude (a.u.)       :      0.47923
Magnitude (Debye)      :      1.21811

Rotational constants in cm-1:     0.019889     0.007144     0.006145
Rotational constants in MHz :   596.270530   214.174894   184.208221

                             ****ORCA TERMINATED NORMALLY****
TOTAL RUN TIME: 0 days 0 hours 0 minutes 20 seconds 919 msec
