                         Program Version 4.2.1 -  RELEASE  -
|  1> ! wB97X-D3 SP def2-SVP
|  2> %pal
|  3> nprocs 24
|  4> end
|  5>
|  6> * xyz 0 1
|  7> S 	 -90.1661 	 -30.942 	 -55.909
|  8> C 	 -88.4049 	 -31.0264 	 -56.0246
|  9> C 	 -87.8431 	 -29.8849 	 -55.5629
| 10> C 	 -88.7689 	 -29.0302 	 -54.8506
| 11> C 	 -90.0614 	 -29.4398 	 -55.0273
| 12> H 	 -88.6138 	 -28.0682 	 -54.3748
| 13> C 	 -86.4121 	 -29.5254 	 -55.7999
| 14> H 	 -86.3463 	 -28.4127 	 -55.8755
| 15> H 	 -86.2419 	 -29.8827 	 -56.7905
| 16> C 	 -85.4944 	 -30.0081 	 -54.6893
| 17> H 	 -85.2598 	 -29.1298 	 -54.0506
| 18> H 	 -85.9578 	 -30.7743 	 -54.085
| 19> C 	 -84.2319 	 -30.5646 	 -55.2947
| 20> H 	 -84.3711 	 -31.526 	 -55.7458
| 21> H 	 -83.8062 	 -29.8726 	 -56.0128
| 22> H 	 -83.4191 	 -30.5985 	 -54.532
| 23> S 	 -92.1874 	 -28.0277 	 -56.112
| 24> C 	 -93.0057 	 -26.8084 	 -55.0629
| 25> C 	 -92.6274 	 -26.8676 	 -53.7636
| 26> C 	 -91.5569 	 -27.8274 	 -53.5771
| 27> C 	 -91.1926 	 -28.5282 	 -54.7086
| 28> H 	 -92.975 	 -26.1098 	 -53.0659
| 29> C 	 -90.875 	 -27.9208 	 -52.299
| 30> H 	 -89.9686 	 -28.7041 	 -52.2843
| 31> H 	 -91.6385 	 -28.4624 	 -51.687
| 32> C 	 -90.4767 	 -26.5894 	 -51.7048
| 33> H 	 -91.4539 	 -26.0724 	 -51.5859
| 34> H 	 -89.8183 	 -26.0132 	 -52.4226
| 35> C 	 -89.7863 	 -26.8108 	 -50.4491
| 36> H 	 -89.7262 	 -25.8843 	 -49.9566
| 37> H 	 -88.8028 	 -27.2195 	 -50.6097
| 38> H 	 -90.3603 	 -27.5101 	 -49.7766
| 39> H 	 -87.9044 	 -31.9041 	 -56.494
| 40> H 	 -93.8297 	 -26.0916 	 -55.3287
| 41> *
| 42>
| 43>                          ****END OF INPUT****

CARTESIAN COORDINATES (ANGSTROEM)
---------------------------------
  S    -90.166100  -30.942000  -55.909000
  C    -88.404900  -31.026400  -56.024600
  C    -87.843100  -29.884900  -55.562900
  C    -88.768900  -29.030200  -54.850600
  C    -90.061400  -29.439800  -55.027300
  H    -88.613800  -28.068200  -54.374800
  C    -86.412100  -29.525400  -55.799900
  H    -86.346300  -28.412700  -55.875500
  H    -86.241900  -29.882700  -56.790500
  C    -85.494400  -30.008100  -54.689300
  H    -85.259800  -29.129800  -54.050600
  H    -85.957800  -30.774300  -54.085000
  C    -84.231900  -30.564600  -55.294700
  H    -84.371100  -31.526000  -55.745800
  H    -83.806200  -29.872600  -56.012800
  H    -83.419100  -30.598500  -54.532000
  S    -92.187400  -28.027700  -56.112000
  C    -93.005700  -26.808400  -55.062900
  C    -92.627400  -26.867600  -53.763600
  C    -91.556900  -27.827400  -53.577100
  C    -91.192600  -28.528200  -54.708600
  H    -92.975000  -26.109800  -53.065900
  C    -90.875000  -27.920800  -52.299000
  H    -89.968600  -28.704100  -52.284300
  H    -91.638500  -28.462400  -51.687000
  C    -90.476700  -26.589400  -51.704800
  H    -91.453900  -26.072400  -51.585900
  H    -89.818300  -26.013200  -52.422600
  C    -89.786300  -26.810800  -50.449100
  H    -89.726200  -25.884300  -49.956600
  H    -88.802800  -27.219500  -50.609700
  H    -90.360300  -27.510100  -49.776600
  H    -87.904400  -31.904100  -56.494000
  H    -93.829700  -26.091600  -55.328700

 Total Charge           Charge          ....    0
 Multiplicity           Mult            ....    1
 Number of Electrons    NEL             ....  134
 Basis Dimension        Dim             ....  322

ORBITAL ENERGIES
----------------

  NO   OCC          E(Eh)            E(eV)
   0   2.0000     -88.963910     -2420.8311
   1   2.0000     -88.961899     -2420.7763
   2   2.0000     -10.328339      -281.0484
   3   2.0000     -10.326988      -281.0116
   4   2.0000     -10.321434      -280.8605
   5   2.0000     -10.313641      -280.6484
   6   2.0000     -10.299328      -280.2590
   7   2.0000     -10.297961      -280.2218
   8   2.0000     -10.293378      -280.0970
   9   2.0000     -10.292466      -280.0722
  10   2.0000     -10.291781      -280.0536
  11   2.0000     -10.288207      -279.9563
  12   2.0000     -10.286348      -279.9057
  13   2.0000     -10.284549      -279.8568
  14   2.0000     -10.276114      -279.6273
  15   2.0000     -10.272213      -279.5211
  16   2.0000      -8.078621      -219.8305
  17   2.0000      -8.075318      -219.7406
  18   2.0000      -6.037209      -164.2808
  19   2.0000      -6.034098      -164.1961
  20   2.0000      -6.033243      -164.1729
  21   2.0000      -6.030167      -164.0892
  22   2.0000      -6.029191      -164.0626
  23   2.0000      -6.025705      -163.9678
  24   2.0000      -1.003522       -27.3072
  25   2.0000      -0.981160       -26.6987
  26   2.0000      -0.922833       -25.1116
  27   2.0000      -0.917498       -24.9664
  28   2.0000      -0.870044       -23.6751
  29   2.0000      -0.856147       -23.2969
  30   2.0000      -0.847733       -23.0680
  31   2.0000      -0.818758       -22.2795
  32   2.0000      -0.777839       -21.1661
  33   2.0000      -0.765383       -20.8271
  34   2.0000      -0.704318       -19.1655
  35   2.0000      -0.697357       -18.9760
  36   2.0000      -0.691019       -18.8036
  37   2.0000      -0.655499       -17.8370
  38   2.0000      -0.641989       -17.4694
  39   2.0000      -0.613144       -16.6845
  40   2.0000      -0.593868       -16.1600
  41   2.0000      -0.580122       -15.7859
  42   2.0000      -0.573147       -15.5961
  43   2.0000      -0.555406       -15.1134
  44   2.0000      -0.530739       -14.4421
  45   2.0000      -0.526859       -14.3366
  46   2.0000      -0.522348       -14.2138
  47   2.0000      -0.519158       -14.1270
  48   2.0000      -0.508108       -13.8263
  49   2.0000      -0.493710       -13.4345
  50   2.0000      -0.485603       -13.2139
  51   2.0000      -0.478704       -13.0262
  52   2.0000      -0.475385       -12.9359
  53   2.0000      -0.464170       -12.6307
  54   2.0000      -0.459392       -12.5007
  55   2.0000      -0.447380       -12.1738
  56   2.0000      -0.441144       -12.0041
  57   2.0000      -0.439298       -11.9539
  58   2.0000      -0.432688       -11.7740
  59   2.0000      -0.423750       -11.5308
  60   2.0000      -0.417083       -11.3494
  61   2.0000      -0.415153       -11.2969
  62   2.0000      -0.404353       -11.0030
  63   2.0000      -0.348361        -9.4794
  64   2.0000      -0.327009        -8.8984
  65   2.0000      -0.324558        -8.8317
  66   2.0000      -0.293112        -7.9760
  67   0.0000       0.039604         1.0777
  68   0.0000       0.068282         1.8581
  69   0.0000       0.107617         2.9284
  70   0.0000       0.119513         3.2521
  71   0.0000       0.125186         3.4065

MULLIKEN ATOMIC CHARGES
-----------------------
   0 S :    0.101625
   1 C :   -0.150167
   2 C :   -0.104830
   3 C :    0.041560
   4 C :   -0.144756
   5 H :    0.016178
   6 C :    0.067527
   7 H :    0.030567
   8 H :    0.022683
   9 C :   -0.041642
  10 H :    0.033200
  11 H :    0.039931
  12 C :   -0.060495
  13 H :    0.036838
  14 H :    0.024899
  15 H :    0.027570
  16 S :    0.083232
  17 C :   -0.098828
  18 C :   -0.038066
  19 C :   -0.015281
  20 C :   -0.144465
  21 H :    0.031900
  22 C :   -0.043608
  23 H :    0.044911
  24 H :    0.042808
  25 C :   -0.105403
  26 H :    0.031497
  27 H :    0.042963
  28 C :    0.018199
  29 H :    0.019960
  30 H :    0.029257
  31 H :    0.026595
  32 H :    0.066232
  33 H :    0.067409
Sum of atomic charges:    0.0000000

LOEWDIN ATOMIC CHARGES
----------------------
   0 S :    0.390804
   1 C :   -0.200301
   2 C :   -0.060825
   3 C :   -0.061065
   4 C :   -0.192848
   5 H :    0.033347
   6 C :   -0.032654
   7 H :    0.037389
   8 H :    0.026848
   9 C :   -0.039299
  10 H :    0.030152
  11 H :    0.024247
  12 C :   -0.063699
  13 H :    0.022018
  14 H :    0.022800
  15 H :    0.027249
  16 S :    0.355406
  17 C :   -0.168231
  18 C :   -0.077207
  19 C :   -0.062176
  20 C :   -0.181116
  21 H :    0.035800
  22 C :   -0.053376
  23 H :    0.039419
  24 H :    0.039973
  25 C :   -0.047684
  26 H :    0.026264
  27 H :    0.031924
  28 C :   -0.059832
  29 H :    0.020318
  30 H :    0.025572
  31 H :    0.031664
  32 H :    0.037424
  33 H :    0.041694

  Mayer bond orders larger than 0.100000
B(  0-S ,  1-C ) :   1.1093 B(  0-S ,  4-C ) :   1.1509 B(  1-C ,  2-C ) :   1.6427
B(  1-C , 32-H ) :   0.9680 B(  2-C ,  3-C ) :   1.2032 B(  2-C ,  6-C ) :   1.0235
B(  3-C ,  4-C ) :   1.5953 B(  3-C ,  5-H ) :   0.9916 B(  4-C , 20-C ) :   1.0171
B(  6-C ,  7-H ) :   0.9363 B(  6-C ,  8-H ) :   0.9512 B(  6-C ,  9-C ) :   1.0310
B(  9-C , 10-H ) :   0.9508 B(  9-C , 11-H ) :   0.9675 B(  9-C , 12-C ) :   1.0889
B( 12-C , 13-H ) :   0.9783 B( 12-C , 14-H ) :   0.9738 B( 12-C , 15-H ) :   0.9722
B( 16-S , 17-C ) :   1.1269 B( 16-S , 20-C ) :   1.0945 B( 17-C , 18-C ) :   1.6941
B( 17-C , 33-H ) :   0.9521 B( 18-C , 19-C ) :   1.1725 B( 18-C , 21-H ) :   0.9806
B( 19-C , 20-C ) :   1.6698 B( 19-C , 22-C ) :   1.0490 B( 22-C , 23-H ) :   0.9415
B( 22-C , 24-H ) :   0.9183 B( 22-C , 25-C ) :   1.0579 B( 25-C , 26-H ) :   0.9401
B( 25-C , 27-H ) :   0.9524 B( 25-C , 28-C ) :   1.1091 B( 28-C , 29-H ) :   0.9659
B( 28-C , 30-H ) :   0.9672 B( 28-C , 31-H ) :   0.9650

Dispersion correction           -0.013872510
FINAL SINGLE POINT ENERGY     -1339.862927873532

DIPOLE MOMENT
-------------
                                X             Y             Z
Electronic contribution:    -22.81614      -5.99746     -16.99600
Nuclear contribution   :     23.34542       6.44444      17.42482
                        -----------------------------------------
Total Dipole Moment    :      0.52928       0.44698       0.42882
                        -----------------------------------------
Magnitude (a.u.)       :      0.81474
Magnitude (Debye)      :      2.07092

Rotational constants in cm-1:     0.018186     0.008438     0.006323
Rotational constants in MHz :   545.202449   252.951972   189.563481

                             ****ORCA TERMINATED NORMALLY****
TOTAL RUN TIME: 0 days 0 hours 0 minutes 21 seconds 424 msec
