                         Program Version 4.2.1 -  RELEASE  -
|  1> ! wB97X-D3 SP def2-SVP
|  2> %pal
|  3> nprocs 24
|  4> end
|  5>
|  6> * xyz 0 1
|  7> S 	 -45.7537 	 20.3207 	 27.5389
|  8> C 	 -45.6816 	 20.2867 	 25.7447
|  9> C 	 -45.3426 	 18.946 	 25.3824
| 10> C 	 -45.1039 	 18.0951 	 26.4715
| 11> C 	 -45.3025 	 18.6489 	 27.7271
| 12> H 	 -44.8335 	 17.0536 	 26.4492
| 13> C 	 -45.0957 	 18.569 	 23.93
| 14> H 	 -44.4133 	 17.6685 	 24.0611
| 15> H 	 -44.6552 	 19.4064 	 23.3778
| 16> C 	 -46.3188 	 18.0292 	 23.1558
| 17> H 	 -47.0125 	 18.8438 	 23.1482
| 18> H 	 -45.8971 	 17.8306 	 22.1625
| 19> C 	 -46.8483 	 16.6768 	 23.8069
| 20> H 	 -47.2504 	 16.7868 	 24.8717
| 21> H 	 -47.5759 	 16.1382 	 23.2435
| 22> H 	 -45.9988 	 15.9523 	 23.8332
| 23> S 	 -43.9639 	 19.0201 	 30.015
| 24> C 	 -43.5168 	 17.6871 	 30.9461
| 25> C 	 -44.2465 	 16.5329 	 30.6187
| 26> C 	 -45.1611 	 16.7381 	 29.5122
| 27> C 	 -45.0253 	 18.0375 	 28.9964
| 28> H 	 -44.1262 	 15.5688 	 31.0573
| 29> C 	 -46.0089 	 15.6161 	 28.9316
| 30> H 	 -45.829 	 14.6518 	 29.5627
| 31> H 	 -45.6886 	 15.4172 	 27.9539
| 32> C 	 -47.5506 	 15.9136 	 28.8223
| 33> H 	 -48.0438 	 15.2511 	 28.1853
| 34> H 	 -47.6424 	 16.8838 	 28.4004
| 35> C 	 -48.3692 	 15.9581 	 30.1659
| 36> H 	 -48.2845 	 14.9804 	 30.6402
| 37> H 	 -49.4103 	 16.1673 	 29.9572
| 38> H 	 -48.1604 	 16.763 	 30.8054
| 39> H 	 -45.8389 	 21.1863 	 25.0707
| 40> H 	 -42.7077 	 17.6734 	 31.6898
| 41> *
| 42>
| 43>                          ****END OF INPUT****

CARTESIAN COORDINATES (ANGSTROEM)
---------------------------------
  S    -45.753700   20.320700   27.538900
  C    -45.681600   20.286700   25.744700
  C    -45.342600   18.946000   25.382400
  C    -45.103900   18.095100   26.471500
  C    -45.302500   18.648900   27.727100
  H    -44.833500   17.053600   26.449200
  C    -45.095700   18.569000   23.930000
  H    -44.413300   17.668500   24.061100
  H    -44.655200   19.406400   23.377800
  C    -46.318800   18.029200   23.155800
  H    -47.012500   18.843800   23.148200
  H    -45.897100   17.830600   22.162500
  C    -46.848300   16.676800   23.806900
  H    -47.250400   16.786800   24.871700
  H    -47.575900   16.138200   23.243500
  H    -45.998800   15.952300   23.833200
  S    -43.963900   19.020100   30.015000
  C    -43.516800   17.687100   30.946100
  C    -44.246500   16.532900   30.618700
  C    -45.161100   16.738100   29.512200
  C    -45.025300   18.037500   28.996400
  H    -44.126200   15.568800   31.057300
  C    -46.008900   15.616100   28.931600
  H    -45.829000   14.651800   29.562700
  H    -45.688600   15.417200   27.953900
  C    -47.550600   15.913600   28.822300
  H    -48.043800   15.251100   28.185300
  H    -47.642400   16.883800   28.400400
  C    -48.369200   15.958100   30.165900
  H    -48.284500   14.980400   30.640200
  H    -49.410300   16.167300   29.957200
  H    -48.160400   16.763000   30.805400
  H    -45.838900   21.186300   25.070700
  H    -42.707700   17.673400   31.689800

 Total Charge           Charge          ....    0
 Multiplicity           Mult            ....    1
 Number of Electrons    NEL             ....  134
 Basis Dimension        Dim             ....  322

ORBITAL ENERGIES
----------------

  NO   OCC          E(Eh)            E(eV)
   0   2.0000     -88.967846     -2420.9382
   1   2.0000     -88.965134     -2420.8644
   2   2.0000     -10.329961      -281.0925
   3   2.0000     -10.328652      -281.0569
   4   2.0000     -10.325298      -280.9656
   5   2.0000     -10.319884      -280.8183
   6   2.0000     -10.311480      -280.5896
   7   2.0000     -10.304187      -280.3912
   8   2.0000     -10.301656      -280.3223
   9   2.0000     -10.296807      -280.1904
  10   2.0000     -10.295176      -280.1460
  11   2.0000     -10.291757      -280.0529
  12   2.0000     -10.290378      -280.0154
  13   2.0000     -10.287813      -279.9456
  14   2.0000     -10.281670      -279.7785
  15   2.0000     -10.269938      -279.4592
  16   2.0000      -8.083562      -219.9649
  17   2.0000      -8.079128      -219.8443
  18   2.0000      -6.041946      -164.4097
  19   2.0000      -6.037791      -164.2966
  20   2.0000      -6.037636      -164.2924
  21   2.0000      -6.034499      -164.2071
  22   2.0000      -6.033605      -164.1827
  23   2.0000      -6.030065      -164.0864
  24   2.0000      -1.008256       -27.4360
  25   2.0000      -0.981172       -26.6991
  26   2.0000      -0.908221       -24.7140
  27   2.0000      -0.904328       -24.6080
  28   2.0000      -0.864880       -23.5346
  29   2.0000      -0.851382       -23.1673
  30   2.0000      -0.838810       -22.8252
  31   2.0000      -0.808739       -22.0069
  32   2.0000      -0.785765       -21.3818
  33   2.0000      -0.769600       -20.9419
  34   2.0000      -0.710740       -19.3402
  35   2.0000      -0.702196       -19.1077
  36   2.0000      -0.689751       -18.7691
  37   2.0000      -0.665726       -18.1153
  38   2.0000      -0.636816       -17.3287
  39   2.0000      -0.613539       -16.6952
  40   2.0000      -0.593584       -16.1522
  41   2.0000      -0.570281       -15.5181
  42   2.0000      -0.555000       -15.1023
  43   2.0000      -0.549453       -14.9514
  44   2.0000      -0.544436       -14.8149
  45   2.0000      -0.533345       -14.5131
  46   2.0000      -0.513258       -13.9665
  47   2.0000      -0.510592       -13.8939
  48   2.0000      -0.500577       -13.6214
  49   2.0000      -0.495747       -13.4900
  50   2.0000      -0.487509       -13.2658
  51   2.0000      -0.478369       -13.0171
  52   2.0000      -0.471588       -12.8325
  53   2.0000      -0.463208       -12.6045
  54   2.0000      -0.458770       -12.4838
  55   2.0000      -0.447904       -12.1881
  56   2.0000      -0.440976       -11.9996
  57   2.0000      -0.437966       -11.9177
  58   2.0000      -0.434402       -11.8207
  59   2.0000      -0.429128       -11.6772
  60   2.0000      -0.424387       -11.5482
  61   2.0000      -0.416312       -11.3284
  62   2.0000      -0.406207       -11.0535
  63   2.0000      -0.347510        -9.4562
  64   2.0000      -0.333219        -9.0674
  65   2.0000      -0.329554        -8.9676
  66   2.0000      -0.283062        -7.7025
  67   0.0000       0.021788         0.5929
  68   0.0000       0.065303         1.7770
  69   0.0000       0.109809         2.9881
  70   0.0000       0.116991         3.1835
  71   0.0000       0.125375         3.4116

MULLIKEN ATOMIC CHARGES
-----------------------
   0 S :    0.092842
   1 C :   -0.159492
   2 C :   -0.075138
   3 C :    0.031493
   4 C :   -0.142979
   5 H :    0.000287
   6 C :    0.009008
   7 H :    0.029740
   8 H :    0.038903
   9 C :   -0.026518
  10 H :    0.027191
  11 H :    0.037577
  12 C :   -0.093957
  13 H :    0.061880
  14 H :    0.032412
  15 H :    0.023736
  16 S :    0.124122
  17 C :   -0.087292
  18 C :   -0.038230
  19 C :   -0.036775
  20 C :   -0.160546
  21 H :    0.008216
  22 C :    0.062779
  23 H :    0.031725
  24 H :    0.021842
  25 C :   -0.053014
  26 H :    0.017173
  27 H :    0.030532
  28 C :   -0.042629
  29 H :    0.030728
  30 H :    0.023352
  31 H :    0.029590
  32 H :    0.083194
  33 H :    0.068247
Sum of atomic charges:    0.0000000

LOEWDIN ATOMIC CHARGES
----------------------
   0 S :    0.390120
   1 C :   -0.207898
   2 C :   -0.063910
   3 C :   -0.074389
   4 C :   -0.198762
   5 H :    0.028416
   6 C :   -0.035553
   7 H :    0.034269
   8 H :    0.031945
   9 C :   -0.031072
  10 H :    0.017945
  11 H :    0.027772
  12 C :   -0.075664
  13 H :    0.036949
  14 H :    0.019742
  15 H :    0.025919
  16 S :    0.437324
  17 C :   -0.205052
  18 C :   -0.071151
  19 C :   -0.047448
  20 C :   -0.198905
  21 H :    0.025306
  22 C :   -0.028712
  23 H :    0.037979
  24 H :    0.022878
  25 C :   -0.027088
  26 H :    0.016030
  27 H :    0.022642
  28 C :   -0.061766
  29 H :    0.023214
  30 H :    0.027188
  31 H :    0.020045
  32 H :    0.046085
  33 H :    0.035603

  Mayer bond orders larger than 0.100000
B(  0-S ,  1-C ) :   1.1330 B(  0-S ,  4-C ) :   1.1611 B(  1-C ,  2-C ) :   1.5517
B(  1-C ,  4-C ) :   0.1108 B(  1-C , 32-H ) :   0.9665 B(  2-C ,  3-C ) :   1.2804
B(  2-C ,  6-C ) :   1.0113 B(  3-C ,  4-C ) :   1.5411 B(  3-C ,  5-H ) :   0.9912
B(  4-C , 20-C ) :   1.0541 B(  6-C ,  7-H ) :   0.9460 B(  6-C ,  8-H ) :   0.9478
B(  6-C ,  9-C ) :   1.0654 B(  9-C , 10-H ) :   0.9585 B(  9-C , 11-H ) :   0.9571
B(  9-C , 12-C ) :   1.0632 B( 12-C , 13-H ) :   0.9732 B( 12-C , 14-H ) :   0.9777
B( 12-C , 15-H ) :   0.9738 B( 16-S , 17-C ) :   1.1887 B( 16-S , 20-C ) :   1.1425
B( 17-C , 18-C ) :   1.5655 B( 17-C , 33-H ) :   0.9658 B( 18-C , 19-C ) :   1.2661
B( 18-C , 21-H ) :   0.9948 B( 19-C , 20-C ) :   1.5567 B( 19-C , 22-C ) :   1.0369
B( 22-C , 23-H ) :   0.9400 B( 22-C , 24-H ) :   0.9313 B( 22-C , 25-C ) :   1.0668
B( 25-C , 26-H ) :   0.9590 B( 25-C , 27-H ) :   0.9570 B( 25-C , 28-C ) :   1.0780
B( 28-C , 29-H ) :   0.9780 B( 28-C , 30-H ) :   0.9723 B( 28-C , 31-H ) :   0.9772

Dispersion correction           -0.014987429
FINAL SINGLE POINT ENERGY     -1339.866945109553

DIPOLE MOMENT
-------------
                                X             Y             Z
Electronic contribution:     13.27472      18.90346      13.74456
Nuclear contribution   :    -13.23105     -19.45206     -14.10572
                        -----------------------------------------
Total Dipole Moment    :      0.04367      -0.54859      -0.36115
                        -----------------------------------------
Magnitude (a.u.)       :      0.65825
Magnitude (Debye)      :      1.67314

Rotational constants in cm-1:     0.018437     0.009468     0.007424
Rotational constants in MHz :   552.730223   283.840364   222.573037

                             ****ORCA TERMINATED NORMALLY****
TOTAL RUN TIME: 0 days 0 hours 0 minutes 21 seconds 87 msec
