                         Program Version 4.2.1 -  RELEASE  -
|  1> ! wB97X-D3 SP def2-SVP
|  2> %pal
|  3> nprocs 24
|  4> end
|  5>
|  6> * xyz 0 1
|  7> S 	 -1.02757 	 -24.6895 	 -110.122
|  8> C 	 -2.04304 	 -23.6761 	 -111.18
|  9> C 	 -2.52654 	 -22.6791 	 -110.441
| 10> C 	 -2.20864 	 -22.7103 	 -109.047
| 11> C 	 -1.51136 	 -23.8634 	 -108.7
| 12> H 	 -2.41599 	 -21.9121 	 -108.295
| 13> C 	 -3.24618 	 -21.5507 	 -111.203
| 14> H 	 -3.24431 	 -21.728 	 -112.313
| 15> H 	 -2.60872 	 -20.7261 	 -111.21
| 16> C 	 -4.69488 	 -21.2105 	 -110.769
| 17> H 	 -4.73358 	 -20.8938 	 -109.671
| 18> H 	 -5.07496 	 -20.3641 	 -111.297
| 19> C 	 -5.76126 	 -22.3457 	 -111.141
| 20> H 	 -6.69058 	 -21.8647 	 -110.84
| 21> H 	 -5.74408 	 -22.6176 	 -112.142
| 22> H 	 -5.77278 	 -23.3142 	 -110.601
| 23> S 	 0.683129 	 -24.0158 	 -107.167
| 24> C 	 0.583882 	 -24.6121 	 -105.464
| 25> C 	 -0.743095 	 -24.8403 	 -105.096
| 26> C 	 -1.65109 	 -24.6681 	 -106.172
| 27> C 	 -1.04406 	 -24.1807 	 -107.354
| 28> H 	 -1.01067 	 -25.2824 	 -104.049
| 29> C 	 -3.16282 	 -24.9909 	 -106.083
| 30> H 	 -3.59513 	 -24.8637 	 -107.105
| 31> H 	 -3.7227 	 -24.1914 	 -105.581
| 32> C 	 -3.586 	 -26.373 	 -105.529
| 33> H 	 -2.93666 	 -26.5669 	 -104.683
| 34> H 	 -3.44546 	 -27.0762 	 -106.406
| 35> C 	 -5.03926 	 -26.5272 	 -104.933
| 36> H 	 -5.15446 	 -26.1977 	 -103.884
| 37> H 	 -5.34192 	 -27.5504 	 -104.899
| 38> H 	 -5.86814 	 -26.139 	 -105.55
| 39> H 	 -2.13113 	 -23.9541 	 -112.244
| 40> H 	 1.37057 	 -24.6314 	 -104.77
| 41> *
| 42>
| 43>                          ****END OF INPUT****

CARTESIAN COORDINATES (ANGSTROEM)
---------------------------------
  S     -1.027570  -24.689500  -110.122000
  C     -2.043040  -23.676100  -111.180000
  C     -2.526540  -22.679100  -110.441000
  C     -2.208640  -22.710300  -109.047000
  C     -1.511360  -23.863400  -108.700000
  H     -2.415990  -21.912100  -108.295000
  C     -3.246180  -21.550700  -111.203000
  H     -3.244310  -21.728000  -112.313000
  H     -2.608720  -20.726100  -111.210000
  C     -4.694880  -21.210500  -110.769000
  H     -4.733580  -20.893800  -109.671000
  H     -5.074960  -20.364100  -111.297000
  C     -5.761260  -22.345700  -111.141000
  H     -6.690580  -21.864700  -110.840000
  H     -5.744080  -22.617600  -112.142000
  H     -5.772780  -23.314200  -110.601000
  S      0.683129  -24.015800  -107.167000
  C      0.583882  -24.612100  -105.464000
  C     -0.743095  -24.840300  -105.096000
  C     -1.651090  -24.668100  -106.172000
  C     -1.044060  -24.180700  -107.354000
  H     -1.010670  -25.282400  -104.049000
  C     -3.162820  -24.990900  -106.083000
  H     -3.595130  -24.863700  -107.105000
  H     -3.722700  -24.191400  -105.581000
  C     -3.586000  -26.373000  -105.529000
  H     -2.936660  -26.566900  -104.683000
  H     -3.445460  -27.076200  -106.406000
  C     -5.039260  -26.527200  -104.933000
  H     -5.154460  -26.197700  -103.884000
  H     -5.341920  -27.550400  -104.899000
  H     -5.868140  -26.139000  -105.550000
  H     -2.131130  -23.954100  -112.244000
  H      1.370570  -24.631400  -104.770000

 Total Charge           Charge          ....    0
 Multiplicity           Mult            ....    1
 Number of Electrons    NEL             ....  134
 Basis Dimension        Dim             ....  322

ORBITAL ENERGIES
----------------

  NO   OCC          E(Eh)            E(eV)
   0   2.0000     -88.967616     -2420.9319
   1   2.0000     -88.959888     -2420.7216
   2   2.0000     -10.330084      -281.0959
   3   2.0000     -10.329910      -281.0912
   4   2.0000     -10.320541      -280.8362
   5   2.0000     -10.314470      -280.6710
   6   2.0000     -10.310519      -280.5635
   7   2.0000     -10.305717      -280.4328
   8   2.0000     -10.299972      -280.2765
   9   2.0000     -10.299244      -280.2567
  10   2.0000     -10.296129      -280.1719
  11   2.0000     -10.294736      -280.1340
  12   2.0000     -10.292424      -280.0711
  13   2.0000     -10.291581      -280.0482
  14   2.0000     -10.281159      -279.7646
  15   2.0000     -10.275918      -279.6220
  16   2.0000      -8.081475      -219.9081
  17   2.0000      -8.075416      -219.7432
  18   2.0000      -6.040020      -164.3573
  19   2.0000      -6.036045      -164.2491
  20   2.0000      -6.033902      -164.1908
  21   2.0000      -6.032293      -164.1470
  22   2.0000      -6.029760      -164.0781
  23   2.0000      -6.026167      -163.9803
  24   2.0000      -1.008026       -27.4298
  25   2.0000      -0.981173       -26.6991
  26   2.0000      -0.904364       -24.6090
  27   2.0000      -0.895474       -24.3671
  28   2.0000      -0.868506       -23.6333
  29   2.0000      -0.842642       -22.9295
  30   2.0000      -0.839338       -22.8395
  31   2.0000      -0.815652       -22.1950
  32   2.0000      -0.783272       -21.3139
  33   2.0000      -0.772725       -21.0269
  34   2.0000      -0.710435       -19.3319
  35   2.0000      -0.696009       -18.9394
  36   2.0000      -0.693883       -18.8815
  37   2.0000      -0.652432       -17.7536
  38   2.0000      -0.643875       -17.5207
  39   2.0000      -0.615251       -16.7418
  40   2.0000      -0.593669       -16.1546
  41   2.0000      -0.563757       -15.3406
  42   2.0000      -0.557129       -15.1603
  43   2.0000      -0.547212       -14.8904
  44   2.0000      -0.535897       -14.5825
  45   2.0000      -0.520693       -14.1688
  46   2.0000      -0.517964       -14.0945
  47   2.0000      -0.506045       -13.7702
  48   2.0000      -0.501459       -13.6454
  49   2.0000      -0.500249       -13.6125
  50   2.0000      -0.486180       -13.2296
  51   2.0000      -0.481872       -13.1124
  52   2.0000      -0.468040       -12.7360
  53   2.0000      -0.464732       -12.6460
  54   2.0000      -0.457748       -12.4559
  55   2.0000      -0.448055       -12.1922
  56   2.0000      -0.442699       -12.0464
  57   2.0000      -0.431091       -11.7306
  58   2.0000      -0.424171       -11.5423
  59   2.0000      -0.419225       -11.4077
  60   2.0000      -0.417937       -11.3727
  61   2.0000      -0.416898       -11.3444
  62   2.0000      -0.405994       -11.0477
  63   2.0000      -0.341668        -9.2973
  64   2.0000      -0.333532        -9.0759
  65   2.0000      -0.324678        -8.8349
  66   2.0000      -0.301414        -8.2019
  67   0.0000       0.034941         0.9508
  68   0.0000       0.058900         1.6028
  69   0.0000       0.110172         2.9979
  70   0.0000       0.126048         3.4299
  71   0.0000       0.128106         3.4859

MULLIKEN ATOMIC CHARGES
-----------------------
   0 S :    0.096602
   1 C :   -0.166688
   2 C :   -0.024231
   3 C :    0.026326
   4 C :   -0.158769
   5 H :    0.036694
   6 C :    0.062748
   7 H :    0.014736
   8 H :    0.020041
   9 C :   -0.083170
  10 H :    0.041399
  11 H :    0.025363
  12 C :   -0.054437
  13 H :    0.030666
  14 H :    0.020325
  15 H :    0.041133
  16 S :    0.104950
  17 C :   -0.077501
  18 C :   -0.076730
  19 C :   -0.003274
  20 C :   -0.185795
  21 H :    0.063348
  22 C :    0.051552
  23 H :    0.028471
  24 H :    0.030749
  25 C :   -0.088615
  26 H :    0.029686
  27 H :    0.054538
  28 C :   -0.063732
  29 H :    0.038643
  30 H :    0.022142
  31 H :    0.031087
  32 H :    0.070974
  33 H :    0.040769
Sum of atomic charges:    0.0000000

LOEWDIN ATOMIC CHARGES
----------------------
   0 S :    0.398011
   1 C :   -0.183209
   2 C :   -0.067035
   3 C :   -0.066834
   4 C :   -0.210635
   5 H :    0.041845
   6 C :   -0.032970
   7 H :    0.033650
   8 H :    0.023175
   9 C :   -0.039337
  10 H :    0.030222
  11 H :    0.021224
  12 C :   -0.065005
  13 H :    0.027805
  14 H :    0.013547
  15 H :    0.029191
  16 S :    0.397155
  17 C :   -0.165172
  18 C :   -0.079899
  19 C :   -0.056164
  20 C :   -0.199483
  21 H :    0.051482
  22 C :   -0.043663
  23 H :    0.034111
  24 H :    0.030339
  25 C :   -0.040906
  26 H :    0.021348
  27 H :    0.036983
  28 C :   -0.076186
  29 H :    0.028713
  30 H :    0.024789
  31 H :    0.026839
  32 H :    0.037862
  33 H :    0.018207

  Mayer bond orders larger than 0.100000
B(  0-S ,  1-C ) :   1.1182 B(  0-S ,  4-C ) :   1.1739 B(  1-C ,  2-C ) :   1.6136
B(  1-C , 32-H ) :   0.9760 B(  2-C ,  3-C ) :   1.2281 B(  2-C ,  6-C ) :   1.0049
B(  3-C ,  4-C ) :   1.5578 B(  3-C ,  5-H ) :   0.9922 B(  4-C , 20-C ) :   1.0160
B(  6-C ,  7-H ) :   0.9454 B(  6-C ,  8-H ) :   0.9370 B(  6-C ,  9-C ) :   1.0731
B(  9-C , 10-H ) :   0.9593 B(  9-C , 11-H ) :   0.9568 B(  9-C , 12-C ) :   1.0554
B( 12-C , 13-H ) :   0.9786 B( 12-C , 14-H ) :   0.9786 B( 12-C , 15-H ) :   0.9794
B( 16-S , 17-C ) :   1.1450 B( 16-S , 20-C ) :   1.1606 B( 17-C , 18-C ) :   1.6168
B( 17-C , 20-C ) :   0.1131 B( 17-C , 33-H ) :   0.9722 B( 18-C , 19-C ) :   1.2534
B( 18-C , 21-H ) :   0.9649 B( 19-C , 20-C ) :   1.5914 B( 19-C , 22-C ) :   1.0334
B( 22-C , 23-H ) :   0.9338 B( 22-C , 24-H ) :   0.9413 B( 22-C , 25-C ) :   1.0455
B( 25-C , 26-H ) :   0.9627 B( 25-C , 27-H ) :   0.9604 B( 25-C , 28-C ) :   1.0753
B( 28-C , 29-H ) :   0.9764 B( 28-C , 30-H ) :   0.9735 B( 28-C , 31-H ) :   0.9756

Dispersion correction           -0.013593147
FINAL SINGLE POINT ENERGY     -1339.856762553152

DIPOLE MOMENT
-------------
                                X             Y             Z
Electronic contribution:     28.45521      -1.71460      -2.30762
Nuclear contribution   :    -28.97138       1.96049       2.37171
                        -----------------------------------------
Total Dipole Moment    :     -0.51616       0.24589       0.06409
                        -----------------------------------------
Magnitude (a.u.)       :      0.57532
Magnitude (Debye)      :      1.46235

Rotational constants in cm-1:     0.016706     0.008588     0.006474
Rotational constants in MHz :   500.841670   257.456120   194.097970

                             ****ORCA TERMINATED NORMALLY****
TOTAL RUN TIME: 0 days 0 hours 0 minutes 20 seconds 771 msec
