                         Program Version 4.2.1 -  RELEASE  -
|  1> ! wB97X-D3 SP def2-SVP
|  2> %pal
|  3> nprocs 24
|  4> end
|  5>
|  6> * xyz 0 1
|  7> S 	 -47.5006 	 -1.46763 	 19.1003
|  8> C 	 -49.0713 	 -1.12652 	 18.4165
|  9> C 	 -49.6452 	 -2.24859 	 17.898
| 10> C 	 -48.8366 	 -3.42297 	 18.0319
| 11> C 	 -47.6806 	 -3.16204 	 18.7027
| 12> H 	 -49.1398 	 -4.4304 	 17.7254
| 13> C 	 -50.9369 	 -2.3298 	 17.1596
| 14> H 	 -51.8768 	 -2.16748 	 17.7775
| 15> H 	 -50.9665 	 -3.34905 	 16.7039
| 16> C 	 -51.0586 	 -1.13705 	 16.1882
| 17> H 	 -51.344 	 -0.178773 	 16.7237
| 18> H 	 -50.1139 	 -0.846695 	 15.7673
| 19> C 	 -52.0136 	 -1.36845 	 14.9956
| 20> H 	 -51.8168 	 -0.517836 	 14.2932
| 21> H 	 -51.821 	 -2.26907 	 14.4334
| 22> H 	 -53.0421 	 -1.41293 	 15.1419
| 23> S 	 -46.3503 	 -5.49837 	 17.7898
| 24> C 	 -45.3424 	 -6.31904 	 18.967
| 25> C 	 -45.164 	 -5.58218 	 20.1414
| 26> C 	 -45.8622 	 -4.36008 	 20.1369
| 27> C 	 -46.7124 	 -4.22643 	 19.0171
| 28> H 	 -44.5737 	 -5.98068 	 20.9888
| 29> C 	 -45.7729 	 -3.46284 	 21.333
| 30> H 	 -46.0751 	 -2.42616 	 21.1404
| 31> H 	 -44.7144 	 -3.45556 	 21.6179
| 32> C 	 -46.5453 	 -3.94397 	 22.5736
| 33> H 	 -46.0414 	 -4.80196 	 22.9914
| 34> H 	 -47.4921 	 -4.28846 	 22.3186
| 35> C 	 -46.7186 	 -2.97437 	 23.7074
| 36> H 	 -47.4795 	 -3.41427 	 24.4385
| 37> H 	 -47.1258 	 -2.03971 	 23.295
| 38> H 	 -45.7861 	 -2.79972 	 24.1836
| 39> H 	 -49.606 	 -0.192518 	 18.4851
| 40> H 	 -44.8957 	 -7.29515 	 18.8106
| 41> *
| 42>
| 43>                          ****END OF INPUT****

CARTESIAN COORDINATES (ANGSTROEM)
---------------------------------
  S    -47.500600   -1.467630   19.100300
  C    -49.071300   -1.126520   18.416500
  C    -49.645200   -2.248590   17.898000
  C    -48.836600   -3.422970   18.031900
  C    -47.680600   -3.162040   18.702700
  H    -49.139800   -4.430400   17.725400
  C    -50.936900   -2.329800   17.159600
  H    -51.876800   -2.167480   17.777500
  H    -50.966500   -3.349050   16.703900
  C    -51.058600   -1.137050   16.188200
  H    -51.344000   -0.178773   16.723700
  H    -50.113900   -0.846695   15.767300
  C    -52.013600   -1.368450   14.995600
  H    -51.816800   -0.517836   14.293200
  H    -51.821000   -2.269070   14.433400
  H    -53.042100   -1.412930   15.141900
  S    -46.350300   -5.498370   17.789800
  C    -45.342400   -6.319040   18.967000
  C    -45.164000   -5.582180   20.141400
  C    -45.862200   -4.360080   20.136900
  C    -46.712400   -4.226430   19.017100
  H    -44.573700   -5.980680   20.988800
  C    -45.772900   -3.462840   21.333000
  H    -46.075100   -2.426160   21.140400
  H    -44.714400   -3.455560   21.617900
  C    -46.545300   -3.943970   22.573600
  H    -46.041400   -4.801960   22.991400
  H    -47.492100   -4.288460   22.318600
  C    -46.718600   -2.974370   23.707400
  H    -47.479500   -3.414270   24.438500
  H    -47.125800   -2.039710   23.295000
  H    -45.786100   -2.799720   24.183600
  H    -49.606000   -0.192518   18.485100
  H    -44.895700   -7.295150   18.810600

 Total Charge           Charge          ....    0
 Multiplicity           Mult            ....    1
 Number of Electrons    NEL             ....  134
 Basis Dimension        Dim             ....  322

ORBITAL ENERGIES
----------------

  NO   OCC          E(Eh)            E(eV)
   0   2.0000     -88.970551     -2421.0118
   1   2.0000     -88.969323     -2420.9783
   2   2.0000     -10.332209      -281.1537
   3   2.0000     -10.328392      -281.0498
   4   2.0000     -10.319783      -280.8156
   5   2.0000     -10.308777      -280.5161
   6   2.0000     -10.302959      -280.3578
   7   2.0000     -10.296645      -280.1860
   8   2.0000     -10.296195      -280.1737
   9   2.0000     -10.295004      -280.1413
  10   2.0000     -10.290459      -280.0176
  11   2.0000     -10.290425      -280.0167
  12   2.0000     -10.289760      -279.9986
  13   2.0000     -10.276691      -279.6430
  14   2.0000     -10.274002      -279.5698
  15   2.0000     -10.272466      -279.5280
  16   2.0000      -8.083932      -219.9750
  17   2.0000      -8.083550      -219.9646
  18   2.0000      -6.042450      -164.4234
  19   2.0000      -6.042220      -164.4172
  20   2.0000      -6.038757      -164.3229
  21   2.0000      -6.038182      -164.3073
  22   2.0000      -6.034649      -164.2111
  23   2.0000      -6.034132      -164.1971
  24   2.0000      -1.005665       -27.3655
  25   2.0000      -0.982458       -26.7340
  26   2.0000      -0.911908       -24.8143
  27   2.0000      -0.910653       -24.7801
  28   2.0000      -0.865331       -23.5468
  29   2.0000      -0.856940       -23.3185
  30   2.0000      -0.849269       -23.1098
  31   2.0000      -0.810235       -22.0476
  32   2.0000      -0.782305       -21.2876
  33   2.0000      -0.768928       -20.9236
  34   2.0000      -0.712315       -19.3831
  35   2.0000      -0.697697       -18.9853
  36   2.0000      -0.690768       -18.7967
  37   2.0000      -0.662051       -18.0153
  38   2.0000      -0.637097       -17.3363
  39   2.0000      -0.614140       -16.7116
  40   2.0000      -0.598240       -16.2789
  41   2.0000      -0.570638       -15.5278
  42   2.0000      -0.565114       -15.3775
  43   2.0000      -0.556154       -15.1337
  44   2.0000      -0.525257       -14.2930
  45   2.0000      -0.523016       -14.2320
  46   2.0000      -0.517591       -14.0844
  47   2.0000      -0.508402       -13.8343
  48   2.0000      -0.503692       -13.7062
  49   2.0000      -0.499515       -13.5925
  50   2.0000      -0.487543       -13.2667
  51   2.0000      -0.480705       -13.0806
  52   2.0000      -0.472724       -12.8635
  53   2.0000      -0.469365       -12.7721
  54   2.0000      -0.459874       -12.5138
  55   2.0000      -0.452991       -12.3265
  56   2.0000      -0.445471       -12.1219
  57   2.0000      -0.436515       -11.8782
  58   2.0000      -0.431043       -11.7293
  59   2.0000      -0.425277       -11.5724
  60   2.0000      -0.420189       -11.4339
  61   2.0000      -0.414723       -11.2852
  62   2.0000      -0.412845       -11.2341
  63   2.0000      -0.351000        -9.5512
  64   2.0000      -0.333709        -9.0807
  65   2.0000      -0.329307        -8.9609
  66   2.0000      -0.284354        -7.7377
  67   0.0000       0.022758         0.6193
  68   0.0000       0.079294         2.1577
  69   0.0000       0.099039         2.6950
  70   0.0000       0.115977         3.1559
  71   0.0000       0.130862         3.5609

MULLIKEN ATOMIC CHARGES
-----------------------
   0 S :    0.110893
   1 C :   -0.123669
   2 C :   -0.066904
   3 C :   -0.032495
   4 C :   -0.097356
   5 H :    0.023324
   6 C :    0.076670
   7 H :    0.050857
   8 H :    0.029242
   9 C :   -0.122634
  10 H :    0.034592
  11 H :    0.030288
  12 C :   -0.032176
  13 H :    0.032693
  14 H :    0.023623
  15 H :    0.018540
  16 S :    0.107794
  17 C :   -0.094969
  18 C :   -0.053712
  19 C :   -0.026211
  20 C :   -0.154944
  21 H :    0.034074
  22 C :    0.060812
  23 H :    0.016058
  24 H :    0.026396
  25 C :   -0.049293
  26 H :    0.009908
  27 H :    0.012887
  28 C :   -0.046499
  29 H :    0.046314
  30 H :    0.031980
  31 H :    0.024829
  32 H :    0.040791
  33 H :    0.058294
Sum of atomic charges:   -0.0000000

LOEWDIN ATOMIC CHARGES
----------------------
   0 S :    0.414268
   1 C :   -0.201798
   2 C :   -0.063344
   3 C :   -0.070660
   4 C :   -0.185946
   5 H :    0.032833
   6 C :   -0.039060
   7 H :    0.044316
   8 H :    0.033414
   9 C :   -0.044137
  10 H :    0.028961
  11 H :    0.019754
  12 C :   -0.066294
  13 H :    0.034323
  14 H :    0.023351
  15 H :    0.013049
  16 S :    0.389854
  17 C :   -0.184251
  18 C :   -0.071728
  19 C :   -0.056515
  20 C :   -0.177432
  21 H :    0.038566
  22 C :   -0.035772
  23 H :    0.015764
  24 H :    0.034966
  25 C :   -0.037891
  26 H :    0.019007
  27 H :    0.015613
  28 C :   -0.060529
  29 H :    0.038557
  30 H :    0.024727
  31 H :    0.017004
  32 H :    0.028180
  33 H :    0.028852

  Mayer bond orders larger than 0.100000
B(  0-S ,  1-C ) :   1.1146 B(  0-S ,  4-C ) :   1.1427 B(  1-C ,  2-C ) :   1.6313
B(  1-C , 32-H ) :   0.9664 B(  2-C ,  3-C ) :   1.2334 B(  2-C ,  6-C ) :   1.0318
B(  3-C ,  4-C ) :   1.5608 B(  3-C ,  5-H ) :   0.9928 B(  4-C , 20-C ) :   1.0749
B(  6-C ,  7-H ) :   0.9272 B(  6-C ,  8-H ) :   0.9503 B(  6-C ,  9-C ) :   1.0493
B(  9-C , 10-H ) :   0.9483 B(  9-C , 11-H ) :   0.9659 B(  9-C , 12-C ) :   1.0815
B( 12-C , 13-H ) :   0.9749 B( 12-C , 14-H ) :   0.9752 B( 12-C , 15-H ) :   0.9768
B( 16-S , 17-C ) :   1.1496 B( 16-S , 20-C ) :   1.1299 B( 17-C , 18-C ) :   1.6026
B( 17-C , 20-C ) :   0.1032 B( 17-C , 33-H ) :   0.9659 B( 18-C , 19-C ) :   1.2476
B( 18-C , 21-H ) :   0.9851 B( 19-C , 20-C ) :   1.5571 B( 19-C , 22-C ) :   1.0640
B( 22-C , 23-H ) :   0.9327 B( 22-C , 24-H ) :   0.9236 B( 22-C , 25-C ) :   1.0596
B( 25-C , 26-H ) :   0.9480 B( 25-C , 27-H ) :   0.9559 B( 25-C , 28-C ) :   1.0979
B( 28-C , 29-H ) :   0.9724 B( 28-C , 30-H ) :   0.9733 B( 28-C , 31-H ) :   0.9755

Dispersion correction           -0.013687792
FINAL SINGLE POINT ENERGY     -1339.880955930269

DIPOLE MOMENT
-------------
                                X             Y             Z
Electronic contribution:     13.56781      -7.00573      -5.40349
Nuclear contribution   :    -13.83536       6.92427       5.60885
                        -----------------------------------------
Total Dipole Moment    :     -0.26756      -0.08147       0.20536
                        -----------------------------------------
Magnitude (a.u.)       :      0.34698
Magnitude (Debye)      :      0.88195

Rotational constants in cm-1:     0.021334     0.007622     0.006071
Rotational constants in MHz :   639.574604   228.502306   182.016939

                             ****ORCA TERMINATED NORMALLY****
TOTAL RUN TIME: 0 days 0 hours 0 minutes 22 seconds 201 msec
