                         Program Version 4.2.1 -  RELEASE  -
|  1> ! wB97X-D3 SP def2-SVP
|  2> %pal
|  3> nprocs 24
|  4> end
|  5>
|  6> * xyz 0 1
|  7> S 	 -124.814 	 68.1302 	 -52.7572
|  8> C 	 -124.623 	 67.8612 	 -54.4766
|  9> C 	 -123.883 	 68.8287 	 -55.1271
| 10> C 	 -123.521 	 69.9179 	 -54.1977
| 11> C 	 -123.943 	 69.6568 	 -52.8762
| 12> H 	 -122.951 	 70.7961 	 -54.425
| 13> C 	 -123.51 	 68.8831 	 -56.5731
| 14> H 	 -123.815 	 67.9615 	 -57.0337
| 15> H 	 -122.442 	 68.8825 	 -56.5792
| 16> C 	 -124.198 	 69.9491 	 -57.4847
| 17> H 	 -124.312 	 70.8174 	 -56.8885
| 18> H 	 -123.338 	 70.0202 	 -58.0642
| 19> C 	 -125.418 	 69.5389 	 -58.3329
| 20> H 	 -125.355 	 68.3979 	 -58.3688
| 21> H 	 -126.35 	 69.7408 	 -57.7865
| 22> H 	 -125.484 	 70.0959 	 -59.2835
| 23> S 	 -125.61 	 71.3187 	 -51.3771
| 24> C 	 -124.877 	 72.4908 	 -50.2991
| 25> C 	 -123.542 	 72.1652 	 -50.1208
| 26> C 	 -123.006 	 71.1153 	 -50.9601
| 27> C 	 -124.01 	 70.5897 	 -51.7586
| 28> H 	 -123.049 	 72.8308 	 -49.4185
| 29> C 	 -121.573 	 70.6509 	 -50.9572
| 30> H 	 -121.571 	 69.5659 	 -50.7904
| 31> H 	 -121.118 	 71.0989 	 -50.0317
| 32> C 	 -120.8 	 71.1191 	 -52.1865
| 33> H 	 -120.978 	 72.1631 	 -52.2758
| 34> H 	 -121.162 	 70.6133 	 -53.1465
| 35> C 	 -119.258 	 71.0343 	 -51.987
| 36> H 	 -118.67 	 71.3499 	 -52.84
| 37> H 	 -119.057 	 69.9552 	 -51.8108
| 38> H 	 -118.909 	 71.6186 	 -51.1374
| 39> H 	 -125.046 	 66.9645 	 -54.8495
| 40> H 	 -125.379 	 73.11 	 -49.5875
| 41> *
| 42>
| 43>                          ****END OF INPUT****

CARTESIAN COORDINATES (ANGSTROEM)
---------------------------------
  S    -124.814000   68.130200  -52.757200
  C    -124.623000   67.861200  -54.476600
  C    -123.883000   68.828700  -55.127100
  C    -123.521000   69.917900  -54.197700
  C    -123.943000   69.656800  -52.876200
  H    -122.951000   70.796100  -54.425000
  C    -123.510000   68.883100  -56.573100
  H    -123.815000   67.961500  -57.033700
  H    -122.442000   68.882500  -56.579200
  C    -124.198000   69.949100  -57.484700
  H    -124.312000   70.817400  -56.888500
  H    -123.338000   70.020200  -58.064200
  C    -125.418000   69.538900  -58.332900
  H    -125.355000   68.397900  -58.368800
  H    -126.350000   69.740800  -57.786500
  H    -125.484000   70.095900  -59.283500
  S    -125.610000   71.318700  -51.377100
  C    -124.877000   72.490800  -50.299100
  C    -123.542000   72.165200  -50.120800
  C    -123.006000   71.115300  -50.960100
  C    -124.010000   70.589700  -51.758600
  H    -123.049000   72.830800  -49.418500
  C    -121.573000   70.650900  -50.957200
  H    -121.571000   69.565900  -50.790400
  H    -121.118000   71.098900  -50.031700
  C    -120.800000   71.119100  -52.186500
  H    -120.978000   72.163100  -52.275800
  H    -121.162000   70.613300  -53.146500
  C    -119.258000   71.034300  -51.987000
  H    -118.670000   71.349900  -52.840000
  H    -119.057000   69.955200  -51.810800
  H    -118.909000   71.618600  -51.137400
  H    -125.046000   66.964500  -54.849500
  H    -125.379000   73.110000  -49.587500

 Total Charge           Charge          ....    0
 Multiplicity           Mult            ....    1
 Number of Electrons    NEL             ....  134
 Basis Dimension        Dim             ....  322

ORBITAL ENERGIES
----------------

  NO   OCC          E(Eh)            E(eV)
   0   2.0000     -88.963899     -2420.8308
   1   2.0000     -88.961173     -2420.7566
   2   2.0000     -10.331425      -281.1324
   3   2.0000     -10.326578      -281.0005
   4   2.0000     -10.313977      -280.6576
   5   2.0000     -10.313353      -280.6406
   6   2.0000     -10.305272      -280.4207
   7   2.0000     -10.305054      -280.4148
   8   2.0000     -10.302024      -280.3323
   9   2.0000     -10.295078      -280.1433
  10   2.0000     -10.294144      -280.1179
  11   2.0000     -10.290062      -280.0068
  12   2.0000     -10.289696      -279.9969
  13   2.0000     -10.288120      -279.9540
  14   2.0000     -10.280086      -279.7354
  15   2.0000     -10.279021      -279.7064
  16   2.0000      -8.078824      -219.8360
  17   2.0000      -8.075220      -219.7379
  18   2.0000      -6.037231      -164.2814
  19   2.0000      -6.033840      -164.1891
  20   2.0000      -6.033334      -164.1754
  21   2.0000      -6.029810      -164.0795
  22   2.0000      -6.029655      -164.0752
  23   2.0000      -6.025906      -163.9732
  24   2.0000      -0.998728       -27.1768
  25   2.0000      -0.976357       -26.5680
  26   2.0000      -0.914360       -24.8810
  27   2.0000      -0.907738       -24.7008
  28   2.0000      -0.866740       -23.5852
  29   2.0000      -0.847228       -23.0542
  30   2.0000      -0.843425       -22.9508
  31   2.0000      -0.811668       -22.0866
  32   2.0000      -0.783419       -21.3179
  33   2.0000      -0.771301       -20.9882
  34   2.0000      -0.711081       -19.3495
  35   2.0000      -0.700865       -19.0715
  36   2.0000      -0.689757       -18.7692
  37   2.0000      -0.656040       -17.8518
  38   2.0000      -0.647969       -17.6321
  39   2.0000      -0.619883       -16.8679
  40   2.0000      -0.590511       -16.0686
  41   2.0000      -0.568959       -15.4822
  42   2.0000      -0.563273       -15.3274
  43   2.0000      -0.557494       -15.1702
  44   2.0000      -0.536530       -14.5997
  45   2.0000      -0.521739       -14.1972
  46   2.0000      -0.518701       -14.1146
  47   2.0000      -0.510136       -13.8815
  48   2.0000      -0.507247       -13.8029
  49   2.0000      -0.496487       -13.5101
  50   2.0000      -0.486874       -13.2485
  51   2.0000      -0.481745       -13.1089
  52   2.0000      -0.466730       -12.7004
  53   2.0000      -0.465516       -12.6673
  54   2.0000      -0.454058       -12.3555
  55   2.0000      -0.450673       -12.2634
  56   2.0000      -0.443699       -12.0737
  57   2.0000      -0.439720       -11.9654
  58   2.0000      -0.432768       -11.7762
  59   2.0000      -0.427065       -11.6210
  60   2.0000      -0.418580       -11.3901
  61   2.0000      -0.414111       -11.2685
  62   2.0000      -0.402587       -10.9549
  63   2.0000      -0.336205        -9.1486
  64   2.0000      -0.326717        -8.8904
  65   2.0000      -0.323176        -8.7941
  66   2.0000      -0.302578        -8.2336
  67   0.0000       0.035496         0.9659
  68   0.0000       0.056465         1.5365
  69   0.0000       0.111428         3.0321
  70   0.0000       0.119548         3.2531
  71   0.0000       0.127357         3.4656

MULLIKEN ATOMIC CHARGES
-----------------------
   0 S :    0.101123
   1 C :   -0.121478
   2 C :   -0.081873
   3 C :    0.054306
   4 C :   -0.188489
   5 H :    0.020053
   6 C :    0.054501
   7 H :   -0.003878
   8 H :    0.035212
   9 C :   -0.033938
  10 H :    0.024066
  11 H :    0.016148
  12 C :   -0.054256
  13 H :    0.033673
  14 H :    0.040341
  15 H :    0.056923
  16 S :    0.101807
  17 C :   -0.085658
  18 C :   -0.063816
  19 C :   -0.018342
  20 C :   -0.169404
  21 H :    0.018371
  22 C :    0.081194
  23 H :    0.043149
  24 H :    0.019061
  25 C :   -0.091828
  26 H :    0.021333
  27 H :    0.050700
  28 C :   -0.047878
  29 H :    0.034835
  30 H :    0.031327
  31 H :    0.031819
  32 H :    0.035963
  33 H :    0.054931
Sum of atomic charges:    0.0000000

LOEWDIN ATOMIC CHARGES
----------------------
   0 S :    0.398067
   1 C :   -0.186871
   2 C :   -0.062677
   3 C :   -0.048667
   4 C :   -0.195970
   5 H :    0.027073
   6 C :   -0.027956
   7 H :    0.024420
   8 H :    0.031393
   9 C :   -0.035429
  10 H :    0.018674
  11 H :    0.022040
  12 C :   -0.068043
  13 H :    0.033595
  14 H :    0.029550
  15 H :    0.034302
  16 S :    0.382487
  17 C :   -0.187422
  18 C :   -0.075019
  19 C :   -0.053332
  20 C :   -0.190291
  21 H :    0.029468
  22 C :   -0.031901
  23 H :    0.035426
  24 H :    0.035525
  25 C :   -0.043834
  26 H :    0.019046
  27 H :    0.033000
  28 C :   -0.066869
  29 H :    0.024080
  30 H :    0.027189
  31 H :    0.023647
  32 H :    0.016687
  33 H :    0.028608

  Mayer bond orders larger than 0.100000
B(  0-S ,  1-C ) :   1.1393 B(  0-S ,  4-C ) :   1.1547 B(  1-C ,  2-C ) :   1.6174
B(  1-C , 32-H ) :   0.9748 B(  2-C ,  3-C ) :   1.2087 B(  2-C ,  6-C ) :   1.0340
B(  3-C ,  4-C ) :   1.5903 B(  3-C ,  5-H ) :   0.9829 B(  4-C , 20-C ) :   1.0231
B(  6-C ,  7-H ) :   0.9302 B(  6-C ,  8-H ) :   0.9432 B(  6-C ,  9-C ) :   1.0395
B(  9-C , 10-H ) :   0.9620 B(  9-C , 11-H ) :   0.9549 B(  9-C , 12-C ) :   1.0709
B( 12-C , 13-H ) :   0.9728 B( 12-C , 14-H ) :   0.9758 B( 12-C , 15-H ) :   0.9759
B( 16-S , 17-C ) :   1.1425 B( 16-S , 20-C ) :   1.1324 B( 17-C , 18-C ) :   1.6464
B( 17-C , 33-H ) :   0.9619 B( 18-C , 19-C ) :   1.2171 B( 18-C , 21-H ) :   0.9851
B( 19-C , 20-C ) :   1.6100 B( 19-C , 22-C ) :   1.0415 B( 22-C , 23-H ) :   0.9269
B( 22-C , 24-H ) :   0.9344 B( 22-C , 25-C ) :   1.0607 B( 25-C , 26-H ) :   0.9553
B( 25-C , 27-H ) :   0.9446 B( 25-C , 28-C ) :   1.0817 B( 28-C , 29-H ) :   0.9758
B( 28-C , 30-H ) :   0.9753 B( 28-C , 31-H ) :   0.9752

Dispersion correction           -0.014166657
FINAL SINGLE POINT ENERGY     -1339.862914692128

DIPOLE MOMENT
-------------
                                X             Y             Z
Electronic contribution:    -16.92595      -3.19120      17.11238
Nuclear contribution   :     17.38386       3.34256     -17.45037
                        -----------------------------------------
Total Dipole Moment    :      0.45791       0.15136      -0.33799
                        -----------------------------------------
Magnitude (a.u.)       :      0.58892
Magnitude (Debye)      :      1.49691

Rotational constants in cm-1:     0.017568     0.008442     0.007014
Rotational constants in MHz :   526.684210   253.098974   210.277658

                             ****ORCA TERMINATED NORMALLY****
TOTAL RUN TIME: 0 days 0 hours 0 minutes 21 seconds 454 msec
