                         Program Version 4.2.1 -  RELEASE  -
|  1> ! wB97X-D3 SP def2-SVP
|  2> %pal
|  3> nprocs 24
|  4> end
|  5>
|  6> * xyz 0 1
|  7> S 	 -52.1648 	 3.33333 	 -23.0953
|  8> C 	 -51.8124 	 3.91878 	 -21.4585
|  9> C 	 -52.8579 	 3.6877 	 -20.5803
| 10> C 	 -53.9392 	 3.10703 	 -21.2838
| 11> C 	 -53.8595 	 3.06219 	 -22.6397
| 12> H 	 -54.8207 	 2.80131 	 -20.7679
| 13> C 	 -52.7958 	 4.00518 	 -19.0968
| 14> H 	 -53.6258 	 3.58959 	 -18.5456
| 15> H 	 -52.837 	 5.05111 	 -19.1368
| 16> C 	 -51.6187 	 3.48935 	 -18.2556
| 17> H 	 -51.3802 	 2.47601 	 -18.4736
| 18> H 	 -50.6922 	 3.99823 	 -18.3604
| 19> C 	 -51.9969 	 3.40351 	 -16.7706
| 20> H 	 -52.1517 	 4.36726 	 -16.418
| 21> H 	 -52.882 	 2.87036 	 -16.565
| 22> H 	 -51.1464 	 2.97138 	 -16.275
| 23> S 	 -55.8584 	 3.57228 	 -24.4955
| 24> C 	 -56.6542 	 2.19177 	 -25.1216
| 25> C 	 -56.1377 	 1.0249 	 -24.6642
| 26> C 	 -55.1263 	 1.16188 	 -23.672
| 27> C 	 -54.8327 	 2.49966 	 -23.554
| 28> H 	 -56.559 	 0.0892719 	 -24.9309
| 29> C 	 -54.3443 	 -0.0404318 	 -23.1021
| 30> H 	 -54.629 	 -0.0789139 	 -21.999
| 31> H 	 -53.2401 	 0.0845238 	 -23.0619
| 32> C 	 -54.7549 	 -1.39122 	 -23.7555
| 33> H 	 -54.5446 	 -1.39165 	 -24.838
| 34> H 	 -55.8206 	 -1.52285 	 -23.6542
| 35> C 	 -54.0014 	 -2.59047 	 -23.1931
| 36> H 	 -52.9188 	 -2.43936 	 -23.1447
| 37> H 	 -54.0659 	 -3.44791 	 -23.9393
| 38> H 	 -54.3846 	 -2.90757 	 -22.2437
| 39> H 	 -50.8035 	 4.21341 	 -21.1898
| 40> H 	 -57.4706 	 2.24878 	 -25.8979
| 41> *
| 42>
| 43>                          ****END OF INPUT****

CARTESIAN COORDINATES (ANGSTROEM)
---------------------------------
  S    -52.164800    3.333330  -23.095300
  C    -51.812400    3.918780  -21.458500
  C    -52.857900    3.687700  -20.580300
  C    -53.939200    3.107030  -21.283800
  C    -53.859500    3.062190  -22.639700
  H    -54.820700    2.801310  -20.767900
  C    -52.795800    4.005180  -19.096800
  H    -53.625800    3.589590  -18.545600
  H    -52.837000    5.051110  -19.136800
  C    -51.618700    3.489350  -18.255600
  H    -51.380200    2.476010  -18.473600
  H    -50.692200    3.998230  -18.360400
  C    -51.996900    3.403510  -16.770600
  H    -52.151700    4.367260  -16.418000
  H    -52.882000    2.870360  -16.565000
  H    -51.146400    2.971380  -16.275000
  S    -55.858400    3.572280  -24.495500
  C    -56.654200    2.191770  -25.121600
  C    -56.137700    1.024900  -24.664200
  C    -55.126300    1.161880  -23.672000
  C    -54.832700    2.499660  -23.554000
  H    -56.559000    0.089272  -24.930900
  C    -54.344300   -0.040432  -23.102100
  H    -54.629000   -0.078914  -21.999000
  H    -53.240100    0.084524  -23.061900
  C    -54.754900   -1.391220  -23.755500
  H    -54.544600   -1.391650  -24.838000
  H    -55.820600   -1.522850  -23.654200
  C    -54.001400   -2.590470  -23.193100
  H    -52.918800   -2.439360  -23.144700
  H    -54.065900   -3.447910  -23.939300
  H    -54.384600   -2.907570  -22.243700
  H    -50.803500    4.213410  -21.189800
  H    -57.470600    2.248780  -25.897900

 Total Charge           Charge          ....    0
 Multiplicity           Mult            ....    1
 Number of Electrons    NEL             ....  134
 Basis Dimension        Dim             ....  322

ORBITAL ENERGIES
----------------

  NO   OCC          E(Eh)            E(eV)
   0   2.0000     -88.964934     -2420.8589
   1   2.0000     -88.959825     -2420.7199
   2   2.0000     -10.320339      -280.8307
   3   2.0000     -10.318260      -280.7741
   4   2.0000     -10.313808      -280.6530
   5   2.0000     -10.311599      -280.5929
   6   2.0000     -10.302925      -280.3568
   7   2.0000     -10.301207      -280.3101
   8   2.0000     -10.297724      -280.2153
   9   2.0000     -10.289455      -279.9903
  10   2.0000     -10.288600      -279.9671
  11   2.0000     -10.286036      -279.8973
  12   2.0000     -10.283861      -279.8381
  13   2.0000     -10.281807      -279.7822
  14   2.0000     -10.280153      -279.7372
  15   2.0000     -10.267930      -279.4046
  16   2.0000      -8.080420      -219.8794
  17   2.0000      -8.073930      -219.7028
  18   2.0000      -6.038733      -164.3223
  19   2.0000      -6.034932      -164.2188
  20   2.0000      -6.032374      -164.1492
  21   2.0000      -6.031234      -164.1182
  22   2.0000      -6.028719      -164.0498
  23   2.0000      -6.024610      -163.9380
  24   2.0000      -1.007072       -27.4038
  25   2.0000      -0.983740       -26.7689
  26   2.0000      -0.915152       -24.9025
  27   2.0000      -0.906715       -24.6730
  28   2.0000      -0.870224       -23.6800
  29   2.0000      -0.852441       -23.1961
  30   2.0000      -0.846752       -23.0413
  31   2.0000      -0.812801       -22.1174
  32   2.0000      -0.784338       -21.3429
  33   2.0000      -0.769417       -20.9369
  34   2.0000      -0.710915       -19.3450
  35   2.0000      -0.703689       -19.1483
  36   2.0000      -0.693608       -18.8740
  37   2.0000      -0.648551       -17.6480
  38   2.0000      -0.640601       -17.4316
  39   2.0000      -0.618485       -16.8298
  40   2.0000      -0.601052       -16.3555
  41   2.0000      -0.582754       -15.8575
  42   2.0000      -0.568575       -15.4717
  43   2.0000      -0.560666       -15.2565
  44   2.0000      -0.530960       -14.4481
  45   2.0000      -0.522641       -14.2218
  46   2.0000      -0.513506       -13.9732
  47   2.0000      -0.511460       -13.9175
  48   2.0000      -0.501908       -13.6576
  49   2.0000      -0.489384       -13.3168
  50   2.0000      -0.486242       -13.2313
  51   2.0000      -0.477753       -13.0003
  52   2.0000      -0.473361       -12.8808
  53   2.0000      -0.463524       -12.6131
  54   2.0000      -0.460187       -12.5223
  55   2.0000      -0.457828       -12.4581
  56   2.0000      -0.444791       -12.1034
  57   2.0000      -0.438398       -11.9294
  58   2.0000      -0.432421       -11.7668
  59   2.0000      -0.429591       -11.6898
  60   2.0000      -0.422631       -11.5004
  61   2.0000      -0.420704       -11.4479
  62   2.0000      -0.413839       -11.2611
  63   2.0000      -0.334665        -9.1067
  64   2.0000      -0.327553        -8.9132
  65   2.0000      -0.318357        -8.6629
  66   2.0000      -0.307028        -8.3547
  67   0.0000       0.045752         1.2450
  68   0.0000       0.057012         1.5514
  69   0.0000       0.114815         3.1243
  70   0.0000       0.123743         3.3672
  71   0.0000       0.135748         3.6939

MULLIKEN ATOMIC CHARGES
-----------------------
   0 S :    0.090586
   1 C :   -0.136492
   2 C :   -0.083378
   3 C :    0.041262
   4 C :   -0.157828
   5 H :   -0.004546
   6 C :    0.114059
   7 H :    0.008509
   8 H :    0.037511
   9 C :   -0.067192
  10 H :    0.018325
  11 H :    0.020045
  12 C :   -0.026565
  13 H :    0.012306
  14 H :    0.025112
  15 H :    0.030160
  16 S :    0.130529
  17 C :   -0.094700
  18 C :   -0.027486
  19 C :   -0.004293
  20 C :   -0.208902
  21 H :   -0.001624
  22 C :    0.056280
  23 H :    0.037092
  24 H :    0.045051
  25 C :   -0.111750
  26 H :    0.039426
  27 H :    0.037414
  28 C :   -0.034341
  29 H :    0.031939
  30 H :    0.034230
  31 H :    0.032750
  32 H :    0.047239
  33 H :    0.069272
Sum of atomic charges:   -0.0000000

LOEWDIN ATOMIC CHARGES
----------------------
   0 S :    0.378661
   1 C :   -0.185508
   2 C :   -0.062823
   3 C :   -0.055869
   4 C :   -0.191114
   5 H :    0.025259
   6 C :   -0.024718
   7 H :    0.030187
   8 H :    0.033621
   9 C :   -0.033674
  10 H :    0.021236
  11 H :    0.017522
  12 C :   -0.050449
  13 H :    0.014446
  14 H :    0.018264
  15 H :    0.028092
  16 S :    0.421514
  17 C :   -0.201340
  18 C :   -0.075538
  19 C :   -0.048383
  20 C :   -0.207365
  21 H :    0.023171
  22 C :   -0.033692
  23 H :    0.041413
  24 H :    0.034957
  25 C :   -0.046766
  26 H :    0.027773
  27 H :    0.022599
  28 C :   -0.065035
  29 H :    0.026274
  30 H :    0.034206
  31 H :    0.020160
  32 H :    0.022953
  33 H :    0.039967

  Mayer bond orders larger than 0.100000
B(  0-S ,  1-C ) :   1.1451 B(  0-S ,  4-C ) :   1.1328 B(  1-C ,  2-C ) :   1.5940
B(  1-C ,  4-C ) :   0.1017 B(  1-C , 32-H ) :   0.9717 B(  2-C ,  3-C ) :   1.2627
B(  2-C ,  6-C ) :   1.0049 B(  3-C ,  4-C ) :   1.5919 B(  3-C ,  5-H ) :   1.0007
B(  4-C , 20-C ) :   1.0169 B(  6-C ,  7-H ) :   0.9463 B(  6-C ,  8-H ) :   0.9283
B(  6-C ,  9-C ) :   1.0620 B(  9-C , 10-H ) :   0.9612 B(  9-C , 11-H ) :   0.9504
B(  9-C , 12-C ) :   1.0960 B( 12-C , 13-H ) :   0.9755 B( 12-C , 14-H ) :   0.9737
B( 12-C , 15-H ) :   0.9736 B( 16-S , 17-C ) :   1.1571 B( 16-S , 20-C ) :   1.1525
B( 17-C , 18-C ) :   1.6124 B( 17-C , 33-H ) :   0.9538 B( 18-C , 19-C ) :   1.2567
B( 18-C , 21-H ) :   0.9855 B( 19-C , 20-C ) :   1.6170 B( 19-C , 22-C ) :   1.0161
B( 22-C , 23-H ) :   0.9227 B( 22-C , 24-H ) :   0.9416 B( 22-C , 25-C ) :   1.0809
B( 25-C , 26-H ) :   0.9541 B( 25-C , 27-H ) :   0.9467 B( 25-C , 28-C ) :   1.0849
B( 28-C , 29-H ) :   0.9726 B( 28-C , 30-H ) :   0.9738 B( 28-C , 31-H ) :   0.9758

Dispersion correction           -0.013558045
FINAL SINGLE POINT ENERGY     -1339.872517078449

DIPOLE MOMENT
-------------
                                X             Y             Z
Electronic contribution:     -6.03715      16.80317     -21.03554
Nuclear contribution   :      6.01429     -17.30414      21.56565
                        -----------------------------------------
Total Dipole Moment    :     -0.02286      -0.50096       0.53011
                        -----------------------------------------
Magnitude (a.u.)       :      0.72972
Magnitude (Debye)      :      1.85481

Rotational constants in cm-1:     0.018125     0.007535     0.006180
Rotational constants in MHz :   543.369038   225.901010   185.265280

                             ****ORCA TERMINATED NORMALLY****
TOTAL RUN TIME: 0 days 0 hours 0 minutes 20 seconds 910 msec
