                         Program Version 4.2.1 -  RELEASE  -
|  1> ! wB97X-D3 SP def2-SVP
|  2> %pal
|  3> nprocs 24
|  4> end
|  5>
|  6> * xyz 0 1
|  7> S 	 44.7774 	 -20.8819 	 -111.994
|  8> C 	 44.6942 	 -19.7296 	 -110.769
|  9> C 	 44.2452 	 -20.2302 	 -109.516
| 10> C 	 43.9621 	 -21.6411 	 -109.573
| 11> C 	 44.0846 	 -22.1145 	 -110.854
| 12> H 	 43.5206 	 -22.2105 	 -108.795
| 13> C 	 44.1974 	 -19.3941 	 -108.285
| 14> H 	 43.5695 	 -19.9281 	 -107.643
| 15> H 	 43.6966 	 -18.5129 	 -108.555
| 16> C 	 45.5104 	 -19.1727 	 -107.523
| 17> H 	 45.7525 	 -20.2451 	 -107.221
| 18> H 	 46.4246 	 -18.7562 	 -108.058
| 19> C 	 45.1602 	 -18.4537 	 -106.237
| 20> H 	 44.4546 	 -19.0298 	 -105.586
| 21> H 	 45.973 	 -18.1398 	 -105.686
| 22> H 	 44.6251 	 -17.5769 	 -106.526
| 23> S 	 45.3656 	 -24.2905 	 -111.997
| 24> C 	 44.5134 	 -25.7943 	 -112.134
| 25> C 	 43.3603 	 -25.7353 	 -111.51
| 26> C 	 42.9836 	 -24.4585 	 -110.976
| 27> C 	 43.9437 	 -23.4985 	 -111.219
| 28> H 	 42.7936 	 -26.6995 	 -111.541
| 29> C 	 41.6316 	 -24.266 	 -110.327
| 30> H 	 40.9707 	 -24.3401 	 -111.129
| 31> H 	 41.594 	 -23.3191 	 -109.896
| 32> C 	 41.2572 	 -25.3629 	 -109.261
| 33> H 	 42.0872 	 -25.4849 	 -108.587
| 34> H 	 41.0812 	 -26.3123 	 -109.699
| 35> C 	 39.92 	 -24.8248 	 -108.635
| 36> H 	 39.1268 	 -24.9352 	 -109.406
| 37> H 	 40.0644 	 -23.7973 	 -108.28
| 38> H 	 39.564 	 -25.4044 	 -107.774
| 39> H 	 44.9095 	 -18.6291 	 -110.881
| 40> H 	 44.8609 	 -26.7064 	 -112.535
| 41> *
| 42>
| 43>                          ****END OF INPUT****

CARTESIAN COORDINATES (ANGSTROEM)
---------------------------------
  S     44.777400  -20.881900  -111.994000
  C     44.694200  -19.729600  -110.769000
  C     44.245200  -20.230200  -109.516000
  C     43.962100  -21.641100  -109.573000
  C     44.084600  -22.114500  -110.854000
  H     43.520600  -22.210500  -108.795000
  C     44.197400  -19.394100  -108.285000
  H     43.569500  -19.928100  -107.643000
  H     43.696600  -18.512900  -108.555000
  C     45.510400  -19.172700  -107.523000
  H     45.752500  -20.245100  -107.221000
  H     46.424600  -18.756200  -108.058000
  C     45.160200  -18.453700  -106.237000
  H     44.454600  -19.029800  -105.586000
  H     45.973000  -18.139800  -105.686000
  H     44.625100  -17.576900  -106.526000
  S     45.365600  -24.290500  -111.997000
  C     44.513400  -25.794300  -112.134000
  C     43.360300  -25.735300  -111.510000
  C     42.983600  -24.458500  -110.976000
  C     43.943700  -23.498500  -111.219000
  H     42.793600  -26.699500  -111.541000
  C     41.631600  -24.266000  -110.327000
  H     40.970700  -24.340100  -111.129000
  H     41.594000  -23.319100  -109.896000
  C     41.257200  -25.362900  -109.261000
  H     42.087200  -25.484900  -108.587000
  H     41.081200  -26.312300  -109.699000
  C     39.920000  -24.824800  -108.635000
  H     39.126800  -24.935200  -109.406000
  H     40.064400  -23.797300  -108.280000
  H     39.564000  -25.404400  -107.774000
  H     44.909500  -18.629100  -110.881000
  H     44.860900  -26.706400  -112.535000

 Total Charge           Charge          ....    0
 Multiplicity           Mult            ....    1
 Number of Electrons    NEL             ....  134
 Basis Dimension        Dim             ....  322

ORBITAL ENERGIES
----------------

  NO   OCC          E(Eh)            E(eV)
   0   2.0000     -88.970924     -2421.0219
   1   2.0000     -88.955028     -2420.5894
   2   2.0000     -10.329578      -281.0821
   3   2.0000     -10.324223      -280.9364
   4   2.0000     -10.315241      -280.6920
   5   2.0000     -10.302144      -280.3356
   6   2.0000     -10.299867      -280.2736
   7   2.0000     -10.299317      -280.2587
   8   2.0000     -10.295440      -280.1532
   9   2.0000     -10.294412      -280.1252
  10   2.0000     -10.288174      -279.9554
  11   2.0000     -10.285620      -279.8860
  12   2.0000     -10.283886      -279.8388
  13   2.0000     -10.282197      -279.7928
  14   2.0000     -10.281111      -279.7633
  15   2.0000     -10.271610      -279.5047
  16   2.0000      -8.085491      -220.0174
  17   2.0000      -8.069851      -219.5918
  18   2.0000      -6.043898      -164.4628
  19   2.0000      -6.040016      -164.3572
  20   2.0000      -6.036382      -164.2583
  21   2.0000      -6.028570      -164.0457
  22   2.0000      -6.024464      -163.9340
  23   2.0000      -6.020254      -163.8194
  24   2.0000      -1.004682       -27.3388
  25   2.0000      -0.984045       -26.7772
  26   2.0000      -0.918050       -24.9814
  27   2.0000      -0.908462       -24.7205
  28   2.0000      -0.875751       -23.8304
  29   2.0000      -0.857198       -23.3255
  30   2.0000      -0.842475       -22.9249
  31   2.0000      -0.819042       -22.2873
  32   2.0000      -0.778562       -21.1858
  33   2.0000      -0.765173       -20.8214
  34   2.0000      -0.710819       -19.3424
  35   2.0000      -0.703484       -19.1428
  36   2.0000      -0.699278       -19.0283
  37   2.0000      -0.656023       -17.8513
  38   2.0000      -0.636598       -17.3227
  39   2.0000      -0.621103       -16.9011
  40   2.0000      -0.596398       -16.2288
  41   2.0000      -0.577164       -15.7054
  42   2.0000      -0.574023       -15.6200
  43   2.0000      -0.558561       -15.1992
  44   2.0000      -0.529948       -14.4206
  45   2.0000      -0.523414       -14.2428
  46   2.0000      -0.516977       -14.0677
  47   2.0000      -0.511137       -13.9087
  48   2.0000      -0.502830       -13.6827
  49   2.0000      -0.499768       -13.5994
  50   2.0000      -0.494314       -13.4510
  51   2.0000      -0.475719       -12.9450
  52   2.0000      -0.466811       -12.7026
  53   2.0000      -0.463189       -12.6040
  54   2.0000      -0.461913       -12.5693
  55   2.0000      -0.449744       -12.2382
  56   2.0000      -0.445118       -12.1123
  57   2.0000      -0.443632       -12.0719
  58   2.0000      -0.436768       -11.8850
  59   2.0000      -0.433089       -11.7850
  60   2.0000      -0.425941       -11.5904
  61   2.0000      -0.413980       -11.2650
  62   2.0000      -0.408423       -11.1137
  63   2.0000      -0.356302        -9.6955
  64   2.0000      -0.328434        -8.9372
  65   2.0000      -0.324384        -8.8269
  66   2.0000      -0.286153        -7.7866
  67   0.0000       0.031332         0.8526
  68   0.0000       0.070733         1.9247
  69   0.0000       0.109970         2.9924
  70   0.0000       0.125494         3.4149
  71   0.0000       0.132166         3.5964

MULLIKEN ATOMIC CHARGES
-----------------------
   0 S :    0.134069
   1 C :   -0.123255
   2 C :   -0.129202
   3 C :    0.059081
   4 C :   -0.178624
   5 H :    0.009961
   6 C :    0.105283
   7 H :   -0.008588
   8 H :    0.013532
   9 C :   -0.099680
  10 H :    0.030350
  11 H :    0.052521
  12 C :    0.002823
  13 H :    0.030968
  14 H :    0.018803
  15 H :    0.010973
  16 S :    0.074976
  17 C :   -0.056012
  18 C :   -0.062665
  19 C :   -0.036215
  20 C :   -0.145752
  21 H :    0.026763
  22 C :    0.123550
  23 H :    0.023216
  24 H :   -0.005940
  25 C :   -0.079989
  26 H :    0.032381
  27 H :    0.027115
  28 C :   -0.057975
  29 H :    0.039464
  30 H :    0.036050
  31 H :    0.033940
  32 H :    0.065279
  33 H :    0.032798
Sum of atomic charges:    0.0000000

LOEWDIN ATOMIC CHARGES
----------------------
   0 S :    0.417110
   1 C :   -0.225751
   2 C :   -0.062923
   3 C :   -0.046443
   4 C :   -0.179788
   5 H :    0.029278
   6 C :   -0.031423
   7 H :    0.023537
   8 H :    0.022624
   9 C :   -0.042453
  10 H :    0.030781
  11 H :    0.032981
  12 C :   -0.060137
  13 H :    0.031043
  14 H :    0.014639
  15 H :    0.019877
  16 S :    0.368511
  17 C :   -0.178704
  18 C :   -0.085603
  19 C :   -0.055904
  20 C :   -0.180030
  21 H :    0.038981
  22 C :   -0.015102
  23 H :    0.028749
  24 H :    0.016780
  25 C :   -0.027980
  26 H :    0.020583
  27 H :    0.017346
  28 C :   -0.065469
  29 H :    0.031166
  30 H :    0.025163
  31 H :    0.023603
  32 H :    0.039534
  33 H :    0.025426

  Mayer bond orders larger than 0.100000
B(  0-S ,  1-C ) :   1.1595 B(  0-S ,  4-C ) :   1.1388 B(  1-C ,  2-C ) :   1.5850
B(  1-C , 32-H ) :   0.9581 B(  2-C ,  3-C ) :   1.2553 B(  2-C ,  6-C ) :   1.0319
B(  3-C ,  4-C ) :   1.5659 B(  3-C ,  5-H ) :   0.9894 B(  4-C , 20-C ) :   1.0613
B(  6-C ,  7-H ) :   0.9342 B(  6-C ,  8-H ) :   0.9295 B(  6-C ,  9-C ) :   1.0514
B(  9-C , 10-H ) :   0.9545 B(  9-C , 11-H ) :   0.9596 B(  9-C , 12-C ) :   1.0766
B( 12-C , 13-H ) :   0.9725 B( 12-C , 14-H ) :   0.9720 B( 12-C , 15-H ) :   0.9713
B( 16-S , 17-C ) :   1.1216 B( 16-S , 20-C ) :   1.1119 B( 17-C , 18-C ) :   1.6928
B( 17-C , 33-H ) :   0.9639 B( 18-C , 19-C ) :   1.1816 B( 18-C , 21-H ) :   0.9817
B( 19-C , 20-C ) :   1.6354 B( 19-C , 22-C ) :   1.0410 B( 22-C , 23-H ) :   0.9251
B( 22-C , 24-H ) :   0.9367 B( 22-C , 25-C ) :   1.0563 B( 25-C , 26-H ) :   0.9651
B( 25-C , 27-H ) :   0.9518 B( 25-C , 28-C ) :   1.0782 B( 28-C , 29-H ) :   0.9746
B( 28-C , 30-H ) :   0.9776 B( 28-C , 31-H ) :   0.9752

Dispersion correction           -0.013430300
FINAL SINGLE POINT ENERGY     -1339.860932122388

DIPOLE MOMENT
-------------
                                X             Y             Z
Electronic contribution:     13.69699      -4.45376     -24.90061
Nuclear contribution   :    -14.14089       4.44322      25.47217
                        -----------------------------------------
Total Dipole Moment    :     -0.44390      -0.01054       0.57156
                        -----------------------------------------
Magnitude (a.u.)       :      0.72377
Magnitude (Debye)      :      1.83967

Rotational constants in cm-1:     0.017310     0.008123     0.006197
Rotational constants in MHz :   518.943690   243.535434   185.784618

                             ****ORCA TERMINATED NORMALLY****
TOTAL RUN TIME: 0 days 0 hours 0 minutes 19 seconds 985 msec
