                         Program Version 4.2.1 -  RELEASE  -
|  1> ! wB97X-D3 SP def2-SVP
|  2> %pal
|  3> nprocs 24
|  4> end
|  5>
|  6> * xyz 0 1
|  7> S 	 -39.3852 	 -48.882 	 -72.0469
|  8> C 	 -40.7826 	 -48.1464 	 -72.6846
|  9> C 	 -40.66 	 -47.8976 	 -74.047
| 10> C 	 -39.4079 	 -48.3844 	 -74.5127
| 11> C 	 -38.6171 	 -48.908 	 -73.5289
| 12> H 	 -39.1339 	 -48.4223 	 -75.576
| 13> C 	 -41.5742 	 -47.2536 	 -75.0646
| 14> H 	 -42.5717 	 -47.4993 	 -74.7018
| 15> H 	 -41.3921 	 -47.7565 	 -75.9481
| 16> C 	 -41.369 	 -45.7628 	 -75.2575
| 17> H 	 -40.3007 	 -45.5335 	 -75.5292
| 18> H 	 -42.0663 	 -45.2674 	 -76.0115
| 19> C 	 -41.5794 	 -44.9597 	 -73.9391
| 20> H 	 -42.4421 	 -45.368 	 -73.4353
| 21> H 	 -40.6061 	 -45.1694 	 -73.3755
| 22> H 	 -41.6002 	 -43.9202 	 -74.0833
| 23> S 	 -36.8782 	 -50.9684 	 -72.9885
| 24> C 	 -35.2249 	 -50.8811 	 -73.6122
| 25> C 	 -35.0414 	 -49.6943 	 -74.2674
| 26> C 	 -36.1859 	 -48.8648 	 -74.4215
| 27> C 	 -37.2947 	 -49.4814 	 -73.7701
| 28> H 	 -34.037 	 -49.4901 	 -74.6238
| 29> C 	 -36.0985 	 -47.4937 	 -75.0874
| 30> H 	 -35.102 	 -47.1146 	 -75.0502
| 31> H 	 -36.6846 	 -46.7194 	 -74.6218
| 32> C 	 -36.3913 	 -47.5389 	 -76.6272
| 33> H 	 -36.5721 	 -46.5529 	 -76.9543
| 34> H 	 -37.3341 	 -48.0986 	 -76.6618
| 35> C 	 -35.4197 	 -48.378 	 -77.5334
| 36> H 	 -34.4222 	 -47.9803 	 -77.473
| 37> H 	 -35.6831 	 -48.3775 	 -78.5492
| 38> H 	 -35.3741 	 -49.3881 	 -77.1837
| 39> H 	 -41.6691 	 -47.8167 	 -72.073
| 40> H 	 -34.4304 	 -51.5334 	 -73.5086
| 41> *
| 42>
| 43>                          ****END OF INPUT****

CARTESIAN COORDINATES (ANGSTROEM)
---------------------------------
  S    -39.385200  -48.882000  -72.046900
  C    -40.782600  -48.146400  -72.684600
  C    -40.660000  -47.897600  -74.047000
  C    -39.407900  -48.384400  -74.512700
  C    -38.617100  -48.908000  -73.528900
  H    -39.133900  -48.422300  -75.576000
  C    -41.574200  -47.253600  -75.064600
  H    -42.571700  -47.499300  -74.701800
  H    -41.392100  -47.756500  -75.948100
  C    -41.369000  -45.762800  -75.257500
  H    -40.300700  -45.533500  -75.529200
  H    -42.066300  -45.267400  -76.011500
  C    -41.579400  -44.959700  -73.939100
  H    -42.442100  -45.368000  -73.435300
  H    -40.606100  -45.169400  -73.375500
  H    -41.600200  -43.920200  -74.083300
  S    -36.878200  -50.968400  -72.988500
  C    -35.224900  -50.881100  -73.612200
  C    -35.041400  -49.694300  -74.267400
  C    -36.185900  -48.864800  -74.421500
  C    -37.294700  -49.481400  -73.770100
  H    -34.037000  -49.490100  -74.623800
  C    -36.098500  -47.493700  -75.087400
  H    -35.102000  -47.114600  -75.050200
  H    -36.684600  -46.719400  -74.621800
  C    -36.391300  -47.538900  -76.627200
  H    -36.572100  -46.552900  -76.954300
  H    -37.334100  -48.098600  -76.661800
  C    -35.419700  -48.378000  -77.533400
  H    -34.422200  -47.980300  -77.473000
  H    -35.683100  -48.377500  -78.549200
  H    -35.374100  -49.388100  -77.183700
  H    -41.669100  -47.816700  -72.073000
  H    -34.430400  -51.533400  -73.508600

 Total Charge           Charge          ....    0
 Multiplicity           Mult            ....    1
 Number of Electrons    NEL             ....  134
 Basis Dimension        Dim             ....  322

ORBITAL ENERGIES
----------------

  NO   OCC          E(Eh)            E(eV)
   0   2.0000     -88.969628     -2420.9867
   1   2.0000     -88.968138     -2420.9461
   2   2.0000     -10.330476      -281.1065
   3   2.0000     -10.319500      -280.8079
   4   2.0000     -10.314919      -280.6832
   5   2.0000     -10.310847      -280.5724
   6   2.0000     -10.307259      -280.4748
   7   2.0000     -10.297780      -280.2168
   8   2.0000     -10.294248      -280.1207
   9   2.0000     -10.291370      -280.0424
  10   2.0000     -10.291337      -280.0415
  11   2.0000     -10.287504      -279.9372
  12   2.0000     -10.286398      -279.9071
  13   2.0000     -10.285933      -279.8945
  14   2.0000     -10.274970      -279.5961
  15   2.0000     -10.272138      -279.5191
  16   2.0000      -8.085133      -220.0077
  17   2.0000      -8.084062      -219.9785
  18   2.0000      -6.043417      -164.4497
  19   2.0000      -6.042557      -164.4263
  20   2.0000      -6.039261      -164.3366
  21   2.0000      -6.038588      -164.3183
  22   2.0000      -6.036049      -164.2492
  23   2.0000      -6.034892      -164.2178
  24   2.0000      -1.018569       -27.7167
  25   2.0000      -0.988884       -26.9089
  26   2.0000      -0.917453       -24.9652
  27   2.0000      -0.904546       -24.6140
  28   2.0000      -0.869947       -23.6725
  29   2.0000      -0.852076       -23.1862
  30   2.0000      -0.844277       -22.9739
  31   2.0000      -0.813854       -22.1461
  32   2.0000      -0.788375       -21.4528
  33   2.0000      -0.779711       -21.2170
  34   2.0000      -0.708826       -19.2881
  35   2.0000      -0.695093       -18.9144
  36   2.0000      -0.690998       -18.8030
  37   2.0000      -0.660557       -17.9747
  38   2.0000      -0.638377       -17.3711
  39   2.0000      -0.623170       -16.9573
  40   2.0000      -0.599340       -16.3089
  41   2.0000      -0.569936       -15.5088
  42   2.0000      -0.556703       -15.1487
  43   2.0000      -0.549211       -14.9448
  44   2.0000      -0.547184       -14.8896
  45   2.0000      -0.544767       -14.8239
  46   2.0000      -0.520509       -14.1638
  47   2.0000      -0.512741       -13.9524
  48   2.0000      -0.500463       -13.6183
  49   2.0000      -0.495805       -13.4916
  50   2.0000      -0.486200       -13.2302
  51   2.0000      -0.484661       -13.1883
  52   2.0000      -0.476317       -12.9612
  53   2.0000      -0.466857       -12.7038
  54   2.0000      -0.457958       -12.4617
  55   2.0000      -0.447884       -12.1876
  56   2.0000      -0.447192       -12.1687
  57   2.0000      -0.444399       -12.0927
  58   2.0000      -0.435788       -11.8584
  59   2.0000      -0.430230       -11.7072
  60   2.0000      -0.419900       -11.4261
  61   2.0000      -0.409482       -11.1426
  62   2.0000      -0.408510       -11.1161
  63   2.0000      -0.351035        -9.5521
  64   2.0000      -0.333012        -9.0617
  65   2.0000      -0.332646        -9.0518
  66   2.0000      -0.289820        -7.8864
  67   0.0000       0.031729         0.8634
  68   0.0000       0.077381         2.1056
  69   0.0000       0.111750         3.0409
  70   0.0000       0.124981         3.4009
  71   0.0000       0.133049         3.6204

MULLIKEN ATOMIC CHARGES
-----------------------
   0 S :    0.137456
   1 C :   -0.156368
   2 C :   -0.120523
   3 C :   -0.018369
   4 C :   -0.122577
   5 H :    0.017742
   6 C :    0.146049
   7 H :    0.021224
   8 H :    0.008961
   9 C :   -0.108167
  10 H :    0.031655
  11 H :    0.045052
  12 C :   -0.063987
  13 H :    0.028098
  14 H :    0.050251
  15 H :    0.030231
  16 S :    0.114462
  17 C :   -0.060715
  18 C :   -0.041882
  19 C :   -0.030465
  20 C :   -0.166500
  21 H :    0.015023
  22 C :    0.093389
  23 H :    0.009087
  24 H :    0.030867
  25 C :   -0.080754
  26 H :    0.022524
  27 H :    0.021033
  28 C :   -0.022512
  29 H :    0.017341
  30 H :    0.029164
  31 H :    0.035295
  32 H :    0.065250
  33 H :    0.022663
Sum of atomic charges:    0.0000000

LOEWDIN ATOMIC CHARGES
----------------------
   0 S :    0.463690
   1 C :   -0.227288
   2 C :   -0.062230
   3 C :   -0.071292
   4 C :   -0.225755
   5 H :    0.031343
   6 C :   -0.023864
   7 H :    0.030937
   8 H :    0.023350
   9 C :   -0.044868
  10 H :    0.026809
  11 H :    0.028813
  12 C :   -0.066048
  13 H :    0.017926
  14 H :    0.036400
  15 H :    0.016677
  16 S :    0.410478
  17 C :   -0.179490
  18 C :   -0.065642
  19 C :   -0.054571
  20 C :   -0.197565
  21 H :    0.030477
  22 C :   -0.025544
  23 H :    0.025222
  24 H :    0.031747
  25 C :   -0.030880
  26 H :    0.015440
  27 H :    0.019391
  28 C :   -0.057542
  29 H :    0.019363
  30 H :    0.022066
  31 H :    0.025904
  32 H :    0.039141
  33 H :    0.017407

  Mayer bond orders larger than 0.100000
B(  0-S ,  1-C ) :   1.1595 B(  0-S ,  4-C ) :   1.1851 B(  1-C ,  2-C ) :   1.5783
B(  1-C , 32-H ) :   0.9622 B(  2-C ,  3-C ) :   1.2810 B(  2-C ,  6-C ) :   1.0071
B(  3-C ,  4-C ) :   1.5369 B(  3-C ,  5-H ) :   0.9907 B(  4-C , 20-C ) :   1.0319
B(  6-C ,  7-H ) :   0.9380 B(  6-C ,  8-H ) :   0.9333 B(  6-C ,  9-C ) :   1.0730
B(  9-C , 10-H ) :   0.9582 B(  9-C , 11-H ) :   0.9597 B(  9-C , 12-C ) :   1.0662
B( 12-C , 13-H ) :   0.9787 B( 12-C , 14-H ) :   0.9752 B( 12-C , 15-H ) :   0.9755
B( 16-S , 17-C ) :   1.1325 B( 16-S , 20-C ) :   1.1632 B( 17-C , 18-C ) :   1.6269
B( 17-C , 20-C ) :   0.1015 B( 17-C , 33-H ) :   0.9744 B( 18-C , 19-C ) :   1.2566
B( 18-C , 21-H ) :   0.9829 B( 19-C , 20-C ) :   1.5499 B( 19-C , 22-C ) :   1.0469
B( 22-C , 23-H ) :   0.9372 B( 22-C , 24-H ) :   0.9324 B( 22-C , 25-C ) :   1.0624
B( 25-C , 26-H ) :   0.9591 B( 25-C , 27-H ) :   0.9552 B( 25-C , 28-C ) :   1.0728
B( 28-C , 29-H ) :   0.9766 B( 28-C , 30-H ) :   0.9748 B( 28-C , 31-H ) :   0.9720

Dispersion correction           -0.015340476
FINAL SINGLE POINT ENERGY     -1339.875635368327

DIPOLE MOMENT
-------------
                                X             Y             Z
Electronic contribution:      3.03257     -19.74363      19.62817
Nuclear contribution   :     -2.94152      20.17314     -20.06374
                        -----------------------------------------
Total Dipole Moment    :      0.09104       0.42951      -0.43557
                        -----------------------------------------
Magnitude (a.u.)       :      0.61845
Magnitude (Debye)      :      1.57198

Rotational constants in cm-1:     0.019563     0.009541     0.006951
Rotational constants in MHz :   586.469504   286.027814   208.392304

                             ****ORCA TERMINATED NORMALLY****
TOTAL RUN TIME: 0 days 0 hours 0 minutes 22 seconds 371 msec
