                         Program Version 4.2.1 -  RELEASE  -
|  1> ! wB97X-D3 SP def2-SVP
|  2> %pal
|  3> nprocs 24
|  4> end
|  5>
|  6> * xyz 0 1
|  7> S 	 -116.183 	 23.3875 	 -117.753
|  8> C 	 -117.792 	 23.0988 	 -118.344
|  9> C 	 -118.65 	 24.1719 	 -118.258
| 10> C 	 -117.869 	 25.3626 	 -117.982
| 11> C 	 -116.598 	 25.0515 	 -117.612
| 12> H 	 -118.228 	 26.3862 	 -117.809
| 13> C 	 -120.064 	 24.1551 	 -118.718
| 14> H 	 -120.227 	 23.3332 	 -119.322
| 15> H 	 -120.097 	 24.9795 	 -119.384
| 16> C 	 -121.131 	 24.3148 	 -117.534
| 17> H 	 -120.824 	 25.1937 	 -116.962
| 18> H 	 -122.09 	 24.5526 	 -117.958
| 19> C 	 -121.324 	 23.1552 	 -116.579
| 20> H 	 -121.439 	 22.1528 	 -117.012
| 21> H 	 -120.386 	 23.1083 	 -115.999
| 22> H 	 -122.156 	 23.3821 	 -115.826
| 23> S 	 -114.429 	 25.3918 	 -115.971
| 24> C 	 -113.455 	 26.8563 	 -116.194
| 25> C 	 -114.072 	 27.8133 	 -117.014
| 26> C 	 -115.268 	 27.3208 	 -117.584
| 27> C 	 -115.546 	 25.9978 	 -117.199
| 28> H 	 -113.526 	 28.7304 	 -117.281
| 29> C 	 -115.945 	 28.1927 	 -118.721
| 30> H 	 -116.715 	 27.6539 	 -119.199
| 31> H 	 -115.192 	 28.2833 	 -119.548
| 32> C 	 -116.401 	 29.6419 	 -118.368
| 33> H 	 -116.616 	 30.2527 	 -119.285
| 34> H 	 -115.545 	 30.1329 	 -117.809
| 35> C 	 -117.676 	 29.6745 	 -117.576
| 36> H 	 -117.512 	 29.8919 	 -116.533
| 37> H 	 -118.098 	 28.6705 	 -117.612
| 38> H 	 -118.575 	 30.3165 	 -117.793
| 39> H 	 -118.104 	 22.1267 	 -118.679
| 40> H 	 -112.492 	 26.9707 	 -115.696
| 41> *
| 42>
| 43>                          ****END OF INPUT****

CARTESIAN COORDINATES (ANGSTROEM)
---------------------------------
  S    -116.183000   23.387500  -117.753000
  C    -117.792000   23.098800  -118.344000
  C    -118.650000   24.171900  -118.258000
  C    -117.869000   25.362600  -117.982000
  C    -116.598000   25.051500  -117.612000
  H    -118.228000   26.386200  -117.809000
  C    -120.064000   24.155100  -118.718000
  H    -120.227000   23.333200  -119.322000
  H    -120.097000   24.979500  -119.384000
  C    -121.131000   24.314800  -117.534000
  H    -120.824000   25.193700  -116.962000
  H    -122.090000   24.552600  -117.958000
  C    -121.324000   23.155200  -116.579000
  H    -121.439000   22.152800  -117.012000
  H    -120.386000   23.108300  -115.999000
  H    -122.156000   23.382100  -115.826000
  S    -114.429000   25.391800  -115.971000
  C    -113.455000   26.856300  -116.194000
  C    -114.072000   27.813300  -117.014000
  C    -115.268000   27.320800  -117.584000
  C    -115.546000   25.997800  -117.199000
  H    -113.526000   28.730400  -117.281000
  C    -115.945000   28.192700  -118.721000
  H    -116.715000   27.653900  -119.199000
  H    -115.192000   28.283300  -119.548000
  C    -116.401000   29.641900  -118.368000
  H    -116.616000   30.252700  -119.285000
  H    -115.545000   30.132900  -117.809000
  C    -117.676000   29.674500  -117.576000
  H    -117.512000   29.891900  -116.533000
  H    -118.098000   28.670500  -117.612000
  H    -118.575000   30.316500  -117.793000
  H    -118.104000   22.126700  -118.679000
  H    -112.492000   26.970700  -115.696000

 Total Charge           Charge          ....    0
 Multiplicity           Mult            ....    1
 Number of Electrons    NEL             ....  134
 Basis Dimension        Dim             ....  322

ORBITAL ENERGIES
----------------

  NO   OCC          E(Eh)            E(eV)
   0   2.0000     -88.968984     -2420.9691
   1   2.0000     -88.966849     -2420.9110
   2   2.0000     -10.331024      -281.1215
   3   2.0000     -10.324701      -280.9494
   4   2.0000     -10.321050      -280.8501
   5   2.0000     -10.309812      -280.5442
   6   2.0000     -10.308759      -280.5156
   7   2.0000     -10.300806      -280.2992
   8   2.0000     -10.298740      -280.2430
   9   2.0000     -10.298631      -280.2400
  10   2.0000     -10.297665      -280.2137
  11   2.0000     -10.293119      -280.0900
  12   2.0000     -10.289395      -279.9887
  13   2.0000     -10.286757      -279.9169
  14   2.0000     -10.282358      -279.7972
  15   2.0000     -10.275345      -279.6063
  16   2.0000      -8.083089      -219.9520
  17   2.0000      -8.082504      -219.9361
  18   2.0000      -6.041481      -164.3970
  19   2.0000      -6.040828      -164.3793
  20   2.0000      -6.037849      -164.2982
  21   2.0000      -6.037147      -164.2791
  22   2.0000      -6.033870      -164.1900
  23   2.0000      -6.033135      -164.1700
  24   2.0000      -1.009542       -27.4710
  25   2.0000      -0.981740       -26.7145
  26   2.0000      -0.911342       -24.7989
  27   2.0000      -0.904244       -24.6057
  28   2.0000      -0.865375       -23.5481
  29   2.0000      -0.853530       -23.2257
  30   2.0000      -0.847266       -23.0553
  31   2.0000      -0.813497       -22.1364
  32   2.0000      -0.784607       -21.3502
  33   2.0000      -0.772535       -21.0218
  34   2.0000      -0.705644       -19.2015
  35   2.0000      -0.695918       -18.9369
  36   2.0000      -0.690451       -18.7881
  37   2.0000      -0.659339       -17.9415
  38   2.0000      -0.641640       -17.4599
  39   2.0000      -0.620943       -16.8967
  40   2.0000      -0.596336       -16.2271
  41   2.0000      -0.563711       -15.3394
  42   2.0000      -0.550447       -14.9784
  43   2.0000      -0.544721       -14.8226
  44   2.0000      -0.541778       -14.7425
  45   2.0000      -0.538916       -14.6646
  46   2.0000      -0.520156       -14.1542
  47   2.0000      -0.511048       -13.9063
  48   2.0000      -0.498407       -13.5624
  49   2.0000      -0.491801       -13.3826
  50   2.0000      -0.487265       -13.2592
  51   2.0000      -0.477125       -12.9832
  52   2.0000      -0.472422       -12.8553
  53   2.0000      -0.463339       -12.6081
  54   2.0000      -0.457370       -12.4457
  55   2.0000      -0.450275       -12.2526
  56   2.0000      -0.444503       -12.0956
  57   2.0000      -0.439709       -11.9651
  58   2.0000      -0.438064       -11.9203
  59   2.0000      -0.427138       -11.6230
  60   2.0000      -0.422081       -11.4854
  61   2.0000      -0.414498       -11.2791
  62   2.0000      -0.409739       -11.1496
  63   2.0000      -0.351630        -9.5683
  64   2.0000      -0.335899        -9.1403
  65   2.0000      -0.331784        -9.0283
  66   2.0000      -0.283419        -7.7122
  67   0.0000       0.026811         0.7296
  68   0.0000       0.072079         1.9614
  69   0.0000       0.099726         2.7137
  70   0.0000       0.114982         3.1288
  71   0.0000       0.129588         3.5263

MULLIKEN ATOMIC CHARGES
-----------------------
   0 S :    0.116984
   1 C :   -0.120929
   2 C :   -0.090483
   3 C :   -0.007315
   4 C :   -0.113245
   5 H :    0.013431
   6 C :    0.118179
   7 H :   -0.002132
   8 H :    0.016913
   9 C :   -0.066446
  10 H :    0.027846
  11 H :    0.023485
  12 C :   -0.074158
  13 H :    0.036632
  14 H :    0.037033
  15 H :    0.049920
  16 S :    0.096613
  17 C :   -0.109585
  18 C :   -0.042226
  19 C :   -0.018736
  20 C :   -0.145449
  21 H :    0.039659
  22 C :    0.040106
  23 H :    0.005706
  24 H :    0.042572
  25 C :   -0.085656
  26 H :    0.045144
  27 H :    0.042133
  28 C :   -0.050160
  29 H :    0.031839
  30 H :    0.005174
  31 H :    0.040095
  32 H :    0.034808
  33 H :    0.062249
Sum of atomic charges:    0.0000000

LOEWDIN ATOMIC CHARGES
----------------------
   0 S :    0.414269
   1 C :   -0.196402
   2 C :   -0.056453
   3 C :   -0.071189
   4 C :   -0.195890
   5 H :    0.031903
   6 C :   -0.020281
   7 H :    0.019215
   8 H :    0.032236
   9 C :   -0.036131
  10 H :    0.026404
  11 H :    0.017979
  12 C :   -0.075943
  13 H :    0.024207
  14 H :    0.028762
  15 H :    0.037984
  16 S :    0.386061
  17 C :   -0.178682
  18 C :   -0.070865
  19 C :   -0.061595
  20 C :   -0.186463
  21 H :    0.038899
  22 C :   -0.027669
  23 H :    0.017185
  24 H :    0.039577
  25 C :   -0.048246
  26 H :    0.034735
  27 H :    0.029914
  28 C :   -0.082435
  29 H :    0.026751
  30 H :    0.022155
  31 H :    0.033449
  32 H :    0.019289
  33 H :    0.027268

  Mayer bond orders larger than 0.100000
B(  0-S ,  1-C ) :   1.1299 B(  0-S ,  4-C ) :   1.1458 B(  1-C ,  2-C ) :   1.6270
B(  1-C , 32-H ) :   0.9677 B(  2-C ,  3-C ) :   1.2013 B(  2-C ,  6-C ) :   1.0252
B(  3-C ,  4-C ) :   1.6229 B(  3-C ,  5-H ) :   0.9818 B(  4-C , 20-C ) :   1.0281
B(  6-C ,  7-H ) :   0.9441 B(  6-C ,  8-H ) :   0.9356 B(  6-C ,  9-C ) :   1.0523
B(  9-C , 10-H ) :   0.9589 B(  9-C , 11-H ) :   0.9599 B(  9-C , 12-C ) :   1.0740
B( 12-C , 13-H ) :   0.9763 B( 12-C , 14-H ) :   0.9748 B( 12-C , 15-H ) :   0.9718
B( 16-S , 17-C ) :   1.1449 B( 16-S , 20-C ) :   1.1422 B( 17-C , 18-C ) :   1.6143
B( 17-C , 20-C ) :   0.1065 B( 17-C , 33-H ) :   0.9674 B( 18-C , 19-C ) :   1.2392
B( 18-C , 21-H ) :   0.9820 B( 19-C , 20-C ) :   1.6058 B( 19-C , 22-C ) :   1.0166
B( 22-C , 23-H ) :   0.9431 B( 22-C , 24-H ) :   0.9431 B( 22-C , 25-C ) :   1.0762
B( 25-C , 26-H ) :   0.9573 B( 25-C , 27-H ) :   0.9602 B( 25-C , 28-C ) :   1.0462
B( 28-C , 29-H ) :   0.9708 B( 28-C , 30-H ) :   0.9830 B( 28-C , 31-H ) :   0.9735

Dispersion correction           -0.014327719
FINAL SINGLE POINT ENERGY     -1339.868171341892

DIPOLE MOMENT
-------------
                                X             Y             Z
Electronic contribution:     22.99528     -13.08537       4.43166
Nuclear contribution   :    -23.33234      13.44703      -4.71761
                        -----------------------------------------
Total Dipole Moment    :     -0.33706       0.36167      -0.28596
                        -----------------------------------------
Magnitude (a.u.)       :      0.57113
Magnitude (Debye)      :      1.45169

Rotational constants in cm-1:     0.018458     0.008888     0.006739
Rotational constants in MHz :   553.351303   266.462353   202.033557

                             ****ORCA TERMINATED NORMALLY****
TOTAL RUN TIME: 0 days 0 hours 0 minutes 21 seconds 576 msec
