                         Program Version 4.2.1 -  RELEASE  -
|  1> ! wB97X-D3 SP def2-SVP
|  2> %pal
|  3> nprocs 24
|  4> end
|  5>
|  6> * xyz 0 1
|  7> S 	 -32.8284 	 16.0113 	 14.713
|  8> C 	 -33.9826 	 16.766 	 15.8002
|  9> C 	 -34.7032 	 17.7259 	 15.081
| 10> C 	 -34.4225 	 17.6987 	 13.6434
| 11> C 	 -33.4212 	 16.7416 	 13.352
| 12> H 	 -35.0098 	 18.3503 	 12.9333
| 13> C 	 -35.7075 	 18.7114 	 15.6527
| 14> H 	 -36.5716 	 18.1441 	 15.755
| 15> H 	 -35.9168 	 19.4507 	 14.8923
| 16> C 	 -35.3711 	 19.2518 	 17.0526
| 17> H 	 -35.5133 	 18.4437 	 17.7852
| 18> H 	 -34.3002 	 19.6614 	 17.0985
| 19> C 	 -36.2126 	 20.4586 	 17.3465
| 20> H 	 -37.2366 	 20.334 	 17.0298
| 21> H 	 -36.2494 	 20.6802 	 18.4363
| 22> H 	 -35.8218 	 21.3802 	 16.9419
| 23> S 	 -31.1694 	 16.4519 	 11.893
| 24> C 	 -31.3109 	 16.2091 	 10.142
| 25> C 	 -32.6189 	 16.2526 	 9.7027
| 26> C 	 -33.5623 	 16.4321 	 10.7694
| 27> C 	 -32.9448 	 16.3914 	 12.0306
| 28> H 	 -33.0061 	 16.3413 	 8.65538
| 29> C 	 -35.0442 	 16.8301 	 10.5338
| 30> H 	 -35.0278 	 17.1312 	 9.49126
| 31> H 	 -35.3548 	 17.6855 	 11.141
| 32> C 	 -36.1736 	 15.7608 	 10.3639
| 33> H 	 -36.0992 	 15.1654 	 11.279
| 34> H 	 -35.8982 	 15.0283 	 9.56059
| 35> C 	 -37.6158 	 16.3606 	 10.2975
| 36> H 	 -38.228 	 15.557 	 9.93828
| 37> H 	 -37.7341 	 17.2421 	 9.7237
| 38> H 	 -37.9755 	 16.611 	 11.3283
| 39> H 	 -34.0283 	 16.506 	 16.8758
| 40> H 	 -30.4842 	 16.0601 	 9.53635
| 41> *
| 42>
| 43>                          ****END OF INPUT****

CARTESIAN COORDINATES (ANGSTROEM)
---------------------------------
  S    -32.828400   16.011300   14.713000
  C    -33.982600   16.766000   15.800200
  C    -34.703200   17.725900   15.081000
  C    -34.422500   17.698700   13.643400
  C    -33.421200   16.741600   13.352000
  H    -35.009800   18.350300   12.933300
  C    -35.707500   18.711400   15.652700
  H    -36.571600   18.144100   15.755000
  H    -35.916800   19.450700   14.892300
  C    -35.371100   19.251800   17.052600
  H    -35.513300   18.443700   17.785200
  H    -34.300200   19.661400   17.098500
  C    -36.212600   20.458600   17.346500
  H    -37.236600   20.334000   17.029800
  H    -36.249400   20.680200   18.436300
  H    -35.821800   21.380200   16.941900
  S    -31.169400   16.451900   11.893000
  C    -31.310900   16.209100   10.142000
  C    -32.618900   16.252600    9.702700
  C    -33.562300   16.432100   10.769400
  C    -32.944800   16.391400   12.030600
  H    -33.006100   16.341300    8.655380
  C    -35.044200   16.830100   10.533800
  H    -35.027800   17.131200    9.491260
  H    -35.354800   17.685500   11.141000
  C    -36.173600   15.760800   10.363900
  H    -36.099200   15.165400   11.279000
  H    -35.898200   15.028300    9.560590
  C    -37.615800   16.360600   10.297500
  H    -38.228000   15.557000    9.938280
  H    -37.734100   17.242100    9.723700
  H    -37.975500   16.611000   11.328300
  H    -34.028300   16.506000   16.875800
  H    -30.484200   16.060100    9.536350

 Total Charge           Charge          ....    0
 Multiplicity           Mult            ....    1
 Number of Electrons    NEL             ....  134
 Basis Dimension        Dim             ....  322

ORBITAL ENERGIES
----------------

  NO   OCC          E(Eh)            E(eV)
   0   2.0000     -88.965728     -2420.8805
   1   2.0000     -88.964494     -2420.8469
   2   2.0000     -10.327680      -281.0305
   3   2.0000     -10.325710      -280.9768
   4   2.0000     -10.316869      -280.7363
   5   2.0000     -10.314926      -280.6834
   6   2.0000     -10.307730      -280.4876
   7   2.0000     -10.304666      -280.4042
   8   2.0000     -10.300895      -280.3016
   9   2.0000     -10.300220      -280.2832
  10   2.0000     -10.294979      -280.1406
  11   2.0000     -10.292884      -280.0836
  12   2.0000     -10.292570      -280.0751
  13   2.0000     -10.285988      -279.8960
  14   2.0000     -10.281841      -279.7831
  15   2.0000     -10.275668      -279.6151
  16   2.0000      -8.081006      -219.8953
  17   2.0000      -8.079865      -219.8643
  18   2.0000      -6.039382      -164.3399
  19   2.0000      -6.038430      -164.3140
  20   2.0000      -6.035078      -164.2228
  21   2.0000      -6.034619      -164.2103
  22   2.0000      -6.031975      -164.1384
  23   2.0000      -6.030435      -164.0965
  24   2.0000      -1.009093       -27.4588
  25   2.0000      -0.979385       -26.6504
  26   2.0000      -0.917436       -24.9647
  27   2.0000      -0.900397       -24.5011
  28   2.0000      -0.869515       -23.6607
  29   2.0000      -0.850312       -23.1382
  30   2.0000      -0.845231       -22.9999
  31   2.0000      -0.806724       -21.9521
  32   2.0000      -0.784140       -21.3375
  33   2.0000      -0.773509       -21.0483
  34   2.0000      -0.706967       -19.2375
  35   2.0000      -0.700044       -19.0492
  36   2.0000      -0.688362       -18.7313
  37   2.0000      -0.665254       -18.1025
  38   2.0000      -0.635865       -17.3028
  39   2.0000      -0.614191       -16.7130
  40   2.0000      -0.595527       -16.2051
  41   2.0000      -0.572449       -15.5771
  42   2.0000      -0.559941       -15.2368
  43   2.0000      -0.558334       -15.1930
  44   2.0000      -0.528148       -14.3716
  45   2.0000      -0.523861       -14.2550
  46   2.0000      -0.518236       -14.1019
  47   2.0000      -0.510754       -13.8983
  48   2.0000      -0.503115       -13.6905
  49   2.0000      -0.497388       -13.5346
  50   2.0000      -0.495907       -13.4943
  51   2.0000      -0.487460       -13.2645
  52   2.0000      -0.475044       -12.9266
  53   2.0000      -0.461009       -12.5447
  54   2.0000      -0.459190       -12.4952
  55   2.0000      -0.449894       -12.2422
  56   2.0000      -0.449121       -12.2212
  57   2.0000      -0.436108       -11.8671
  58   2.0000      -0.431217       -11.7340
  59   2.0000      -0.427276       -11.6268
  60   2.0000      -0.422409       -11.4943
  61   2.0000      -0.412367       -11.2211
  62   2.0000      -0.401055       -10.9132
  63   2.0000      -0.347686        -9.4610
  64   2.0000      -0.329622        -8.9695
  65   2.0000      -0.325739        -8.8638
  66   2.0000      -0.286066        -7.7843
  67   0.0000       0.025562         0.6956
  68   0.0000       0.074379         2.0240
  69   0.0000       0.094090         2.5603
  70   0.0000       0.117908         3.2084
  71   0.0000       0.131026         3.5654

MULLIKEN ATOMIC CHARGES
-----------------------
   0 S :    0.119244
   1 C :   -0.156550
   2 C :   -0.106678
   3 C :   -0.017052
   4 C :   -0.127349
   5 H :    0.033914
   6 C :    0.099070
   7 H :    0.024351
   8 H :    0.016316
   9 C :   -0.104839
  10 H :    0.038406
  11 H :    0.048921
  12 C :   -0.040266
  13 H :    0.022450
  14 H :    0.027959
  15 H :    0.032583
  16 S :    0.087095
  17 C :   -0.063210
  18 C :   -0.018133
  19 C :   -0.072152
  20 C :   -0.113195
  21 H :    0.036126
  22 C :    0.046239
  23 H :    0.008536
  24 H :    0.027570
  25 C :   -0.088950
  26 H :    0.031840
  27 H :    0.035863
  28 C :   -0.036487
  29 H :    0.038853
  30 H :    0.028947
  31 H :    0.038096
  32 H :    0.066344
  33 H :    0.036138
Sum of atomic charges:    0.0000000

LOEWDIN ATOMIC CHARGES
----------------------
   0 S :    0.450746
   1 C :   -0.220044
   2 C :   -0.051567
   3 C :   -0.082250
   4 C :   -0.229131
   5 H :    0.036902
   6 C :   -0.031158
   7 H :    0.029523
   8 H :    0.027870
   9 C :   -0.044081
  10 H :    0.025216
  11 H :    0.036234
  12 C :   -0.068185
  13 H :    0.019525
  14 H :    0.029511
  15 H :    0.025147
  16 S :    0.384535
  17 C :   -0.165175
  18 C :   -0.070601
  19 C :   -0.055465
  20 C :   -0.183864
  21 H :    0.041161
  22 C :   -0.036336
  23 H :    0.029603
  24 H :    0.026780
  25 C :   -0.042577
  26 H :    0.023594
  27 H :    0.027048
  28 C :   -0.061734
  29 H :    0.029264
  30 H :    0.017313
  31 H :    0.033479
  32 H :    0.035001
  33 H :    0.013717

  Mayer bond orders larger than 0.100000
B(  0-S ,  1-C ) :   1.1322 B(  0-S ,  4-C ) :   1.2077 B(  1-C ,  2-C ) :   1.5714
B(  1-C , 32-H ) :   0.9729 B(  2-C ,  3-C ) :   1.2840 B(  2-C ,  6-C ) :   1.0191
B(  3-C ,  4-C ) :   1.4971 B(  3-C ,  5-H ) :   0.9803 B(  4-C , 20-C ) :   1.0266
B(  6-C ,  7-H ) :   0.9165 B(  6-C ,  8-H ) :   0.9467 B(  6-C ,  9-C ) :   1.0679
B(  9-C , 10-H ) :   0.9483 B(  9-C , 11-H ) :   0.9641 B(  9-C , 12-C ) :   1.0891
B( 12-C , 13-H ) :   0.9711 B( 12-C , 14-H ) :   0.9711 B( 12-C , 15-H ) :   0.9760
B( 16-S , 17-C ) :   1.1468 B( 16-S , 20-C ) :   1.1382 B( 17-C , 18-C ) :   1.6026
B( 17-C , 20-C ) :   0.1027 B( 17-C , 33-H ) :   0.9772 B( 18-C , 19-C ) :   1.2657
B( 18-C , 21-H ) :   0.9739 B( 19-C , 20-C ) :   1.6007 B( 19-C , 22-C ) :   1.0273
B( 22-C , 23-H ) :   0.9268 B( 22-C , 24-H ) :   0.9485 B( 22-C , 25-C ) :   1.0484
B( 25-C , 26-H ) :   0.9592 B( 25-C , 27-H ) :   0.9613 B( 25-C , 28-C ) :   1.0628
B( 28-C , 29-H ) :   0.9740 B( 28-C , 30-H ) :   0.9801 B( 28-C , 31-H ) :   0.9756

Dispersion correction           -0.013460686
FINAL SINGLE POINT ENERGY     -1339.858680034111

DIPOLE MOMENT
-------------
                                X             Y             Z
Electronic contribution:     27.12594     -12.05184      -2.80641
Nuclear contribution   :    -27.78376      12.44531       2.69542
                        -----------------------------------------
Total Dipole Moment    :     -0.65781       0.39347      -0.11099
                        -----------------------------------------
Magnitude (a.u.)       :      0.77450
Magnitude (Debye)      :      1.96863

Rotational constants in cm-1:     0.017809     0.008219     0.006234
Rotational constants in MHz :   533.910591   246.387812   186.878843

                             ****ORCA TERMINATED NORMALLY****
TOTAL RUN TIME: 0 days 0 hours 0 minutes 22 seconds 326 msec
