                         Program Version 4.2.1 -  RELEASE  -
|  1> ! wB97X-D3 SP def2-SVP
|  2> %pal
|  3> nprocs 24
|  4> end
|  5>
|  6> * xyz 0 1
|  7> S 	 -108.508 	 58.7669 	 -97.1927
|  8> C 	 -107.176 	 59.0727 	 -96.1437
|  9> C 	 -106.089 	 59.6599 	 -96.7414
| 10> C 	 -106.331 	 59.8775 	 -98.1461
| 11> C 	 -107.548 	 59.4172 	 -98.5931
| 12> H 	 -105.547 	 60.2795 	 -98.7607
| 13> C 	 -104.777 	 59.7037 	 -95.9675
| 14> H 	 -104.055 	 60.2266 	 -96.5379
| 15> H 	 -104.388 	 58.7252 	 -95.8849
| 16> C 	 -104.98 	 60.2288 	 -94.5259
| 17> H 	 -105.6 	 61.0667 	 -94.6473
| 18> H 	 -105.563 	 59.6552 	 -93.928
| 19> C 	 -103.71 	 60.6661 	 -93.6857
| 20> H 	 -103.861 	 60.4256 	 -92.6026
| 21> H 	 -102.867 	 60.057 	 -94.0136
| 22> H 	 -103.468 	 61.792 	 -93.7697
| 23> S 	 -108.121 	 57.5182 	 -100.487
| 24> C 	 -108.673 	 58.1144 	 -102.052
| 25> C 	 -108.612 	 59.5028 	 -102.212
| 26> C 	 -108.253 	 60.1571 	 -100.964
| 27> C 	 -107.9 	 59.2221 	 -99.9806
| 28> H 	 -108.945 	 59.8896 	 -103.193
| 29> C 	 -108.208 	 61.6497 	 -100.875
| 30> H 	 -108.355 	 61.9369 	 -99.8736
| 31> H 	 -109.181 	 61.9784 	 -101.351
| 32> C 	 -107.021 	 62.3398 	 -101.539
| 33> H 	 -107.063 	 62.0611 	 -102.561
| 34> H 	 -106.05 	 62.0478 	 -101.133
| 35> C 	 -107.231 	 63.8177 	 -101.553
| 36> H 	 -107.298 	 64.0298 	 -100.524
| 37> H 	 -108.219 	 64.2174 	 -101.917
| 38> H 	 -106.387 	 64.3558 	 -102.056
| 39> H 	 -107.29 	 58.8911 	 -95.0596
| 40> H 	 -108.952 	 57.4472 	 -102.868
| 41> *
| 42>
| 43>                          ****END OF INPUT****

CARTESIAN COORDINATES (ANGSTROEM)
---------------------------------
  S    -108.508000   58.766900  -97.192700
  C    -107.176000   59.072700  -96.143700
  C    -106.089000   59.659900  -96.741400
  C    -106.331000   59.877500  -98.146100
  C    -107.548000   59.417200  -98.593100
  H    -105.547000   60.279500  -98.760700
  C    -104.777000   59.703700  -95.967500
  H    -104.055000   60.226600  -96.537900
  H    -104.388000   58.725200  -95.884900
  C    -104.980000   60.228800  -94.525900
  H    -105.600000   61.066700  -94.647300
  H    -105.563000   59.655200  -93.928000
  C    -103.710000   60.666100  -93.685700
  H    -103.861000   60.425600  -92.602600
  H    -102.867000   60.057000  -94.013600
  H    -103.468000   61.792000  -93.769700
  S    -108.121000   57.518200  -100.487000
  C    -108.673000   58.114400  -102.052000
  C    -108.612000   59.502800  -102.212000
  C    -108.253000   60.157100  -100.964000
  C    -107.900000   59.222100  -99.980600
  H    -108.945000   59.889600  -103.193000
  C    -108.208000   61.649700  -100.875000
  H    -108.355000   61.936900  -99.873600
  H    -109.181000   61.978400  -101.351000
  C    -107.021000   62.339800  -101.539000
  H    -107.063000   62.061100  -102.561000
  H    -106.050000   62.047800  -101.133000
  C    -107.231000   63.817700  -101.553000
  H    -107.298000   64.029800  -100.524000
  H    -108.219000   64.217400  -101.917000
  H    -106.387000   64.355800  -102.056000
  H    -107.290000   58.891100  -95.059600
  H    -108.952000   57.447200  -102.868000

 Total Charge           Charge          ....    0
 Multiplicity           Mult            ....    1
 Number of Electrons    NEL             ....  134
 Basis Dimension        Dim             ....  322

ORBITAL ENERGIES
----------------

  NO   OCC          E(Eh)            E(eV)
   0   2.0000     -88.965837     -2420.8835
   1   2.0000     -88.964666     -2420.8516
   2   2.0000     -10.329735      -281.0864
   3   2.0000     -10.326593      -281.0009
   4   2.0000     -10.319101      -280.7970
   5   2.0000     -10.310982      -280.5761
   6   2.0000     -10.307509      -280.4816
   7   2.0000     -10.298798      -280.2445
   8   2.0000     -10.297833      -280.2183
   9   2.0000     -10.297316      -280.2042
  10   2.0000     -10.290882      -280.0291
  11   2.0000     -10.288777      -279.9719
  12   2.0000     -10.288569      -279.9662
  13   2.0000     -10.281638      -279.7776
  14   2.0000     -10.277360      -279.6612
  15   2.0000     -10.276704      -279.6433
  16   2.0000      -8.079775      -219.8619
  17   2.0000      -8.079071      -219.8427
  18   2.0000      -6.038253      -164.3092
  19   2.0000      -6.037543      -164.2899
  20   2.0000      -6.034566      -164.2089
  21   2.0000      -6.033710      -164.1856
  22   2.0000      -6.030441      -164.0966
  23   2.0000      -6.029803      -164.0793
  24   2.0000      -0.999002       -27.1842
  25   2.0000      -0.976467       -26.5710
  26   2.0000      -0.917010       -24.9531
  27   2.0000      -0.908390       -24.7185
  28   2.0000      -0.865079       -23.5400
  29   2.0000      -0.853988       -23.2382
  30   2.0000      -0.846002       -23.0209
  31   2.0000      -0.811602       -22.0848
  32   2.0000      -0.780774       -21.2459
  33   2.0000      -0.763517       -20.7763
  34   2.0000      -0.715446       -19.4683
  35   2.0000      -0.703993       -19.1566
  36   2.0000      -0.692620       -18.8471
  37   2.0000      -0.657070       -17.8798
  38   2.0000      -0.639517       -17.4022
  39   2.0000      -0.618848       -16.8397
  40   2.0000      -0.594788       -16.1850
  41   2.0000      -0.568762       -15.4768
  42   2.0000      -0.564682       -15.3658
  43   2.0000      -0.559653       -15.2289
  44   2.0000      -0.533094       -14.5062
  45   2.0000      -0.522307       -14.2127
  46   2.0000      -0.517931       -14.0936
  47   2.0000      -0.513187       -13.9645
  48   2.0000      -0.504346       -13.7240
  49   2.0000      -0.491617       -13.3776
  50   2.0000      -0.487972       -13.2784
  51   2.0000      -0.472381       -12.8541
  52   2.0000      -0.465779       -12.6745
  53   2.0000      -0.462067       -12.5735
  54   2.0000      -0.453150       -12.3308
  55   2.0000      -0.449884       -12.2420
  56   2.0000      -0.446193       -12.1415
  57   2.0000      -0.440530       -11.9874
  58   2.0000      -0.436849       -11.8873
  59   2.0000      -0.425533       -11.5793
  60   2.0000      -0.422907       -11.5079
  61   2.0000      -0.419655       -11.4194
  62   2.0000      -0.412881       -11.2351
  63   2.0000      -0.343625        -9.3505
  64   2.0000      -0.330567        -8.9952
  65   2.0000      -0.323093        -8.7918
  66   2.0000      -0.293692        -7.9918
  67   0.0000       0.033859         0.9213
  68   0.0000       0.059546         1.6203
  69   0.0000       0.110420         3.0047
  70   0.0000       0.118870         3.2346
  71   0.0000       0.126174         3.4334

MULLIKEN ATOMIC CHARGES
-----------------------
   0 S :    0.114303
   1 C :   -0.156017
   2 C :   -0.107789
   3 C :    0.050719
   4 C :   -0.160574
   5 H :    0.008108
   6 C :    0.138227
   7 H :    0.002314
   8 H :    0.034602
   9 C :   -0.078091
  10 H :    0.015580
  11 H :    0.005516
  12 C :   -0.079095
  13 H :    0.039846
  14 H :    0.033080
  15 H :    0.055039
  16 S :    0.108349
  17 C :   -0.107910
  18 C :   -0.042979
  19 C :   -0.022237
  20 C :   -0.170943
  21 H :    0.033700
  22 C :    0.050471
  23 H :    0.010188
  24 H :    0.026573
  25 C :   -0.018620
  26 H :    0.011322
  27 H :    0.034763
  28 C :   -0.043291
  29 H :    0.008992
  30 H :    0.031217
  31 H :    0.047675
  32 H :    0.067749
  33 H :    0.059216
Sum of atomic charges:    0.0000000

LOEWDIN ATOMIC CHARGES
----------------------
   0 S :    0.386616
   1 C :   -0.198691
   2 C :   -0.071279
   3 C :   -0.046813
   4 C :   -0.185066
   5 H :    0.030095
   6 C :   -0.017744
   7 H :    0.022013
   8 H :    0.029737
   9 C :   -0.037222
  10 H :    0.020928
  11 H :    0.008009
  12 C :   -0.072667
  13 H :    0.030879
  14 H :    0.022912
  15 H :    0.036421
  16 S :    0.383252
  17 C :   -0.178870
  18 C :   -0.076007
  19 C :   -0.045376
  20 C :   -0.191496
  21 H :    0.038695
  22 C :   -0.032157
  23 H :    0.021004
  24 H :    0.040577
  25 C :   -0.033731
  26 H :    0.018364
  27 H :    0.027797
  28 C :   -0.068542
  29 H :    0.017254
  30 H :    0.030571
  31 H :    0.032289
  32 H :    0.030740
  33 H :    0.027506

  Mayer bond orders larger than 0.100000
B(  0-S ,  1-C ) :   1.1507 B(  0-S ,  4-C ) :   1.1243 B(  1-C ,  2-C ) :   1.6078
B(  1-C , 32-H ) :   0.9599 B(  2-C ,  3-C ) :   1.2506 B(  2-C ,  6-C ) :   1.0238
B(  3-C ,  4-C ) :   1.5789 B(  3-C ,  5-H ) :   0.9945 B(  4-C , 20-C ) :   1.0553
B(  6-C ,  7-H ) :   0.9385 B(  6-C ,  8-H ) :   0.9350 B(  6-C ,  9-C ) :   1.0531
B(  9-C , 10-H ) :   0.9650 B(  9-C , 11-H ) :   0.9555 B(  9-C , 12-C ) :   1.0659
B( 12-C , 13-H ) :   0.9786 B( 12-C , 14-H ) :   0.9782 B( 12-C , 15-H ) :   0.9792
B( 16-S , 17-C ) :   1.1478 B( 16-S , 20-C ) :   1.1221 B( 17-C , 18-C ) :   1.6482
B( 17-C , 33-H ) :   0.9622 B( 18-C , 19-C ) :   1.1941 B( 18-C , 21-H ) :   0.9835
B( 19-C , 20-C ) :   1.6220 B( 19-C , 22-C ) :   1.0545 B( 22-C , 23-H ) :   0.9223
B( 22-C , 24-H ) :   0.9313 B( 22-C , 25-C ) :   1.0655 B( 25-C , 26-H ) :   0.9506
B( 25-C , 27-H ) :   0.9513 B( 25-C , 28-C ) :   1.0790 B( 28-C , 29-H ) :   0.9721
B( 28-C , 30-H ) :   0.9717 B( 28-C , 31-H ) :   0.9716

Dispersion correction           -0.013476448
FINAL SINGLE POINT ENERGY     -1339.859467165232

DIPOLE MOMENT
-------------
                                X             Y             Z
Electronic contribution:    -15.43991     -21.60551      -6.75289
Nuclear contribution   :     15.77515      21.95373       6.71460
                        -----------------------------------------
Total Dipole Moment    :      0.33524       0.34823      -0.03829
                        -----------------------------------------
Magnitude (a.u.)       :      0.48488
Magnitude (Debye)      :      1.23248

Rotational constants in cm-1:     0.018975     0.007568     0.005939
Rotational constants in MHz :   568.855502   226.868764   178.038580

                             ****ORCA TERMINATED NORMALLY****
TOTAL RUN TIME: 0 days 0 hours 0 minutes 20 seconds 956 msec
