                         Program Version 4.2.1 -  RELEASE  -
|  1> ! wB97X-D3 SP def2-SVP
|  2> %pal
|  3> nprocs 24
|  4> end
|  5>
|  6> * xyz 0 1
|  7> S 	 38.3156 	 -4.97672 	 -116.991
|  8> C 	 38.8516 	 -6.52342 	 -116.398
|  9> C 	 37.7572 	 -7.36374 	 -116.156
| 10> C 	 36.5269 	 -6.75015 	 -116.503
| 11> C 	 36.6233 	 -5.47375 	 -116.878
| 12> H 	 35.5592 	 -7.15946 	 -116.428
| 13> C 	 37.786 	 -8.79062 	 -115.47
| 14> H 	 38.4064 	 -8.54434 	 -114.615
| 15> H 	 38.2618 	 -9.49518 	 -116.159
| 16> C 	 36.503 	 -9.32551 	 -114.869
| 17> H 	 36.0512 	 -8.4425 	 -114.408
| 18> H 	 35.7648 	 -9.71317 	 -115.548
| 19> C 	 36.6919 	 -10.3687 	 -113.721
| 20> H 	 37.264 	 -9.91894 	 -112.83
| 21> H 	 35.728 	 -10.7446 	 -113.364
| 22> H 	 37.1998 	 -11.3396 	 -114.062
| 23> S 	 35.54 	 -3.23014 	 -115.714
| 24> C 	 34.2865 	 -2.38888 	 -116.578
| 25> C 	 33.6567 	 -3.15719 	 -117.557
| 26> C 	 34.3956 	 -4.39932 	 -117.699
| 27> C 	 35.5622 	 -4.49573 	 -116.959
| 28> H 	 32.8136 	 -2.82928 	 -118.105
| 29> C 	 34.0718 	 -5.23437 	 -118.849
| 30> H 	 34.869 	 -5.94531 	 -119.097
| 31> H 	 33.9013 	 -4.55691 	 -119.719
| 32> C 	 32.7503 	 -5.98042 	 -118.733
| 33> H 	 32.4189 	 -6.30999 	 -119.699
| 34> H 	 31.9438 	 -5.26777 	 -118.371
| 35> C 	 32.8519 	 -7.2558 	 -117.821
| 36> H 	 31.8145 	 -7.71113 	 -117.7
| 37> H 	 33.2189 	 -6.94493 	 -116.903
| 38> H 	 33.4167 	 -8.11295 	 -118.276
| 39> H 	 39.8939 	 -6.75201 	 -116.156
| 40> H 	 33.8055 	 -1.46826 	 -116.152
| 41> *
| 42>
| 43>                          ****END OF INPUT****

CARTESIAN COORDINATES (ANGSTROEM)
---------------------------------
  S     38.315600   -4.976720  -116.991000
  C     38.851600   -6.523420  -116.398000
  C     37.757200   -7.363740  -116.156000
  C     36.526900   -6.750150  -116.503000
  C     36.623300   -5.473750  -116.878000
  H     35.559200   -7.159460  -116.428000
  C     37.786000   -8.790620  -115.470000
  H     38.406400   -8.544340  -114.615000
  H     38.261800   -9.495180  -116.159000
  C     36.503000   -9.325510  -114.869000
  H     36.051200   -8.442500  -114.408000
  H     35.764800   -9.713170  -115.548000
  C     36.691900  -10.368700  -113.721000
  H     37.264000   -9.918940  -112.830000
  H     35.728000  -10.744600  -113.364000
  H     37.199800  -11.339600  -114.062000
  S     35.540000   -3.230140  -115.714000
  C     34.286500   -2.388880  -116.578000
  C     33.656700   -3.157190  -117.557000
  C     34.395600   -4.399320  -117.699000
  C     35.562200   -4.495730  -116.959000
  H     32.813600   -2.829280  -118.105000
  C     34.071800   -5.234370  -118.849000
  H     34.869000   -5.945310  -119.097000
  H     33.901300   -4.556910  -119.719000
  C     32.750300   -5.980420  -118.733000
  H     32.418900   -6.309990  -119.699000
  H     31.943800   -5.267770  -118.371000
  C     32.851900   -7.255800  -117.821000
  H     31.814500   -7.711130  -117.700000
  H     33.218900   -6.944930  -116.903000
  H     33.416700   -8.112950  -118.276000
  H     39.893900   -6.752010  -116.156000
  H     33.805500   -1.468260  -116.152000

 Total Charge           Charge          ....    0
 Multiplicity           Mult            ....    1
 Number of Electrons    NEL             ....  134
 Basis Dimension        Dim             ....  322

ORBITAL ENERGIES
----------------

  NO   OCC          E(Eh)            E(eV)
   0   2.0000     -88.964965     -2420.8598
   1   2.0000     -88.962338     -2420.7883
   2   2.0000     -10.325436      -280.9694
   3   2.0000     -10.322912      -280.9007
   4   2.0000     -10.321146      -280.8527
   5   2.0000     -10.317869      -280.7635
   6   2.0000     -10.305999      -280.4405
   7   2.0000     -10.301009      -280.3047
   8   2.0000     -10.296325      -280.1772
   9   2.0000     -10.295582      -280.1570
  10   2.0000     -10.294179      -280.1189
  11   2.0000     -10.289383      -279.9883
  12   2.0000     -10.289357      -279.9876
  13   2.0000     -10.285277      -279.8766
  14   2.0000     -10.284656      -279.8597
  15   2.0000     -10.281633      -279.7775
  16   2.0000      -8.079663      -219.8588
  17   2.0000      -8.077191      -219.7915
  18   2.0000      -6.038162      -164.3067
  19   2.0000      -6.035676      -164.2391
  20   2.0000      -6.034157      -164.1978
  21   2.0000      -6.031815      -164.1340
  22   2.0000      -6.030445      -164.0967
  23   2.0000      -6.027827      -164.0255
  24   2.0000      -1.008328       -27.4380
  25   2.0000      -0.984132       -26.7796
  26   2.0000      -0.912096       -24.8194
  27   2.0000      -0.907679       -24.6992
  28   2.0000      -0.871155       -23.7053
  29   2.0000      -0.847596       -23.0643
  30   2.0000      -0.843794       -22.9608
  31   2.0000      -0.814719       -22.1696
  32   2.0000      -0.779923       -21.2228
  33   2.0000      -0.769129       -20.9291
  34   2.0000      -0.710254       -19.3270
  35   2.0000      -0.693937       -18.8830
  36   2.0000      -0.686580       -18.6828
  37   2.0000      -0.659868       -17.9559
  38   2.0000      -0.646633       -17.5958
  39   2.0000      -0.621403       -16.9092
  40   2.0000      -0.595834       -16.2135
  41   2.0000      -0.576347       -15.6832
  42   2.0000      -0.567181       -15.4338
  43   2.0000      -0.555530       -15.1167
  44   2.0000      -0.538505       -14.6535
  45   2.0000      -0.518359       -14.1053
  46   2.0000      -0.514106       -13.9895
  47   2.0000      -0.507948       -13.8220
  48   2.0000      -0.500314       -13.6142
  49   2.0000      -0.496256       -13.5038
  50   2.0000      -0.488761       -13.2999
  51   2.0000      -0.478143       -13.0109
  52   2.0000      -0.472160       -12.8481
  53   2.0000      -0.465140       -12.6571
  54   2.0000      -0.459168       -12.4946
  55   2.0000      -0.452020       -12.3001
  56   2.0000      -0.449790       -12.2394
  57   2.0000      -0.433919       -11.8075
  58   2.0000      -0.425269       -11.5722
  59   2.0000      -0.423769       -11.5314
  60   2.0000      -0.421578       -11.4717
  61   2.0000      -0.415809       -11.3147
  62   2.0000      -0.410805       -11.1786
  63   2.0000      -0.346183        -9.4201
  64   2.0000      -0.328602        -8.9417
  65   2.0000      -0.323261        -8.7964
  66   2.0000      -0.297380        -8.0921
  67   0.0000       0.031128         0.8470
  68   0.0000       0.064027         1.7423
  69   0.0000       0.103765         2.8236
  70   0.0000       0.126817         3.4509
  71   0.0000       0.129846         3.5333

MULLIKEN ATOMIC CHARGES
-----------------------
   0 S :    0.114923
   1 C :   -0.135002
   2 C :   -0.109492
   3 C :    0.066776
   4 C :   -0.167074
   5 H :   -0.023707
   6 C :    0.087376
   7 H :    0.029779
   8 H :    0.048195
   9 C :   -0.093026
  10 H :    0.031847
  11 H :    0.034741
  12 C :   -0.088029
  13 H :    0.050247
  14 H :    0.034432
  15 H :    0.041680
  16 S :    0.105362
  17 C :   -0.100582
  18 C :   -0.025418
  19 C :   -0.005547
  20 C :   -0.153320
  21 H :    0.014933
  22 C :    0.034272
  23 H :    0.028149
  24 H :    0.036793
  25 C :   -0.089175
  26 H :    0.020378
  27 H :    0.032040
  28 C :   -0.071489
  29 H :    0.037886
  30 H :    0.039798
  31 H :    0.042761
  32 H :    0.056268
  33 H :    0.073226
Sum of atomic charges:    0.0000000

LOEWDIN ATOMIC CHARGES
----------------------
   0 S :    0.405254
   1 C :   -0.202189
   2 C :   -0.061085
   3 C :   -0.058778
   4 C :   -0.193864
   5 H :    0.025326
   6 C :   -0.029761
   7 H :    0.035983
   8 H :    0.032313
   9 C :   -0.049877
  10 H :    0.028716
  11 H :    0.021251
  12 C :   -0.074089
  13 H :    0.033353
  14 H :    0.025547
  15 H :    0.030385
  16 S :    0.394931
  17 C :   -0.186518
  18 C :   -0.064667
  19 C :   -0.057170
  20 C :   -0.191869
  21 H :    0.027489
  22 C :   -0.039527
  23 H :    0.030403
  24 H :    0.038870
  25 C :   -0.038859
  26 H :    0.017569
  27 H :    0.027418
  28 C :   -0.068824
  29 H :    0.033601
  30 H :    0.009948
  31 H :    0.030766
  32 H :    0.032200
  33 H :    0.035753

  Mayer bond orders larger than 0.100000
B(  0-S ,  1-C ) :   1.1468 B(  0-S ,  4-C ) :   1.1429 B(  1-C ,  2-C ) :   1.6157
B(  1-C , 32-H ) :   0.9718 B(  2-C ,  3-C ) :   1.2446 B(  2-C ,  6-C ) :   0.9799
B(  3-C ,  4-C ) :   1.5898 B(  3-C ,  5-H ) :   0.9995 B(  4-C , 20-C ) :   1.0302
B(  6-C ,  7-H ) :   0.9452 B(  6-C ,  8-H ) :   0.9385 B(  6-C ,  9-C ) :   1.0838
B(  9-C , 10-H ) :   0.9494 B(  9-C , 11-H ) :   0.9496 B(  9-C , 12-C ) :   1.0847
B( 12-C , 13-H ) :   0.9732 B( 12-C , 14-H ) :   0.9735 B( 12-C , 15-H ) :   0.9750
B( 16-S , 17-C ) :   1.1617 B( 16-S , 20-C ) :   1.1223 B( 17-C , 18-C ) :   1.6191
B( 17-C , 33-H ) :   0.9573 B( 18-C , 19-C ) :   1.2003 B( 18-C , 21-H ) :   0.9978
B( 19-C , 20-C ) :   1.6022 B( 19-C , 22-C ) :   1.0716 B( 22-C , 23-H ) :   0.9388
B( 22-C , 24-H ) :   0.9382 B( 22-C , 25-C ) :   1.0611 B( 25-C , 26-H ) :   0.9553
B( 25-C , 27-H ) :   0.9580 B( 25-C , 28-C ) :   1.0709 B( 28-C , 29-H ) :   0.9715
B( 28-C , 30-H ) :   0.9723 B( 28-C , 31-H ) :   0.9750

Dispersion correction           -0.014602772
FINAL SINGLE POINT ENERGY     -1339.867081771670

DIPOLE MOMENT
-------------
                                X             Y             Z
Electronic contribution:     12.67073      25.22312      -1.40718
Nuclear contribution   :    -13.10134     -25.69423       1.41632
                        -----------------------------------------
Total Dipole Moment    :     -0.43061      -0.47110       0.00914
                        -----------------------------------------
Magnitude (a.u.)       :      0.63832
Magnitude (Debye)      :      1.62247

Rotational constants in cm-1:     0.017503     0.009142     0.007219
Rotational constants in MHz :   524.722914   274.081832   216.407223

                             ****ORCA TERMINATED NORMALLY****
TOTAL RUN TIME: 0 days 0 hours 0 minutes 20 seconds 887 msec
