                         Program Version 4.2.1 -  RELEASE  -
|  1> ! wB97X-D3 SP def2-SVP
|  2> %pal
|  3> nprocs 24
|  4> end
|  5>
|  6> * xyz 0 1
|  7> S 	 -121.568 	 34.3698 	 -110.64
|  8> C 	 -119.821 	 34.5226 	 -110.681
|  9> C 	 -119.201 	 33.2558 	 -110.731
| 10> C 	 -120.109 	 32.2253 	 -110.862
| 11> C 	 -121.421 	 32.645 	 -110.868
| 12> H 	 -119.935 	 31.1645 	 -110.905
| 13> C 	 -117.705 	 33.0028 	 -110.659
| 14> H 	 -117.411 	 31.9749 	 -110.603
| 15> H 	 -117.418 	 33.4377 	 -109.749
| 16> C 	 -116.855 	 33.8231 	 -111.697
| 17> H 	 -117.095 	 34.8683 	 -111.643
| 18> H 	 -115.872 	 33.7447 	 -111.492
| 19> C 	 -117.058 	 33.3199 	 -113.142
| 20> H 	 -116.932 	 32.226 	 -113.258
| 21> H 	 -118.028 	 33.5783 	 -113.654
| 22> H 	 -116.214 	 33.692 	 -113.631
| 23> S 	 -123.994 	 31.9204 	 -109.841
| 24> C 	 -124.574 	 30.3471 	 -110.3
| 25> C 	 -123.864 	 29.8051 	 -111.336
| 26> C 	 -122.831 	 30.701 	 -111.784
| 27> C 	 -122.657 	 31.8209 	 -110.999
| 28> H 	 -124.131 	 28.8384 	 -111.779
| 29> C 	 -122.068 	 30.3759 	 -113.065
| 30> H 	 -122.002 	 29.2978 	 -113.206
| 31> H 	 -121.042 	 30.7199 	 -112.909
| 32> C 	 -122.467 	 31.1507 	 -114.378
| 33> H 	 -121.705 	 31.0923 	 -115.142
| 34> H 	 -122.566 	 32.2074 	 -114.105
| 35> C 	 -123.782 	 30.638 	 -114.919
| 36> H 	 -124.618 	 30.9183 	 -114.193
| 37> H 	 -123.69 	 29.5895 	 -115.134
| 38> H 	 -123.974 	 31.1404 	 -115.907
| 39> H 	 -119.282 	 35.4172 	 -110.467
| 40> H 	 -125.444 	 29.9938 	 -109.882
| 41> *
| 42>
| 43>                          ****END OF INPUT****

CARTESIAN COORDINATES (ANGSTROEM)
---------------------------------
  S    -121.568000   34.369800  -110.640000
  C    -119.821000   34.522600  -110.681000
  C    -119.201000   33.255800  -110.731000
  C    -120.109000   32.225300  -110.862000
  C    -121.421000   32.645000  -110.868000
  H    -119.935000   31.164500  -110.905000
  C    -117.705000   33.002800  -110.659000
  H    -117.411000   31.974900  -110.603000
  H    -117.418000   33.437700  -109.749000
  C    -116.855000   33.823100  -111.697000
  H    -117.095000   34.868300  -111.643000
  H    -115.872000   33.744700  -111.492000
  C    -117.058000   33.319900  -113.142000
  H    -116.932000   32.226000  -113.258000
  H    -118.028000   33.578300  -113.654000
  H    -116.214000   33.692000  -113.631000
  S    -123.994000   31.920400  -109.841000
  C    -124.574000   30.347100  -110.300000
  C    -123.864000   29.805100  -111.336000
  C    -122.831000   30.701000  -111.784000
  C    -122.657000   31.820900  -110.999000
  H    -124.131000   28.838400  -111.779000
  C    -122.068000   30.375900  -113.065000
  H    -122.002000   29.297800  -113.206000
  H    -121.042000   30.719900  -112.909000
  C    -122.467000   31.150700  -114.378000
  H    -121.705000   31.092300  -115.142000
  H    -122.566000   32.207400  -114.105000
  C    -123.782000   30.638000  -114.919000
  H    -124.618000   30.918300  -114.193000
  H    -123.690000   29.589500  -115.134000
  H    -123.974000   31.140400  -115.907000
  H    -119.282000   35.417200  -110.467000
  H    -125.444000   29.993800  -109.882000

 Total Charge           Charge          ....    0
 Multiplicity           Mult            ....    1
 Number of Electrons    NEL             ....  134
 Basis Dimension        Dim             ....  322

ORBITAL ENERGIES
----------------

  NO   OCC          E(Eh)            E(eV)
   0   2.0000     -88.968750     -2420.9628
   1   2.0000     -88.963348     -2420.8158
   2   2.0000     -10.330135      -281.0973
   3   2.0000     -10.327486      -281.0252
   4   2.0000     -10.313218      -280.6369
   5   2.0000     -10.312630      -280.6209
   6   2.0000     -10.303214      -280.3647
   7   2.0000     -10.300783      -280.2986
   8   2.0000     -10.295725      -280.1609
   9   2.0000     -10.288602      -279.9671
  10   2.0000     -10.288518      -279.9648
  11   2.0000     -10.286323      -279.9051
  12   2.0000     -10.282921      -279.8125
  13   2.0000     -10.280733      -279.7530
  14   2.0000     -10.276817      -279.6464
  15   2.0000     -10.273614      -279.5593
  16   2.0000      -8.083272      -219.9570
  17   2.0000      -8.078383      -219.8240
  18   2.0000      -6.041626      -164.4010
  19   2.0000      -6.037819      -164.2974
  20   2.0000      -6.036906      -164.2726
  21   2.0000      -6.034234      -164.1999
  22   2.0000      -6.032828      -164.1616
  23   2.0000      -6.029144      -164.0613
  24   2.0000      -1.006316       -27.3832
  25   2.0000      -0.986140       -26.8342
  26   2.0000      -0.910229       -24.7686
  27   2.0000      -0.903088       -24.5743
  28   2.0000      -0.864677       -23.5291
  29   2.0000      -0.855055       -23.2672
  30   2.0000      -0.845031       -22.9945
  31   2.0000      -0.815067       -22.1791
  32   2.0000      -0.783003       -21.3066
  33   2.0000      -0.769982       -20.9523
  34   2.0000      -0.709780       -19.3141
  35   2.0000      -0.702026       -19.1031
  36   2.0000      -0.686051       -18.6684
  37   2.0000      -0.663044       -18.0423
  38   2.0000      -0.643699       -17.5159
  39   2.0000      -0.615574       -16.7506
  40   2.0000      -0.593387       -16.1469
  41   2.0000      -0.577985       -15.7278
  42   2.0000      -0.553480       -15.0609
  43   2.0000      -0.550587       -14.9822
  44   2.0000      -0.545425       -14.8418
  45   2.0000      -0.537023       -14.6131
  46   2.0000      -0.513729       -13.9793
  47   2.0000      -0.511288       -13.9129
  48   2.0000      -0.502645       -13.6777
  49   2.0000      -0.489735       -13.3264
  50   2.0000      -0.486683       -13.2433
  51   2.0000      -0.482385       -13.1264
  52   2.0000      -0.474704       -12.9173
  53   2.0000      -0.465304       -12.6616
  54   2.0000      -0.461637       -12.5618
  55   2.0000      -0.445949       -12.1349
  56   2.0000      -0.438429       -11.9302
  57   2.0000      -0.435059       -11.8386
  58   2.0000      -0.431069       -11.7300
  59   2.0000      -0.427026       -11.6200
  60   2.0000      -0.420963       -11.4550
  61   2.0000      -0.416473       -11.3328
  62   2.0000      -0.414269       -11.2728
  63   2.0000      -0.347069        -9.4442
  64   2.0000      -0.335635        -9.1331
  65   2.0000      -0.327373        -8.9083
  66   2.0000      -0.286564        -7.7978
  67   0.0000       0.024215         0.6589
  68   0.0000       0.068943         1.8760
  69   0.0000       0.107280         2.9192
  70   0.0000       0.123283         3.3547
  71   0.0000       0.132780         3.6131

MULLIKEN ATOMIC CHARGES
-----------------------
   0 S :    0.113948
   1 C :   -0.118179
   2 C :   -0.080196
   3 C :    0.029485
   4 C :   -0.173313
   5 H :    0.015556
   6 C :    0.103126
   7 H :    0.016435
   8 H :    0.014225
   9 C :   -0.035598
  10 H :    0.022654
  11 H :    0.000679
  12 C :   -0.059596
  13 H :    0.020684
  14 H :    0.057415
  15 H :    0.016394
  16 S :    0.091590
  17 C :   -0.067101
  18 C :   -0.013924
  19 C :   -0.089745
  20 C :   -0.103800
  21 H :    0.027970
  22 C :    0.062672
  23 H :    0.019437
  24 H :    0.010846
  25 C :   -0.059332
  26 H :    0.027836
  27 H :    0.034992
  28 C :   -0.068331
  29 H :    0.056104
  30 H :    0.023315
  31 H :    0.034295
  32 H :    0.038754
  33 H :    0.030702
Sum of atomic charges:    0.0000000

LOEWDIN ATOMIC CHARGES
----------------------
   0 S :    0.413953
   1 C :   -0.202351
   2 C :   -0.054531
   3 C :   -0.065540
   4 C :   -0.184962
   5 H :    0.034140
   6 C :   -0.022091
   7 H :    0.026172
   8 H :    0.027570
   9 C :   -0.020932
  10 H :    0.023088
  11 H :    0.008801
  12 C :   -0.069314
  13 H :    0.024523
  14 H :    0.034260
  15 H :    0.017603
  16 S :    0.393607
  17 C :   -0.164575
  18 C :   -0.071551
  19 C :   -0.057035
  20 C :   -0.201536
  21 H :    0.036945
  22 C :   -0.034810
  23 H :    0.024525
  24 H :    0.029283
  25 C :   -0.035275
  26 H :    0.021440
  27 H :    0.028075
  28 C :   -0.073621
  29 H :    0.036624
  30 H :    0.017711
  31 H :    0.028567
  32 H :    0.019915
  33 H :    0.011325

  Mayer bond orders larger than 0.100000
B(  0-S ,  1-C ) :   1.1494 B(  0-S ,  4-C ) :   1.1726 B(  1-C ,  2-C ) :   1.5689
B(  1-C ,  4-C ) :   0.1147 B(  1-C , 32-H ) :   0.9707 B(  2-C ,  3-C ) :   1.2782
B(  2-C ,  6-C ) :   1.0131 B(  3-C ,  4-C ) :   1.5562 B(  3-C ,  5-H ) :   0.9933
B(  4-C , 20-C ) :   1.0059 B(  6-C ,  7-H ) :   0.9516 B(  6-C ,  8-H ) :   0.9249
B(  6-C ,  9-C ) :   1.0878 B(  9-C , 10-H ) :   0.9533 B(  9-C , 11-H ) :   0.9553
B(  9-C , 12-C ) :   1.0730 B( 12-C , 13-H ) :   0.9751 B( 12-C , 14-H ) :   0.9767
B( 12-C , 15-H ) :   0.9754 B( 16-S , 17-C ) :   1.1678 B( 16-S , 20-C ) :   1.1173
B( 17-C , 18-C ) :   1.5892 B( 17-C , 33-H ) :   0.9791 B( 18-C , 19-C ) :   1.2373
B( 18-C , 21-H ) :   0.9941 B( 19-C , 20-C ) :   1.6086 B( 19-C , 22-C ) :   1.0440
B( 22-C , 23-H ) :   0.9422 B( 22-C , 24-H ) :   0.9240 B( 22-C , 25-C ) :   1.0640
B( 25-C , 26-H ) :   0.9569 B( 25-C , 27-H ) :   0.9541 B( 25-C , 28-C ) :   1.0860
B( 28-C , 29-H ) :   0.9739 B( 28-C , 30-H ) :   0.9749 B( 28-C , 31-H ) :   0.9723

Dispersion correction           -0.014734310
FINAL SINGLE POINT ENERGY     -1339.871005473961

DIPOLE MOMENT
-------------
                                X             Y             Z
Electronic contribution:    -16.84785       6.17670      19.69890
Nuclear contribution   :     17.37341      -6.53134     -19.91400
                        -----------------------------------------
Total Dipole Moment    :      0.52556      -0.35464      -0.21510
                        -----------------------------------------
Magnitude (a.u.)       :      0.66951
Magnitude (Debye)      :      1.70177

Rotational constants in cm-1:     0.020111     0.008620     0.006943
Rotational constants in MHz :   602.918850   258.417639   208.147712

                             ****ORCA TERMINATED NORMALLY****
TOTAL RUN TIME: 0 days 0 hours 0 minutes 22 seconds 96 msec
