                         Program Version 4.2.1 -  RELEASE  -
|  1> ! wB97X-D3 SP def2-SVP
|  2> %pal
|  3> nprocs 24
|  4> end
|  5>
|  6> * xyz 0 1
|  7> S 	 -116.789 	 57.7808 	 -39.4809
|  8> C 	 -117.063 	 56.235 	 -40.1701
|  9> C 	 -117.302 	 55.2811 	 -39.1927
| 10> C 	 -117.487 	 55.8899 	 -37.8986
| 11> C 	 -117.296 	 57.2491 	 -37.9422
| 12> H 	 -117.77 	 55.5235 	 -36.9158
| 13> C 	 -117.353 	 53.8454 	 -39.4747
| 14> H 	 -116.718 	 53.2824 	 -38.7519
| 15> H 	 -116.903 	 53.6793 	 -40.4337
| 16> C 	 -118.767 	 53.1588 	 -39.2873
| 17> H 	 -118.626 	 52.0305 	 -39.3183
| 18> H 	 -118.997 	 53.3382 	 -38.2167
| 19> C 	 -119.889 	 53.6538 	 -40.196
| 20> H 	 -119.539 	 53.4815 	 -41.2171
| 21> H 	 -120.893 	 53.1205 	 -40.0703
| 22> H 	 -119.924 	 54.7 	 -40.1315
| 23> S 	 -118.894 	 59.1586 	 -36.8903
| 24> C 	 -118.49 	 60.0038 	 -35.4253
| 25> C 	 -117.272 	 59.6098 	 -34.993
| 26> C 	 -116.605 	 58.6766 	 -35.8083
| 27> C 	 -117.497 	 58.1908 	 -36.8274
| 28> H 	 -116.886 	 60.1593 	 -34.1721
| 29> C 	 -115.185 	 58.3465 	 -35.5017
| 30> H 	 -114.874 	 57.7344 	 -36.2938
| 31> H 	 -115.106 	 57.8086 	 -34.5783
| 32> C 	 -114.246 	 59.515 	 -35.4102
| 33> H 	 -114.49 	 59.8936 	 -34.4009
| 34> H 	 -114.509 	 60.1869 	 -36.2308
| 35> C 	 -112.76 	 59.1957 	 -35.5644
| 36> H 	 -112.262 	 60.1133 	 -35.2816
| 37> H 	 -112.423 	 58.6456 	 -36.441
| 38> H 	 -112.283 	 58.6035 	 -34.8032
| 39> H 	 -116.824 	 55.9716 	 -41.176
| 40> H 	 -119.145 	 60.6786 	 -34.8292
| 41> *
| 42>
| 43>                          ****END OF INPUT****

CARTESIAN COORDINATES (ANGSTROEM)
---------------------------------
  S    -116.789000   57.780800  -39.480900
  C    -117.063000   56.235000  -40.170100
  C    -117.302000   55.281100  -39.192700
  C    -117.487000   55.889900  -37.898600
  C    -117.296000   57.249100  -37.942200
  H    -117.770000   55.523500  -36.915800
  C    -117.353000   53.845400  -39.474700
  H    -116.718000   53.282400  -38.751900
  H    -116.903000   53.679300  -40.433700
  C    -118.767000   53.158800  -39.287300
  H    -118.626000   52.030500  -39.318300
  H    -118.997000   53.338200  -38.216700
  C    -119.889000   53.653800  -40.196000
  H    -119.539000   53.481500  -41.217100
  H    -120.893000   53.120500  -40.070300
  H    -119.924000   54.700000  -40.131500
  S    -118.894000   59.158600  -36.890300
  C    -118.490000   60.003800  -35.425300
  C    -117.272000   59.609800  -34.993000
  C    -116.605000   58.676600  -35.808300
  C    -117.497000   58.190800  -36.827400
  H    -116.886000   60.159300  -34.172100
  C    -115.185000   58.346500  -35.501700
  H    -114.874000   57.734400  -36.293800
  H    -115.106000   57.808600  -34.578300
  C    -114.246000   59.515000  -35.410200
  H    -114.490000   59.893600  -34.400900
  H    -114.509000   60.186900  -36.230800
  C    -112.760000   59.195700  -35.564400
  H    -112.262000   60.113300  -35.281600
  H    -112.423000   58.645600  -36.441000
  H    -112.283000   58.603500  -34.803200
  H    -116.824000   55.971600  -41.176000
  H    -119.145000   60.678600  -34.829200

 Total Charge           Charge          ....    0
 Multiplicity           Mult            ....    1
 Number of Electrons    NEL             ....  134
 Basis Dimension        Dim             ....  322

ORBITAL ENERGIES
----------------

  NO   OCC          E(Eh)            E(eV)
   0   2.0000     -88.964299     -2420.8417
   1   2.0000     -88.964142     -2420.8374
   2   2.0000     -10.326323      -280.9935
   3   2.0000     -10.322985      -280.9027
   4   2.0000     -10.313009      -280.6312
   5   2.0000     -10.308984      -280.5217
   6   2.0000     -10.302806      -280.3536
   7   2.0000     -10.300702      -280.2964
   8   2.0000     -10.293424      -280.0983
   9   2.0000     -10.293199      -280.0922
  10   2.0000     -10.290973      -280.0316
  11   2.0000     -10.286506      -279.9101
  12   2.0000     -10.281594      -279.7764
  13   2.0000     -10.276002      -279.6242
  14   2.0000     -10.275516      -279.6110
  15   2.0000     -10.275470      -279.6098
  16   2.0000      -8.080540      -219.8827
  17   2.0000      -8.079876      -219.8646
  18   2.0000      -6.038873      -164.3261
  19   2.0000      -6.038218      -164.3083
  20   2.0000      -6.034807      -164.2155
  21   2.0000      -6.034102      -164.1963
  22   2.0000      -6.031435      -164.1237
  23   2.0000      -6.030883      -164.1087
  24   2.0000      -1.014287       -27.6001
  25   2.0000      -0.992840       -27.0165
  26   2.0000      -0.918644       -24.9976
  27   2.0000      -0.910701       -24.7814
  28   2.0000      -0.870614       -23.6906
  29   2.0000      -0.850899       -23.1541
  30   2.0000      -0.847340       -23.0573
  31   2.0000      -0.821017       -22.3410
  32   2.0000      -0.785636       -21.3782
  33   2.0000      -0.772888       -21.0313
  34   2.0000      -0.709106       -19.2958
  35   2.0000      -0.698242       -19.0001
  36   2.0000      -0.689458       -18.7611
  37   2.0000      -0.652371       -17.7519
  38   2.0000      -0.647431       -17.6175
  39   2.0000      -0.618918       -16.8416
  40   2.0000      -0.597277       -16.2527
  41   2.0000      -0.580775       -15.8037
  42   2.0000      -0.568922       -15.4812
  43   2.0000      -0.544308       -14.8114
  44   2.0000      -0.537795       -14.6341
  45   2.0000      -0.530170       -14.4267
  46   2.0000      -0.517278       -14.0758
  47   2.0000      -0.513709       -13.9787
  48   2.0000      -0.506595       -13.7851
  49   2.0000      -0.499406       -13.5895
  50   2.0000      -0.489668       -13.3245
  51   2.0000      -0.481862       -13.1121
  52   2.0000      -0.472167       -12.8483
  53   2.0000      -0.470055       -12.7909
  54   2.0000      -0.460499       -12.5308
  55   2.0000      -0.445809       -12.1311
  56   2.0000      -0.445049       -12.1104
  57   2.0000      -0.434349       -11.8192
  58   2.0000      -0.425138       -11.5686
  59   2.0000      -0.421847       -11.4790
  60   2.0000      -0.419356       -11.4112
  61   2.0000      -0.415433       -11.3045
  62   2.0000      -0.413546       -11.2532
  63   2.0000      -0.340163        -9.2563
  64   2.0000      -0.328104        -8.9282
  65   2.0000      -0.319508        -8.6943
  66   2.0000      -0.306812        -8.3488
  67   0.0000       0.048156         1.3104
  68   0.0000       0.056262         1.5310
  69   0.0000       0.111089         3.0229
  70   0.0000       0.126511         3.4425
  71   0.0000       0.133531         3.6336

MULLIKEN ATOMIC CHARGES
-----------------------
   0 S :    0.132784
   1 C :   -0.107621
   2 C :   -0.086380
   3 C :    0.051546
   4 C :   -0.189999
   5 H :    0.012933
   6 C :    0.066414
   7 H :    0.036171
   8 H :    0.009382
   9 C :   -0.115157
  10 H :    0.036634
  11 H :    0.028200
  12 C :   -0.024921
  13 H :    0.016249
  14 H :    0.055977
  15 H :    0.031287
  16 S :    0.124678
  17 C :   -0.107896
  18 C :   -0.028377
  19 C :   -0.038802
  20 C :   -0.192738
  21 H :    0.005411
  22 C :    0.140840
  23 H :   -0.005931
  24 H :    0.025875
  25 C :   -0.110415
  26 H :    0.033081
  27 H :    0.041924
  28 C :   -0.020789
  29 H :    0.027392
  30 H :    0.043064
  31 H :    0.004288
  32 H :    0.037785
  33 H :    0.067111
Sum of atomic charges:   -0.0000000

LOEWDIN ATOMIC CHARGES
----------------------
   0 S :    0.437188
   1 C :   -0.206640
   2 C :   -0.064388
   3 C :   -0.058933
   4 C :   -0.217012
   5 H :    0.035813
   6 C :   -0.034974
   7 H :    0.040844
   8 H :    0.022670
   9 C :   -0.045097
  10 H :    0.026832
  11 H :    0.021202
  12 C :   -0.069847
  13 H :    0.024131
  14 H :    0.039086
  15 H :    0.020157
  16 S :    0.441260
  17 C :   -0.197014
  18 C :   -0.076153
  19 C :   -0.050112
  20 C :   -0.226346
  21 H :    0.026127
  22 C :   -0.033307
  23 H :    0.019415
  24 H :    0.030754
  25 C :   -0.037314
  26 H :    0.027493
  27 H :    0.029917
  28 C :   -0.074407
  29 H :    0.033197
  30 H :    0.030515
  31 H :    0.022691
  32 H :    0.022271
  33 H :    0.039977

  Mayer bond orders larger than 0.100000
B(  0-S ,  1-C ) :   1.1485 B(  0-S ,  4-C ) :   1.1732 B(  1-C ,  2-C ) :   1.5955
B(  1-C , 32-H ) :   0.9697 B(  2-C ,  3-C ) :   1.2012 B(  2-C ,  6-C ) :   1.0537
B(  3-C ,  4-C ) :   1.6038 B(  3-C ,  5-H ) :   0.9946 B(  4-C , 20-C ) :   0.9949
B(  6-C ,  7-H ) :   0.9340 B(  6-C ,  8-H ) :   0.9394 B(  6-C ,  9-C ) :   1.0557
B(  9-C , 10-H ) :   0.9584 B(  9-C , 11-H ) :   0.9580 B(  9-C , 12-C ) :   1.0647
B( 12-C , 13-H ) :   0.9724 B( 12-C , 14-H ) :   0.9733 B( 12-C , 15-H ) :   0.9737
B( 16-S , 17-C ) :   1.1636 B( 16-S , 20-C ) :   1.1883 B( 17-C , 18-C ) :   1.6079
B( 17-C , 20-C ) :   0.1050 B( 17-C , 33-H ) :   0.9598 B( 18-C , 19-C ) :   1.2578
B( 18-C , 21-H ) :   0.9915 B( 19-C , 20-C ) :   1.5338 B( 19-C , 22-C ) :   1.0611
B( 22-C , 23-H ) :   0.9186 B( 22-C , 24-H ) :   0.9286 B( 22-C , 25-C ) :   1.0650
B( 25-C , 26-H ) :   0.9494 B( 25-C , 27-H ) :   0.9589 B( 25-C , 28-C ) :   1.0959
B( 28-C , 29-H ) :   0.9678 B( 28-C , 30-H ) :   0.9729 B( 28-C , 31-H ) :   0.9649

Dispersion correction           -0.013957490
FINAL SINGLE POINT ENERGY     -1339.864577798136

DIPOLE MOMENT
-------------
                                X             Y             Z
Electronic contribution:     -9.48524      13.02058      -3.12497
Nuclear contribution   :      9.85257     -13.24087       3.45081
                        -----------------------------------------
Total Dipole Moment    :      0.36734      -0.22029       0.32584
                        -----------------------------------------
Magnitude (a.u.)       :      0.53818
Magnitude (Debye)      :      1.36794

Rotational constants in cm-1:     0.021591     0.007587     0.006530
Rotational constants in MHz :   647.282711   227.452543   195.772340

                             ****ORCA TERMINATED NORMALLY****
TOTAL RUN TIME: 0 days 0 hours 0 minutes 21 seconds 198 msec
