                         Program Version 4.2.1 -  RELEASE  -
|  1> ! wB97X-D3 SP def2-SVP
|  2> %pal
|  3> nprocs 24
|  4> end
|  5>
|  6> * xyz 0 1
|  7> S 	 -84.8638 	 -1.544 	 -67.5859
|  8> C 	 -85.043 	 0.19465 	 -67.8623
|  9> C 	 -86.055 	 0.724965 	 -67.0884
| 10> C 	 -86.6187 	 -0.263762 	 -66.1999
| 11> C 	 -86.0943 	 -1.55773 	 -66.2971
| 12> H 	 -87.4107 	 -0.161624 	 -65.4018
| 13> C 	 -86.5189 	 2.16966 	 -67.1809
| 14> H 	 -87.6124 	 2.19133 	 -67.2078
| 15> H 	 -86.2135 	 2.53573 	 -68.1344
| 16> C 	 -86.0633 	 3.10127 	 -66.1046
| 17> H 	 -86.6564 	 4.05352 	 -66.0927
| 18> H 	 -86.4319 	 2.60057 	 -65.1953
| 19> C 	 -84.5199 	 3.46709 	 -66.0636
| 20> H 	 -84.2392 	 4.17209 	 -65.2349
| 21> H 	 -83.8876 	 2.5949 	 -65.9588
| 22> H 	 -84.1371 	 3.95832 	 -66.9974
| 23> S 	 -84.8842 	 -3.18358 	 -64.4253
| 24> C 	 -85.7036 	 -4.38729 	 -63.5024
| 25> C 	 -86.9918 	 -4.36917 	 -63.9338
| 26> C 	 -87.289 	 -3.4642 	 -64.9776
| 27> C 	 -86.2327 	 -2.72625 	 -65.4031
| 28> H 	 -87.6654 	 -5.1191 	 -63.5703
| 29> C 	 -88.7416 	 -3.3377 	 -65.5337
| 30> H 	 -89.2328 	 -4.32658 	 -65.3726
| 31> H 	 -88.6749 	 -3.14259 	 -66.5498
| 32> C 	 -89.6162 	 -2.29367 	 -64.8632
| 33> H 	 -90.6687 	 -2.43073 	 -65.2016
| 34> H 	 -89.3742 	 -1.32193 	 -65.2277
| 35> C 	 -89.6472 	 -2.34408 	 -63.3143
| 36> H 	 -88.7344 	 -1.95888 	 -62.7674
| 37> H 	 -89.8999 	 -3.36276 	 -62.9968
| 38> H 	 -90.4334 	 -1.73774 	 -62.9448
| 39> H 	 -84.4159 	 0.761177 	 -68.5356
| 40> H 	 -85.2703 	 -5.10038 	 -62.856
| 41> *
| 42>
| 43>                          ****END OF INPUT****

CARTESIAN COORDINATES (ANGSTROEM)
---------------------------------
  S    -84.863800   -1.544000  -67.585900
  C    -85.043000    0.194650  -67.862300
  C    -86.055000    0.724965  -67.088400
  C    -86.618700   -0.263762  -66.199900
  C    -86.094300   -1.557730  -66.297100
  H    -87.410700   -0.161624  -65.401800
  C    -86.518900    2.169660  -67.180900
  H    -87.612400    2.191330  -67.207800
  H    -86.213500    2.535730  -68.134400
  C    -86.063300    3.101270  -66.104600
  H    -86.656400    4.053520  -66.092700
  H    -86.431900    2.600570  -65.195300
  C    -84.519900    3.467090  -66.063600
  H    -84.239200    4.172090  -65.234900
  H    -83.887600    2.594900  -65.958800
  H    -84.137100    3.958320  -66.997400
  S    -84.884200   -3.183580  -64.425300
  C    -85.703600   -4.387290  -63.502400
  C    -86.991800   -4.369170  -63.933800
  C    -87.289000   -3.464200  -64.977600
  C    -86.232700   -2.726250  -65.403100
  H    -87.665400   -5.119100  -63.570300
  C    -88.741600   -3.337700  -65.533700
  H    -89.232800   -4.326580  -65.372600
  H    -88.674900   -3.142590  -66.549800
  C    -89.616200   -2.293670  -64.863200
  H    -90.668700   -2.430730  -65.201600
  H    -89.374200   -1.321930  -65.227700
  C    -89.647200   -2.344080  -63.314300
  H    -88.734400   -1.958880  -62.767400
  H    -89.899900   -3.362760  -62.996800
  H    -90.433400   -1.737740  -62.944800
  H    -84.415900    0.761177  -68.535600
  H    -85.270300   -5.100380  -62.856000

 Total Charge           Charge          ....    0
 Multiplicity           Mult            ....    1
 Number of Electrons    NEL             ....  134
 Basis Dimension        Dim             ....  322

ORBITAL ENERGIES
----------------

  NO   OCC          E(Eh)            E(eV)
   0   2.0000     -88.965569     -2420.8762
   1   2.0000     -88.959271     -2420.7048
   2   2.0000     -10.338137      -281.3150
   3   2.0000     -10.325847      -280.9806
   4   2.0000     -10.320581      -280.8373
   5   2.0000     -10.313104      -280.6338
   6   2.0000     -10.307783      -280.4890
   7   2.0000     -10.306924      -280.4657
   8   2.0000     -10.299192      -280.2553
   9   2.0000     -10.293800      -280.1085
  10   2.0000     -10.291254      -280.0392
  11   2.0000     -10.287952      -279.9494
  12   2.0000     -10.287146      -279.9275
  13   2.0000     -10.286497      -279.9098
  14   2.0000     -10.286303      -279.9045
  15   2.0000     -10.278265      -279.6858
  16   2.0000      -8.079607      -219.8573
  17   2.0000      -8.075180      -219.7368
  18   2.0000      -6.038160      -164.3067
  19   2.0000      -6.034093      -164.1960
  20   2.0000      -6.033683      -164.1849
  21   2.0000      -6.030464      -164.0973
  22   2.0000      -6.029237      -164.0639
  23   2.0000      -6.026096      -163.9784
  24   2.0000      -1.012252       -27.5448
  25   2.0000      -0.985594       -26.8194
  26   2.0000      -0.912434       -24.8286
  27   2.0000      -0.907139       -24.6845
  28   2.0000      -0.870721       -23.6935
  29   2.0000      -0.843184       -22.9442
  30   2.0000      -0.837410       -22.7871
  31   2.0000      -0.818061       -22.2606
  32   2.0000      -0.785269       -21.3683
  33   2.0000      -0.780376       -21.2351
  34   2.0000      -0.711814       -19.3694
  35   2.0000      -0.697507       -18.9801
  36   2.0000      -0.691847       -18.8261
  37   2.0000      -0.664733       -18.0883
  38   2.0000      -0.645726       -17.5711
  39   2.0000      -0.615182       -16.7400
  40   2.0000      -0.591279       -16.0895
  41   2.0000      -0.572656       -15.5827
  42   2.0000      -0.563107       -15.3229
  43   2.0000      -0.548571       -14.9274
  44   2.0000      -0.545313       -14.8387
  45   2.0000      -0.538680       -14.6582
  46   2.0000      -0.517139       -14.0721
  47   2.0000      -0.511993       -13.9320
  48   2.0000      -0.507349       -13.8057
  49   2.0000      -0.491428       -13.3724
  50   2.0000      -0.485570       -13.2130
  51   2.0000      -0.478863       -13.0305
  52   2.0000      -0.475132       -12.9290
  53   2.0000      -0.468763       -12.7557
  54   2.0000      -0.461968       -12.5708
  55   2.0000      -0.444314       -12.0904
  56   2.0000      -0.441245       -12.0069
  57   2.0000      -0.434441       -11.8218
  58   2.0000      -0.429448       -11.6859
  59   2.0000      -0.428359       -11.6562
  60   2.0000      -0.423066       -11.5122
  61   2.0000      -0.411261       -11.1910
  62   2.0000      -0.402591       -10.9551
  63   2.0000      -0.345578        -9.4037
  64   2.0000      -0.331470        -9.0197
  65   2.0000      -0.326741        -8.8911
  66   2.0000      -0.307678        -8.3724
  67   0.0000       0.031224         0.8497
  68   0.0000       0.067368         1.8332
  69   0.0000       0.111733         3.0404
  70   0.0000       0.127945         3.4816
  71   0.0000       0.132352         3.6015

MULLIKEN ATOMIC CHARGES
-----------------------
   0 S :    0.099500
   1 C :   -0.118496
   2 C :   -0.093666
   3 C :    0.030385
   4 C :   -0.182384
   5 H :    0.037418
   6 C :    0.100731
   7 H :    0.031009
   8 H :    0.002741
   9 C :   -0.070177
  10 H :    0.035869
  11 H :    0.024305
  12 C :   -0.081070
  13 H :    0.045998
  14 H :    0.039221
  15 H :    0.031381
  16 S :    0.098613
  17 C :   -0.069737
  18 C :   -0.037976
  19 C :   -0.062892
  20 C :   -0.137508
  21 H :    0.009624
  22 C :    0.115214
  23 H :    0.021992
  24 H :    0.016575
  25 C :   -0.067701
  26 H :    0.029615
  27 H :    0.007825
  28 C :   -0.053008
  29 H :    0.053035
  30 H :    0.023085
  31 H :    0.020766
  32 H :    0.051578
  33 H :    0.048136
Sum of atomic charges:    0.0000000

LOEWDIN ATOMIC CHARGES
----------------------
   0 S :    0.385877
   1 C :   -0.180028
   2 C :   -0.066154
   3 C :   -0.062554
   4 C :   -0.188696
   5 H :    0.039425
   6 C :   -0.030214
   7 H :    0.037366
   8 H :    0.021921
   9 C :   -0.045430
  10 H :    0.029669
  11 H :    0.025540
  12 C :   -0.076962
  13 H :    0.033579
  14 H :    0.023666
  15 H :    0.027528
  16 S :    0.427743
  17 C :   -0.182073
  18 C :   -0.076006
  19 C :   -0.060493
  20 C :   -0.213269
  21 H :    0.026222
  22 C :   -0.020856
  23 H :    0.032525
  24 H :    0.022680
  25 C :   -0.039374
  26 H :    0.030322
  27 H :    0.011982
  28 C :   -0.069390
  29 H :    0.034256
  30 H :    0.023644
  31 H :    0.020093
  32 H :    0.029183
  33 H :    0.028282

  Mayer bond orders larger than 0.100000
B(  0-S ,  1-C ) :   1.1456 B(  0-S ,  4-C ) :   1.1404 B(  1-C ,  2-C ) :   1.6120
B(  1-C , 32-H ) :   0.9689 B(  2-C ,  3-C ) :   1.2217 B(  2-C ,  6-C ) :   1.0221
B(  3-C ,  4-C ) :   1.6075 B(  3-C ,  5-H ) :   0.9749 B(  4-C , 20-C ) :   1.0017
B(  6-C ,  7-H ) :   0.9360 B(  6-C ,  8-H ) :   0.9382 B(  6-C ,  9-C ) :   1.0777
B(  9-C , 10-H ) :   0.9548 B(  9-C , 11-H ) :   0.9553 B(  9-C , 12-C ) :   1.0593
B( 12-C , 13-H ) :   0.9770 B( 12-C , 14-H ) :   0.9778 B( 12-C , 15-H ) :   0.9760
B( 16-S , 17-C ) :   1.1703 B( 16-S , 20-C ) :   1.1514 B( 17-C , 18-C ) :   1.5759
B( 17-C , 33-H ) :   0.9765 B( 18-C , 19-C ) :   1.2708 B( 18-C , 21-H ) :   0.9921
B( 19-C , 20-C ) :   1.6001 B( 19-C , 22-C ) :   1.0310 B( 22-C , 23-H ) :   0.9371
B( 22-C , 24-H ) :   0.9312 B( 22-C , 25-C ) :   1.0856 B( 25-C , 26-H ) :   0.9518
B( 25-C , 27-H ) :   0.9514 B( 25-C , 28-C ) :   1.0780 B( 28-C , 29-H ) :   0.9711
B( 28-C , 30-H ) :   0.9740 B( 28-C , 31-H ) :   0.9727

Dispersion correction           -0.014964111
FINAL SINGLE POINT ENERGY     -1339.885003078304

DIPOLE MOMENT
-------------
                                X             Y             Z
Electronic contribution:     15.39630     -17.17233      -5.51930
Nuclear contribution   :    -15.91306      17.45648       5.67488
                        -----------------------------------------
Total Dipole Moment    :     -0.51676       0.28415       0.15558
                        -----------------------------------------
Magnitude (a.u.)       :      0.60991
Magnitude (Debye)      :      1.55026

Rotational constants in cm-1:     0.020027     0.008368     0.007131
Rotational constants in MHz :   600.384308   250.853988   213.770797

                             ****ORCA TERMINATED NORMALLY****
TOTAL RUN TIME: 0 days 0 hours 0 minutes 21 seconds 777 msec
