                         Program Version 4.2.1 -  RELEASE  -
|  1> ! wB97X-D3 SP def2-SVP
|  2> %pal
|  3> nprocs 24
|  4> end
|  5>
|  6> * xyz 0 1
|  7> S 	 -60.6008 	 -56.5469 	 -81.1319
|  8> C 	 -59.8955 	 -56.7816 	 -79.6266
|  9> C 	 -59.0559 	 -57.8549 	 -79.6058
| 10> C 	 -59.2581 	 -58.558 	 -80.8634
| 11> C 	 -60.1093 	 -58.0419 	 -81.8044
| 12> H 	 -58.7413 	 -59.4577 	 -81.1324
| 13> C 	 -58.1974 	 -58.3244 	 -78.4466
| 14> H 	 -58.0382 	 -59.3943 	 -78.5996
| 15> H 	 -58.8664 	 -58.3239 	 -77.5817
| 16> C 	 -56.7565 	 -57.7017 	 -78.207
| 17> H 	 -56.3141 	 -57.4267 	 -79.1857
| 18> H 	 -56.9 	 -56.722 	 -77.7283
| 19> C 	 -55.8181 	 -58.7161 	 -77.4617
| 20> H 	 -56.1717 	 -58.8524 	 -76.4121
| 21> H 	 -55.9068 	 -59.6138 	 -77.9841
| 22> H 	 -54.7577 	 -58.395 	 -77.4727
| 23> S 	 -60.6909 	 -60.177 	 -83.4243
| 24> C 	 -61.0944 	 -59.9774 	 -85.0943
| 25> C 	 -60.7929 	 -58.7228 	 -85.4677
| 26> C 	 -60.4545 	 -57.8227 	 -84.349
| 27> C 	 -60.2923 	 -58.5269 	 -83.1728
| 28> H 	 -60.9614 	 -58.4299 	 -86.4967
| 29> C 	 -60.2895 	 -56.308 	 -84.4932
| 30> H 	 -59.455 	 -56.0782 	 -85.0979
| 31> H 	 -59.9451 	 -55.7952 	 -83.6091
| 32> C 	 -61.5347 	 -55.6105 	 -85.0971
| 33> H 	 -62.3994 	 -55.7969 	 -84.4208
| 34> H 	 -61.7238 	 -56.06 	 -86.0953
| 35> C 	 -61.3741 	 -54.1219 	 -85.1303
| 36> H 	 -62.2714 	 -53.6252 	 -85.5764
| 37> H 	 -60.5695 	 -53.8422 	 -85.7184
| 38> H 	 -61.2927 	 -53.6244 	 -84.1792
| 39> H 	 -60.0454 	 -56.1346 	 -78.7949
| 40> H 	 -61.4541 	 -60.7219 	 -85.7695
| 41> *
| 42>
| 43>                          ****END OF INPUT****

CARTESIAN COORDINATES (ANGSTROEM)
---------------------------------
  S    -60.600800  -56.546900  -81.131900
  C    -59.895500  -56.781600  -79.626600
  C    -59.055900  -57.854900  -79.605800
  C    -59.258100  -58.558000  -80.863400
  C    -60.109300  -58.041900  -81.804400
  H    -58.741300  -59.457700  -81.132400
  C    -58.197400  -58.324400  -78.446600
  H    -58.038200  -59.394300  -78.599600
  H    -58.866400  -58.323900  -77.581700
  C    -56.756500  -57.701700  -78.207000
  H    -56.314100  -57.426700  -79.185700
  H    -56.900000  -56.722000  -77.728300
  C    -55.818100  -58.716100  -77.461700
  H    -56.171700  -58.852400  -76.412100
  H    -55.906800  -59.613800  -77.984100
  H    -54.757700  -58.395000  -77.472700
  S    -60.690900  -60.177000  -83.424300
  C    -61.094400  -59.977400  -85.094300
  C    -60.792900  -58.722800  -85.467700
  C    -60.454500  -57.822700  -84.349000
  C    -60.292300  -58.526900  -83.172800
  H    -60.961400  -58.429900  -86.496700
  C    -60.289500  -56.308000  -84.493200
  H    -59.455000  -56.078200  -85.097900
  H    -59.945100  -55.795200  -83.609100
  C    -61.534700  -55.610500  -85.097100
  H    -62.399400  -55.796900  -84.420800
  H    -61.723800  -56.060000  -86.095300
  C    -61.374100  -54.121900  -85.130300
  H    -62.271400  -53.625200  -85.576400
  H    -60.569500  -53.842200  -85.718400
  H    -61.292700  -53.624400  -84.179200
  H    -60.045400  -56.134600  -78.794900
  H    -61.454100  -60.721900  -85.769500

 Total Charge           Charge          ....    0
 Multiplicity           Mult            ....    1
 Number of Electrons    NEL             ....  134
 Basis Dimension        Dim             ....  322

ORBITAL ENERGIES
----------------

  NO   OCC          E(Eh)            E(eV)
   0   2.0000     -88.962742     -2420.7993
   1   2.0000     -88.961070     -2420.7538
   2   2.0000     -10.326619      -281.0016
   3   2.0000     -10.324940      -280.9559
   4   2.0000     -10.312691      -280.6226
   5   2.0000     -10.306294      -280.4485
   6   2.0000     -10.306197      -280.4459
   7   2.0000     -10.300399      -280.2881
   8   2.0000     -10.296796      -280.1901
   9   2.0000     -10.296380      -280.1787
  10   2.0000     -10.293815      -280.1089
  11   2.0000     -10.288903      -279.9753
  12   2.0000     -10.286877      -279.9202
  13   2.0000     -10.284421      -279.8533
  14   2.0000     -10.284122      -279.8452
  15   2.0000     -10.268978      -279.4331
  16   2.0000      -8.079091      -219.8433
  17   2.0000      -8.077036      -219.7873
  18   2.0000      -6.037602      -164.2915
  19   2.0000      -6.035671      -164.2390
  20   2.0000      -6.033187      -164.1714
  21   2.0000      -6.031325      -164.1207
  22   2.0000      -6.029921      -164.0825
  23   2.0000      -6.027609      -164.0196
  24   2.0000      -1.017698       -27.6930
  25   2.0000      -0.995951       -27.1012
  26   2.0000      -0.909553       -24.7502
  27   2.0000      -0.904385       -24.6096
  28   2.0000      -0.877357       -23.8741
  29   2.0000      -0.850133       -23.1333
  30   2.0000      -0.844423       -22.9779
  31   2.0000      -0.821642       -22.3580
  32   2.0000      -0.781794       -21.2737
  33   2.0000      -0.773880       -21.0583
  34   2.0000      -0.706524       -19.2255
  35   2.0000      -0.703378       -19.1399
  36   2.0000      -0.697643       -18.9838
  37   2.0000      -0.664315       -18.0769
  38   2.0000      -0.640854       -17.4385
  39   2.0000      -0.617417       -16.8008
  40   2.0000      -0.599855       -16.3229
  41   2.0000      -0.577401       -15.7119
  42   2.0000      -0.565390       -15.3851
  43   2.0000      -0.556593       -15.1457
  44   2.0000      -0.527288       -14.3482
  45   2.0000      -0.526908       -14.3379
  46   2.0000      -0.519234       -14.1291
  47   2.0000      -0.514297       -13.9947
  48   2.0000      -0.505236       -13.7482
  49   2.0000      -0.501933       -13.6583
  50   2.0000      -0.496578       -13.5126
  51   2.0000      -0.479803       -13.0561
  52   2.0000      -0.473262       -12.8781
  53   2.0000      -0.471176       -12.8214
  54   2.0000      -0.458351       -12.4724
  55   2.0000      -0.451760       -12.2930
  56   2.0000      -0.444040       -12.0830
  57   2.0000      -0.437972       -11.9178
  58   2.0000      -0.427361       -11.6291
  59   2.0000      -0.422087       -11.4856
  60   2.0000      -0.419918       -11.4265
  61   2.0000      -0.418774       -11.3954
  62   2.0000      -0.405478       -11.0336
  63   2.0000      -0.363376        -9.8880
  64   2.0000      -0.325231        -8.8500
  65   2.0000      -0.324381        -8.8269
  66   2.0000      -0.294698        -8.0191
  67   0.0000       0.038294         1.0420
  68   0.0000       0.078906         2.1471
  69   0.0000       0.112567         3.0631
  70   0.0000       0.130983         3.5642
  71   0.0000       0.138248         3.7619

MULLIKEN ATOMIC CHARGES
-----------------------
   0 S :    0.107373
   1 C :   -0.107374
   2 C :   -0.075336
   3 C :   -0.013066
   4 C :   -0.103935
   5 H :   -0.003690
   6 C :    0.045473
   7 H :    0.012122
   8 H :    0.035238
   9 C :   -0.070812
  10 H :    0.036557
  11 H :    0.032779
  12 C :   -0.053273
  13 H :    0.044586
  14 H :    0.026392
  15 H :    0.048106
  16 S :    0.098152
  17 C :   -0.080493
  18 C :   -0.022709
  19 C :   -0.066833
  20 C :   -0.116544
  21 H :    0.018833
  22 C :    0.072431
  23 H :    0.011718
  24 H :    0.005237
  25 C :   -0.095226
  26 H :    0.037403
  27 H :    0.036206
  28 C :   -0.019179
  29 H :    0.030859
  30 H :    0.009611
  31 H :    0.030004
  32 H :    0.036336
  33 H :    0.053055
Sum of atomic charges:    0.0000000

LOEWDIN ATOMIC CHARGES
----------------------
   0 S :    0.456051
   1 C :   -0.206110
   2 C :   -0.070352
   3 C :   -0.064931
   4 C :   -0.210605
   5 H :    0.019245
   6 C :   -0.037956
   7 H :    0.029144
   8 H :    0.034393
   9 C :   -0.038778
  10 H :    0.027755
  11 H :    0.022376
  12 C :   -0.061959
  13 H :    0.031749
  14 H :    0.016485
  15 H :    0.032510
  16 S :    0.421096
  17 C :   -0.185400
  18 C :   -0.070181
  19 C :   -0.053876
  20 C :   -0.202392
  21 H :    0.029374
  22 C :   -0.039936
  23 H :    0.026316
  24 H :    0.016796
  25 C :   -0.038923
  26 H :    0.029436
  27 H :    0.025410
  28 C :   -0.064554
  29 H :    0.032725
  30 H :    0.012502
  31 H :    0.026149
  32 H :    0.024693
  33 H :    0.031748

  Mayer bond orders larger than 0.100000
B(  0-S ,  1-C ) :   1.1808 B(  0-S ,  4-C ) :   1.1455 B(  1-C ,  2-C ) :   1.5717
B(  1-C , 32-H ) :   0.9743 B(  2-C ,  3-C ) :   1.2688 B(  2-C ,  6-C ) :   1.0218
B(  3-C ,  4-C ) :   1.5544 B(  3-C ,  5-H ) :   0.9971 B(  4-C , 20-C ) :   1.0267
B(  6-C ,  7-H ) :   0.9453 B(  6-C ,  8-H ) :   0.9411 B(  6-C ,  9-C ) :   1.0342
B(  9-C , 10-H ) :   0.9619 B(  9-C , 11-H ) :   0.9587 B(  9-C , 12-C ) :   1.0688
B( 12-C , 13-H ) :   0.9780 B( 12-C , 14-H ) :   0.9771 B( 12-C , 15-H ) :   0.9767
B( 16-S , 17-C ) :   1.1442 B( 16-S , 20-C ) :   1.1392 B( 17-C , 18-C ) :   1.6423
B( 17-C , 33-H ) :   0.9698 B( 18-C , 19-C ) :   1.2061 B( 18-C , 21-H ) :   0.9877
B( 19-C , 20-C ) :   1.6200 B( 19-C , 22-C ) :   1.0421 B( 22-C , 23-H ) :   0.9254
B( 22-C , 24-H ) :   0.9344 B( 22-C , 25-C ) :   1.0507 B( 25-C , 26-H ) :   0.9567
B( 25-C , 27-H ) :   0.9547 B( 25-C , 28-C ) :   1.0967 B( 28-C , 29-H ) :   0.9701
B( 28-C , 30-H ) :   0.9709 B( 28-C , 31-H ) :   0.9711

Dispersion correction           -0.013500635
FINAL SINGLE POINT ENERGY     -1339.875307818994

DIPOLE MOMENT
-------------
                                X             Y             Z
Electronic contribution:    -10.80669     -11.07671      -5.49156
Nuclear contribution   :     11.07047      11.27099       5.48442
                        -----------------------------------------
Total Dipole Moment    :      0.26378       0.19428      -0.00714
                        -----------------------------------------
Magnitude (a.u.)       :      0.32769
Magnitude (Debye)      :      0.83291

Rotational constants in cm-1:     0.021179     0.007303     0.005922
Rotational constants in MHz :   634.931587   218.931905   177.551530

                             ****ORCA TERMINATED NORMALLY****
TOTAL RUN TIME: 0 days 0 hours 0 minutes 20 seconds 678 msec
