                         Program Version 4.2.1 -  RELEASE  -
|  1> ! wB97X-D3 SP def2-SVP
|  2> %pal
|  3> nprocs 24
|  4> end
|  5>
|  6> * xyz 0 1
|  7> S 	 -75.0105 	 0.9553 	 15.6726
|  8> C 	 -73.2983 	 1.31641 	 15.2817
|  9> C 	 -72.587 	 1.22162 	 16.4819
| 10> C 	 -73.3938 	 0.885693 	 17.6113
| 11> C 	 -74.654 	 0.587574 	 17.2989
| 12> H 	 -73.0456 	 0.95771 	 18.627
| 13> C 	 -71.1847 	 1.79195 	 16.6779
| 14> H 	 -70.619 	 1.29274 	 15.9047
| 15> H 	 -70.8061 	 1.43399 	 17.6612
| 16> C 	 -71.1297 	 3.26656 	 16.3084
| 17> H 	 -70.091 	 3.54105 	 16.1878
| 18> H 	 -71.5354 	 3.43679 	 15.2974
| 19> C 	 -71.7321 	 4.15296 	 17.3813
| 20> H 	 -71.5645 	 5.20046 	 17.0581
| 21> H 	 -72.8166 	 4.05711 	 17.4447
| 22> H 	 -71.29 	 4.11391 	 18.3383
| 23> S 	 -77.2573 	 1.00263 	 18.0633
| 24> C 	 -77.699 	 0.461187 	 19.6878
| 25> C 	 -76.7533 	 -0.332885 	 20.2594
| 26> C 	 -75.6165 	 -0.516576 	 19.4382
| 27> C 	 -75.6643 	 0.270691 	 18.2696
| 28> H 	 -76.8579 	 -0.676222 	 21.2042
| 29> C 	 -74.3288 	 -1.23623 	 19.9559
| 30> H 	 -73.559 	 -1.25814 	 19.1933
| 31> H 	 -74.4892 	 -2.30826 	 20.1339
| 32> C 	 -73.6781 	 -0.553827 	 21.2696
| 33> H 	 -74.5645 	 -0.267897 	 21.8221
| 34> H 	 -73.055 	 0.350997 	 21.0332
| 35> C 	 -72.9449 	 -1.59171 	 22.1596
| 36> H 	 -72.1017 	 -1.839 	 21.49
| 37> H 	 -73.6391 	 -2.43039 	 22.2337
| 38> H 	 -72.5251 	 -1.09897 	 23.0314
| 39> H 	 -72.9164 	 1.77642 	 14.3461
| 40> H 	 -78.662 	 0.610213 	 20.0916
| 41> *
| 42>
| 43>                          ****END OF INPUT****

CARTESIAN COORDINATES (ANGSTROEM)
---------------------------------
  S    -75.010500    0.955300   15.672600
  C    -73.298300    1.316410   15.281700
  C    -72.587000    1.221620   16.481900
  C    -73.393800    0.885693   17.611300
  C    -74.654000    0.587574   17.298900
  H    -73.045600    0.957710   18.627000
  C    -71.184700    1.791950   16.677900
  H    -70.619000    1.292740   15.904700
  H    -70.806100    1.433990   17.661200
  C    -71.129700    3.266560   16.308400
  H    -70.091000    3.541050   16.187800
  H    -71.535400    3.436790   15.297400
  C    -71.732100    4.152960   17.381300
  H    -71.564500    5.200460   17.058100
  H    -72.816600    4.057110   17.444700
  H    -71.290000    4.113910   18.338300
  S    -77.257300    1.002630   18.063300
  C    -77.699000    0.461187   19.687800
  C    -76.753300   -0.332885   20.259400
  C    -75.616500   -0.516576   19.438200
  C    -75.664300    0.270691   18.269600
  H    -76.857900   -0.676222   21.204200
  C    -74.328800   -1.236230   19.955900
  H    -73.559000   -1.258140   19.193300
  H    -74.489200   -2.308260   20.133900
  C    -73.678100   -0.553827   21.269600
  H    -74.564500   -0.267897   21.822100
  H    -73.055000    0.350997   21.033200
  C    -72.944900   -1.591710   22.159600
  H    -72.101700   -1.839000   21.490000
  H    -73.639100   -2.430390   22.233700
  H    -72.525100   -1.098970   23.031400
  H    -72.916400    1.776420   14.346100
  H    -78.662000    0.610213   20.091600

 Total Charge           Charge          ....    0
 Multiplicity           Mult            ....    1
 Number of Electrons    NEL             ....  134
 Basis Dimension        Dim             ....  322

ORBITAL ENERGIES
----------------

  NO   OCC          E(Eh)            E(eV)
   0   2.0000     -88.966466     -2420.9006
   1   2.0000     -88.964574     -2420.8491
   2   2.0000     -10.329112      -281.0694
   3   2.0000     -10.320561      -280.8368
   4   2.0000     -10.319163      -280.7987
   5   2.0000     -10.314623      -280.6751
   6   2.0000     -10.307934      -280.4932
   7   2.0000     -10.299862      -280.2735
   8   2.0000     -10.298228      -280.2290
   9   2.0000     -10.294247      -280.1207
  10   2.0000     -10.290659      -280.0231
  11   2.0000     -10.287468      -279.9362
  12   2.0000     -10.286745      -279.9166
  13   2.0000     -10.284426      -279.8534
  14   2.0000     -10.283472      -279.8275
  15   2.0000     -10.272042      -279.5165
  16   2.0000      -8.080858      -219.8913
  17   2.0000      -8.079524      -219.8550
  18   2.0000      -6.039332      -164.3386
  19   2.0000      -6.038159      -164.3067
  20   2.0000      -6.035533      -164.2352
  21   2.0000      -6.034056      -164.1950
  22   2.0000      -6.031572      -164.1274
  23   2.0000      -6.030083      -164.0869
  24   2.0000      -1.012114       -27.5410
  25   2.0000      -0.984340       -26.7852
  26   2.0000      -0.916736       -24.9457
  27   2.0000      -0.899216       -24.4689
  28   2.0000      -0.871785       -23.7225
  29   2.0000      -0.853272       -23.2187
  30   2.0000      -0.843735       -22.9592
  31   2.0000      -0.817375       -22.2419
  32   2.0000      -0.783395       -21.3173
  33   2.0000      -0.768865       -20.9219
  34   2.0000      -0.709364       -19.3028
  35   2.0000      -0.701011       -19.0755
  36   2.0000      -0.693572       -18.8731
  37   2.0000      -0.666340       -18.1320
  38   2.0000      -0.636882       -17.3304
  39   2.0000      -0.619200       -16.8493
  40   2.0000      -0.599070       -16.3015
  41   2.0000      -0.574563       -15.6347
  42   2.0000      -0.567453       -15.4412
  43   2.0000      -0.549606       -14.9555
  44   2.0000      -0.543039       -14.7768
  45   2.0000      -0.524282       -14.2664
  46   2.0000      -0.521778       -14.1983
  47   2.0000      -0.512609       -13.9488
  48   2.0000      -0.510965       -13.9041
  49   2.0000      -0.502086       -13.6625
  50   2.0000      -0.487108       -13.2549
  51   2.0000      -0.480275       -13.0689
  52   2.0000      -0.468717       -12.7544
  53   2.0000      -0.467016       -12.7082
  54   2.0000      -0.459680       -12.5085
  55   2.0000      -0.450216       -12.2510
  56   2.0000      -0.443164       -12.0591
  57   2.0000      -0.442148       -12.0314
  58   2.0000      -0.434220       -11.8157
  59   2.0000      -0.426001       -11.5921
  60   2.0000      -0.416977       -11.3465
  61   2.0000      -0.411115       -11.1870
  62   2.0000      -0.409130       -11.1330
  63   2.0000      -0.353141        -9.6095
  64   2.0000      -0.335643        -9.1333
  65   2.0000      -0.326521        -8.8851
  66   2.0000      -0.286715        -7.8019
  67   0.0000       0.021794         0.5930
  68   0.0000       0.076584         2.0840
  69   0.0000       0.098571         2.6823
  70   0.0000       0.124106         3.3771
  71   0.0000       0.128922         3.5081

MULLIKEN ATOMIC CHARGES
-----------------------
   0 S :    0.090601
   1 C :   -0.149225
   2 C :   -0.096480
   3 C :   -0.005177
   4 C :   -0.084331
   5 H :   -0.000297
   6 C :    0.069043
   7 H :    0.022479
   8 H :    0.028901
   9 C :   -0.053537
  10 H :    0.020092
  11 H :    0.024145
  12 C :   -0.038022
  13 H :    0.024482
  14 H :    0.045130
  15 H :    0.023333
  16 S :    0.095646
  17 C :   -0.069117
  18 C :    0.007384
  19 C :   -0.014673
  20 C :   -0.147623
  21 H :   -0.018615
  22 C :    0.026274
  23 H :    0.024412
  24 H :    0.029425
  25 C :   -0.116473
  26 H :    0.021935
  27 H :    0.050148
  28 C :   -0.038350
  29 H :    0.030364
  30 H :    0.042443
  31 H :    0.046965
  32 H :    0.067220
  33 H :    0.041499
Sum of atomic charges:   -0.0000000

LOEWDIN ATOMIC CHARGES
----------------------
   0 S :    0.402253
   1 C :   -0.200785
   2 C :   -0.056849
   3 C :   -0.070789
   4 C :   -0.202191
   5 H :    0.029856
   6 C :   -0.034372
   7 H :    0.032058
   8 H :    0.031441
   9 C :   -0.037482
  10 H :    0.021559
  11 H :    0.027437
  12 C :   -0.064957
  13 H :    0.029769
  14 H :    0.028796
  15 H :    0.019256
  16 S :    0.386670
  17 C :   -0.163513
  18 C :   -0.056290
  19 C :   -0.052014
  20 C :   -0.181051
  21 H :    0.015200
  22 C :   -0.034125
  23 H :    0.024231
  24 H :    0.030341
  25 C :   -0.041390
  26 H :    0.014968
  27 H :    0.025317
  28 C :   -0.064382
  29 H :    0.027662
  30 H :    0.027871
  31 H :    0.028698
  32 H :    0.036734
  33 H :    0.020074

  Mayer bond orders larger than 0.100000
B(  0-S ,  1-C ) :   1.1188 B(  0-S ,  4-C ) :   1.1514 B(  1-C ,  2-C ) :   1.5921
B(  1-C , 32-H ) :   0.9686 B(  2-C ,  3-C ) :   1.2495 B(  2-C ,  6-C ) :   1.0183
B(  3-C ,  4-C ) :   1.5552 B(  3-C ,  5-H ) :   0.9999 B(  4-C , 20-C ) :   1.0622
B(  6-C ,  7-H ) :   0.9251 B(  6-C ,  8-H ) :   0.9510 B(  6-C ,  9-C ) :   1.0812
B(  9-C , 10-H ) :   0.9518 B(  9-C , 11-H ) :   0.9492 B(  9-C , 12-C ) :   1.0812
B( 12-C , 13-H ) :   0.9709 B( 12-C , 14-H ) :   0.9755 B( 12-C , 15-H ) :   0.9749
B( 16-S , 17-C ) :   1.1416 B( 16-S , 20-C ) :   1.1361 B( 17-C , 18-C ) :   1.6189
B( 17-C , 20-C ) :   0.1006 B( 17-C , 33-H ) :   0.9726 B( 18-C , 19-C ) :   1.2313
B( 18-C , 21-H ) :   1.0054 B( 19-C , 20-C ) :   1.5822 B( 19-C , 22-C ) :   1.0503
B( 22-C , 23-H ) :   0.9360 B( 22-C , 24-H ) :   0.9403 B( 22-C , 25-C ) :   1.0325
B( 25-C , 26-H ) :   0.9633 B( 25-C , 27-H ) :   0.9557 B( 25-C , 28-C ) :   1.0664
B( 28-C , 29-H ) :   0.9797 B( 28-C , 30-H ) :   0.9763 B( 28-C , 31-H ) :   0.9725

Dispersion correction           -0.014523563
FINAL SINGLE POINT ENERGY     -1339.862161003909

DIPOLE MOMENT
-------------
                                X             Y             Z
Electronic contribution:    -23.24505      -2.40085     -14.43028
Nuclear contribution   :     23.78848       2.57991      14.91806
                        -----------------------------------------
Total Dipole Moment    :      0.54342       0.17905       0.48778
                        -----------------------------------------
Magnitude (a.u.)       :      0.75186
Magnitude (Debye)      :      1.91109

Rotational constants in cm-1:     0.016948     0.009634     0.007115
Rotational constants in MHz :   508.087459   288.825174   213.312206

                             ****ORCA TERMINATED NORMALLY****
TOTAL RUN TIME: 0 days 0 hours 0 minutes 20 seconds 964 msec
