                         Program Version 4.2.1 -  RELEASE  -
|  1> ! wB97X-D3 SP def2-SVP
|  2> %pal
|  3> nprocs 24
|  4> end
|  5>
|  6> * xyz 0 1
|  7> S 	 -63.5868 	 14.3442 	 -74.8896
|  8> C 	 -64.3661 	 14.3543 	 -73.3053
|  9> C 	 -63.6055 	 13.6595 	 -72.3768
| 10> C 	 -62.4011 	 13.0164 	 -72.9412
| 11> C 	 -62.2547 	 13.289 	 -74.3312
| 12> H 	 -61.7217 	 12.3732 	 -72.376
| 13> C 	 -63.9243 	 13.5378 	 -70.885
| 14> H 	 -63.866 	 14.4719 	 -70.2842
| 15> H 	 -63.2371 	 12.8415 	 -70.4813
| 16> C 	 -65.2762 	 12.8814 	 -70.5187
| 17> H 	 -65.4247 	 12.9416 	 -69.4485
| 18> H 	 -65.9499 	 13.558 	 -71.0115
| 19> C 	 -65.5987 	 11.4937 	 -71.0777
| 20> H 	 -65.5845 	 11.4414 	 -72.163
| 21> H 	 -64.9064 	 10.7351 	 -70.7457
| 22> H 	 -66.5253 	 11.2146 	 -70.7016
| 23> S 	 -60.7126 	 11.1961 	 -75.1774
| 24> C 	 -59.6151 	 11.3743 	 -76.5023
| 25> C 	 -59.6184 	 12.6732 	 -77.0434
| 26> C 	 -60.4569 	 13.5348 	 -76.2112
| 27> C 	 -61.1971 	 12.8744 	 -75.2276
| 28> H 	 -58.9358 	 12.9431 	 -77.8407
| 29> C 	 -60.6492 	 15.0172 	 -76.4692
| 30> H 	 -59.6867 	 15.4411 	 -76.3238
| 31> H 	 -61.2447 	 15.4413 	 -75.6622
| 32> C 	 -61.1818 	 15.3002 	 -77.9032
| 33> H 	 -62.0395 	 14.6684 	 -78.1712
| 34> H 	 -60.2975 	 15.0383 	 -78.5554
| 35> C 	 -61.5581 	 16.7835 	 -78.1676
| 36> H 	 -61.7904 	 16.9252 	 -79.1808
| 37> H 	 -60.7216 	 17.4047 	 -77.8801
| 38> H 	 -62.4651 	 16.9464 	 -77.5904
| 39> H 	 -65.1294 	 14.9749 	 -73.1056
| 40> H 	 -58.9842 	 10.5645 	 -76.9151
| 41> *
| 42>
| 43>                          ****END OF INPUT****

CARTESIAN COORDINATES (ANGSTROEM)
---------------------------------
  S    -63.586800   14.344200  -74.889600
  C    -64.366100   14.354300  -73.305300
  C    -63.605500   13.659500  -72.376800
  C    -62.401100   13.016400  -72.941200
  C    -62.254700   13.289000  -74.331200
  H    -61.721700   12.373200  -72.376000
  C    -63.924300   13.537800  -70.885000
  H    -63.866000   14.471900  -70.284200
  H    -63.237100   12.841500  -70.481300
  C    -65.276200   12.881400  -70.518700
  H    -65.424700   12.941600  -69.448500
  H    -65.949900   13.558000  -71.011500
  C    -65.598700   11.493700  -71.077700
  H    -65.584500   11.441400  -72.163000
  H    -64.906400   10.735100  -70.745700
  H    -66.525300   11.214600  -70.701600
  S    -60.712600   11.196100  -75.177400
  C    -59.615100   11.374300  -76.502300
  C    -59.618400   12.673200  -77.043400
  C    -60.456900   13.534800  -76.211200
  C    -61.197100   12.874400  -75.227600
  H    -58.935800   12.943100  -77.840700
  C    -60.649200   15.017200  -76.469200
  H    -59.686700   15.441100  -76.323800
  H    -61.244700   15.441300  -75.662200
  C    -61.181800   15.300200  -77.903200
  H    -62.039500   14.668400  -78.171200
  H    -60.297500   15.038300  -78.555400
  C    -61.558100   16.783500  -78.167600
  H    -61.790400   16.925200  -79.180800
  H    -60.721600   17.404700  -77.880100
  H    -62.465100   16.946400  -77.590400
  H    -65.129400   14.974900  -73.105600
  H    -58.984200   10.564500  -76.915100

 Total Charge           Charge          ....    0
 Multiplicity           Mult            ....    1
 Number of Electrons    NEL             ....  134
 Basis Dimension        Dim             ....  322

ORBITAL ENERGIES
----------------

  NO   OCC          E(Eh)            E(eV)
   0   2.0000     -88.968974     -2420.9689
   1   2.0000     -88.966030     -2420.8888
   2   2.0000     -10.340770      -281.3867
   3   2.0000     -10.325724      -280.9772
   4   2.0000     -10.323679      -280.9216
   5   2.0000     -10.311701      -280.5957
   6   2.0000     -10.309922      -280.5472
   7   2.0000     -10.307599      -280.4840
   8   2.0000     -10.307023      -280.4684
   9   2.0000     -10.301804      -280.3263
  10   2.0000     -10.289742      -279.9981
  11   2.0000     -10.289517      -279.9920
  12   2.0000     -10.283820      -279.8370
  13   2.0000     -10.281895      -279.7846
  14   2.0000     -10.270907      -279.4856
  15   2.0000     -10.267183      -279.3842
  16   2.0000      -8.082365      -219.9323
  17   2.0000      -8.081041      -219.8963
  18   2.0000      -6.041005      -164.3841
  19   2.0000      -6.039504      -164.3433
  20   2.0000      -6.036989      -164.2748
  21   2.0000      -6.035416      -164.2320
  22   2.0000      -6.033141      -164.1701
  23   2.0000      -6.031932      -164.1372
  24   2.0000      -1.001502       -27.2523
  25   2.0000      -0.976427       -26.5699
  26   2.0000      -0.909010       -24.7354
  27   2.0000      -0.903714       -24.5913
  28   2.0000      -0.869358       -23.6564
  29   2.0000      -0.848496       -23.0888
  30   2.0000      -0.841646       -22.9024
  31   2.0000      -0.812584       -22.1115
  32   2.0000      -0.785360       -21.3707
  33   2.0000      -0.772174       -21.0119
  34   2.0000      -0.706978       -19.2379
  35   2.0000      -0.697561       -18.9816
  36   2.0000      -0.693518       -18.8716
  37   2.0000      -0.660841       -17.9824
  38   2.0000      -0.643488       -17.5102
  39   2.0000      -0.607353       -16.5269
  40   2.0000      -0.590406       -16.0658
  41   2.0000      -0.575566       -15.6619
  42   2.0000      -0.564559       -15.3624
  43   2.0000      -0.548293       -14.9198
  44   2.0000      -0.547695       -14.9035
  45   2.0000      -0.524779       -14.2800
  46   2.0000      -0.523819       -14.2538
  47   2.0000      -0.513172       -13.9641
  48   2.0000      -0.504911       -13.7393
  49   2.0000      -0.495858       -13.4930
  50   2.0000      -0.489459       -13.3189
  51   2.0000      -0.481337       -13.0979
  52   2.0000      -0.466386       -12.6910
  53   2.0000      -0.465239       -12.6598
  54   2.0000      -0.462745       -12.5919
  55   2.0000      -0.449568       -12.2334
  56   2.0000      -0.440829       -11.9956
  57   2.0000      -0.439239       -11.9523
  58   2.0000      -0.435810       -11.8590
  59   2.0000      -0.424092       -11.5401
  60   2.0000      -0.415427       -11.3043
  61   2.0000      -0.411352       -11.1935
  62   2.0000      -0.403426       -10.9778
  63   2.0000      -0.350638        -9.5414
  64   2.0000      -0.329035        -8.9535
  65   2.0000      -0.328433        -8.9371
  66   2.0000      -0.290280        -7.8989
  67   0.0000       0.022906         0.6233
  68   0.0000       0.072074         1.9612
  69   0.0000       0.102228         2.7818
  70   0.0000       0.113445         3.0870
  71   0.0000       0.132123         3.5953

MULLIKEN ATOMIC CHARGES
-----------------------
   0 S :    0.096386
   1 C :   -0.077896
   2 C :   -0.100318
   3 C :    0.026609
   4 C :   -0.152575
   5 H :    0.028185
   6 C :    0.080315
   7 H :    0.048806
   8 H :    0.000228
   9 C :   -0.096034
  10 H :    0.031227
  11 H :    0.013158
  12 C :   -0.011780
  13 H :    0.041773
  14 H :    0.016995
  15 H :    0.017944
  16 S :    0.111480
  17 C :   -0.107366
  18 C :   -0.031907
  19 C :   -0.069838
  20 C :   -0.132839
  21 H :    0.031159
  22 C :    0.083796
  23 H :    0.017112
  24 H :    0.020658
  25 C :   -0.134998
  26 H :    0.042771
  27 H :    0.032623
  28 C :    0.000896
  29 H :    0.024657
  30 H :    0.029513
  31 H :    0.033476
  32 H :    0.013405
  33 H :    0.072378
Sum of atomic charges:   -0.0000000

LOEWDIN ATOMIC CHARGES
----------------------
   0 S :    0.397582
   1 C :   -0.176009
   2 C :   -0.054185
   3 C :   -0.061687
   4 C :   -0.177439
   5 H :    0.033458
   6 C :   -0.033762
   7 H :    0.038826
   8 H :    0.019139
   9 C :   -0.037642
  10 H :    0.023598
  11 H :    0.016896
  12 C :   -0.057576
  13 H :    0.029818
  14 H :    0.020991
  15 H :    0.019296
  16 S :    0.419215
  17 C :   -0.190953
  18 C :   -0.074177
  19 C :   -0.046596
  20 C :   -0.213652
  21 H :    0.034272
  22 C :   -0.038532
  23 H :    0.027606
  24 H :    0.017455
  25 C :   -0.039968
  26 H :    0.024851
  27 H :    0.024764
  28 C :   -0.056815
  29 H :    0.019021
  30 H :    0.024283
  31 H :    0.027326
  32 H :    0.003743
  33 H :    0.036853

  Mayer bond orders larger than 0.100000
B(  0-S ,  1-C ) :   1.1272 B(  0-S ,  4-C ) :   1.1462 B(  1-C ,  2-C ) :   1.6087
B(  1-C , 32-H ) :   0.9849 B(  2-C ,  3-C ) :   1.2342 B(  2-C ,  6-C ) :   1.0214
B(  3-C ,  4-C ) :   1.5560 B(  3-C ,  5-H ) :   0.9856 B(  4-C , 20-C ) :   1.0568
B(  6-C ,  7-H ) :   0.9423 B(  6-C ,  8-H ) :   0.9396 B(  6-C ,  9-C ) :   1.0687
B(  9-C , 10-H ) :   0.9577 B(  9-C , 11-H ) :   0.9568 B(  9-C , 12-C ) :   1.0828
B( 12-C , 13-H ) :   0.9718 B( 12-C , 14-H ) :   0.9744 B( 12-C , 15-H ) :   0.9714
B( 16-S , 17-C ) :   1.1784 B( 16-S , 20-C ) :   1.1258 B( 17-C , 18-C ) :   1.5939
B( 17-C , 33-H ) :   0.9620 B( 18-C , 19-C ) :   1.2299 B( 18-C , 21-H ) :   0.9906
B( 19-C , 20-C ) :   1.5819 B( 19-C , 22-C ) :   1.0518 B( 22-C , 23-H ) :   0.9189
B( 22-C , 24-H ) :   0.9366 B( 22-C , 25-C ) :   1.0470 B( 25-C , 26-H ) :   0.9638
B( 25-C , 27-H ) :   0.9524 B( 25-C , 28-C ) :   1.0856 B( 28-C , 29-H ) :   0.9743
B( 28-C , 30-H ) :   0.9737 B( 28-C , 31-H ) :   0.9759

Dispersion correction           -0.014319009
FINAL SINGLE POINT ENERGY     -1339.878122404781

DIPOLE MOMENT
-------------
                                X             Y             Z
Electronic contribution:      7.36578      -8.39854      -4.39572
Nuclear contribution   :     -7.24661       8.57779       4.52870
                        -----------------------------------------
Total Dipole Moment    :      0.11917       0.17925       0.13298
                        -----------------------------------------
Magnitude (a.u.)       :      0.25301
Magnitude (Debye)      :      0.64311

Rotational constants in cm-1:     0.021761     0.008016     0.006227
Rotational constants in MHz :   652.374867   240.328188   186.672274

                             ****ORCA TERMINATED NORMALLY****
TOTAL RUN TIME: 0 days 0 hours 0 minutes 21 seconds 142 msec
