                         Program Version 4.2.1 -  RELEASE  -
|  1> ! wB97X-D3 SP def2-SVP
|  2> %pal
|  3> nprocs 24
|  4> end
|  5>
|  6> * xyz 0 1
|  7> S 	 -58.4449 	 17.2327 	 -100.667
|  8> C 	 -57.471 	 18.5848 	 -101.218
|  9> C 	 -57.643 	 19.6857 	 -100.337
| 10> C 	 -58.4254 	 19.3559 	 -99.1567
| 11> C 	 -58.9018 	 18.0436 	 -99.1294
| 12> H 	 -58.7595 	 20.0922 	 -98.3983
| 13> C 	 -56.9165 	 20.9512 	 -100.514
| 14> H 	 -55.9477 	 20.7818 	 -100.922
| 15> H 	 -56.7589 	 21.5269 	 -99.5892
| 16> C 	 -57.5491 	 21.9458 	 -101.459
| 17> H 	 -57.6584 	 21.5172 	 -102.404
| 18> H 	 -58.59 	 22.1465 	 -101.106
| 19> C 	 -56.735 	 23.2621 	 -101.627
| 20> H 	 -57.1182 	 23.8326 	 -102.488
| 21> H 	 -56.6993 	 23.864 	 -100.68
| 22> H 	 -55.7643 	 22.9129 	 -101.925
| 23> S 	 -60.7818 	 16.0343 	 -98.8638
| 24> C 	 -61.5683 	 15.8473 	 -97.2363
| 25> C 	 -60.9411 	 16.5884 	 -96.2685
| 26> C 	 -59.869 	 17.407 	 -96.7966
| 27> C 	 -59.6876 	 17.2483 	 -98.1916
| 28> H 	 -61.4046 	 16.5459 	 -95.2824
| 29> C 	 -58.9981 	 18.3319 	 -95.9981
| 30> H 	 -58.0093 	 18.4837 	 -96.351
| 31> H 	 -58.8182 	 17.7604 	 -95.0247
| 32> C 	 -59.6501 	 19.6577 	 -95.516
| 33> H 	 -60.6623 	 19.4694 	 -95.2063
| 34> H 	 -59.7098 	 20.2593 	 -96.4302
| 35> C 	 -58.8914 	 20.5397 	 -94.5341
| 36> H 	 -59.5337 	 21.272 	 -94.0757
| 37> H 	 -58.0839 	 21.0701 	 -95.0754
| 38> H 	 -58.4314 	 19.8272 	 -93.8458
| 39> H 	 -56.8252 	 18.5583 	 -102.107
| 40> H 	 -62.5413 	 15.4217 	 -97.0589
| 41> *
| 42>
| 43>                          ****END OF INPUT****

CARTESIAN COORDINATES (ANGSTROEM)
---------------------------------
  S    -58.444900   17.232700  -100.667000
  C    -57.471000   18.584800  -101.218000
  C    -57.643000   19.685700  -100.337000
  C    -58.425400   19.355900  -99.156700
  C    -58.901800   18.043600  -99.129400
  H    -58.759500   20.092200  -98.398300
  C    -56.916500   20.951200  -100.514000
  H    -55.947700   20.781800  -100.922000
  H    -56.758900   21.526900  -99.589200
  C    -57.549100   21.945800  -101.459000
  H    -57.658400   21.517200  -102.404000
  H    -58.590000   22.146500  -101.106000
  C    -56.735000   23.262100  -101.627000
  H    -57.118200   23.832600  -102.488000
  H    -56.699300   23.864000  -100.680000
  H    -55.764300   22.912900  -101.925000
  S    -60.781800   16.034300  -98.863800
  C    -61.568300   15.847300  -97.236300
  C    -60.941100   16.588400  -96.268500
  C    -59.869000   17.407000  -96.796600
  C    -59.687600   17.248300  -98.191600
  H    -61.404600   16.545900  -95.282400
  C    -58.998100   18.331900  -95.998100
  H    -58.009300   18.483700  -96.351000
  H    -58.818200   17.760400  -95.024700
  C    -59.650100   19.657700  -95.516000
  H    -60.662300   19.469400  -95.206300
  H    -59.709800   20.259300  -96.430200
  C    -58.891400   20.539700  -94.534100
  H    -59.533700   21.272000  -94.075700
  H    -58.083900   21.070100  -95.075400
  H    -58.431400   19.827200  -93.845800
  H    -56.825200   18.558300  -102.107000
  H    -62.541300   15.421700  -97.058900

 Total Charge           Charge          ....    0
 Multiplicity           Mult            ....    1
 Number of Electrons    NEL             ....  134
 Basis Dimension        Dim             ....  322

ORBITAL ENERGIES
----------------

  NO   OCC          E(Eh)            E(eV)
   0   2.0000     -88.968673     -2420.9607
   1   2.0000     -88.965694     -2420.8796
   2   2.0000     -10.339898      -281.3629
   3   2.0000     -10.335398      -281.2405
   4   2.0000     -10.322970      -280.9023
   5   2.0000     -10.322232      -280.8822
   6   2.0000     -10.313754      -280.6515
   7   2.0000     -10.308041      -280.4960
   8   2.0000     -10.305332      -280.4223
   9   2.0000     -10.302779      -280.3529
  10   2.0000     -10.295054      -280.1427
  11   2.0000     -10.285327      -279.8780
  12   2.0000     -10.284830      -279.8645
  13   2.0000     -10.283599      -279.8310
  14   2.0000     -10.281434      -279.7720
  15   2.0000     -10.279992      -279.7328
  16   2.0000      -8.082184      -219.9274
  17   2.0000      -8.079678      -219.8592
  18   2.0000      -6.040886      -164.3809
  19   2.0000      -6.038300      -164.3105
  20   2.0000      -6.037002      -164.2752
  21   2.0000      -6.034247      -164.2002
  22   2.0000      -6.032654      -164.1569
  23   2.0000      -6.030422      -164.0961
  24   2.0000      -0.999635       -27.2015
  25   2.0000      -0.975632       -26.5483
  26   2.0000      -0.917356       -24.9625
  27   2.0000      -0.909045       -24.7364
  28   2.0000      -0.870467       -23.6866
  29   2.0000      -0.853240       -23.2178
  30   2.0000      -0.843161       -22.9436
  31   2.0000      -0.819995       -22.3132
  32   2.0000      -0.781309       -21.2605
  33   2.0000      -0.767242       -20.8777
  34   2.0000      -0.706266       -19.2185
  35   2.0000      -0.698253       -19.0004
  36   2.0000      -0.694708       -18.9040
  37   2.0000      -0.661973       -18.0132
  38   2.0000      -0.641708       -17.4618
  39   2.0000      -0.621282       -16.9059
  40   2.0000      -0.598961       -16.2986
  41   2.0000      -0.575830       -15.6691
  42   2.0000      -0.568340       -15.4653
  43   2.0000      -0.559469       -15.2239
  44   2.0000      -0.532911       -14.5012
  45   2.0000      -0.525792       -14.3075
  46   2.0000      -0.518603       -14.1119
  47   2.0000      -0.508115       -13.8265
  48   2.0000      -0.504560       -13.7298
  49   2.0000      -0.502740       -13.6803
  50   2.0000      -0.496527       -13.5112
  51   2.0000      -0.480508       -13.0753
  52   2.0000      -0.474226       -12.9043
  53   2.0000      -0.464270       -12.6334
  54   2.0000      -0.457341       -12.4449
  55   2.0000      -0.451950       -12.2982
  56   2.0000      -0.440583       -11.9889
  57   2.0000      -0.436057       -11.8657
  58   2.0000      -0.435962       -11.8631
  59   2.0000      -0.430223       -11.7070
  60   2.0000      -0.421177       -11.4608
  61   2.0000      -0.413410       -11.2495
  62   2.0000      -0.404869       -11.0171
  63   2.0000      -0.360126        -9.7995
  64   2.0000      -0.336014        -9.1434
  65   2.0000      -0.324619        -8.8333
  66   2.0000      -0.280835        -7.6419
  67   0.0000       0.014689         0.3997
  68   0.0000       0.066846         1.8190
  69   0.0000       0.089418         2.4332
  70   0.0000       0.112061         3.0493
  71   0.0000       0.126884         3.4527

MULLIKEN ATOMIC CHARGES
-----------------------
   0 S :    0.080167
   1 C :   -0.119206
   2 C :   -0.070612
   3 C :    0.005636
   4 C :   -0.120705
   5 H :    0.025005
   6 C :    0.057498
   7 H :    0.010146
   8 H :    0.017891
   9 C :   -0.084605
  10 H :    0.007706
  11 H :    0.025779
  12 C :   -0.042185
  13 H :    0.043002
  14 H :    0.047616
  15 H :    0.017390
  16 S :    0.087839
  17 C :   -0.094024
  18 C :   -0.028063
  19 C :   -0.037656
  20 C :   -0.101264
  21 H :    0.032009
  22 C :    0.026872
  23 H :    0.026410
  24 H :    0.025024
  25 C :   -0.083803
  26 H :    0.021281
  27 H :    0.013330
  28 C :   -0.016748
  29 H :    0.043117
  30 H :    0.031951
  31 H :    0.026452
  32 H :    0.065839
  33 H :    0.060913
Sum of atomic charges:    0.0000000

LOEWDIN ATOMIC CHARGES
----------------------
   0 S :    0.380910
   1 C :   -0.196825
   2 C :   -0.057836
   3 C :   -0.070472
   4 C :   -0.166617
   5 H :    0.037005
   6 C :   -0.039541
   7 H :    0.026283
   8 H :    0.031117
   9 C :   -0.037564
  10 H :    0.011402
  11 H :    0.022973
  12 C :   -0.064645
  13 H :    0.031428
  14 H :    0.030679
  15 H :    0.019652
  16 S :    0.367330
  17 C :   -0.162178
  18 C :   -0.066132
  19 C :   -0.052053
  20 C :   -0.189066
  21 H :    0.039689
  22 C :   -0.037753
  23 H :    0.025345
  24 H :    0.036548
  25 C :   -0.043922
  26 H :    0.019493
  27 H :    0.017079
  28 C :   -0.060606
  29 H :    0.028740
  30 H :    0.028772
  31 H :    0.024110
  32 H :    0.035422
  33 H :    0.031233

  Mayer bond orders larger than 0.100000
B(  0-S ,  1-C ) :   1.1411 B(  0-S ,  4-C ) :   1.1374 B(  1-C ,  2-C ) :   1.5815
B(  1-C ,  4-C ) :   0.1023 B(  1-C , 32-H ) :   0.9684 B(  2-C ,  3-C ) :   1.2445
B(  2-C ,  6-C ) :   1.0447 B(  3-C ,  4-C ) :   1.5630 B(  3-C ,  5-H ) :   0.9817
B(  4-C , 20-C ) :   1.0672 B(  6-C ,  7-H ) :   0.9342 B(  6-C ,  8-H ) :   0.9438
B(  6-C ,  9-C ) :   1.0625 B(  9-C , 10-H ) :   0.9553 B(  9-C , 11-H ) :   0.9540
B(  9-C , 12-C ) :   1.0778 B( 12-C , 13-H ) :   0.9747 B( 12-C , 14-H ) :   0.9756
B( 12-C , 15-H ) :   0.9720 B( 16-S , 17-C ) :   1.1227 B( 16-S , 20-C ) :   1.1189
B( 17-C , 18-C ) :   1.6630 B( 17-C , 33-H ) :   0.9632 B( 18-C , 19-C ) :   1.2013
B( 18-C , 21-H ) :   0.9864 B( 19-C , 20-C ) :   1.6005 B( 19-C , 22-C ) :   1.0556
B( 22-C , 23-H ) :   0.9403 B( 22-C , 24-H ) :   0.9257 B( 22-C , 25-C ) :   1.0554
B( 25-C , 26-H ) :   0.9547 B( 25-C , 27-H ) :   0.9519 B( 25-C , 28-C ) :   1.0764
B( 28-C , 29-H ) :   0.9735 B( 28-C , 30-H ) :   0.9752 B( 28-C , 31-H ) :   0.9761

Dispersion correction           -0.013628087
FINAL SINGLE POINT ENERGY     -1339.871200350256

DIPOLE MOMENT
-------------
                                X             Y             Z
Electronic contribution:     -9.72188     -28.86638      -8.71422
Nuclear contribution   :      9.75637      29.48247       9.08297
                        -----------------------------------------
Total Dipole Moment    :      0.03449       0.61609       0.36875
                        -----------------------------------------
Magnitude (a.u.)       :      0.71884
Magnitude (Debye)      :      1.82715

Rotational constants in cm-1:     0.017750     0.008462     0.006056
Rotational constants in MHz :   532.130324   253.698581   181.568141

                             ****ORCA TERMINATED NORMALLY****
TOTAL RUN TIME: 0 days 0 hours 0 minutes 20 seconds 74 msec
