                         Program Version 4.2.1 -  RELEASE  -
|  1> ! wB97X-D3 SP def2-SVP
|  2> %pal
|  3> nprocs 24
|  4> end
|  5>
|  6> * xyz 0 1
|  7> S 	 -106.457 	 53.6154 	 -102.327
|  8> C 	 -107.782 	 52.5083 	 -102.555
|  9> C 	 -108.976 	 53.1196 	 -102.256
| 10> C 	 -108.813 	 54.4429 	 -101.804
| 11> C 	 -107.535 	 54.9524 	 -102.008
| 12> H 	 -109.596 	 55.0624 	 -101.474
| 13> C 	 -110.288 	 52.3892 	 -102.135
| 14> H 	 -110.197 	 51.3592 	 -102.452
| 15> H 	 -110.864 	 52.9715 	 -102.851
| 16> C 	 -110.919 	 52.3609 	 -100.66
| 17> H 	 -110.229 	 51.7891 	 -100.102
| 18> H 	 -110.89 	 53.3916 	 -100.314
| 19> C 	 -112.416 	 51.938 	 -100.633
| 20> H 	 -112.977 	 52.7049 	 -101.16
| 21> H 	 -112.676 	 50.9354 	 -100.958
| 22> H 	 -112.912 	 52.0587 	 -99.6487
| 23> S 	 -105.361 	 56.2523 	 -100.864
| 24> C 	 -105.305 	 58.0108 	 -100.828
| 25> C 	 -106.523 	 58.5739 	 -100.999
| 26> C 	 -107.455 	 57.5518 	 -101.507
| 27> C 	 -106.932 	 56.2261 	 -101.587
| 28> H 	 -106.742 	 59.6338 	 -100.832
| 29> C 	 -108.784 	 58.0144 	 -102.095
| 30> H 	 -109.366 	 57.1085 	 -102.279
| 31> H 	 -108.549 	 58.5269 	 -102.973
| 32> C 	 -109.616 	 58.9327 	 -101.149
| 33> H 	 -110.361 	 59.3489 	 -101.831
| 34> H 	 -109.006 	 59.8065 	 -100.684
| 35> C 	 -110.158 	 58.176 	 -99.8782
| 36> H 	 -110.921 	 57.4361 	 -100.049
| 37> H 	 -110.66 	 58.874 	 -99.1867
| 38> H 	 -109.302 	 57.6433 	 -99.4844
| 39> H 	 -107.763 	 51.4967 	 -103.015
| 40> H 	 -104.444 	 58.5795 	 -100.523
| 41> *
| 42>
| 43>                          ****END OF INPUT****

CARTESIAN COORDINATES (ANGSTROEM)
---------------------------------
  S    -106.457000   53.615400  -102.327000
  C    -107.782000   52.508300  -102.555000
  C    -108.976000   53.119600  -102.256000
  C    -108.813000   54.442900  -101.804000
  C    -107.535000   54.952400  -102.008000
  H    -109.596000   55.062400  -101.474000
  C    -110.288000   52.389200  -102.135000
  H    -110.197000   51.359200  -102.452000
  H    -110.864000   52.971500  -102.851000
  C    -110.919000   52.360900  -100.660000
  H    -110.229000   51.789100  -100.102000
  H    -110.890000   53.391600  -100.314000
  C    -112.416000   51.938000  -100.633000
  H    -112.977000   52.704900  -101.160000
  H    -112.676000   50.935400  -100.958000
  H    -112.912000   52.058700  -99.648700
  S    -105.361000   56.252300  -100.864000
  C    -105.305000   58.010800  -100.828000
  C    -106.523000   58.573900  -100.999000
  C    -107.455000   57.551800  -101.507000
  C    -106.932000   56.226100  -101.587000
  H    -106.742000   59.633800  -100.832000
  C    -108.784000   58.014400  -102.095000
  H    -109.366000   57.108500  -102.279000
  H    -108.549000   58.526900  -102.973000
  C    -109.616000   58.932700  -101.149000
  H    -110.361000   59.348900  -101.831000
  H    -109.006000   59.806500  -100.684000
  C    -110.158000   58.176000  -99.878200
  H    -110.921000   57.436100  -100.049000
  H    -110.660000   58.874000  -99.186700
  H    -109.302000   57.643300  -99.484400
  H    -107.763000   51.496700  -103.015000
  H    -104.444000   58.579500  -100.523000

 Total Charge           Charge          ....    0
 Multiplicity           Mult            ....    1
 Number of Electrons    NEL             ....  134
 Basis Dimension        Dim             ....  322

ORBITAL ENERGIES
----------------

  NO   OCC          E(Eh)            E(eV)
   0   2.0000     -88.966016     -2420.8884
   1   2.0000     -88.963623     -2420.8232
   2   2.0000     -10.334968      -281.2288
   3   2.0000     -10.331532      -281.1353
   4   2.0000     -10.316455      -280.7250
   5   2.0000     -10.314246      -280.6649
   6   2.0000     -10.308257      -280.5019
   7   2.0000     -10.299204      -280.2556
   8   2.0000     -10.298212      -280.2286
   9   2.0000     -10.296951      -280.1943
  10   2.0000     -10.293519      -280.1009
  11   2.0000     -10.293007      -280.0870
  12   2.0000     -10.292442      -280.0716
  13   2.0000     -10.287486      -279.9367
  14   2.0000     -10.284456      -279.8543
  15   2.0000     -10.279533      -279.7203
  16   2.0000      -8.080981      -219.8947
  17   2.0000      -8.078745      -219.8338
  18   2.0000      -6.039565      -164.3449
  19   2.0000      -6.037430      -164.2868
  20   2.0000      -6.035435      -164.2325
  21   2.0000      -6.033295      -164.1743
  22   2.0000      -6.031656      -164.1297
  23   2.0000      -6.029187      -164.0625
  24   2.0000      -1.009520       -27.4704
  25   2.0000      -0.986195       -26.8357
  26   2.0000      -0.908453       -24.7203
  27   2.0000      -0.903654       -24.5897
  28   2.0000      -0.870987       -23.7008
  29   2.0000      -0.849332       -23.1115
  30   2.0000      -0.838742       -22.8233
  31   2.0000      -0.819960       -22.3123
  32   2.0000      -0.782225       -21.2854
  33   2.0000      -0.770928       -20.9780
  34   2.0000      -0.714559       -19.4441
  35   2.0000      -0.699998       -19.0479
  36   2.0000      -0.694086       -18.8870
  37   2.0000      -0.655220       -17.8294
  38   2.0000      -0.637711       -17.3530
  39   2.0000      -0.627660       -17.0795
  40   2.0000      -0.595323       -16.1996
  41   2.0000      -0.569116       -15.4864
  42   2.0000      -0.565801       -15.3962
  43   2.0000      -0.558948       -15.2098
  44   2.0000      -0.533098       -14.5063
  45   2.0000      -0.519642       -14.1402
  46   2.0000      -0.517572       -14.0838
  47   2.0000      -0.510790       -13.8993
  48   2.0000      -0.508252       -13.8303
  49   2.0000      -0.500952       -13.6316
  50   2.0000      -0.491397       -13.3716
  51   2.0000      -0.483315       -13.1517
  52   2.0000      -0.473690       -12.8898
  53   2.0000      -0.464236       -12.6325
  54   2.0000      -0.458886       -12.4869
  55   2.0000      -0.451113       -12.2754
  56   2.0000      -0.448268       -12.1980
  57   2.0000      -0.438594       -11.9348
  58   2.0000      -0.436047       -11.8654
  59   2.0000      -0.425047       -11.5661
  60   2.0000      -0.419413       -11.4128
  61   2.0000      -0.416551       -11.3349
  62   2.0000      -0.406080       -11.0500
  63   2.0000      -0.359115        -9.7720
  64   2.0000      -0.332019        -9.0347
  65   2.0000      -0.324598        -8.8328
  66   2.0000      -0.284346        -7.7374
  67   0.0000       0.019479         0.5300
  68   0.0000       0.081392         2.2148
  69   0.0000       0.095656         2.6029
  70   0.0000       0.123108         3.3499
  71   0.0000       0.131391         3.5753

MULLIKEN ATOMIC CHARGES
-----------------------
   0 S :    0.095338
   1 C :   -0.123403
   2 C :   -0.091812
   3 C :    0.019638
   4 C :   -0.128313
   5 H :   -0.002857
   6 C :    0.057458
   7 H :    0.016522
   8 H :    0.030784
   9 C :   -0.056856
  10 H :    0.032406
  11 H :    0.027060
  12 C :   -0.050325
  13 H :    0.024522
  14 H :    0.040819
  15 H :    0.031824
  16 S :    0.092851
  17 C :   -0.080836
  18 C :   -0.025021
  19 C :   -0.113640
  20 C :   -0.105631
  21 H :    0.035969
  22 C :    0.096216
  23 H :    0.013054
  24 H :    0.033663
  25 C :   -0.117587
  26 H :    0.034935
  27 H :    0.042901
  28 C :   -0.055717
  29 H :    0.021593
  30 H :    0.041307
  31 H :    0.046839
  32 H :    0.063097
  33 H :    0.053202
Sum of atomic charges:   -0.0000000

LOEWDIN ATOMIC CHARGES
----------------------
   0 S :    0.410802
   1 C :   -0.208623
   2 C :   -0.069563
   3 C :   -0.059268
   4 C :   -0.183239
   5 H :    0.019220
   6 C :   -0.027784
   7 H :    0.024715
   8 H :    0.030370
   9 C :   -0.026121
  10 H :    0.019703
  11 H :    0.024112
  12 C :   -0.071943
  13 H :    0.027516
  14 H :    0.023766
  15 H :    0.031693
  16 S :    0.398572
  17 C :   -0.172304
  18 C :   -0.071431
  19 C :   -0.058588
  20 C :   -0.212087
  21 H :    0.037568
  22 C :   -0.028299
  23 H :    0.028362
  24 H :    0.026766
  25 C :   -0.042072
  26 H :    0.022807
  27 H :    0.030226
  28 C :   -0.069564
  29 H :    0.017728
  30 H :    0.030261
  31 H :    0.029169
  32 H :    0.040062
  33 H :    0.027469

  Mayer bond orders larger than 0.100000
B(  0-S ,  1-C ) :   1.1395 B(  0-S ,  4-C ) :   1.1625 B(  1-C ,  2-C ) :   1.5996
B(  1-C , 32-H ) :   0.9574 B(  2-C ,  3-C ) :   1.2669 B(  2-C ,  6-C ) :   1.0236
B(  3-C ,  4-C ) :   1.5389 B(  3-C ,  5-H ) :   0.9861 B(  4-C , 20-C ) :   1.0607
B(  6-C ,  7-H ) :   0.9473 B(  6-C ,  8-H ) :   0.9354 B(  6-C ,  9-C ) :   1.0496
B(  9-C , 10-H ) :   0.9623 B(  9-C , 11-H ) :   0.9572 B(  9-C , 12-C ) :   1.0747
B( 12-C , 13-H ) :   0.9727 B( 12-C , 14-H ) :   0.9794 B( 12-C , 15-H ) :   0.9733
B( 16-S , 17-C ) :   1.1448 B( 16-S , 20-C ) :   1.1275 B( 17-C , 18-C ) :   1.6341
B( 17-C , 33-H ) :   0.9665 B( 18-C , 19-C ) :   1.2162 B( 18-C , 21-H ) :   0.9877
B( 19-C , 20-C ) :   1.5866 B( 19-C , 22-C ) :   1.0384 B( 22-C , 23-H ) :   0.9357
B( 22-C , 24-H ) :   0.9393 B( 22-C , 25-C ) :   1.0650 B( 25-C , 26-H ) :   0.9584
B( 25-C , 27-H ) :   0.9577 B( 25-C , 28-C ) :   1.0560 B( 28-C , 29-H ) :   0.9756
B( 28-C , 30-H ) :   0.9761 B( 28-C , 31-H ) :   0.9755

Dispersion correction           -0.014191873
FINAL SINGLE POINT ENERGY     -1339.862619066671

DIPOLE MOMENT
-------------
                                X             Y             Z
Electronic contribution:     29.89066      -1.85405      -5.83660
Nuclear contribution   :    -30.58193       2.07577       5.93840
                        -----------------------------------------
Total Dipole Moment    :     -0.69127       0.22172       0.10179
                        -----------------------------------------
Magnitude (a.u.)       :      0.73306
Magnitude (Debye)      :      1.86329

Rotational constants in cm-1:     0.018010     0.009051     0.006524
Rotational constants in MHz :   539.926710   271.354094   195.596353

                             ****ORCA TERMINATED NORMALLY****
TOTAL RUN TIME: 0 days 0 hours 0 minutes 21 seconds 670 msec
