                         Program Version 4.2.1 -  RELEASE  -
|  1> ! wB97X-D3 SP def2-SVP
|  2> %pal
|  3> nprocs 24
|  4> end
|  5>
|  6> * xyz 0 1
|  7> S 	 -49.6173 	 6.53099 	 -15.5474
|  8> C 	 -48.2592 	 6.47419 	 -16.7462
|  9> C 	 -48.6938 	 6.4932 	 -18.0593
| 10> C 	 -50.1427 	 6.61385 	 -18.1258
| 11> C 	 -50.7639 	 6.54647 	 -16.8937
| 12> H 	 -50.7453 	 6.63645 	 -18.9935
| 13> C 	 -47.8672 	 6.46998 	 -19.342
| 14> H 	 -48.5794 	 6.29002 	 -20.1541
| 15> H 	 -47.2253 	 5.55039 	 -19.2791
| 16> C 	 -47.0222 	 7.66626 	 -19.722
| 17> H 	 -46.4778 	 7.87024 	 -18.7953
| 18> H 	 -46.4379 	 7.32993 	 -20.5599
| 19> C 	 -47.8163 	 8.87136 	 -20.0366
| 20> H 	 -47.2819 	 9.76744 	 -20.3463
| 21> H 	 -48.5351 	 8.64244 	 -20.7813
| 22> H 	 -48.2993 	 9.137 	 -19.039
| 23> S 	 -53.0098 	 7.7435 	 -15.7665
| 24> C 	 -54.4654 	 6.79109 	 -15.7125
| 25> C 	 -54.3732 	 5.69564 	 -16.6286
| 26> C 	 -53.0496 	 5.43997 	 -17.0779
| 27> C 	 -52.217 	 6.4132 	 -16.6179
| 28> H 	 -55.3284 	 5.13614 	 -16.8098
| 29> C 	 -52.7084 	 4.20776 	 -17.9389
| 30> H 	 -52.0638 	 4.54735 	 -18.6828
| 31> H 	 -53.5944 	 3.92035 	 -18.3798
| 32> C 	 -52.0351 	 3.05809 	 -17.2179
| 33> H 	 -50.9688 	 3.24099 	 -17.2889
| 34> H 	 -52.0338 	 2.18478 	 -17.8949
| 35> C 	 -52.4287 	 2.69548 	 -15.7705
| 36> H 	 -52.3468 	 3.52676 	 -15.0715
| 37> H 	 -51.8745 	 1.88882 	 -15.2315
| 38> H 	 -53.5444 	 2.4227 	 -15.7409
| 39> H 	 -47.1799 	 6.50049 	 -16.4251
| 40> H 	 -55.382 	 6.97606 	 -15.208
| 41> *
| 42>
| 43>                          ****END OF INPUT****

CARTESIAN COORDINATES (ANGSTROEM)
---------------------------------
  S    -49.617300    6.530990  -15.547400
  C    -48.259200    6.474190  -16.746200
  C    -48.693800    6.493200  -18.059300
  C    -50.142700    6.613850  -18.125800
  C    -50.763900    6.546470  -16.893700
  H    -50.745300    6.636450  -18.993500
  C    -47.867200    6.469980  -19.342000
  H    -48.579400    6.290020  -20.154100
  H    -47.225300    5.550390  -19.279100
  C    -47.022200    7.666260  -19.722000
  H    -46.477800    7.870240  -18.795300
  H    -46.437900    7.329930  -20.559900
  C    -47.816300    8.871360  -20.036600
  H    -47.281900    9.767440  -20.346300
  H    -48.535100    8.642440  -20.781300
  H    -48.299300    9.137000  -19.039000
  S    -53.009800    7.743500  -15.766500
  C    -54.465400    6.791090  -15.712500
  C    -54.373200    5.695640  -16.628600
  C    -53.049600    5.439970  -17.077900
  C    -52.217000    6.413200  -16.617900
  H    -55.328400    5.136140  -16.809800
  C    -52.708400    4.207760  -17.938900
  H    -52.063800    4.547350  -18.682800
  H    -53.594400    3.920350  -18.379800
  C    -52.035100    3.058090  -17.217900
  H    -50.968800    3.240990  -17.288900
  H    -52.033800    2.184780  -17.894900
  C    -52.428700    2.695480  -15.770500
  H    -52.346800    3.526760  -15.071500
  H    -51.874500    1.888820  -15.231500
  H    -53.544400    2.422700  -15.740900
  H    -47.179900    6.500490  -16.425100
  H    -55.382000    6.976060  -15.208000

 Total Charge           Charge          ....    0
 Multiplicity           Mult            ....    1
 Number of Electrons    NEL             ....  134
 Basis Dimension        Dim             ....  322

ORBITAL ENERGIES
----------------

  NO   OCC          E(Eh)            E(eV)
   0   2.0000     -88.969035     -2420.9705
   1   2.0000     -88.966633     -2420.9051
   2   2.0000     -10.329785      -281.0877
   3   2.0000     -10.323758      -280.9237
   4   2.0000     -10.323295      -280.9111
   5   2.0000     -10.317147      -280.7439
   6   2.0000     -10.307239      -280.4742
   7   2.0000     -10.302186      -280.3367
   8   2.0000     -10.298975      -280.2493
   9   2.0000     -10.295532      -280.1557
  10   2.0000     -10.294296      -280.1220
  11   2.0000     -10.284261      -279.8490
  12   2.0000     -10.283844      -279.8376
  13   2.0000     -10.281878      -279.7841
  14   2.0000     -10.281713      -279.7796
  15   2.0000     -10.273550      -279.5575
  16   2.0000      -8.083399      -219.9605
  17   2.0000      -8.080160      -219.8723
  18   2.0000      -6.041844      -164.4069
  19   2.0000      -6.038782      -164.3236
  20   2.0000      -6.038136      -164.3060
  21   2.0000      -6.034910      -164.2182
  22   2.0000      -6.034078      -164.1956
  23   2.0000      -6.030806      -164.1066
  24   2.0000      -1.001459       -27.2511
  25   2.0000      -0.976713       -26.5777
  26   2.0000      -0.919577       -25.0230
  27   2.0000      -0.908993       -24.7350
  28   2.0000      -0.862714       -23.4756
  29   2.0000      -0.847720       -23.0676
  30   2.0000      -0.841782       -22.9061
  31   2.0000      -0.807062       -21.9613
  32   2.0000      -0.789149       -21.4738
  33   2.0000      -0.775941       -21.1144
  34   2.0000      -0.706343       -19.2206
  35   2.0000      -0.700103       -19.0508
  36   2.0000      -0.687154       -18.6984
  37   2.0000      -0.659492       -17.9457
  38   2.0000      -0.637795       -17.3553
  39   2.0000      -0.609076       -16.5738
  40   2.0000      -0.587980       -15.9998
  41   2.0000      -0.579038       -15.7564
  42   2.0000      -0.561586       -15.2815
  43   2.0000      -0.553206       -15.0535
  44   2.0000      -0.541378       -14.7316
  45   2.0000      -0.536757       -14.6059
  46   2.0000      -0.513453       -13.9718
  47   2.0000      -0.509227       -13.8568
  48   2.0000      -0.493691       -13.4340
  49   2.0000      -0.490708       -13.3528
  50   2.0000      -0.481223       -13.0948
  51   2.0000      -0.480676       -13.0799
  52   2.0000      -0.471063       -12.8183
  53   2.0000      -0.463598       -12.6152
  54   2.0000      -0.460084       -12.5195
  55   2.0000      -0.449179       -12.2228
  56   2.0000      -0.443398       -12.0655
  57   2.0000      -0.440399       -11.9839
  58   2.0000      -0.434171       -11.8144
  59   2.0000      -0.423525       -11.5247
  60   2.0000      -0.420149       -11.4328
  61   2.0000      -0.411916       -11.2088
  62   2.0000      -0.402136       -10.9427
  63   2.0000      -0.336514        -9.1570
  64   2.0000      -0.332107        -9.0371
  65   2.0000      -0.327489        -8.9114
  66   2.0000      -0.299319        -8.1449
  67   0.0000       0.030064         0.8181
  68   0.0000       0.061579         1.6756
  69   0.0000       0.104077         2.8321
  70   0.0000       0.108495         2.9523
  71   0.0000       0.128359         3.4928

MULLIKEN ATOMIC CHARGES
-----------------------
   0 S :    0.103616
   1 C :   -0.150482
   2 C :   -0.100223
   3 C :    0.062284
   4 C :   -0.174061
   5 H :    0.001637
   6 C :    0.035825
   7 H :    0.010370
   8 H :    0.045285
   9 C :   -0.026534
  10 H :    0.024551
  11 H :    0.031470
  12 C :   -0.054952
  13 H :    0.037953
  14 H :    0.016593
  15 H :    0.045960
  16 S :    0.129177
  17 C :   -0.088751
  18 C :   -0.085988
  19 C :   -0.054639
  20 C :   -0.187590
  21 H :    0.036504
  22 C :    0.219429
  23 H :   -0.005342
  24 H :   -0.004419
  25 C :   -0.076731
  26 H :    0.023719
  27 H :    0.022842
  28 C :   -0.063636
  29 H :    0.039547
  30 H :    0.043329
  31 H :    0.030738
  32 H :    0.068217
  33 H :    0.044304
Sum of atomic charges:    0.0000000

LOEWDIN ATOMIC CHARGES
----------------------
   0 S :    0.373176
   1 C :   -0.188038
   2 C :   -0.064928
   3 C :   -0.058264
   4 C :   -0.184066
   5 H :    0.024346
   6 C :   -0.033909
   7 H :    0.024905
   8 H :    0.039987
   9 C :   -0.041653
  10 H :    0.026142
  11 H :    0.023534
  12 C :   -0.066629
  13 H :    0.026586
  14 H :    0.016179
  15 H :    0.039195
  16 S :    0.408077
  17 C :   -0.190097
  18 C :   -0.073920
  19 C :   -0.051956
  20 C :   -0.201693
  21 H :    0.037123
  22 C :   -0.008494
  23 H :    0.025741
  24 H :    0.019242
  25 C :   -0.047055
  26 H :    0.026124
  27 H :    0.028319
  28 C :   -0.076917
  29 H :    0.026388
  30 H :    0.032989
  31 H :    0.029553
  32 H :    0.037106
  33 H :    0.022905

  Mayer bond orders larger than 0.100000
B(  0-S ,  1-C ) :   1.1189 B(  0-S ,  4-C ) :   1.1427 B(  1-C ,  2-C ) :   1.6451
B(  1-C , 32-H ) :   0.9615 B(  2-C ,  3-C ) :   1.1997 B(  2-C ,  6-C ) :   1.0107
B(  3-C ,  4-C ) :   1.6200 B(  3-C ,  5-H ) :   0.9932 B(  4-C , 20-C ) :   1.0053
B(  6-C ,  7-H ) :   0.9387 B(  6-C ,  8-H ) :   0.9386 B(  6-C ,  9-C ) :   1.0734
B(  9-C , 10-H ) :   0.9557 B(  9-C , 11-H ) :   0.9493 B(  9-C , 12-C ) :   1.0845
B( 12-C , 13-H ) :   0.9724 B( 12-C , 14-H ) :   0.9739 B( 12-C , 15-H ) :   0.9723
B( 16-S , 17-C ) :   1.1532 B( 16-S , 20-C ) :   1.1506 B( 17-C , 18-C ) :   1.6133
B( 17-C , 20-C ) :   0.1029 B( 17-C , 33-H ) :   0.9721 B( 18-C , 19-C ) :   1.2295
B( 18-C , 21-H ) :   0.9795 B( 19-C , 20-C ) :   1.6069 B( 19-C , 22-C ) :   1.0273
B( 22-C , 23-H ) :   0.9168 B( 22-C , 24-H ) :   0.9221 B( 22-C , 25-C ) :   1.0786
B( 25-C , 26-H ) :   0.9507 B( 25-C , 27-H ) :   0.9524 B( 25-C , 28-C ) :   1.0744
B( 28-C , 29-H ) :   0.9679 B( 28-C , 30-H ) :   0.9757 B( 28-C , 31-H ) :   0.9759

Dispersion correction           -0.015500129
FINAL SINGLE POINT ENERGY     -1339.865246447961

DIPOLE MOMENT
-------------
                                X             Y             Z
Electronic contribution:     -8.34789       9.83462      15.19845
Nuclear contribution   :      8.42036     -10.10993     -15.75776
                        -----------------------------------------
Total Dipole Moment    :      0.07247      -0.27531      -0.55931
                        -----------------------------------------
Magnitude (a.u.)       :      0.62760
Magnitude (Debye)      :      1.59522

Rotational constants in cm-1:     0.021096     0.008318     0.007460
Rotational constants in MHz :   632.431782   249.360779   223.654712

                             ****ORCA TERMINATED NORMALLY****
TOTAL RUN TIME: 0 days 0 hours 0 minutes 23 seconds 273 msec
