                         Program Version 4.2.1 -  RELEASE  -
|  1> ! wB97X-D3 SP def2-SVP
|  2> %pal
|  3> nprocs 24
|  4> end
|  5>
|  6> * xyz 0 1
|  7> S 	 -117.771 	 36.1407 	 -121.198
|  8> C 	 -116.837 	 34.6385 	 -120.699
|  9> C 	 -117.635 	 33.9205 	 -119.833
| 10> C 	 -118.91 	 34.5969 	 -119.576
| 11> C 	 -119.077 	 35.8009 	 -120.181
| 12> H 	 -119.678 	 34.0249 	 -119.028
| 13> C 	 -117.287 	 32.5827 	 -119.165
| 14> H 	 -116.519 	 32.2221 	 -119.773
| 15> H 	 -118.095 	 31.9028 	 -119.429
| 16> C 	 -117.148 	 32.6075 	 -117.631
| 17> H 	 -116.488 	 31.7708 	 -117.378
| 18> H 	 -116.629 	 33.5397 	 -117.299
| 19> C 	 -118.483 	 32.5631 	 -116.84
| 20> H 	 -118.882 	 31.5861 	 -117.083
| 21> H 	 -118.241 	 32.4062 	 -115.759
| 22> H 	 -119.126 	 33.4496 	 -116.999
| 23> S 	 -120.824 	 37.4825 	 -121.426
| 24> C 	 -122.027 	 38.338 	 -120.539
| 25> C 	 -121.961 	 38.0454 	 -119.19
| 26> C 	 -120.959 	 37.0335 	 -118.906
| 27> C 	 -120.196 	 36.7085 	 -120.026
| 28> H 	 -122.601 	 38.5128 	 -118.475
| 29> C 	 -120.681 	 36.5003 	 -117.432
| 30> H 	 -119.599 	 36.7416 	 -117.246
| 31> H 	 -120.892 	 35.4592 	 -117.486
| 32> C 	 -121.382 	 37.1156 	 -116.202
| 33> H 	 -122.371 	 36.5955 	 -116.129
| 34> H 	 -121.433 	 38.1973 	 -116.31
| 35> C 	 -120.589 	 36.9615 	 -114.89
| 36> H 	 -121.161 	 37.3203 	 -114.014
| 37> H 	 -119.674 	 37.5441 	 -114.99
| 38> H 	 -120.43 	 35.8869 	 -114.636
| 39> H 	 -115.758 	 34.4872 	 -120.824
| 40> H 	 -122.825 	 39.0409 	 -120.869
| 41> *
| 42>
| 43>                          ****END OF INPUT****

CARTESIAN COORDINATES (ANGSTROEM)
---------------------------------
  S    -117.771000   36.140700  -121.198000
  C    -116.837000   34.638500  -120.699000
  C    -117.635000   33.920500  -119.833000
  C    -118.910000   34.596900  -119.576000
  C    -119.077000   35.800900  -120.181000
  H    -119.678000   34.024900  -119.028000
  C    -117.287000   32.582700  -119.165000
  H    -116.519000   32.222100  -119.773000
  H    -118.095000   31.902800  -119.429000
  C    -117.148000   32.607500  -117.631000
  H    -116.488000   31.770800  -117.378000
  H    -116.629000   33.539700  -117.299000
  C    -118.483000   32.563100  -116.840000
  H    -118.882000   31.586100  -117.083000
  H    -118.241000   32.406200  -115.759000
  H    -119.126000   33.449600  -116.999000
  S    -120.824000   37.482500  -121.426000
  C    -122.027000   38.338000  -120.539000
  C    -121.961000   38.045400  -119.190000
  C    -120.959000   37.033500  -118.906000
  C    -120.196000   36.708500  -120.026000
  H    -122.601000   38.512800  -118.475000
  C    -120.681000   36.500300  -117.432000
  H    -119.599000   36.741600  -117.246000
  H    -120.892000   35.459200  -117.486000
  C    -121.382000   37.115600  -116.202000
  H    -122.371000   36.595500  -116.129000
  H    -121.433000   38.197300  -116.310000
  C    -120.589000   36.961500  -114.890000
  H    -121.161000   37.320300  -114.014000
  H    -119.674000   37.544100  -114.990000
  H    -120.430000   35.886900  -114.636000
  H    -115.758000   34.487200  -120.824000
  H    -122.825000   39.040900  -120.869000

 Total Charge           Charge          ....    0
 Multiplicity           Mult            ....    1
 Number of Electrons    NEL             ....  134
 Basis Dimension        Dim             ....  322

ORBITAL ENERGIES
----------------

  NO   OCC          E(Eh)            E(eV)
   0   2.0000     -88.967814     -2420.9373
   1   2.0000     -88.962057     -2420.7806
   2   2.0000     -10.327009      -281.0122
   3   2.0000     -10.325479      -280.9706
   4   2.0000     -10.319004      -280.7944
   5   2.0000     -10.317623      -280.7568
   6   2.0000     -10.310313      -280.5579
   7   2.0000     -10.303632      -280.3761
   8   2.0000     -10.297310      -280.2041
   9   2.0000     -10.294258      -280.1210
  10   2.0000     -10.292947      -280.0853
  11   2.0000     -10.292680      -280.0781
  12   2.0000     -10.290448      -280.0173
  13   2.0000     -10.290249      -280.0119
  14   2.0000     -10.287141      -279.9273
  15   2.0000     -10.285507      -279.8829
  16   2.0000      -8.083314      -219.9582
  17   2.0000      -8.076962      -219.7853
  18   2.0000      -6.041859      -164.4074
  19   2.0000      -6.037546      -164.2900
  20   2.0000      -6.035682      -164.2393
  21   2.0000      -6.034156      -164.1977
  22   2.0000      -6.031432      -164.1236
  23   2.0000      -6.027465      -164.0157
  24   2.0000      -1.011163       -27.5151
  25   2.0000      -0.983242       -26.7554
  26   2.0000      -0.912200       -24.8222
  27   2.0000      -0.904903       -24.6237
  28   2.0000      -0.870551       -23.6889
  29   2.0000      -0.849637       -23.1198
  30   2.0000      -0.838178       -22.8080
  31   2.0000      -0.813779       -22.1440
  32   2.0000      -0.786693       -21.4070
  33   2.0000      -0.773768       -21.0553
  34   2.0000      -0.704666       -19.1749
  35   2.0000      -0.699355       -19.0304
  36   2.0000      -0.693036       -18.8585
  37   2.0000      -0.652123       -17.7452
  38   2.0000      -0.633835       -17.2475
  39   2.0000      -0.621106       -16.9011
  40   2.0000      -0.591269       -16.0892
  41   2.0000      -0.580569       -15.7981
  42   2.0000      -0.573185       -15.5971
  43   2.0000      -0.547863       -14.9081
  44   2.0000      -0.543728       -14.7956
  45   2.0000      -0.522237       -14.2108
  46   2.0000      -0.514473       -13.9995
  47   2.0000      -0.509165       -13.8551
  48   2.0000      -0.505384       -13.7522
  49   2.0000      -0.503121       -13.6906
  50   2.0000      -0.491445       -13.3729
  51   2.0000      -0.487153       -13.2561
  52   2.0000      -0.472067       -12.8456
  53   2.0000      -0.462289       -12.5795
  54   2.0000      -0.455887       -12.4053
  55   2.0000      -0.451884       -12.2964
  56   2.0000      -0.440812       -11.9951
  57   2.0000      -0.438426       -11.9302
  58   2.0000      -0.436239       -11.8707
  59   2.0000      -0.421522       -11.4702
  60   2.0000      -0.419183       -11.4066
  61   2.0000      -0.409959       -11.1555
  62   2.0000      -0.404930       -11.0187
  63   2.0000      -0.354444        -9.6449
  64   2.0000      -0.330988        -9.0066
  65   2.0000      -0.325680        -8.8622
  66   2.0000      -0.291357        -7.9282
  67   0.0000       0.029683         0.8077
  68   0.0000       0.078167         2.1270
  69   0.0000       0.105420         2.8686
  70   0.0000       0.123578         3.3627
  71   0.0000       0.130502         3.5511

MULLIKEN ATOMIC CHARGES
-----------------------
   0 S :    0.085058
   1 C :   -0.143870
   2 C :   -0.126928
   3 C :   -0.020024
   4 C :   -0.094854
   5 H :    0.022321
   6 C :    0.108049
   7 H :    0.000133
   8 H :    0.023348
   9 C :   -0.081860
  10 H :    0.036316
  11 H :    0.040691
  12 C :   -0.067839
  13 H :    0.024258
  14 H :    0.039241
  15 H :    0.061722
  16 S :    0.123756
  17 C :   -0.086632
  18 C :   -0.048658
  19 C :   -0.054307
  20 C :   -0.143981
  21 H :    0.013611
  22 C :    0.033994
  23 H :    0.048573
  24 H :    0.041057
  25 C :   -0.088135
  26 H :    0.040454
  27 H :    0.035858
  28 C :   -0.070512
  29 H :    0.039167
  30 H :    0.043258
  31 H :    0.035830
  32 H :    0.063364
  33 H :    0.067539
Sum of atomic charges:    0.0000000

LOEWDIN ATOMIC CHARGES
----------------------
   0 S :    0.388830
   1 C :   -0.188054
   2 C :   -0.051562
   3 C :   -0.081289
   4 C :   -0.203939
   5 H :    0.030564
   6 C :   -0.032236
   7 H :    0.022756
   8 H :    0.034264
   9 C :   -0.041559
  10 H :    0.027887
  11 H :    0.028359
  12 C :   -0.070909
  13 H :    0.023073
  14 H :    0.034481
  15 H :    0.029545
  16 S :    0.435409
  17 C :   -0.205796
  18 C :   -0.074467
  19 C :   -0.050513
  20 C :   -0.213372
  21 H :    0.027134
  22 C :   -0.033995
  23 H :    0.040577
  24 H :    0.024073
  25 C :   -0.047917
  26 H :    0.028305
  27 H :    0.024586
  28 C :   -0.067406
  29 H :    0.030494
  30 H :    0.026462
  31 H :    0.026662
  32 H :    0.035954
  33 H :    0.043600

  Mayer bond orders larger than 0.100000
B(  0-S ,  1-C ) :   1.0968 B(  0-S ,  4-C ) :   1.1555 B(  1-C ,  2-C ) :   1.6514
B(  1-C , 32-H ) :   0.9644 B(  2-C ,  3-C ) :   1.2211 B(  2-C ,  6-C ) :   1.0202
B(  3-C ,  4-C ) :   1.5745 B(  3-C ,  5-H ) :   0.9868 B(  4-C , 20-C ) :   1.0341
B(  6-C ,  7-H ) :   0.9378 B(  6-C ,  8-H ) :   0.9361 B(  6-C ,  9-C ) :   1.0401
B(  9-C , 10-H ) :   0.9577 B(  9-C , 11-H ) :   0.9607 B(  9-C , 12-C ) :   1.0762
B( 12-C , 13-H ) :   0.9735 B( 12-C , 14-H ) :   0.9700 B( 12-C , 15-H ) :   0.9678
B( 16-S , 17-C ) :   1.1620 B( 16-S , 20-C ) :   1.1492 B( 17-C , 18-C ) :   1.6010
B( 17-C , 33-H ) :   0.9584 B( 18-C , 19-C ) :   1.2620 B( 18-C , 21-H ) :   0.9896
B( 19-C , 20-C ) :   1.5979 B( 19-C , 22-C ) :   1.0011 B( 22-C , 23-H ) :   0.9479
B( 22-C , 24-H ) :   0.9333 B( 22-C , 25-C ) :   1.0755 B( 25-C , 26-H ) :   0.9515
B( 25-C , 27-H ) :   0.9529 B( 25-C , 28-C ) :   1.0897 B( 28-C , 29-H ) :   0.9726
B( 28-C , 30-H ) :   0.9732 B( 28-C , 31-H ) :   0.9753

Dispersion correction           -0.014408264
FINAL SINGLE POINT ENERGY     -1339.867948086729

DIPOLE MOMENT
-------------
                                X             Y             Z
Electronic contribution:      0.11576      12.95026     -29.95316
Nuclear contribution   :     -0.22497     -13.29618      30.75925
                        -----------------------------------------
Total Dipole Moment    :     -0.10921      -0.34593       0.80609
                        -----------------------------------------
Magnitude (a.u.)       :      0.88395
Magnitude (Debye)      :      2.24682

Rotational constants in cm-1:     0.015286     0.010693     0.006767
Rotational constants in MHz :   458.259717   320.558740   202.857573

                             ****ORCA TERMINATED NORMALLY****
TOTAL RUN TIME: 0 days 0 hours 0 minutes 20 seconds 808 msec
