                         Program Version 4.2.1 -  RELEASE  -
|  1> ! wB97X-D3 SP def2-SVP
|  2> %pal
|  3> nprocs 24
|  4> end
|  5>
|  6> * xyz 0 1
|  7> S 	 -48.2491 	 20.048 	 27.5637
|  8> C 	 -48.3087 	 19.8914 	 25.8409
|  9> C 	 -48.1011 	 18.5633 	 25.4574
| 10> C 	 -47.8703 	 17.7468 	 26.6201
| 11> C 	 -48.044 	 18.3404 	 27.8274
| 12> H 	 -47.6733 	 16.6523 	 26.5504
| 13> C 	 -48.0695 	 18.0835 	 24.0535
| 14> H 	 -47.6942 	 17.1036 	 24.0646
| 15> H 	 -47.4376 	 18.7786 	 23.4912
| 16> C 	 -49.4207 	 18.1964 	 23.3748
| 17> H 	 -49.8891 	 19.1487 	 23.5146
| 18> H 	 -49.2774 	 18.1009 	 22.2654
| 19> C 	 -50.5217 	 17.3213 	 23.9622
| 20> H 	 -50.8901 	 17.662 	 24.9457
| 21> H 	 -51.4813 	 17.3204 	 23.4131
| 22> H 	 -50.1875 	 16.2656 	 24.0724
| 23> S 	 -46.5342 	 18.1212 	 30.0041
| 24> C 	 -47.0078 	 17.0829 	 31.2515
| 25> C 	 -48.2194 	 16.4984 	 31.0171
| 26> C 	 -48.7442 	 16.7921 	 29.7704
| 27> C 	 -47.9254 	 17.7114 	 29.1286
| 28> H 	 -48.6412 	 15.8101 	 31.7632
| 29> C 	 -50.0663 	 16.2657 	 29.2601
| 30> H 	 -50.2591 	 15.4169 	 29.8454
| 31> H 	 -49.8436 	 15.8697 	 28.25
| 32> C 	 -51.2566 	 17.2465 	 29.285
| 33> H 	 -51.8964 	 16.9033 	 28.4605
| 34> H 	 -50.974 	 18.339 	 29.1139
| 35> C 	 -52.1946 	 17.2492 	 30.5706
| 36> H 	 -52.6874 	 16.279 	 30.6684
| 37> H 	 -52.9049 	 18.1758 	 30.5796
| 38> H 	 -51.6241 	 17.2273 	 31.4737
| 39> H 	 -48.3232 	 20.7738 	 25.1806
| 40> H 	 -46.4883 	 16.9334 	 32.2214
| 41> *
| 42>
| 43>                          ****END OF INPUT****

CARTESIAN COORDINATES (ANGSTROEM)
---------------------------------
  S    -48.249100   20.048000   27.563700
  C    -48.308700   19.891400   25.840900
  C    -48.101100   18.563300   25.457400
  C    -47.870300   17.746800   26.620100
  C    -48.044000   18.340400   27.827400
  H    -47.673300   16.652300   26.550400
  C    -48.069500   18.083500   24.053500
  H    -47.694200   17.103600   24.064600
  H    -47.437600   18.778600   23.491200
  C    -49.420700   18.196400   23.374800
  H    -49.889100   19.148700   23.514600
  H    -49.277400   18.100900   22.265400
  C    -50.521700   17.321300   23.962200
  H    -50.890100   17.662000   24.945700
  H    -51.481300   17.320400   23.413100
  H    -50.187500   16.265600   24.072400
  S    -46.534200   18.121200   30.004100
  C    -47.007800   17.082900   31.251500
  C    -48.219400   16.498400   31.017100
  C    -48.744200   16.792100   29.770400
  C    -47.925400   17.711400   29.128600
  H    -48.641200   15.810100   31.763200
  C    -50.066300   16.265700   29.260100
  H    -50.259100   15.416900   29.845400
  H    -49.843600   15.869700   28.250000
  C    -51.256600   17.246500   29.285000
  H    -51.896400   16.903300   28.460500
  H    -50.974000   18.339000   29.113900
  C    -52.194600   17.249200   30.570600
  H    -52.687400   16.279000   30.668400
  H    -52.904900   18.175800   30.579600
  H    -51.624100   17.227300   31.473700
  H    -48.323200   20.773800   25.180600
  H    -46.488300   16.933400   32.221400

 Total Charge           Charge          ....    0
 Multiplicity           Mult            ....    1
 Number of Electrons    NEL             ....  134
 Basis Dimension        Dim             ....  322

ORBITAL ENERGIES
----------------

  NO   OCC          E(Eh)            E(eV)
   0   2.0000     -88.966995     -2420.9150
   1   2.0000     -88.962492     -2420.7925
   2   2.0000     -10.321232      -280.8550
   3   2.0000     -10.315588      -280.7014
   4   2.0000     -10.313837      -280.6538
   5   2.0000     -10.309023      -280.5228
   6   2.0000     -10.298784      -280.2442
   7   2.0000     -10.295838      -280.1640
   8   2.0000     -10.293189      -280.0919
   9   2.0000     -10.291363      -280.0422
  10   2.0000     -10.289779      -279.9991
  11   2.0000     -10.286979      -279.9229
  12   2.0000     -10.285901      -279.8936
  13   2.0000     -10.285695      -279.8880
  14   2.0000     -10.284233      -279.8482
  15   2.0000     -10.278244      -279.6852
  16   2.0000      -8.083740      -219.9697
  17   2.0000      -8.077706      -219.8056
  18   2.0000      -6.041865      -164.4075
  19   2.0000      -6.037916      -164.3001
  20   2.0000      -6.036128      -164.2514
  21   2.0000      -6.034833      -164.2162
  22   2.0000      -6.032052      -164.1405
  23   2.0000      -6.028623      -164.0472
  24   2.0000      -1.018960       -27.7273
  25   2.0000      -0.992124       -26.9971
  26   2.0000      -0.918812       -25.0021
  27   2.0000      -0.905357       -24.6360
  28   2.0000      -0.870148       -23.6779
  29   2.0000      -0.849270       -23.1098
  30   2.0000      -0.844003       -22.9665
  31   2.0000      -0.813357       -22.1326
  32   2.0000      -0.785317       -21.3696
  33   2.0000      -0.772127       -21.0107
  34   2.0000      -0.705105       -19.1869
  35   2.0000      -0.702055       -19.1039
  36   2.0000      -0.687317       -18.7029
  37   2.0000      -0.661630       -18.0039
  38   2.0000      -0.640662       -17.4333
  39   2.0000      -0.614204       -16.7133
  40   2.0000      -0.594765       -16.1844
  41   2.0000      -0.575833       -15.6692
  42   2.0000      -0.552969       -15.0471
  43   2.0000      -0.545819       -14.8525
  44   2.0000      -0.534354       -14.5405
  45   2.0000      -0.531226       -14.4554
  46   2.0000      -0.520165       -14.1544
  47   2.0000      -0.517983       -14.0950
  48   2.0000      -0.501852       -13.6561
  49   2.0000      -0.498222       -13.5573
  50   2.0000      -0.483600       -13.1594
  51   2.0000      -0.475933       -12.9508
  52   2.0000      -0.470839       -12.8122
  53   2.0000      -0.464140       -12.6299
  54   2.0000      -0.462967       -12.5980
  55   2.0000      -0.446341       -12.1456
  56   2.0000      -0.444879       -12.1058
  57   2.0000      -0.442524       -12.0417
  58   2.0000      -0.429300       -11.6818
  59   2.0000      -0.425810       -11.5869
  60   2.0000      -0.417707       -11.3664
  61   2.0000      -0.411373       -11.1940
  62   2.0000      -0.410189       -11.1618
  63   2.0000      -0.341905        -9.3037
  64   2.0000      -0.332265        -9.0414
  65   2.0000      -0.322040        -8.7632
  66   2.0000      -0.300209        -8.1691
  67   0.0000       0.042103         1.1457
  68   0.0000       0.064135         1.7452
  69   0.0000       0.123802         3.3688
  70   0.0000       0.127684         3.4745
  71   0.0000       0.132484         3.6051

MULLIKEN ATOMIC CHARGES
-----------------------
   0 S :    0.112802
   1 C :   -0.144984
   2 C :   -0.123231
   3 C :    0.036798
   4 C :   -0.170258
   5 H :    0.020906
   6 C :    0.141908
   7 H :    0.008702
   8 H :    0.030714
   9 C :   -0.077729
  10 H :    0.021726
  11 H :    0.037353
  12 C :   -0.081133
  13 H :    0.039627
  14 H :    0.034338
  15 H :    0.026366
  16 S :    0.150517
  17 C :   -0.101205
  18 C :   -0.065647
  19 C :   -0.032836
  20 C :   -0.206309
  21 H :    0.018043
  22 C :    0.138656
  23 H :   -0.005847
  24 H :    0.029679
  25 C :   -0.087212
  26 H :    0.037069
  27 H :    0.053259
  28 C :   -0.072681
  29 H :    0.024887
  30 H :    0.061873
  31 H :    0.020593
  32 H :    0.062522
  33 H :    0.060733
Sum of atomic charges:   -0.0000000

LOEWDIN ATOMIC CHARGES
----------------------
   0 S :    0.414589
   1 C :   -0.208789
   2 C :   -0.064243
   3 C :   -0.068950
   4 C :   -0.210286
   5 H :    0.034679
   6 C :   -0.025257
   7 H :    0.023508
   8 H :    0.039100
   9 C :   -0.044506
  10 H :    0.023320
  11 H :    0.028105
  12 C :   -0.075126
  13 H :    0.029116
  14 H :    0.029222
  15 H :    0.020721
  16 S :    0.469624
  17 C :   -0.215186
  18 C :   -0.080759
  19 C :   -0.055555
  20 C :   -0.223295
  21 H :    0.034182
  22 C :   -0.027396
  23 H :    0.021903
  24 H :    0.038812
  25 C :   -0.042691
  26 H :    0.027103
  27 H :    0.033907
  28 C :   -0.076630
  29 H :    0.022271
  30 H :    0.042563
  31 H :    0.016973
  32 H :    0.032703
  33 H :    0.036263

  Mayer bond orders larger than 0.100000
B(  0-S ,  1-C ) :   1.1569 B(  0-S ,  4-C ) :   1.1512 B(  1-C ,  2-C ) :   1.5749
B(  1-C , 32-H ) :   0.9659 B(  2-C ,  3-C ) :   1.2571 B(  2-C ,  6-C ) :   1.0292
B(  3-C ,  4-C ) :   1.5898 B(  3-C ,  5-H ) :   0.9840 B(  4-C , 20-C ) :   1.0024
B(  6-C ,  7-H ) :   0.9394 B(  6-C ,  8-H ) :   0.9286 B(  6-C ,  9-C ) :   1.0754
B(  9-C , 10-H ) :   0.9562 B(  9-C , 11-H ) :   0.9570 B(  9-C , 12-C ) :   1.0643
B( 12-C , 13-H ) :   0.9723 B( 12-C , 14-H ) :   0.9727 B( 12-C , 15-H ) :   0.9780
B( 16-S , 17-C ) :   1.1807 B( 16-S , 20-C ) :   1.1981 B( 17-C , 18-C ) :   1.5822
B( 17-C , 20-C ) :   0.1046 B( 17-C , 33-H ) :   0.9602 B( 18-C , 19-C ) :   1.2905
B( 18-C , 21-H ) :   0.9861 B( 19-C , 20-C ) :   1.5573 B( 19-C , 22-C ) :   1.0410
B( 22-C , 23-H ) :   0.9247 B( 22-C , 24-H ) :   0.9252 B( 22-C , 25-C ) :   1.0481
B( 25-C , 26-H ) :   0.9578 B( 25-C , 27-H ) :   0.9648 B( 25-C , 28-C ) :   1.0654
B( 28-C , 29-H ) :   0.9742 B( 28-C , 30-H ) :   0.9754 B( 28-C , 31-H ) :   0.9776

Dispersion correction           -0.015058434
FINAL SINGLE POINT ENERGY     -1339.880914165768

DIPOLE MOMENT
-------------
                                X             Y             Z
Electronic contribution:     21.08873      10.12105      11.80645
Nuclear contribution   :    -21.30260     -10.47523     -12.02173
                        -----------------------------------------
Total Dipole Moment    :     -0.21387      -0.35418      -0.21527
                        -----------------------------------------
Magnitude (a.u.)       :      0.46640
Magnitude (Debye)      :      1.18549

Rotational constants in cm-1:     0.019264     0.009248     0.007414
Rotational constants in MHz :   577.507049   277.235571   222.256167

                             ****ORCA TERMINATED NORMALLY****
TOTAL RUN TIME: 0 days 0 hours 0 minutes 22 seconds 286 msec
