                         Program Version 4.2.1 -  RELEASE  -
|  1> ! wB97X-D3 SP def2-SVP
|  2> %pal
|  3> nprocs 24
|  4> end
|  5>
|  6> * xyz 0 1
|  7> S 	 -84.3693 	 2.42376 	 -114.891
|  8> C 	 -84.0354 	 4.06237 	 -115.282
|  9> C 	 -84.7942 	 4.89417 	 -114.528
| 10> C 	 -85.6659 	 4.19242 	 -113.616
| 11> C 	 -85.6623 	 2.85369 	 -113.752
| 12> H 	 -86.3045 	 4.63135 	 -112.841
| 13> C 	 -84.6863 	 6.44884 	 -114.574
| 14> H 	 -83.7186 	 6.69756 	 -114.195
| 15> H 	 -85.418 	 6.85403 	 -113.863
| 16> C 	 -84.9106 	 7.03503 	 -115.972
| 17> H 	 -84.29 	 6.44719 	 -116.697
| 18> H 	 -85.892 	 6.61537 	 -116.346
| 19> C 	 -84.8421 	 8.54484 	 -116.259
| 20> H 	 -85.6758 	 9.05289 	 -115.804
| 21> H 	 -83.9457 	 8.99255 	 -115.853
| 22> H 	 -84.8547 	 8.65132 	 -117.336
| 23> S 	 -85.7339 	 0.554389 	 -112.309
| 24> C 	 -87.2393 	 -0.0437251 	 -111.632
| 25> C 	 -88.2488 	 0.78155 	 -111.988
| 26> C 	 -87.8592 	 1.84499 	 -112.818
| 27> C 	 -86.5059 	 1.89749 	 -113.095
| 28> H 	 -89.2724 	 0.582824 	 -111.55
| 29> C 	 -88.8368 	 2.89999 	 -113.273
| 30> H 	 -88.5363 	 3.01092 	 -114.297
| 31> H 	 -88.617 	 3.86069 	 -112.82
| 32> C 	 -90.2771 	 2.53916 	 -113.348
| 33> H 	 -90.6202 	 2.60443 	 -112.365
| 34> H 	 -90.3274 	 1.48471 	 -113.57
| 35> C 	 -90.9999 	 3.32082 	 -114.407
| 36> H 	 -90.9633 	 4.31695 	 -114.276
| 37> H 	 -91.9935 	 3.00503 	 -114.635
| 38> H 	 -90.4951 	 3.22279 	 -115.367
| 39> H 	 -83.4526 	 4.46806 	 -116.1
| 40> H 	 -87.3795 	 -0.846326 	 -110.848
| 41> *
| 42>
| 43>                          ****END OF INPUT****

CARTESIAN COORDINATES (ANGSTROEM)
---------------------------------
  S    -84.369300    2.423760  -114.891000
  C    -84.035400    4.062370  -115.282000
  C    -84.794200    4.894170  -114.528000
  C    -85.665900    4.192420  -113.616000
  C    -85.662300    2.853690  -113.752000
  H    -86.304500    4.631350  -112.841000
  C    -84.686300    6.448840  -114.574000
  H    -83.718600    6.697560  -114.195000
  H    -85.418000    6.854030  -113.863000
  C    -84.910600    7.035030  -115.972000
  H    -84.290000    6.447190  -116.697000
  H    -85.892000    6.615370  -116.346000
  C    -84.842100    8.544840  -116.259000
  H    -85.675800    9.052890  -115.804000
  H    -83.945700    8.992550  -115.853000
  H    -84.854700    8.651320  -117.336000
  S    -85.733900    0.554389  -112.309000
  C    -87.239300   -0.043725  -111.632000
  C    -88.248800    0.781550  -111.988000
  C    -87.859200    1.844990  -112.818000
  C    -86.505900    1.897490  -113.095000
  H    -89.272400    0.582824  -111.550000
  C    -88.836800    2.899990  -113.273000
  H    -88.536300    3.010920  -114.297000
  H    -88.617000    3.860690  -112.820000
  C    -90.277100    2.539160  -113.348000
  H    -90.620200    2.604430  -112.365000
  H    -90.327400    1.484710  -113.570000
  C    -90.999900    3.320820  -114.407000
  H    -90.963300    4.316950  -114.276000
  H    -91.993500    3.005030  -114.635000
  H    -90.495100    3.222790  -115.367000
  H    -83.452600    4.468060  -116.100000
  H    -87.379500   -0.846326  -110.848000

 Total Charge           Charge          ....    0
 Multiplicity           Mult            ....    1
 Number of Electrons    NEL             ....  134
 Basis Dimension        Dim             ....  322

ORBITAL ENERGIES
----------------

  NO   OCC          E(Eh)            E(eV)
   0   2.0000     -88.963170     -2420.8109
   1   2.0000     -88.962610     -2420.7957
   2   2.0000     -10.327568      -281.0274
   3   2.0000     -10.323475      -280.9160
   4   2.0000     -10.319001      -280.7943
   5   2.0000     -10.310191      -280.5546
   6   2.0000     -10.300417      -280.2886
   7   2.0000     -10.300102      -280.2800
   8   2.0000     -10.294288      -280.1218
   9   2.0000     -10.294100      -280.1167
  10   2.0000     -10.293703      -280.1059
  11   2.0000     -10.292533      -280.0741
  12   2.0000     -10.280894      -279.7574
  13   2.0000     -10.279445      -279.7179
  14   2.0000     -10.274951      -279.5956
  15   2.0000     -10.265777      -279.3460
  16   2.0000      -8.078321      -219.8223
  17   2.0000      -8.077698      -219.8053
  18   2.0000      -6.036909      -164.2727
  19   2.0000      -6.036213      -164.2537
  20   2.0000      -6.032808      -164.1611
  21   2.0000      -6.032068      -164.1409
  22   2.0000      -6.028894      -164.0546
  23   2.0000      -6.028495      -164.0437
  24   2.0000      -1.013923       -27.5903
  25   2.0000      -0.991567       -26.9819
  26   2.0000      -0.922449       -25.1011
  27   2.0000      -0.907794       -24.7023
  28   2.0000      -0.877812       -23.8865
  29   2.0000      -0.854593       -23.2546
  30   2.0000      -0.845327       -23.0025
  31   2.0000      -0.823122       -22.3983
  32   2.0000      -0.785395       -21.3717
  33   2.0000      -0.776541       -21.1308
  34   2.0000      -0.716671       -19.5016
  35   2.0000      -0.708408       -19.2768
  36   2.0000      -0.698166       -18.9981
  37   2.0000      -0.652717       -17.7613
  38   2.0000      -0.640199       -17.4207
  39   2.0000      -0.617386       -16.7999
  40   2.0000      -0.598561       -16.2877
  41   2.0000      -0.578173       -15.7329
  42   2.0000      -0.570907       -15.5352
  43   2.0000      -0.555734       -15.1223
  44   2.0000      -0.532114       -14.4796
  45   2.0000      -0.527509       -14.3542
  46   2.0000      -0.521368       -14.1872
  47   2.0000      -0.515309       -14.0223
  48   2.0000      -0.510956       -13.9038
  49   2.0000      -0.504153       -13.7187
  50   2.0000      -0.495822       -13.4920
  51   2.0000      -0.481008       -13.0889
  52   2.0000      -0.479581       -13.0501
  53   2.0000      -0.474398       -12.9090
  54   2.0000      -0.462086       -12.5740
  55   2.0000      -0.449381       -12.2283
  56   2.0000      -0.444703       -12.1010
  57   2.0000      -0.437123       -11.8947
  58   2.0000      -0.434692       -11.8286
  59   2.0000      -0.423780       -11.5317
  60   2.0000      -0.417935       -11.3726
  61   2.0000      -0.412122       -11.2144
  62   2.0000      -0.407148       -11.0791
  63   2.0000      -0.357766        -9.7353
  64   2.0000      -0.331105        -9.0098
  65   2.0000      -0.327929        -8.9234
  66   2.0000      -0.293169        -7.9775
  67   0.0000       0.030554         0.8314
  68   0.0000       0.070559         1.9200
  69   0.0000       0.115306         3.1376
  70   0.0000       0.131499         3.5783
  71   0.0000       0.139481         3.7955

MULLIKEN ATOMIC CHARGES
-----------------------
   0 S :    0.110382
   1 C :   -0.112124
   2 C :   -0.117409
   3 C :    0.010240
   4 C :   -0.142257
   5 H :    0.018623
   6 C :    0.125780
   7 H :    0.030299
   8 H :    0.016323
   9 C :   -0.153974
  10 H :    0.015284
  11 H :    0.025615
  12 C :    0.006539
  13 H :    0.033173
  14 H :    0.027694
  15 H :    0.037241
  16 S :    0.096774
  17 C :   -0.097742
  18 C :   -0.078628
  19 C :   -0.047422
  20 C :   -0.147320
  21 H :    0.041826
  22 C :    0.056338
  23 H :    0.016206
  24 H :    0.033871
  25 C :   -0.032617
  26 H :    0.013116
  27 H :    0.021366
  28 C :    0.021359
  29 H :    0.002026
  30 H :    0.024435
  31 H :    0.016317
  32 H :    0.052814
  33 H :    0.075853
Sum of atomic charges:    0.0000000

LOEWDIN ATOMIC CHARGES
----------------------
   0 S :    0.401101
   1 C :   -0.203558
   2 C :   -0.064585
   3 C :   -0.063940
   4 C :   -0.186893
   5 H :    0.034740
   6 C :   -0.026471
   7 H :    0.026315
   8 H :    0.027455
   9 C :   -0.056704
  10 H :    0.020525
  11 H :    0.029060
  12 C :   -0.058039
  13 H :    0.024993
  14 H :    0.023869
  15 H :    0.031786
  16 S :    0.409012
  17 C :   -0.192235
  18 C :   -0.089246
  19 C :   -0.056318
  20 C :   -0.203293
  21 H :    0.044263
  22 C :   -0.033962
  23 H :    0.032743
  24 H :    0.027934
  25 C :   -0.037495
  26 H :    0.015355
  27 H :    0.026547
  28 C :   -0.049974
  29 H :    0.010455
  30 H :    0.025293
  31 H :    0.030932
  32 H :    0.033469
  33 H :    0.046867

  Mayer bond orders larger than 0.100000
B(  0-S ,  1-C ) :   1.1313 B(  0-S ,  4-C ) :   1.1296 B(  1-C ,  2-C ) :   1.6438
B(  1-C , 32-H ) :   0.9647 B(  2-C ,  3-C ) :   1.2226 B(  2-C ,  6-C ) :   1.0056
B(  3-C ,  4-C ) :   1.6066 B(  3-C ,  5-H ) :   0.9930 B(  4-C , 20-C ) :   1.0479
B(  6-C ,  7-H ) :   0.9382 B(  6-C ,  8-H ) :   0.9440 B(  6-C ,  9-C ) :   1.0554
B(  9-C , 10-H ) :   0.9566 B(  9-C , 11-H ) :   0.9526 B(  9-C , 12-C ) :   1.0786
B( 12-C , 13-H ) :   0.9750 B( 12-C , 14-H ) :   0.9745 B( 12-C , 15-H ) :   0.9719
B( 16-S , 17-C ) :   1.1570 B( 16-S , 20-C ) :   1.1412 B( 17-C , 18-C ) :   1.6092
B( 17-C , 20-C ) :   0.1020 B( 17-C , 33-H ) :   0.9544 B( 18-C , 19-C ) :   1.2569
B( 18-C , 21-H ) :   0.9787 B( 19-C , 20-C ) :   1.5941 B( 19-C , 22-C ) :   1.0216
B( 22-C , 23-H ) :   0.9294 B( 22-C , 24-H ) :   0.9244 B( 22-C , 25-C ) :   1.0794
B( 25-C , 26-H ) :   0.9422 B( 25-C , 27-H ) :   0.9520 B( 25-C , 28-C ) :   1.0862
B( 28-C , 29-H ) :   0.9720 B( 28-C , 30-H ) :   0.9707 B( 28-C , 31-H ) :   0.9674

Dispersion correction           -0.013390965
FINAL SINGLE POINT ENERGY     -1339.868917299337

DIPOLE MOMENT
-------------
                                X             Y             Z
Electronic contribution:     15.79082     -24.29249       8.85300
Nuclear contribution   :    -16.29322      24.92469      -8.80885
                        -----------------------------------------
Total Dipole Moment    :     -0.50240       0.63220       0.04415
                        -----------------------------------------
Magnitude (a.u.)       :      0.80872
Magnitude (Debye)      :      2.05561

Rotational constants in cm-1:     0.018399     0.008017     0.005984
Rotational constants in MHz :   551.590740   240.341967   179.405697

                             ****ORCA TERMINATED NORMALLY****
TOTAL RUN TIME: 0 days 0 hours 0 minutes 21 seconds 16 msec
