                         Program Version 4.2.1 -  RELEASE  -
|  1> ! wB97X-D3 SP def2-SVP
|  2> %pal
|  3> nprocs 24
|  4> end
|  5>
|  6> * xyz 0 1
|  7> S 	 -147.222 	 31.5582 	 -14.6832
|  8> C 	 -146.813 	 30.6141 	 -16.2013
|  9> C 	 -146.518 	 29.2892 	 -15.9546
| 10> C 	 -146.679 	 29.0502 	 -14.5086
| 11> C 	 -146.968 	 30.1695 	 -13.7192
| 12> H 	 -146.51 	 28.0958 	 -14.0974
| 13> C 	 -146.233 	 28.2429 	 -16.9404
| 14> H 	 -145.219 	 28.4872 	 -17.5166
| 15> H 	 -147.077 	 28.2398 	 -17.6248
| 16> C 	 -146.064 	 26.8202 	 -16.3136
| 17> H 	 -145.329 	 26.7798 	 -15.4556
| 18> H 	 -146.98 	 26.5389 	 -15.8902
| 19> C 	 -145.456 	 25.8702 	 -17.3427
| 20> H 	 -145.075 	 25.0178 	 -16.7798
| 21> H 	 -146.107 	 25.402 	 -18.0763
| 22> H 	 -144.531 	 26.2687 	 -17.7706
| 23> S 	 -148.872 	 30.6143 	 -11.7468
| 24> C 	 -148.536 	 30.1182 	 -10.13
| 25> C 	 -147.29 	 29.584 	 -9.98462
| 26> C 	 -146.541 	 29.5565 	 -11.2215
| 27> C 	 -147.297 	 30.097 	 -12.2745
| 28> H 	 -146.986 	 29.0477 	 -9.07023
| 29> C 	 -145.214 	 28.9025 	 -11.2941
| 30> H 	 -144.621 	 29.2795 	 -12.1235
| 31> H 	 -145.37 	 27.887 	 -11.6119
| 32> C 	 -144.366 	 29.1398 	 -10.0374
| 33> H 	 -143.434 	 28.5856 	 -10.1171
| 34> H 	 -144.881 	 28.6946 	 -9.09291
| 35> C 	 -144.052 	 30.6023 	 -9.77192
| 36> H 	 -143.53 	 31.0104 	 -10.6062
| 37> H 	 -143.387 	 30.6982 	 -8.93161
| 38> H 	 -144.928 	 31.2308 	 -9.67499
| 39> H 	 -146.79 	 30.8789 	 -17.2191
| 40> H 	 -149.257 	 30.163 	 -9.33766
| 41> *
| 42>
| 43>                          ****END OF INPUT****

CARTESIAN COORDINATES (ANGSTROEM)
---------------------------------
  S    -147.222000   31.558200  -14.683200
  C    -146.813000   30.614100  -16.201300
  C    -146.518000   29.289200  -15.954600
  C    -146.679000   29.050200  -14.508600
  C    -146.968000   30.169500  -13.719200
  H    -146.510000   28.095800  -14.097400
  C    -146.233000   28.242900  -16.940400
  H    -145.219000   28.487200  -17.516600
  H    -147.077000   28.239800  -17.624800
  C    -146.064000   26.820200  -16.313600
  H    -145.329000   26.779800  -15.455600
  H    -146.980000   26.538900  -15.890200
  C    -145.456000   25.870200  -17.342700
  H    -145.075000   25.017800  -16.779800
  H    -146.107000   25.402000  -18.076300
  H    -144.531000   26.268700  -17.770600
  S    -148.872000   30.614300  -11.746800
  C    -148.536000   30.118200  -10.130000
  C    -147.290000   29.584000   -9.984620
  C    -146.541000   29.556500  -11.221500
  C    -147.297000   30.097000  -12.274500
  H    -146.986000   29.047700   -9.070230
  C    -145.214000   28.902500  -11.294100
  H    -144.621000   29.279500  -12.123500
  H    -145.370000   27.887000  -11.611900
  C    -144.366000   29.139800  -10.037400
  H    -143.434000   28.585600  -10.117100
  H    -144.881000   28.694600   -9.092910
  C    -144.052000   30.602300   -9.771920
  H    -143.530000   31.010400  -10.606200
  H    -143.387000   30.698200   -8.931610
  H    -144.928000   31.230800   -9.674990
  H    -146.790000   30.878900  -17.219100
  H    -149.257000   30.163000   -9.337660

 Total Charge           Charge          ....    0
 Multiplicity           Mult            ....    1
 Number of Electrons    NEL             ....  134
 Basis Dimension        Dim             ....  322

ORBITAL ENERGIES
----------------

  NO   OCC          E(Eh)            E(eV)
   0   2.0000     -88.969581     -2420.9854
   1   2.0000     -88.964618     -2420.8503
   2   2.0000     -10.328967      -281.0655
   3   2.0000     -10.326215      -280.9906
   4   2.0000     -10.312299      -280.6119
   5   2.0000     -10.311693      -280.5954
   6   2.0000     -10.303931      -280.3842
   7   2.0000     -10.301970      -280.3309
   8   2.0000     -10.300015      -280.2777
   9   2.0000     -10.293656      -280.1046
  10   2.0000     -10.292130      -280.0631
  11   2.0000     -10.291823      -280.0547
  12   2.0000     -10.291367      -280.0423
  13   2.0000     -10.286981      -279.9230
  14   2.0000     -10.280825      -279.7555
  15   2.0000     -10.267979      -279.4059
  16   2.0000      -8.083270      -219.9569
  17   2.0000      -8.080031      -219.8688
  18   2.0000      -6.042026      -164.4119
  19   2.0000      -6.038492      -164.3157
  20   2.0000      -6.037948      -164.3009
  21   2.0000      -6.034419      -164.2049
  22   2.0000      -6.033801      -164.1881
  23   2.0000      -6.030846      -164.1077
  24   2.0000      -1.003857       -27.3163
  25   2.0000      -0.979740       -26.6601
  26   2.0000      -0.917207       -24.9585
  27   2.0000      -0.913709       -24.8633
  28   2.0000      -0.869795       -23.6683
  29   2.0000      -0.848668       -23.0934
  30   2.0000      -0.841905       -22.9094
  31   2.0000      -0.811028       -22.0692
  32   2.0000      -0.785004       -21.3611
  33   2.0000      -0.776024       -21.1167
  34   2.0000      -0.714829       -19.4515
  35   2.0000      -0.699022       -19.0214
  36   2.0000      -0.691420       -18.8145
  37   2.0000      -0.650884       -17.7115
  38   2.0000      -0.632473       -17.2105
  39   2.0000      -0.618384       -16.8271
  40   2.0000      -0.603631       -16.4256
  41   2.0000      -0.576704       -15.6929
  42   2.0000      -0.568391       -15.4667
  43   2.0000      -0.559067       -15.2130
  44   2.0000      -0.533361       -14.5135
  45   2.0000      -0.520901       -14.1744
  46   2.0000      -0.515665       -14.0320
  47   2.0000      -0.506754       -13.7895
  48   2.0000      -0.501375       -13.6431
  49   2.0000      -0.497082       -13.5263
  50   2.0000      -0.492349       -13.3975
  51   2.0000      -0.478225       -13.0132
  52   2.0000      -0.470075       -12.7914
  53   2.0000      -0.466267       -12.6878
  54   2.0000      -0.458878       -12.4867
  55   2.0000      -0.452314       -12.3081
  56   2.0000      -0.447459       -12.1760
  57   2.0000      -0.443119       -12.0579
  58   2.0000      -0.435614       -11.8537
  59   2.0000      -0.424634       -11.5549
  60   2.0000      -0.420361       -11.4386
  61   2.0000      -0.415511       -11.3066
  62   2.0000      -0.410136       -11.1604
  63   2.0000      -0.341175        -9.2838
  64   2.0000      -0.330543        -8.9945
  65   2.0000      -0.324988        -8.8434
  66   2.0000      -0.292743        -7.9659
  67   0.0000       0.035112         0.9555
  68   0.0000       0.071161         1.9364
  69   0.0000       0.107587         2.9276
  70   0.0000       0.120386         3.2759
  71   0.0000       0.130782         3.5588

MULLIKEN ATOMIC CHARGES
-----------------------
   0 S :    0.114114
   1 C :   -0.094328
   2 C :   -0.102524
   3 C :    0.032257
   4 C :   -0.134253
   5 H :   -0.017198
   6 C :    0.031446
   7 H :    0.059036
   8 H :    0.048351
   9 C :   -0.113710
  10 H :    0.044375
  11 H :    0.028770
  12 C :   -0.018939
  13 H :    0.017297
  14 H :    0.040033
  15 H :    0.030191
  16 S :    0.116689
  17 C :   -0.082250
  18 C :   -0.043441
  19 C :   -0.069509
  20 C :   -0.157066
  21 H :    0.032443
  22 C :    0.095499
  23 H :    0.020773
  24 H :    0.037365
  25 C :   -0.108927
  26 H :    0.026529
  27 H :    0.032407
  28 C :   -0.016913
  29 H :    0.015816
  30 H :    0.031178
  31 H :    0.042857
  32 H :    0.013329
  33 H :    0.048304
Sum of atomic charges:   -0.0000000

LOEWDIN ATOMIC CHARGES
----------------------
   0 S :    0.396278
   1 C :   -0.176346
   2 C :   -0.061463
   3 C :   -0.060525
   4 C :   -0.209331
   5 H :    0.015051
   6 C :   -0.040813
   7 H :    0.049349
   8 H :    0.038315
   9 C :   -0.040157
  10 H :    0.032070
  11 H :    0.017689
  12 C :   -0.067355
  13 H :    0.027253
  14 H :    0.025382
  15 H :    0.027811
  16 S :    0.419077
  17 C :   -0.188127
  18 C :   -0.076146
  19 C :   -0.053172
  20 C :   -0.206751
  21 H :    0.036680
  22 C :   -0.038398
  23 H :    0.033411
  24 H :    0.033354
  25 C :   -0.042807
  26 H :    0.023685
  27 H :    0.025262
  28 C :   -0.060208
  29 H :    0.022135
  30 H :    0.026243
  31 H :    0.027800
  32 H :    0.019061
  33 H :    0.025690

  Mayer bond orders larger than 0.100000
B(  0-S ,  1-C ) :   1.1099 B(  0-S ,  4-C ) :   1.1484 B(  1-C ,  2-C ) :   1.6538
B(  1-C , 32-H ) :   0.9706 B(  2-C ,  3-C ) :   1.2363 B(  2-C ,  6-C ) :   1.0184
B(  3-C ,  4-C ) :   1.5631 B(  3-C ,  5-H ) :   0.9889 B(  4-C , 20-C ) :   1.0184
B(  6-C ,  7-H ) :   0.9347 B(  6-C ,  8-H ) :   0.9323 B(  6-C ,  9-C ) :   1.0870
B(  9-C , 10-H ) :   0.9556 B(  9-C , 11-H ) :   0.9474 B(  9-C , 12-C ) :   1.0798
B( 12-C , 13-H ) :   0.9723 B( 12-C , 14-H ) :   0.9743 B( 12-C , 15-H ) :   0.9717
B( 16-S , 17-C ) :   1.1612 B( 16-S , 20-C ) :   1.1479 B( 17-C , 18-C ) :   1.6150
B( 17-C , 33-H ) :   0.9663 B( 18-C , 19-C ) :   1.2390 B( 18-C , 21-H ) :   0.9822
B( 19-C , 20-C ) :   1.5968 B( 19-C , 22-C ) :   1.0483 B( 22-C , 23-H ) :   0.9237
B( 22-C , 24-H ) :   0.9238 B( 22-C , 25-C ) :   1.0734 B( 25-C , 26-H ) :   0.9531
B( 25-C , 27-H ) :   0.9492 B( 25-C , 28-C ) :   1.0785 B( 28-C , 29-H ) :   0.9701
B( 28-C , 30-H ) :   0.9725 B( 28-C , 31-H ) :   0.9710

Dispersion correction           -0.014046101
FINAL SINGLE POINT ENERGY     -1339.872056402410

DIPOLE MOMENT
-------------
                                X             Y             Z
Electronic contribution:    -18.78805      18.44052       2.09432
Nuclear contribution   :     19.14299     -19.20912      -2.16893
                        -----------------------------------------
Total Dipole Moment    :      0.35494      -0.76860      -0.07461
                        -----------------------------------------
Magnitude (a.u.)       :      0.84988
Magnitude (Debye)      :      2.16022

Rotational constants in cm-1:     0.018413     0.008157     0.006832
Rotational constants in MHz :   552.016342   244.544062   204.820173

                             ****ORCA TERMINATED NORMALLY****
TOTAL RUN TIME: 0 days 0 hours 0 minutes 21 seconds 633 msec
