                         Program Version 4.2.1 -  RELEASE  -
|  1> ! wB97X-D3 SP def2-SVP
|  2> %pal
|  3> nprocs 24
|  4> end
|  5>
|  6> * xyz 0 1
|  7> S 	 -131.038 	 76.2257 	 -47.0527
|  8> C 	 -132.122 	 76.925 	 -48.23
|  9> C 	 -131.602 	 77.1672 	 -49.4688
| 10> C 	 -130.194 	 76.9381 	 -49.4654
| 11> C 	 -129.702 	 76.518 	 -48.2104
| 12> H 	 -129.452 	 77.0839 	 -50.264
| 13> C 	 -132.342 	 77.537 	 -50.7584
| 14> H 	 -131.685 	 78.1664 	 -51.3751
| 15> H 	 -133.19 	 78.2398 	 -50.4841
| 16> C 	 -133.089 	 76.3067 	 -51.4704
| 17> H 	 -133.774 	 75.89 	 -50.7376
| 18> H 	 -133.639 	 76.6426 	 -52.3494
| 19> C 	 -132.125 	 75.2536 	 -51.8362
| 20> H 	 -131.714 	 75.5798 	 -52.7745
| 21> H 	 -131.268 	 75.1321 	 -51.1569
| 22> H 	 -132.626 	 74.258 	 -52.0293
| 23> S 	 -127.848 	 77.0268 	 -46.2891
| 24> C 	 -126.218 	 76.3568 	 -46.3611
| 25> C 	 -126.048 	 75.7028 	 -47.5892
| 26> C 	 -127.225 	 75.7387 	 -48.4649
| 27> C 	 -128.316 	 76.2637 	 -47.84
| 28> H 	 -125.042 	 75.372 	 -47.8533
| 29> C 	 -127.078 	 75.1697 	 -49.9009
| 30> H 	 -125.994 	 75.0026 	 -50.0626
| 31> H 	 -127.402 	 75.8055 	 -50.7289
| 32> C 	 -127.714 	 73.8108 	 -50.0561
| 33> H 	 -128.8 	 73.9585 	 -50.0641
| 34> H 	 -127.466 	 73.261 	 -49.1663
| 35> C 	 -127.316 	 73.173 	 -51.3696
| 36> H 	 -127.819 	 72.2372 	 -51.4313
| 37> H 	 -126.254 	 73.0033 	 -51.5089
| 38> H 	 -127.613 	 73.874 	 -52.202
| 39> H 	 -133.15 	 77.0731 	 -47.9323
| 40> H 	 -125.613 	 76.235 	 -45.518
| 41> *
| 42>
| 43>                          ****END OF INPUT****

CARTESIAN COORDINATES (ANGSTROEM)
---------------------------------
  S    -131.038000   76.225700  -47.052700
  C    -132.122000   76.925000  -48.230000
  C    -131.602000   77.167200  -49.468800
  C    -130.194000   76.938100  -49.465400
  C    -129.702000   76.518000  -48.210400
  H    -129.452000   77.083900  -50.264000
  C    -132.342000   77.537000  -50.758400
  H    -131.685000   78.166400  -51.375100
  H    -133.190000   78.239800  -50.484100
  C    -133.089000   76.306700  -51.470400
  H    -133.774000   75.890000  -50.737600
  H    -133.639000   76.642600  -52.349400
  C    -132.125000   75.253600  -51.836200
  H    -131.714000   75.579800  -52.774500
  H    -131.268000   75.132100  -51.156900
  H    -132.626000   74.258000  -52.029300
  S    -127.848000   77.026800  -46.289100
  C    -126.218000   76.356800  -46.361100
  C    -126.048000   75.702800  -47.589200
  C    -127.225000   75.738700  -48.464900
  C    -128.316000   76.263700  -47.840000
  H    -125.042000   75.372000  -47.853300
  C    -127.078000   75.169700  -49.900900
  H    -125.994000   75.002600  -50.062600
  H    -127.402000   75.805500  -50.728900
  C    -127.714000   73.810800  -50.056100
  H    -128.800000   73.958500  -50.064100
  H    -127.466000   73.261000  -49.166300
  C    -127.316000   73.173000  -51.369600
  H    -127.819000   72.237200  -51.431300
  H    -126.254000   73.003300  -51.508900
  H    -127.613000   73.874000  -52.202000
  H    -133.150000   77.073100  -47.932300
  H    -125.613000   76.235000  -45.518000

 Total Charge           Charge          ....    0
 Multiplicity           Mult            ....    1
 Number of Electrons    NEL             ....  134
 Basis Dimension        Dim             ....  322

ORBITAL ENERGIES
----------------

  NO   OCC          E(Eh)            E(eV)
   0   2.0000     -88.970909     -2421.0215
   1   2.0000     -88.960204     -2420.7302
   2   2.0000     -10.334423      -281.2139
   3   2.0000     -10.328774      -281.0602
   4   2.0000     -10.316449      -280.7249
   5   2.0000     -10.314786      -280.6796
   6   2.0000     -10.308707      -280.5142
   7   2.0000     -10.304913      -280.4109
   8   2.0000     -10.304422      -280.3976
   9   2.0000     -10.301401      -280.3154
  10   2.0000     -10.300613      -280.2939
  11   2.0000     -10.294238      -280.1205
  12   2.0000     -10.289751      -279.9984
  13   2.0000     -10.278615      -279.6953
  14   2.0000     -10.277380      -279.6617
  15   2.0000     -10.273388      -279.5531
  16   2.0000      -8.085048      -220.0054
  17   2.0000      -8.074520      -219.7189
  18   2.0000      -6.043506      -164.4521
  19   2.0000      -6.039783      -164.3508
  20   2.0000      -6.035748      -164.2410
  21   2.0000      -6.033178      -164.1711
  22   2.0000      -6.029063      -164.0591
  23   2.0000      -6.025151      -163.9527
  24   2.0000      -1.001440       -27.2506
  25   2.0000      -0.978611       -26.6294
  26   2.0000      -0.913700       -24.8630
  27   2.0000      -0.908975       -24.7345
  28   2.0000      -0.868509       -23.6333
  29   2.0000      -0.853496       -23.2248
  30   2.0000      -0.843427       -22.9508
  31   2.0000      -0.810143       -22.0451
  32   2.0000      -0.779825       -21.2201
  33   2.0000      -0.772016       -21.0076
  34   2.0000      -0.704549       -19.1717
  35   2.0000      -0.698479       -19.0066
  36   2.0000      -0.689252       -18.7555
  37   2.0000      -0.667818       -18.1723
  38   2.0000      -0.642818       -17.4920
  39   2.0000      -0.612072       -16.6553
  40   2.0000      -0.597107       -16.2481
  41   2.0000      -0.574167       -15.6239
  42   2.0000      -0.566524       -15.4159
  43   2.0000      -0.544926       -14.8282
  44   2.0000      -0.540361       -14.7040
  45   2.0000      -0.525082       -14.2882
  46   2.0000      -0.519647       -14.1403
  47   2.0000      -0.514847       -14.0097
  48   2.0000      -0.503233       -13.6937
  49   2.0000      -0.492878       -13.4119
  50   2.0000      -0.491809       -13.3828
  51   2.0000      -0.480885       -13.0855
  52   2.0000      -0.472060       -12.8454
  53   2.0000      -0.462894       -12.5960
  54   2.0000      -0.456796       -12.4300
  55   2.0000      -0.445521       -12.1232
  56   2.0000      -0.443893       -12.0789
  57   2.0000      -0.434872       -11.8335
  58   2.0000      -0.431661       -11.7461
  59   2.0000      -0.424314       -11.5462
  60   2.0000      -0.419861       -11.4250
  61   2.0000      -0.416836       -11.3427
  62   2.0000      -0.413535       -11.2529
  63   2.0000      -0.345299        -9.3961
  64   2.0000      -0.335369        -9.1259
  65   2.0000      -0.325883        -8.8677
  66   2.0000      -0.292110        -7.9487
  67   0.0000       0.020008         0.5445
  68   0.0000       0.069080         1.8798
  69   0.0000       0.099782         2.7152
  70   0.0000       0.106320         2.8931
  71   0.0000       0.128987         3.5099

MULLIKEN ATOMIC CHARGES
-----------------------
   0 S :    0.121035
   1 C :   -0.128072
   2 C :   -0.056480
   3 C :    0.009765
   4 C :   -0.161089
   5 H :    0.019694
   6 C :    0.020766
   7 H :    0.034361
   8 H :    0.034539
   9 C :   -0.038460
  10 H :    0.027853
  11 H :    0.038583
  12 C :   -0.062791
  13 H :    0.011696
  14 H :    0.047509
  15 H :    0.041274
  16 S :    0.078375
  17 C :   -0.073435
  18 C :   -0.050478
  19 C :   -0.030575
  20 C :   -0.140911
  21 H :    0.029198
  22 C :    0.037822
  23 H :    0.012703
  24 H :    0.028188
  25 C :   -0.078171
  26 H :    0.038960
  27 H :    0.027730
  28 C :   -0.027113
  29 H :    0.034430
  30 H :    0.027126
  31 H :    0.029453
  32 H :    0.044539
  33 H :    0.051976
Sum of atomic charges:   -0.0000000

LOEWDIN ATOMIC CHARGES
----------------------
   0 S :    0.396737
   1 C :   -0.185839
   2 C :   -0.069576
   3 C :   -0.059061
   4 C :   -0.186384
   5 H :    0.034889
   6 C :   -0.033255
   7 H :    0.028833
   8 H :    0.037322
   9 C :   -0.034290
  10 H :    0.022847
  11 H :    0.026828
  12 C :   -0.073947
  13 H :    0.020349
  14 H :    0.027308
  15 H :    0.032312
  16 S :    0.378038
  17 C :   -0.175196
  18 C :   -0.068019
  19 C :   -0.056530
  20 C :   -0.183784
  21 H :    0.031571
  22 C :   -0.030645
  23 H :    0.029793
  24 H :    0.024530
  25 C :   -0.042245
  26 H :    0.026480
  27 H :    0.022486
  28 C :   -0.062372
  29 H :    0.024605
  30 H :    0.021510
  31 H :    0.031522
  32 H :    0.022930
  33 H :    0.020253

  Mayer bond orders larger than 0.100000
B(  0-S ,  1-C ) :   1.1436 B(  0-S ,  4-C ) :   1.1453 B(  1-C ,  2-C ) :   1.6184
B(  1-C , 32-H ) :   0.9669 B(  2-C ,  3-C ) :   1.2218 B(  2-C ,  6-C ) :   1.0192
B(  3-C ,  4-C ) :   1.5786 B(  3-C ,  5-H ) :   0.9896 B(  4-C , 20-C ) :   1.0529
B(  6-C ,  7-H ) :   0.9499 B(  6-C ,  8-H ) :   0.9413 B(  6-C ,  9-C ) :   1.0529
B(  9-C , 10-H ) :   0.9573 B(  9-C , 11-H ) :   0.9590 B(  9-C , 12-C ) :   1.0782
B( 12-C , 13-H ) :   0.9725 B( 12-C , 14-H ) :   0.9744 B( 12-C , 15-H ) :   0.9707
B( 16-S , 17-C ) :   1.1418 B( 16-S , 20-C ) :   1.1261 B( 17-C , 18-C ) :   1.6320
B( 17-C , 33-H ) :   0.9713 B( 18-C , 19-C ) :   1.2151 B( 18-C , 21-H ) :   0.9813
B( 19-C , 20-C ) :   1.6296 B( 19-C , 22-C ) :   1.0327 B( 22-C , 23-H ) :   0.9357
B( 22-C , 24-H ) :   0.9384 B( 22-C , 25-C ) :   1.0703 B( 25-C , 26-H ) :   0.9493
B( 25-C , 27-H ) :   0.9507 B( 25-C , 28-C ) :   1.0893 B( 28-C , 29-H ) :   0.9722
B( 28-C , 30-H ) :   0.9748 B( 28-C , 31-H ) :   0.9689

Dispersion correction           -0.014834936
FINAL SINGLE POINT ENERGY     -1339.875899395049

DIPOLE MOMENT
-------------
                                X             Y             Z
Electronic contribution:      3.07457      11.34285      27.80442
Nuclear contribution   :     -3.09638     -11.55154     -28.43479
                        -----------------------------------------
Total Dipole Moment    :     -0.02181      -0.20869      -0.63037
                        -----------------------------------------
Magnitude (a.u.)       :      0.66437
Magnitude (Debye)      :      1.68871

Rotational constants in cm-1:     0.017587     0.010020     0.006970
Rotational constants in MHz :   527.238129   300.402738   208.942067

                             ****ORCA TERMINATED NORMALLY****
TOTAL RUN TIME: 0 days 0 hours 0 minutes 22 seconds 303 msec
