                         Program Version 4.2.1 -  RELEASE  -
|  1> ! wB97X-D3 SP def2-SVP
|  2> %pal
|  3> nprocs 24
|  4> end
|  5>
|  6> * xyz 0 1
|  7> S 	 -127.281 	 69.2059 	 -63.6884
|  8> C 	 -125.826 	 69.863 	 -62.9594
|  9> C 	 -126.046 	 70.4024 	 -61.7224
| 10> C 	 -127.478 	 70.4392 	 -61.4567
| 11> C 	 -128.313 	 69.8055 	 -62.3808
| 12> H 	 -127.912 	 70.8914 	 -60.5392
| 13> C 	 -124.922 	 70.9905 	 -60.8314
| 14> H 	 -124.027 	 71.1331 	 -61.4627
| 15> H 	 -124.81 	 70.3149 	 -59.9895
| 16> C 	 -125.173 	 72.3883 	 -60.2705
| 17> H 	 -126.176 	 72.3663 	 -59.863
| 18> H 	 -124.536 	 72.5089 	 -59.3635
| 19> C 	 -124.99 	 73.4442 	 -61.3818
| 20> H 	 -125.168 	 74.4433 	 -61.0288
| 21> H 	 -123.945 	 73.5413 	 -61.6262
| 22> H 	 -125.607 	 73.2841 	 -62.2528
| 23> S 	 -130.419 	 68.4795 	 -61.118
| 24> C 	 -132.005 	 68.716 	 -61.7321
| 25> C 	 -132.033 	 69.4362 	 -62.8653
| 26> C 	 -130.733 	 69.8364 	 -63.335
| 27> C 	 -129.768 	 69.4781 	 -62.3998
| 28> H 	 -132.968 	 69.6646 	 -63.3901
| 29> C 	 -130.711 	 70.6884 	 -64.5581
| 30> H 	 -131.5 	 70.3037 	 -65.2469
| 31> H 	 -129.772 	 70.6015 	 -65.0034
| 32> C 	 -130.932 	 72.1884 	 -64.2162
| 33> H 	 -130.667 	 72.6317 	 -65.1507
| 34> H 	 -130.145 	 72.3037 	 -63.4767
| 35> C 	 -132.354 	 72.56 	 -63.6808
| 36> H 	 -132.342 	 73.5602 	 -63.2384
| 37> H 	 -132.63 	 71.9753 	 -62.817
| 38> H 	 -133.154 	 72.3892 	 -64.4149
| 39> H 	 -124.889 	 69.6525 	 -63.4415
| 40> H 	 -132.872 	 68.2794 	 -61.3055
| 41> *
| 42>
| 43>                          ****END OF INPUT****

CARTESIAN COORDINATES (ANGSTROEM)
---------------------------------
  S    -127.281000   69.205900  -63.688400
  C    -125.826000   69.863000  -62.959400
  C    -126.046000   70.402400  -61.722400
  C    -127.478000   70.439200  -61.456700
  C    -128.313000   69.805500  -62.380800
  H    -127.912000   70.891400  -60.539200
  C    -124.922000   70.990500  -60.831400
  H    -124.027000   71.133100  -61.462700
  H    -124.810000   70.314900  -59.989500
  C    -125.173000   72.388300  -60.270500
  H    -126.176000   72.366300  -59.863000
  H    -124.536000   72.508900  -59.363500
  C    -124.990000   73.444200  -61.381800
  H    -125.168000   74.443300  -61.028800
  H    -123.945000   73.541300  -61.626200
  H    -125.607000   73.284100  -62.252800
  S    -130.419000   68.479500  -61.118000
  C    -132.005000   68.716000  -61.732100
  C    -132.033000   69.436200  -62.865300
  C    -130.733000   69.836400  -63.335000
  C    -129.768000   69.478100  -62.399800
  H    -132.968000   69.664600  -63.390100
  C    -130.711000   70.688400  -64.558100
  H    -131.500000   70.303700  -65.246900
  H    -129.772000   70.601500  -65.003400
  C    -130.932000   72.188400  -64.216200
  H    -130.667000   72.631700  -65.150700
  H    -130.145000   72.303700  -63.476700
  C    -132.354000   72.560000  -63.680800
  H    -132.342000   73.560200  -63.238400
  H    -132.630000   71.975300  -62.817000
  H    -133.154000   72.389200  -64.414900
  H    -124.889000   69.652500  -63.441500
  H    -132.872000   68.279400  -61.305500

 Total Charge           Charge          ....    0
 Multiplicity           Mult            ....    1
 Number of Electrons    NEL             ....  134
 Basis Dimension        Dim             ....  322

ORBITAL ENERGIES
----------------

  NO   OCC          E(Eh)            E(eV)
   0   2.0000     -88.965897     -2420.8851
   1   2.0000     -88.960163     -2420.7291
   2   2.0000     -10.334946      -281.2282
   3   2.0000     -10.329452      -281.0787
   4   2.0000     -10.312369      -280.6138
   5   2.0000     -10.308187      -280.5000
   6   2.0000     -10.305126      -280.4167
   7   2.0000     -10.302224      -280.3378
   8   2.0000     -10.300374      -280.2874
   9   2.0000     -10.295222      -280.1472
  10   2.0000     -10.288438      -279.9626
  11   2.0000     -10.287708      -279.9428
  12   2.0000     -10.285830      -279.8917
  13   2.0000     -10.285508      -279.8829
  14   2.0000     -10.279505      -279.7196
  15   2.0000     -10.274090      -279.5722
  16   2.0000      -8.081240      -219.9017
  17   2.0000      -8.074748      -219.7251
  18   2.0000      -6.039745      -164.3498
  19   2.0000      -6.035716      -164.2402
  20   2.0000      -6.033258      -164.1733
  21   2.0000      -6.031929      -164.1371
  22   2.0000      -6.029218      -164.0634
  23   2.0000      -6.025573      -163.9642
  24   2.0000      -1.005687       -27.3661
  25   2.0000      -0.983430       -26.7605
  26   2.0000      -0.912031       -24.8176
  27   2.0000      -0.910757       -24.7830
  28   2.0000      -0.866839       -23.5879
  29   2.0000      -0.844709       -22.9857
  30   2.0000      -0.836660       -22.7667
  31   2.0000      -0.814532       -22.1645
  32   2.0000      -0.788177       -21.4474
  33   2.0000      -0.777124       -21.1466
  34   2.0000      -0.712836       -19.3972
  35   2.0000      -0.698621       -19.0104
  36   2.0000      -0.682728       -18.5780
  37   2.0000      -0.663357       -18.0509
  38   2.0000      -0.637446       -17.3458
  39   2.0000      -0.617902       -16.8140
  40   2.0000      -0.598107       -16.2753
  41   2.0000      -0.567027       -15.4296
  42   2.0000      -0.562545       -15.3076
  43   2.0000      -0.557538       -15.1714
  44   2.0000      -0.538127       -14.6432
  45   2.0000      -0.534398       -14.5417
  46   2.0000      -0.519169       -14.1273
  47   2.0000      -0.505789       -13.7632
  48   2.0000      -0.497991       -13.5510
  49   2.0000      -0.488927       -13.3044
  50   2.0000      -0.486569       -13.2402
  51   2.0000      -0.481692       -13.1075
  52   2.0000      -0.469876       -12.7860
  53   2.0000      -0.466711       -12.6998
  54   2.0000      -0.462270       -12.5790
  55   2.0000      -0.446502       -12.1499
  56   2.0000      -0.442051       -12.0288
  57   2.0000      -0.438651       -11.9363
  58   2.0000      -0.434311       -11.8182
  59   2.0000      -0.425270       -11.5722
  60   2.0000      -0.420121       -11.4321
  61   2.0000      -0.419805       -11.4235
  62   2.0000      -0.410866       -11.1802
  63   2.0000      -0.339951        -9.2505
  64   2.0000      -0.331985        -9.0338
  65   2.0000      -0.326691        -8.8897
  66   2.0000      -0.300106        -8.1663
  67   0.0000       0.037767         1.0277
  68   0.0000       0.071099         1.9347
  69   0.0000       0.112610         3.0643
  70   0.0000       0.121206         3.2982
  71   0.0000       0.128435         3.4949

MULLIKEN ATOMIC CHARGES
-----------------------
   0 S :    0.089747
   1 C :   -0.131630
   2 C :   -0.087645
   3 C :    0.008202
   4 C :   -0.159025
   5 H :    0.023227
   6 C :    0.071930
   7 H :    0.024381
   8 H :    0.041499
   9 C :   -0.084982
  10 H :    0.021082
  11 H :    0.033268
  12 C :   -0.032217
  13 H :    0.020614
  14 H :    0.022340
  15 H :    0.049855
  16 S :    0.126354
  17 C :   -0.067940
  18 C :   -0.046598
  19 C :   -0.042661
  20 C :   -0.181221
  21 H :    0.022486
  22 C :    0.083560
  23 H :    0.029602
  24 H :    0.000996
  25 C :   -0.041657
  26 H :    0.031543
  27 H :    0.031738
  28 C :   -0.049322
  29 H :    0.038585
  30 H :    0.030069
  31 H :    0.035704
  32 H :    0.048706
  33 H :    0.039410
Sum of atomic charges:   -0.0000000

LOEWDIN ATOMIC CHARGES
----------------------
   0 S :    0.389146
   1 C :   -0.187305
   2 C :   -0.067519
   3 C :   -0.073339
   4 C :   -0.189552
   5 H :    0.032790
   6 C :   -0.025931
   7 H :    0.031829
   8 H :    0.033351
   9 C :   -0.043561
  10 H :    0.017920
  11 H :    0.029605
  12 C :   -0.063624
  13 H :    0.024084
  14 H :    0.024894
  15 H :    0.030292
  16 S :    0.420154
  17 C :   -0.187678
  18 C :   -0.073483
  19 C :   -0.049515
  20 C :   -0.212062
  21 H :    0.033131
  22 C :   -0.028722
  23 H :    0.033068
  24 H :    0.016900
  25 C :   -0.025469
  26 H :    0.021914
  27 H :    0.029005
  28 C :   -0.070769
  29 H :    0.031567
  30 H :    0.025339
  31 H :    0.026666
  32 H :    0.023478
  33 H :    0.023394

  Mayer bond orders larger than 0.100000
B(  0-S ,  1-C ) :   1.1444 B(  0-S ,  4-C ) :   1.1458 B(  1-C ,  2-C ) :   1.6221
B(  1-C , 32-H ) :   0.9699 B(  2-C ,  3-C ) :   1.2180 B(  2-C ,  6-C ) :   1.0150
B(  3-C ,  4-C ) :   1.6087 B(  3-C ,  5-H ) :   0.9862 B(  4-C , 20-C ) :   1.0126
B(  6-C ,  7-H ) :   0.9506 B(  6-C ,  8-H ) :   0.9324 B(  6-C ,  9-C ) :   1.0762
B(  9-C , 10-H ) :   0.9547 B(  9-C , 11-H ) :   0.9549 B(  9-C , 12-C ) :   1.0699
B( 12-C , 13-H ) :   0.9724 B( 12-C , 14-H ) :   0.9712 B( 12-C , 15-H ) :   0.9779
B( 16-S , 17-C ) :   1.1507 B( 16-S , 20-C ) :   1.1453 B( 17-C , 18-C ) :   1.6268
B( 17-C , 33-H ) :   0.9672 B( 18-C , 19-C ) :   1.2323 B( 18-C , 21-H ) :   0.9816
B( 19-C , 20-C ) :   1.5897 B( 19-C , 22-C ) :   1.0604 B( 22-C , 23-H ) :   0.9308
B( 22-C , 24-H ) :   0.9166 B( 22-C , 25-C ) :   1.0652 B( 25-C , 26-H ) :   0.9602
B( 25-C , 27-H ) :   0.9540 B( 25-C , 28-C ) :   1.0785 B( 28-C , 29-H ) :   0.9711
B( 28-C , 30-H ) :   0.9654 B( 28-C , 31-H ) :   0.9752

Dispersion correction           -0.014751970
FINAL SINGLE POINT ENERGY     -1339.885456068206

DIPOLE MOMENT
-------------
                                X             Y             Z
Electronic contribution:     -3.30184     -22.35573       0.29414
Nuclear contribution   :      3.26766      22.76925      -0.18999
                        -----------------------------------------
Total Dipole Moment    :     -0.03418       0.41353       0.10415
                        -----------------------------------------
Magnitude (a.u.)       :      0.42781
Magnitude (Debye)      :      1.08740

Rotational constants in cm-1:     0.020278     0.007954     0.007199
Rotational constants in MHz :   607.924875   238.442421   215.831776

                             ****ORCA TERMINATED NORMALLY****
TOTAL RUN TIME: 0 days 0 hours 0 minutes 21 seconds 597 msec
