                         Program Version 4.2.1 -  RELEASE  -
|  1> ! wB97X-D3 SP def2-SVP
|  2> %pal
|  3> nprocs 24
|  4> end
|  5>
|  6> * xyz 0 1
|  7> S 	 -138.716 	 14.149 	 0.407811
|  8> C 	 -140.019 	 13.246 	 -0.327385
|  9> C 	 -139.494 	 12.2816 	 -1.19258
| 10> C 	 -138.076 	 12.2142 	 -1.221
| 11> C 	 -137.505 	 13.0873 	 -0.248319
| 12> H 	 -137.45 	 11.5088 	 -1.73138
| 13> C 	 -140.25 	 11.2489 	 -1.98579
| 14> H 	 -139.741 	 11.0747 	 -2.94307
| 15> H 	 -141.278 	 11.593 	 -2.17474
| 16> C 	 -140.284 	 9.83863 	 -1.44885
| 17> H 	 -139.287 	 9.42747 	 -1.55322
| 18> H 	 -140.531 	 9.88473 	 -0.370347
| 19> C 	 -141.461 	 8.95138 	 -2.03778
| 20> H 	 -141.457 	 7.99331 	 -1.64628
| 21> H 	 -142.399 	 9.36046 	 -1.83913
| 22> H 	 -141.471 	 8.80102 	 -3.14421
| 23> S 	 -135.357 	 14.8801 	 -0.615148
| 24> C 	 -133.893 	 14.4291 	 0.158721
| 25> C 	 -133.849 	 13.1318 	 0.583019
| 26> C 	 -135.091 	 12.4787 	 0.443267
| 27> C 	 -136.098 	 13.3545 	 -0.0618864
| 28> H 	 -132.967 	 12.7064 	 0.891566
| 29> C 	 -135.33 	 11.0708 	 0.921287
| 30> H 	 -136.351 	 10.9039 	 1.3809
| 31> H 	 -134.69 	 11.0254 	 1.80311
| 32> C 	 -134.993 	 9.98507 	 -0.0333395
| 33> H 	 -134.042 	 10.1967 	 -0.404798
| 34> H 	 -135.722 	 10.0781 	 -0.802745
| 35> C 	 -135.078 	 8.55244 	 0.64497
| 36> H 	 -134.385 	 8.49667 	 1.45909
| 37> H 	 -134.779 	 7.7687 	 0.0551844
| 38> H 	 -136.05 	 8.3745 	 1.06805
| 39> H 	 -141.036 	 13.2958 	 -0.0123554
| 40> H 	 -133.057 	 15.0993 	 -0.0490239
| 41> *
| 42>
| 43>                          ****END OF INPUT****

CARTESIAN COORDINATES (ANGSTROEM)
---------------------------------
  S    -138.716000   14.149000    0.407811
  C    -140.019000   13.246000   -0.327385
  C    -139.494000   12.281600   -1.192580
  C    -138.076000   12.214200   -1.221000
  C    -137.505000   13.087300   -0.248319
  H    -137.450000   11.508800   -1.731380
  C    -140.250000   11.248900   -1.985790
  H    -139.741000   11.074700   -2.943070
  H    -141.278000   11.593000   -2.174740
  C    -140.284000    9.838630   -1.448850
  H    -139.287000    9.427470   -1.553220
  H    -140.531000    9.884730   -0.370347
  C    -141.461000    8.951380   -2.037780
  H    -141.457000    7.993310   -1.646280
  H    -142.399000    9.360460   -1.839130
  H    -141.471000    8.801020   -3.144210
  S    -135.357000   14.880100   -0.615148
  C    -133.893000   14.429100    0.158721
  C    -133.849000   13.131800    0.583019
  C    -135.091000   12.478700    0.443267
  C    -136.098000   13.354500   -0.061886
  H    -132.967000   12.706400    0.891566
  C    -135.330000   11.070800    0.921287
  H    -136.351000   10.903900    1.380900
  H    -134.690000   11.025400    1.803110
  C    -134.993000    9.985070   -0.033340
  H    -134.042000   10.196700   -0.404798
  H    -135.722000   10.078100   -0.802745
  C    -135.078000    8.552440    0.644970
  H    -134.385000    8.496670    1.459090
  H    -134.779000    7.768700    0.055184
  H    -136.050000    8.374500    1.068050
  H    -141.036000   13.295800   -0.012355
  H    -133.057000   15.099300   -0.049024

 Total Charge           Charge          ....    0
 Multiplicity           Mult            ....    1
 Number of Electrons    NEL             ....  134
 Basis Dimension        Dim             ....  322

ORBITAL ENERGIES
----------------

  NO   OCC          E(Eh)            E(eV)
   0   2.0000     -88.968054     -2420.9438
   1   2.0000     -88.964947     -2420.8593
   2   2.0000     -10.329847      -281.0894
   3   2.0000     -10.326555      -280.9998
   4   2.0000     -10.314818      -280.6805
   5   2.0000     -10.313462      -280.6436
   6   2.0000     -10.303932      -280.3842
   7   2.0000     -10.302768      -280.3526
   8   2.0000     -10.296692      -280.1872
   9   2.0000     -10.289999      -280.0051
  10   2.0000     -10.288451      -279.9630
  11   2.0000     -10.287274      -279.9310
  12   2.0000     -10.286922      -279.9214
  13   2.0000     -10.280826      -279.7555
  14   2.0000     -10.275543      -279.6117
  15   2.0000     -10.272340      -279.5246
  16   2.0000      -8.082778      -219.9436
  17   2.0000      -8.080019      -219.8685
  18   2.0000      -6.041241      -164.3905
  19   2.0000      -6.038329      -164.3113
  20   2.0000      -6.037119      -164.2784
  21   2.0000      -6.034566      -164.2089
  22   2.0000      -6.033763      -164.1870
  23   2.0000      -6.030888      -164.1088
  24   2.0000      -1.004852       -27.3434
  25   2.0000      -0.984563       -26.7913
  26   2.0000      -0.915474       -24.9113
  27   2.0000      -0.912510       -24.8307
  28   2.0000      -0.867682       -23.6108
  29   2.0000      -0.852894       -23.2084
  30   2.0000      -0.847874       -23.0718
  31   2.0000      -0.810345       -22.0506
  32   2.0000      -0.788428       -21.4542
  33   2.0000      -0.775184       -21.0938
  34   2.0000      -0.713586       -19.4177
  35   2.0000      -0.701842       -19.0981
  36   2.0000      -0.694884       -18.9087
  37   2.0000      -0.662430       -18.0256
  38   2.0000      -0.644527       -17.5385
  39   2.0000      -0.618857       -16.8400
  40   2.0000      -0.602845       -16.4043
  41   2.0000      -0.574423       -15.6308
  42   2.0000      -0.571190       -15.5429
  43   2.0000      -0.558604       -15.2004
  44   2.0000      -0.526165       -14.3177
  45   2.0000      -0.523782       -14.2528
  46   2.0000      -0.516597       -14.0573
  47   2.0000      -0.511741       -13.9252
  48   2.0000      -0.507135       -13.7999
  49   2.0000      -0.496772       -13.5179
  50   2.0000      -0.490713       -13.3530
  51   2.0000      -0.478969       -13.0334
  52   2.0000      -0.475022       -12.9260
  53   2.0000      -0.468138       -12.7387
  54   2.0000      -0.464294       -12.6341
  55   2.0000      -0.456896       -12.4328
  56   2.0000      -0.442158       -12.0317
  57   2.0000      -0.439821       -11.9681
  58   2.0000      -0.436456       -11.8766
  59   2.0000      -0.430088       -11.7033
  60   2.0000      -0.427781       -11.6405
  61   2.0000      -0.414270       -11.2729
  62   2.0000      -0.410532       -11.1711
  63   2.0000      -0.339626        -9.2417
  64   2.0000      -0.331687        -9.0257
  65   2.0000      -0.328187        -8.9304
  66   2.0000      -0.292543        -7.9605
  67   0.0000       0.029211         0.7949
  68   0.0000       0.056179         1.5287
  69   0.0000       0.114668         3.1203
  70   0.0000       0.116931         3.1818
  71   0.0000       0.127668         3.4740

MULLIKEN ATOMIC CHARGES
-----------------------
   0 S :    0.119343
   1 C :   -0.111715
   2 C :   -0.063503
   3 C :    0.037383
   4 C :   -0.182877
   5 H :    0.013269
   6 C :    0.055732
   7 H :    0.027692
   8 H :    0.016990
   9 C :   -0.079824
  10 H :    0.028167
  11 H :    0.029960
  12 C :   -0.020890
  13 H :    0.020466
  14 H :    0.015691
  15 H :    0.026778
  16 S :    0.114866
  17 C :   -0.094054
  18 C :    0.006772
  19 C :   -0.017114
  20 C :   -0.174167
  21 H :   -0.015279
  22 C :    0.019921
  23 H :    0.037876
  24 H :    0.011466
  25 C :   -0.011146
  26 H :    0.009473
  27 H :    0.011270
  28 C :    0.002494
  29 H :    0.012107
  30 H :    0.017212
  31 H :    0.026975
  32 H :    0.045729
  33 H :    0.062938
Sum of atomic charges:   -0.0000000

LOEWDIN ATOMIC CHARGES
----------------------
   0 S :    0.424732
   1 C :   -0.200840
   2 C :   -0.059956
   3 C :   -0.054095
   4 C :   -0.199199
   5 H :    0.027302
   6 C :   -0.039147
   7 H :    0.035176
   8 H :    0.026938
   9 C :   -0.036006
  10 H :    0.019898
  11 H :    0.025538
  12 C :   -0.057795
  13 H :    0.018174
  14 H :    0.017356
  15 H :    0.027742
  16 S :    0.408192
  17 C :   -0.188218
  18 C :   -0.064466
  19 C :   -0.046262
  20 C :   -0.201438
  21 H :    0.019445
  22 C :   -0.039684
  23 H :    0.036988
  24 H :    0.026723
  25 C :   -0.024601
  26 H :    0.015748
  27 H :    0.016966
  28 C :   -0.051359
  29 H :    0.022984
  30 H :    0.014922
  31 H :    0.025714
  32 H :    0.025660
  33 H :    0.026867

  Mayer bond orders larger than 0.100000
B(  0-S ,  1-C ) :   1.1444 B(  0-S ,  4-C ) :   1.1801 B(  1-C ,  2-C ) :   1.5740
B(  1-C ,  4-C ) :   0.1085 B(  1-C , 32-H ) :   0.9740 B(  2-C ,  3-C ) :   1.2577
B(  2-C ,  6-C ) :   1.0437 B(  3-C ,  4-C ) :   1.5224 B(  3-C ,  5-H ) :   0.9940
B(  4-C , 20-C ) :   1.0583 B(  6-C ,  7-H ) :   0.9351 B(  6-C ,  8-H ) :   0.9438
B(  6-C ,  9-C ) :   1.0596 B(  9-C , 10-H ) :   0.9577 B(  9-C , 11-H ) :   0.9566
B(  9-C , 12-C ) :   1.0738 B( 12-C , 13-H ) :   0.9754 B( 12-C , 14-H ) :   0.9749
B( 12-C , 15-H ) :   0.9765 B( 16-S , 17-C ) :   1.1727 B( 16-S , 20-C ) :   1.1509
B( 17-C , 18-C ) :   1.5768 B( 17-C , 20-C ) :   0.1003 B( 17-C , 33-H ) :   0.9629
B( 18-C , 19-C ) :   1.2667 B( 18-C , 21-H ) :   1.0072 B( 19-C , 20-C ) :   1.5581
B( 19-C , 22-C ) :   1.0375 B( 22-C , 23-H ) :   0.9327 B( 22-C , 24-H ) :   0.9359
B( 22-C , 25-C ) :   1.0653 B( 25-C , 26-H ) :   0.9528 B( 25-C , 27-H ) :   0.9506
B( 25-C , 28-C ) :   1.0789 B( 28-C , 29-H ) :   0.9736 B( 28-C , 30-H ) :   0.9754
B( 28-C , 31-H ) :   0.9749

Dispersion correction           -0.014203518
FINAL SINGLE POINT ENERGY     -1339.864448132148

DIPOLE MOMENT
-------------
                                X             Y             Z
Electronic contribution:      6.45056      31.66768       3.49410
Nuclear contribution   :     -6.38674     -32.37776      -3.57696
                        -----------------------------------------
Total Dipole Moment    :      0.06383      -0.71008      -0.08286
                        -----------------------------------------
Magnitude (a.u.)       :      0.71774
Magnitude (Debye)      :      1.82435

Rotational constants in cm-1:     0.017360     0.009130     0.006501
Rotational constants in MHz :   520.434985   273.713364   194.889433

                             ****ORCA TERMINATED NORMALLY****
TOTAL RUN TIME: 0 days 0 hours 0 minutes 21 seconds 644 msec
