                         Program Version 4.2.1 -  RELEASE  -
|  1> ! wB97X-D3 SP def2-SVP
|  2> %pal
|  3> nprocs 24
|  4> end
|  5>
|  6> * xyz 0 1
|  7> S 	 -51.2781 	 -49.307 	 -75.7589
|  8> C 	 -52.928 	 -48.6897 	 -75.4666
|  9> C 	 -53.7727 	 -48.9055 	 -76.5719
| 10> C 	 -53.192 	 -49.6795 	 -77.5769
| 11> C 	 -51.8324 	 -49.8829 	 -77.3291
| 12> H 	 -53.6955 	 -50.063 	 -78.5014
| 13> C 	 -55.1987 	 -48.3788 	 -76.7206
| 14> H 	 -55.1038 	 -47.3549 	 -76.2104
| 15> H 	 -55.7414 	 -49.1296 	 -76.1409
| 16> C 	 -55.927 	 -48.3356 	 -78.0053
| 17> H 	 -55.3952 	 -47.6421 	 -78.7057
| 18> H 	 -55.8876 	 -49.342 	 -78.4868
| 19> C 	 -57.4253 	 -48.012 	 -77.959
| 20> H 	 -57.4722 	 -46.9354 	 -77.8796
| 21> H 	 -58.0393 	 -48.2798 	 -78.7628
| 22> H 	 -58.0055 	 -48.3807 	 -77.1528
| 23> S 	 -49.6022 	 -51.5567 	 -77.4477
| 24> C 	 -48.7126 	 -51.6773 	 -78.9131
| 25> C 	 -49.3303 	 -50.9721 	 -79.9159
| 26> C 	 -50.4572 	 -50.1857 	 -79.4909
| 27> C 	 -50.78 	 -50.4347 	 -78.1709
| 28> H 	 -48.8743 	 -50.9193 	 -80.8765
| 29> C 	 -51.134 	 -49.2565 	 -80.4929
| 30> H 	 -50.5839 	 -48.338 	 -80.5624
| 31> H 	 -52.0459 	 -48.9773 	 -79.9539
| 32> C 	 -51.6607 	 -49.6868 	 -81.8188
| 33> H 	 -50.8548 	 -49.9151 	 -82.4749
| 34> H 	 -52.0432 	 -48.7472 	 -82.296
| 35> C 	 -52.627 	 -50.8407 	 -81.9013
| 36> H 	 -53.5889 	 -50.6419 	 -81.6585
| 37> H 	 -52.2901 	 -51.6906 	 -81.3619
| 38> H 	 -52.742 	 -51.1117 	 -82.9925
| 39> H 	 -53.2037 	 -48.0652 	 -74.5655
| 40> H 	 -47.7909 	 -52.2387 	 -78.9961
| 41> *
| 42>
| 43>                          ****END OF INPUT****

CARTESIAN COORDINATES (ANGSTROEM)
---------------------------------
  S    -51.278100  -49.307000  -75.758900
  C    -52.928000  -48.689700  -75.466600
  C    -53.772700  -48.905500  -76.571900
  C    -53.192000  -49.679500  -77.576900
  C    -51.832400  -49.882900  -77.329100
  H    -53.695500  -50.063000  -78.501400
  C    -55.198700  -48.378800  -76.720600
  H    -55.103800  -47.354900  -76.210400
  H    -55.741400  -49.129600  -76.140900
  C    -55.927000  -48.335600  -78.005300
  H    -55.395200  -47.642100  -78.705700
  H    -55.887600  -49.342000  -78.486800
  C    -57.425300  -48.012000  -77.959000
  H    -57.472200  -46.935400  -77.879600
  H    -58.039300  -48.279800  -78.762800
  H    -58.005500  -48.380700  -77.152800
  S    -49.602200  -51.556700  -77.447700
  C    -48.712600  -51.677300  -78.913100
  C    -49.330300  -50.972100  -79.915900
  C    -50.457200  -50.185700  -79.490900
  C    -50.780000  -50.434700  -78.170900
  H    -48.874300  -50.919300  -80.876500
  C    -51.134000  -49.256500  -80.492900
  H    -50.583900  -48.338000  -80.562400
  H    -52.045900  -48.977300  -79.953900
  C    -51.660700  -49.686800  -81.818800
  H    -50.854800  -49.915100  -82.474900
  H    -52.043200  -48.747200  -82.296000
  C    -52.627000  -50.840700  -81.901300
  H    -53.588900  -50.641900  -81.658500
  H    -52.290100  -51.690600  -81.361900
  H    -52.742000  -51.111700  -82.992500
  H    -53.203700  -48.065200  -74.565500
  H    -47.790900  -52.238700  -78.996100

 Total Charge           Charge          ....    0
 Multiplicity           Mult            ....    1
 Number of Electrons    NEL             ....  134
 Basis Dimension        Dim             ....  322

ORBITAL ENERGIES
----------------

  NO   OCC          E(Eh)            E(eV)
   0   2.0000     -88.969595     -2420.9858
   1   2.0000     -88.962554     -2420.7942
   2   2.0000     -10.331500      -281.1344
   3   2.0000     -10.326194      -280.9900
   4   2.0000     -10.318755      -280.7876
   5   2.0000     -10.313848      -280.6541
   6   2.0000     -10.304045      -280.3873
   7   2.0000     -10.302448      -280.3439
   8   2.0000     -10.297287      -280.2034
   9   2.0000     -10.296582      -280.1842
  10   2.0000     -10.295149      -280.1452
  11   2.0000     -10.287520      -279.9376
  12   2.0000     -10.284541      -279.8566
  13   2.0000     -10.283623      -279.8316
  14   2.0000     -10.273569      -279.5580
  15   2.0000     -10.269035      -279.4346
  16   2.0000      -8.083283      -219.9573
  17   2.0000      -8.077622      -219.8033
  18   2.0000      -6.041675      -164.4023
  19   2.0000      -6.038029      -164.3031
  20   2.0000      -6.036161      -164.2523
  21   2.0000      -6.034125      -164.1969
  22   2.0000      -6.032031      -164.1399
  23   2.0000      -6.028388      -164.0408
  24   2.0000      -1.004526       -27.3345
  25   2.0000      -0.981055       -26.6959
  26   2.0000      -0.917770       -24.9738
  27   2.0000      -0.914682       -24.8898
  28   2.0000      -0.869383       -23.6571
  29   2.0000      -0.855150       -23.2698
  30   2.0000      -0.844198       -22.9718
  31   2.0000      -0.813703       -22.1420
  32   2.0000      -0.792743       -21.5716
  33   2.0000      -0.778008       -21.1707
  34   2.0000      -0.714467       -19.4416
  35   2.0000      -0.700140       -19.0518
  36   2.0000      -0.689261       -18.7557
  37   2.0000      -0.654741       -17.8164
  38   2.0000      -0.632609       -17.2142
  39   2.0000      -0.620343       -16.8804
  40   2.0000      -0.598762       -16.2932
  41   2.0000      -0.579203       -15.7609
  42   2.0000      -0.560540       -15.2531
  43   2.0000      -0.558757       -15.2045
  44   2.0000      -0.544494       -14.8164
  45   2.0000      -0.524510       -14.2726
  46   2.0000      -0.519166       -14.1272
  47   2.0000      -0.516767       -14.0620
  48   2.0000      -0.501276       -13.6404
  49   2.0000      -0.496901       -13.5214
  50   2.0000      -0.494764       -13.4632
  51   2.0000      -0.478008       -13.0073
  52   2.0000      -0.475826       -12.9479
  53   2.0000      -0.462544       -12.5865
  54   2.0000      -0.458327       -12.4717
  55   2.0000      -0.455360       -12.3910
  56   2.0000      -0.445823       -12.1315
  57   2.0000      -0.443833       -12.0773
  58   2.0000      -0.436957       -11.8902
  59   2.0000      -0.425074       -11.5669
  60   2.0000      -0.420081       -11.4310
  61   2.0000      -0.407016       -11.0755
  62   2.0000      -0.399690       -10.8761
  63   2.0000      -0.343768        -9.3544
  64   2.0000      -0.334191        -9.0938
  65   2.0000      -0.329539        -8.9672
  66   2.0000      -0.285245        -7.7619
  67   0.0000       0.025780         0.7015
  68   0.0000       0.072417         1.9706
  69   0.0000       0.101864         2.7719
  70   0.0000       0.122306         3.3281
  71   0.0000       0.129139         3.5141

MULLIKEN ATOMIC CHARGES
-----------------------
   0 S :    0.114194
   1 C :   -0.156483
   2 C :   -0.096198
   3 C :    0.018240
   4 C :   -0.155891
   5 H :    0.039155
   6 C :    0.056448
   7 H :    0.046331
   8 H :    0.042166
   9 C :   -0.105974
  10 H :    0.038037
  11 H :    0.032683
  12 C :   -0.004621
  13 H :    0.022822
  14 H :    0.021518
  15 H :    0.015878
  16 S :    0.098171
  17 C :   -0.091713
  18 C :   -0.024682
  19 C :   -0.052421
  20 C :   -0.160170
  21 H :    0.008676
  22 C :    0.095028
  23 H :    0.034525
  24 H :   -0.001946
  25 C :   -0.061999
  26 H :    0.010606
  27 H :    0.026120
  28 C :   -0.004949
  29 H :    0.003143
  30 H :    0.037933
  31 H :    0.028308
  32 H :    0.065926
  33 H :    0.061135
Sum of atomic charges:    0.0000000

LOEWDIN ATOMIC CHARGES
----------------------
   0 S :    0.398959
   1 C :   -0.212982
   2 C :   -0.060770
   3 C :   -0.073517
   4 C :   -0.176474
   5 H :    0.042463
   6 C :   -0.042585
   7 H :    0.042155
   8 H :    0.040808
   9 C :   -0.049938
  10 H :    0.028490
  11 H :    0.026118
  12 C :   -0.060616
  13 H :    0.027136
  14 H :    0.023082
  15 H :    0.022919
  16 S :    0.397590
  17 C :   -0.189032
  18 C :   -0.073557
  19 C :   -0.055481
  20 C :   -0.198653
  21 H :    0.025339
  22 C :   -0.037655
  23 H :    0.035557
  24 H :    0.030207
  25 C :   -0.044117
  26 H :    0.014843
  27 H :    0.034680
  28 C :   -0.055702
  29 H :    0.007401
  30 H :    0.026231
  31 H :    0.038522
  32 H :    0.037428
  33 H :    0.031149

  Mayer bond orders larger than 0.100000
B(  0-S ,  1-C ) :   1.1258 B(  0-S ,  4-C ) :   1.1730 B(  1-C ,  2-C ) :   1.6049
B(  1-C ,  4-C ) :   0.1118 B(  1-C , 32-H ) :   0.9636 B(  2-C ,  3-C ) :   1.2617
B(  2-C ,  6-C ) :   0.9929 B(  3-C ,  4-C ) :   1.5548 B(  3-C ,  5-H ) :   0.9740
B(  4-C , 20-C ) :   1.0363 B(  6-C ,  7-H ) :   0.9438 B(  6-C ,  8-H ) :   0.9259
B(  6-C ,  9-C ) :   1.0967 B(  9-C , 10-H ) :   0.9552 B(  9-C , 11-H ) :   0.9394
B(  9-C , 12-C ) :   1.0757 B( 12-C , 13-H ) :   0.9745 B( 12-C , 14-H ) :   0.9747
B( 12-C , 15-H ) :   0.9731 B( 16-S , 17-C ) :   1.1550 B( 16-S , 20-C ) :   1.1328
B( 17-C , 18-C ) :   1.6073 B( 17-C , 33-H ) :   0.9686 B( 18-C , 19-C ) :   1.2263
B( 18-C , 21-H ) :   0.9957 B( 19-C , 20-C ) :   1.6037 B( 19-C , 22-C ) :   1.0340
B( 22-C , 23-H ) :   0.9235 B( 22-C , 24-H ) :   0.9234 B( 22-C , 25-C ) :   1.0893
B( 25-C , 26-H ) :   0.9500 B( 25-C , 27-H ) :   0.9441 B( 25-C , 28-C ) :   1.0816
B( 28-C , 29-H ) :   0.9731 B( 28-C , 30-H ) :   0.9730 B( 28-C , 31-H ) :   0.9686

Dispersion correction           -0.014155689
FINAL SINGLE POINT ENERGY     -1339.859124238863

DIPOLE MOMENT
-------------
                                X             Y             Z
Electronic contribution:     24.53805      -8.16363      19.32890
Nuclear contribution   :    -24.99294       8.44296     -19.89657
                        -----------------------------------------
Total Dipole Moment    :     -0.45489       0.27933      -0.56767
                        -----------------------------------------
Magnitude (a.u.)       :      0.77923
Magnitude (Debye)      :      1.98065

Rotational constants in cm-1:     0.017647     0.009319     0.006486
Rotational constants in MHz :   529.049805   279.374907   194.433916

                             ****ORCA TERMINATED NORMALLY****
TOTAL RUN TIME: 0 days 0 hours 0 minutes 20 seconds 562 msec
