                         Program Version 4.2.1 -  RELEASE  -
|  1> ! wB97X-D3 SP def2-SVP
|  2> %pal
|  3> nprocs 24
|  4> end
|  5>
|  6> * xyz 0 1
|  7> S 	 -75.5169 	 -6.4949 	 4.82541
|  8> C 	 -73.9016 	 -6.2173 	 4.30958
|  9> C 	 -73.4717 	 -6.92459 	 3.20308
| 10> C 	 -74.5522 	 -7.70569 	 2.75468
| 11> C 	 -75.7087 	 -7.67947 	 3.51765
| 12> H 	 -74.3791 	 -8.35924 	 1.97324
| 13> C 	 -72.098 	 -6.81858 	 2.54368
| 14> H 	 -72.3333 	 -6.24101 	 1.63755
| 15> H 	 -71.805 	 -7.83913 	 2.19113
| 16> C 	 -70.8988 	 -6.11832 	 3.23343
| 17> H 	 -70.0845 	 -6.19682 	 2.46562
| 18> H 	 -70.9893 	 -5.06696 	 3.41663
| 19> C 	 -70.5222 	 -6.89359 	 4.43195
| 20> H 	 -71.2452 	 -7.12634 	 5.19163
| 21> H 	 -70.2187 	 -7.91649 	 4.08691
| 22> H 	 -69.6077 	 -6.55234 	 4.96097
| 23> S 	 -77.5698 	 -8.73529 	 1.74042
| 24> C 	 -78.5921 	 -10.0021 	 2.30448
| 25> C 	 -78.5493 	 -10.1204 	 3.68798
| 26> C 	 -77.5215 	 -9.35973 	 4.29398
| 27> C 	 -76.8269 	 -8.6075 	 3.36175
| 28> H 	 -79.2373 	 -10.7468 	 4.2656
| 29> C 	 -77.1452 	 -9.5724 	 5.75137
| 30> H 	 -78.0323 	 -9.66708 	 6.38839
| 31> H 	 -76.5618 	 -8.69127 	 6.08531
| 32> C 	 -76.3058 	 -10.8155 	 5.9276
| 33> H 	 -75.3875 	 -10.7211 	 5.41401
| 34> H 	 -76.7413 	 -11.7079 	 5.51034
| 35> C 	 -75.9427 	 -10.9629 	 7.37514
| 36> H 	 -76.8458 	 -11.3017 	 7.88182
| 37> H 	 -75.6263 	 -10.0007 	 7.71666
| 38> H 	 -75.1267 	 -11.6627 	 7.434
| 39> H 	 -73.3563 	 -5.37845 	 4.72316
| 40> H 	 -79.3203 	 -10.5969 	 1.63102
| 41> *
| 42>
| 43>                          ****END OF INPUT****

CARTESIAN COORDINATES (ANGSTROEM)
---------------------------------
  S    -75.516900   -6.494900    4.825410
  C    -73.901600   -6.217300    4.309580
  C    -73.471700   -6.924590    3.203080
  C    -74.552200   -7.705690    2.754680
  C    -75.708700   -7.679470    3.517650
  H    -74.379100   -8.359240    1.973240
  C    -72.098000   -6.818580    2.543680
  H    -72.333300   -6.241010    1.637550
  H    -71.805000   -7.839130    2.191130
  C    -70.898800   -6.118320    3.233430
  H    -70.084500   -6.196820    2.465620
  H    -70.989300   -5.066960    3.416630
  C    -70.522200   -6.893590    4.431950
  H    -71.245200   -7.126340    5.191630
  H    -70.218700   -7.916490    4.086910
  H    -69.607700   -6.552340    4.960970
  S    -77.569800   -8.735290    1.740420
  C    -78.592100  -10.002100    2.304480
  C    -78.549300  -10.120400    3.687980
  C    -77.521500   -9.359730    4.293980
  C    -76.826900   -8.607500    3.361750
  H    -79.237300  -10.746800    4.265600
  C    -77.145200   -9.572400    5.751370
  H    -78.032300   -9.667080    6.388390
  H    -76.561800   -8.691270    6.085310
  C    -76.305800  -10.815500    5.927600
  H    -75.387500  -10.721100    5.414010
  H    -76.741300  -11.707900    5.510340
  C    -75.942700  -10.962900    7.375140
  H    -76.845800  -11.301700    7.881820
  H    -75.626300  -10.000700    7.716660
  H    -75.126700  -11.662700    7.434000
  H    -73.356300   -5.378450    4.723160
  H    -79.320300  -10.596900    1.631020

 Total Charge           Charge          ....    0
 Multiplicity           Mult            ....    1
 Number of Electrons    NEL             ....  134
 Basis Dimension        Dim             ....  322

ORBITAL ENERGIES
----------------

  NO   OCC          E(Eh)            E(eV)
   0   2.0000     -88.969310     -2420.9780
   1   2.0000     -88.965059     -2420.8623
   2   2.0000     -10.329728      -281.0862
   3   2.0000     -10.325372      -280.9676
   4   2.0000     -10.320789      -280.8430
   5   2.0000     -10.309131      -280.5257
   6   2.0000     -10.302948      -280.3575
   7   2.0000     -10.299663      -280.2681
   8   2.0000     -10.297562      -280.2109
   9   2.0000     -10.294088      -280.1164
  10   2.0000     -10.291383      -280.0428
  11   2.0000     -10.288895      -279.9751
  12   2.0000     -10.287098      -279.9262
  13   2.0000     -10.276445      -279.6363
  14   2.0000     -10.269318      -279.4423
  15   2.0000     -10.267388      -279.3898
  16   2.0000      -8.083662      -219.9676
  17   2.0000      -8.079559      -219.8560
  18   2.0000      -6.042006      -164.4113
  19   2.0000      -6.038283      -164.3100
  20   2.0000      -6.038020      -164.3029
  21   2.0000      -6.034571      -164.2090
  22   2.0000      -6.034229      -164.1997
  23   2.0000      -6.030257      -164.0916
  24   2.0000      -1.005420       -27.3589
  25   2.0000      -0.985200       -26.8087
  26   2.0000      -0.916843       -24.9486
  27   2.0000      -0.916029       -24.9264
  28   2.0000      -0.865851       -23.5610
  29   2.0000      -0.858529       -23.3618
  30   2.0000      -0.852227       -23.1903
  31   2.0000      -0.806035       -21.9333
  32   2.0000      -0.782585       -21.2952
  33   2.0000      -0.769222       -20.9316
  34   2.0000      -0.708465       -19.2783
  35   2.0000      -0.699000       -19.0207
  36   2.0000      -0.689853       -18.7718
  37   2.0000      -0.660966       -17.9858
  38   2.0000      -0.641943       -17.4681
  39   2.0000      -0.611931       -16.6515
  40   2.0000      -0.596712       -16.2374
  41   2.0000      -0.574659       -15.6373
  42   2.0000      -0.571168       -15.5423
  43   2.0000      -0.558081       -15.1861
  44   2.0000      -0.533832       -14.5263
  45   2.0000      -0.526143       -14.3171
  46   2.0000      -0.512805       -13.9541
  47   2.0000      -0.509589       -13.8666
  48   2.0000      -0.507650       -13.8139
  49   2.0000      -0.498150       -13.5554
  50   2.0000      -0.490079       -13.3357
  51   2.0000      -0.474371       -12.9083
  52   2.0000      -0.470964       -12.8156
  53   2.0000      -0.463964       -12.6251
  54   2.0000      -0.459157       -12.4943
  55   2.0000      -0.447850       -12.1866
  56   2.0000      -0.444636       -12.0992
  57   2.0000      -0.438614       -11.9353
  58   2.0000      -0.437041       -11.8925
  59   2.0000      -0.424968       -11.5640
  60   2.0000      -0.419724       -11.4213
  61   2.0000      -0.418015       -11.3748
  62   2.0000      -0.415682       -11.3113
  63   2.0000      -0.346965        -9.4414
  64   2.0000      -0.331041        -9.0081
  65   2.0000      -0.329809        -8.9746
  66   2.0000      -0.285094        -7.7578
  67   0.0000       0.028920         0.7870
  68   0.0000       0.075650         2.0585
  69   0.0000       0.105107         2.8601
  70   0.0000       0.116574         3.1721
  71   0.0000       0.130842         3.5604

MULLIKEN ATOMIC CHARGES
-----------------------
   0 S :    0.122576
   1 C :   -0.143617
   2 C :   -0.075944
   3 C :    0.034448
   4 C :   -0.127633
   5 H :   -0.023914
   6 C :    0.024659
   7 H :    0.046198
   8 H :    0.036769
   9 C :   -0.033860
  10 H :    0.037578
  11 H :    0.031375
  12 C :   -0.063490
  13 H :    0.039054
  14 H :    0.015145
  15 H :    0.033059
  16 S :    0.113642
  17 C :   -0.121281
  18 C :   -0.043531
  19 C :   -0.026537
  20 C :   -0.168939
  21 H :    0.018981
  22 C :    0.055050
  23 H :    0.021140
  24 H :    0.018378
  25 C :   -0.062174
  26 H :    0.011873
  27 H :    0.017570
  28 C :    0.005885
  29 H :    0.027665
  30 H :    0.019486
  31 H :    0.028173
  32 H :    0.046058
  33 H :    0.086153
Sum of atomic charges:   -0.0000000

LOEWDIN ATOMIC CHARGES
----------------------
   0 S :    0.418182
   1 C :   -0.206488
   2 C :   -0.066151
   3 C :   -0.049851
   4 C :   -0.190875
   5 H :    0.016351
   6 C :   -0.031517
   7 H :    0.039694
   8 H :    0.036466
   9 C :   -0.043200
  10 H :    0.038674
  11 H :    0.020975
  12 C :   -0.075883
  13 H :    0.023013
  14 H :    0.029282
  15 H :    0.027104
  16 S :    0.404233
  17 C :   -0.208885
  18 C :   -0.075643
  19 C :   -0.058893
  20 C :   -0.186640
  21 H :    0.031716
  22 C :   -0.030391
  23 H :    0.029574
  24 H :    0.020400
  25 C :   -0.037728
  26 H :    0.019859
  27 H :    0.019545
  28 C :   -0.052044
  29 H :    0.024009
  30 H :    0.021448
  31 H :    0.024294
  32 H :    0.021974
  33 H :    0.047397

  Mayer bond orders larger than 0.100000
B(  0-S ,  1-C ) :   1.1596 B(  0-S ,  4-C ) :   1.1366 B(  1-C ,  2-C ) :   1.5966
B(  1-C , 32-H ) :   0.9553 B(  2-C ,  3-C ) :   1.2923 B(  2-C ,  6-C ) :   0.9948
B(  3-C ,  4-C ) :   1.5339 B(  3-C ,  5-H ) :   1.0019 B(  4-C , 20-C ) :   1.0582
B(  6-C ,  7-H ) :   0.9332 B(  6-C ,  8-H ) :   0.9421 B(  6-C ,  9-C ) :   1.0867
B(  9-C , 10-H ) :   0.9480 B(  9-C , 11-H ) :   0.9518 B(  9-C , 12-C ) :   1.0755
B( 12-C , 13-H ) :   0.9785 B( 12-C , 14-H ) :   0.9682 B( 12-C , 15-H ) :   0.9727
B( 16-S , 17-C ) :   1.1579 B( 16-S , 20-C ) :   1.1374 B( 17-C , 18-C ) :   1.5931
B( 17-C , 33-H ) :   0.9556 B( 18-C , 19-C ) :   1.2523 B( 18-C , 21-H ) :   0.9875
B( 19-C , 20-C ) :   1.5853 B( 19-C , 22-C ) :   1.0513 B( 22-C , 23-H ) :   0.9322
B( 22-C , 24-H ) :   0.9223 B( 22-C , 25-C ) :   1.0785 B( 25-C , 26-H ) :   0.9473
B( 25-C , 27-H ) :   0.9534 B( 25-C , 28-C ) :   1.0882 B( 28-C , 29-H ) :   0.9748
B( 28-C , 30-H ) :   0.9707 B( 28-C , 31-H ) :   0.9733

Dispersion correction           -0.014244699
FINAL SINGLE POINT ENERGY     -1339.881760174391

DIPOLE MOMENT
-------------
                                X             Y             Z
Electronic contribution:    -19.32525       7.05812     -12.09064
Nuclear contribution   :     19.78801      -7.24828      12.12160
                        -----------------------------------------
Total Dipole Moment    :      0.46276      -0.19016       0.03096
                        -----------------------------------------
Magnitude (a.u.)       :      0.50126
Magnitude (Debye)      :      1.27411

Rotational constants in cm-1:     0.019787     0.008229     0.006723
Rotational constants in MHz :   593.193079   246.702480   201.559118

                             ****ORCA TERMINATED NORMALLY****
TOTAL RUN TIME: 0 days 0 hours 0 minutes 22 seconds 501 msec
