                         Program Version 4.2.1 -  RELEASE  -
|  1> ! wB97X-D3 SP def2-SVP
|  2> %pal
|  3> nprocs 24
|  4> end
|  5>
|  6> * xyz 0 1
|  7> S 	 -35.355 	 0.428665 	 10.0606
|  8> C 	 -34.0041 	 -0.270535 	 10.9997
|  9> C 	 -34.442 	 -0.46424 	 12.2815
| 10> C 	 -35.8675 	 -0.258431 	 12.4921
| 11> C 	 -36.4889 	 0.289366 	 11.3872
| 12> H 	 -36.4389 	 -0.612233 	 13.2888
| 13> C 	 -33.5062 	 -0.908807 	 13.3353
| 14> H 	 -32.8588 	 -1.54572 	 12.9002
| 15> H 	 -34.1554 	 -1.53272 	 13.976
| 16> C 	 -32.7875 	 0.13517 	 14.2291
| 17> H 	 -32.2551 	 -0.497157 	 14.9301
| 18> H 	 -31.9002 	 0.509728 	 13.6968
| 19> C 	 -33.7351 	 1.18154 	 14.8291
| 20> H 	 -34.5563 	 0.699648 	 15.3653
| 21> H 	 -33.2231 	 1.89119 	 15.4655
| 22> H 	 -34.2234 	 1.6885 	 14.019
| 23> S 	 -38.5435 	 0.416777 	 9.50672
| 24> C 	 -40.1295 	 1.00868 	 9.89416
| 25> C 	 -40.1964 	 0.964861 	 11.3031
| 26> C 	 -38.9341 	 0.731627 	 12.0021
| 27> C 	 -37.8545 	 0.66634 	 11.0819
| 28> H 	 -41.1189 	 1.18702 	 11.7775
| 29> C 	 -38.8664 	 0.767429 	 13.4941
| 30> H 	 -39.3397 	 1.72471 	 13.7319
| 31> H 	 -37.9376 	 0.969908 	 13.9701
| 32> C 	 -39.6773 	 -0.324407 	 14.2511
| 33> H 	 -39.0655 	 -1.13785 	 14.3385
| 34> H 	 -40.5681 	 -0.651491 	 13.756
| 35> C 	 -40.2352 	 0.261652 	 15.5581
| 36> H 	 -40.7069 	 -0.545547 	 16.1055
| 37> H 	 -41.0138 	 0.992306 	 15.3756
| 38> H 	 -39.454 	 0.662159 	 16.2103
| 39> H 	 -32.9744 	 -0.430927 	 10.6571
| 40> H 	 -40.9721 	 1.1427 	 9.18992
| 41> *
| 42>
| 43>                          ****END OF INPUT****

CARTESIAN COORDINATES (ANGSTROEM)
---------------------------------
  S    -35.355000    0.428665   10.060600
  C    -34.004100   -0.270535   10.999700
  C    -34.442000   -0.464240   12.281500
  C    -35.867500   -0.258431   12.492100
  C    -36.488900    0.289366   11.387200
  H    -36.438900   -0.612233   13.288800
  C    -33.506200   -0.908807   13.335300
  H    -32.858800   -1.545720   12.900200
  H    -34.155400   -1.532720   13.976000
  C    -32.787500    0.135170   14.229100
  H    -32.255100   -0.497157   14.930100
  H    -31.900200    0.509728   13.696800
  C    -33.735100    1.181540   14.829100
  H    -34.556300    0.699648   15.365300
  H    -33.223100    1.891190   15.465500
  H    -34.223400    1.688500   14.019000
  S    -38.543500    0.416777    9.506720
  C    -40.129500    1.008680    9.894160
  C    -40.196400    0.964861   11.303100
  C    -38.934100    0.731627   12.002100
  C    -37.854500    0.666340   11.081900
  H    -41.118900    1.187020   11.777500
  C    -38.866400    0.767429   13.494100
  H    -39.339700    1.724710   13.731900
  H    -37.937600    0.969908   13.970100
  C    -39.677300   -0.324407   14.251100
  H    -39.065500   -1.137850   14.338500
  H    -40.568100   -0.651491   13.756000
  C    -40.235200    0.261652   15.558100
  H    -40.706900   -0.545547   16.105500
  H    -41.013800    0.992306   15.375600
  H    -39.454000    0.662159   16.210300
  H    -32.974400   -0.430927   10.657100
  H    -40.972100    1.142700    9.189920

 Total Charge           Charge          ....    0
 Multiplicity           Mult            ....    1
 Number of Electrons    NEL             ....  134
 Basis Dimension        Dim             ....  322

ORBITAL ENERGIES
----------------

  NO   OCC          E(Eh)            E(eV)
   0   2.0000     -88.963333     -2420.8154
   1   2.0000     -88.959418     -2420.7088
   2   2.0000     -10.332554      -281.1631
   3   2.0000     -10.328978      -281.0658
   4   2.0000     -10.325839      -280.9804
   5   2.0000     -10.314034      -280.6591
   6   2.0000     -10.311001      -280.5766
   7   2.0000     -10.298852      -280.2460
   8   2.0000     -10.297756      -280.2162
   9   2.0000     -10.292811      -280.0816
  10   2.0000     -10.290073      -280.0071
  11   2.0000     -10.287942      -279.9491
  12   2.0000     -10.282997      -279.8146
  13   2.0000     -10.280241      -279.7396
  14   2.0000     -10.279362      -279.7156
  15   2.0000     -10.276695      -279.6431
  16   2.0000      -8.078408      -219.8247
  17   2.0000      -8.073878      -219.7014
  18   2.0000      -6.037057      -164.2767
  19   2.0000      -6.032838      -164.1619
  20   2.0000      -6.032526      -164.1534
  21   2.0000      -6.028982      -164.0569
  22   2.0000      -6.028353      -164.0398
  23   2.0000      -6.024559      -163.9366
  24   2.0000      -1.006681       -27.3932
  25   2.0000      -0.981747       -26.7147
  26   2.0000      -0.915469       -24.9112
  27   2.0000      -0.913767       -24.8649
  28   2.0000      -0.869764       -23.6675
  29   2.0000      -0.853068       -23.2132
  30   2.0000      -0.838066       -22.8049
  31   2.0000      -0.819354       -22.2957
  32   2.0000      -0.784627       -21.3508
  33   2.0000      -0.773769       -21.0553
  34   2.0000      -0.715451       -19.4684
  35   2.0000      -0.709132       -19.2965
  36   2.0000      -0.700519       -19.0621
  37   2.0000      -0.660214       -17.9653
  38   2.0000      -0.637935       -17.3591
  39   2.0000      -0.621086       -16.9006
  40   2.0000      -0.602023       -16.3819
  41   2.0000      -0.566149       -15.4057
  42   2.0000      -0.565111       -15.3774
  43   2.0000      -0.557815       -15.1789
  44   2.0000      -0.542137       -14.7523
  45   2.0000      -0.531111       -14.4523
  46   2.0000      -0.520996       -14.1770
  47   2.0000      -0.513289       -13.9673
  48   2.0000      -0.510497       -13.8913
  49   2.0000      -0.499531       -13.5929
  50   2.0000      -0.494926       -13.4676
  51   2.0000      -0.479936       -13.0597
  52   2.0000      -0.476858       -12.9760
  53   2.0000      -0.469781       -12.7834
  54   2.0000      -0.458203       -12.4683
  55   2.0000      -0.446205       -12.1419
  56   2.0000      -0.442765       -12.0483
  57   2.0000      -0.440703       -11.9922
  58   2.0000      -0.440244       -11.9796
  59   2.0000      -0.430269       -11.7082
  60   2.0000      -0.427259       -11.6263
  61   2.0000      -0.409303       -11.1377
  62   2.0000      -0.398734       -10.8501
  63   2.0000      -0.358679        -9.7601
  64   2.0000      -0.324719        -8.8361
  65   2.0000      -0.319303        -8.6887
  66   2.0000      -0.285641        -7.7727
  67   0.0000       0.014942         0.4066
  68   0.0000       0.085076         2.3150
  69   0.0000       0.099892         2.7182
  70   0.0000       0.114558         3.1173
  71   0.0000       0.130943         3.5632

MULLIKEN ATOMIC CHARGES
-----------------------
   0 S :    0.076520
   1 C :   -0.112437
   2 C :   -0.118426
   3 C :    0.023421
   4 C :   -0.140383
   5 H :   -0.005413
   6 C :    0.088286
   7 H :   -0.010063
   8 H :    0.011732
   9 C :   -0.043379
  10 H :    0.017863
  11 H :    0.018128
  12 C :   -0.028772
  13 H :    0.023340
  14 H :    0.039899
  15 H :    0.045770
  16 S :    0.095718
  17 C :   -0.097441
  18 C :   -0.032003
  19 C :   -0.040324
  20 C :   -0.069884
  21 H :    0.006610
  22 C :    0.018748
  23 H :    0.024120
  24 H :    0.016519
  25 C :   -0.011276
  26 H :    0.010262
  27 H :    0.023739
  28 C :   -0.068405
  29 H :    0.028028
  30 H :    0.037974
  31 H :    0.034277
  32 H :    0.056437
  33 H :    0.080815
Sum of atomic charges:    0.0000000

LOEWDIN ATOMIC CHARGES
----------------------
   0 S :    0.381975
   1 C :   -0.188603
   2 C :   -0.061170
   3 C :   -0.069655
   4 C :   -0.172312
   5 H :    0.020352
   6 C :   -0.028550
   7 H :    0.014756
   8 H :    0.030413
   9 C :   -0.036409
  10 H :    0.022589
  11 H :    0.023235
  12 C :   -0.060731
  13 H :    0.025436
  14 H :    0.027345
  15 H :    0.028809
  16 S :    0.416326
  17 C :   -0.194511
  18 C :   -0.066944
  19 C :   -0.048915
  20 C :   -0.212732
  21 H :    0.020610
  22 C :   -0.040594
  23 H :    0.037369
  24 H :    0.026515
  25 C :   -0.022797
  26 H :    0.010439
  27 H :    0.025224
  28 C :   -0.060769
  29 H :    0.025332
  30 H :    0.025611
  31 H :    0.023393
  32 H :    0.035895
  33 H :    0.043068

  Mayer bond orders larger than 0.100000
B(  0-S ,  1-C ) :   1.1051 B(  0-S ,  4-C ) :   1.1532 B(  1-C ,  2-C ) :   1.6376
B(  1-C , 32-H ) :   0.9706 B(  2-C ,  3-C ) :   1.1991 B(  2-C ,  6-C ) :   1.0279
B(  3-C ,  4-C ) :   1.5847 B(  3-C ,  5-H ) :   0.9931 B(  4-C , 20-C ) :   1.0682
B(  6-C ,  7-H ) :   0.9324 B(  6-C ,  8-H ) :   0.9365 B(  6-C ,  9-C ) :   1.0726
B(  9-C , 10-H ) :   0.9524 B(  9-C , 11-H ) :   0.9540 B(  9-C , 12-C ) :   1.0673
B( 12-C , 13-H ) :   0.9747 B( 12-C , 14-H ) :   0.9739 B( 12-C , 15-H ) :   0.9711
B( 16-S , 17-C ) :   1.1603 B( 16-S , 20-C ) :   1.1479 B( 17-C , 18-C ) :   1.5641
B( 17-C , 20-C ) :   0.1045 B( 17-C , 33-H ) :   0.9699 B( 18-C , 19-C ) :   1.2617
B( 18-C , 21-H ) :   0.9930 B( 19-C , 20-C ) :   1.5347 B( 19-C , 22-C ) :   1.0416
B( 22-C , 23-H ) :   0.9411 B( 22-C , 24-H ) :   0.9394 B( 22-C , 25-C ) :   1.0403
B( 25-C , 26-H ) :   0.9566 B( 25-C , 27-H ) :   0.9600 B( 25-C , 28-C ) :   1.0802
B( 28-C , 29-H ) :   0.9729 B( 28-C , 30-H ) :   0.9763 B( 28-C , 31-H ) :   0.9773

Dispersion correction           -0.014337712
FINAL SINGLE POINT ENERGY     -1339.852610146356

DIPOLE MOMENT
-------------
                                X             Y             Z
Electronic contribution:     -1.76314       0.78287     -30.04221
Nuclear contribution   :      1.56725      -0.96812      30.81259
                        -----------------------------------------
Total Dipole Moment    :     -0.19589      -0.18525       0.77039
                        -----------------------------------------
Magnitude (a.u.)       :      0.81620
Magnitude (Debye)      :      2.07462

Rotational constants in cm-1:     0.017179     0.009712     0.006554
Rotational constants in MHz :   515.008373   291.162648   196.485774

                             ****ORCA TERMINATED NORMALLY****
TOTAL RUN TIME: 0 days 0 hours 0 minutes 22 seconds 56 msec
