                         Program Version 4.2.1 -  RELEASE  -
|  1> ! wB97X-D3 SP def2-SVP
|  2> %pal
|  3> nprocs 24
|  4> end
|  5>
|  6> * xyz 0 1
|  7> S 	 -37.799 	 2.98133 	 12.4876
|  8> C 	 -37.3978 	 2.90489 	 14.1934
|  9> C 	 -38.3779 	 2.24811 	 14.9605
| 10> C 	 -39.5092 	 1.95527 	 14.1613
| 11> C 	 -39.3096 	 2.16844 	 12.7955
| 12> H 	 -40.4791 	 1.56138 	 14.5225
| 13> C 	 -38.4204 	 2.01375 	 16.4693
| 14> H 	 -37.5131 	 1.57883 	 16.883
| 15> H 	 -39.1143 	 1.26984 	 16.789
| 16> C 	 -38.6534 	 3.13427 	 17.4259
| 17> H 	 -38.3772 	 2.74623 	 18.387
| 18> H 	 -37.9854 	 3.96224 	 17.1846
| 19> C 	 -40.1663 	 3.66682 	 17.3155
| 20> H 	 -40.4953 	 4.3418 	 18.0799
| 21> H 	 -40.3094 	 4.14344 	 16.3404
| 22> H 	 -40.8329 	 2.84624 	 17.3411
| 23> S 	 -39.3499 	 1.27036 	 10.2282
| 24> C 	 -40.857 	 1.3004 	 9.29384
| 25> C 	 -41.9152 	 1.49274 	 10.1257
| 26> C 	 -41.5974 	 1.82915 	 11.4896
| 27> C 	 -40.2287 	 1.89459 	 11.6498
| 28> H 	 -42.8928 	 1.45981 	 9.65843
| 29> C 	 -42.6797 	 2.1104 	 12.5201
| 30> H 	 -43.6173 	 2.54665 	 12.0246
| 31> H 	 -42.2975 	 2.97781 	 13.0985
| 32> C 	 -43.0487 	 0.982639 	 13.386
| 33> H 	 -42.1442 	 0.80024 	 13.9317
| 34> H 	 -43.4482 	 0.158835 	 12.8853
| 35> C 	 -44.0614 	 1.33758 	 14.4819
| 36> H 	 -43.6454 	 2.22704 	 14.9541
| 37> H 	 -44.431 	 0.654204 	 15.2489
| 38> H 	 -44.878 	 1.67206 	 14.0107
| 39> H 	 -36.4466 	 3.15342 	 14.6357
| 40> H 	 -40.9516 	 1.37609 	 8.2065
| 41> *
| 42>
| 43>                          ****END OF INPUT****

CARTESIAN COORDINATES (ANGSTROEM)
---------------------------------
  S    -37.799000    2.981330   12.487600
  C    -37.397800    2.904890   14.193400
  C    -38.377900    2.248110   14.960500
  C    -39.509200    1.955270   14.161300
  C    -39.309600    2.168440   12.795500
  H    -40.479100    1.561380   14.522500
  C    -38.420400    2.013750   16.469300
  H    -37.513100    1.578830   16.883000
  H    -39.114300    1.269840   16.789000
  C    -38.653400    3.134270   17.425900
  H    -38.377200    2.746230   18.387000
  H    -37.985400    3.962240   17.184600
  C    -40.166300    3.666820   17.315500
  H    -40.495300    4.341800   18.079900
  H    -40.309400    4.143440   16.340400
  H    -40.832900    2.846240   17.341100
  S    -39.349900    1.270360   10.228200
  C    -40.857000    1.300400    9.293840
  C    -41.915200    1.492740   10.125700
  C    -41.597400    1.829150   11.489600
  C    -40.228700    1.894590   11.649800
  H    -42.892800    1.459810    9.658430
  C    -42.679700    2.110400   12.520100
  H    -43.617300    2.546650   12.024600
  H    -42.297500    2.977810   13.098500
  C    -43.048700    0.982639   13.386000
  H    -42.144200    0.800240   13.931700
  H    -43.448200    0.158835   12.885300
  C    -44.061400    1.337580   14.481900
  H    -43.645400    2.227040   14.954100
  H    -44.431000    0.654204   15.248900
  H    -44.878000    1.672060   14.010700
  H    -36.446600    3.153420   14.635700
  H    -40.951600    1.376090    8.206500

 Total Charge           Charge          ....    0
 Multiplicity           Mult            ....    1
 Number of Electrons    NEL             ....  134
 Basis Dimension        Dim             ....  322

ORBITAL ENERGIES
----------------

  NO   OCC          E(Eh)            E(eV)
   0   2.0000     -88.974392     -2421.1163
   1   2.0000     -88.962645     -2420.7967
   2   2.0000     -10.333950      -281.2011
   3   2.0000     -10.333830      -281.1978
   4   2.0000     -10.319084      -280.7966
   5   2.0000     -10.315116      -280.6886
   6   2.0000     -10.307758      -280.4883
   7   2.0000     -10.307618      -280.4846
   8   2.0000     -10.299308      -280.2584
   9   2.0000     -10.299025      -280.2507
  10   2.0000     -10.292565      -280.0749
  11   2.0000     -10.288324      -279.9595
  12   2.0000     -10.287908      -279.9482
  13   2.0000     -10.278660      -279.6966
  14   2.0000     -10.274728      -279.5896
  15   2.0000     -10.268158      -279.4108
  16   2.0000      -8.088616      -220.1024
  17   2.0000      -8.076862      -219.7826
  18   2.0000      -6.047090      -164.5497
  19   2.0000      -6.043131      -164.4420
  20   2.0000      -6.039488      -164.3428
  21   2.0000      -6.035547      -164.2356
  22   2.0000      -6.031620      -164.1287
  23   2.0000      -6.027270      -164.0103
  24   2.0000      -1.005616       -27.3642
  25   2.0000      -0.982970       -26.7480
  26   2.0000      -0.922868       -25.1125
  27   2.0000      -0.915659       -24.9163
  28   2.0000      -0.864897       -23.5350
  29   2.0000      -0.854686       -23.2572
  30   2.0000      -0.845153       -22.9978
  31   2.0000      -0.812003       -22.0957
  32   2.0000      -0.788204       -21.4481
  33   2.0000      -0.779080       -21.1998
  34   2.0000      -0.708328       -19.2746
  35   2.0000      -0.706058       -19.2128
  36   2.0000      -0.693296       -18.8655
  37   2.0000      -0.663275       -18.0486
  38   2.0000      -0.639849       -17.4112
  39   2.0000      -0.619410       -16.8550
  40   2.0000      -0.597464       -16.2578
  41   2.0000      -0.582264       -15.8442
  42   2.0000      -0.576393       -15.6844
  43   2.0000      -0.547154       -14.8888
  44   2.0000      -0.539855       -14.6902
  45   2.0000      -0.526594       -14.3293
  46   2.0000      -0.524476       -14.2717
  47   2.0000      -0.509874       -13.8744
  48   2.0000      -0.505382       -13.7522
  49   2.0000      -0.495242       -13.4762
  50   2.0000      -0.490658       -13.3515
  51   2.0000      -0.480669       -13.0797
  52   2.0000      -0.473921       -12.8960
  53   2.0000      -0.465025       -12.6540
  54   2.0000      -0.457826       -12.4581
  55   2.0000      -0.456056       -12.4099
  56   2.0000      -0.447879       -12.1874
  57   2.0000      -0.439862       -11.9693
  58   2.0000      -0.431524       -11.7424
  59   2.0000      -0.427318       -11.6279
  60   2.0000      -0.422506       -11.4970
  61   2.0000      -0.414839       -11.2883
  62   2.0000      -0.411559       -11.1991
  63   2.0000      -0.348363        -9.4794
  64   2.0000      -0.337141        -9.1741
  65   2.0000      -0.330703        -8.9989
  66   2.0000      -0.290596        -7.9075
  67   0.0000       0.020288         0.5521
  68   0.0000       0.071590         1.9481
  69   0.0000       0.101486         2.7616
  70   0.0000       0.116100         3.1592
  71   0.0000       0.125153         3.4056

MULLIKEN ATOMIC CHARGES
-----------------------
   0 S :    0.132593
   1 C :   -0.110113
   2 C :   -0.057434
   3 C :    0.004615
   4 C :   -0.133976
   5 H :    0.007725
   6 C :    0.050200
   7 H :    0.018147
   8 H :    0.009486
   9 C :   -0.052542
  10 H :    0.024320
  11 H :    0.027020
  12 C :   -0.052268
  13 H :    0.034065
  14 H :    0.041791
  15 H :    0.008809
  16 S :    0.076792
  17 C :   -0.093031
  18 C :   -0.042378
  19 C :   -0.015848
  20 C :   -0.135151
  21 H :    0.017147
  22 C :   -0.003211
  23 H :    0.025896
  24 H :    0.034458
  25 C :   -0.005812
  26 H :    0.012991
  27 H :    0.020972
  28 C :    0.003253
  29 H :    0.008377
  30 H :    0.044332
  31 H :   -0.012341
  32 H :    0.044357
  33 H :    0.066759
Sum of atomic charges:    0.0000000

LOEWDIN ATOMIC CHARGES
----------------------
   0 S :    0.424974
   1 C :   -0.195828
   2 C :   -0.057834
   3 C :   -0.065388
   4 C :   -0.200756
   5 H :    0.032050
   6 C :   -0.038959
   7 H :    0.033850
   8 H :    0.027375
   9 C :   -0.027548
  10 H :    0.021325
  11 H :    0.021933
  12 C :   -0.066009
  13 H :    0.022373
  14 H :    0.030252
  15 H :    0.013775
  16 S :    0.369178
  17 C :   -0.183312
  18 C :   -0.067580
  19 C :   -0.059513
  20 C :   -0.172547
  21 H :    0.031783
  22 C :   -0.036486
  23 H :    0.033512
  24 H :    0.035833
  25 C :   -0.032005
  26 H :    0.019564
  27 H :    0.019601
  28 C :   -0.057167
  29 H :    0.024555
  30 H :    0.031533
  31 H :    0.005061
  32 H :    0.026004
  33 H :    0.036402

  Mayer bond orders larger than 0.100000
B(  0-S ,  1-C ) :   1.1483 B(  0-S ,  4-C ) :   1.1654 B(  1-C ,  2-C ) :   1.5916
B(  1-C ,  4-C ) :   0.1077 B(  1-C , 32-H ) :   0.9650 B(  2-C ,  3-C ) :   1.2648
B(  2-C ,  6-C ) :   1.0223 B(  3-C ,  4-C ) :   1.5541 B(  3-C ,  5-H ) :   0.9827
B(  4-C , 20-C ) :   1.0150 B(  6-C ,  7-H ) :   0.9349 B(  6-C ,  8-H ) :   0.9404
B(  6-C ,  9-C ) :   1.0845 B(  9-C , 10-H ) :   0.9559 B(  9-C , 11-H ) :   0.9572
B(  9-C , 12-C ) :   1.0616 B( 12-C , 13-H ) :   0.9785 B( 12-C , 14-H ) :   0.9771
B( 12-C , 15-H ) :   0.9774 B( 16-S , 17-C ) :   1.1146 B( 16-S , 20-C ) :   1.1339
B( 17-C , 18-C ) :   1.6656 B( 17-C , 33-H ) :   0.9620 B( 18-C , 19-C ) :   1.1997
B( 18-C , 21-H ) :   0.9874 B( 19-C , 20-C ) :   1.6353 B( 19-C , 22-C ) :   1.0354
B( 22-C , 23-H ) :   0.9328 B( 22-C , 24-H ) :   0.9310 B( 22-C , 25-C ) :   1.0803
B( 25-C , 26-H ) :   0.9497 B( 25-C , 27-H ) :   0.9491 B( 25-C , 28-C ) :   1.0742
B( 28-C , 29-H ) :   0.9691 B( 28-C , 30-H ) :   0.9763 B( 28-C , 31-H ) :   0.9680

Dispersion correction           -0.014638179
FINAL SINGLE POINT ENERGY     -1339.854583808472

DIPOLE MOMENT
-------------
                                X             Y             Z
Electronic contribution:     18.02428      -1.60548     -26.29585
Nuclear contribution   :    -18.48874       1.63748      26.76837
                        -----------------------------------------
Total Dipole Moment    :     -0.46446       0.03200       0.47252
                        -----------------------------------------
Magnitude (a.u.)       :      0.66334
Magnitude (Debye)      :      1.68608

Rotational constants in cm-1:     0.017521     0.010021     0.006725
Rotational constants in MHz :   525.279828   300.433528   201.608635

                             ****ORCA TERMINATED NORMALLY****
TOTAL RUN TIME: 0 days 0 hours 0 minutes 22 seconds 241 msec
