                         Program Version 4.2.1 -  RELEASE  -
|  1> ! wB97X-D3 SP def2-SVP
|  2> %pal
|  3> nprocs 24
|  4> end
|  5>
|  6> * xyz 0 1
|  7> S 	 -110.584 	 55.4074 	 -89.9723
|  8> C 	 -110.872 	 56.2986 	 -88.5352
|  9> C 	 -110.456 	 55.6093 	 -87.4274
| 10> C 	 -109.898 	 54.3676 	 -87.801
| 11> C 	 -109.705 	 54.1968 	 -89.152
| 12> H 	 -109.598 	 53.7033 	 -87.029
| 13> C 	 -110.59 	 56.0423 	 -85.9591
| 14> H 	 -111.273 	 55.4006 	 -85.4593
| 15> H 	 -111.243 	 56.8838 	 -85.9556
| 16> C 	 -109.395 	 56.4835 	 -85.1332
| 17> H 	 -109.749 	 56.7345 	 -84.1609
| 18> H 	 -108.702 	 55.6142 	 -85.1447
| 19> C 	 -108.722 	 57.731 	 -85.5371
| 20> H 	 -109.358 	 58.5982 	 -85.2564
| 21> H 	 -107.784 	 57.7376 	 -84.9282
| 22> H 	 -108.432 	 57.7363 	 -86.6155
| 23> S 	 -109.612 	 52.4083 	 -91.246
| 24> C 	 -108.161 	 51.4942 	 -91.5686
| 25> C 	 -107.249 	 51.5455 	 -90.4876
| 26> C 	 -107.696 	 52.4913 	 -89.4927
| 27> C 	 -108.913 	 53.0609 	 -89.754
| 28> H 	 -106.37 	 50.9807 	 -90.4776
| 29> C 	 -106.726 	 52.944 	 -88.4025
| 30> H 	 -106.474 	 52.0995 	 -87.8007
| 31> H 	 -107.26 	 53.4837 	 -87.6708
| 32> C 	 -105.434 	 53.7282 	 -88.8984
| 33> H 	 -104.806 	 53.1416 	 -89.5256
| 34> H 	 -104.924 	 53.9266 	 -87.9604
| 35> C 	 -105.816 	 55.1067 	 -89.5648
| 36> H 	 -104.91 	 55.7108 	 -89.6667
| 37> H 	 -106.623 	 55.6406 	 -89.0952
| 38> H 	 -106.03 	 54.8736 	 -90.5881
| 39> H 	 -111.427 	 57.1943 	 -88.5734
| 40> H 	 -108.046 	 50.7046 	 -92.3177
| 41> *
| 42>
| 43>                          ****END OF INPUT****

CARTESIAN COORDINATES (ANGSTROEM)
---------------------------------
  S    -110.584000   55.407400  -89.972300
  C    -110.872000   56.298600  -88.535200
  C    -110.456000   55.609300  -87.427400
  C    -109.898000   54.367600  -87.801000
  C    -109.705000   54.196800  -89.152000
  H    -109.598000   53.703300  -87.029000
  C    -110.590000   56.042300  -85.959100
  H    -111.273000   55.400600  -85.459300
  H    -111.243000   56.883800  -85.955600
  C    -109.395000   56.483500  -85.133200
  H    -109.749000   56.734500  -84.160900
  H    -108.702000   55.614200  -85.144700
  C    -108.722000   57.731000  -85.537100
  H    -109.358000   58.598200  -85.256400
  H    -107.784000   57.737600  -84.928200
  H    -108.432000   57.736300  -86.615500
  S    -109.612000   52.408300  -91.246000
  C    -108.161000   51.494200  -91.568600
  C    -107.249000   51.545500  -90.487600
  C    -107.696000   52.491300  -89.492700
  C    -108.913000   53.060900  -89.754000
  H    -106.370000   50.980700  -90.477600
  C    -106.726000   52.944000  -88.402500
  H    -106.474000   52.099500  -87.800700
  H    -107.260000   53.483700  -87.670800
  C    -105.434000   53.728200  -88.898400
  H    -104.806000   53.141600  -89.525600
  H    -104.924000   53.926600  -87.960400
  C    -105.816000   55.106700  -89.564800
  H    -104.910000   55.710800  -89.666700
  H    -106.623000   55.640600  -89.095200
  H    -106.030000   54.873600  -90.588100
  H    -111.427000   57.194300  -88.573400
  H    -108.046000   50.704600  -92.317700

 Total Charge           Charge          ....    0
 Multiplicity           Mult            ....    1
 Number of Electrons    NEL             ....  134
 Basis Dimension        Dim             ....  322

ORBITAL ENERGIES
----------------

  NO   OCC          E(Eh)            E(eV)
   0   2.0000     -88.966916     -2420.9129
   1   2.0000     -88.964895     -2420.8579
   2   2.0000     -10.331370      -281.1309
   3   2.0000     -10.330008      -281.0938
   4   2.0000     -10.321329      -280.8576
   5   2.0000     -10.308552      -280.5100
   6   2.0000     -10.303964      -280.3851
   7   2.0000     -10.298038      -280.2239
   8   2.0000     -10.295054      -280.1427
   9   2.0000     -10.289139      -279.9817
  10   2.0000     -10.285830      -279.8917
  11   2.0000     -10.285471      -279.8819
  12   2.0000     -10.284619      -279.8587
  13   2.0000     -10.283266      -279.8219
  14   2.0000     -10.280753      -279.7535
  15   2.0000     -10.270808      -279.4829
  16   2.0000      -8.082983      -219.9492
  17   2.0000      -8.079431      -219.8525
  18   2.0000      -6.041416      -164.3953
  19   2.0000      -6.037962      -164.3013
  20   2.0000      -6.037221      -164.2811
  21   2.0000      -6.033965      -164.1925
  22   2.0000      -6.033819      -164.1886
  23   2.0000      -6.030189      -164.0898
  24   2.0000      -1.012677       -27.5563
  25   2.0000      -0.985909       -26.8280
  26   2.0000      -0.918971       -25.0065
  27   2.0000      -0.898639       -24.4532
  28   2.0000      -0.867911       -23.6171
  29   2.0000      -0.854114       -23.2416
  30   2.0000      -0.842494       -22.9254
  31   2.0000      -0.814859       -22.1734
  32   2.0000      -0.786973       -21.4146
  33   2.0000      -0.776996       -21.1431
  34   2.0000      -0.705428       -19.1957
  35   2.0000      -0.694501       -18.8983
  36   2.0000      -0.690594       -18.7920
  37   2.0000      -0.663158       -18.0454
  38   2.0000      -0.644573       -17.5397
  39   2.0000      -0.629375       -17.1262
  40   2.0000      -0.593790       -16.1579
  41   2.0000      -0.577343       -15.7103
  42   2.0000      -0.558555       -15.1991
  43   2.0000      -0.550333       -14.9753
  44   2.0000      -0.545732       -14.8501
  45   2.0000      -0.534853       -14.5541
  46   2.0000      -0.517902       -14.0928
  47   2.0000      -0.509455       -13.8630
  48   2.0000      -0.504059       -13.7161
  49   2.0000      -0.494283       -13.4501
  50   2.0000      -0.487406       -13.2630
  51   2.0000      -0.479852       -13.0574
  52   2.0000      -0.473292       -12.8789
  53   2.0000      -0.463004       -12.5990
  54   2.0000      -0.460372       -12.5274
  55   2.0000      -0.447237       -12.1699
  56   2.0000      -0.441537       -12.0148
  57   2.0000      -0.436192       -11.8694
  58   2.0000      -0.434383       -11.8202
  59   2.0000      -0.425469       -11.5776
  60   2.0000      -0.419567       -11.4170
  61   2.0000      -0.411408       -11.1950
  62   2.0000      -0.408098       -11.1049
  63   2.0000      -0.350702        -9.5431
  64   2.0000      -0.332763        -9.0549
  65   2.0000      -0.329551        -8.9675
  66   2.0000      -0.292588        -7.9617
  67   0.0000       0.029657         0.8070
  68   0.0000       0.075959         2.0670
  69   0.0000       0.105579         2.8730
  70   0.0000       0.126916         3.4536
  71   0.0000       0.127394         3.4666

MULLIKEN ATOMIC CHARGES
-----------------------
   0 S :    0.124274
   1 C :   -0.119395
   2 C :   -0.097891
   3 C :    0.023768
   4 C :   -0.113637
   5 H :    0.001700
   6 C :    0.103565
   7 H :    0.020685
   8 H :   -0.023525
   9 C :   -0.041727
  10 H :    0.020474
  11 H :    0.027357
  12 C :   -0.073955
  13 H :    0.036252
  14 H :    0.040528
  15 H :    0.047241
  16 S :    0.091491
  17 C :   -0.089328
  18 C :   -0.035156
  19 C :   -0.055935
  20 C :   -0.146105
  21 H :    0.004543
  22 C :    0.098369
  23 H :    0.013212
  24 H :   -0.015242
  25 C :   -0.061465
  26 H :    0.027057
  27 H :    0.029763
  28 C :   -0.044978
  29 H :    0.029701
  30 H :    0.047362
  31 H :    0.033202
  32 H :    0.032873
  33 H :    0.064924
Sum of atomic charges:   -0.0000000

LOEWDIN ATOMIC CHARGES
----------------------
   0 S :    0.440140
   1 C :   -0.197878
   2 C :   -0.065262
   3 C :   -0.064876
   4 C :   -0.210025
   5 H :    0.023473
   6 C :   -0.037732
   7 H :    0.031235
   8 H :    0.023463
   9 C :   -0.042888
  10 H :    0.026305
  11 H :    0.022399
  12 C :   -0.068374
  13 H :    0.027845
  14 H :    0.034581
  15 H :    0.028321
  16 S :    0.391796
  17 C :   -0.186558
  18 C :   -0.060689
  19 C :   -0.056949
  20 C :   -0.181846
  21 H :    0.022463
  22 C :   -0.029912
  23 H :    0.027832
  24 H :    0.018788
  25 C :   -0.024412
  26 H :    0.017019
  27 H :    0.023008
  28 C :   -0.062003
  29 H :    0.027022
  30 H :    0.026610
  31 H :    0.025931
  32 H :    0.019357
  33 H :    0.031817

  Mayer bond orders larger than 0.100000
B(  0-S ,  1-C ) :   1.1576 B(  0-S ,  4-C ) :   1.1722 B(  1-C ,  2-C ) :   1.5743
B(  1-C , 32-H ) :   0.9764 B(  2-C ,  3-C ) :   1.2891 B(  2-C ,  6-C ) :   1.0158
B(  3-C ,  4-C ) :   1.5227 B(  3-C ,  5-H ) :   0.9994 B(  4-C , 20-C ) :   1.0140
B(  6-C ,  7-H ) :   0.9334 B(  6-C ,  8-H ) :   0.9198 B(  6-C ,  9-C ) :   1.0741
B(  9-C , 10-H ) :   0.9468 B(  9-C , 11-H ) :   0.9577 B(  9-C , 12-C ) :   1.0881
B( 12-C , 13-H ) :   0.9723 B( 12-C , 14-H ) :   0.9707 B( 12-C , 15-H ) :   0.9746
B( 16-S , 17-C ) :   1.1588 B( 16-S , 20-C ) :   1.1246 B( 17-C , 18-C ) :   1.6114
B( 17-C , 33-H ) :   0.9618 B( 18-C , 19-C ) :   1.2224 B( 18-C , 21-H ) :   0.9994
B( 19-C , 20-C ) :   1.6344 B( 19-C , 22-C ) :   1.0440 B( 22-C , 23-H ) :   0.9240
B( 22-C , 24-H ) :   0.9288 B( 22-C , 25-C ) :   1.0646 B( 25-C , 26-H ) :   0.9615
B( 25-C , 27-H ) :   0.9586 B( 25-C , 28-C ) :   1.0649 B( 28-C , 29-H ) :   0.9750
B( 28-C , 30-H ) :   0.9794 B( 28-C , 31-H ) :   0.9760

Dispersion correction           -0.015210217
FINAL SINGLE POINT ENERGY     -1339.867430370026

DIPOLE MOMENT
-------------
                                X             Y             Z
Electronic contribution:    -15.85627     -12.03692     -20.42938
Nuclear contribution   :     16.18603      12.09680      21.03239
                        -----------------------------------------
Total Dipole Moment    :      0.32977       0.05989       0.60300
                        -----------------------------------------
Magnitude (a.u.)       :      0.68989
Magnitude (Debye)      :      1.75355

Rotational constants in cm-1:     0.020199     0.009331     0.007337
Rotational constants in MHz :   605.542639   279.732329   219.960411

                             ****ORCA TERMINATED NORMALLY****
TOTAL RUN TIME: 0 days 0 hours 0 minutes 22 seconds 417 msec
