                         Program Version 4.2.1 -  RELEASE  -
|  1> ! wB97X-D3 SP def2-SVP
|  2> %pal
|  3> nprocs 24
|  4> end
|  5>
|  6> * xyz 0 1
|  7> S 	 -82.3607 	 -15.0734 	 -53.7535
|  8> C 	 -83.9322 	 -14.6049 	 -54.4358
|  9> C 	 -84.9145 	 -15.6581 	 -54.4354
| 10> C 	 -84.3212 	 -16.8437 	 -53.8755
| 11> C 	 -82.9602 	 -16.7384 	 -53.5786
| 12> H 	 -84.8076 	 -17.8157 	 -53.7657
| 13> C 	 -86.4014 	 -15.4429 	 -54.5961
| 14> H 	 -86.8482 	 -16.1852 	 -55.2619
| 15> H 	 -86.5457 	 -14.4974 	 -55.1201
| 16> C 	 -87.0191 	 -15.5896 	 -53.2422
| 17> H 	 -87.0549 	 -16.6478 	 -53.066
| 18> H 	 -86.4033 	 -15.1916 	 -52.4402
| 19> C 	 -88.4057 	 -15.0259 	 -53.1563
| 20> H 	 -89.0438 	 -15.3034 	 -54.0101
| 21> H 	 -88.877 	 -15.2958 	 -52.2972
| 22> H 	 -88.3319 	 -13.9518 	 -53.0811
| 23> S 	 -81.2362 	 -17.4447 	 -51.5124
| 24> C 	 -80.5711 	 -18.97 	 -51.4324
| 25> C 	 -80.889 	 -19.7657 	 -52.5152
| 26> C 	 -81.7541 	 -19.0064 	 -53.4555
| 27> C 	 -82.1281 	 -17.7938 	 -53.0064
| 28> H 	 -80.46 	 -20.7836 	 -52.5011
| 29> C 	 -82.2165 	 -19.5721 	 -54.7698
| 30> H 	 -83.1452 	 -19.0547 	 -55.0475
| 31> H 	 -82.4834 	 -20.6508 	 -54.6714
| 32> C 	 -81.1931 	 -19.2642 	 -55.8681
| 33> H 	 -80.2754 	 -19.7552 	 -55.4254
| 34> H 	 -80.9321 	 -18.2517 	 -56.0423
| 35> C 	 -81.5896 	 -19.7808 	 -57.2731
| 36> H 	 -80.7367 	 -19.5772 	 -57.9447
| 37> H 	 -82.4946 	 -19.236 	 -57.6785
| 38> H 	 -81.8693 	 -20.7927 	 -57.1753
| 39> H 	 -84.3584 	 -13.6081 	 -54.4771
| 40> H 	 -79.8208 	 -19.2702 	 -50.7257
| 41> *
| 42>
| 43>                          ****END OF INPUT****

CARTESIAN COORDINATES (ANGSTROEM)
---------------------------------
  S    -82.360700  -15.073400  -53.753500
  C    -83.932200  -14.604900  -54.435800
  C    -84.914500  -15.658100  -54.435400
  C    -84.321200  -16.843700  -53.875500
  C    -82.960200  -16.738400  -53.578600
  H    -84.807600  -17.815700  -53.765700
  C    -86.401400  -15.442900  -54.596100
  H    -86.848200  -16.185200  -55.261900
  H    -86.545700  -14.497400  -55.120100
  C    -87.019100  -15.589600  -53.242200
  H    -87.054900  -16.647800  -53.066000
  H    -86.403300  -15.191600  -52.440200
  C    -88.405700  -15.025900  -53.156300
  H    -89.043800  -15.303400  -54.010100
  H    -88.877000  -15.295800  -52.297200
  H    -88.331900  -13.951800  -53.081100
  S    -81.236200  -17.444700  -51.512400
  C    -80.571100  -18.970000  -51.432400
  C    -80.889000  -19.765700  -52.515200
  C    -81.754100  -19.006400  -53.455500
  C    -82.128100  -17.793800  -53.006400
  H    -80.460000  -20.783600  -52.501100
  C    -82.216500  -19.572100  -54.769800
  H    -83.145200  -19.054700  -55.047500
  H    -82.483400  -20.650800  -54.671400
  C    -81.193100  -19.264200  -55.868100
  H    -80.275400  -19.755200  -55.425400
  H    -80.932100  -18.251700  -56.042300
  C    -81.589600  -19.780800  -57.273100
  H    -80.736700  -19.577200  -57.944700
  H    -82.494600  -19.236000  -57.678500
  H    -81.869300  -20.792700  -57.175300
  H    -84.358400  -13.608100  -54.477100
  H    -79.820800  -19.270200  -50.725700

 Total Charge           Charge          ....    0
 Multiplicity           Mult            ....    1
 Number of Electrons    NEL             ....  134
 Basis Dimension        Dim             ....  322

ORBITAL ENERGIES
----------------

  NO   OCC          E(Eh)            E(eV)
   0   2.0000     -88.972902     -2421.0757
   1   2.0000     -88.959373     -2420.7076
   2   2.0000     -10.334393      -281.2131
   3   2.0000     -10.321879      -280.8726
   4   2.0000     -10.318088      -280.7695
   5   2.0000     -10.311105      -280.5794
   6   2.0000     -10.308396      -280.5057
   7   2.0000     -10.305190      -280.4185
   8   2.0000     -10.299028      -280.2508
   9   2.0000     -10.298062      -280.2245
  10   2.0000     -10.293036      -280.0877
  11   2.0000     -10.289086      -279.9803
  12   2.0000     -10.281638      -279.7776
  13   2.0000     -10.280009      -279.7333
  14   2.0000     -10.277090      -279.6538
  15   2.0000     -10.268859      -279.4299
  16   2.0000      -8.086135      -220.0349
  17   2.0000      -8.075936      -219.7574
  18   2.0000      -6.044685      -164.4842
  19   2.0000      -6.040969      -164.3831
  20   2.0000      -6.036823      -164.2703
  21   2.0000      -6.034305      -164.2018
  22   2.0000      -6.030211      -164.0904
  23   2.0000      -6.026696      -163.9947
  24   2.0000      -1.007348       -27.4113
  25   2.0000      -0.979567       -26.6554
  26   2.0000      -0.923533       -25.1306
  27   2.0000      -0.909337       -24.7443
  28   2.0000      -0.869034       -23.6476
  29   2.0000      -0.852598       -23.2004
  30   2.0000      -0.842267       -22.9192
  31   2.0000      -0.814759       -22.1707
  32   2.0000      -0.783471       -21.3193
  33   2.0000      -0.771396       -20.9908
  34   2.0000      -0.709313       -19.3014
  35   2.0000      -0.694979       -18.9113
  36   2.0000      -0.690677       -18.7943
  37   2.0000      -0.659250       -17.9391
  38   2.0000      -0.639112       -17.3911
  39   2.0000      -0.618414       -16.8279
  40   2.0000      -0.592292       -16.1171
  41   2.0000      -0.579332       -15.7644
  42   2.0000      -0.565431       -15.3862
  43   2.0000      -0.557327       -15.1656
  44   2.0000      -0.533636       -14.5210
  45   2.0000      -0.527000       -14.3404
  46   2.0000      -0.517029       -14.0691
  47   2.0000      -0.508957       -13.8494
  48   2.0000      -0.506843       -13.7919
  49   2.0000      -0.498954       -13.5772
  50   2.0000      -0.493022       -13.4158
  51   2.0000      -0.478315       -13.0156
  52   2.0000      -0.466378       -12.6908
  53   2.0000      -0.461996       -12.5715
  54   2.0000      -0.455916       -12.4061
  55   2.0000      -0.450657       -12.2630
  56   2.0000      -0.446319       -12.1450
  57   2.0000      -0.443805       -12.0765
  58   2.0000      -0.436257       -11.8712
  59   2.0000      -0.430125       -11.7043
  60   2.0000      -0.419019       -11.4021
  61   2.0000      -0.414808       -11.2875
  62   2.0000      -0.401471       -10.9246
  63   2.0000      -0.344417        -9.3721
  64   2.0000      -0.331108        -9.0099
  65   2.0000      -0.324676        -8.8349
  66   2.0000      -0.294871        -8.0238
  67   0.0000       0.028760         0.7826
  68   0.0000       0.068444         1.8625
  69   0.0000       0.110858         3.0166
  70   0.0000       0.119360         3.2480
  71   0.0000       0.127290         3.4637

MULLIKEN ATOMIC CHARGES
-----------------------
   0 S :    0.119737
   1 C :   -0.096659
   2 C :   -0.129984
   3 C :    0.023004
   4 C :   -0.158164
   5 H :    0.028047
   6 C :    0.079781
   7 H :    0.029279
   8 H :    0.018889
   9 C :   -0.089907
  10 H :    0.022139
  11 H :    0.038920
  12 C :    0.013422
  13 H :    0.028771
  14 H :    0.006707
  15 H :    0.023357
  16 S :    0.099975
  17 C :   -0.081370
  18 C :   -0.054625
  19 C :   -0.053246
  20 C :   -0.152911
  21 H :    0.032981
  22 C :    0.069076
  23 H :    0.008929
  24 H :    0.035439
  25 C :   -0.094417
  26 H :    0.025555
  27 H :    0.029631
  28 C :   -0.031947
  29 H :    0.046336
  30 H :    0.039382
  31 H :    0.019244
  32 H :    0.049044
  33 H :    0.055586
Sum of atomic charges:    0.0000000

LOEWDIN ATOMIC CHARGES
----------------------
   0 S :    0.392155
   1 C :   -0.206319
   2 C :   -0.049994
   3 C :   -0.060577
   4 C :   -0.183973
   5 H :    0.032878
   6 C :   -0.031137
   7 H :    0.033401
   8 H :    0.027597
   9 C :   -0.038481
  10 H :    0.022753
  11 H :    0.028388
  12 C :   -0.054581
  13 H :    0.028349
  14 H :    0.013081
  15 H :    0.025967
  16 S :    0.417014
  17 C :   -0.202858
  18 C :   -0.086687
  19 C :   -0.047193
  20 C :   -0.199779
  21 H :    0.038968
  22 C :   -0.037121
  23 H :    0.025672
  24 H :    0.034003
  25 C :   -0.039922
  26 H :    0.026471
  27 H :    0.021678
  28 C :   -0.064443
  29 H :    0.031775
  30 H :    0.032017
  31 H :    0.014611
  32 H :    0.026479
  33 H :    0.029808

  Mayer bond orders larger than 0.100000
B(  0-S ,  1-C ) :   1.1343 B(  0-S ,  4-C ) :   1.1378 B(  1-C ,  2-C ) :   1.6104
B(  1-C ,  4-C ) :   0.1037 B(  1-C , 32-H ) :   0.9552 B(  2-C ,  3-C ) :   1.2360
B(  2-C ,  6-C ) :   1.0451 B(  3-C ,  4-C ) :   1.5847 B(  3-C ,  5-H ) :   0.9796
B(  4-C , 20-C ) :   1.0422 B(  6-C ,  7-H ) :   0.9264 B(  6-C ,  8-H ) :   0.9455
B(  6-C ,  9-C ) :   1.0527 B(  9-C , 10-H ) :   0.9448 B(  9-C , 11-H ) :   0.9607
B(  9-C , 12-C ) :   1.0975 B( 12-C , 13-H ) :   0.9694 B( 12-C , 14-H ) :   0.9674
B( 12-C , 15-H ) :   0.9729 B( 16-S , 17-C ) :   1.1841 B( 16-S , 20-C ) :   1.1069
B( 17-C , 18-C ) :   1.6248 B( 17-C , 33-H ) :   0.9634 B( 18-C , 19-C ) :   1.1866
B( 18-C , 21-H ) :   0.9918 B( 19-C , 20-C ) :   1.6571 B( 19-C , 22-C ) :   1.0545
B( 22-C , 23-H ) :   0.9257 B( 22-C , 24-H ) :   0.9365 B( 22-C , 25-C ) :   1.0549
B( 25-C , 26-H ) :   0.9567 B( 25-C , 27-H ) :   0.9588 B( 25-C , 28-C ) :   1.0797
B( 28-C , 29-H ) :   0.9745 B( 28-C , 30-H ) :   0.9732 B( 28-C , 31-H ) :   0.9743

Dispersion correction           -0.014047651
FINAL SINGLE POINT ENERGY     -1339.867596759728

DIPOLE MOMENT
-------------
                                X             Y             Z
Electronic contribution:     17.54633       6.62423      13.81448
Nuclear contribution   :    -17.99902      -6.93722     -13.86029
                        -----------------------------------------
Total Dipole Moment    :     -0.45269      -0.31299      -0.04581
                        -----------------------------------------
Magnitude (a.u.)       :      0.55226
Magnitude (Debye)      :      1.40372

Rotational constants in cm-1:     0.018529     0.008075     0.006960
Rotational constants in MHz :   555.493761   242.097006   208.643497

                             ****ORCA TERMINATED NORMALLY****
TOTAL RUN TIME: 0 days 0 hours 0 minutes 21 seconds 548 msec
