                         Program Version 4.2.1 -  RELEASE  -
|  1> ! wB97X-D3 SP def2-SVP
|  2> %pal
|  3> nprocs 24
|  4> end
|  5>
|  6> * xyz 0 1
|  7> S 	 -67.2826 	 8.25938 	 -100.928
|  8> C 	 -66.8439 	 9.68335 	 -101.801
|  9> C 	 -67.3578 	 9.73922 	 -103.073
| 10> C 	 -68.2062 	 8.64946 	 -103.372
| 11> C 	 -68.167 	 7.71215 	 -102.34
| 12> H 	 -68.8323 	 8.50679 	 -104.248
| 13> C 	 -67.1922 	 10.9136 	 -104.006
| 14> H 	 -68.0664 	 11.5292 	 -103.993
| 15> H 	 -67.1448 	 10.6285 	 -105.105
| 16> C 	 -66.1179 	 11.8374 	 -103.669
| 17> H 	 -66.2222 	 12.202 	 -102.658
| 18> H 	 -65.1804 	 11.3844 	 -103.762
| 19> C 	 -66.1071 	 13.0906 	 -104.527
| 20> H 	 -67.086 	 13.467 	 -104.608
| 21> H 	 -65.4177 	 13.7452 	 -104.03
| 22> H 	 -65.718 	 12.9283 	 -105.542
| 23> S 	 -67.8443 	 5.10209 	 -101.837
| 24> C 	 -69.0761 	 3.91236 	 -102.23
| 25> C 	 -70.2244 	 4.46597 	 -102.785
| 26> C 	 -70.0662 	 5.895 	 -102.84
| 27> C 	 -68.8126 	 6.34513 	 -102.418
| 28> H 	 -71.1358 	 3.9491 	 -102.987
| 29> C 	 -71.2296 	 6.70624 	 -103.375
| 30> H 	 -71.6419 	 6.13197 	 -104.143
| 31> H 	 -70.8522 	 7.70695 	 -103.694
| 32> C 	 -72.3722 	 6.97835 	 -102.305
| 33> H 	 -71.9519 	 7.80087 	 -101.663
| 34> H 	 -72.4338 	 6.10662 	 -101.75
| 35> C 	 -73.7132 	 7.43286 	 -102.806
| 36> H 	 -74.2797 	 6.61506 	 -103.36
| 37> H 	 -73.5626 	 8.29831 	 -103.467
| 38> H 	 -74.3538 	 7.68911 	 -101.973
| 39> H 	 -66.4331 	 10.503 	 -101.223
| 40> H 	 -68.9446 	 2.90757 	 -102.029
| 41> *
| 42>
| 43>                          ****END OF INPUT****

CARTESIAN COORDINATES (ANGSTROEM)
---------------------------------
  S    -67.282600    8.259380  -100.928000
  C    -66.843900    9.683350  -101.801000
  C    -67.357800    9.739220  -103.073000
  C    -68.206200    8.649460  -103.372000
  C    -68.167000    7.712150  -102.340000
  H    -68.832300    8.506790  -104.248000
  C    -67.192200   10.913600  -104.006000
  H    -68.066400   11.529200  -103.993000
  H    -67.144800   10.628500  -105.105000
  C    -66.117900   11.837400  -103.669000
  H    -66.222200   12.202000  -102.658000
  H    -65.180400   11.384400  -103.762000
  C    -66.107100   13.090600  -104.527000
  H    -67.086000   13.467000  -104.608000
  H    -65.417700   13.745200  -104.030000
  H    -65.718000   12.928300  -105.542000
  S    -67.844300    5.102090  -101.837000
  C    -69.076100    3.912360  -102.230000
  C    -70.224400    4.465970  -102.785000
  C    -70.066200    5.895000  -102.840000
  C    -68.812600    6.345130  -102.418000
  H    -71.135800    3.949100  -102.987000
  C    -71.229600    6.706240  -103.375000
  H    -71.641900    6.131970  -104.143000
  H    -70.852200    7.706950  -103.694000
  C    -72.372200    6.978350  -102.305000
  H    -71.951900    7.800870  -101.663000
  H    -72.433800    6.106620  -101.750000
  C    -73.713200    7.432860  -102.806000
  H    -74.279700    6.615060  -103.360000
  H    -73.562600    8.298310  -103.467000
  H    -74.353800    7.689110  -101.973000
  H    -66.433100   10.503000  -101.223000
  H    -68.944600    2.907570  -102.029000

 Total Charge           Charge          ....    0
 Multiplicity           Mult            ....    1
 Number of Electrons    NEL             ....  134
 Basis Dimension        Dim             ....  322

ORBITAL ENERGIES
----------------

  NO   OCC          E(Eh)            E(eV)
   0   2.0000     -88.969909     -2420.9943
   1   2.0000     -88.964983     -2420.8603
   2   2.0000     -10.333757      -281.1958
   3   2.0000     -10.323338      -280.9123
   4   2.0000     -10.311854      -280.5998
   5   2.0000     -10.309490      -280.5355
   6   2.0000     -10.300040      -280.2783
   7   2.0000     -10.299952      -280.2759
   8   2.0000     -10.294669      -280.1322
   9   2.0000     -10.294282      -280.1216
  10   2.0000     -10.288170      -279.9553
  11   2.0000     -10.287145      -279.9274
  12   2.0000     -10.281316      -279.7688
  13   2.0000     -10.280557      -279.7482
  14   2.0000     -10.271774      -279.5092
  15   2.0000     -10.271371      -279.4982
  16   2.0000      -8.084906      -220.0015
  17   2.0000      -8.081019      -219.8957
  18   2.0000      -6.043254      -164.4453
  19   2.0000      -6.039499      -164.3431
  20   2.0000      -6.039400      -164.3404
  21   2.0000      -6.035722      -164.2403
  22   2.0000      -6.035290      -164.2286
  23   2.0000      -6.031888      -164.1360
  24   2.0000      -1.009936       -27.4818
  25   2.0000      -0.989128       -26.9155
  26   2.0000      -0.926045       -25.1990
  27   2.0000      -0.905719       -24.6459
  28   2.0000      -0.868000       -23.6195
  29   2.0000      -0.856987       -23.3198
  30   2.0000      -0.850943       -23.1553
  31   2.0000      -0.815623       -22.1942
  32   2.0000      -0.781655       -21.2699
  33   2.0000      -0.768592       -20.9144
  34   2.0000      -0.709389       -19.3035
  35   2.0000      -0.695136       -18.9156
  36   2.0000      -0.683425       -18.5969
  37   2.0000      -0.672831       -18.3087
  38   2.0000      -0.645242       -17.5579
  39   2.0000      -0.619794       -16.8655
  40   2.0000      -0.595806       -16.2127
  41   2.0000      -0.581069       -15.8117
  42   2.0000      -0.570401       -15.5214
  43   2.0000      -0.564141       -15.3511
  44   2.0000      -0.532497       -14.4900
  45   2.0000      -0.523461       -14.2441
  46   2.0000      -0.519516       -14.1367
  47   2.0000      -0.517348       -14.0778
  48   2.0000      -0.503306       -13.6957
  49   2.0000      -0.498464       -13.5639
  50   2.0000      -0.487973       -13.2784
  51   2.0000      -0.482273       -13.1233
  52   2.0000      -0.477849       -13.0029
  53   2.0000      -0.461246       -12.5512
  54   2.0000      -0.456938       -12.4339
  55   2.0000      -0.456074       -12.4104
  56   2.0000      -0.449987       -12.2448
  57   2.0000      -0.439713       -11.9652
  58   2.0000      -0.427074       -11.6213
  59   2.0000      -0.426165       -11.5965
  60   2.0000      -0.420821       -11.4511
  61   2.0000      -0.419626       -11.4186
  62   2.0000      -0.415829       -11.3153
  63   2.0000      -0.351077        -9.5533
  64   2.0000      -0.334108        -9.0915
  65   2.0000      -0.327469        -8.9109
  66   2.0000      -0.286417        -7.7938
  67   0.0000       0.035468         0.9651
  68   0.0000       0.071538         1.9466
  69   0.0000       0.111231         3.0268
  70   0.0000       0.115297         3.1374
  71   0.0000       0.131078         3.5668

MULLIKEN ATOMIC CHARGES
-----------------------
   0 S :    0.125915
   1 C :   -0.152050
   2 C :   -0.039910
   3 C :    0.013853
   4 C :   -0.139099
   5 H :    0.023474
   6 C :    0.067151
   7 H :    0.014755
   8 H :    0.030210
   9 C :   -0.087964
  10 H :    0.020046
  11 H :    0.018490
  12 C :   -0.007797
  13 H :    0.014874
  14 H :    0.026749
  15 H :    0.028712
  16 S :    0.109066
  17 C :   -0.068948
  18 C :   -0.012280
  19 C :   -0.077572
  20 C :   -0.152098
  21 H :    0.017918
  22 C :    0.082846
  23 H :    0.007505
  24 H :    0.017592
  25 C :   -0.076162
  26 H :    0.037720
  27 H :    0.008868
  28 C :   -0.044389
  29 H :    0.033935
  30 H :    0.034819
  31 H :    0.038976
  32 H :    0.056864
  33 H :    0.027931
Sum of atomic charges:   -0.0000000

LOEWDIN ATOMIC CHARGES
----------------------
   0 S :    0.414367
   1 C :   -0.210967
   2 C :   -0.058622
   3 C :   -0.060797
   4 C :   -0.186697
   5 H :    0.034633
   6 C :   -0.037961
   7 H :    0.028756
   8 H :    0.037357
   9 C :   -0.040589
  10 H :    0.022065
  11 H :    0.017984
  12 C :   -0.050974
  13 H :    0.015465
  14 H :    0.026433
  15 H :    0.025382
  16 S :    0.436228
  17 C :   -0.171333
  18 C :   -0.060203
  19 C :   -0.063753
  20 C :   -0.221612
  21 H :    0.030854
  22 C :   -0.026167
  23 H :    0.018540
  24 H :    0.028409
  25 C :   -0.038359
  26 H :    0.032673
  27 H :    0.009189
  28 C :   -0.069405
  29 H :    0.028782
  30 H :    0.027041
  31 H :    0.028407
  32 H :    0.025470
  33 H :    0.009402

  Mayer bond orders larger than 0.100000
B(  0-S ,  1-C ) :   1.1279 B(  0-S ,  4-C ) :   1.1735 B(  1-C ,  2-C ) :   1.6131
B(  1-C , 32-H ) :   0.9621 B(  2-C ,  3-C ) :   1.2514 B(  2-C ,  6-C ) :   1.0177
B(  3-C ,  4-C ) :   1.5656 B(  3-C ,  5-H ) :   0.9952 B(  4-C , 20-C ) :   0.9948
B(  6-C ,  7-H ) :   0.9204 B(  6-C ,  8-H ) :   0.9391 B(  6-C ,  9-C ) :   1.1039
B(  9-C , 10-H ) :   0.9377 B(  9-C , 11-H ) :   0.9506 B(  9-C , 12-C ) :   1.0952
B( 12-C , 13-H ) :   0.9731 B( 12-C , 14-H ) :   0.9729 B( 12-C , 15-H ) :   0.9726
B( 16-S , 17-C ) :   1.1657 B( 16-S , 20-C ) :   1.1643 B( 17-C , 18-C ) :   1.5842
B( 17-C , 33-H ) :   0.9792 B( 18-C , 19-C ) :   1.2548 B( 18-C , 21-H ) :   0.9917
B( 19-C , 20-C ) :   1.5938 B( 19-C , 22-C ) :   1.0514 B( 22-C , 23-H ) :   0.9334
B( 22-C , 24-H ) :   0.9337 B( 22-C , 25-C ) :   1.0590 B( 25-C , 26-H ) :   0.9543
B( 25-C , 27-H ) :   0.9603 B( 25-C , 28-C ) :   1.0911 B( 28-C , 29-H ) :   0.9720
B( 28-C , 30-H ) :   0.9726 B( 28-C , 31-H ) :   0.9709

Dispersion correction           -0.013241678
FINAL SINGLE POINT ENERGY     -1339.872751781615

DIPOLE MOMENT
-------------
                                X             Y             Z
Electronic contribution:     12.61095     -20.07496      12.62024
Nuclear contribution   :    -13.00500      20.41698     -12.85655
                        -----------------------------------------
Total Dipole Moment    :     -0.39404       0.34202      -0.23631
                        -----------------------------------------
Magnitude (a.u.)       :      0.57279
Magnitude (Debye)      :      1.45592

Rotational constants in cm-1:     0.019730     0.007425     0.005981
Rotational constants in MHz :   591.489360   222.588647   179.297701

                             ****ORCA TERMINATED NORMALLY****
TOTAL RUN TIME: 0 days 0 hours 0 minutes 21 seconds 76 msec
