                         Program Version 4.2.1 -  RELEASE  -
|  1> ! wB97X-D3 SP def2-SVP
|  2> %pal
|  3> nprocs 24
|  4> end
|  5>
|  6> * xyz 0 1
|  7> S 	 -92.1062 	 -40.3805 	 -61.438
|  8> C 	 -91.9923 	 -42.0177 	 -61.7589
|  9> C 	 -92.4233 	 -42.8043 	 -60.6975
| 10> C 	 -93.0843 	 -42.0687 	 -59.7132
| 11> C 	 -93.01 	 -40.7296 	 -59.9724
| 12> H 	 -93.5766 	 -42.5791 	 -58.9092
| 13> C 	 -92.3945 	 -44.3223 	 -60.6428
| 14> H 	 -93.1704 	 -44.5737 	 -59.8957
| 15> H 	 -91.4175 	 -44.6735 	 -60.4364
| 16> C 	 -92.8548 	 -44.9687 	 -61.9738
| 17> H 	 -93.7654 	 -44.5985 	 -62.2004
| 18> H 	 -92.2571 	 -44.6879 	 -62.9109
| 19> C 	 -92.8604 	 -46.4891 	 -61.7788
| 20> H 	 -92.9775 	 -46.8914 	 -62.8273
| 21> H 	 -92.0214 	 -46.834 	 -61.1588
| 22> H 	 -93.746 	 -46.756 	 -61.2085
| 23> S 	 -92.4548 	 -38.3617 	 -58.6025
| 24> C 	 -93.7582 	 -37.687 	 -57.66
| 25> C 	 -94.9646 	 -38.4057 	 -57.7079
| 26> C 	 -94.8685 	 -39.4699 	 -58.6828
| 27> C 	 -93.5567 	 -39.6597 	 -59.1228
| 28> H 	 -95.8676 	 -38.167 	 -57.1745
| 29> C 	 -96.0258 	 -40.3888 	 -59.0387
| 30> H 	 -95.654 	 -41.2902 	 -59.5463
| 31> H 	 -96.5716 	 -39.7644 	 -59.8711
| 32> C 	 -97.0403 	 -40.9097 	 -57.9805
| 33> H 	 -97.9382 	 -41.3938 	 -58.3878
| 34> H 	 -97.3215 	 -40.0144 	 -57.4721
| 35> C 	 -96.4024 	 -41.9226 	 -57.0433
| 36> H 	 -95.8495 	 -42.8007 	 -57.5092
| 37> H 	 -97.121 	 -42.3857 	 -56.3943
| 38> H 	 -95.5989 	 -41.4545 	 -56.4742
| 39> H 	 -91.5194 	 -42.4578 	 -62.6379
| 40> H 	 -93.661 	 -36.8823 	 -56.9276
| 41> *
| 42>
| 43>                          ****END OF INPUT****

CARTESIAN COORDINATES (ANGSTROEM)
---------------------------------
  S    -92.106200  -40.380500  -61.438000
  C    -91.992300  -42.017700  -61.758900
  C    -92.423300  -42.804300  -60.697500
  C    -93.084300  -42.068700  -59.713200
  C    -93.010000  -40.729600  -59.972400
  H    -93.576600  -42.579100  -58.909200
  C    -92.394500  -44.322300  -60.642800
  H    -93.170400  -44.573700  -59.895700
  H    -91.417500  -44.673500  -60.436400
  C    -92.854800  -44.968700  -61.973800
  H    -93.765400  -44.598500  -62.200400
  H    -92.257100  -44.687900  -62.910900
  C    -92.860400  -46.489100  -61.778800
  H    -92.977500  -46.891400  -62.827300
  H    -92.021400  -46.834000  -61.158800
  H    -93.746000  -46.756000  -61.208500
  S    -92.454800  -38.361700  -58.602500
  C    -93.758200  -37.687000  -57.660000
  C    -94.964600  -38.405700  -57.707900
  C    -94.868500  -39.469900  -58.682800
  C    -93.556700  -39.659700  -59.122800
  H    -95.867600  -38.167000  -57.174500
  C    -96.025800  -40.388800  -59.038700
  H    -95.654000  -41.290200  -59.546300
  H    -96.571600  -39.764400  -59.871100
  C    -97.040300  -40.909700  -57.980500
  H    -97.938200  -41.393800  -58.387800
  H    -97.321500  -40.014400  -57.472100
  C    -96.402400  -41.922600  -57.043300
  H    -95.849500  -42.800700  -57.509200
  H    -97.121000  -42.385700  -56.394300
  H    -95.598900  -41.454500  -56.474200
  H    -91.519400  -42.457800  -62.637900
  H    -93.661000  -36.882300  -56.927600

 Total Charge           Charge          ....    0
 Multiplicity           Mult            ....    1
 Number of Electrons    NEL             ....  134
 Basis Dimension        Dim             ....  322

ORBITAL ENERGIES
----------------

  NO   OCC          E(Eh)            E(eV)
   0   2.0000     -88.968924     -2420.9675
   1   2.0000     -88.968297     -2420.9504
   2   2.0000     -10.325694      -280.9764
   3   2.0000     -10.324847      -280.9534
   4   2.0000     -10.319817      -280.8165
   5   2.0000     -10.305933      -280.4387
   6   2.0000     -10.305528      -280.4277
   7   2.0000     -10.298321      -280.2315
   8   2.0000     -10.297542      -280.2104
   9   2.0000     -10.290400      -280.0160
  10   2.0000     -10.290273      -280.0126
  11   2.0000     -10.290245      -280.0118
  12   2.0000     -10.287224      -279.9296
  13   2.0000     -10.282238      -279.7939
  14   2.0000     -10.282170      -279.7921
  15   2.0000     -10.279881      -279.7298
  16   2.0000      -8.084205      -219.9824
  17   2.0000      -8.083127      -219.9531
  18   2.0000      -6.042445      -164.4233
  19   2.0000      -6.041623      -164.4009
  20   2.0000      -6.038601      -164.3187
  21   2.0000      -6.037837      -164.2979
  22   2.0000      -6.035138      -164.2245
  23   2.0000      -6.033815      -164.1885
  24   2.0000      -1.010699       -27.5025
  25   2.0000      -0.982989       -26.7485
  26   2.0000      -0.913877       -24.8679
  27   2.0000      -0.906339       -24.6627
  28   2.0000      -0.865362       -23.5477
  29   2.0000      -0.858870       -23.3711
  30   2.0000      -0.849175       -23.1072
  31   2.0000      -0.809961       -22.0402
  32   2.0000      -0.778813       -21.1926
  33   2.0000      -0.763497       -20.7758
  34   2.0000      -0.709010       -19.2931
  35   2.0000      -0.703559       -19.1448
  36   2.0000      -0.689459       -18.7611
  37   2.0000      -0.658667       -17.9232
  38   2.0000      -0.641104       -17.4453
  39   2.0000      -0.624713       -16.9993
  40   2.0000      -0.592616       -16.1259
  41   2.0000      -0.570209       -15.5162
  42   2.0000      -0.560574       -15.2540
  43   2.0000      -0.555434       -15.1141
  44   2.0000      -0.542045       -14.7498
  45   2.0000      -0.527134       -14.3441
  46   2.0000      -0.512919       -13.9572
  47   2.0000      -0.506892       -13.7932
  48   2.0000      -0.495522       -13.4838
  49   2.0000      -0.494724       -13.4621
  50   2.0000      -0.492526       -13.4023
  51   2.0000      -0.476655       -12.9705
  52   2.0000      -0.473962       -12.8972
  53   2.0000      -0.466136       -12.6842
  54   2.0000      -0.461082       -12.5467
  55   2.0000      -0.456528       -12.4228
  56   2.0000      -0.451223       -12.2784
  57   2.0000      -0.442724       -12.0471
  58   2.0000      -0.432710       -11.7746
  59   2.0000      -0.422494       -11.4966
  60   2.0000      -0.419843       -11.4245
  61   2.0000      -0.415441       -11.3047
  62   2.0000      -0.408542       -11.1170
  63   2.0000      -0.347564        -9.4577
  64   2.0000      -0.331575        -9.0226
  65   2.0000      -0.328763        -8.9461
  66   2.0000      -0.285317        -7.7639
  67   0.0000       0.035666         0.9705
  68   0.0000       0.063762         1.7351
  69   0.0000       0.108928         2.9641
  70   0.0000       0.124783         3.3955
  71   0.0000       0.126719         3.4482

MULLIKEN ATOMIC CHARGES
-----------------------
   0 S :    0.141338
   1 C :   -0.126913
   2 C :   -0.104423
   3 C :    0.038874
   4 C :   -0.154354
   5 H :   -0.001149
   6 C :    0.091018
   7 H :    0.021615
   8 H :    0.032397
   9 C :   -0.101001
  10 H :    0.002539
  11 H :    0.034683
  12 C :   -0.038301
  13 H :    0.046265
  14 H :    0.037599
  15 H :    0.025210
  16 S :    0.116002
  17 C :   -0.082746
  18 C :   -0.041599
  19 C :   -0.032512
  20 C :   -0.165884
  21 H :    0.021416
  22 C :   -0.004403
  23 H :    0.026528
  24 H :    0.057138
  25 C :   -0.022382
  26 H :    0.037059
  27 H :    0.020270
  28 C :   -0.076706
  29 H :    0.028593
  30 H :    0.033735
  31 H :    0.037143
  32 H :    0.044565
  33 H :    0.058387
Sum of atomic charges:   -0.0000000

LOEWDIN ATOMIC CHARGES
----------------------
   0 S :    0.442726
   1 C :   -0.227061
   2 C :   -0.069123
   3 C :   -0.058761
   4 C :   -0.194072
   5 H :    0.030061
   6 C :   -0.022390
   7 H :    0.032931
   8 H :    0.026053
   9 C :   -0.038114
  10 H :    0.006599
  11 H :    0.026545
  12 C :   -0.067568
  13 H :    0.035809
  14 H :    0.027225
  15 H :    0.023191
  16 S :    0.396260
  17 C :   -0.187291
  18 C :   -0.070136
  19 C :   -0.056325
  20 C :   -0.193341
  21 H :    0.029388
  22 C :   -0.041832
  23 H :    0.027421
  24 H :    0.048034
  25 C :   -0.037895
  26 H :    0.030985
  27 H :    0.018194
  28 C :   -0.072466
  29 H :    0.027967
  30 H :    0.023016
  31 H :    0.026699
  32 H :    0.027653
  33 H :    0.029618

  Mayer bond orders larger than 0.100000
B(  0-S ,  1-C ) :   1.1628 B(  0-S ,  4-C ) :   1.1714 B(  1-C ,  2-C ) :   1.5729
B(  1-C , 32-H ) :   0.9665 B(  2-C ,  3-C ) :   1.2954 B(  2-C ,  6-C ) :   1.0152
B(  3-C ,  4-C ) :   1.5315 B(  3-C ,  5-H ) :   0.9997 B(  4-C , 20-C ) :   1.0284
B(  6-C ,  7-H ) :   0.9492 B(  6-C ,  8-H ) :   0.9266 B(  6-C ,  9-C ) :   1.0750
B(  9-C , 10-H ) :   0.9554 B(  9-C , 11-H ) :   0.9545 B(  9-C , 12-C ) :   1.0763
B( 12-C , 13-H ) :   0.9732 B( 12-C , 14-H ) :   0.9742 B( 12-C , 15-H ) :   0.9744
B( 16-S , 17-C ) :   1.1533 B( 16-S , 20-C ) :   1.1295 B( 17-C , 18-C ) :   1.6237
B( 17-C , 33-H ) :   0.9616 B( 18-C , 19-C ) :   1.2214 B( 18-C , 21-H ) :   0.9865
B( 19-C , 20-C ) :   1.6083 B( 19-C , 22-C ) :   1.0389 B( 22-C , 23-H ) :   0.9417
B( 22-C , 24-H ) :   0.9271 B( 22-C , 25-C ) :   1.0644 B( 25-C , 26-H ) :   0.9546
B( 25-C , 27-H ) :   0.9520 B( 25-C , 28-C ) :   1.0757 B( 28-C , 29-H ) :   0.9713
B( 28-C , 30-H ) :   0.9738 B( 28-C , 31-H ) :   0.9762

Dispersion correction           -0.014380908
FINAL SINGLE POINT ENERGY     -1339.867211933223

DIPOLE MOMENT
-------------
                                X             Y             Z
Electronic contribution:     14.68631      26.55637      -1.94080
Nuclear contribution   :    -15.11938     -27.07340       2.07613
                        -----------------------------------------
Total Dipole Moment    :     -0.43307      -0.51703       0.13533
                        -----------------------------------------
Magnitude (a.u.)       :      0.68788
Magnitude (Debye)      :      1.74845

Rotational constants in cm-1:     0.019599     0.008495     0.006390
Rotational constants in MHz :   587.575189   254.666158   191.571694

                             ****ORCA TERMINATED NORMALLY****
TOTAL RUN TIME: 0 days 0 hours 0 minutes 21 seconds 751 msec
