                         Program Version 4.2.1 -  RELEASE  -
|  1> ! wB97X-D3 SP def2-SVP
|  2> %pal
|  3> nprocs 24
|  4> end
|  5>
|  6> * xyz 0 1
|  7> S 	 -80.4606 	 -23.4953 	 -54.1263
|  8> C 	 -79.8229 	 -23.1859 	 -52.4914
|  9> C 	 -80.156 	 -24.1811 	 -51.603
| 10> C 	 -80.9727 	 -25.1358 	 -52.1785
| 11> C 	 -81.321 	 -24.8809 	 -53.5081
| 12> H 	 -81.4688 	 -25.9252 	 -51.623
| 13> C 	 -79.7996 	 -24.1018 	 -50.1767
| 14> H 	 -79.0386 	 -23.3514 	 -50.0078
| 15> H 	 -79.2926 	 -24.9884 	 -49.9423
| 16> C 	 -80.9996 	 -23.9177 	 -49.2832
| 17> H 	 -81.5124 	 -22.928 	 -49.2118
| 18> H 	 -81.8726 	 -24.5128 	 -49.5966
| 19> C 	 -80.6518 	 -24.2944 	 -47.842
| 20> H 	 -79.645 	 -23.8416 	 -47.6039
| 21> H 	 -81.4349 	 -23.9065 	 -47.1566
| 22> H 	 -80.6695 	 -25.3909 	 -47.7227
| 23> S 	 -83.5573 	 -24.9203 	 -54.9612
| 24> C 	 -84.0172 	 -26.2413 	 -55.9845
| 25> C 	 -83.2579 	 -27.3383 	 -55.5936
| 26> C 	 -82.1812 	 -27.0408 	 -54.7153
| 27> C 	 -82.1141 	 -25.7122 	 -54.4039
| 28> H 	 -83.51 	 -28.2754 	 -55.9613
| 29> C 	 -81.3301 	 -28.1322 	 -54.1026
| 30> H 	 -82.1003 	 -28.706 	 -53.5439
| 31> H 	 -80.5139 	 -27.8125 	 -53.4485
| 32> C 	 -80.6084 	 -29.1147 	 -55.1464
| 33> H 	 -81.3268 	 -29.4136 	 -55.9194
| 34> H 	 -80.3057 	 -30.023 	 -54.5905
| 35> C 	 -79.4494 	 -28.4913 	 -55.8809
| 36> H 	 -78.7648 	 -28.0596 	 -55.1082
| 37> H 	 -79.7707 	 -27.7213 	 -56.5613
| 38> H 	 -78.8879 	 -29.293 	 -56.4857
| 39> H 	 -79.1398 	 -22.4166 	 -52.2273
| 40> H 	 -84.8675 	 -26.2941 	 -56.6915
| 41> *
| 42>
| 43>                          ****END OF INPUT****

CARTESIAN COORDINATES (ANGSTROEM)
---------------------------------
  S    -80.460600  -23.495300  -54.126300
  C    -79.822900  -23.185900  -52.491400
  C    -80.156000  -24.181100  -51.603000
  C    -80.972700  -25.135800  -52.178500
  C    -81.321000  -24.880900  -53.508100
  H    -81.468800  -25.925200  -51.623000
  C    -79.799600  -24.101800  -50.176700
  H    -79.038600  -23.351400  -50.007800
  H    -79.292600  -24.988400  -49.942300
  C    -80.999600  -23.917700  -49.283200
  H    -81.512400  -22.928000  -49.211800
  H    -81.872600  -24.512800  -49.596600
  C    -80.651800  -24.294400  -47.842000
  H    -79.645000  -23.841600  -47.603900
  H    -81.434900  -23.906500  -47.156600
  H    -80.669500  -25.390900  -47.722700
  S    -83.557300  -24.920300  -54.961200
  C    -84.017200  -26.241300  -55.984500
  C    -83.257900  -27.338300  -55.593600
  C    -82.181200  -27.040800  -54.715300
  C    -82.114100  -25.712200  -54.403900
  H    -83.510000  -28.275400  -55.961300
  C    -81.330100  -28.132200  -54.102600
  H    -82.100300  -28.706000  -53.543900
  H    -80.513900  -27.812500  -53.448500
  C    -80.608400  -29.114700  -55.146400
  H    -81.326800  -29.413600  -55.919400
  H    -80.305700  -30.023000  -54.590500
  C    -79.449400  -28.491300  -55.880900
  H    -78.764800  -28.059600  -55.108200
  H    -79.770700  -27.721300  -56.561300
  H    -78.887900  -29.293000  -56.485700
  H    -79.139800  -22.416600  -52.227300
  H    -84.867500  -26.294100  -56.691500

 Total Charge           Charge          ....    0
 Multiplicity           Mult            ....    1
 Number of Electrons    NEL             ....  134
 Basis Dimension        Dim             ....  322

ORBITAL ENERGIES
----------------

  NO   OCC          E(Eh)            E(eV)
   0   2.0000     -88.967684     -2420.9337
   1   2.0000     -88.958468     -2420.6830
   2   2.0000     -10.329190      -281.0715
   3   2.0000     -10.320313      -280.8300
   4   2.0000     -10.318722      -280.7867
   5   2.0000     -10.309881      -280.5461
   6   2.0000     -10.301687      -280.3232
   7   2.0000     -10.297373      -280.2058
   8   2.0000     -10.291918      -280.0573
   9   2.0000     -10.291385      -280.0428
  10   2.0000     -10.288135      -279.9544
  11   2.0000     -10.287976      -279.9501
  12   2.0000     -10.287255      -279.9304
  13   2.0000     -10.286256      -279.9033
  14   2.0000     -10.284349      -279.8514
  15   2.0000     -10.279624      -279.7228
  16   2.0000      -8.081842      -219.9181
  17   2.0000      -8.074084      -219.7070
  18   2.0000      -6.040210      -164.3625
  19   2.0000      -6.036438      -164.2598
  20   2.0000      -6.032770      -164.1600
  21   2.0000      -6.032555      -164.1542
  22   2.0000      -6.028492      -164.0436
  23   2.0000      -6.024772      -163.9424
  24   2.0000      -1.010587       -27.4995
  25   2.0000      -0.988613       -26.9015
  26   2.0000      -0.921607       -25.0782
  27   2.0000      -0.902363       -24.5545
  28   2.0000      -0.870902       -23.6985
  29   2.0000      -0.850906       -23.1543
  30   2.0000      -0.845903       -23.0182
  31   2.0000      -0.815598       -22.1936
  32   2.0000      -0.781068       -21.2539
  33   2.0000      -0.769804       -20.9474
  34   2.0000      -0.708343       -19.2750
  35   2.0000      -0.695859       -18.9353
  36   2.0000      -0.689879       -18.7726
  37   2.0000      -0.660571       -17.9751
  38   2.0000      -0.643111       -17.4999
  39   2.0000      -0.625469       -17.0199
  40   2.0000      -0.598014       -16.2728
  41   2.0000      -0.573782       -15.6134
  42   2.0000      -0.558113       -15.1870
  43   2.0000      -0.547579       -14.9004
  44   2.0000      -0.541741       -14.7415
  45   2.0000      -0.533400       -14.5146
  46   2.0000      -0.523956       -14.2576
  47   2.0000      -0.515890       -14.0381
  48   2.0000      -0.499611       -13.5951
  49   2.0000      -0.498452       -13.5636
  50   2.0000      -0.486757       -13.2453
  51   2.0000      -0.478431       -13.0188
  52   2.0000      -0.472868       -12.8674
  53   2.0000      -0.462415       -12.5830
  54   2.0000      -0.458770       -12.4838
  55   2.0000      -0.449022       -12.2185
  56   2.0000      -0.445737       -12.1291
  57   2.0000      -0.441082       -12.0025
  58   2.0000      -0.430828       -11.7234
  59   2.0000      -0.422818       -11.5055
  60   2.0000      -0.417426       -11.3587
  61   2.0000      -0.410974       -11.1832
  62   2.0000      -0.410330       -11.1656
  63   2.0000      -0.337606        -9.1867
  64   2.0000      -0.335491        -9.1292
  65   2.0000      -0.322083        -8.7643
  66   2.0000      -0.297266        -8.0890
  67   0.0000       0.030693         0.8352
  68   0.0000       0.068364         1.8603
  69   0.0000       0.110565         3.0086
  70   0.0000       0.118562         3.2262
  71   0.0000       0.137416         3.7393

MULLIKEN ATOMIC CHARGES
-----------------------
   0 S :    0.122341
   1 C :   -0.109341
   2 C :   -0.089935
   3 C :    0.029828
   4 C :   -0.159179
   5 H :    0.013775
   6 C :    0.145683
   7 H :    0.010311
   8 H :    0.010798
   9 C :   -0.101142
  10 H :    0.034858
  11 H :    0.026493
  12 C :   -0.076219
  13 H :    0.042115
  14 H :    0.036638
  15 H :    0.038645
  16 S :    0.096244
  17 C :   -0.090553
  18 C :   -0.039025
  19 C :    0.004575
  20 C :   -0.175916
  21 H :   -0.008932
  22 C :    0.035738
  23 H :    0.045575
  24 H :    0.034311
  25 C :   -0.095915
  26 H :    0.024914
  27 H :    0.034674
  28 C :   -0.066943
  29 H :    0.034112
  30 H :    0.044660
  31 H :    0.047112
  32 H :    0.029107
  33 H :    0.070592
Sum of atomic charges:    0.0000000

LOEWDIN ATOMIC CHARGES
----------------------
   0 S :    0.407001
   1 C :   -0.181888
   2 C :   -0.065772
   3 C :   -0.060902
   4 C :   -0.199571
   5 H :    0.031393
   6 C :   -0.026038
   7 H :    0.031221
   8 H :    0.028477
   9 C :   -0.048658
  10 H :    0.031118
  11 H :    0.024721
  12 C :   -0.070014
  13 H :    0.029347
  14 H :    0.027886
  15 H :    0.024292
  16 S :    0.415991
  17 C :   -0.191396
  18 C :   -0.068043
  19 C :   -0.061592
  20 C :   -0.207536
  21 H :    0.016490
  22 C :   -0.030267
  23 H :    0.040397
  24 H :    0.029220
  25 C :   -0.046027
  26 H :    0.019389
  27 H :    0.024943
  28 C :   -0.071601
  29 H :    0.027156
  30 H :    0.025074
  31 H :    0.035977
  32 H :    0.019928
  33 H :    0.039282

  Mayer bond orders larger than 0.100000
B(  0-S ,  1-C ) :   1.1359 B(  0-S ,  4-C ) :   1.1716 B(  1-C ,  2-C ) :   1.6017
B(  1-C ,  4-C ) :   0.1083 B(  1-C , 32-H ) :   0.9686 B(  2-C ,  3-C ) :   1.2670
B(  2-C ,  6-C ) :   1.0328 B(  3-C ,  4-C ) :   1.5494 B(  3-C ,  5-H ) :   0.9958
B(  4-C , 20-C ) :   1.0076 B(  6-C ,  7-H ) :   0.9259 B(  6-C ,  8-H ) :   0.9275
B(  6-C ,  9-C ) :   1.0487 B(  9-C , 10-H ) :   0.9556 B(  9-C , 11-H ) :   0.9599
B(  9-C , 12-C ) :   1.0758 B( 12-C , 13-H ) :   0.9735 B( 12-C , 14-H ) :   0.9750
B( 12-C , 15-H ) :   0.9782 B( 16-S , 17-C ) :   1.1598 B( 16-S , 20-C ) :   1.1575
B( 17-C , 18-C ) :   1.5856 B( 17-C , 20-C ) :   0.1032 B( 17-C , 33-H ) :   0.9682
B( 18-C , 19-C ) :   1.2349 B( 18-C , 21-H ) :   1.0020 B( 19-C , 20-C ) :   1.5898
B( 19-C , 22-C ) :   1.0342 B( 22-C , 23-H ) :   0.9331 B( 22-C , 24-H ) :   0.9453
B( 22-C , 25-C ) :   1.0638 B( 25-C , 26-H ) :   0.9572 B( 25-C , 27-H ) :   0.9574
B( 25-C , 28-C ) :   1.0749 B( 28-C , 29-H ) :   0.9738 B( 28-C , 30-H ) :   0.9751
B( 28-C , 31-H ) :   0.9717

Dispersion correction           -0.013940769
FINAL SINGLE POINT ENERGY     -1339.875797884505

DIPOLE MOMENT
-------------
                                X             Y             Z
Electronic contribution:     -9.88288      13.37513     -16.24097
Nuclear contribution   :      9.94669     -13.85822      16.70089
                        -----------------------------------------
Total Dipole Moment    :      0.06381      -0.48308       0.45991
                        -----------------------------------------
Magnitude (a.u.)       :      0.67005
Magnitude (Debye)      :      1.70312

Rotational constants in cm-1:     0.019237     0.007794     0.007055
Rotational constants in MHz :   576.696834   233.667353   211.514439

                             ****ORCA TERMINATED NORMALLY****
TOTAL RUN TIME: 0 days 0 hours 0 minutes 21 seconds 518 msec
