                         Program Version 4.2.1 -  RELEASE  -
|  1> ! wB97X-D3 SP def2-SVP
|  2> %pal
|  3> nprocs 24
|  4> end
|  5>
|  6> * xyz 0 1
|  7> S 	 -119.201 	 24.453 	 -20.0824
|  8> C 	 -118.365 	 24.1231 	 -21.5537
|  9> C 	 -117.156 	 24.8215 	 -21.6537
| 10> C 	 -116.908 	 25.5747 	 -20.4185
| 11> C 	 -117.948 	 25.5137 	 -19.5039
| 12> H 	 -115.98 	 26.1315 	 -20.2342
| 13> C 	 -116.141 	 24.8164 	 -22.7529
| 14> H 	 -115.207 	 25.1153 	 -22.3142
| 15> H 	 -116.439 	 25.5915 	 -23.4766
| 16> C 	 -115.856 	 23.4089 	 -23.3816
| 17> H 	 -115.778 	 22.756 	 -22.6076
| 18> H 	 -116.669 	 23.1392 	 -24.0195
| 19> C 	 -114.624 	 23.3566 	 -24.2704
| 20> H 	 -113.712 	 23.5622 	 -23.8108
| 21> H 	 -114.402 	 22.3692 	 -24.6843
| 22> H 	 -114.808 	 24.1452 	 -24.9932
| 23> S 	 -118.527 	 25.3609 	 -16.7401
| 24> C 	 -118.436 	 26.7262 	 -15.7265
| 25> C 	 -117.98 	 27.8216 	 -16.457
| 26> C 	 -117.704 	 27.5819 	 -17.8691
| 27> C 	 -118.027 	 26.305 	 -18.2274
| 28> H 	 -117.759 	 28.6295 	 -15.7982
| 29> C 	 -117.246 	 28.7168 	 -18.8394
| 30> H 	 -116.73 	 28.1711 	 -19.6806
| 31> H 	 -116.402 	 29.3012 	 -18.3604
| 32> C 	 -118.271 	 29.6142 	 -19.5517
| 33> H 	 -117.792 	 30.2927 	 -20.3465
| 34> H 	 -118.73 	 30.2547 	 -18.8004
| 35> C 	 -119.476 	 28.8283 	 -20.2348
| 36> H 	 -119.129 	 28.3656 	 -21.1918
| 37> H 	 -120.386 	 29.3259 	 -20.3638
| 38> H 	 -119.774 	 27.947 	 -19.6704
| 39> H 	 -118.717 	 23.5345 	 -22.4288
| 40> H 	 -118.59 	 26.7986 	 -14.6213
| 41> *
| 42>
| 43>                          ****END OF INPUT****

CARTESIAN COORDINATES (ANGSTROEM)
---------------------------------
  S    -119.201000   24.453000  -20.082400
  C    -118.365000   24.123100  -21.553700
  C    -117.156000   24.821500  -21.653700
  C    -116.908000   25.574700  -20.418500
  C    -117.948000   25.513700  -19.503900
  H    -115.980000   26.131500  -20.234200
  C    -116.141000   24.816400  -22.752900
  H    -115.207000   25.115300  -22.314200
  H    -116.439000   25.591500  -23.476600
  C    -115.856000   23.408900  -23.381600
  H    -115.778000   22.756000  -22.607600
  H    -116.669000   23.139200  -24.019500
  C    -114.624000   23.356600  -24.270400
  H    -113.712000   23.562200  -23.810800
  H    -114.402000   22.369200  -24.684300
  H    -114.808000   24.145200  -24.993200
  S    -118.527000   25.360900  -16.740100
  C    -118.436000   26.726200  -15.726500
  C    -117.980000   27.821600  -16.457000
  C    -117.704000   27.581900  -17.869100
  C    -118.027000   26.305000  -18.227400
  H    -117.759000   28.629500  -15.798200
  C    -117.246000   28.716800  -18.839400
  H    -116.730000   28.171100  -19.680600
  H    -116.402000   29.301200  -18.360400
  C    -118.271000   29.614200  -19.551700
  H    -117.792000   30.292700  -20.346500
  H    -118.730000   30.254700  -18.800400
  C    -119.476000   28.828300  -20.234800
  H    -119.129000   28.365600  -21.191800
  H    -120.386000   29.325900  -20.363800
  H    -119.774000   27.947000  -19.670400
  H    -118.717000   23.534500  -22.428800
  H    -118.590000   26.798600  -14.621300

 Total Charge           Charge          ....    0
 Multiplicity           Mult            ....    1
 Number of Electrons    NEL             ....  134
 Basis Dimension        Dim             ....  322

ORBITAL ENERGIES
----------------

  NO   OCC          E(Eh)            E(eV)
   0   2.0000     -88.971974     -2421.0505
   1   2.0000     -88.962610     -2420.7957
   2   2.0000     -10.337902      -281.3086
   3   2.0000     -10.335302      -281.2379
   4   2.0000     -10.319672      -280.8126
   5   2.0000     -10.317665      -280.7579
   6   2.0000     -10.314289      -280.6661
   7   2.0000     -10.304896      -280.4105
   8   2.0000     -10.304039      -280.3872
   9   2.0000     -10.299032      -280.2509
  10   2.0000     -10.296632      -280.1856
  11   2.0000     -10.294633      -280.1312
  12   2.0000     -10.293259      -280.0938
  13   2.0000     -10.279612      -279.7225
  14   2.0000     -10.273451      -279.5548
  15   2.0000     -10.269630      -279.4509
  16   2.0000      -8.086668      -220.0494
  17   2.0000      -8.077220      -219.7923
  18   2.0000      -6.045264      -164.5000
  19   2.0000      -6.041069      -164.3858
  20   2.0000      -6.037440      -164.2871
  21   2.0000      -6.035775      -164.2418
  22   2.0000      -6.031698      -164.1309
  23   2.0000      -6.027966      -164.0293
  24   2.0000      -1.002889       -27.2900
  25   2.0000      -0.982857       -26.7449
  26   2.0000      -0.915178       -24.9032
  27   2.0000      -0.897700       -24.4277
  28   2.0000      -0.865395       -23.5486
  29   2.0000      -0.854072       -23.2405
  30   2.0000      -0.838149       -22.8072
  31   2.0000      -0.811758       -22.0891
  32   2.0000      -0.782173       -21.2840
  33   2.0000      -0.774629       -21.0787
  34   2.0000      -0.715177       -19.4609
  35   2.0000      -0.701192       -19.0804
  36   2.0000      -0.687004       -18.6943
  37   2.0000      -0.655275       -17.8310
  38   2.0000      -0.635429       -17.2909
  39   2.0000      -0.616020       -16.7628
  40   2.0000      -0.585422       -15.9302
  41   2.0000      -0.578326       -15.7370
  42   2.0000      -0.569498       -15.4968
  43   2.0000      -0.545400       -14.8411
  44   2.0000      -0.538413       -14.6510
  45   2.0000      -0.529936       -14.4203
  46   2.0000      -0.515143       -14.0177
  47   2.0000      -0.506477       -13.7819
  48   2.0000      -0.500473       -13.6186
  49   2.0000      -0.499352       -13.5880
  50   2.0000      -0.490241       -13.3401
  51   2.0000      -0.475192       -12.9306
  52   2.0000      -0.472269       -12.8511
  53   2.0000      -0.459760       -12.5107
  54   2.0000      -0.455921       -12.4062
  55   2.0000      -0.454915       -12.3789
  56   2.0000      -0.441093       -12.0027
  57   2.0000      -0.437403       -11.9023
  58   2.0000      -0.432256       -11.7623
  59   2.0000      -0.427467       -11.6320
  60   2.0000      -0.419551       -11.4166
  61   2.0000      -0.409795       -11.1511
  62   2.0000      -0.406237       -11.0543
  63   2.0000      -0.352904        -9.6030
  64   2.0000      -0.331154        -9.0112
  65   2.0000      -0.327089        -8.9005
  66   2.0000      -0.295127        -8.0308
  67   0.0000       0.030022         0.8169
  68   0.0000       0.071376         1.9422
  69   0.0000       0.110610         3.0098
  70   0.0000       0.115536         3.1439
  71   0.0000       0.132047         3.5932

MULLIKEN ATOMIC CHARGES
-----------------------
   0 S :    0.135053
   1 C :   -0.127511
   2 C :   -0.129376
   3 C :    0.007041
   4 C :   -0.132166
   5 H :    0.032186
   6 C :    0.066525
   7 H :    0.013153
   8 H :    0.048857
   9 C :   -0.043826
  10 H :    0.012576
  11 H :    0.026033
  12 C :   -0.028133
  13 H :    0.010022
  14 H :    0.034688
  15 H :    0.027172
  16 S :    0.087325
  17 C :   -0.107688
  18 C :   -0.049444
  19 C :   -0.023648
  20 C :   -0.154157
  21 H :    0.010628
  22 C :    0.039214
  23 H :    0.014431
  24 H :    0.044337
  25 C :   -0.066616
  26 H :    0.050990
  27 H :    0.029462
  28 C :   -0.056108
  29 H :    0.032095
  30 H :    0.026131
  31 H :    0.029881
  32 H :    0.061963
  33 H :    0.078907
Sum of atomic charges:    0.0000000

LOEWDIN ATOMIC CHARGES
----------------------
   0 S :    0.429361
   1 C :   -0.218958
   2 C :   -0.062679
   3 C :   -0.065155
   4 C :   -0.203169
   5 H :    0.032934
   6 C :   -0.030975
   7 H :    0.027515
   8 H :    0.037911
   9 C :   -0.026120
  10 H :    0.010794
  11 H :    0.021309
  12 C :   -0.060317
  13 H :    0.013845
  14 H :    0.030952
  15 H :    0.027430
  16 S :    0.384354
  17 C :   -0.204849
  18 C :   -0.080655
  19 C :   -0.055941
  20 C :   -0.167123
  21 H :    0.026592
  22 C :   -0.040740
  23 H :    0.031469
  24 H :    0.038997
  25 C :   -0.041312
  26 H :    0.036547
  27 H :    0.019744
  28 C :   -0.070614
  29 H :    0.029188
  30 H :    0.017712
  31 H :    0.026668
  32 H :    0.039397
  33 H :    0.045886

  Mayer bond orders larger than 0.100000
B(  0-S ,  1-C ) :   1.1391 B(  0-S ,  4-C ) :   1.1598 B(  1-C ,  2-C ) :   1.6091
B(  1-C , 32-H ) :   0.9618 B(  2-C ,  3-C ) :   1.2505 B(  2-C ,  6-C ) :   1.0287
B(  3-C ,  4-C ) :   1.5724 B(  3-C ,  5-H ) :   0.9809 B(  4-C , 20-C ) :   1.0153
B(  6-C ,  7-H ) :   0.9449 B(  6-C ,  8-H ) :   0.9238 B(  6-C ,  9-C ) :   1.0675
B(  9-C , 10-H ) :   0.9610 B(  9-C , 11-H ) :   0.9507 B(  9-C , 12-C ) :   1.0926
B( 12-C , 13-H ) :   0.9746 B( 12-C , 14-H ) :   0.9721 B( 12-C , 15-H ) :   0.9749
B( 16-S , 17-C ) :   1.1548 B( 16-S , 20-C ) :   1.1243 B( 17-C , 18-C ) :   1.6411
B( 17-C , 33-H ) :   0.9586 B( 18-C , 19-C ) :   1.1896 B( 18-C , 21-H ) :   0.9932
B( 19-C , 20-C ) :   1.6396 B( 19-C , 22-C ) :   1.0296 B( 22-C , 23-H ) :   0.9338
B( 22-C , 24-H ) :   0.9393 B( 22-C , 25-C ) :   1.0632 B( 25-C , 26-H ) :   0.9578
B( 25-C , 27-H ) :   0.9594 B( 25-C , 28-C ) :   1.0623 B( 28-C , 29-H ) :   0.9763
B( 28-C , 30-H ) :   0.9782 B( 28-C , 31-H ) :   0.9734

Dispersion correction           -0.014783893
FINAL SINGLE POINT ENERGY     -1339.865881662015

DIPOLE MOMENT
-------------
                                X             Y             Z
Electronic contribution:    -11.75691      -8.35989      21.38716
Nuclear contribution   :     12.22087       8.65132     -21.73034
                        -----------------------------------------
Total Dipole Moment    :      0.46395       0.29143      -0.34319
                        -----------------------------------------
Magnitude (a.u.)       :      0.64650
Magnitude (Debye)      :      1.64326

Rotational constants in cm-1:     0.021890     0.007544     0.006640
Rotational constants in MHz :   656.240792   226.162808   199.051899

                             ****ORCA TERMINATED NORMALLY****
TOTAL RUN TIME: 0 days 0 hours 0 minutes 21 seconds 582 msec
