                         Program Version 4.2.1 -  RELEASE  -
|  1> ! wB97X-D3 SP def2-SVP
|  2> %pal
|  3> nprocs 24
|  4> end
|  5>
|  6> * xyz 0 1
|  7> S 	 -106.409 	 66.4341 	 -12.6411
|  8> C 	 -105.427 	 67.9533 	 -12.6528
|  9> C 	 -104.141 	 67.8217 	 -12.1762
| 10> C 	 -103.926 	 66.4651 	 -11.7641
| 11> C 	 -105.043 	 65.6438 	 -11.7587
| 12> H 	 -103.006 	 66.109 	 -11.5873
| 13> C 	 -102.989 	 68.8037 	 -12.17
| 14> H 	 -103.432 	 69.7171 	 -11.7744
| 15> H 	 -102.636 	 68.956 	 -13.1762
| 16> C 	 -101.856 	 68.4488 	 -11.1502
| 17> H 	 -102.186 	 68.019 	 -10.1773
| 18> H 	 -101.36 	 67.6304 	 -11.6824
| 19> C 	 -100.812 	 69.5703 	 -10.8903
| 20> H 	 -99.926 	 69.1716 	 -10.3308
| 21> H 	 -100.44 	 70.0542 	 -11.8013
| 22> H 	 -101.294 	 70.3209 	 -10.3283
| 23> S 	 -105.889 	 63.0383 	 -12.385
| 24> C 	 -105.28 	 61.6786 	 -11.3778
| 25> C 	 -104.63 	 62.1364 	 -10.3094
| 26> C 	 -104.418 	 63.5523 	 -10.3424
| 27> C 	 -105.106 	 64.2497 	 -11.3458
| 28> H 	 -104.127 	 61.4459 	 -9.68852
| 29> C 	 -103.6 	 64.3054 	 -9.32066
| 30> H 	 -103.458 	 65.3926 	 -9.51083
| 31> H 	 -102.55 	 63.9459 	 -9.45174
| 32> C 	 -103.965 	 64.0458 	 -7.81207
| 33> H 	 -103.395 	 64.5954 	 -7.11374
| 34> H 	 -103.905 	 63.0354 	 -7.5252
| 35> C 	 -105.333 	 64.5439 	 -7.43903
| 36> H 	 -105.585 	 64.4531 	 -6.37271
| 37> H 	 -106.019 	 63.9109 	 -7.95469
| 38> H 	 -105.381 	 65.6527 	 -7.66933
| 39> H 	 -105.807 	 68.8956 	 -12.9656
| 40> H 	 -105.347 	 60.6062 	 -11.5768
| 41> *
| 42>
| 43>                          ****END OF INPUT****

CARTESIAN COORDINATES (ANGSTROEM)
---------------------------------
  S    -106.409000   66.434100  -12.641100
  C    -105.427000   67.953300  -12.652800
  C    -104.141000   67.821700  -12.176200
  C    -103.926000   66.465100  -11.764100
  C    -105.043000   65.643800  -11.758700
  H    -103.006000   66.109000  -11.587300
  C    -102.989000   68.803700  -12.170000
  H    -103.432000   69.717100  -11.774400
  H    -102.636000   68.956000  -13.176200
  C    -101.856000   68.448800  -11.150200
  H    -102.186000   68.019000  -10.177300
  H    -101.360000   67.630400  -11.682400
  C    -100.812000   69.570300  -10.890300
  H    -99.926000   69.171600  -10.330800
  H    -100.440000   70.054200  -11.801300
  H    -101.294000   70.320900  -10.328300
  S    -105.889000   63.038300  -12.385000
  C    -105.280000   61.678600  -11.377800
  C    -104.630000   62.136400  -10.309400
  C    -104.418000   63.552300  -10.342400
  C    -105.106000   64.249700  -11.345800
  H    -104.127000   61.445900   -9.688520
  C    -103.600000   64.305400   -9.320660
  H    -103.458000   65.392600   -9.510830
  H    -102.550000   63.945900   -9.451740
  C    -103.965000   64.045800   -7.812070
  H    -103.395000   64.595400   -7.113740
  H    -103.905000   63.035400   -7.525200
  C    -105.333000   64.543900   -7.439030
  H    -105.585000   64.453100   -6.372710
  H    -106.019000   63.910900   -7.954690
  H    -105.381000   65.652700   -7.669330
  H    -105.807000   68.895600  -12.965600
  H    -105.347000   60.606200  -11.576800

 Total Charge           Charge          ....    0
 Multiplicity           Mult            ....    1
 Number of Electrons    NEL             ....  134
 Basis Dimension        Dim             ....  322

ORBITAL ENERGIES
----------------

  NO   OCC          E(Eh)            E(eV)
   0   2.0000     -88.969004     -2420.9697
   1   2.0000     -88.962726     -2420.7989
   2   2.0000     -10.336224      -281.2629
   3   2.0000     -10.330641      -281.1110
   4   2.0000     -10.320644      -280.8390
   5   2.0000     -10.316372      -280.7227
   6   2.0000     -10.307021      -280.4683
   7   2.0000     -10.302406      -280.3427
   8   2.0000     -10.299221      -280.2561
   9   2.0000     -10.297750      -280.2160
  10   2.0000     -10.295789      -280.1627
  11   2.0000     -10.290772      -280.0261
  12   2.0000     -10.286316      -279.9049
  13   2.0000     -10.284914      -279.8668
  14   2.0000     -10.274910      -279.5945
  15   2.0000     -10.268295      -279.4145
  16   2.0000      -8.081907      -219.9199
  17   2.0000      -8.076586      -219.7751
  18   2.0000      -6.040662      -164.3748
  19   2.0000      -6.036972      -164.2743
  20   2.0000      -6.035430      -164.2324
  21   2.0000      -6.032224      -164.1452
  22   2.0000      -6.031229      -164.1181
  23   2.0000      -6.027018      -164.0035
  24   2.0000      -1.000274       -27.2188
  25   2.0000      -0.978080       -26.6149
  26   2.0000      -0.911112       -24.7926
  27   2.0000      -0.904953       -24.6250
  28   2.0000      -0.873617       -23.7723
  29   2.0000      -0.850025       -23.1304
  30   2.0000      -0.842986       -22.9388
  31   2.0000      -0.819866       -22.3097
  32   2.0000      -0.784189       -21.3389
  33   2.0000      -0.768047       -20.8996
  34   2.0000      -0.717146       -19.5145
  35   2.0000      -0.695919       -18.9369
  36   2.0000      -0.691916       -18.8280
  37   2.0000      -0.655872       -17.8472
  38   2.0000      -0.640383       -17.4257
  39   2.0000      -0.629229       -17.1222
  40   2.0000      -0.597578       -16.2609
  41   2.0000      -0.577368       -15.7110
  42   2.0000      -0.566685       -15.4203
  43   2.0000      -0.551385       -15.0040
  44   2.0000      -0.545510       -14.8441
  45   2.0000      -0.528668       -14.3858
  46   2.0000      -0.518946       -14.1212
  47   2.0000      -0.507790       -13.8177
  48   2.0000      -0.506762       -13.7897
  49   2.0000      -0.494353       -13.4520
  50   2.0000      -0.488739       -13.2993
  51   2.0000      -0.479749       -13.0546
  52   2.0000      -0.468808       -12.7569
  53   2.0000      -0.467962       -12.7339
  54   2.0000      -0.457460       -12.4481
  55   2.0000      -0.449901       -12.2424
  56   2.0000      -0.443910       -12.0794
  57   2.0000      -0.435092       -11.8395
  58   2.0000      -0.431581       -11.7439
  59   2.0000      -0.425356       -11.5745
  60   2.0000      -0.424689       -11.5564
  61   2.0000      -0.411542       -11.1986
  62   2.0000      -0.402051       -10.9404
  63   2.0000      -0.359011        -9.7692
  64   2.0000      -0.332081        -9.0364
  65   2.0000      -0.327337        -8.9073
  66   2.0000      -0.284764        -7.7488
  67   0.0000       0.020105         0.5471
  68   0.0000       0.070371         1.9149
  69   0.0000       0.094642         2.5753
  70   0.0000       0.121332         3.3016
  71   0.0000       0.132382         3.6023

MULLIKEN ATOMIC CHARGES
-----------------------
   0 S :    0.095584
   1 C :   -0.115840
   2 C :   -0.088731
   3 C :    0.029753
   4 C :   -0.109582
   5 H :   -0.028854
   6 C :    0.098156
   7 H :    0.024009
   8 H :    0.053278
   9 C :   -0.154221
  10 H :    0.048704
  11 H :    0.036812
  12 C :   -0.022340
  13 H :    0.046016
  14 H :    0.030720
  15 H :    0.026980
  16 S :    0.073700
  17 C :   -0.086956
  18 C :    0.005887
  19 C :   -0.071379
  20 C :   -0.103817
  21 H :    0.010101
  22 C :    0.028461
  23 H :    0.030247
  24 H :    0.033316
  25 C :   -0.034901
  26 H :    0.011466
  27 H :    0.012978
  28 C :   -0.069851
  29 H :    0.029669
  30 H :    0.031538
  31 H :    0.039167
  32 H :    0.027894
  33 H :    0.062039
Sum of atomic charges:   -0.0000000

LOEWDIN ATOMIC CHARGES
----------------------
   0 S :    0.357158
   1 C :   -0.170162
   2 C :   -0.058269
   3 C :   -0.047963
   4 C :   -0.162639
   5 H :    0.007238
   6 C :   -0.025875
   7 H :    0.031787
   8 H :    0.036590
   9 C :   -0.046963
  10 H :    0.029830
  11 H :    0.021540
  12 C :   -0.062773
  13 H :    0.035425
  14 H :    0.026512
  15 H :    0.018191
  16 S :    0.362221
  17 C :   -0.157938
  18 C :   -0.071915
  19 C :   -0.054862
  20 C :   -0.187854
  21 H :    0.029415
  22 C :   -0.037508
  23 H :    0.033275
  24 H :    0.035890
  25 C :   -0.039684
  26 H :    0.019607
  27 H :    0.013961
  28 C :   -0.065263
  29 H :    0.024126
  30 H :    0.018521
  31 H :    0.031784
  32 H :    0.018328
  33 H :    0.038270

  Mayer bond orders larger than 0.100000
B(  0-S ,  1-C ) :   1.1149 B(  0-S ,  4-C ) :   1.1172 B(  1-C ,  2-C ) :   1.6598
B(  1-C , 32-H ) :   0.9700 B(  2-C ,  3-C ) :   1.2256 B(  2-C ,  6-C ) :   1.0002
B(  3-C ,  4-C ) :   1.5742 B(  3-C ,  5-H ) :   0.9964 B(  4-C , 20-C ) :   1.0749
B(  6-C ,  7-H ) :   0.9398 B(  6-C ,  8-H ) :   0.9363 B(  6-C ,  9-C ) :   1.0640
B(  9-C , 10-H ) :   0.9620 B(  9-C , 11-H ) :   0.9458 B(  9-C , 12-C ) :   1.0801
B( 12-C , 13-H ) :   0.9737 B( 12-C , 14-H ) :   0.9734 B( 12-C , 15-H ) :   0.9759
B( 16-S , 17-C ) :   1.1319 B( 16-S , 20-C ) :   1.1033 B( 17-C , 18-C ) :   1.6578
B( 17-C , 33-H ) :   0.9612 B( 18-C , 19-C ) :   1.2139 B( 18-C , 21-H ) :   0.9899
B( 19-C , 20-C ) :   1.6048 B( 19-C , 22-C ) :   1.0469 B( 22-C , 23-H ) :   0.9405
B( 22-C , 24-H ) :   0.9248 B( 22-C , 25-C ) :   1.0698 B( 25-C , 26-H ) :   0.9556
B( 25-C , 27-H ) :   0.9555 B( 25-C , 28-C ) :   1.0770 B( 28-C , 29-H ) :   0.9743
B( 28-C , 30-H ) :   0.9770 B( 28-C , 31-H ) :   0.9745

Dispersion correction           -0.014329220
FINAL SINGLE POINT ENERGY     -1339.855630675452

DIPOLE MOMENT
-------------
                                X             Y             Z
Electronic contribution:    -19.53076     -12.61187     -18.52765
Nuclear contribution   :     20.38170      12.78352      18.85972
                        -----------------------------------------
Total Dipole Moment    :      0.85094       0.17165       0.33207
                        -----------------------------------------
Magnitude (a.u.)       :      0.92943
Magnitude (Debye)      :      2.36242

Rotational constants in cm-1:     0.017406     0.009071     0.006976
Rotational constants in MHz :   521.806180   271.938088   209.126743

                             ****ORCA TERMINATED NORMALLY****
TOTAL RUN TIME: 0 days 0 hours 0 minutes 21 seconds 937 msec
