                         Program Version 4.2.1 -  RELEASE  -
|  1> ! wB97X-D3 SP def2-SVP
|  2> %pal
|  3> nprocs 24
|  4> end
|  5>
|  6> * xyz 0 1
|  7> S 	 -107.577 	 1.14179 	 -111.344
|  8> C 	 -107.629 	 2.84065 	 -111.917
|  9> C 	 -106.421 	 3.46378 	 -111.782
| 10> C 	 -105.41 	 2.61892 	 -111.226
| 11> C 	 -105.849 	 1.28889 	 -110.967
| 12> H 	 -104.338 	 2.99335 	 -111.162
| 13> C 	 -106.141 	 4.95355 	 -111.971
| 14> H 	 -105.908 	 5.25786 	 -112.972
| 15> H 	 -105.318 	 5.20658 	 -111.335
| 16> C 	 -107.324 	 5.88704 	 -111.497
| 17> H 	 -108.189 	 5.7568 	 -112.15
| 18> H 	 -107.53 	 5.46467 	 -110.465
| 19> C 	 -106.945 	 7.38141 	 -111.336
| 20> H 	 -105.962 	 7.31166 	 -110.755
| 21> H 	 -106.758 	 7.88881 	 -112.389
| 22> H 	 -107.671 	 7.96463 	 -110.839
| 23> S 	 -105.017 	 0.17716 	 -108.591
| 24> C 	 -103.704 	 -0.988499 	 -108.548
| 25> C 	 -103.258 	 -1.2065 	 -109.837
| 26> C 	 -103.905 	 -0.382155 	 -110.791
| 27> C 	 -105.004 	 0.297118 	 -110.316
| 28> H 	 -102.446 	 -1.8996 	 -110.058
| 29> C 	 -103.501 	 -0.390515 	 -112.232
| 30> H 	 -103.719 	 0.640579 	 -112.569
| 31> H 	 -104.242 	 -1.11005 	 -112.705
| 32> C 	 -102.11 	 -0.680388 	 -112.745
| 33> H 	 -101.955 	 -0.688287 	 -113.828
| 34> H 	 -101.945 	 -1.6659 	 -112.307
| 35> C 	 -101.03 	 0.209069 	 -112.242
| 36> H 	 -100.932 	 0.424394 	 -111.155
| 37> H 	 -101.166 	 1.20081 	 -112.683
| 38> H 	 -100.088 	 -0.174418 	 -112.676
| 39> H 	 -108.548 	 3.19217 	 -112.471
| 40> H 	 -103.38 	 -1.50538 	 -107.662
| 41> *
| 42>
| 43>                          ****END OF INPUT****

CARTESIAN COORDINATES (ANGSTROEM)
---------------------------------
  S    -107.577000    1.141790  -111.344000
  C    -107.629000    2.840650  -111.917000
  C    -106.421000    3.463780  -111.782000
  C    -105.410000    2.618920  -111.226000
  C    -105.849000    1.288890  -110.967000
  H    -104.338000    2.993350  -111.162000
  C    -106.141000    4.953550  -111.971000
  H    -105.908000    5.257860  -112.972000
  H    -105.318000    5.206580  -111.335000
  C    -107.324000    5.887040  -111.497000
  H    -108.189000    5.756800  -112.150000
  H    -107.530000    5.464670  -110.465000
  C    -106.945000    7.381410  -111.336000
  H    -105.962000    7.311660  -110.755000
  H    -106.758000    7.888810  -112.389000
  H    -107.671000    7.964630  -110.839000
  S    -105.017000    0.177160  -108.591000
  C    -103.704000   -0.988499  -108.548000
  C    -103.258000   -1.206500  -109.837000
  C    -103.905000   -0.382155  -110.791000
  C    -105.004000    0.297118  -110.316000
  H    -102.446000   -1.899600  -110.058000
  C    -103.501000   -0.390515  -112.232000
  H    -103.719000    0.640579  -112.569000
  H    -104.242000   -1.110050  -112.705000
  C    -102.110000   -0.680388  -112.745000
  H    -101.955000   -0.688287  -113.828000
  H    -101.945000   -1.665900  -112.307000
  C    -101.030000    0.209069  -112.242000
  H    -100.932000    0.424394  -111.155000
  H    -101.166000    1.200810  -112.683000
  H    -100.088000   -0.174418  -112.676000
  H    -108.548000    3.192170  -112.471000
  H    -103.380000   -1.505380  -107.662000

 Total Charge           Charge          ....    0
 Multiplicity           Mult            ....    1
 Number of Electrons    NEL             ....  134
 Basis Dimension        Dim             ....  322

ORBITAL ENERGIES
----------------

  NO   OCC          E(Eh)            E(eV)
   0   2.0000     -88.970146     -2421.0007
   1   2.0000     -88.961479     -2420.7649
   2   2.0000     -10.336752      -281.2773
   3   2.0000     -10.323202      -280.9086
   4   2.0000     -10.320683      -280.8401
   5   2.0000     -10.318118      -280.7703
   6   2.0000     -10.305142      -280.4172
   7   2.0000     -10.303345      -280.3683
   8   2.0000     -10.299801      -280.2718
   9   2.0000     -10.293877      -280.1106
  10   2.0000     -10.293278      -280.0943
  11   2.0000     -10.293178      -280.0916
  12   2.0000     -10.292622      -280.0765
  13   2.0000     -10.287686      -279.9422
  14   2.0000     -10.284128      -279.8453
  15   2.0000     -10.276248      -279.6309
  16   2.0000      -8.083616      -219.9664
  17   2.0000      -8.076619      -219.7760
  18   2.0000      -6.042206      -164.4168
  19   2.0000      -6.038271      -164.3097
  20   2.0000      -6.035136      -164.2244
  21   2.0000      -6.034399      -164.2043
  22   2.0000      -6.030937      -164.1101
  23   2.0000      -6.027475      -164.0159
  24   2.0000      -1.005908       -27.3721
  25   2.0000      -0.981212       -26.7001
  26   2.0000      -0.914876       -24.8950
  27   2.0000      -0.906410       -24.6647
  28   2.0000      -0.868226       -23.6256
  29   2.0000      -0.851899       -23.1813
  30   2.0000      -0.845591       -23.0097
  31   2.0000      -0.808833       -22.0095
  32   2.0000      -0.780064       -21.2266
  33   2.0000      -0.771200       -20.9854
  34   2.0000      -0.707219       -19.2444
  35   2.0000      -0.696110       -18.9421
  36   2.0000      -0.688429       -18.7331
  37   2.0000      -0.655740       -17.8436
  38   2.0000      -0.635529       -17.2936
  39   2.0000      -0.611854       -16.6494
  40   2.0000      -0.595280       -16.1984
  41   2.0000      -0.573748       -15.6125
  42   2.0000      -0.565108       -15.3774
  43   2.0000      -0.555731       -15.1222
  44   2.0000      -0.551206       -14.9991
  45   2.0000      -0.521904       -14.2017
  46   2.0000      -0.519863       -14.1462
  47   2.0000      -0.510252       -13.8847
  48   2.0000      -0.504749       -13.7349
  49   2.0000      -0.496806       -13.5188
  50   2.0000      -0.491916       -13.3857
  51   2.0000      -0.480195       -13.0668
  52   2.0000      -0.471345       -12.8260
  53   2.0000      -0.457693       -12.4545
  54   2.0000      -0.453707       -12.3460
  55   2.0000      -0.446556       -12.1514
  56   2.0000      -0.444340       -12.0911
  57   2.0000      -0.432304       -11.7636
  58   2.0000      -0.430297       -11.7090
  59   2.0000      -0.426859       -11.6154
  60   2.0000      -0.421107       -11.4589
  61   2.0000      -0.413084       -11.2406
  62   2.0000      -0.396697       -10.7947
  63   2.0000      -0.336729        -9.1629
  64   2.0000      -0.332014        -9.0345
  65   2.0000      -0.319567        -8.6959
  66   2.0000      -0.306265        -8.3339
  67   0.0000       0.036726         0.9994
  68   0.0000       0.053254         1.4491
  69   0.0000       0.112683         3.0663
  70   0.0000       0.120292         3.2733
  71   0.0000       0.129810         3.5323

MULLIKEN ATOMIC CHARGES
-----------------------
   0 S :    0.110731
   1 C :   -0.168418
   2 C :   -0.062740
   3 C :    0.020745
   4 C :   -0.187202
   5 H :    0.046469
   6 C :    0.092280
   7 H :    0.033497
   8 H :    0.010261
   9 C :   -0.139227
  10 H :    0.036605
  11 H :    0.046655
  12 C :   -0.068809
  13 H :    0.040290
  14 H :    0.045181
  15 H :    0.042399
  16 S :    0.106790
  17 C :   -0.093749
  18 C :   -0.028293
  19 C :   -0.066208
  20 C :   -0.137436
  21 H :    0.024635
  22 C :    0.047349
  23 H :    0.017991
  24 H :    0.058001
  25 C :   -0.044825
  26 H :    0.041142
  27 H :    0.015714
  28 C :   -0.073123
  29 H :    0.045068
  30 H :    0.017085
  31 H :    0.034320
  32 H :    0.080480
  33 H :    0.056343
Sum of atomic charges:   -0.0000000

LOEWDIN ATOMIC CHARGES
----------------------
   0 S :    0.387487
   1 C :   -0.188218
   2 C :   -0.070809
   3 C :   -0.058678
   4 C :   -0.195999
   5 H :    0.044383
   6 C :   -0.024711
   7 H :    0.026778
   8 H :    0.024125
   9 C :   -0.046290
  10 H :    0.017252
  11 H :    0.031732
  12 C :   -0.072618
  13 H :    0.033692
  14 H :    0.035062
  15 H :    0.019609
  16 S :    0.416779
  17 C :   -0.177838
  18 C :   -0.077409
  19 C :   -0.057635
  20 C :   -0.217635
  21 H :    0.033254
  22 C :   -0.043006
  23 H :    0.028541
  24 H :    0.047274
  25 C :   -0.048298
  26 H :    0.036195
  27 H :    0.019177
  28 C :   -0.072151
  29 H :    0.028300
  30 H :    0.021439
  31 H :    0.030000
  32 H :    0.041454
  33 H :    0.028761

  Mayer bond orders larger than 0.100000
B(  0-S ,  1-C ) :   1.1343 B(  0-S ,  4-C ) :   1.1526 B(  1-C ,  2-C ) :   1.6106
B(  1-C , 32-H ) :   0.9596 B(  2-C ,  3-C ) :   1.2718 B(  2-C ,  6-C ) :   1.0139
B(  3-C ,  4-C ) :   1.5563 B(  3-C ,  5-H ) :   0.9758 B(  4-C , 20-C ) :   1.0246
B(  6-C ,  7-H ) :   0.9320 B(  6-C ,  8-H ) :   0.9469 B(  6-C ,  9-C ) :   1.0617
B(  9-C , 10-H ) :   0.9529 B(  9-C , 11-H ) :   0.9616 B(  9-C , 12-C ) :   1.0768
B( 12-C , 13-H ) :   0.9734 B( 12-C , 14-H ) :   0.9731 B( 12-C , 15-H ) :   0.9755
B( 16-S , 17-C ) :   1.1742 B( 16-S , 20-C ) :   1.1451 B( 17-C , 18-C ) :   1.5767
B( 17-C , 20-C ) :   0.1017 B( 17-C , 33-H ) :   0.9702 B( 18-C , 19-C ) :   1.2585
B( 18-C , 21-H ) :   0.9880 B( 19-C , 20-C ) :   1.5950 B( 19-C , 22-C ) :   1.0349
B( 22-C , 23-H ) :   0.9255 B( 22-C , 24-H ) :   0.9324 B( 22-C , 25-C ) :   1.0799
B( 25-C , 26-H ) :   0.9509 B( 25-C , 27-H ) :   0.9448 B( 25-C , 28-C ) :   1.0881
B( 28-C , 29-H ) :   0.9734 B( 28-C , 30-H ) :   0.9702 B( 28-C , 31-H ) :   0.9727

Dispersion correction           -0.013984977
FINAL SINGLE POINT ENERGY     -1339.865805178556

DIPOLE MOMENT
-------------
                                X             Y             Z
Electronic contribution:    -12.46385     -16.65688      12.01261
Nuclear contribution   :     12.85780      16.96925     -12.36164
                        -----------------------------------------
Total Dipole Moment    :      0.39396       0.31238      -0.34902
                        -----------------------------------------
Magnitude (a.u.)       :      0.61205
Magnitude (Debye)      :      1.55570

Rotational constants in cm-1:     0.020356     0.007182     0.006412
Rotational constants in MHz :   610.255436   215.296731   192.234862

                             ****ORCA TERMINATED NORMALLY****
TOTAL RUN TIME: 0 days 0 hours 0 minutes 21 seconds 324 msec
