                         Program Version 4.2.1 -  RELEASE  -
|  1> ! wB97X-D3 SP def2-SVP
|  2> %pal
|  3> nprocs 24
|  4> end
|  5>
|  6> * xyz 0 1
|  7> S 	 -61.5618 	 16.562 	 -103.173
|  8> C 	 -62.4101 	 16.5435 	 -101.588
|  9> C 	 -61.9372 	 15.4536 	 -100.841
| 10> C 	 -61.0991 	 14.5456 	 -101.642
| 11> C 	 -60.9333 	 14.9309 	 -102.969
| 12> H 	 -60.772 	 13.5095 	 -101.449
| 13> C 	 -62.2042 	 15.1552 	 -99.3919
| 14> H 	 -61.6043 	 14.2928 	 -99.0088
| 15> H 	 -63.2195 	 14.7469 	 -99.3327
| 16> C 	 -62.0374 	 16.359 	 -98.4674
| 17> H 	 -61.0262 	 16.716 	 -98.2916
| 18> H 	 -62.5451 	 17.1919 	 -98.8943
| 19> C 	 -62.5594 	 16.0011 	 -97.1091
| 20> H 	 -62.1726 	 16.5941 	 -96.2532
| 21> H 	 -63.6796 	 16.1295 	 -97.1196
| 22> H 	 -62.3485 	 14.9553 	 -96.8212
| 23> S 	 -59.0885 	 15.1624 	 -104.893
| 24> C 	 -58.6898 	 13.8111 	 -105.905
| 25> C 	 -59.271 	 12.638 	 -105.488
| 26> C 	 -60.1094 	 12.8449 	 -104.322
| 27> C 	 -60.1575 	 14.1725 	 -103.929
| 28> H 	 -59.0955 	 11.6199 	 -105.853
| 29> C 	 -60.9414 	 11.696 	 -103.694
| 30> H 	 -60.9959 	 11.8912 	 -102.632
| 31> H 	 -60.3446 	 10.779 	 -103.835
| 32> C 	 -62.4334 	 11.6104 	 -104.286
| 33> H 	 -62.8372 	 12.5511 	 -104.039
| 34> H 	 -62.9171 	 10.7765 	 -103.74
| 35> C 	 -62.568 	 11.341 	 -105.793
| 36> H 	 -63.6469 	 11.1391 	 -106.022
| 37> H 	 -62.013 	 10.4118 	 -106.119
| 38> H 	 -62.187 	 12.1798 	 -106.429
| 39> H 	 -63.0352 	 17.332 	 -101.242
| 40> H 	 -57.8512 	 13.8145 	 -106.577
| 41> *
| 42>
| 43>                          ****END OF INPUT****

CARTESIAN COORDINATES (ANGSTROEM)
---------------------------------
  S    -61.561800   16.562000  -103.173000
  C    -62.410100   16.543500  -101.588000
  C    -61.937200   15.453600  -100.841000
  C    -61.099100   14.545600  -101.642000
  C    -60.933300   14.930900  -102.969000
  H    -60.772000   13.509500  -101.449000
  C    -62.204200   15.155200  -99.391900
  H    -61.604300   14.292800  -99.008800
  H    -63.219500   14.746900  -99.332700
  C    -62.037400   16.359000  -98.467400
  H    -61.026200   16.716000  -98.291600
  H    -62.545100   17.191900  -98.894300
  C    -62.559400   16.001100  -97.109100
  H    -62.172600   16.594100  -96.253200
  H    -63.679600   16.129500  -97.119600
  H    -62.348500   14.955300  -96.821200
  S    -59.088500   15.162400  -104.893000
  C    -58.689800   13.811100  -105.905000
  C    -59.271000   12.638000  -105.488000
  C    -60.109400   12.844900  -104.322000
  C    -60.157500   14.172500  -103.929000
  H    -59.095500   11.619900  -105.853000
  C    -60.941400   11.696000  -103.694000
  H    -60.995900   11.891200  -102.632000
  H    -60.344600   10.779000  -103.835000
  C    -62.433400   11.610400  -104.286000
  H    -62.837200   12.551100  -104.039000
  H    -62.917100   10.776500  -103.740000
  C    -62.568000   11.341000  -105.793000
  H    -63.646900   11.139100  -106.022000
  H    -62.013000   10.411800  -106.119000
  H    -62.187000   12.179800  -106.429000
  H    -63.035200   17.332000  -101.242000
  H    -57.851200   13.814500  -106.577000

 Total Charge           Charge          ....    0
 Multiplicity           Mult            ....    1
 Number of Electrons    NEL             ....  134
 Basis Dimension        Dim             ....  322

ORBITAL ENERGIES
----------------

  NO   OCC          E(Eh)            E(eV)
   0   2.0000     -88.966452     -2420.9002
   1   2.0000     -88.965170     -2420.8653
   2   2.0000     -10.331653      -281.1386
   3   2.0000     -10.327533      -281.0265
   4   2.0000     -10.320650      -280.8392
   5   2.0000     -10.316173      -280.7173
   6   2.0000     -10.311530      -280.5910
   7   2.0000     -10.306244      -280.4472
   8   2.0000     -10.298923      -280.2479
   9   2.0000     -10.298429      -280.2345
  10   2.0000     -10.297458      -280.2081
  11   2.0000     -10.296081      -280.1706
  12   2.0000     -10.289923      -280.0030
  13   2.0000     -10.285496      -279.8826
  14   2.0000     -10.282542      -279.8022
  15   2.0000     -10.282214      -279.7933
  16   2.0000      -8.080544      -219.8828
  17   2.0000      -8.080121      -219.8713
  18   2.0000      -6.039046      -164.3308
  19   2.0000      -6.038890      -164.3265
  20   2.0000      -6.034943      -164.2192
  21   2.0000      -6.034848      -164.2166
  22   2.0000      -6.031290      -164.1197
  23   2.0000      -6.030571      -164.1002
  24   2.0000      -1.005992       -27.3744
  25   2.0000      -0.978237       -26.6192
  26   2.0000      -0.917706       -24.9721
  27   2.0000      -0.898878       -24.4597
  28   2.0000      -0.872057       -23.7299
  29   2.0000      -0.847918       -23.0730
  30   2.0000      -0.841793       -22.9063
  31   2.0000      -0.812457       -22.1081
  32   2.0000      -0.778779       -21.1916
  33   2.0000      -0.768810       -20.9204
  34   2.0000      -0.711404       -19.3583
  35   2.0000      -0.701269       -19.0825
  36   2.0000      -0.686624       -18.6840
  37   2.0000      -0.668309       -18.1856
  38   2.0000      -0.643053       -17.4984
  39   2.0000      -0.608394       -16.5552
  40   2.0000      -0.590042       -16.0559
  41   2.0000      -0.574531       -15.6338
  42   2.0000      -0.560571       -15.2539
  43   2.0000      -0.553913       -15.0727
  44   2.0000      -0.537500       -14.6261
  45   2.0000      -0.522762       -14.2251
  46   2.0000      -0.516280       -14.0487
  47   2.0000      -0.513382       -13.9698
  48   2.0000      -0.508790       -13.8449
  49   2.0000      -0.497781       -13.5453
  50   2.0000      -0.482525       -13.1302
  51   2.0000      -0.479173       -13.0390
  52   2.0000      -0.472382       -12.8542
  53   2.0000      -0.466019       -12.6810
  54   2.0000      -0.458491       -12.4762
  55   2.0000      -0.448418       -12.2021
  56   2.0000      -0.445220       -12.1150
  57   2.0000      -0.436732       -11.8841
  58   2.0000      -0.431904       -11.7527
  59   2.0000      -0.424932       -11.5630
  60   2.0000      -0.418768       -11.3953
  61   2.0000      -0.414026       -11.2662
  62   2.0000      -0.407909       -11.0998
  63   2.0000      -0.354427        -9.6445
  64   2.0000      -0.332225        -9.0403
  65   2.0000      -0.325007        -8.8439
  66   2.0000      -0.288431        -7.8486
  67   0.0000       0.024378         0.6634
  68   0.0000       0.067411         1.8344
  69   0.0000       0.099336         2.7031
  70   0.0000       0.120582         3.2812
  71   0.0000       0.131662         3.5827

MULLIKEN ATOMIC CHARGES
-----------------------
   0 S :    0.097589
   1 C :   -0.124589
   2 C :   -0.055184
   3 C :   -0.001687
   4 C :   -0.119752
   5 H :    0.023479
   6 C :    0.039128
   7 H :    0.029645
   8 H :    0.040592
   9 C :   -0.040503
  10 H :    0.033336
  11 H :    0.017575
  12 C :   -0.082086
  13 H :    0.036527
  14 H :    0.035442
  15 H :    0.029745
  16 S :    0.099513
  17 C :   -0.073539
  18 C :   -0.029990
  19 C :   -0.087696
  20 C :   -0.167863
  21 H :    0.024469
  22 C :    0.061591
  23 H :    0.014449
  24 H :    0.025483
  25 C :   -0.042893
  26 H :    0.034078
  27 H :    0.039397
  28 C :   -0.095799
  29 H :    0.045002
  30 H :    0.030648
  31 H :    0.058644
  32 H :    0.048172
  33 H :    0.057077
Sum of atomic charges:   -0.0000000

LOEWDIN ATOMIC CHARGES
----------------------
   0 S :    0.377924
   1 C :   -0.185192
   2 C :   -0.051031
   3 C :   -0.072964
   4 C :   -0.193368
   5 H :    0.032602
   6 C :   -0.037080
   7 H :    0.034695
   8 H :    0.037598
   9 C :   -0.040992
  10 H :    0.028586
  11 H :    0.018511
  12 C :   -0.072258
  13 H :    0.027043
  14 H :    0.028971
  15 H :    0.024728
  16 S :    0.412093
  17 C :   -0.187804
  18 C :   -0.069072
  19 C :   -0.059480
  20 C :   -0.194205
  21 H :    0.034935
  22 C :   -0.028948
  23 H :    0.023226
  24 H :    0.028481
  25 C :   -0.029946
  26 H :    0.021604
  27 H :    0.028124
  28 C :   -0.078745
  29 H :    0.032818
  30 H :    0.026193
  31 H :    0.032489
  32 H :    0.023448
  33 H :    0.027016

  Mayer bond orders larger than 0.100000
B(  0-S ,  1-C ) :   1.1105 B(  0-S ,  4-C ) :   1.1351 B(  1-C ,  2-C ) :   1.6105
B(  1-C , 32-H ) :   0.9781 B(  2-C ,  3-C ) :   1.2183 B(  2-C ,  6-C ) :   1.0151
B(  3-C ,  4-C ) :   1.5832 B(  3-C ,  5-H ) :   0.9832 B(  4-C , 20-C ) :   1.0628
B(  6-C ,  7-H ) :   0.9441 B(  6-C ,  8-H ) :   0.9384 B(  6-C ,  9-C ) :   1.0573
B(  9-C , 10-H ) :   0.9569 B(  9-C , 11-H ) :   0.9584 B(  9-C , 12-C ) :   1.0764
B( 12-C , 13-H ) :   0.9756 B( 12-C , 14-H ) :   0.9761 B( 12-C , 15-H ) :   0.9727
B( 16-S , 17-C ) :   1.1554 B( 16-S , 20-C ) :   1.1383 B( 17-C , 18-C ) :   1.6015
B( 17-C , 33-H ) :   0.9661 B( 18-C , 19-C ) :   1.2528 B( 18-C , 21-H ) :   0.9838
B( 19-C , 20-C ) :   1.6038 B( 19-C , 22-C ) :   1.0329 B( 22-C , 23-H ) :   0.9396
B( 22-C , 24-H ) :   0.9355 B( 22-C , 25-C ) :   1.0559 B( 25-C , 26-H ) :   0.9567
B( 25-C , 27-H ) :   0.9583 B( 25-C , 28-C ) :   1.0805 B( 28-C , 29-H ) :   0.9731
B( 28-C , 30-H ) :   0.9748 B( 28-C , 31-H ) :   0.9718

Dispersion correction           -0.014183011
FINAL SINGLE POINT ENERGY     -1339.877567592317

DIPOLE MOMENT
-------------
                                X             Y             Z
Electronic contribution:     12.54652      13.17438     -16.46853
Nuclear contribution   :    -12.68176     -13.69597      16.91021
                        -----------------------------------------
Total Dipole Moment    :     -0.13524      -0.52159       0.44167
                        -----------------------------------------
Magnitude (a.u.)       :      0.69672
Magnitude (Debye)      :      1.77093

Rotational constants in cm-1:     0.022399     0.007378     0.006342
Rotational constants in MHz :   671.517772   221.181858   190.130674

                             ****ORCA TERMINATED NORMALLY****
TOTAL RUN TIME: 0 days 0 hours 0 minutes 21 seconds 408 msec
