                         Program Version 4.2.1 -  RELEASE  -
|  1> ! wB97X-D3 SP def2-SVP
|  2> %pal
|  3> nprocs 24
|  4> end
|  5>
|  6> * xyz 0 1
|  7> S 	 -109.786 	 64.0149 	 -71.531
|  8> C 	 -109.462 	 62.3328 	 -71.5065
|  9> C 	 -109.706 	 61.726 	 -72.6821
| 10> C 	 -110.319 	 62.6723 	 -73.6174
| 11> C 	 -110.392 	 63.9658 	 -73.2236
| 12> H 	 -110.673 	 62.5412 	 -74.585
| 13> C 	 -109.37 	 60.2729 	 -72.9968
| 14> H 	 -110.308 	 59.6934 	 -72.8017
| 15> H 	 -108.609 	 59.75 	 -72.4319
| 16> C 	 -109.066 	 59.9341 	 -74.4801
| 17> H 	 -109.154 	 58.8495 	 -74.6066
| 18> H 	 -109.884 	 60.3378 	 -75.1036
| 19> C 	 -107.708 	 60.6196 	 -75.0367
| 20> H 	 -107.607 	 61.6706 	 -74.7593
| 21> H 	 -106.822 	 60.1478 	 -74.5925
| 22> H 	 -107.675 	 60.5254 	 -76.1516
| 23> S 	 -112.241 	 66.0547 	 -73.0405
| 24> C 	 -112.197 	 67.2989 	 -74.2992
| 25> C 	 -111.414 	 66.8771 	 -75.375
| 26> C 	 -110.674 	 65.6802 	 -75.0992
| 27> C 	 -110.918 	 65.163 	 -73.8129
| 28> H 	 -111.423 	 67.4433 	 -76.2988
| 29> C 	 -109.653 	 65.156 	 -76.1173
| 30> H 	 -109.155 	 64.314 	 -75.6381
| 31> H 	 -108.923 	 65.9599 	 -76.2478
| 32> C 	 -110.275 	 64.9131 	 -77.5508
| 33> H 	 -110.501 	 65.8431 	 -77.9555
| 34> H 	 -111.287 	 64.4221 	 -77.4728
| 35> C 	 -109.349 	 64.1112 	 -78.3962
| 36> H 	 -108.98 	 63.1899 	 -77.8761
| 37> H 	 -108.443 	 64.6989 	 -78.4862
| 38> H 	 -109.798 	 63.8701 	 -79.3333
| 39> H 	 -108.893 	 61.7998 	 -70.7188
| 40> H 	 -112.888 	 68.0929 	 -74.2725
| 41> *
| 42>
| 43>                          ****END OF INPUT****

CARTESIAN COORDINATES (ANGSTROEM)
---------------------------------
  S    -109.786000   64.014900  -71.531000
  C    -109.462000   62.332800  -71.506500
  C    -109.706000   61.726000  -72.682100
  C    -110.319000   62.672300  -73.617400
  C    -110.392000   63.965800  -73.223600
  H    -110.673000   62.541200  -74.585000
  C    -109.370000   60.272900  -72.996800
  H    -110.308000   59.693400  -72.801700
  H    -108.609000   59.750000  -72.431900
  C    -109.066000   59.934100  -74.480100
  H    -109.154000   58.849500  -74.606600
  H    -109.884000   60.337800  -75.103600
  C    -107.708000   60.619600  -75.036700
  H    -107.607000   61.670600  -74.759300
  H    -106.822000   60.147800  -74.592500
  H    -107.675000   60.525400  -76.151600
  S    -112.241000   66.054700  -73.040500
  C    -112.197000   67.298900  -74.299200
  C    -111.414000   66.877100  -75.375000
  C    -110.674000   65.680200  -75.099200
  C    -110.918000   65.163000  -73.812900
  H    -111.423000   67.443300  -76.298800
  C    -109.653000   65.156000  -76.117300
  H    -109.155000   64.314000  -75.638100
  H    -108.923000   65.959900  -76.247800
  C    -110.275000   64.913100  -77.550800
  H    -110.501000   65.843100  -77.955500
  H    -111.287000   64.422100  -77.472800
  C    -109.349000   64.111200  -78.396200
  H    -108.980000   63.189900  -77.876100
  H    -108.443000   64.698900  -78.486200
  H    -109.798000   63.870100  -79.333300
  H    -108.893000   61.799800  -70.718800
  H    -112.888000   68.092900  -74.272500

 Total Charge           Charge          ....    0
 Multiplicity           Mult            ....    1
 Number of Electrons    NEL             ....  134
 Basis Dimension        Dim             ....  322

ORBITAL ENERGIES
----------------

  NO   OCC          E(Eh)            E(eV)
   0   2.0000     -88.966270     -2420.8953
   1   2.0000     -88.956898     -2420.6403
   2   2.0000     -10.329581      -281.0822
   3   2.0000     -10.328272      -281.0466
   4   2.0000     -10.321129      -280.8522
   5   2.0000     -10.309775      -280.5432
   6   2.0000     -10.308635      -280.5122
   7   2.0000     -10.303724      -280.3786
   8   2.0000     -10.298913      -280.2477
   9   2.0000     -10.297812      -280.2177
  10   2.0000     -10.296513      -280.1824
  11   2.0000     -10.295365      -280.1511
  12   2.0000     -10.292877      -280.0834
  13   2.0000     -10.287648      -279.9411
  14   2.0000     -10.286513      -279.9103
  15   2.0000     -10.277555      -279.6665
  16   2.0000      -8.080356      -219.8777
  17   2.0000      -8.072218      -219.6562
  18   2.0000      -6.038911      -164.3271
  19   2.0000      -6.034973      -164.2200
  20   2.0000      -6.031076      -164.1139
  21   2.0000      -6.030800      -164.1064
  22   2.0000      -6.026675      -163.9942
  23   2.0000      -6.022809      -163.8890
  24   2.0000      -1.005051       -27.3488
  25   2.0000      -0.981926       -26.7196
  26   2.0000      -0.910460       -24.7749
  27   2.0000      -0.903751       -24.5923
  28   2.0000      -0.873593       -23.7717
  29   2.0000      -0.853285       -23.2191
  30   2.0000      -0.835486       -22.7347
  31   2.0000      -0.817931       -22.2570
  32   2.0000      -0.782107       -21.2822
  33   2.0000      -0.771425       -20.9916
  34   2.0000      -0.711485       -19.3605
  35   2.0000      -0.704829       -19.1794
  36   2.0000      -0.689913       -18.7735
  37   2.0000      -0.659061       -17.9339
  38   2.0000      -0.647704       -17.6249
  39   2.0000      -0.621189       -16.9034
  40   2.0000      -0.596775       -16.2391
  41   2.0000      -0.569409       -15.4944
  42   2.0000      -0.564501       -15.3609
  43   2.0000      -0.544099       -14.8057
  44   2.0000      -0.537517       -14.6266
  45   2.0000      -0.530312       -14.4305
  46   2.0000      -0.519586       -14.1387
  47   2.0000      -0.507526       -13.8105
  48   2.0000      -0.505753       -13.7622
  49   2.0000      -0.497525       -13.5383
  50   2.0000      -0.489022       -13.3070
  51   2.0000      -0.484974       -13.1968
  52   2.0000      -0.477126       -12.9832
  53   2.0000      -0.468497       -12.7485
  54   2.0000      -0.458009       -12.4630
  55   2.0000      -0.450423       -12.2566
  56   2.0000      -0.442900       -12.0519
  57   2.0000      -0.439125       -11.9492
  58   2.0000      -0.426474       -11.6049
  59   2.0000      -0.425073       -11.5668
  60   2.0000      -0.419788       -11.4230
  61   2.0000      -0.415845       -11.3157
  62   2.0000      -0.412667       -11.2293
  63   2.0000      -0.350707        -9.5432
  64   2.0000      -0.329975        -8.9791
  65   2.0000      -0.323126        -8.7927
  66   2.0000      -0.295796        -8.0490
  67   0.0000       0.028937         0.7874
  68   0.0000       0.069306         1.8859
  69   0.0000       0.106706         2.9036
  70   0.0000       0.120519         3.2795
  71   0.0000       0.122810         3.3418

MULLIKEN ATOMIC CHARGES
-----------------------
   0 S :    0.089275
   1 C :   -0.118944
   2 C :   -0.069763
   3 C :    0.067573
   4 C :   -0.198751
   5 H :   -0.023392
   6 C :    0.053580
   7 H :    0.045388
   8 H :    0.028397
   9 C :   -0.103715
  10 H :    0.035403
  11 H :    0.029325
  12 C :   -0.077580
  13 H :    0.046444
  14 H :    0.032077
  15 H :    0.047002
  16 S :    0.107702
  17 C :   -0.077938
  18 C :   -0.039213
  19 C :   -0.029695
  20 C :   -0.137222
  21 H :    0.026678
  22 C :    0.056491
  23 H :    0.025864
  24 H :    0.037647
  25 C :   -0.091732
  26 H :    0.015411
  27 H :    0.035608
  28 C :   -0.003484
  29 H :    0.030843
  30 H :    0.018675
  31 H :    0.035500
  32 H :    0.059024
  33 H :    0.047522
Sum of atomic charges:    0.0000000

LOEWDIN ATOMIC CHARGES
----------------------
   0 S :    0.385396
   1 C :   -0.202723
   2 C :   -0.069984
   3 C :   -0.052887
   4 C :   -0.175264
   5 H :    0.019146
   6 C :   -0.036997
   7 H :    0.042099
   8 H :    0.028452
   9 C :   -0.042665
  10 H :    0.026345
  11 H :    0.021103
  12 C :   -0.073815
  13 H :    0.026803
  14 H :    0.024193
  15 H :    0.029991
  16 S :    0.393374
  17 C :   -0.163472
  18 C :   -0.070164
  19 C :   -0.046991
  20 C :   -0.206499
  21 H :    0.032289
  22 C :   -0.027195
  23 H :    0.026840
  24 H :    0.034597
  25 C :   -0.037423
  26 H :    0.012468
  27 H :    0.027116
  28 C :   -0.061141
  29 H :    0.030835
  30 H :    0.025205
  31 H :    0.023481
  32 H :    0.038993
  33 H :    0.018490

  Mayer bond orders larger than 0.100000
B(  0-S ,  1-C ) :   1.1387 B(  0-S ,  4-C ) :   1.1156 B(  1-C ,  2-C ) :   1.6641
B(  1-C , 32-H ) :   0.9586 B(  2-C ,  3-C ) :   1.1731 B(  2-C ,  6-C ) :   1.0114
B(  3-C ,  4-C ) :   1.6436 B(  3-C ,  5-H ) :   1.0012 B(  4-C , 20-C ) :   1.0482
B(  6-C ,  7-H ) :   0.9319 B(  6-C ,  8-H ) :   0.9541 B(  6-C ,  9-C ) :   1.0827
B(  9-C , 10-H ) :   0.9584 B(  9-C , 11-H ) :   0.9538 B(  9-C , 12-C ) :   1.0531
B( 12-C , 13-H ) :   0.9770 B( 12-C , 14-H ) :   0.9768 B( 12-C , 15-H ) :   0.9788
B( 16-S , 17-C ) :   1.1551 B( 16-S , 20-C ) :   1.1388 B( 17-C , 18-C ) :   1.5949
B( 17-C , 20-C ) :   0.1029 B( 17-C , 33-H ) :   0.9750 B( 18-C , 19-C ) :   1.2366
B( 18-C , 21-H ) :   0.9914 B( 19-C , 20-C ) :   1.5739 B( 19-C , 22-C ) :   1.0461
B( 22-C , 23-H ) :   0.9418 B( 22-C , 24-H ) :   0.9330 B( 22-C , 25-C ) :   1.0399
B( 25-C , 26-H ) :   0.9487 B( 25-C , 27-H ) :   0.9617 B( 25-C , 28-C ) :   1.0974
B( 28-C , 29-H ) :   0.9746 B( 28-C , 30-H ) :   0.9663 B( 28-C , 31-H ) :   0.9714

Dispersion correction           -0.014704535
FINAL SINGLE POINT ENERGY     -1339.876290485531

DIPOLE MOMENT
-------------
                                X             Y             Z
Electronic contribution:    -12.50987      16.37332      23.94035
Nuclear contribution   :     12.64593     -16.66741     -24.66303
                        -----------------------------------------
Total Dipole Moment    :      0.13606      -0.29409      -0.72268
                        -----------------------------------------
Magnitude (a.u.)       :      0.79200
Magnitude (Debye)      :      2.01310

Rotational constants in cm-1:     0.016213     0.010500     0.006833
Rotational constants in MHz :   486.055684   314.788507   204.841350

                             ****ORCA TERMINATED NORMALLY****
TOTAL RUN TIME: 0 days 0 hours 0 minutes 22 seconds 69 msec
