                         Program Version 4.2.1 -  RELEASE  -
|  1> ! wB97X-D3 SP def2-SVP
|  2> %pal
|  3> nprocs 24
|  4> end
|  5>
|  6> * xyz 0 1
|  7> S 	 -45.9258 	 12.1665 	 31.7949
|  8> C 	 -45.2521 	 13.3549 	 30.6207
|  9> C 	 -46.2882 	 14.118 	 30.1384
| 10> C 	 -47.572 	 13.7886 	 30.6583
| 11> C 	 -47.5613 	 12.7205 	 31.5128
| 12> H 	 -48.5666 	 14.2536 	 30.4495
| 13> C 	 -45.9726 	 15.2399 	 29.191
| 14> H 	 -46.7414 	 15.3107 	 28.4078
| 15> H 	 -45.0202 	 15.0445 	 28.7978
| 16> C 	 -45.6487 	 16.5902 	 29.8706
| 17> H 	 -44.8689 	 16.4071 	 30.575
| 18> H 	 -45.2116 	 17.3849 	 29.103
| 19> C 	 -46.8916 	 17.1434 	 30.5491
| 20> H 	 -46.6713 	 18.1809 	 30.9842
| 21> H 	 -47.6335 	 17.3263 	 29.7892
| 22> H 	 -47.1957 	 16.4491 	 31.3659
| 23> S 	 -48.7451 	 10.4089 	 32.2618
| 24> C 	 -50.1208 	 10.4281 	 33.2809
| 25> C 	 -50.5309 	 11.7097 	 33.6491
| 26> C 	 -49.7404 	 12.7183 	 32.9776
| 27> C 	 -48.6552 	 12.1754 	 32.262
| 28> H 	 -51.3635 	 11.878 	 34.3183
| 29> C 	 -50.0952 	 14.1776 	 33.1805
| 30> H 	 -49.1513 	 14.7226 	 32.8931
| 31> H 	 -50.1759 	 14.346 	 34.2602
| 32> C 	 -51.3242 	 14.7543 	 32.4257
| 33> H 	 -51.6604 	 15.6978 	 32.8828
| 34> H 	 -52.193 	 14.0725 	 32.6316
| 35> C 	 -51.1618 	 14.9317 	 30.8786
| 36> H 	 -50.448 	 15.6937 	 30.6336
| 37> H 	 -52.0718 	 15.2782 	 30.4019
| 38> H 	 -50.7823 	 13.9858 	 30.4617
| 39> H 	 -44.18 	 13.406 	 30.3426
| 40> H 	 -50.5369 	 9.55055 	 33.7458
| 41> *
| 42>
| 43>                          ****END OF INPUT****

CARTESIAN COORDINATES (ANGSTROEM)
---------------------------------
  S    -45.925800   12.166500   31.794900
  C    -45.252100   13.354900   30.620700
  C    -46.288200   14.118000   30.138400
  C    -47.572000   13.788600   30.658300
  C    -47.561300   12.720500   31.512800
  H    -48.566600   14.253600   30.449500
  C    -45.972600   15.239900   29.191000
  H    -46.741400   15.310700   28.407800
  H    -45.020200   15.044500   28.797800
  C    -45.648700   16.590200   29.870600
  H    -44.868900   16.407100   30.575000
  H    -45.211600   17.384900   29.103000
  C    -46.891600   17.143400   30.549100
  H    -46.671300   18.180900   30.984200
  H    -47.633500   17.326300   29.789200
  H    -47.195700   16.449100   31.365900
  S    -48.745100   10.408900   32.261800
  C    -50.120800   10.428100   33.280900
  C    -50.530900   11.709700   33.649100
  C    -49.740400   12.718300   32.977600
  C    -48.655200   12.175400   32.262000
  H    -51.363500   11.878000   34.318300
  C    -50.095200   14.177600   33.180500
  H    -49.151300   14.722600   32.893100
  H    -50.175900   14.346000   34.260200
  C    -51.324200   14.754300   32.425700
  H    -51.660400   15.697800   32.882800
  H    -52.193000   14.072500   32.631600
  C    -51.161800   14.931700   30.878600
  H    -50.448000   15.693700   30.633600
  H    -52.071800   15.278200   30.401900
  H    -50.782300   13.985800   30.461700
  H    -44.180000   13.406000   30.342600
  H    -50.536900    9.550550   33.745800

 Total Charge           Charge          ....    0
 Multiplicity           Mult            ....    1
 Number of Electrons    NEL             ....  134
 Basis Dimension        Dim             ....  322

ORBITAL ENERGIES
----------------

  NO   OCC          E(Eh)            E(eV)
   0   2.0000     -88.966967     -2420.9143
   1   2.0000     -88.963764     -2420.8271
   2   2.0000     -10.329585      -281.0823
   3   2.0000     -10.328237      -281.0456
   4   2.0000     -10.320462      -280.8340
   5   2.0000     -10.316710      -280.7319
   6   2.0000     -10.310520      -280.5635
   7   2.0000     -10.302296      -280.3397
   8   2.0000     -10.297991      -280.2226
   9   2.0000     -10.297932      -280.2210
  10   2.0000     -10.296692      -280.1872
  11   2.0000     -10.295731      -280.1611
  12   2.0000     -10.291800      -280.0541
  13   2.0000     -10.285943      -279.8947
  14   2.0000     -10.281755      -279.7808
  15   2.0000     -10.280388      -279.7436
  16   2.0000      -8.082162      -219.9268
  17   2.0000      -8.077977      -219.8129
  18   2.0000      -6.040582      -164.3726
  19   2.0000      -6.036602      -164.2643
  20   2.0000      -6.036526      -164.2622
  21   2.0000      -6.033062      -164.1680
  22   2.0000      -6.032537      -164.1537
  23   2.0000      -6.028653      -164.0480
  24   2.0000      -1.007755       -27.4224
  25   2.0000      -0.983312       -26.7573
  26   2.0000      -0.915870       -24.9221
  27   2.0000      -0.904556       -24.6142
  28   2.0000      -0.870018       -23.6744
  29   2.0000      -0.849843       -23.1254
  30   2.0000      -0.839868       -22.8540
  31   2.0000      -0.817207       -22.2373
  32   2.0000      -0.785033       -21.3618
  33   2.0000      -0.770806       -20.9747
  34   2.0000      -0.710325       -19.3289
  35   2.0000      -0.696568       -18.9546
  36   2.0000      -0.691916       -18.8280
  37   2.0000      -0.661167       -17.9913
  38   2.0000      -0.640330       -17.4243
  39   2.0000      -0.614478       -16.7208
  40   2.0000      -0.590651       -16.0724
  41   2.0000      -0.574268       -15.6266
  42   2.0000      -0.557105       -15.1596
  43   2.0000      -0.548107       -14.9147
  44   2.0000      -0.541169       -14.7259
  45   2.0000      -0.529575       -14.4105
  46   2.0000      -0.516922       -14.0662
  47   2.0000      -0.513993       -13.9865
  48   2.0000      -0.508533       -13.8379
  49   2.0000      -0.497982       -13.5508
  50   2.0000      -0.494123       -13.4458
  51   2.0000      -0.485200       -13.2030
  52   2.0000      -0.468051       -12.7363
  53   2.0000      -0.464606       -12.6426
  54   2.0000      -0.457554       -12.4507
  55   2.0000      -0.451147       -12.2763
  56   2.0000      -0.442058       -12.0290
  57   2.0000      -0.439200       -11.9512
  58   2.0000      -0.433160       -11.7869
  59   2.0000      -0.420310       -11.4372
  60   2.0000      -0.416225       -11.3260
  61   2.0000      -0.414691       -11.2843
  62   2.0000      -0.411236       -11.1903
  63   2.0000      -0.348044        -9.4708
  64   2.0000      -0.333334        -9.0705
  65   2.0000      -0.329696        -8.9715
  66   2.0000      -0.292325        -7.9546
  67   0.0000       0.026031         0.7083
  68   0.0000       0.070951         1.9307
  69   0.0000       0.112646         3.0652
  70   0.0000       0.115619         3.1461
  71   0.0000       0.121770         3.3135

MULLIKEN ATOMIC CHARGES
-----------------------
   0 S :    0.094879
   1 C :   -0.145786
   2 C :   -0.091840
   3 C :    0.023475
   4 C :   -0.125307
   5 H :   -0.008399
   6 C :    0.104995
   7 H :    0.033836
   8 H :   -0.000484
   9 C :   -0.095966
  10 H :    0.018147
  11 H :    0.044868
  12 C :   -0.078179
  13 H :    0.038019
  14 H :    0.028581
  15 H :    0.061761
  16 S :    0.113902
  17 C :   -0.076684
  18 C :   -0.041204
  19 C :   -0.039615
  20 C :   -0.168735
  21 H :    0.022311
  22 C :    0.031253
  23 H :    0.030706
  24 H :    0.036137
  25 C :   -0.069521
  26 H :    0.031714
  27 H :    0.029514
  28 C :   -0.053221
  29 H :    0.033922
  30 H :    0.036824
  31 H :    0.055525
  32 H :    0.068914
  33 H :    0.055659
Sum of atomic charges:   -0.0000000

LOEWDIN ATOMIC CHARGES
----------------------
   0 S :    0.380571
   1 C :   -0.185070
   2 C :   -0.063655
   3 C :   -0.074815
   4 C :   -0.192864
   5 H :    0.038864
   6 C :   -0.028619
   7 H :    0.029950
   8 H :    0.024453
   9 C :   -0.041227
  10 H :    0.016157
  11 H :    0.033382
  12 C :   -0.075979
  13 H :    0.031150
  14 H :    0.020047
  15 H :    0.031637
  16 S :    0.420214
  17 C :   -0.191999
  18 C :   -0.070809
  19 C :   -0.052206
  20 C :   -0.199603
  21 H :    0.032204
  22 C :   -0.041607
  23 H :    0.033884
  24 H :    0.036050
  25 C :   -0.039988
  26 H :    0.025469
  27 H :    0.026299
  28 C :   -0.066540
  29 H :    0.020510
  30 H :    0.029335
  31 H :    0.028965
  32 H :    0.038760
  33 H :    0.027080

  Mayer bond orders larger than 0.100000
B(  0-S ,  1-C ) :   1.1141 B(  0-S ,  4-C ) :   1.1510 B(  1-C ,  2-C ) :   1.6160
B(  1-C , 32-H ) :   0.9658 B(  2-C ,  3-C ) :   1.2099 B(  2-C ,  6-C ) :   1.0354
B(  3-C ,  4-C ) :   1.5805 B(  3-C ,  5-H ) :   0.9892 B(  4-C , 20-C ) :   1.0465
B(  6-C ,  7-H ) :   0.9436 B(  6-C ,  8-H ) :   0.9274 B(  6-C ,  9-C ) :   1.0609
B(  9-C , 10-H ) :   0.9516 B(  9-C , 11-H ) :   0.9554 B(  9-C , 12-C ) :   1.0832
B( 12-C , 13-H ) :   0.9710 B( 12-C , 14-H ) :   0.9743 B( 12-C , 15-H ) :   0.9695
B( 16-S , 17-C ) :   1.1705 B( 16-S , 20-C ) :   1.1410 B( 17-C , 18-C ) :   1.5989
B( 17-C , 33-H ) :   0.9650 B( 18-C , 19-C ) :   1.2381 B( 18-C , 21-H ) :   0.9906
B( 19-C , 20-C ) :   1.5756 B( 19-C , 22-C ) :   1.0427 B( 22-C , 23-H ) :   0.9382
B( 22-C , 24-H ) :   0.9353 B( 22-C , 25-C ) :   1.0590 B( 25-C , 26-H ) :   0.9561
B( 25-C , 27-H ) :   0.9577 B( 25-C , 28-C ) :   1.0753 B( 28-C , 29-H ) :   0.9677
B( 28-C , 30-H ) :   0.9678 B( 28-C , 31-H ) :   0.9672

Dispersion correction           -0.015718145
FINAL SINGLE POINT ENERGY     -1339.888520381173

DIPOLE MOMENT
-------------
                                X             Y             Z
Electronic contribution:      7.83490     -27.80648       6.78922
Nuclear contribution   :     -8.13093      28.36693      -6.77886
                        -----------------------------------------
Total Dipole Moment    :     -0.29603       0.56045       0.01037
                        -----------------------------------------
Magnitude (a.u.)       :      0.63392
Magnitude (Debye)      :      1.61129

Rotational constants in cm-1:     0.018934     0.010271     0.007210
Rotational constants in MHz :   567.627594   307.921013   216.155606

                             ****ORCA TERMINATED NORMALLY****
TOTAL RUN TIME: 0 days 0 hours 0 minutes 22 seconds 829 msec
