                         Program Version 4.2.1 -  RELEASE  -
|  1> ! wB97X-D3 SP def2-SVP
|  2> %pal
|  3> nprocs 24
|  4> end
|  5>
|  6> * xyz 0 1
|  7> S 	 -58.0496 	 -1.77743 	 -30.6985
|  8> C 	 -57.9518 	 -0.0625277 	 -30.8773
|  9> C 	 -57.8666 	 0.60778 	 -29.6802
| 10> C 	 -57.7791 	 -0.291515 	 -28.622
| 11> C 	 -57.9793 	 -1.60561 	 -29.0127
| 12> H 	 -57.6504 	 -0.132142 	 -27.5507
| 13> C 	 -57.7671 	 2.11864 	 -29.6057
| 14> H 	 -57.9552 	 2.50594 	 -30.5728
| 15> H 	 -56.7593 	 2.32302 	 -29.2949
| 16> C 	 -58.7903 	 2.76035 	 -28.6444
| 17> H 	 -58.6751 	 2.34779 	 -27.6409
| 18> H 	 -58.6633 	 3.86019 	 -28.583
| 19> C 	 -60.2908 	 2.51005 	 -29.0008
| 20> H 	 -60.9043 	 3.35928 	 -28.652
| 21> H 	 -60.4482 	 2.39909 	 -30.0497
| 22> H 	 -60.6708 	 1.66543 	 -28.438
| 23> S 	 -59.6857 	 -3.38378 	 -27.9739
| 24> C 	 -59.1317 	 -4.48828 	 -26.7686
| 25> C 	 -57.8551 	 -4.22559 	 -26.3335
| 26> C 	 -57.2234 	 -3.1891 	 -27.1535
| 27> C 	 -58.1309 	 -2.67007 	 -28.0366
| 28> H 	 -57.4128 	 -4.83038 	 -25.5414
| 29> C 	 -55.8768 	 -2.64915 	 -26.9836
| 30> H 	 -55.579 	 -2.89509 	 -25.9768
| 31> H 	 -55.928 	 -1.57584 	 -27.2118
| 32> C 	 -54.8587 	 -2.99914 	 -28.0762
| 33> H 	 -55.2525 	 -2.46806 	 -28.9942
| 34> H 	 -54.5619 	 -4.04675 	 -28.1831
| 35> C 	 -53.4728 	 -2.31925 	 -27.9095
| 36> H 	 -53.1365 	 -2.48884 	 -26.9437
| 37> H 	 -53.5322 	 -1.23283 	 -27.9703
| 38> H 	 -52.7405 	 -2.72426 	 -28.6717
| 39> H 	 -57.9312 	 0.400083 	 -31.8049
| 40> H 	 -59.9518 	 -5.07958 	 -26.2902
| 41> *
| 42>
| 43>                          ****END OF INPUT****

CARTESIAN COORDINATES (ANGSTROEM)
---------------------------------
  S    -58.049600   -1.777430  -30.698500
  C    -57.951800   -0.062528  -30.877300
  C    -57.866600    0.607780  -29.680200
  C    -57.779100   -0.291515  -28.622000
  C    -57.979300   -1.605610  -29.012700
  H    -57.650400   -0.132142  -27.550700
  C    -57.767100    2.118640  -29.605700
  H    -57.955200    2.505940  -30.572800
  H    -56.759300    2.323020  -29.294900
  C    -58.790300    2.760350  -28.644400
  H    -58.675100    2.347790  -27.640900
  H    -58.663300    3.860190  -28.583000
  C    -60.290800    2.510050  -29.000800
  H    -60.904300    3.359280  -28.652000
  H    -60.448200    2.399090  -30.049700
  H    -60.670800    1.665430  -28.438000
  S    -59.685700   -3.383780  -27.973900
  C    -59.131700   -4.488280  -26.768600
  C    -57.855100   -4.225590  -26.333500
  C    -57.223400   -3.189100  -27.153500
  C    -58.130900   -2.670070  -28.036600
  H    -57.412800   -4.830380  -25.541400
  C    -55.876800   -2.649150  -26.983600
  H    -55.579000   -2.895090  -25.976800
  H    -55.928000   -1.575840  -27.211800
  C    -54.858700   -2.999140  -28.076200
  H    -55.252500   -2.468060  -28.994200
  H    -54.561900   -4.046750  -28.183100
  C    -53.472800   -2.319250  -27.909500
  H    -53.136500   -2.488840  -26.943700
  H    -53.532200   -1.232830  -27.970300
  H    -52.740500   -2.724260  -28.671700
  H    -57.931200    0.400083  -31.804900
  H    -59.951800   -5.079580  -26.290200

 Total Charge           Charge          ....    0
 Multiplicity           Mult            ....    1
 Number of Electrons    NEL             ....  134
 Basis Dimension        Dim             ....  322

ORBITAL ENERGIES
----------------

  NO   OCC          E(Eh)            E(eV)
   0   2.0000     -88.969385     -2420.9800
   1   2.0000     -88.960383     -2420.7351
   2   2.0000     -10.320219      -280.8274
   3   2.0000     -10.315122      -280.6887
   4   2.0000     -10.314618      -280.6750
   5   2.0000     -10.303501      -280.3725
   6   2.0000     -10.298715      -280.2423
   7   2.0000     -10.298253      -280.2297
   8   2.0000     -10.296441      -280.1804
   9   2.0000     -10.289597      -279.9942
  10   2.0000     -10.289374      -279.9881
  11   2.0000     -10.288824      -279.9731
  12   2.0000     -10.286373      -279.9064
  13   2.0000     -10.285776      -279.8902
  14   2.0000     -10.272763      -279.5361
  15   2.0000     -10.272212      -279.5211
  16   2.0000      -8.085146      -220.0080
  17   2.0000      -8.076858      -219.7825
  18   2.0000      -6.043315      -164.4470
  19   2.0000      -6.039521      -164.3437
  20   2.0000      -6.036198      -164.2533
  21   2.0000      -6.035094      -164.2233
  22   2.0000      -6.031231      -164.1181
  23   2.0000      -6.027695      -164.0219
  24   2.0000      -1.018014       -27.7016
  25   2.0000      -0.992544       -27.0085
  26   2.0000      -0.913717       -24.8635
  27   2.0000      -0.911935       -24.8150
  28   2.0000      -0.869257       -23.6537
  29   2.0000      -0.853866       -23.2349
  30   2.0000      -0.849312       -23.1110
  31   2.0000      -0.815341       -22.1866
  32   2.0000      -0.786219       -21.3941
  33   2.0000      -0.771791       -21.0015
  34   2.0000      -0.705960       -19.2102
  35   2.0000      -0.693236       -18.8639
  36   2.0000      -0.685983       -18.6665
  37   2.0000      -0.665246       -18.1023
  38   2.0000      -0.645349       -17.5608
  39   2.0000      -0.621147       -16.9023
  40   2.0000      -0.598128       -16.2759
  41   2.0000      -0.574954       -15.6453
  42   2.0000      -0.561919       -15.2906
  43   2.0000      -0.557050       -15.1581
  44   2.0000      -0.541153       -14.7255
  45   2.0000      -0.524294       -14.2668
  46   2.0000      -0.521087       -14.1795
  47   2.0000      -0.512088       -13.9346
  48   2.0000      -0.504221       -13.7206
  49   2.0000      -0.492966       -13.4143
  50   2.0000      -0.490075       -13.3356
  51   2.0000      -0.481115       -13.0918
  52   2.0000      -0.470063       -12.7911
  53   2.0000      -0.466716       -12.7000
  54   2.0000      -0.458039       -12.4639
  55   2.0000      -0.447887       -12.1876
  56   2.0000      -0.446272       -12.1437
  57   2.0000      -0.438843       -11.9415
  58   2.0000      -0.433636       -11.7998
  59   2.0000      -0.425744       -11.5851
  60   2.0000      -0.421005       -11.4561
  61   2.0000      -0.416172       -11.3246
  62   2.0000      -0.409802       -11.1513
  63   2.0000      -0.341238        -9.2855
  64   2.0000      -0.333113        -9.0645
  65   2.0000      -0.327282        -8.9058
  66   2.0000      -0.296566        -8.0700
  67   0.0000       0.043851         1.1932
  68   0.0000       0.067375         1.8334
  69   0.0000       0.114445         3.1142
  70   0.0000       0.125668         3.4196
  71   0.0000       0.135861         3.6970

MULLIKEN ATOMIC CHARGES
-----------------------
   0 S :    0.148419
   1 C :   -0.119119
   2 C :   -0.064691
   3 C :    0.012800
   4 C :   -0.194295
   5 H :    0.025025
   6 C :    0.142298
   7 H :    0.004063
   8 H :    0.035014
   9 C :   -0.113102
  10 H :    0.029565
  11 H :    0.037865
  12 C :   -0.051477
  13 H :    0.031521
  14 H :    0.027523
  15 H :    0.038403
  16 S :    0.112953
  17 C :   -0.115255
  18 C :   -0.034421
  19 C :   -0.013984
  20 C :   -0.193477
  21 H :    0.025727
  22 C :    0.107068
  23 H :    0.013629
  24 H :    0.006545
  25 C :   -0.113823
  26 H :    0.049824
  27 H :    0.036023
  28 C :   -0.037184
  29 H :    0.004384
  30 H :    0.021174
  31 H :    0.049354
  32 H :    0.016173
  33 H :    0.075475
Sum of atomic charges:    0.0000000

LOEWDIN ATOMIC CHARGES
----------------------
   0 S :    0.447455
   1 C :   -0.198199
   2 C :   -0.060563
   3 C :   -0.068047
   4 C :   -0.219480
   5 H :    0.033411
   6 C :   -0.018933
   7 H :    0.022621
   8 H :    0.033223
   9 C :   -0.042724
  10 H :    0.022081
  11 H :    0.026285
  12 C :   -0.065626
  13 H :    0.029570
  14 H :    0.018821
  15 H :    0.027397
  16 S :    0.426797
  17 C :   -0.198799
  18 C :   -0.070361
  19 C :   -0.055624
  20 C :   -0.211339
  21 H :    0.034733
  22 C :   -0.037876
  23 H :    0.026249
  24 H :    0.038039
  25 C :   -0.039271
  26 H :    0.033428
  27 H :    0.022442
  28 C :   -0.065134
  29 H :    0.008859
  30 H :    0.019980
  31 H :    0.035924
  32 H :    0.010912
  33 H :    0.033751

  Mayer bond orders larger than 0.100000
B(  0-S ,  1-C ) :   1.1520 B(  0-S ,  4-C ) :   1.1807 B(  1-C ,  2-C ) :   1.5824
B(  1-C , 32-H ) :   0.9767 B(  2-C ,  3-C ) :   1.2572 B(  2-C ,  6-C ) :   1.0179
B(  3-C ,  4-C ) :   1.5530 B(  3-C ,  5-H ) :   0.9873 B(  4-C , 20-C ) :   1.0072
B(  6-C ,  7-H ) :   0.9369 B(  6-C ,  8-H ) :   0.9366 B(  6-C ,  9-C ) :   1.0752
B(  9-C , 10-H ) :   0.9611 B(  9-C , 11-H ) :   0.9647 B(  9-C , 12-C ) :   1.0611
B( 12-C , 13-H ) :   0.9773 B( 12-C , 14-H ) :   0.9809 B( 12-C , 15-H ) :   0.9780
B( 16-S , 17-C ) :   1.1613 B( 16-S , 20-C ) :   1.1636 B( 17-C , 18-C ) :   1.6135
B( 17-C , 33-H ) :   0.9608 B( 18-C , 19-C ) :   1.2062 B( 18-C , 21-H ) :   0.9923
B( 19-C , 20-C ) :   1.6141 B( 19-C , 22-C ) :   1.0729 B( 22-C , 23-H ) :   0.9263
B( 22-C , 24-H ) :   0.9203 B( 22-C , 25-C ) :   1.0526 B( 25-C , 26-H ) :   0.9593
B( 25-C , 27-H ) :   0.9588 B( 25-C , 28-C ) :   1.0788 B( 28-C , 29-H ) :   0.9718
B( 28-C , 30-H ) :   0.9735 B( 28-C , 31-H ) :   0.9763

Dispersion correction           -0.014918559
FINAL SINGLE POINT ENERGY     -1339.876265497867

DIPOLE MOMENT
-------------
                                X             Y             Z
Electronic contribution:    -12.03628     -16.71148      -5.54234
Nuclear contribution   :     12.25999      17.09416       5.82893
                        -----------------------------------------
Total Dipole Moment    :      0.22371       0.38268       0.28659
                        -----------------------------------------
Magnitude (a.u.)       :      0.52785
Magnitude (Debye)      :      1.34168

Rotational constants in cm-1:     0.017610     0.009541     0.007856
Rotational constants in MHz :   527.943874   286.019443   235.525357

                             ****ORCA TERMINATED NORMALLY****
TOTAL RUN TIME: 0 days 0 hours 0 minutes 21 seconds 91 msec
