                         Program Version 4.2.1 -  RELEASE  -
|  1> ! wB97X-D3 SP def2-SVP
|  2> %pal
|  3> nprocs 24
|  4> end
|  5>
|  6> * xyz 0 1
|  7> S 	 -134.622 	 66.7672 	 -61.3815
|  8> C 	 -136.341 	 66.6786 	 -61.4374
|  9> C 	 -136.892 	 66.5365 	 -60.1701
| 10> C 	 -135.905 	 66.1608 	 -59.2308
| 11> C 	 -134.637 	 66.2234 	 -59.7378
| 12> H 	 -136.048 	 65.8064 	 -58.2115
| 13> C 	 -138.369 	 66.5193 	 -59.8889
| 14> H 	 -138.55 	 65.8664 	 -58.983
| 15> H 	 -138.898 	 65.9393 	 -60.6585
| 16> C 	 -139.208 	 67.8291 	 -59.7771
| 17> H 	 -139.059 	 68.3872 	 -60.6489
| 18> H 	 -140.231 	 67.6747 	 -59.8446
| 19> C 	 -138.81 	 68.6627 	 -58.5472
| 20> H 	 -139.346 	 69.6398 	 -58.6458
| 21> H 	 -139.276 	 68.2348 	 -57.668
| 22> H 	 -137.759 	 68.8969 	 -58.3922
| 23> S 	 -132.385 	 64.5878 	 -59.4903
| 24> C 	 -131.397 	 64.7486 	 -58.0596
| 25> C 	 -131.809 	 65.8122 	 -57.3108
| 26> C 	 -133.058 	 66.3722 	 -57.7336
| 27> C 	 -133.476 	 65.8577 	 -58.956
| 28> H 	 -131.18 	 66.3195 	 -56.5315
| 29> C 	 -133.736 	 67.588 	 -57.1248
| 30> H 	 -134.587 	 67.9114 	 -57.7474
| 31> H 	 -132.953 	 68.3091 	 -57.2357
| 32> C 	 -134.022 	 67.5469 	 -55.6088
| 33> H 	 -134.439 	 68.4982 	 -55.2186
| 34> H 	 -133.151 	 67.4535 	 -55.0178
| 35> C 	 -134.911 	 66.3566 	 -55.1229
| 36> H 	 -135.908 	 66.3852 	 -55.4825
| 37> H 	 -134.927 	 66.2634 	 -54.0521
| 38> H 	 -134.514 	 65.4398 	 -55.6068
| 39> H 	 -136.934 	 66.8766 	 -62.378
| 40> H 	 -130.516 	 64.121 	 -57.7552
| 41> *
| 42>
| 43>                          ****END OF INPUT****

CARTESIAN COORDINATES (ANGSTROEM)
---------------------------------
  S    -134.622000   66.767200  -61.381500
  C    -136.341000   66.678600  -61.437400
  C    -136.892000   66.536500  -60.170100
  C    -135.905000   66.160800  -59.230800
  C    -134.637000   66.223400  -59.737800
  H    -136.048000   65.806400  -58.211500
  C    -138.369000   66.519300  -59.888900
  H    -138.550000   65.866400  -58.983000
  H    -138.898000   65.939300  -60.658500
  C    -139.208000   67.829100  -59.777100
  H    -139.059000   68.387200  -60.648900
  H    -140.231000   67.674700  -59.844600
  C    -138.810000   68.662700  -58.547200
  H    -139.346000   69.639800  -58.645800
  H    -139.276000   68.234800  -57.668000
  H    -137.759000   68.896900  -58.392200
  S    -132.385000   64.587800  -59.490300
  C    -131.397000   64.748600  -58.059600
  C    -131.809000   65.812200  -57.310800
  C    -133.058000   66.372200  -57.733600
  C    -133.476000   65.857700  -58.956000
  H    -131.180000   66.319500  -56.531500
  C    -133.736000   67.588000  -57.124800
  H    -134.587000   67.911400  -57.747400
  H    -132.953000   68.309100  -57.235700
  C    -134.022000   67.546900  -55.608800
  H    -134.439000   68.498200  -55.218600
  H    -133.151000   67.453500  -55.017800
  C    -134.911000   66.356600  -55.122900
  H    -135.908000   66.385200  -55.482500
  H    -134.927000   66.263400  -54.052100
  H    -134.514000   65.439800  -55.606800
  H    -136.934000   66.876600  -62.378000
  H    -130.516000   64.121000  -57.755200

 Total Charge           Charge          ....    0
 Multiplicity           Mult            ....    1
 Number of Electrons    NEL             ....  134
 Basis Dimension        Dim             ....  322

ORBITAL ENERGIES
----------------

  NO   OCC          E(Eh)            E(eV)
   0   2.0000     -88.968937     -2420.9679
   1   2.0000     -88.964603     -2420.8499
   2   2.0000     -10.322389      -280.8865
   3   2.0000     -10.321835      -280.8714
   4   2.0000     -10.321259      -280.8557
   5   2.0000     -10.316420      -280.7241
   6   2.0000     -10.302588      -280.3477
   7   2.0000     -10.300927      -280.3025
   8   2.0000     -10.296611      -280.1850
   9   2.0000     -10.294296      -280.1220
  10   2.0000     -10.290559      -280.0204
  11   2.0000     -10.290159      -280.0095
  12   2.0000     -10.286694      -279.9152
  13   2.0000     -10.279749      -279.7262
  14   2.0000     -10.277020      -279.6519
  15   2.0000     -10.271894      -279.5124
  16   2.0000      -8.084355      -219.9865
  17   2.0000      -8.079288      -219.8486
  18   2.0000      -6.042703      -164.4303
  19   2.0000      -6.038854      -164.3256
  20   2.0000      -6.037816      -164.2973
  21   2.0000      -6.035171      -164.2253
  22   2.0000      -6.033823      -164.1887
  23   2.0000      -6.030003      -164.0847
  24   2.0000      -1.011883       -27.5347
  25   2.0000      -0.988240       -26.8914
  26   2.0000      -0.908164       -24.7124
  27   2.0000      -0.905299       -24.6344
  28   2.0000      -0.871144       -23.7050
  29   2.0000      -0.854069       -23.2404
  30   2.0000      -0.844213       -22.9722
  31   2.0000      -0.813645       -22.1404
  32   2.0000      -0.782908       -21.3040
  33   2.0000      -0.770535       -20.9673
  34   2.0000      -0.710682       -19.3386
  35   2.0000      -0.704590       -19.1729
  36   2.0000      -0.694583       -18.9006
  37   2.0000      -0.654652       -17.8140
  38   2.0000      -0.640251       -17.4221
  39   2.0000      -0.612974       -16.6799
  40   2.0000      -0.591226       -16.0881
  41   2.0000      -0.570423       -15.5220
  42   2.0000      -0.552510       -15.0346
  43   2.0000      -0.550347       -14.9757
  44   2.0000      -0.540245       -14.7008
  45   2.0000      -0.535448       -14.5703
  46   2.0000      -0.519710       -14.1420
  47   2.0000      -0.505584       -13.7576
  48   2.0000      -0.500177       -13.6105
  49   2.0000      -0.494926       -13.4676
  50   2.0000      -0.491483       -13.3739
  51   2.0000      -0.479196       -13.0396
  52   2.0000      -0.471512       -12.8305
  53   2.0000      -0.466582       -12.6964
  54   2.0000      -0.461351       -12.5540
  55   2.0000      -0.447588       -12.1795
  56   2.0000      -0.445650       -12.1268
  57   2.0000      -0.440847       -11.9961
  58   2.0000      -0.435586       -11.8529
  59   2.0000      -0.421615       -11.4727
  60   2.0000      -0.421016       -11.4564
  61   2.0000      -0.415214       -11.2985
  62   2.0000      -0.412937       -11.2366
  63   2.0000      -0.344284        -9.3684
  64   2.0000      -0.331161        -9.0114
  65   2.0000      -0.326516        -8.8850
  66   2.0000      -0.293505        -7.9867
  67   0.0000       0.032703         0.8899
  68   0.0000       0.068171         1.8550
  69   0.0000       0.116020         3.1571
  70   0.0000       0.117838         3.2065
  71   0.0000       0.126331         3.4376

MULLIKEN ATOMIC CHARGES
-----------------------
   0 S :    0.133495
   1 C :   -0.146424
   2 C :   -0.040569
   3 C :    0.015172
   4 C :   -0.168871
   5 H :    0.016672
   6 C :    0.002120
   7 H :    0.025017
   8 H :    0.027282
   9 C :    0.007095
  10 H :    0.001713
  11 H :    0.009100
  12 C :   -0.069346
  13 H :    0.027599
  14 H :    0.026413
  15 H :    0.049486
  16 S :    0.113270
  17 C :   -0.111381
  18 C :   -0.044790
  19 C :   -0.055854
  20 C :   -0.169941
  21 H :    0.041539
  22 C :    0.070594
  23 H :    0.048733
  24 H :    0.029171
  25 C :   -0.060915
  26 H :    0.027711
  27 H :    0.011720
  28 C :   -0.059574
  29 H :    0.020912
  30 H :    0.034310
  31 H :    0.038385
  32 H :    0.070581
  33 H :    0.079576
Sum of atomic charges:   -0.0000000

LOEWDIN ATOMIC CHARGES
----------------------
   0 S :    0.427276
   1 C :   -0.208767
   2 C :   -0.068969
   3 C :   -0.058180
   4 C :   -0.206750
   5 H :    0.035549
   6 C :   -0.039923
   7 H :    0.032389
   8 H :    0.033440
   9 C :   -0.031643
  10 H :    0.015931
  11 H :    0.019322
  12 C :   -0.068323
  13 H :    0.030133
  14 H :    0.022711
  15 H :    0.026889
  16 S :    0.402759
  17 C :   -0.194569
  18 C :   -0.083115
  19 C :   -0.054467
  20 C :   -0.203235
  21 H :    0.040519
  22 C :   -0.031030
  23 H :    0.035857
  24 H :    0.035853
  25 C :   -0.039516
  26 H :    0.027016
  27 H :    0.016452
  28 C :   -0.066879
  29 H :    0.014680
  30 H :    0.023931
  31 H :    0.029574
  32 H :    0.039323
  33 H :    0.045764

  Mayer bond orders larger than 0.100000
B(  0-S ,  1-C ) :   1.1518 B(  0-S ,  4-C ) :   1.1587 B(  1-C ,  2-C ) :   1.5859
B(  1-C , 32-H ) :   0.9614 B(  2-C ,  3-C ) :   1.2425 B(  2-C ,  6-C ) :   1.0222
B(  3-C ,  4-C ) :   1.5601 B(  3-C ,  5-H ) :   0.9979 B(  4-C , 20-C ) :   1.0426
B(  6-C ,  7-H ) :   0.9490 B(  6-C ,  8-H ) :   0.9409 B(  6-C ,  9-C ) :   1.0726
B(  9-C , 10-H ) :   0.9504 B(  9-C , 11-H ) :   0.9495 B(  9-C , 12-C ) :   1.0783
B( 12-C , 13-H ) :   0.9722 B( 12-C , 14-H ) :   0.9766 B( 12-C , 15-H ) :   0.9791
B( 16-S , 17-C ) :   1.1545 B( 16-S , 20-C ) :   1.1307 B( 17-C , 18-C ) :   1.6175
B( 17-C , 33-H ) :   0.9594 B( 18-C , 19-C ) :   1.2422 B( 18-C , 21-H ) :   0.9767
B( 19-C , 20-C ) :   1.5915 B( 19-C , 22-C ) :   1.0336 B( 22-C , 23-H ) :   0.9380
B( 22-C , 24-H ) :   0.9293 B( 22-C , 25-C ) :   1.0700 B( 25-C , 26-H ) :   0.9559
B( 25-C , 27-H ) :   0.9539 B( 25-C , 28-C ) :   1.0758 B( 28-C , 29-H ) :   0.9753
B( 28-C , 30-H ) :   0.9753 B( 28-C , 31-H ) :   0.9721

Dispersion correction           -0.015201800
FINAL SINGLE POINT ENERGY     -1339.877443129790

DIPOLE MOMENT
-------------
                                X             Y             Z
Electronic contribution:     20.05386     -11.34229     -19.09214
Nuclear contribution   :    -20.36807      11.65918      19.46439
                        -----------------------------------------
Total Dipole Moment    :     -0.31420       0.31689       0.37225
                        -----------------------------------------
Magnitude (a.u.)       :      0.58113
Magnitude (Debye)      :      1.47712

Rotational constants in cm-1:     0.018799     0.009687     0.007023
Rotational constants in MHz :   563.588615   290.412081   210.532959

                             ****ORCA TERMINATED NORMALLY****
TOTAL RUN TIME: 0 days 0 hours 0 minutes 22 seconds 424 msec
