                         Program Version 4.2.1 -  RELEASE  -
|  1> ! wB97X-D3 SP def2-SVP
|  2> %pal
|  3> nprocs 24
|  4> end
|  5>
|  6> * xyz 0 1
|  7> S 	 -47.7793 	 7.52894 	 -23.4836
|  8> C 	 -46.5993 	 7.33414 	 -22.2033
|  9> C 	 -47.0742 	 7.91563 	 -21.0119
| 10> C 	 -48.4401 	 8.30898 	 -21.1332
| 11> C 	 -49.0449 	 8.17673 	 -22.4024
| 12> H 	 -49.1329 	 8.55139 	 -20.2399
| 13> C 	 -46.3745 	 7.85587 	 -19.6996
| 14> H 	 -45.9832 	 6.81636 	 -19.6681
| 15> H 	 -47.1034 	 7.82828 	 -18.9844
| 16> C 	 -45.3111 	 8.93236 	 -19.4408
| 17> H 	 -45.7526 	 9.91117 	 -19.8875
| 18> H 	 -45.3398 	 9.26893 	 -18.4216
| 19> C 	 -44.0002 	 8.66705 	 -20.0673
| 20> H 	 -43.2186 	 9.40318 	 -19.8638
| 21> H 	 -43.7062 	 7.82892 	 -19.4079
| 22> H 	 -43.9595 	 8.40898 	 -21.1572
| 23> S 	 -51.4079 	 6.83372 	 -23.0811
| 24> C 	 -52.8312 	 7.77899 	 -23.6034
| 25> C 	 -52.5354 	 9.09889 	 -23.5058
| 26> C 	 -51.2341 	 9.42882 	 -23.0012
| 27> C 	 -50.4233 	 8.32157 	 -22.8566
| 28> H 	 -53.3072 	 9.8511 	 -23.6822
| 29> C 	 -50.8287 	 10.9072 	 -22.8113
| 30> H 	 -49.853 	 10.9231 	 -22.3182
| 31> H 	 -51.3848 	 11.3659 	 -22.0562
| 32> C 	 -50.7604 	 11.7794 	 -24.0291
| 33> H 	 -51.7153 	 11.9449 	 -24.4817
| 34> H 	 -50.0812 	 11.3544 	 -24.8049
| 35> C 	 -50.2241 	 13.1836 	 -23.7846
| 36> H 	 -50.6346 	 13.6533 	 -22.9229
| 37> H 	 -50.5808 	 13.7461 	 -24.5867
| 38> H 	 -49.1181 	 13.1879 	 -23.9585
| 39> H 	 -45.5549 	 6.93566 	 -22.2506
| 40> H 	 -53.8041 	 7.24207 	 -23.7478
| 41> *
| 42>
| 43>                          ****END OF INPUT****

CARTESIAN COORDINATES (ANGSTROEM)
---------------------------------
  S    -47.779300    7.528940  -23.483600
  C    -46.599300    7.334140  -22.203300
  C    -47.074200    7.915630  -21.011900
  C    -48.440100    8.308980  -21.133200
  C    -49.044900    8.176730  -22.402400
  H    -49.132900    8.551390  -20.239900
  C    -46.374500    7.855870  -19.699600
  H    -45.983200    6.816360  -19.668100
  H    -47.103400    7.828280  -18.984400
  C    -45.311100    8.932360  -19.440800
  H    -45.752600    9.911170  -19.887500
  H    -45.339800    9.268930  -18.421600
  C    -44.000200    8.667050  -20.067300
  H    -43.218600    9.403180  -19.863800
  H    -43.706200    7.828920  -19.407900
  H    -43.959500    8.408980  -21.157200
  S    -51.407900    6.833720  -23.081100
  C    -52.831200    7.778990  -23.603400
  C    -52.535400    9.098890  -23.505800
  C    -51.234100    9.428820  -23.001200
  C    -50.423300    8.321570  -22.856600
  H    -53.307200    9.851100  -23.682200
  C    -50.828700   10.907200  -22.811300
  H    -49.853000   10.923100  -22.318200
  H    -51.384800   11.365900  -22.056200
  C    -50.760400   11.779400  -24.029100
  H    -51.715300   11.944900  -24.481700
  H    -50.081200   11.354400  -24.804900
  C    -50.224100   13.183600  -23.784600
  H    -50.634600   13.653300  -22.922900
  H    -50.580800   13.746100  -24.586700
  H    -49.118100   13.187900  -23.958500
  H    -45.554900    6.935660  -22.250600
  H    -53.804100    7.242070  -23.747800

 Total Charge           Charge          ....    0
 Multiplicity           Mult            ....    1
 Number of Electrons    NEL             ....  134
 Basis Dimension        Dim             ....  322

ORBITAL ENERGIES
----------------

  NO   OCC          E(Eh)            E(eV)
   0   2.0000     -88.965652     -2420.8785
   1   2.0000     -88.959782     -2420.7187
   2   2.0000     -10.334348      -281.2119
   3   2.0000     -10.331953      -281.1467
   4   2.0000     -10.324904      -280.9549
   5   2.0000     -10.320713      -280.8409
   6   2.0000     -10.307584      -280.4836
   7   2.0000     -10.304500      -280.3997
   8   2.0000     -10.300217      -280.2831
   9   2.0000     -10.294587      -280.1300
  10   2.0000     -10.289938      -280.0034
  11   2.0000     -10.284964      -279.8681
  12   2.0000     -10.284842      -279.8648
  13   2.0000     -10.282903      -279.8120
  14   2.0000     -10.280586      -279.7490
  15   2.0000     -10.270298      -279.4690
  16   2.0000      -8.079470      -219.8536
  17   2.0000      -8.073805      -219.6994
  18   2.0000      -6.038036      -164.3033
  19   2.0000      -6.033875      -164.1901
  20   2.0000      -6.032473      -164.1519
  21   2.0000      -6.030431      -164.0964
  22   2.0000      -6.028454      -164.0426
  23   2.0000      -6.024368      -163.9314
  24   2.0000      -0.997911       -27.1545
  25   2.0000      -0.978544       -26.6275
  26   2.0000      -0.917593       -24.9690
  27   2.0000      -0.911048       -24.7909
  28   2.0000      -0.869094       -23.6493
  29   2.0000      -0.850264       -23.1368
  30   2.0000      -0.845854       -23.0169
  31   2.0000      -0.810928       -22.0665
  32   2.0000      -0.785598       -21.3772
  33   2.0000      -0.775150       -21.0929
  34   2.0000      -0.706340       -19.2205
  35   2.0000      -0.696768       -18.9600
  36   2.0000      -0.694313       -18.8932
  37   2.0000      -0.656537       -17.8653
  38   2.0000      -0.633968       -17.2511
  39   2.0000      -0.612775       -16.6745
  40   2.0000      -0.598665       -16.2905
  41   2.0000      -0.574365       -15.6293
  42   2.0000      -0.570542       -15.5252
  43   2.0000      -0.553719       -15.0675
  44   2.0000      -0.541088       -14.7238
  45   2.0000      -0.530619       -14.4389
  46   2.0000      -0.518167       -14.1000
  47   2.0000      -0.513870       -13.9831
  48   2.0000      -0.505856       -13.7651
  49   2.0000      -0.498699       -13.5703
  50   2.0000      -0.481364       -13.0986
  51   2.0000      -0.481054       -13.0901
  52   2.0000      -0.474069       -12.9001
  53   2.0000      -0.463804       -12.6207
  54   2.0000      -0.454023       -12.3546
  55   2.0000      -0.446496       -12.1498
  56   2.0000      -0.443684       -12.0733
  57   2.0000      -0.435315       -11.8455
  58   2.0000      -0.433949       -11.8084
  59   2.0000      -0.417802       -11.3690
  60   2.0000      -0.414571       -11.2810
  61   2.0000      -0.411332       -11.1929
  62   2.0000      -0.394760       -10.7420
  63   2.0000      -0.338518        -9.2115
  64   2.0000      -0.327673        -8.9164
  65   2.0000      -0.325352        -8.8533
  66   2.0000      -0.303580        -8.2608
  67   0.0000       0.031634         0.8608
  68   0.0000       0.055577         1.5123
  69   0.0000       0.113705         3.0941
  70   0.0000       0.122868         3.3434
  71   0.0000       0.130329         3.5464

MULLIKEN ATOMIC CHARGES
-----------------------
   0 S :    0.113227
   1 C :   -0.126480
   2 C :   -0.124102
   3 C :    0.025253
   4 C :   -0.194687
   5 H :    0.045148
   6 C :    0.097076
   7 H :    0.027952
   8 H :   -0.014418
   9 C :   -0.059066
  10 H :    0.020358
  11 H :    0.024259
  12 C :   -0.048103
  13 H :    0.036192
  14 H :    0.024168
  15 H :    0.051519
  16 S :    0.082734
  17 C :   -0.111672
  18 C :   -0.021372
  19 C :   -0.015580
  20 C :   -0.165367
  21 H :    0.024425
  22 C :    0.119487
  23 H :    0.010858
  24 H :    0.004886
  25 C :   -0.095448
  26 H :    0.018052
  27 H :    0.036904
  28 C :   -0.017795
  29 H :    0.024708
  30 H :    0.007581
  31 H :    0.044103
  32 H :    0.068703
  33 H :    0.086495
Sum of atomic charges:   -0.0000000

LOEWDIN ATOMIC CHARGES
----------------------
   0 S :    0.401267
   1 C :   -0.205262
   2 C :   -0.070389
   3 C :   -0.068384
   4 C :   -0.197929
   5 H :    0.045071
   6 C :   -0.028633
   7 H :    0.037067
   8 H :    0.017959
   9 C :   -0.048781
  10 H :    0.028003
  11 H :    0.024628
  12 C :   -0.073878
  13 H :    0.029022
  14 H :    0.031091
  15 H :    0.033015
  16 S :    0.365596
  17 C :   -0.170987
  18 C :   -0.076350
  19 C :   -0.044507
  20 C :   -0.191239
  21 H :    0.033143
  22 C :   -0.032173
  23 H :    0.033476
  24 H :    0.022896
  25 C :   -0.040451
  26 H :    0.016018
  27 H :    0.032902
  28 C :   -0.061017
  29 H :    0.020096
  30 H :    0.020539
  31 H :    0.034939
  32 H :    0.039897
  33 H :    0.043352

  Mayer bond orders larger than 0.100000
B(  0-S ,  1-C ) :   1.1567 B(  0-S ,  4-C ) :   1.1491 B(  1-C ,  2-C ) :   1.5766
B(  1-C ,  4-C ) :   0.1098 B(  1-C , 32-H ) :   0.9567 B(  2-C ,  3-C ) :   1.2768
B(  2-C ,  6-C ) :   1.0218 B(  3-C ,  4-C ) :   1.5666 B(  3-C ,  5-H ) :   0.9732
B(  4-C , 20-C ) :   1.0340 B(  6-C ,  7-H ) :   0.9456 B(  6-C ,  8-H ) :   0.9291
B(  6-C ,  9-C ) :   1.0532 B(  9-C , 10-H ) :   0.9483 B(  9-C , 11-H ) :   0.9565
B(  9-C , 12-C ) :   1.0670 B( 12-C , 13-H ) :   0.9695 B( 12-C , 14-H ) :   0.9737
B( 12-C , 15-H ) :   0.9712 B( 16-S , 17-C ) :   1.1386 B( 16-S , 20-C ) :   1.1268
B( 17-C , 18-C ) :   1.6193 B( 17-C , 33-H ) :   0.9630 B( 18-C , 19-C ) :   1.2239
B( 18-C , 21-H ) :   0.9869 B( 19-C , 20-C ) :   1.6208 B( 19-C , 22-C ) :   1.0432
B( 22-C , 23-H ) :   0.9252 B( 22-C , 24-H ) :   0.9232 B( 22-C , 25-C ) :   1.0748
B( 25-C , 26-H ) :   0.9572 B( 25-C , 27-H ) :   0.9545 B( 25-C , 28-C ) :   1.0922
B( 28-C , 29-H ) :   0.9721 B( 28-C , 30-H ) :   0.9705 B( 28-C , 31-H ) :   0.9759

Dispersion correction           -0.013691391
FINAL SINGLE POINT ENERGY     -1339.852518768574

DIPOLE MOMENT
-------------
                                X             Y             Z
Electronic contribution:    -12.62349     -20.20982      -9.46854
Nuclear contribution   :     12.58003      20.69858       9.95032
                        -----------------------------------------
Total Dipole Moment    :     -0.04346       0.48876       0.48178
                        -----------------------------------------
Magnitude (a.u.)       :      0.68767
Magnitude (Debye)      :      1.74793

Rotational constants in cm-1:     0.018938     0.007748     0.006243
Rotational constants in MHz :   567.734348   232.293855   187.152232

                             ****ORCA TERMINATED NORMALLY****
TOTAL RUN TIME: 0 days 0 hours 0 minutes 20 seconds 877 msec
