                         Program Version 4.2.1 -  RELEASE  -
|  1> ! wB97X-D3 SP def2-SVP
|  2> %pal
|  3> nprocs 24
|  4> end
|  5>
|  6> * xyz 0 1
|  7> S 	 -47.8158 	 10.9734 	 -19.9667
|  8> C 	 -49.358 	 10.2174 	 -19.4339
|  9> C 	 -49.7937 	 9.25541 	 -20.3773
| 10> C 	 -49.0059 	 9.24162 	 -21.609
| 11> C 	 -47.9543 	 10.1523 	 -21.575
| 12> H 	 -49.2003 	 8.52096 	 -22.4706
| 13> C 	 -50.989 	 8.33935 	 -20.1691
| 14> H 	 -51.5689 	 8.13048 	 -21.072
| 15> H 	 -51.6141 	 8.96023 	 -19.4582
| 16> C 	 -50.546 	 7.00194 	 -19.5974
| 17> H 	 -50.0643 	 7.26197 	 -18.6671
| 18> H 	 -51.4757 	 6.39115 	 -19.3657
| 19> C 	 -49.596 	 6.2483 	 -20.5782
| 20> H 	 -49.2665 	 5.32528 	 -20.2627
| 21> H 	 -49.9687 	 6.01692 	 -21.578
| 22> H 	 -48.6371 	 6.76569 	 -20.7055
| 23> S 	 -45.2595 	 9.95051 	 -22.1933
| 24> C 	 -44.692 	 10.6341 	 -23.791
| 25> C 	 -45.7438 	 10.9604 	 -24.5372
| 26> C 	 -47.005 	 10.7539 	 -23.9375
| 27> C 	 -46.9594 	 10.3754 	 -22.6044
| 28> H 	 -45.6495 	 11.2995 	 -25.5352
| 29> C 	 -48.2894 	 11.1091 	 -24.7528
| 30> H 	 -49.053 	 10.3455 	 -24.4662
| 31> H 	 -48.1854 	 10.9547 	 -25.8429
| 32> C 	 -48.8207 	 12.5053 	 -24.4103
| 33> H 	 -48.0082 	 13.1908 	 -24.5953
| 34> H 	 -48.9921 	 12.4864 	 -23.3418
| 35> C 	 -50.0395 	 13.0809 	 -25.1412
| 36> H 	 -51.0406 	 12.8566 	 -24.8078
| 37> H 	 -49.9027 	 12.6006 	 -26.1062
| 38> H 	 -49.9738 	 14.1792 	 -25.2049
| 39> H 	 -49.8537 	 10.2192 	 -18.4054
| 40> H 	 -43.6474 	 10.6838 	 -24.1318
| 41> *
| 42>
| 43>                          ****END OF INPUT****

CARTESIAN COORDINATES (ANGSTROEM)
---------------------------------
  S    -47.815800   10.973400  -19.966700
  C    -49.358000   10.217400  -19.433900
  C    -49.793700    9.255410  -20.377300
  C    -49.005900    9.241620  -21.609000
  C    -47.954300   10.152300  -21.575000
  H    -49.200300    8.520960  -22.470600
  C    -50.989000    8.339350  -20.169100
  H    -51.568900    8.130480  -21.072000
  H    -51.614100    8.960230  -19.458200
  C    -50.546000    7.001940  -19.597400
  H    -50.064300    7.261970  -18.667100
  H    -51.475700    6.391150  -19.365700
  C    -49.596000    6.248300  -20.578200
  H    -49.266500    5.325280  -20.262700
  H    -49.968700    6.016920  -21.578000
  H    -48.637100    6.765690  -20.705500
  S    -45.259500    9.950510  -22.193300
  C    -44.692000   10.634100  -23.791000
  C    -45.743800   10.960400  -24.537200
  C    -47.005000   10.753900  -23.937500
  C    -46.959400   10.375400  -22.604400
  H    -45.649500   11.299500  -25.535200
  C    -48.289400   11.109100  -24.752800
  H    -49.053000   10.345500  -24.466200
  H    -48.185400   10.954700  -25.842900
  C    -48.820700   12.505300  -24.410300
  H    -48.008200   13.190800  -24.595300
  H    -48.992100   12.486400  -23.341800
  C    -50.039500   13.080900  -25.141200
  H    -51.040600   12.856600  -24.807800
  H    -49.902700   12.600600  -26.106200
  H    -49.973800   14.179200  -25.204900
  H    -49.853700   10.219200  -18.405400
  H    -43.647400   10.683800  -24.131800

 Total Charge           Charge          ....    0
 Multiplicity           Mult            ....    1
 Number of Electrons    NEL             ....  134
 Basis Dimension        Dim             ....  322

ORBITAL ENERGIES
----------------

  NO   OCC          E(Eh)            E(eV)
   0   2.0000     -88.972515     -2421.0652
   1   2.0000     -88.962848     -2420.8022
   2   2.0000     -10.338756      -281.3319
   3   2.0000     -10.332090      -281.1505
   4   2.0000     -10.328052      -281.0406
   5   2.0000     -10.320653      -280.8392
   6   2.0000     -10.308891      -280.5192
   7   2.0000     -10.308127      -280.4984
   8   2.0000     -10.306252      -280.4474
   9   2.0000     -10.296759      -280.1891
  10   2.0000     -10.296668      -280.1866
  11   2.0000     -10.294442      -280.1260
  12   2.0000     -10.286732      -279.9162
  13   2.0000     -10.278570      -279.6941
  14   2.0000     -10.274966      -279.5960
  15   2.0000     -10.273820      -279.5648
  16   2.0000      -8.085053      -220.0055
  17   2.0000      -8.075988      -219.7588
  18   2.0000      -6.043838      -164.4612
  19   2.0000      -6.040002      -164.3568
  20   2.0000      -6.035479      -164.2337
  21   2.0000      -6.034784      -164.2148
  22   2.0000      -6.030857      -164.1080
  23   2.0000      -6.026384      -163.9863
  24   2.0000      -0.997362       -27.1396
  25   2.0000      -0.973653       -26.4944
  26   2.0000      -0.912899       -24.8412
  27   2.0000      -0.901863       -24.5409
  28   2.0000      -0.869152       -23.6508
  29   2.0000      -0.843411       -22.9504
  30   2.0000      -0.837150       -22.7800
  31   2.0000      -0.816689       -22.2232
  32   2.0000      -0.783509       -21.3204
  33   2.0000      -0.769586       -20.9415
  34   2.0000      -0.707597       -19.2547
  35   2.0000      -0.701359       -19.0849
  36   2.0000      -0.688805       -18.7434
  37   2.0000      -0.663446       -18.0533
  38   2.0000      -0.629862       -17.1394
  39   2.0000      -0.611285       -16.6339
  40   2.0000      -0.594056       -16.1651
  41   2.0000      -0.577127       -15.7044
  42   2.0000      -0.562226       -15.2990
  43   2.0000      -0.546750       -14.8778
  44   2.0000      -0.539407       -14.6780
  45   2.0000      -0.523755       -14.2521
  46   2.0000      -0.508373       -13.8335
  47   2.0000      -0.506817       -13.7912
  48   2.0000      -0.503359       -13.6971
  49   2.0000      -0.497444       -13.5361
  50   2.0000      -0.486568       -13.2402
  51   2.0000      -0.480842       -13.0844
  52   2.0000      -0.475301       -12.9336
  53   2.0000      -0.461060       -12.5461
  54   2.0000      -0.455850       -12.4043
  55   2.0000      -0.444442       -12.0939
  56   2.0000      -0.442323       -12.0362
  57   2.0000      -0.434630       -11.8269
  58   2.0000      -0.429254       -11.6806
  59   2.0000      -0.423904       -11.5350
  60   2.0000      -0.416050       -11.3213
  61   2.0000      -0.411857       -11.2072
  62   2.0000      -0.411235       -11.1903
  63   2.0000      -0.346074        -9.4172
  64   2.0000      -0.330354        -8.9894
  65   2.0000      -0.328562        -8.9406
  66   2.0000      -0.296976        -8.0811
  67   0.0000       0.024066         0.6549
  68   0.0000       0.057400         1.5619
  69   0.0000       0.101995         2.7754
  70   0.0000       0.111967         3.0468
  71   0.0000       0.119468         3.2509

MULLIKEN ATOMIC CHARGES
-----------------------
   0 S :    0.112267
   1 C :   -0.129767
   2 C :   -0.139038
   3 C :    0.035054
   4 C :   -0.163521
   5 H :    0.054188
   6 C :    0.031687
   7 H :    0.031598
   8 H :    0.035671
   9 C :   -0.045271
  10 H :    0.022256
  11 H :    0.044751
  12 C :   -0.041946
  13 H :    0.008176
  14 H :    0.023481
  15 H :    0.045728
  16 S :    0.074413
  17 C :   -0.085723
  18 C :   -0.004880
  19 C :   -0.029398
  20 C :   -0.166258
  21 H :    0.005137
  22 C :    0.046985
  23 H :    0.021559
  24 H :    0.022903
  25 C :   -0.070011
  26 H :    0.019963
  27 H :    0.034720
  28 C :   -0.025499
  29 H :    0.033199
  30 H :    0.016130
  31 H :    0.040506
  32 H :    0.075847
  33 H :    0.065093
Sum of atomic charges:    0.0000000

LOEWDIN ATOMIC CHARGES
----------------------
   0 S :    0.371840
   1 C :   -0.206618
   2 C :   -0.060356
   3 C :   -0.061058
   4 C :   -0.182033
   5 H :    0.047778
   6 C :   -0.039183
   7 H :    0.028143
   8 H :    0.036366
   9 C :   -0.035482
  10 H :    0.022374
  11 H :    0.030644
  12 C :   -0.068545
  13 H :    0.016150
  14 H :    0.025007
  15 H :    0.034077
  16 S :    0.347016
  17 C :   -0.155130
  18 C :   -0.071235
  19 C :   -0.050178
  20 C :   -0.181303
  21 H :    0.029176
  22 C :   -0.035058
  23 H :    0.029607
  24 H :    0.025744
  25 C :   -0.043767
  26 H :    0.023526
  27 H :    0.025440
  28 C :   -0.066410
  29 H :    0.022034
  30 H :    0.024724
  31 H :    0.031978
  32 H :    0.047022
  33 H :    0.037706

  Mayer bond orders larger than 0.100000
B(  0-S ,  1-C ) :   1.1140 B(  0-S ,  4-C ) :   1.1230 B(  1-C ,  2-C ) :   1.6458
B(  1-C , 32-H ) :   0.9498 B(  2-C ,  3-C ) :   1.2149 B(  2-C ,  6-C ) :   1.0166
B(  3-C ,  4-C ) :   1.5955 B(  3-C ,  5-H ) :   0.9733 B(  4-C , 20-C ) :   1.0521
B(  6-C ,  7-H ) :   0.9482 B(  6-C ,  8-H ) :   0.9443 B(  6-C ,  9-C ) :   1.0618
B(  9-C , 10-H ) :   0.9531 B(  9-C , 11-H ) :   0.9579 B(  9-C , 12-C ) :   1.0733
B( 12-C , 13-H ) :   0.9690 B( 12-C , 14-H ) :   0.9738 B( 12-C , 15-H ) :   0.9656
B( 16-S , 17-C ) :   1.1147 B( 16-S , 20-C ) :   1.1210 B( 17-C , 18-C ) :   1.6433
B( 17-C , 33-H ) :   0.9639 B( 18-C , 19-C ) :   1.2291 B( 18-C , 21-H ) :   0.9919
B( 19-C , 20-C ) :   1.6231 B( 19-C , 22-C ) :   1.0394 B( 22-C , 23-H ) :   0.9327
B( 22-C , 24-H ) :   0.9344 B( 22-C , 25-C ) :   1.0725 B( 25-C , 26-H ) :   0.9556
B( 25-C , 27-H ) :   0.9543 B( 25-C , 28-C ) :   1.0684 B( 28-C , 29-H ) :   0.9775
B( 28-C , 30-H ) :   0.9742 B( 28-C , 31-H ) :   0.9765

Dispersion correction           -0.014689619
FINAL SINGLE POINT ENERGY     -1339.862229596351

DIPOLE MOMENT
-------------
                                X             Y             Z
Electronic contribution:     19.73725       4.93697       8.72232
Nuclear contribution   :    -20.14147      -5.23407      -9.09317
                        -----------------------------------------
Total Dipole Moment    :     -0.40422      -0.29710      -0.37085
                        -----------------------------------------
Magnitude (a.u.)       :      0.62385
Magnitude (Debye)      :      1.58570

Rotational constants in cm-1:     0.017514     0.008843     0.007448
Rotational constants in MHz :   525.049664   265.104877   223.277071

                             ****ORCA TERMINATED NORMALLY****
TOTAL RUN TIME: 0 days 0 hours 0 minutes 20 seconds 494 msec
