                         Program Version 4.2.1 -  RELEASE  -
|  1> ! wB97X-D3 SP def2-SVP
|  2> %pal
|  3> nprocs 24
|  4> end
|  5>
|  6> * xyz 0 1
|  7> S 	 -121.108 	 25.2988 	 -24.0151
|  8> C 	 -120.456 	 24.7865 	 -25.4845
|  9> C 	 -121 	 25.4883 	 -26.5691
| 10> C 	 -121.982 	 26.4695 	 -26.1013
| 11> C 	 -122.109 	 26.5176 	 -24.7456
| 12> H 	 -122.457 	 27.2854 	 -26.6273
| 13> C 	 -120.466 	 25.3282 	 -27.9922
| 14> H 	 -121.082 	 26.0705 	 -28.5509
| 15> H 	 -120.656 	 24.3503 	 -28.4258
| 16> C 	 -119.026 	 25.8464 	 -28.1971
| 17> H 	 -118.405 	 25.3099 	 -27.4852
| 18> H 	 -118.677 	 25.5799 	 -29.2494
| 19> C 	 -118.77 	 27.3317 	 -27.912
| 20> H 	 -119.373 	 28.087 	 -28.5655
| 21> H 	 -118.992 	 27.6035 	 -26.8551
| 22> H 	 -117.713 	 27.5767 	 -28.1813
| 23> S 	 -121.87 	 28.5153 	 -22.7584
| 24> C 	 -123.145 	 29.4535 	 -22.2423
| 25> C 	 -124.259 	 29.0516 	 -22.8709
| 26> C 	 -124.106 	 28.0117 	 -23.8649
| 27> C 	 -122.824 	 27.4852 	 -23.8782
| 28> H 	 -125.179 	 29.7044 	 -22.7619
| 29> C 	 -125.273 	 27.3922 	 -24.5879
| 30> H 	 -124.988 	 27.0113 	 -25.5486
| 31> H 	 -126.035 	 28.1324 	 -24.8442
| 32> C 	 -125.978 	 26.2845 	 -23.8344
| 33> H 	 -126.966 	 26.6143 	 -23.5472
| 34> H 	 -125.512 	 26.0254 	 -22.8976
| 35> C 	 -126.113 	 25.0533 	 -24.7337
| 36> H 	 -126.807 	 24.3182 	 -24.354
| 37> H 	 -125.125 	 24.5865 	 -24.9182
| 38> H 	 -126.69 	 25.2792 	 -25.6428
| 39> H 	 -119.709 	 23.9724 	 -25.5933
| 40> H 	 -122.998 	 30.311 	 -21.5802
| 41> *
| 42>
| 43>                          ****END OF INPUT****

CARTESIAN COORDINATES (ANGSTROEM)
---------------------------------
  S    -121.108000   25.298800  -24.015100
  C    -120.456000   24.786500  -25.484500
  C    -121.000000   25.488300  -26.569100
  C    -121.982000   26.469500  -26.101300
  C    -122.109000   26.517600  -24.745600
  H    -122.457000   27.285400  -26.627300
  C    -120.466000   25.328200  -27.992200
  H    -121.082000   26.070500  -28.550900
  H    -120.656000   24.350300  -28.425800
  C    -119.026000   25.846400  -28.197100
  H    -118.405000   25.309900  -27.485200
  H    -118.677000   25.579900  -29.249400
  C    -118.770000   27.331700  -27.912000
  H    -119.373000   28.087000  -28.565500
  H    -118.992000   27.603500  -26.855100
  H    -117.713000   27.576700  -28.181300
  S    -121.870000   28.515300  -22.758400
  C    -123.145000   29.453500  -22.242300
  C    -124.259000   29.051600  -22.870900
  C    -124.106000   28.011700  -23.864900
  C    -122.824000   27.485200  -23.878200
  H    -125.179000   29.704400  -22.761900
  C    -125.273000   27.392200  -24.587900
  H    -124.988000   27.011300  -25.548600
  H    -126.035000   28.132400  -24.844200
  C    -125.978000   26.284500  -23.834400
  H    -126.966000   26.614300  -23.547200
  H    -125.512000   26.025400  -22.897600
  C    -126.113000   25.053300  -24.733700
  H    -126.807000   24.318200  -24.354000
  H    -125.125000   24.586500  -24.918200
  H    -126.690000   25.279200  -25.642800
  H    -119.709000   23.972400  -25.593300
  H    -122.998000   30.311000  -21.580200

 Total Charge           Charge          ....    0
 Multiplicity           Mult            ....    1
 Number of Electrons    NEL             ....  134
 Basis Dimension        Dim             ....  322

ORBITAL ENERGIES
----------------

  NO   OCC          E(Eh)            E(eV)
   0   2.0000     -88.964947     -2420.8593
   1   2.0000     -88.958187     -2420.6753
   2   2.0000     -10.331583      -281.1367
   3   2.0000     -10.330309      -281.1020
   4   2.0000     -10.315590      -280.7015
   5   2.0000     -10.312517      -280.6178
   6   2.0000     -10.307660      -280.4857
   7   2.0000     -10.306432      -280.4523
   8   2.0000     -10.298591      -280.2389
   9   2.0000     -10.295342      -280.1505
  10   2.0000     -10.293482      -280.0999
  11   2.0000     -10.293108      -280.0897
  12   2.0000     -10.288235      -279.9571
  13   2.0000     -10.283755      -279.8352
  14   2.0000     -10.276626      -279.6412
  15   2.0000     -10.273741      -279.5627
  16   2.0000      -8.081127      -219.8986
  17   2.0000      -8.074481      -219.7178
  18   2.0000      -6.039465      -164.3422
  19   2.0000      -6.035210      -164.2264
  20   2.0000      -6.032912      -164.1639
  21   2.0000      -6.032197      -164.1444
  22   2.0000      -6.028555      -164.0453
  23   2.0000      -6.025384      -163.9590
  24   2.0000      -1.012261       -27.5450
  25   2.0000      -0.994004       -27.0482
  26   2.0000      -0.914248       -24.8780
  27   2.0000      -0.907861       -24.7042
  28   2.0000      -0.871046       -23.7024
  29   2.0000      -0.846646       -23.0384
  30   2.0000      -0.844128       -22.9699
  31   2.0000      -0.815622       -22.1942
  32   2.0000      -0.780452       -21.2372
  33   2.0000      -0.771022       -20.9806
  34   2.0000      -0.702099       -19.1051
  35   2.0000      -0.695587       -18.9279
  36   2.0000      -0.693044       -18.8587
  37   2.0000      -0.656729       -17.8705
  38   2.0000      -0.643768       -17.5178
  39   2.0000      -0.614810       -16.7298
  40   2.0000      -0.599806       -16.3215
  41   2.0000      -0.572362       -15.5748
  42   2.0000      -0.564792       -15.3688
  43   2.0000      -0.548652       -14.9296
  44   2.0000      -0.541925       -14.7465
  45   2.0000      -0.520017       -14.1504
  46   2.0000      -0.513053       -13.9609
  47   2.0000      -0.509546       -13.8654
  48   2.0000      -0.505448       -13.7539
  49   2.0000      -0.500230       -13.6119
  50   2.0000      -0.489309       -13.3148
  51   2.0000      -0.484942       -13.1960
  52   2.0000      -0.471238       -12.8230
  53   2.0000      -0.465265       -12.6605
  54   2.0000      -0.455768       -12.4021
  55   2.0000      -0.444702       -12.1010
  56   2.0000      -0.438329       -11.9275
  57   2.0000      -0.432608       -11.7719
  58   2.0000      -0.431860       -11.7515
  59   2.0000      -0.423732       -11.5303
  60   2.0000      -0.416167       -11.3245
  61   2.0000      -0.407224       -11.0811
  62   2.0000      -0.405186       -11.0257
  63   2.0000      -0.353677        -9.6241
  64   2.0000      -0.330709        -8.9990
  65   2.0000      -0.324926        -8.8417
  66   2.0000      -0.300214        -8.1692
  67   0.0000       0.037111         1.0099
  68   0.0000       0.069006         1.8777
  69   0.0000       0.117771         3.2047
  70   0.0000       0.122242         3.3264
  71   0.0000       0.132748         3.6123

MULLIKEN ATOMIC CHARGES
-----------------------
   0 S :    0.123130
   1 C :   -0.121094
   2 C :   -0.132707
   3 C :    0.056909
   4 C :   -0.190785
   5 H :    0.018655
   6 C :    0.071079
   7 H :    0.018034
   8 H :    0.045393
   9 C :   -0.073630
  10 H :    0.024393
  11 H :    0.040847
  12 C :   -0.104058
  13 H :    0.034858
  14 H :    0.058590
  15 H :    0.043514
  16 S :    0.090304
  17 C :   -0.085050
  18 C :   -0.053495
  19 C :   -0.059814
  20 C :   -0.134533
  21 H :    0.035919
  22 C :    0.091270
  23 H :    0.009612
  24 H :    0.017107
  25 C :   -0.029582
  26 H :    0.013493
  27 H :    0.033362
  28 C :   -0.083545
  29 H :    0.018408
  30 H :    0.057851
  31 H :    0.025646
  32 H :    0.067715
  33 H :    0.072201
Sum of atomic charges:   -0.0000000

LOEWDIN ATOMIC CHARGES
----------------------
   0 S :    0.439132
   1 C :   -0.218759
   2 C :   -0.068286
   3 C :   -0.063706
   4 C :   -0.203536
   5 H :    0.034456
   6 C :   -0.037887
   7 H :    0.032167
   8 H :    0.032701
   9 C :   -0.045161
  10 H :    0.019628
  11 H :    0.031294
  12 C :   -0.078717
  13 H :    0.028853
  14 H :    0.031720
  15 H :    0.031670
  16 S :    0.416430
  17 C :   -0.205483
  18 C :   -0.094197
  19 C :   -0.052643
  20 C :   -0.192799
  21 H :    0.038895
  22 C :   -0.032449
  23 H :    0.025790
  24 H :    0.033416
  25 C :   -0.035250
  26 H :    0.021270
  27 H :    0.024179
  28 C :   -0.070259
  29 H :    0.021670
  30 H :    0.032785
  31 H :    0.025620
  32 H :    0.037406
  33 H :    0.040051

  Mayer bond orders larger than 0.100000
B(  0-S ,  1-C ) :   1.1679 B(  0-S ,  4-C ) :   1.1647 B(  1-C ,  2-C ) :   1.5854
B(  1-C , 32-H ) :   0.9651 B(  2-C ,  3-C ) :   1.2378 B(  2-C ,  6-C ) :   1.0143
B(  3-C ,  4-C ) :   1.6031 B(  3-C ,  5-H ) :   0.9885 B(  4-C , 20-C ) :   1.0028
B(  6-C ,  7-H ) :   0.9434 B(  6-C ,  8-H ) :   0.9440 B(  6-C ,  9-C ) :   1.0627
B(  9-C , 10-H ) :   0.9556 B(  9-C , 11-H ) :   0.9560 B(  9-C , 12-C ) :   1.0735
B( 12-C , 13-H ) :   0.9733 B( 12-C , 14-H ) :   0.9729 B( 12-C , 15-H ) :   0.9730
B( 16-S , 17-C ) :   1.1828 B( 16-S , 20-C ) :   1.1372 B( 17-C , 18-C ) :   1.5920
B( 17-C , 33-H ) :   0.9663 B( 18-C , 19-C ) :   1.2415 B( 18-C , 21-H ) :   0.9807
B( 19-C , 20-C ) :   1.5875 B( 19-C , 22-C ) :   1.0767 B( 22-C , 23-H ) :   0.9394
B( 22-C , 24-H ) :   0.9225 B( 22-C , 25-C ) :   1.0390 B( 25-C , 26-H ) :   0.9531
B( 25-C , 27-H ) :   0.9636 B( 25-C , 28-C ) :   1.0925 B( 28-C , 29-H ) :   0.9700
B( 28-C , 30-H ) :   0.9749 B( 28-C , 31-H ) :   0.9716

Dispersion correction           -0.014696031
FINAL SINGLE POINT ENERGY     -1339.880134194285

DIPOLE MOMENT
-------------
                                X             Y             Z
Electronic contribution:      5.84956       4.03301      17.80825
Nuclear contribution   :     -6.06356      -3.89069     -18.21578
                        -----------------------------------------
Total Dipole Moment    :     -0.21400       0.14233      -0.40753
                        -----------------------------------------
Magnitude (a.u.)       :      0.48180
Magnitude (Debye)      :      1.22465

Rotational constants in cm-1:     0.019694     0.008584     0.007241
Rotational constants in MHz :   590.422785   257.336089   217.071766

                             ****ORCA TERMINATED NORMALLY****
TOTAL RUN TIME: 0 days 0 hours 0 minutes 21 seconds 651 msec
