                         Program Version 4.2.1 -  RELEASE  -
|  1> ! wB97X-D3 SP def2-SVP
|  2> %pal
|  3> nprocs 24
|  4> end
|  5>
|  6> * xyz 0 1
|  7> S 	 -42.3381 	 -49.4778 	 -71.5827
|  8> C 	 -42.1596 	 -47.7546 	 -72.0063
|  9> C 	 -42.7241 	 -46.9517 	 -71.0297
| 10> C 	 -43.4446 	 -47.6492 	 -69.9674
| 11> C 	 -43.3846 	 -49.0317 	 -70.1777
| 12> H 	 -43.9059 	 -47.3171 	 -69.0326
| 13> C 	 -42.6026 	 -45.449 	 -71.0209
| 14> H 	 -41.5632 	 -45.152 	 -71.2306
| 15> H 	 -42.8914 	 -45.1865 	 -70.0333
| 16> C 	 -43.4952 	 -44.7292 	 -72.0401
| 17> H 	 -43.0914 	 -43.7307 	 -72.1395
| 18> H 	 -43.4375 	 -45.3701 	 -72.894
| 19> C 	 -44.8669 	 -44.5574 	 -71.5146
| 20> H 	 -45.0437 	 -44.2447 	 -70.4641
| 21> H 	 -45.5256 	 -44.0364 	 -72.1274
| 22> H 	 -45.3789 	 -45.5697 	 -71.5444
| 23> S 	 -42.8039 	 -50.8471 	 -68.1753
| 24> C 	 -44.0771 	 -51.5535 	 -67.2522
| 25> C 	 -45.2541 	 -51.3668 	 -67.9261
| 26> C 	 -45.2356 	 -50.3268 	 -68.9363
| 27> C 	 -43.9649 	 -49.9801 	 -69.2057
| 28> H 	 -46.1669 	 -51.9378 	 -67.6527
| 29> C 	 -46.4656 	 -49.9365 	 -69.7213
| 30> H 	 -46.4706 	 -48.8856 	 -69.7091
| 31> H 	 -47.3152 	 -50.2658 	 -69.0462
| 32> C 	 -46.4396 	 -50.404 	 -71.1921
| 33> H 	 -45.6382 	 -49.8509 	 -71.6859
| 34> H 	 -47.3217 	 -50.0505 	 -71.5862
| 35> C 	 -46.3645 	 -51.9072 	 -71.4595
| 36> H 	 -45.5522 	 -52.4656 	 -70.9286
| 37> H 	 -46.3435 	 -52.1767 	 -72.5482
| 38> H 	 -47.3339 	 -52.2946 	 -71.1175
| 39> H 	 -41.5127 	 -47.3797 	 -72.8203
| 40> H 	 -44.0637 	 -52.2648 	 -66.4716
| 41> *
| 42>
| 43>                          ****END OF INPUT****

CARTESIAN COORDINATES (ANGSTROEM)
---------------------------------
  S    -42.338100  -49.477800  -71.582700
  C    -42.159600  -47.754600  -72.006300
  C    -42.724100  -46.951700  -71.029700
  C    -43.444600  -47.649200  -69.967400
  C    -43.384600  -49.031700  -70.177700
  H    -43.905900  -47.317100  -69.032600
  C    -42.602600  -45.449000  -71.020900
  H    -41.563200  -45.152000  -71.230600
  H    -42.891400  -45.186500  -70.033300
  C    -43.495200  -44.729200  -72.040100
  H    -43.091400  -43.730700  -72.139500
  H    -43.437500  -45.370100  -72.894000
  C    -44.866900  -44.557400  -71.514600
  H    -45.043700  -44.244700  -70.464100
  H    -45.525600  -44.036400  -72.127400
  H    -45.378900  -45.569700  -71.544400
  S    -42.803900  -50.847100  -68.175300
  C    -44.077100  -51.553500  -67.252200
  C    -45.254100  -51.366800  -67.926100
  C    -45.235600  -50.326800  -68.936300
  C    -43.964900  -49.980100  -69.205700
  H    -46.166900  -51.937800  -67.652700
  C    -46.465600  -49.936500  -69.721300
  H    -46.470600  -48.885600  -69.709100
  H    -47.315200  -50.265800  -69.046200
  C    -46.439600  -50.404000  -71.192100
  H    -45.638200  -49.850900  -71.685900
  H    -47.321700  -50.050500  -71.586200
  C    -46.364500  -51.907200  -71.459500
  H    -45.552200  -52.465600  -70.928600
  H    -46.343500  -52.176700  -72.548200
  H    -47.333900  -52.294600  -71.117500
  H    -41.512700  -47.379700  -72.820300
  H    -44.063700  -52.264800  -66.471600

 Total Charge           Charge          ....    0
 Multiplicity           Mult            ....    1
 Number of Electrons    NEL             ....  134
 Basis Dimension        Dim             ....  322

ORBITAL ENERGIES
----------------

  NO   OCC          E(Eh)            E(eV)
   0   2.0000     -88.970866     -2421.0203
   1   2.0000     -88.961262     -2420.7590
   2   2.0000     -10.336658      -281.2748
   3   2.0000     -10.322578      -280.8916
   4   2.0000     -10.320370      -280.8315
   5   2.0000     -10.310203      -280.5549
   6   2.0000     -10.305457      -280.4257
   7   2.0000     -10.302879      -280.3556
   8   2.0000     -10.297475      -280.2085
   9   2.0000     -10.292267      -280.0668
  10   2.0000     -10.291576      -280.0480
  11   2.0000     -10.284640      -279.8593
  12   2.0000     -10.280767      -279.7539
  13   2.0000     -10.279450      -279.7180
  14   2.0000     -10.278752      -279.6991
  15   2.0000     -10.272496      -279.5288
  16   2.0000      -8.083729      -219.9695
  17   2.0000      -8.076210      -219.7649
  18   2.0000      -6.042390      -164.4218
  19   2.0000      -6.038580      -164.3181
  20   2.0000      -6.034817      -164.2157
  21   2.0000      -6.034347      -164.2029
  22   2.0000      -6.030811      -164.1067
  23   2.0000      -6.026704      -163.9950
  24   2.0000      -1.003809       -27.3150
  25   2.0000      -0.978476       -26.6257
  26   2.0000      -0.917991       -24.9798
  27   2.0000      -0.909216       -24.7410
  28   2.0000      -0.867949       -23.6181
  29   2.0000      -0.848175       -23.0800
  30   2.0000      -0.843884       -22.9633
  31   2.0000      -0.813244       -22.1295
  32   2.0000      -0.782670       -21.2975
  33   2.0000      -0.772415       -21.0185
  34   2.0000      -0.709769       -19.3138
  35   2.0000      -0.703693       -19.1485
  36   2.0000      -0.689203       -18.7542
  37   2.0000      -0.659786       -17.9537
  38   2.0000      -0.641827       -17.4650
  39   2.0000      -0.604803       -16.4575
  40   2.0000      -0.587240       -15.9796
  41   2.0000      -0.578463       -15.7408
  42   2.0000      -0.555253       -15.1092
  43   2.0000      -0.554553       -15.0902
  44   2.0000      -0.544956       -14.8290
  45   2.0000      -0.535690       -14.5769
  46   2.0000      -0.517982       -14.0950
  47   2.0000      -0.511501       -13.9187
  48   2.0000      -0.504521       -13.7287
  49   2.0000      -0.491322       -13.3696
  50   2.0000      -0.483639       -13.1605
  51   2.0000      -0.480388       -13.0720
  52   2.0000      -0.470169       -12.7939
  53   2.0000      -0.464422       -12.6376
  54   2.0000      -0.457992       -12.4626
  55   2.0000      -0.449142       -12.2218
  56   2.0000      -0.440186       -11.9781
  57   2.0000      -0.435863       -11.8604
  58   2.0000      -0.429435       -11.6855
  59   2.0000      -0.425390       -11.5754
  60   2.0000      -0.419890       -11.4258
  61   2.0000      -0.412697       -11.2301
  62   2.0000      -0.408724       -11.1219
  63   2.0000      -0.339421        -9.2361
  64   2.0000      -0.329212        -8.9583
  65   2.0000      -0.323904        -8.8139
  66   2.0000      -0.302776        -8.2390
  67   0.0000       0.035865         0.9759
  68   0.0000       0.055241         1.5032
  69   0.0000       0.108066         2.9406
  70   0.0000       0.119055         3.2397
  71   0.0000       0.127227         3.4620

MULLIKEN ATOMIC CHARGES
-----------------------
   0 S :    0.107359
   1 C :   -0.133729
   2 C :   -0.105788
   3 C :    0.045443
   4 C :   -0.173098
   5 H :    0.036491
   6 C :    0.073604
   7 H :    0.032631
   8 H :    0.001745
   9 C :   -0.009467
  10 H :    0.029232
  11 H :    0.024954
  12 C :   -0.062050
  13 H :    0.033872
  14 H :    0.015489
  15 H :    0.020472
  16 S :    0.107353
  17 C :   -0.055967
  18 C :   -0.071922
  19 C :   -0.063495
  20 C :   -0.192750
  21 H :    0.026906
  22 C :    0.102087
  23 H :    0.010740
  24 H :    0.025140
  25 C :   -0.019878
  26 H :    0.038043
  27 H :    0.007598
  28 C :   -0.073422
  29 H :    0.054310
  30 H :    0.042770
  31 H :    0.019391
  32 H :    0.065673
  33 H :    0.040265
Sum of atomic charges:    0.0000000

LOEWDIN ATOMIC CHARGES
----------------------
   0 S :    0.370285
   1 C :   -0.198596
   2 C :   -0.059806
   3 C :   -0.058982
   4 C :   -0.176599
   5 H :    0.041402
   6 C :   -0.026392
   7 H :    0.032836
   8 H :    0.020661
   9 C :   -0.033411
  10 H :    0.024499
  11 H :    0.025007
  12 C :   -0.073889
  13 H :    0.028682
  14 H :    0.014834
  15 H :    0.032175
  16 S :    0.398349
  17 C :   -0.190583
  18 C :   -0.075707
  19 C :   -0.060333
  20 C :   -0.191988
  21 H :    0.031729
  22 C :   -0.025797
  23 H :    0.027844
  24 H :    0.034749
  25 C :   -0.031243
  26 H :    0.026758
  27 H :    0.015201
  28 C :   -0.072257
  29 H :    0.031133
  30 H :    0.033044
  31 H :    0.023353
  32 H :    0.037184
  33 H :    0.025857

  Mayer bond orders larger than 0.100000
B(  0-S ,  1-C ) :   1.1106 B(  0-S ,  4-C ) :   1.1344 B(  1-C ,  2-C ) :   1.6394
B(  1-C , 32-H ) :   0.9629 B(  2-C ,  3-C ) :   1.1979 B(  2-C ,  6-C ) :   1.0298
B(  3-C ,  4-C ) :   1.6097 B(  3-C ,  5-H ) :   0.9836 B(  4-C , 20-C ) :   1.0183
B(  6-C ,  7-H ) :   0.9405 B(  6-C ,  8-H ) :   0.9384 B(  6-C ,  9-C ) :   1.0661
B(  9-C , 10-H ) :   0.9536 B(  9-C , 11-H ) :   0.9532 B(  9-C , 12-C ) :   1.0906
B( 12-C , 13-H ) :   0.9742 B( 12-C , 14-H ) :   0.9701 B( 12-C , 15-H ) :   0.9670
B( 16-S , 17-C ) :   1.1424 B( 16-S , 20-C ) :   1.1271 B( 17-C , 18-C ) :   1.6453
B( 17-C , 33-H ) :   0.9681 B( 18-C , 19-C ) :   1.2133 B( 18-C , 21-H ) :   0.9755
B( 19-C , 20-C ) :   1.6438 B( 19-C , 22-C ) :   1.0392 B( 22-C , 23-H ) :   0.9152
B( 22-C , 24-H ) :   0.9333 B( 22-C , 25-C ) :   1.0775 B( 25-C , 26-H ) :   0.9499
B( 25-C , 27-H ) :   0.9510 B( 25-C , 28-C ) :   1.0713 B( 28-C , 29-H ) :   0.9765
B( 28-C , 30-H ) :   0.9738 B( 28-C , 31-H ) :   0.9743

Dispersion correction           -0.015482532
FINAL SINGLE POINT ENERGY     -1339.861273273660

DIPOLE MOMENT
-------------
                                X             Y             Z
Electronic contribution:     16.61036     -13.18957       9.03312
Nuclear contribution   :    -17.03619      13.55307      -9.08734
                        -----------------------------------------
Total Dipole Moment    :     -0.42583       0.36350      -0.05422
                        -----------------------------------------
Magnitude (a.u.)       :      0.56249
Magnitude (Debye)      :      1.42975

Rotational constants in cm-1:     0.020456     0.008583     0.007745
Rotational constants in MHz :   613.243856   257.312009   232.184495

                             ****ORCA TERMINATED NORMALLY****
TOTAL RUN TIME: 0 days 0 hours 0 minutes 21 seconds 136 msec
