                         Program Version 4.2.1 -  RELEASE  -
|  1> ! wB97X-D3 SP def2-SVP
|  2> %pal
|  3> nprocs 24
|  4> end
|  5>
|  6> * xyz 0 1
|  7> S 	 -43.296 	 -8.73799 	 7.00673
|  8> C 	 -42.0435 	 -9.44911 	 6.04415
|  9> C 	 -40.8852 	 -8.62351 	 6.06424
| 10> C 	 -40.974 	 -7.5947 	 7.01209
| 11> C 	 -42.1252 	 -7.78775 	 7.78989
| 12> H 	 -40.2376 	 -6.8537 	 7.27552
| 13> C 	 -39.6206 	 -8.84925 	 5.28366
| 14> H 	 -39.0418 	 -9.52959 	 5.95789
| 15> H 	 -38.9827 	 -8.01755 	 5.19989
| 16> C 	 -39.7667 	 -9.5249 	 3.90344
| 17> H 	 -38.7711 	 -9.52466 	 3.45242
| 18> H 	 -39.8825 	 -10.6025 	 3.91205
| 19> C 	 -40.6945 	 -8.8873 	 2.94012
| 20> H 	 -40.912 	 -9.33675 	 1.95904
| 21> H 	 -41.7205 	 -8.88388 	 3.35614
| 22> H 	 -40.451 	 -7.79741 	 2.79484
| 23> S 	 -41.8492 	 -7.70077 	 10.5483
| 24> C 	 -42.7829 	 -6.59007 	 11.4461
| 25> C 	 -43.1906 	 -5.57431 	 10.5955
| 26> C 	 -42.9555 	 -5.80414 	 9.1936
| 27> C 	 -42.3723 	 -7.10033 	 9.01893
| 28> H 	 -43.5873 	 -4.65281 	 11.0092
| 29> C 	 -43.3145 	 -4.90286 	 7.99593
| 30> H 	 -44.3278 	 -5.24314 	 7.70363
| 31> H 	 -42.6517 	 -5.22309 	 7.26043
| 32> C 	 -43.2122 	 -3.37807 	 8.23763
| 33> H 	 -42.2735 	 -3.27559 	 8.76587
| 34> H 	 -43.9107 	 -2.98977 	 8.9458
| 35> C 	 -43.1976 	 -2.53453 	 6.93311
| 36> H 	 -43.1738 	 -1.42739 	 7.09968
| 37> H 	 -44.1284 	 -2.63951 	 6.33287
| 38> H 	 -42.2784 	 -2.89715 	 6.36163
| 39> H 	 -42.1213 	 -10.2411 	 5.31159
| 40> H 	 -42.7397 	 -6.53548 	 12.5173
| 41> *
| 42>
| 43>                          ****END OF INPUT****

CARTESIAN COORDINATES (ANGSTROEM)
---------------------------------
  S    -43.296000   -8.737990    7.006730
  C    -42.043500   -9.449110    6.044150
  C    -40.885200   -8.623510    6.064240
  C    -40.974000   -7.594700    7.012090
  C    -42.125200   -7.787750    7.789890
  H    -40.237600   -6.853700    7.275520
  C    -39.620600   -8.849250    5.283660
  H    -39.041800   -9.529590    5.957890
  H    -38.982700   -8.017550    5.199890
  C    -39.766700   -9.524900    3.903440
  H    -38.771100   -9.524660    3.452420
  H    -39.882500  -10.602500    3.912050
  C    -40.694500   -8.887300    2.940120
  H    -40.912000   -9.336750    1.959040
  H    -41.720500   -8.883880    3.356140
  H    -40.451000   -7.797410    2.794840
  S    -41.849200   -7.700770   10.548300
  C    -42.782900   -6.590070   11.446100
  C    -43.190600   -5.574310   10.595500
  C    -42.955500   -5.804140    9.193600
  C    -42.372300   -7.100330    9.018930
  H    -43.587300   -4.652810   11.009200
  C    -43.314500   -4.902860    7.995930
  H    -44.327800   -5.243140    7.703630
  H    -42.651700   -5.223090    7.260430
  C    -43.212200   -3.378070    8.237630
  H    -42.273500   -3.275590    8.765870
  H    -43.910700   -2.989770    8.945800
  C    -43.197600   -2.534530    6.933110
  H    -43.173800   -1.427390    7.099680
  H    -44.128400   -2.639510    6.332870
  H    -42.278400   -2.897150    6.361630
  H    -42.121300  -10.241100    5.311590
  H    -42.739700   -6.535480   12.517300

 Total Charge           Charge          ....    0
 Multiplicity           Mult            ....    1
 Number of Electrons    NEL             ....  134
 Basis Dimension        Dim             ....  322

ORBITAL ENERGIES
----------------

  NO   OCC          E(Eh)            E(eV)
   0   2.0000     -88.970007     -2420.9970
   1   2.0000     -88.961457     -2420.7643
   2   2.0000     -10.320977      -280.8481
   3   2.0000     -10.318285      -280.7748
   4   2.0000     -10.311600      -280.5929
   5   2.0000     -10.310508      -280.5632
   6   2.0000     -10.305444      -280.4254
   7   2.0000     -10.301507      -280.3183
   8   2.0000     -10.293828      -280.1093
   9   2.0000     -10.292619      -280.0764
  10   2.0000     -10.291902      -280.0569
  11   2.0000     -10.290906      -280.0298
  12   2.0000     -10.289649      -279.9956
  13   2.0000     -10.286713      -279.9157
  14   2.0000     -10.284706      -279.8611
  15   2.0000     -10.277263      -279.6585
  16   2.0000      -8.085463      -220.0166
  17   2.0000      -8.077314      -219.7949
  18   2.0000      -6.043643      -164.4559
  19   2.0000      -6.040162      -164.3612
  20   2.0000      -6.036238      -164.2544
  21   2.0000      -6.035619      -164.2376
  22   2.0000      -6.031616      -164.1286
  23   2.0000      -6.028276      -164.0377
  24   2.0000      -1.012278       -27.5455
  25   2.0000      -0.988110       -26.8878
  26   2.0000      -0.916069       -24.9275
  27   2.0000      -0.904781       -24.6204
  28   2.0000      -0.867166       -23.5968
  29   2.0000      -0.857183       -23.3251
  30   2.0000      -0.843385       -22.9497
  31   2.0000      -0.808168       -21.9914
  32   2.0000      -0.785550       -21.3759
  33   2.0000      -0.769068       -20.9274
  34   2.0000      -0.706665       -19.2293
  35   2.0000      -0.705715       -19.2035
  36   2.0000      -0.699078       -19.0229
  37   2.0000      -0.644385       -17.5346
  38   2.0000      -0.642396       -17.4805
  39   2.0000      -0.609157       -16.5760
  40   2.0000      -0.594692       -16.1824
  41   2.0000      -0.577212       -15.7067
  42   2.0000      -0.567147       -15.4328
  43   2.0000      -0.560014       -15.2388
  44   2.0000      -0.538280       -14.6473
  45   2.0000      -0.526167       -14.3177
  46   2.0000      -0.512567       -13.9476
  47   2.0000      -0.509486       -13.8638
  48   2.0000      -0.502763       -13.6809
  49   2.0000      -0.492861       -13.4114
  50   2.0000      -0.489361       -13.3162
  51   2.0000      -0.479865       -13.0578
  52   2.0000      -0.477381       -12.9902
  53   2.0000      -0.466756       -12.7011
  54   2.0000      -0.461014       -12.5448
  55   2.0000      -0.449182       -12.2229
  56   2.0000      -0.445046       -12.1103
  57   2.0000      -0.441798       -12.0219
  58   2.0000      -0.432245       -11.7620
  59   2.0000      -0.423680       -11.5289
  60   2.0000      -0.421442       -11.4680
  61   2.0000      -0.416895       -11.3443
  62   2.0000      -0.405749       -11.0410
  63   2.0000      -0.332283        -9.0419
  64   2.0000      -0.324790        -8.8380
  65   2.0000      -0.309171        -8.4130
  66   2.0000      -0.301973        -8.2171
  67   0.0000       0.034807         0.9472
  68   0.0000       0.048908         1.3308
  69   0.0000       0.102677         2.7940
  70   0.0000       0.120564         3.2807
  71   0.0000       0.137712         3.7473

MULLIKEN ATOMIC CHARGES
-----------------------
   0 S :    0.153100
   1 C :   -0.105833
   2 C :   -0.098605
   3 C :    0.049258
   4 C :   -0.215803
   5 H :    0.015786
   6 C :    0.075976
   7 H :    0.050506
   8 H :    0.014665
   9 C :   -0.067725
  10 H :    0.017746
  11 H :    0.020672
  12 C :   -0.061265
  13 H :    0.037075
  14 H :    0.021142
  15 H :    0.032573
  16 S :    0.127155
  17 C :   -0.087159
  18 C :   -0.050050
  19 C :   -0.072767
  20 C :   -0.188917
  21 H :    0.016287
  22 C :    0.149952
  23 H :    0.039142
  24 H :   -0.000982
  25 C :   -0.075854
  26 H :    0.025435
  27 H :    0.026513
  28 C :   -0.082003
  29 H :    0.043246
  30 H :    0.040955
  31 H :    0.048042
  32 H :    0.044285
  33 H :    0.057452
Sum of atomic charges:   -0.0000000

LOEWDIN ATOMIC CHARGES
----------------------
   0 S :    0.450127
   1 C :   -0.216164
   2 C :   -0.056771
   3 C :   -0.055572
   4 C :   -0.211976
   5 H :    0.032352
   6 C :   -0.029273
   7 H :    0.049585
   8 H :    0.025192
   9 C :   -0.056373
  10 H :    0.028210
  11 H :    0.023023
  12 C :   -0.079430
  13 H :    0.029729
  14 H :    0.023668
  15 H :    0.030101
  16 S :    0.440358
  17 C :   -0.202616
  18 C :   -0.079444
  19 C :   -0.049233
  20 C :   -0.227510
  21 H :    0.027386
  22 C :   -0.024616
  23 H :    0.037257
  24 H :    0.020455
  25 C :   -0.042631
  26 H :    0.025019
  27 H :    0.018454
  28 C :   -0.074597
  29 H :    0.030846
  30 H :    0.028019
  31 H :    0.034588
  32 H :    0.024005
  33 H :    0.027831

  Mayer bond orders larger than 0.100000
B(  0-S ,  1-C ) :   1.1445 B(  0-S ,  4-C ) :   1.1897 B(  1-C ,  2-C ) :   1.5580
B(  1-C ,  4-C ) :   0.1108 B(  1-C , 32-H ) :   0.9660 B(  2-C ,  3-C ) :   1.2737
B(  2-C ,  6-C ) :   1.0232 B(  3-C ,  4-C ) :   1.5173 B(  3-C ,  5-H ) :   1.0017
B(  4-C , 20-C ) :   1.0541 B(  6-C ,  7-H ) :   0.9300 B(  6-C ,  8-H ) :   0.9448
B(  6-C ,  9-C ) :   1.0751 B(  9-C , 10-H ) :   0.9471 B(  9-C , 11-H ) :   0.9469
B(  9-C , 12-C ) :   1.0848 B( 12-C , 13-H ) :   0.9723 B( 12-C , 14-H ) :   0.9664
B( 12-C , 15-H ) :   0.9716 B( 16-S , 17-C ) :   1.1807 B( 16-S , 20-C ) :   1.1755
B( 17-C , 18-C ) :   1.5552 B( 17-C , 20-C ) :   0.1116 B( 17-C , 33-H ) :   0.9709
B( 18-C , 19-C ) :   1.2826 B( 18-C , 21-H ) :   0.9901 B( 19-C , 20-C ) :   1.5279
B( 19-C , 22-C ) :   1.0319 B( 22-C , 23-H ) :   0.9233 B( 22-C , 24-H ) :   0.9208
B( 22-C , 25-C ) :   1.0590 B( 25-C , 26-H ) :   0.9606 B( 25-C , 27-H ) :   0.9528
B( 25-C , 28-C ) :   1.0818 B( 28-C , 29-H ) :   0.9748 B( 28-C , 30-H ) :   0.9752
B( 28-C , 31-H ) :   0.9750

Dispersion correction           -0.014452535
FINAL SINGLE POINT ENERGY     -1339.851429652429

DIPOLE MOMENT
-------------
                                X             Y             Z
Electronic contribution:     -5.67532     -12.79186      20.46036
Nuclear contribution   :      5.98782      13.18636     -20.74826
                        -----------------------------------------
Total Dipole Moment    :      0.31250       0.39450      -0.28790
                        -----------------------------------------
Magnitude (a.u.)       :      0.57981
Magnitude (Debye)      :      1.47375

Rotational constants in cm-1:     0.019201     0.008147     0.006534
Rotational constants in MHz :   575.639133   244.226115   195.892136

                             ****ORCA TERMINATED NORMALLY****
TOTAL RUN TIME: 0 days 0 hours 0 minutes 20 seconds 205 msec
