                         Program Version 4.2.1 -  RELEASE  -
|  1> ! wB97X-D3 SP def2-SVP
|  2> %pal
|  3> nprocs 24
|  4> end
|  5>
|  6> * xyz 0 1
|  7> S 	 -129.715 	 55.8761 	 -64.7981
|  8> C 	 -128.254 	 56.4217 	 -65.6375
|  9> C 	 -127.397 	 57.1707 	 -64.8235
| 10> C 	 -128.019 	 57.3892 	 -63.5105
| 11> C 	 -129.312 	 56.8218 	 -63.3639
| 12> H 	 -127.576 	 57.8851 	 -62.6399
| 13> C 	 -126.121 	 57.8109 	 -65.2555
| 14> H 	 -125.816 	 58.4804 	 -64.3785
| 15> H 	 -126.299 	 58.5273 	 -66.0789
| 16> C 	 -124.967 	 56.9085 	 -65.7251
| 17> H 	 -125.223 	 56.363 	 -66.5868
| 18> H 	 -124.134 	 57.4838 	 -66.1567
| 19> C 	 -124.47 	 55.9818 	 -64.6482
| 20> H 	 -123.965 	 56.5718 	 -63.8474
| 21> H 	 -125.313 	 55.4076 	 -64.4574
| 22> H 	 -123.712 	 55.2487 	 -64.9465
| 23> S 	 -131.657 	 57.8164 	 -62.2908
| 24> C 	 -131.994 	 57.5886 	 -60.6061
| 25> C 	 -130.944 	 57.0835 	 -59.9987
| 26> C 	 -129.867 	 56.6314 	 -60.8376
| 27> C 	 -130.139 	 56.8699 	 -62.1627
| 28> H 	 -130.868 	 57.0959 	 -58.8815
| 29> C 	 -128.585 	 56.1098 	 -60.1702
| 30> H 	 -128.423 	 56.5741 	 -59.183
| 31> H 	 -127.716 	 56.363 	 -60.7199
| 32> C 	 -128.61 	 54.6612 	 -60.0527
| 33> H 	 -127.71 	 54.482 	 -59.5721
| 34> H 	 -128.479 	 54.2117 	 -60.9883
| 35> C 	 -129.679 	 53.9476 	 -59.2194
| 36> H 	 -130.637 	 53.9186 	 -59.7186
| 37> H 	 -129.605 	 54.2983 	 -58.2102
| 38> H 	 -129.388 	 52.8956 	 -59.2825
| 39> H 	 -128.217 	 56.2303 	 -66.6731
| 40> H 	 -132.919 	 58.0592 	 -60.1165
| 41> *
| 42>
| 43>                          ****END OF INPUT****

CARTESIAN COORDINATES (ANGSTROEM)
---------------------------------
  S    -129.715000   55.876100  -64.798100
  C    -128.254000   56.421700  -65.637500
  C    -127.397000   57.170700  -64.823500
  C    -128.019000   57.389200  -63.510500
  C    -129.312000   56.821800  -63.363900
  H    -127.576000   57.885100  -62.639900
  C    -126.121000   57.810900  -65.255500
  H    -125.816000   58.480400  -64.378500
  H    -126.299000   58.527300  -66.078900
  C    -124.967000   56.908500  -65.725100
  H    -125.223000   56.363000  -66.586800
  H    -124.134000   57.483800  -66.156700
  C    -124.470000   55.981800  -64.648200
  H    -123.965000   56.571800  -63.847400
  H    -125.313000   55.407600  -64.457400
  H    -123.712000   55.248700  -64.946500
  S    -131.657000   57.816400  -62.290800
  C    -131.994000   57.588600  -60.606100
  C    -130.944000   57.083500  -59.998700
  C    -129.867000   56.631400  -60.837600
  C    -130.139000   56.869900  -62.162700
  H    -130.868000   57.095900  -58.881500
  C    -128.585000   56.109800  -60.170200
  H    -128.423000   56.574100  -59.183000
  H    -127.716000   56.363000  -60.719900
  C    -128.610000   54.661200  -60.052700
  H    -127.710000   54.482000  -59.572100
  H    -128.479000   54.211700  -60.988300
  C    -129.679000   53.947600  -59.219400
  H    -130.637000   53.918600  -59.718600
  H    -129.605000   54.298300  -58.210200
  H    -129.388000   52.895600  -59.282500
  H    -128.217000   56.230300  -66.673100
  H    -132.919000   58.059200  -60.116500

 Total Charge           Charge          ....    0
 Multiplicity           Mult            ....    1
 Number of Electrons    NEL             ....  134
 Basis Dimension        Dim             ....  322

ORBITAL ENERGIES
----------------

  NO   OCC          E(Eh)            E(eV)
   0   2.0000     -88.966212     -2420.8937
   1   2.0000     -88.956778     -2420.6370
   2   2.0000     -10.333183      -281.1802
   3   2.0000     -10.326842      -281.0077
   4   2.0000     -10.317014      -280.7402
   5   2.0000     -10.315233      -280.6918
   6   2.0000     -10.310711      -280.5687
   7   2.0000     -10.303824      -280.3813
   8   2.0000     -10.302740      -280.3518
   9   2.0000     -10.299744      -280.2703
  10   2.0000     -10.288196      -279.9560
  11   2.0000     -10.285771      -279.8900
  12   2.0000     -10.282042      -279.7886
  13   2.0000     -10.271301      -279.4963
  14   2.0000     -10.270531      -279.4753
  15   2.0000     -10.264382      -279.3080
  16   2.0000      -8.080412      -219.8792
  17   2.0000      -8.071959      -219.6492
  18   2.0000      -6.038930      -164.3276
  19   2.0000      -6.034886      -164.2176
  20   2.0000      -6.031312      -164.1203
  21   2.0000      -6.030574      -164.1003
  22   2.0000      -6.026567      -163.9912
  23   2.0000      -6.022386      -163.8775
  24   2.0000      -1.003110       -27.2960
  25   2.0000      -0.979414       -26.6512
  26   2.0000      -0.921775       -25.0828
  27   2.0000      -0.914442       -24.8832
  28   2.0000      -0.869917       -23.6717
  29   2.0000      -0.848521       -23.0894
  30   2.0000      -0.841979       -22.9114
  31   2.0000      -0.810992       -22.0682
  32   2.0000      -0.790444       -21.5091
  33   2.0000      -0.776101       -21.1188
  34   2.0000      -0.707048       -19.2397
  35   2.0000      -0.705942       -19.2097
  36   2.0000      -0.684969       -18.6390
  37   2.0000      -0.655667       -17.8416
  38   2.0000      -0.642985       -17.4965
  39   2.0000      -0.609689       -16.5905
  40   2.0000      -0.596486       -16.2312
  41   2.0000      -0.574068       -15.6212
  42   2.0000      -0.567361       -15.4387
  43   2.0000      -0.554590       -15.0912
  44   2.0000      -0.549516       -14.9531
  45   2.0000      -0.539448       -14.6791
  46   2.0000      -0.518179       -14.1004
  47   2.0000      -0.511676       -13.9234
  48   2.0000      -0.500690       -13.6245
  49   2.0000      -0.495136       -13.4733
  50   2.0000      -0.488710       -13.2985
  51   2.0000      -0.480665       -13.0796
  52   2.0000      -0.467635       -12.7250
  53   2.0000      -0.465629       -12.6704
  54   2.0000      -0.459533       -12.5045
  55   2.0000      -0.445395       -12.1198
  56   2.0000      -0.438873       -11.9423
  57   2.0000      -0.433688       -11.8013
  58   2.0000      -0.431562       -11.7434
  59   2.0000      -0.423733       -11.5304
  60   2.0000      -0.420091       -11.4313
  61   2.0000      -0.414993       -11.2925
  62   2.0000      -0.405707       -11.0398
  63   2.0000      -0.337304        -9.1785
  64   2.0000      -0.329556        -8.9677
  65   2.0000      -0.324301        -8.8247
  66   2.0000      -0.302564        -8.2332
  67   0.0000       0.030493         0.8298
  68   0.0000       0.066463         1.8086
  69   0.0000       0.108509         2.9527
  70   0.0000       0.111137         3.0242
  71   0.0000       0.120962         3.2915

MULLIKEN ATOMIC CHARGES
-----------------------
   0 S :    0.107971
   1 C :   -0.125051
   2 C :   -0.072279
   3 C :    0.032581
   4 C :   -0.172698
   5 H :    0.026531
   6 C :    0.034925
   7 H :    0.030541
   8 H :    0.046968
   9 C :   -0.052348
  10 H :    0.009465
  11 H :    0.019288
  12 C :   -0.037819
  13 H :    0.037345
  14 H :    0.030053
  15 H :    0.026235
  16 S :    0.082279
  17 C :   -0.104983
  18 C :   -0.047218
  19 C :   -0.031115
  20 C :   -0.172146
  21 H :    0.030396
  22 C :    0.118434
  23 H :    0.017389
  24 H :    0.001056
  25 C :   -0.052395
  26 H :   -0.004034
  27 H :    0.014313
  28 C :   -0.018927
  29 H :    0.041728
  30 H :    0.029113
  31 H :    0.025521
  32 H :    0.043390
  33 H :    0.085493
Sum of atomic charges:   -0.0000000

LOEWDIN ATOMIC CHARGES
----------------------
   0 S :    0.396699
   1 C :   -0.179754
   2 C :   -0.064315
   3 C :   -0.058195
   4 C :   -0.200029
   5 H :    0.032684
   6 C :   -0.038765
   7 H :    0.037479
   8 H :    0.040466
   9 C :   -0.043181
  10 H :    0.016425
  11 H :    0.024565
  12 C :   -0.065169
  13 H :    0.030809
  14 H :    0.019968
  15 H :    0.026708
  16 S :    0.383361
  17 C :   -0.193723
  18 C :   -0.085169
  19 C :   -0.045742
  20 C :   -0.192727
  21 H :    0.037308
  22 C :   -0.023093
  23 H :    0.031329
  24 H :    0.025840
  25 C :   -0.039297
  26 H :    0.016805
  27 H :    0.019853
  28 C :   -0.058632
  29 H :    0.027207
  30 H :    0.022326
  31 H :    0.031849
  32 H :    0.016697
  33 H :    0.049417

  Mayer bond orders larger than 0.100000
B(  0-S ,  1-C ) :   1.1490 B(  0-S ,  4-C ) :   1.1539 B(  1-C ,  2-C ) :   1.5747
B(  1-C , 32-H ) :   0.9809 B(  2-C ,  3-C ) :   1.2334 B(  2-C ,  6-C ) :   1.0202
B(  3-C ,  4-C ) :   1.5784 B(  3-C ,  5-H ) :   0.9840 B(  4-C , 20-C ) :   1.0263
B(  6-C ,  7-H ) :   0.9454 B(  6-C ,  8-H ) :   0.9371 B(  6-C ,  9-C ) :   1.0709
B(  9-C , 10-H ) :   0.9522 B(  9-C , 11-H ) :   0.9517 B(  9-C , 12-C ) :   1.0763
B( 12-C , 13-H ) :   0.9759 B( 12-C , 14-H ) :   0.9755 B( 12-C , 15-H ) :   0.9716
B( 16-S , 17-C ) :   1.1381 B( 16-S , 20-C ) :   1.1313 B( 17-C , 18-C ) :   1.6456
B( 17-C , 33-H ) :   0.9548 B( 18-C , 19-C ) :   1.2186 B( 18-C , 21-H ) :   0.9790
B( 19-C , 20-C ) :   1.6361 B( 19-C , 22-C ) :   1.0223 B( 22-C , 23-H ) :   0.9349
B( 22-C , 24-H ) :   0.9223 B( 22-C , 25-C ) :   1.1043 B( 25-C , 26-H ) :   0.9433
B( 25-C , 27-H ) :   0.9470 B( 25-C , 28-C ) :   1.0901 B( 28-C , 29-H ) :   0.9705
B( 28-C , 30-H ) :   0.9735 B( 28-C , 31-H ) :   0.9692

Dispersion correction           -0.014505204
FINAL SINGLE POINT ENERGY     -1339.858059432167

DIPOLE MOMENT
-------------
                                X             Y             Z
Electronic contribution:    -23.16173       7.90797      -7.33148
Nuclear contribution   :     23.82557      -7.84136       7.60797
                        -----------------------------------------
Total Dipole Moment    :      0.66384       0.06661       0.27649
                        -----------------------------------------
Magnitude (a.u.)       :      0.72219
Magnitude (Debye)      :      1.83567

Rotational constants in cm-1:     0.020465     0.008242     0.006807
Rotational constants in MHz :   613.524113   247.102995   204.061505

                             ****ORCA TERMINATED NORMALLY****
TOTAL RUN TIME: 0 days 0 hours 0 minutes 21 seconds 674 msec
