                         Program Version 4.2.1 -  RELEASE  -
|  1> ! wB97X-D3 SP def2-SVP
|  2> %pal
|  3> nprocs 24
|  4> end
|  5>
|  6> * xyz 0 1
|  7> S 	 -43.1873 	 -51.7697 	 -72.1354
|  8> C 	 -41.6198 	 -51.0327 	 -71.7489
|  9> C 	 -40.5949 	 -51.9736 	 -71.8374
| 10> C 	 -41.0796 	 -53.2639 	 -72.1936
| 11> C 	 -42.4116 	 -53.3922 	 -72.0692
| 12> H 	 -40.4061 	 -54.0998 	 -72.3722
| 13> C 	 -39.1417 	 -51.5267 	 -71.8708
| 14> H 	 -38.704 	 -51.1992 	 -70.8899
| 15> H 	 -39.11 	 -50.6 	 -72.3776
| 16> C 	 -38.1037 	 -52.4952 	 -72.4523
| 17> H 	 -38.2988 	 -52.8667 	 -73.5095
| 18> H 	 -37.1172 	 -51.9944 	 -72.462
| 19> C 	 -37.8229 	 -53.6493 	 -71.3321
| 20> H 	 -37.0407 	 -54.3357 	 -71.5563
| 21> H 	 -37.6709 	 -53.2296 	 -70.3348
| 22> H 	 -38.7581 	 -54.3044 	 -71.2269
| 23> S 	 -44.5605 	 -54.5436 	 -73.3808
| 24> C 	 -44.8478 	 -56.2835 	 -73.0176
| 25> C 	 -43.9301 	 -56.7903 	 -72.1162
| 26> C 	 -42.9482 	 -55.8556 	 -71.6871
| 27> C 	 -43.186 	 -54.5887 	 -72.2286
| 28> H 	 -43.9803 	 -57.8911 	 -71.8432
| 29> C 	 -41.8087 	 -56.2146 	 -70.765
| 30> H 	 -42.2705 	 -56.7791 	 -69.9143
| 31> H 	 -41.2337 	 -55.3755 	 -70.3976
| 32> C 	 -40.7575 	 -57.1004 	 -71.3467
| 33> H 	 -40.2983 	 -56.524 	 -72.2004
| 34> H 	 -41.2957 	 -57.7816 	 -71.9262
| 35> C 	 -39.8937 	 -57.9299 	 -70.4084
| 36> H 	 -40.5218 	 -58.3798 	 -69.6825
| 37> H 	 -39.1701 	 -57.3378 	 -69.8511
| 38> H 	 -39.3825 	 -58.6829 	 -70.8919
| 39> H 	 -41.4989 	 -49.9692 	 -71.7043
| 40> H 	 -45.5891 	 -56.8228 	 -73.5174
| 41> *
| 42>
| 43>                          ****END OF INPUT****

CARTESIAN COORDINATES (ANGSTROEM)
---------------------------------
  S    -43.187300  -51.769700  -72.135400
  C    -41.619800  -51.032700  -71.748900
  C    -40.594900  -51.973600  -71.837400
  C    -41.079600  -53.263900  -72.193600
  C    -42.411600  -53.392200  -72.069200
  H    -40.406100  -54.099800  -72.372200
  C    -39.141700  -51.526700  -71.870800
  H    -38.704000  -51.199200  -70.889900
  H    -39.110000  -50.600000  -72.377600
  C    -38.103700  -52.495200  -72.452300
  H    -38.298800  -52.866700  -73.509500
  H    -37.117200  -51.994400  -72.462000
  C    -37.822900  -53.649300  -71.332100
  H    -37.040700  -54.335700  -71.556300
  H    -37.670900  -53.229600  -70.334800
  H    -38.758100  -54.304400  -71.226900
  S    -44.560500  -54.543600  -73.380800
  C    -44.847800  -56.283500  -73.017600
  C    -43.930100  -56.790300  -72.116200
  C    -42.948200  -55.855600  -71.687100
  C    -43.186000  -54.588700  -72.228600
  H    -43.980300  -57.891100  -71.843200
  C    -41.808700  -56.214600  -70.765000
  H    -42.270500  -56.779100  -69.914300
  H    -41.233700  -55.375500  -70.397600
  C    -40.757500  -57.100400  -71.346700
  H    -40.298300  -56.524000  -72.200400
  H    -41.295700  -57.781600  -71.926200
  C    -39.893700  -57.929900  -70.408400
  H    -40.521800  -58.379800  -69.682500
  H    -39.170100  -57.337800  -69.851100
  H    -39.382500  -58.682900  -70.891900
  H    -41.498900  -49.969200  -71.704300
  H    -45.589100  -56.822800  -73.517400

 Total Charge           Charge          ....    0
 Multiplicity           Mult            ....    1
 Number of Electrons    NEL             ....  134
 Basis Dimension        Dim             ....  322

ORBITAL ENERGIES
----------------

  NO   OCC          E(Eh)            E(eV)
   0   2.0000     -88.967617     -2420.9319
   1   2.0000     -88.962867     -2420.8027
   2   2.0000     -10.329294      -281.0744
   3   2.0000     -10.326567      -281.0002
   4   2.0000     -10.320251      -280.8283
   5   2.0000     -10.314101      -280.6609
   6   2.0000     -10.307121      -280.4710
   7   2.0000     -10.304080      -280.3883
   8   2.0000     -10.303219      -280.3649
   9   2.0000     -10.302906      -280.3563
  10   2.0000     -10.294335      -280.1231
  11   2.0000     -10.291885      -280.0564
  12   2.0000     -10.289858      -280.0013
  13   2.0000     -10.287756      -279.9441
  14   2.0000     -10.280340      -279.7423
  15   2.0000     -10.273498      -279.5561
  16   2.0000      -8.081049      -219.8965
  17   2.0000      -8.076812      -219.7812
  18   2.0000      -6.039591      -164.3456
  19   2.0000      -6.035948      -164.2465
  20   2.0000      -6.035485      -164.2339
  21   2.0000      -6.031725      -164.1316
  22   2.0000      -6.031646      -164.1294
  23   2.0000      -6.027165      -164.0075
  24   2.0000      -1.003446       -27.3052
  25   2.0000      -0.978188       -26.6178
  26   2.0000      -0.918084       -24.9823
  27   2.0000      -0.905954       -24.6523
  28   2.0000      -0.868667       -23.6376
  29   2.0000      -0.854089       -23.2409
  30   2.0000      -0.837209       -22.7816
  31   2.0000      -0.816311       -22.2130
  32   2.0000      -0.789993       -21.4968
  33   2.0000      -0.771480       -20.9930
  34   2.0000      -0.712314       -19.3831
  35   2.0000      -0.700046       -19.0492
  36   2.0000      -0.694520       -18.8989
  37   2.0000      -0.658916       -17.9300
  38   2.0000      -0.642191       -17.4749
  39   2.0000      -0.628782       -17.1100
  40   2.0000      -0.606441       -16.5021
  41   2.0000      -0.567409       -15.4400
  42   2.0000      -0.563276       -15.3275
  43   2.0000      -0.544723       -14.8227
  44   2.0000      -0.529884       -14.4189
  45   2.0000      -0.524122       -14.2621
  46   2.0000      -0.517896       -14.0927
  47   2.0000      -0.514599       -14.0030
  48   2.0000      -0.501795       -13.6545
  49   2.0000      -0.496479       -13.5099
  50   2.0000      -0.493239       -13.4217
  51   2.0000      -0.489074       -13.3084
  52   2.0000      -0.475587       -12.9414
  53   2.0000      -0.465672       -12.6716
  54   2.0000      -0.459806       -12.5120
  55   2.0000      -0.451109       -12.2753
  56   2.0000      -0.440785       -11.9944
  57   2.0000      -0.439192       -11.9510
  58   2.0000      -0.434595       -11.8259
  59   2.0000      -0.428176       -11.6513
  60   2.0000      -0.423945       -11.5361
  61   2.0000      -0.412605       -11.2275
  62   2.0000      -0.409064       -11.1312
  63   2.0000      -0.350242        -9.5306
  64   2.0000      -0.334894        -9.1129
  65   2.0000      -0.326075        -8.8730
  66   2.0000      -0.284503        -7.7417
  67   0.0000       0.019624         0.5340
  68   0.0000       0.064820         1.7639
  69   0.0000       0.093668         2.5488
  70   0.0000       0.122513         3.3338
  71   0.0000       0.124035         3.3752

MULLIKEN ATOMIC CHARGES
-----------------------
   0 S :    0.083626
   1 C :   -0.112893
   2 C :   -0.061199
   3 C :    0.016530
   4 C :   -0.125538
   5 H :    0.017790
   6 C :    0.058847
   7 H :    0.034132
   8 H :    0.017267
   9 C :   -0.109406
  10 H :    0.056818
  11 H :    0.039160
  12 C :   -0.080738
  13 H :    0.036138
  14 H :    0.035080
  15 H :    0.026578
  16 S :    0.090496
  17 C :   -0.076665
  18 C :   -0.049240
  19 C :   -0.027932
  20 C :   -0.142866
  21 H :    0.047689
  22 C :    0.062873
  23 H :    0.024204
  24 H :    0.026921
  25 C :   -0.078346
  26 H :    0.019063
  27 H :   -0.010195
  28 C :    0.038981
  29 H :    0.013327
  30 H :    0.025258
  31 H :    0.020262
  32 H :    0.045184
  33 H :    0.038791
Sum of atomic charges:   -0.0000000

LOEWDIN ATOMIC CHARGES
----------------------
   0 S :    0.364998
   1 C :   -0.179296
   2 C :   -0.059486
   3 C :   -0.060844
   4 C :   -0.170046
   5 H :    0.031092
   6 C :   -0.038397
   7 H :    0.039284
   8 H :    0.025538
   9 C :   -0.045532
  10 H :    0.032446
  11 H :    0.031118
  12 C :   -0.072076
  13 H :    0.018549
  14 H :    0.026243
  15 H :    0.025622
  16 S :    0.362825
  17 C :   -0.155765
  18 C :   -0.072393
  19 C :   -0.052890
  20 C :   -0.176515
  21 H :    0.045380
  22 C :   -0.032251
  23 H :    0.034710
  24 H :    0.027104
  25 C :   -0.049455
  26 H :    0.025630
  27 H :    0.012705
  28 C :   -0.046701
  29 H :    0.024216
  30 H :    0.025383
  31 H :    0.020104
  32 H :    0.022541
  33 H :    0.016160

  Mayer bond orders larger than 0.100000
B(  0-S ,  1-C ) :   1.1286 B(  0-S ,  4-C ) :   1.1214 B(  1-C ,  2-C ) :   1.6173
B(  1-C , 32-H ) :   0.9750 B(  2-C ,  3-C ) :   1.2443 B(  2-C ,  6-C ) :   1.0047
B(  3-C ,  4-C ) :   1.5722 B(  3-C ,  5-H ) :   0.9803 B(  4-C , 20-C ) :   1.0818
B(  6-C ,  7-H ) :   0.9326 B(  6-C ,  8-H ) :   0.9408 B(  6-C ,  9-C ) :   1.0861
B(  9-C , 10-H ) :   0.9559 B(  9-C , 11-H ) :   0.9533 B(  9-C , 12-C ) :   1.0479
B( 12-C , 13-H ) :   0.9773 B( 12-C , 14-H ) :   0.9735 B( 12-C , 15-H ) :   0.9783
B( 16-S , 17-C ) :   1.1297 B( 16-S , 20-C ) :   1.1222 B( 17-C , 18-C ) :   1.6340
B( 17-C , 20-C ) :   0.1010 B( 17-C , 33-H ) :   0.9769 B( 18-C , 19-C ) :   1.2148
B( 18-C , 21-H ) :   0.9740 B( 19-C , 20-C ) :   1.6088 B( 19-C , 22-C ) :   1.0612
B( 22-C , 23-H ) :   0.9243 B( 22-C , 24-H ) :   0.9294 B( 22-C , 25-C ) :   1.0722
B( 25-C , 26-H ) :   0.9375 B( 25-C , 27-H ) :   0.9465 B( 25-C , 28-C ) :   1.0758
B( 28-C , 29-H ) :   0.9665 B( 28-C , 30-H ) :   0.9752 B( 28-C , 31-H ) :   0.9719

Dispersion correction           -0.015144147
FINAL SINGLE POINT ENERGY     -1339.856105849482

DIPOLE MOMENT
-------------
                                X             Y             Z
Electronic contribution:    -28.81643      12.45110      -9.04019
Nuclear contribution   :     29.52247     -12.83987       9.08024
                        -----------------------------------------
Total Dipole Moment    :      0.70605      -0.38876       0.04005
                        -----------------------------------------
Magnitude (a.u.)       :      0.80700
Magnitude (Debye)      :      2.05122

Rotational constants in cm-1:     0.015545     0.011367     0.007024
Rotational constants in MHz :   466.030889   340.786662   210.572806

                             ****ORCA TERMINATED NORMALLY****
TOTAL RUN TIME: 0 days 0 hours 0 minutes 21 seconds 460 msec
