                         Program Version 4.2.1 -  RELEASE  -
|  1> ! wB97X-D3 SP def2-SVP
|  2> %pal
|  3> nprocs 24
|  4> end
|  5>
|  6> * xyz 0 1
|  7> S 	 -69.5933 	 19.4712 	 -114.405
|  8> C 	 -69.0531 	 20.3915 	 -112.998
|  9> C 	 -67.7139 	 20.7015 	 -113.018
| 10> C 	 -67.0761 	 20.0059 	 -114.157
| 11> C 	 -67.9589 	 19.3619 	 -115.006
| 12> H 	 -66.0369 	 19.8189 	 -114.324
| 13> C 	 -66.9582 	 21.3782 	 -111.941
| 14> H 	 -66.2511 	 20.6501 	 -111.626
| 15> H 	 -67.6153 	 21.584 	 -111.051
| 16> C 	 -66.346 	 22.6881 	 -112.382
| 17> H 	 -65.926 	 22.4844 	 -113.367
| 18> H 	 -67.1941 	 23.3714 	 -112.514
| 19> C 	 -65.3145 	 23.3161 	 -111.484
| 20> H 	 -64.3522 	 22.81 	 -111.537
| 21> H 	 -65.2456 	 24.3599 	 -111.847
| 22> H 	 -65.599 	 23.4666 	 -110.425
| 23> S 	 -69.1445 	 17.6878 	 -116.812
| 24> C 	 -68.3612 	 17.3544 	 -118.324
| 25> C 	 -67.049 	 17.7986 	 -118.298
| 26> C 	 -66.6399 	 18.4915 	 -117.095
| 27> C 	 -67.7261 	 18.6063 	 -116.209
| 28> H 	 -66.5232 	 17.7302 	 -119.224
| 29> C 	 -65.2756 	 19.2182 	 -116.958
| 30> H 	 -65.4014 	 20.2212 	 -116.446
| 31> H 	 -64.8183 	 19.3891 	 -117.951
| 32> C 	 -64.219 	 18.3926 	 -116.26
| 33> H 	 -64.0469 	 17.3894 	 -116.579
| 34> H 	 -64.5921 	 18.2934 	 -115.206
| 35> C 	 -62.8957 	 19.1064 	 -116.203
| 36> H 	 -62.5272 	 19.0021 	 -117.227
| 37> H 	 -62.1904 	 18.5715 	 -115.569
| 38> H 	 -62.994 	 20.084 	 -115.818
| 39> H 	 -69.735 	 20.8946 	 -112.317
| 40> H 	 -68.7555 	 16.7544 	 -119.137
| 41> *
| 42>
| 43>                          ****END OF INPUT****

CARTESIAN COORDINATES (ANGSTROEM)
---------------------------------
  S    -69.593300   19.471200  -114.405000
  C    -69.053100   20.391500  -112.998000
  C    -67.713900   20.701500  -113.018000
  C    -67.076100   20.005900  -114.157000
  C    -67.958900   19.361900  -115.006000
  H    -66.036900   19.818900  -114.324000
  C    -66.958200   21.378200  -111.941000
  H    -66.251100   20.650100  -111.626000
  H    -67.615300   21.584000  -111.051000
  C    -66.346000   22.688100  -112.382000
  H    -65.926000   22.484400  -113.367000
  H    -67.194100   23.371400  -112.514000
  C    -65.314500   23.316100  -111.484000
  H    -64.352200   22.810000  -111.537000
  H    -65.245600   24.359900  -111.847000
  H    -65.599000   23.466600  -110.425000
  S    -69.144500   17.687800  -116.812000
  C    -68.361200   17.354400  -118.324000
  C    -67.049000   17.798600  -118.298000
  C    -66.639900   18.491500  -117.095000
  C    -67.726100   18.606300  -116.209000
  H    -66.523200   17.730200  -119.224000
  C    -65.275600   19.218200  -116.958000
  H    -65.401400   20.221200  -116.446000
  H    -64.818300   19.389100  -117.951000
  C    -64.219000   18.392600  -116.260000
  H    -64.046900   17.389400  -116.579000
  H    -64.592100   18.293400  -115.206000
  C    -62.895700   19.106400  -116.203000
  H    -62.527200   19.002100  -117.227000
  H    -62.190400   18.571500  -115.569000
  H    -62.994000   20.084000  -115.818000
  H    -69.735000   20.894600  -112.317000
  H    -68.755500   16.754400  -119.137000

 Total Charge           Charge          ....    0
 Multiplicity           Mult            ....    1
 Number of Electrons    NEL             ....  134
 Basis Dimension        Dim             ....  322

ORBITAL ENERGIES
----------------

  NO   OCC          E(Eh)            E(eV)
   0   2.0000     -88.966344     -2420.8973
   1   2.0000     -88.963996     -2420.8334
   2   2.0000     -10.334337      -281.2116
   3   2.0000     -10.331007      -281.1210
   4   2.0000     -10.317995      -280.7669
   5   2.0000     -10.314366      -280.6682
   6   2.0000     -10.312859      -280.6272
   7   2.0000     -10.304451      -280.3984
   8   2.0000     -10.303749      -280.3793
   9   2.0000     -10.296483      -280.1815
  10   2.0000     -10.295436      -280.1530
  11   2.0000     -10.288803      -279.9726
  12   2.0000     -10.284681      -279.8604
  13   2.0000     -10.283456      -279.8271
  14   2.0000     -10.281610      -279.7768
  15   2.0000     -10.275035      -279.5979
  16   2.0000      -8.080776      -219.8891
  17   2.0000      -8.078797      -219.8352
  18   2.0000      -6.039369      -164.3396
  19   2.0000      -6.037480      -164.2882
  20   2.0000      -6.035343      -164.2300
  21   2.0000      -6.033416      -164.1776
  22   2.0000      -6.031444      -164.1239
  23   2.0000      -6.029238      -164.0639
  24   2.0000      -1.005682       -27.3660
  25   2.0000      -0.979364       -26.6499
  26   2.0000      -0.920937       -25.0600
  27   2.0000      -0.917469       -24.9656
  28   2.0000      -0.873119       -23.7588
  29   2.0000      -0.856788       -23.3144
  30   2.0000      -0.842657       -22.9299
  31   2.0000      -0.816386       -22.2150
  32   2.0000      -0.785359       -21.3707
  33   2.0000      -0.775198       -21.0942
  34   2.0000      -0.708100       -19.2684
  35   2.0000      -0.697113       -18.9694
  36   2.0000      -0.691072       -18.8050
  37   2.0000      -0.665261       -18.1027
  38   2.0000      -0.638380       -17.3712
  39   2.0000      -0.621608       -16.9148
  40   2.0000      -0.597932       -16.2706
  41   2.0000      -0.579277       -15.7629
  42   2.0000      -0.570480       -15.5235
  43   2.0000      -0.560637       -15.2557
  44   2.0000      -0.531205       -14.4548
  45   2.0000      -0.527939       -14.3660
  46   2.0000      -0.521251       -14.1840
  47   2.0000      -0.512983       -13.9590
  48   2.0000      -0.510275       -13.8853
  49   2.0000      -0.502052       -13.6615
  50   2.0000      -0.494618       -13.4592
  51   2.0000      -0.487698       -13.2709
  52   2.0000      -0.469894       -12.7865
  53   2.0000      -0.463485       -12.6121
  54   2.0000      -0.460641       -12.5347
  55   2.0000      -0.450755       -12.2657
  56   2.0000      -0.448104       -12.1935
  57   2.0000      -0.440557       -11.9882
  58   2.0000      -0.433915       -11.8074
  59   2.0000      -0.426012       -11.5924
  60   2.0000      -0.419822       -11.4239
  61   2.0000      -0.411223       -11.1899
  62   2.0000      -0.407618       -11.0919
  63   2.0000      -0.364364        -9.9149
  64   2.0000      -0.335037        -9.1168
  65   2.0000      -0.325131        -8.8473
  66   2.0000      -0.281870        -7.6701
  67   0.0000       0.015749         0.4286
  68   0.0000       0.082621         2.2482
  69   0.0000       0.097417         2.6509
  70   0.0000       0.114237         3.1085
  71   0.0000       0.126259         3.4357

MULLIKEN ATOMIC CHARGES
-----------------------
   0 S :    0.086501
   1 C :   -0.110133
   2 C :   -0.085207
   3 C :   -0.014071
   4 C :   -0.092522
   5 H :   -0.006765
   6 C :    0.075976
   7 H :    0.025486
   8 H :    0.021790
   9 C :   -0.095340
  10 H :    0.026109
  11 H :    0.028122
  12 C :   -0.032572
  13 H :    0.040047
  14 H :    0.034951
  15 H :    0.031470
  16 S :    0.087547
  17 C :   -0.085640
  18 C :   -0.038511
  19 C :   -0.010799
  20 C :   -0.123989
  21 H :    0.013366
  22 C :    0.016699
  23 H :    0.048267
  24 H :    0.017593
  25 C :   -0.093869
  26 H :    0.026804
  27 H :    0.019370
  28 C :   -0.007967
  29 H :    0.030400
  30 H :    0.031313
  31 H :    0.024032
  32 H :    0.049373
  33 H :    0.062171
Sum of atomic charges:   -0.0000000

LOEWDIN ATOMIC CHARGES
----------------------
   0 S :    0.387566
   1 C :   -0.191966
   2 C :   -0.054380
   3 C :   -0.071256
   4 C :   -0.182081
   5 H :    0.021828
   6 C :   -0.035381
   7 H :    0.028937
   8 H :    0.033713
   9 C :   -0.044749
  10 H :    0.024150
  11 H :    0.027875
  12 C :   -0.069690
  13 H :    0.026102
  14 H :    0.034276
  15 H :    0.027233
  16 S :    0.387999
  17 C :   -0.189285
  18 C :   -0.070898
  19 C :   -0.049108
  20 C :   -0.176685
  21 H :    0.027460
  22 C :   -0.033541
  23 H :    0.038184
  24 H :    0.029626
  25 C :   -0.046728
  26 H :    0.022572
  27 H :    0.019241
  28 C :   -0.057169
  29 H :    0.027444
  30 H :    0.027863
  31 H :    0.018337
  32 H :    0.028387
  33 H :    0.034126

  Mayer bond orders larger than 0.100000
B(  0-S ,  1-C ) :   1.1142 B(  0-S ,  4-C ) :   1.1267 B(  1-C ,  2-C ) :   1.6636
B(  1-C , 32-H ) :   0.9599 B(  2-C ,  3-C ) :   1.1790 B(  2-C ,  6-C ) :   1.0364
B(  3-C ,  4-C ) :   1.6065 B(  3-C ,  5-H ) :   0.9834 B(  4-C , 20-C ) :   1.1060
B(  6-C ,  7-H ) :   0.9362 B(  6-C ,  8-H ) :   0.9386 B(  6-C ,  9-C ) :   1.0547
B(  9-C , 10-H ) :   0.9587 B(  9-C , 11-H ) :   0.9534 B(  9-C , 12-C ) :   1.0884
B( 12-C , 13-H ) :   0.9738 B( 12-C , 14-H ) :   0.9714 B( 12-C , 15-H ) :   0.9711
B( 16-S , 17-C ) :   1.1411 B( 16-S , 20-C ) :   1.1277 B( 17-C , 18-C ) :   1.6300
B( 17-C , 33-H ) :   0.9659 B( 18-C , 19-C ) :   1.2350 B( 18-C , 21-H ) :   0.9900
B( 19-C , 20-C ) :   1.5757 B( 19-C , 22-C ) :   1.0323 B( 22-C , 23-H ) :   0.9346
B( 22-C , 24-H ) :   0.9376 B( 22-C , 25-C ) :   1.0634 B( 25-C , 26-H ) :   0.9529
B( 25-C , 27-H ) :   0.9482 B( 25-C , 28-C ) :   1.0912 B( 28-C , 29-H ) :   0.9732
B( 28-C , 30-H ) :   0.9716 B( 28-C , 31-H ) :   0.9708

Dispersion correction           -0.013608474
FINAL SINGLE POINT ENERGY     -1339.880634174836

DIPOLE MOMENT
-------------
                                X             Y             Z
Electronic contribution:    -28.09990     -14.51156      -9.72798
Nuclear contribution   :     28.77767      14.76181       9.74601
                        -----------------------------------------
Total Dipole Moment    :      0.67777       0.25026       0.01803
                        -----------------------------------------
Magnitude (a.u.)       :      0.72272
Magnitude (Debye)      :      1.83701

Rotational constants in cm-1:     0.017147     0.009300     0.006249
Rotational constants in MHz :   514.050406   278.817587   187.353270

                             ****ORCA TERMINATED NORMALLY****
TOTAL RUN TIME: 0 days 0 hours 0 minutes 20 seconds 321 msec
