                         Program Version 4.2.1 -  RELEASE  -
|  1> ! wB97X-D3 SP def2-SVP
|  2> %pal
|  3> nprocs 24
|  4> end
|  5>
|  6> * xyz 0 1
|  7> S 	 -86.9094 	 1.44363 	 -118.743
|  8> C 	 -87.0813 	 -0.237267 	 -118.46
|  9> C 	 -88.4003 	 -0.68791 	 -118.191
| 10> C 	 -89.2771 	 0.453455 	 -118.472
| 11> C 	 -88.6216 	 1.66367 	 -118.694
| 12> H 	 -90.3606 	 0.407258 	 -118.722
| 13> C 	 -88.9546 	 -2.16919 	 -118.187
| 14> H 	 -88.0263 	 -2.7655 	 -118.101
| 15> H 	 -89.4895 	 -2.44416 	 -119.132
| 16> C 	 -89.7871 	 -2.55861 	 -116.932
| 17> H 	 -90.4038 	 -3.50845 	 -116.922
| 18> H 	 -89.1676 	 -2.52025 	 -116.053
| 19> C 	 -90.8991 	 -1.50611 	 -116.584
| 20> H 	 -91.676 	 -1.53024 	 -117.391
| 21> H 	 -91.4391 	 -1.78795 	 -115.693
| 22> H 	 -90.5976 	 -0.437031 	 -116.467
| 23> S 	 -88.4481 	 4.03969 	 -120.135
| 24> C 	 -89.8573 	 5.00298 	 -120.327
| 25> C 	 -90.9181 	 4.46748 	 -119.662
| 26> C 	 -90.6586 	 3.29679 	 -118.936
| 27> C 	 -89.3344 	 2.86221 	 -119.177
| 28> H 	 -91.85 	 4.86182 	 -119.635
| 29> C 	 -91.8586 	 2.55536 	 -118.328
| 30> H 	 -92.4702 	 3.32569 	 -117.868
| 31> H 	 -91.4309 	 1.97667 	 -117.51
| 32> C 	 -92.6465 	 1.74664 	 -119.343
| 33> H 	 -92.0055 	 1.02405 	 -119.85
| 34> H 	 -92.9909 	 2.4271 	 -120.108
| 35> C 	 -93.7922 	 0.973103 	 -118.658
| 36> H 	 -94.5335 	 1.64475 	 -118.407
| 37> H 	 -93.4504 	 0.399905 	 -117.78
| 38> H 	 -94.1913 	 0.304275 	 -119.365
| 39> H 	 -86.2674 	 -0.886235 	 -118.345
| 40> H 	 -89.6866 	 5.99843 	 -120.74
| 41> *
| 42>
| 43>                          ****END OF INPUT****

CARTESIAN COORDINATES (ANGSTROEM)
---------------------------------
  S    -86.909400    1.443630  -118.743000
  C    -87.081300   -0.237267  -118.460000
  C    -88.400300   -0.687910  -118.191000
  C    -89.277100    0.453455  -118.472000
  C    -88.621600    1.663670  -118.694000
  H    -90.360600    0.407258  -118.722000
  C    -88.954600   -2.169190  -118.187000
  H    -88.026300   -2.765500  -118.101000
  H    -89.489500   -2.444160  -119.132000
  C    -89.787100   -2.558610  -116.932000
  H    -90.403800   -3.508450  -116.922000
  H    -89.167600   -2.520250  -116.053000
  C    -90.899100   -1.506110  -116.584000
  H    -91.676000   -1.530240  -117.391000
  H    -91.439100   -1.787950  -115.693000
  H    -90.597600   -0.437031  -116.467000
  S    -88.448100    4.039690  -120.135000
  C    -89.857300    5.002980  -120.327000
  C    -90.918100    4.467480  -119.662000
  C    -90.658600    3.296790  -118.936000
  C    -89.334400    2.862210  -119.177000
  H    -91.850000    4.861820  -119.635000
  C    -91.858600    2.555360  -118.328000
  H    -92.470200    3.325690  -117.868000
  H    -91.430900    1.976670  -117.510000
  C    -92.646500    1.746640  -119.343000
  H    -92.005500    1.024050  -119.850000
  H    -92.990900    2.427100  -120.108000
  C    -93.792200    0.973103  -118.658000
  H    -94.533500    1.644750  -118.407000
  H    -93.450400    0.399905  -117.780000
  H    -94.191300    0.304275  -119.365000
  H    -86.267400   -0.886235  -118.345000
  H    -89.686600    5.998430  -120.740000

 Total Charge           Charge          ....    0
 Multiplicity           Mult            ....    1
 Number of Electrons    NEL             ....  134
 Basis Dimension        Dim             ....  322

ORBITAL ENERGIES
----------------

  NO   OCC          E(Eh)            E(eV)
   0   2.0000     -88.972856     -2421.0745
   1   2.0000     -88.963143     -2420.8102
   2   2.0000     -10.330213      -281.0994
   3   2.0000     -10.327317      -281.0206
   4   2.0000     -10.317328      -280.7488
   5   2.0000     -10.314297      -280.6663
   6   2.0000     -10.312271      -280.6112
   7   2.0000     -10.310190      -280.5545
   8   2.0000     -10.298196      -280.2282
   9   2.0000     -10.297181      -280.2005
  10   2.0000     -10.295422      -280.1527
  11   2.0000     -10.291949      -280.0582
  12   2.0000     -10.288044      -279.9519
  13   2.0000     -10.280770      -279.7540
  14   2.0000     -10.279116      -279.7090
  15   2.0000     -10.271768      -279.5090
  16   2.0000      -8.088281      -220.0933
  17   2.0000      -8.078761      -219.8343
  18   2.0000      -6.046762      -164.5408
  19   2.0000      -6.042725      -164.4309
  20   2.0000      -6.039014      -164.3299
  21   2.0000      -6.037138      -164.2789
  22   2.0000      -6.033086      -164.1686
  23   2.0000      -6.029704      -164.0766
  24   2.0000      -1.008292       -27.4370
  25   2.0000      -0.987062       -26.8593
  26   2.0000      -0.915114       -24.9015
  27   2.0000      -0.902713       -24.5641
  28   2.0000      -0.866953       -23.5910
  29   2.0000      -0.857307       -23.3285
  30   2.0000      -0.842353       -22.9216
  31   2.0000      -0.809943       -22.0397
  32   2.0000      -0.785722       -21.3806
  33   2.0000      -0.773879       -21.0583
  34   2.0000      -0.707377       -19.2487
  35   2.0000      -0.695782       -18.9332
  36   2.0000      -0.690606       -18.7923
  37   2.0000      -0.670166       -18.2362
  38   2.0000      -0.639939       -17.4136
  39   2.0000      -0.614924       -16.7329
  40   2.0000      -0.599276       -16.3071
  41   2.0000      -0.572393       -15.5756
  42   2.0000      -0.570632       -15.5277
  43   2.0000      -0.547846       -14.9077
  44   2.0000      -0.535867       -14.5817
  45   2.0000      -0.530035       -14.4230
  46   2.0000      -0.518489       -14.1088
  47   2.0000      -0.510574       -13.8934
  48   2.0000      -0.500722       -13.6253
  49   2.0000      -0.495446       -13.4818
  50   2.0000      -0.488409       -13.2903
  51   2.0000      -0.484952       -13.1962
  52   2.0000      -0.469410       -12.7733
  53   2.0000      -0.465414       -12.6646
  54   2.0000      -0.457202       -12.4411
  55   2.0000      -0.453349       -12.3363
  56   2.0000      -0.445331       -12.1181
  57   2.0000      -0.436608       -11.8807
  58   2.0000      -0.434217       -11.8157
  59   2.0000      -0.428359       -11.6562
  60   2.0000      -0.424366       -11.5476
  61   2.0000      -0.418557       -11.3895
  62   2.0000      -0.410187       -11.1617
  63   2.0000      -0.358563        -9.7570
  64   2.0000      -0.335338        -9.1250
  65   2.0000      -0.330264        -8.9869
  66   2.0000      -0.280581        -7.6350
  67   0.0000       0.022635         0.6159
  68   0.0000       0.080687         2.1956
  69   0.0000       0.102668         2.7938
  70   0.0000       0.109451         2.9783
  71   0.0000       0.130390         3.5481

MULLIKEN ATOMIC CHARGES
-----------------------
   0 S :    0.126291
   1 C :   -0.102097
   2 C :   -0.077666
   3 C :   -0.049535
   4 C :   -0.094196
   5 H :    0.018630
   6 C :    0.039497
   7 H :    0.030319
   8 H :    0.063054
   9 C :   -0.063126
  10 H :    0.048959
  11 H :    0.029304
  12 C :   -0.122599
  13 H :    0.026384
  14 H :    0.029046
  15 H :    0.060060
  16 S :    0.091529
  17 C :   -0.088475
  18 C :    0.021254
  19 C :   -0.064957
  20 C :   -0.156555
  21 H :   -0.031171
  22 C :    0.049454
  23 H :    0.019918
  24 H :    0.025646
  25 C :   -0.072801
  26 H :    0.033199
  27 H :    0.021747
  28 C :    0.011619
  29 H :    0.016016
  30 H :    0.037979
  31 H :    0.022368
  32 H :    0.033763
  33 H :    0.067141
Sum of atomic charges:    0.0000000

LOEWDIN ATOMIC CHARGES
----------------------
   0 S :    0.431844
   1 C :   -0.192583
   2 C :   -0.062280
   3 C :   -0.065827
   4 C :   -0.209280
   5 H :    0.034916
   6 C :   -0.030663
   7 H :    0.034055
   8 H :    0.040491
   9 C :   -0.044672
  10 H :    0.036825
  11 H :    0.022746
  12 C :   -0.080655
  13 H :    0.019454
  14 H :    0.021198
  15 H :    0.026829
  16 S :    0.408879
  17 C :   -0.194634
  18 C :   -0.062401
  19 C :   -0.057836
  20 C :   -0.188753
  21 H :    0.012356
  22 C :   -0.031568
  23 H :    0.029765
  24 H :    0.027440
  25 C :   -0.034184
  26 H :    0.022018
  27 H :    0.024904
  28 C :   -0.051385
  29 H :    0.015761
  30 H :    0.030214
  31 H :    0.021914
  32 H :    0.014816
  33 H :    0.030294

  Mayer bond orders larger than 0.100000
B(  0-S ,  1-C ) :   1.1691 B(  0-S ,  4-C ) :   1.1359 B(  1-C ,  2-C ) :   1.6051
B(  1-C , 32-H ) :   0.9659 B(  2-C ,  3-C ) :   1.2263 B(  2-C ,  6-C ) :   1.0139
B(  3-C ,  4-C ) :   1.5813 B(  3-C ,  5-H ) :   0.9696 B(  4-C , 20-C ) :   1.0689
B(  6-C ,  7-H ) :   0.9439 B(  6-C ,  8-H ) :   0.9532 B(  6-C ,  9-C ) :   1.0582
B(  9-C , 10-H ) :   0.9610 B(  9-C , 11-H ) :   0.9555 B(  9-C , 12-C ) :   1.0784
B( 12-C , 13-H ) :   0.9720 B( 12-C , 14-H ) :   0.9732 B( 12-C , 15-H ) :   0.9650
B( 16-S , 17-C ) :   1.1634 B( 16-S , 20-C ) :   1.1561 B( 17-C , 18-C ) :   1.5480
B( 17-C , 33-H ) :   0.9701 B( 18-C , 19-C ) :   1.2892 B( 18-C , 21-H ) :   1.0072
B( 19-C , 20-C ) :   1.5481 B( 19-C , 22-C ) :   1.0483 B( 22-C , 23-H ) :   0.9274
B( 22-C , 24-H ) :   0.9284 B( 22-C , 25-C ) :   1.0646 B( 25-C , 26-H ) :   0.9522
B( 25-C , 27-H ) :   0.9471 B( 25-C , 28-C ) :   1.0784 B( 28-C , 29-H ) :   0.9730
B( 28-C , 30-H ) :   0.9724 B( 28-C , 31-H ) :   0.9727

Dispersion correction           -0.015566062
FINAL SINGLE POINT ENERGY     -1339.865224536768

DIPOLE MOMENT
-------------
                                X             Y             Z
Electronic contribution:     25.33148      18.76135      -9.12349
Nuclear contribution   :    -25.89366     -19.12801       9.14302
                        -----------------------------------------
Total Dipole Moment    :     -0.56217      -0.36666       0.01953
                        -----------------------------------------
Magnitude (a.u.)       :      0.67146
Magnitude (Debye)      :      1.70671

Rotational constants in cm-1:     0.016860     0.011140     0.007003
Rotational constants in MHz :   505.452443   333.971386   209.939947

                             ****ORCA TERMINATED NORMALLY****
TOTAL RUN TIME: 0 days 0 hours 0 minutes 23 seconds 112 msec
