                         Program Version 4.2.1 -  RELEASE  -
|  1> ! wB97X-D3 SP def2-SVP
|  2> %pal
|  3> nprocs 24
|  4> end
|  5>
|  6> * xyz 0 1
|  7> S 	 -57.7398 	 -2.66933 	 -31.1013
|  8> C 	 -58.3744 	 -1.22787 	 -31.8192
|  9> C 	 -58.4325 	 -0.173198 	 -30.9061
| 10> C 	 -57.9975 	 -0.489883 	 -29.5878
| 11> C 	 -57.5141 	 -1.82409 	 -29.4796
| 12> H 	 -58.0634 	 0.0997442 	 -28.7349
| 13> C 	 -58.6656 	 1.22043 	 -31.2429
| 14> H 	 -58.3674 	 1.27573 	 -32.2927
| 15> H 	 -57.9892 	 1.88706 	 -30.6707
| 16> C 	 -60.0202 	 1.81992 	 -31.2536
| 17> H 	 -60.6221 	 1.28838 	 -31.9364
| 18> H 	 -60.448 	 1.76797 	 -30.2787
| 19> C 	 -60.0262 	 3.23147 	 -31.8605
| 20> H 	 -59.5514 	 3.24202 	 -32.8421
| 21> H 	 -60.9813 	 3.65826 	 -32.0381
| 22> H 	 -59.4822 	 3.94529 	 -31.1984
| 23> S 	 -57.9612 	 -3.73477 	 -27.6108
| 24> C 	 -56.7303 	 -4.12607 	 -26.456
| 25> C 	 -55.6686 	 -3.19142 	 -26.5022
| 26> C 	 -55.7978 	 -2.32029 	 -27.622
| 27> C 	 -56.9389 	 -2.52074 	 -28.3464
| 28> H 	 -54.7164 	 -3.31519 	 -25.9727
| 29> C 	 -54.7813 	 -1.30945 	 -27.9951
| 30> H 	 -55.005 	 -0.983092 	 -28.9722
| 31> H 	 -53.8469 	 -1.82046 	 -27.913
| 32> C 	 -55.008 	 -0.0999911 	 -27.0826
| 33> H 	 -54.8476 	 -0.3808 	 -26.0361
| 34> H 	 -56.0164 	 0.215671 	 -27.2083
| 35> C 	 -54.07 	 1.12453 	 -27.5274
| 36> H 	 -54.1456 	 1.27534 	 -28.5974
| 37> H 	 -52.9411 	 0.911042 	 -27.3452
| 38> H 	 -54.3451 	 1.97071 	 -26.8942
| 39> H 	 -58.7825 	 -1.22911 	 -32.8013
| 40> H 	 -56.8056 	 -4.97673 	 -25.7408
| 41> *
| 42>
| 43>                          ****END OF INPUT****

CARTESIAN COORDINATES (ANGSTROEM)
---------------------------------
  S    -57.739800   -2.669330  -31.101300
  C    -58.374400   -1.227870  -31.819200
  C    -58.432500   -0.173198  -30.906100
  C    -57.997500   -0.489883  -29.587800
  C    -57.514100   -1.824090  -29.479600
  H    -58.063400    0.099744  -28.734900
  C    -58.665600    1.220430  -31.242900
  H    -58.367400    1.275730  -32.292700
  H    -57.989200    1.887060  -30.670700
  C    -60.020200    1.819920  -31.253600
  H    -60.622100    1.288380  -31.936400
  H    -60.448000    1.767970  -30.278700
  C    -60.026200    3.231470  -31.860500
  H    -59.551400    3.242020  -32.842100
  H    -60.981300    3.658260  -32.038100
  H    -59.482200    3.945290  -31.198400
  S    -57.961200   -3.734770  -27.610800
  C    -56.730300   -4.126070  -26.456000
  C    -55.668600   -3.191420  -26.502200
  C    -55.797800   -2.320290  -27.622000
  C    -56.938900   -2.520740  -28.346400
  H    -54.716400   -3.315190  -25.972700
  C    -54.781300   -1.309450  -27.995100
  H    -55.005000   -0.983092  -28.972200
  H    -53.846900   -1.820460  -27.913000
  C    -55.008000   -0.099991  -27.082600
  H    -54.847600   -0.380800  -26.036100
  H    -56.016400    0.215671  -27.208300
  C    -54.070000    1.124530  -27.527400
  H    -54.145600    1.275340  -28.597400
  H    -52.941100    0.911042  -27.345200
  H    -54.345100    1.970710  -26.894200
  H    -58.782500   -1.229110  -32.801300
  H    -56.805600   -4.976730  -25.740800

 Total Charge           Charge          ....    0
 Multiplicity           Mult            ....    1
 Number of Electrons    NEL             ....  134
 Basis Dimension        Dim             ....  322

ORBITAL ENERGIES
----------------

  NO   OCC          E(Eh)            E(eV)
   0   2.0000     -88.965706     -2420.8799
   1   2.0000     -88.963195     -2420.8116
   2   2.0000     -10.337264      -281.2912
   3   2.0000     -10.325132      -280.9611
   4   2.0000     -10.317531      -280.7543
   5   2.0000     -10.315547      -280.7003
   6   2.0000     -10.298682      -280.2414
   7   2.0000     -10.297560      -280.2108
   8   2.0000     -10.297391      -280.2062
   9   2.0000     -10.296486      -280.1816
  10   2.0000     -10.288436      -279.9626
  11   2.0000     -10.287169      -279.9281
  12   2.0000     -10.282683      -279.8060
  13   2.0000     -10.279610      -279.7224
  14   2.0000     -10.277937      -279.6769
  15   2.0000     -10.276670      -279.6424
  16   2.0000      -8.079467      -219.8535
  17   2.0000      -8.078485      -219.8268
  18   2.0000      -6.037942      -164.3007
  19   2.0000      -6.036862      -164.2714
  20   2.0000      -6.034004      -164.1936
  21   2.0000      -6.032864      -164.1626
  22   2.0000      -6.030430      -164.0963
  23   2.0000      -6.029391      -164.0681
  24   2.0000      -1.004159       -27.3246
  25   2.0000      -0.981259       -26.7014
  26   2.0000      -0.920537       -25.0491
  27   2.0000      -0.913670       -24.8622
  28   2.0000      -0.868026       -23.6202
  29   2.0000      -0.853565       -23.2267
  30   2.0000      -0.844577       -22.9821
  31   2.0000      -0.812117       -22.0988
  32   2.0000      -0.779170       -21.2023
  33   2.0000      -0.765939       -20.8422
  34   2.0000      -0.705551       -19.1990
  35   2.0000      -0.703195       -19.1349
  36   2.0000      -0.697647       -18.9839
  37   2.0000      -0.667258       -18.1570
  38   2.0000      -0.649693       -17.6790
  39   2.0000      -0.619499       -16.8574
  40   2.0000      -0.594774       -16.1846
  41   2.0000      -0.581288       -15.8177
  42   2.0000      -0.568900       -15.4805
  43   2.0000      -0.558258       -15.1910
  44   2.0000      -0.527652       -14.3581
  45   2.0000      -0.522315       -14.2129
  46   2.0000      -0.518211       -14.1012
  47   2.0000      -0.511664       -13.9231
  48   2.0000      -0.509253       -13.8575
  49   2.0000      -0.503904       -13.7119
  50   2.0000      -0.492529       -13.4024
  51   2.0000      -0.477361       -12.9897
  52   2.0000      -0.471918       -12.8416
  53   2.0000      -0.461855       -12.5677
  54   2.0000      -0.459761       -12.5107
  55   2.0000      -0.447604       -12.1799
  56   2.0000      -0.443310       -12.0631
  57   2.0000      -0.438871       -11.9423
  58   2.0000      -0.431648       -11.7457
  59   2.0000      -0.430316       -11.7095
  60   2.0000      -0.425129       -11.5683
  61   2.0000      -0.417225       -11.3533
  62   2.0000      -0.410387       -11.1672
  63   2.0000      -0.339676        -9.2431
  64   2.0000      -0.328087        -8.9277
  65   2.0000      -0.321158        -8.7391
  66   2.0000      -0.298549        -8.1239
  67   0.0000       0.029936         0.8146
  68   0.0000       0.057372         1.5612
  69   0.0000       0.108156         2.9431
  70   0.0000       0.116993         3.1835
  71   0.0000       0.128094         3.4856

MULLIKEN ATOMIC CHARGES
-----------------------
   0 S :    0.104050
   1 C :   -0.102050
   2 C :   -0.051442
   3 C :    0.067985
   4 C :   -0.184233
   5 H :    0.000035
   6 C :    0.015334
   7 H :    0.009722
   8 H :    0.026569
   9 C :   -0.005094
  10 H :    0.007425
  11 H :    0.019173
  12 C :   -0.053218
  13 H :    0.023856
  14 H :    0.027040
  15 H :    0.028973
  16 S :    0.116695
  17 C :   -0.107673
  18 C :   -0.037958
  19 C :   -0.069430
  20 C :   -0.181158
  21 H :    0.030412
  22 C :    0.142501
  23 H :    0.009990
  24 H :    0.023502
  25 C :   -0.092667
  26 H :    0.033587
  27 H :    0.019064
  28 C :   -0.059506
  29 H :    0.036258
  30 H :    0.038126
  31 H :    0.043282
  32 H :    0.045018
  33 H :    0.075833
Sum of atomic charges:    0.0000000

LOEWDIN ATOMIC CHARGES
----------------------
   0 S :    0.383116
   1 C :   -0.192726
   2 C :   -0.068102
   3 C :   -0.041346
   4 C :   -0.172228
   5 H :    0.022283
   6 C :   -0.042107
   7 H :    0.033444
   8 H :    0.032757
   9 C :   -0.033444
  10 H :    0.018631
  11 H :    0.018524
  12 C :   -0.061609
  13 H :    0.025016
  14 H :    0.020901
  15 H :    0.025579
  16 S :    0.417803
  17 C :   -0.187281
  18 C :   -0.081470
  19 C :   -0.047672
  20 C :   -0.221143
  21 H :    0.034491
  22 C :   -0.020857
  23 H :    0.024706
  24 H :    0.028598
  25 C :   -0.027081
  26 H :    0.023568
  27 H :    0.018136
  28 C :   -0.071694
  29 H :    0.022431
  30 H :    0.032342
  31 H :    0.025389
  32 H :    0.024248
  33 H :    0.036794

  Mayer bond orders larger than 0.100000
B(  0-S ,  1-C ) :   1.1532 B(  0-S ,  4-C ) :   1.1397 B(  1-C ,  2-C ) :   1.5867
B(  1-C ,  4-C ) :   0.1079 B(  1-C , 32-H ) :   0.9689 B(  2-C ,  3-C ) :   1.2395
B(  2-C ,  6-C ) :   1.0282 B(  3-C ,  4-C ) :   1.5557 B(  3-C ,  5-H ) :   1.0049
B(  4-C , 20-C ) :   1.0290 B(  6-C ,  7-H ) :   0.9343 B(  6-C ,  8-H ) :   0.9438
B(  6-C ,  9-C ) :   1.0769 B(  9-C , 10-H ) :   0.9488 B(  9-C , 11-H ) :   0.9512
B(  9-C , 12-C ) :   1.0836 B( 12-C , 13-H ) :   0.9723 B( 12-C , 14-H ) :   0.9752
B( 12-C , 15-H ) :   0.9750 B( 16-S , 17-C ) :   1.1819 B( 16-S , 20-C ) :   1.1403
B( 17-C , 18-C ) :   1.5752 B( 17-C , 20-C ) :   0.1026 B( 17-C , 33-H ) :   0.9640
B( 18-C , 19-C ) :   1.2522 B( 18-C , 21-H ) :   0.9805 B( 19-C , 20-C ) :   1.6092
B( 19-C , 22-C ) :   1.0526 B( 22-C , 23-H ) :   0.9191 B( 22-C , 24-H ) :   0.9295
B( 22-C , 25-C ) :   1.0650 B( 25-C , 26-H ) :   0.9597 B( 25-C , 27-H ) :   0.9536
B( 25-C , 28-C ) :   1.0717 B( 28-C , 29-H ) :   0.9754 B( 28-C , 30-H ) :   0.9768
B( 28-C , 31-H ) :   0.9769

Dispersion correction           -0.014156365
FINAL SINGLE POINT ENERGY     -1339.868651412407

DIPOLE MOMENT
-------------
                                X             Y             Z
Electronic contribution:     -4.37128     -29.16040       1.90967
Nuclear contribution   :      4.51591      29.65156      -1.85195
                        -----------------------------------------
Total Dipole Moment    :      0.14462       0.49116       0.05772
                        -----------------------------------------
Magnitude (a.u.)       :      0.51525
Magnitude (Debye)      :      1.30967

Rotational constants in cm-1:     0.018554     0.008289     0.006534
Rotational constants in MHz :   556.244457   248.493947   195.897537

                             ****ORCA TERMINATED NORMALLY****
TOTAL RUN TIME: 0 days 0 hours 0 minutes 21 seconds 507 msec
