                         Program Version 4.2.1 -  RELEASE  -
|  1> ! wB97X-D3 SP def2-SVP
|  2> %pal
|  3> nprocs 24
|  4> end
|  5>
|  6> * xyz 0 1
|  7> S 	 -122.521 	 30.7399 	 -115.301
|  8> C 	 -123.484 	 30.3667 	 -116.658
|  9> C 	 -122.766 	 29.853 	 -117.686
| 10> C 	 -121.372 	 29.5963 	 -117.362
| 11> C 	 -121.115 	 29.9186 	 -115.995
| 12> H 	 -120.595 	 28.9983 	 -117.905
| 13> C 	 -123.259 	 29.3802 	 -119.067
| 14> H 	 -122.568 	 28.5607 	 -119.342
| 15> H 	 -123.277 	 30.1841 	 -119.858
| 16> C 	 -124.784 	 28.8439 	 -119.078
| 17> H 	 -125.408 	 29.6015 	 -118.581
| 18> H 	 -125.074 	 28.7291 	 -120.148
| 19> C 	 -124.944 	 27.5604 	 -118.309
| 20> H 	 -124.028 	 26.916 	 -118.333
| 21> H 	 -125.124 	 27.7953 	 -117.257
| 22> H 	 -125.786 	 26.9075 	 -118.626
| 23> S 	 -119.368 	 31.4472 	 -114.621
| 24> C 	 -117.859 	 30.7043 	 -113.993
| 25> C 	 -117.782 	 29.4193 	 -114.387
| 26> C 	 -118.845 	 28.9222 	 -115.194
| 27> C 	 -119.832 	 29.9118 	 -115.339
| 28> H 	 -116.854 	 28.9078 	 -114.185
| 29> C 	 -118.859 	 27.5591 	 -115.915
| 30> H 	 -118.554 	 27.8601 	 -116.96
| 31> H 	 -119.95 	 27.2917 	 -115.979
| 32> C 	 -118.015 	 26.4241 	 -115.368
| 33> H 	 -118.255 	 26.0628 	 -114.34
| 34> H 	 -117.096 	 26.6665 	 -115.19
| 35> C 	 -118.136 	 25.1774 	 -116.222
| 36> H 	 -117.575 	 24.3492 	 -115.838
| 37> H 	 -117.72 	 25.333 	 -117.196
| 38> H 	 -119.206 	 24.9115 	 -116.375
| 39> H 	 -124.529 	 30.6213 	 -116.76
| 40> H 	 -117.089 	 31.1987 	 -113.432
| 41> *
| 42>
| 43>                          ****END OF INPUT****

CARTESIAN COORDINATES (ANGSTROEM)
---------------------------------
  S    -122.521000   30.739900  -115.301000
  C    -123.484000   30.366700  -116.658000
  C    -122.766000   29.853000  -117.686000
  C    -121.372000   29.596300  -117.362000
  C    -121.115000   29.918600  -115.995000
  H    -120.595000   28.998300  -117.905000
  C    -123.259000   29.380200  -119.067000
  H    -122.568000   28.560700  -119.342000
  H    -123.277000   30.184100  -119.858000
  C    -124.784000   28.843900  -119.078000
  H    -125.408000   29.601500  -118.581000
  H    -125.074000   28.729100  -120.148000
  C    -124.944000   27.560400  -118.309000
  H    -124.028000   26.916000  -118.333000
  H    -125.124000   27.795300  -117.257000
  H    -125.786000   26.907500  -118.626000
  S    -119.368000   31.447200  -114.621000
  C    -117.859000   30.704300  -113.993000
  C    -117.782000   29.419300  -114.387000
  C    -118.845000   28.922200  -115.194000
  C    -119.832000   29.911800  -115.339000
  H    -116.854000   28.907800  -114.185000
  C    -118.859000   27.559100  -115.915000
  H    -118.554000   27.860100  -116.960000
  H    -119.950000   27.291700  -115.979000
  C    -118.015000   26.424100  -115.368000
  H    -118.255000   26.062800  -114.340000
  H    -117.096000   26.666500  -115.190000
  C    -118.136000   25.177400  -116.222000
  H    -117.575000   24.349200  -115.838000
  H    -117.720000   25.333000  -117.196000
  H    -119.206000   24.911500  -116.375000
  H    -124.529000   30.621300  -116.760000
  H    -117.089000   31.198700  -113.432000

 Total Charge           Charge          ....    0
 Multiplicity           Mult            ....    1
 Number of Electrons    NEL             ....  134
 Basis Dimension        Dim             ....  322

ORBITAL ENERGIES
----------------

  NO   OCC          E(Eh)            E(eV)
   0   2.0000     -88.968175     -2420.9471
   1   2.0000     -88.963338     -2420.8155
   2   2.0000     -10.332832      -281.1707
   3   2.0000     -10.326197      -280.9901
   4   2.0000     -10.314077      -280.6603
   5   2.0000     -10.310258      -280.5564
   6   2.0000     -10.306365      -280.4505
   7   2.0000     -10.304957      -280.4121
   8   2.0000     -10.304198      -280.3915
   9   2.0000     -10.303111      -280.3619
  10   2.0000     -10.303047      -280.3602
  11   2.0000     -10.294218      -280.1199
  12   2.0000     -10.289283      -279.9856
  13   2.0000     -10.278542      -279.6933
  14   2.0000     -10.277920      -279.6764
  15   2.0000     -10.276352      -279.6338
  16   2.0000      -8.083243      -219.9562
  17   2.0000      -8.077416      -219.7977
  18   2.0000      -6.041731      -164.4039
  19   2.0000      -6.037712      -164.2945
  20   2.0000      -6.036007      -164.2481
  21   2.0000      -6.033978      -164.1929
  22   2.0000      -6.032101      -164.1418
  23   2.0000      -6.028026      -164.0309
  24   2.0000      -1.005739       -27.3675
  25   2.0000      -0.982525       -26.7359
  26   2.0000      -0.913892       -24.8683
  27   2.0000      -0.903256       -24.5788
  28   2.0000      -0.872157       -23.7326
  29   2.0000      -0.853673       -23.2296
  30   2.0000      -0.845384       -23.0041
  31   2.0000      -0.812254       -22.1026
  32   2.0000      -0.777325       -21.1521
  33   2.0000      -0.770100       -20.9555
  34   2.0000      -0.718016       -19.5382
  35   2.0000      -0.706953       -19.2372
  36   2.0000      -0.693702       -18.8766
  37   2.0000      -0.656868       -17.8743
  38   2.0000      -0.637859       -17.3570
  39   2.0000      -0.604599       -16.4520
  40   2.0000      -0.594460       -16.1761
  41   2.0000      -0.574344       -15.6287
  42   2.0000      -0.566683       -15.4202
  43   2.0000      -0.545484       -14.8434
  44   2.0000      -0.539992       -14.6939
  45   2.0000      -0.534466       -14.5436
  46   2.0000      -0.513702       -13.9785
  47   2.0000      -0.510811       -13.8999
  48   2.0000      -0.502309       -13.6685
  49   2.0000      -0.500068       -13.6076
  50   2.0000      -0.488489       -13.2925
  51   2.0000      -0.477569       -12.9953
  52   2.0000      -0.475525       -12.9397
  53   2.0000      -0.466833       -12.7032
  54   2.0000      -0.458199       -12.4682
  55   2.0000      -0.448906       -12.2154
  56   2.0000      -0.446356       -12.1460
  57   2.0000      -0.440775       -11.9941
  58   2.0000      -0.436678       -11.8826
  59   2.0000      -0.423816       -11.5326
  60   2.0000      -0.418233       -11.3807
  61   2.0000      -0.415586       -11.3087
  62   2.0000      -0.408791       -11.1238
  63   2.0000      -0.352102        -9.5812
  64   2.0000      -0.329313        -8.9611
  65   2.0000      -0.328436        -8.9372
  66   2.0000      -0.288289        -7.8447
  67   0.0000       0.026188         0.7126
  68   0.0000       0.068763         1.8711
  69   0.0000       0.108078         2.9410
  70   0.0000       0.122490         3.3331
  71   0.0000       0.131439         3.5766

MULLIKEN ATOMIC CHARGES
-----------------------
   0 S :    0.120337
   1 C :   -0.112478
   2 C :   -0.072508
   3 C :    0.003389
   4 C :   -0.173624
   5 H :    0.040114
   6 C :    0.028307
   7 H :    0.035279
   8 H :    0.055577
   9 C :   -0.099760
  10 H :    0.032689
  11 H :    0.041205
  12 C :   -0.066022
  13 H :    0.032736
  14 H :    0.033727
  15 H :    0.040630
  16 S :    0.092651
  17 C :   -0.083188
  18 C :   -0.039726
  19 C :   -0.015775
  20 C :   -0.164105
  21 H :    0.013938
  22 C :    0.012031
  23 H :    0.054877
  24 H :    0.048021
  25 C :    0.005606
  26 H :    0.023711
  27 H :   -0.023576
  28 C :   -0.033050
  29 H :    0.027503
  30 H :    0.014848
  31 H :    0.033838
  32 H :    0.044325
  33 H :    0.048469
Sum of atomic charges:    0.0000000

LOEWDIN ATOMIC CHARGES
----------------------
   0 S :    0.420090
   1 C :   -0.213008
   2 C :   -0.070364
   3 C :   -0.063762
   4 C :   -0.192216
   5 H :    0.039999
   6 C :   -0.030300
   7 H :    0.029456
   8 H :    0.038296
   9 C :   -0.045665
  10 H :    0.022704
  11 H :    0.027689
  12 C :   -0.078204
  13 H :    0.027531
  14 H :    0.026496
  15 H :    0.029449
  16 S :    0.380489
  17 C :   -0.170154
  18 C :   -0.075076
  19 C :   -0.056977
  20 C :   -0.195818
  21 H :    0.030471
  22 C :   -0.032547
  23 H :    0.040599
  24 H :    0.039993
  25 C :   -0.035931
  26 H :    0.035607
  27 H :   -0.003199
  28 C :   -0.056332
  29 H :    0.024323
  30 H :    0.018150
  31 H :    0.030299
  32 H :    0.029022
  33 H :    0.028888

  Mayer bond orders larger than 0.100000
B(  0-S ,  1-C ) :   1.1358 B(  0-S ,  4-C ) :   1.1558 B(  1-C ,  2-C ) :   1.6341
B(  1-C , 32-H ) :   0.9622 B(  2-C ,  3-C ) :   1.2382 B(  2-C ,  6-C ) :   0.9994
B(  3-C ,  4-C ) :   1.5521 B(  3-C ,  5-H ) :   0.9785 B(  4-C , 20-C ) :   1.0712
B(  6-C ,  7-H ) :   0.9542 B(  6-C ,  8-H ) :   0.9408 B(  6-C ,  9-C ) :   1.0728
B(  9-C , 10-H ) :   0.9568 B(  9-C , 11-H ) :   0.9603 B(  9-C , 12-C ) :   1.0679
B( 12-C , 13-H ) :   0.9779 B( 12-C , 14-H ) :   0.9746 B( 12-C , 15-H ) :   0.9753
B( 16-S , 17-C ) :   1.1202 B( 16-S , 20-C ) :   1.1439 B( 17-C , 18-C ) :   1.6479
B( 17-C , 33-H ) :   0.9670 B( 18-C , 19-C ) :   1.2318 B( 18-C , 21-H ) :   0.9843
B( 19-C , 20-C ) :   1.5934 B( 19-C , 22-C ) :   1.0256 B( 22-C , 23-H ) :   0.9331
B( 22-C , 24-H ) :   0.9328 B( 22-C , 25-C ) :   1.0654 B( 25-C , 26-H ) :   0.9478
B( 25-C , 27-H ) :   0.9397 B( 25-C , 28-C ) :   1.0960 B( 28-C , 29-H ) :   0.9714
B( 28-C , 30-H ) :   0.9731 B( 28-C , 31-H ) :   0.9750

Dispersion correction           -0.013783598
FINAL SINGLE POINT ENERGY     -1339.863516639994

DIPOLE MOMENT
-------------
                                X             Y             Z
Electronic contribution:      3.43220      25.07754      14.75931
Nuclear contribution   :     -3.22085     -25.60593     -15.16498
                        -----------------------------------------
Total Dipole Moment    :      0.21136      -0.52839      -0.40567
                        -----------------------------------------
Magnitude (a.u.)       :      0.69888
Magnitude (Debye)      :      1.77642

Rotational constants in cm-1:     0.017685     0.008607     0.006195
Rotational constants in MHz :   530.182265   258.017303   185.733421

                             ****ORCA TERMINATED NORMALLY****
TOTAL RUN TIME: 0 days 0 hours 0 minutes 21 seconds 230 msec
