                         Program Version 4.2.1 -  RELEASE  -
|  1> ! wB97X-D3 SP def2-SVP
|  2> %pal
|  3> nprocs 24
|  4> end
|  5>
|  6> * xyz 0 1
|  7> S 	 -144.507 	 8.17045 	 -6.16607
|  8> C 	 -144.818 	 9.65069 	 -5.25333
|  9> C 	 -144.305 	 9.56085 	 -3.91534
| 10> C 	 -143.538 	 8.33662 	 -3.79471
| 11> C 	 -143.431 	 7.47375 	 -4.88664
| 12> H 	 -143.088 	 8.00848 	 -2.85903
| 13> C 	 -144.38 	 10.6137 	 -2.90252
| 14> H 	 -144.291 	 11.5642 	 -3.45433
| 15> H 	 -143.448 	 10.6077 	 -2.29771
| 16> C 	 -145.64 	 10.7115 	 -2.04014
| 17> H 	 -146.504 	 10.9684 	 -2.6956
| 18> H 	 -145.932 	 9.83188 	 -1.48257
| 19> C 	 -145.442 	 11.9037 	 -1.0709
| 20> H 	 -144.739 	 11.6357 	 -0.238736
| 21> H 	 -145.045 	 12.8018 	 -1.54724
| 22> H 	 -146.447 	 12.0677 	 -0.574698
| 23> S 	 -144.184 	 4.89477 	 -5.50724
| 24> C 	 -143.096 	 3.55353 	 -5.28259
| 25> C 	 -141.905 	 3.96796 	 -4.6841
| 26> C 	 -141.809 	 5.37423 	 -4.45604
| 27> C 	 -142.976 	 6.04922 	 -4.8222
| 28> H 	 -141.093 	 3.1503 	 -4.47303
| 29> C 	 -140.59 	 6.09495 	 -3.88556
| 30> H 	 -140.005 	 5.37138 	 -3.37316
| 31> H 	 -140.799 	 6.65714 	 -2.92217
| 32> C 	 -139.557 	 6.77729 	 -4.83026
| 33> H 	 -139.086 	 6.01723 	 -5.57413
| 34> H 	 -138.747 	 7.03507 	 -4.1746
| 35> C 	 -140.036 	 8.09887 	 -5.54824
| 36> H 	 -140.929 	 7.88765 	 -6.12426
| 37> H 	 -139.21 	 8.46666 	 -6.07166
| 38> H 	 -140.434 	 8.82785 	 -4.82328
| 39> H 	 -145.248 	 10.545 	 -5.67406
| 40> H 	 -143.367 	 2.55225 	 -5.5381
| 41> *
| 42>
| 43>                          ****END OF INPUT****

CARTESIAN COORDINATES (ANGSTROEM)
---------------------------------
  S    -144.507000    8.170450   -6.166070
  C    -144.818000    9.650690   -5.253330
  C    -144.305000    9.560850   -3.915340
  C    -143.538000    8.336620   -3.794710
  C    -143.431000    7.473750   -4.886640
  H    -143.088000    8.008480   -2.859030
  C    -144.380000   10.613700   -2.902520
  H    -144.291000   11.564200   -3.454330
  H    -143.448000   10.607700   -2.297710
  C    -145.640000   10.711500   -2.040140
  H    -146.504000   10.968400   -2.695600
  H    -145.932000    9.831880   -1.482570
  C    -145.442000   11.903700   -1.070900
  H    -144.739000   11.635700   -0.238736
  H    -145.045000   12.801800   -1.547240
  H    -146.447000   12.067700   -0.574698
  S    -144.184000    4.894770   -5.507240
  C    -143.096000    3.553530   -5.282590
  C    -141.905000    3.967960   -4.684100
  C    -141.809000    5.374230   -4.456040
  C    -142.976000    6.049220   -4.822200
  H    -141.093000    3.150300   -4.473030
  C    -140.590000    6.094950   -3.885560
  H    -140.005000    5.371380   -3.373160
  H    -140.799000    6.657140   -2.922170
  C    -139.557000    6.777290   -4.830260
  H    -139.086000    6.017230   -5.574130
  H    -138.747000    7.035070   -4.174600
  C    -140.036000    8.098870   -5.548240
  H    -140.929000    7.887650   -6.124260
  H    -139.210000    8.466660   -6.071660
  H    -140.434000    8.827850   -4.823280
  H    -145.248000   10.545000   -5.674060
  H    -143.367000    2.552250   -5.538100

 Total Charge           Charge          ....    0
 Multiplicity           Mult            ....    1
 Number of Electrons    NEL             ....  134
 Basis Dimension        Dim             ....  322

ORBITAL ENERGIES
----------------

  NO   OCC          E(Eh)            E(eV)
   0   2.0000     -88.969917     -2420.9945
   1   2.0000     -88.964416     -2420.8448
   2   2.0000     -10.339838      -281.3613
   3   2.0000     -10.337527      -281.2984
   4   2.0000     -10.324349      -280.9398
   5   2.0000     -10.318072      -280.7690
   6   2.0000     -10.310536      -280.5640
   7   2.0000     -10.308584      -280.5108
   8   2.0000     -10.305785      -280.4347
   9   2.0000     -10.299232      -280.2563
  10   2.0000     -10.295401      -280.1521
  11   2.0000     -10.294733      -280.1339
  12   2.0000     -10.293824      -280.1092
  13   2.0000     -10.292353      -280.0692
  14   2.0000     -10.287577      -279.9392
  15   2.0000     -10.267118      -279.3825
  16   2.0000      -8.082885      -219.9465
  17   2.0000      -8.078622      -219.8305
  18   2.0000      -6.041596      -164.4002
  19   2.0000      -6.037525      -164.2894
  20   2.0000      -6.037149      -164.2792
  21   2.0000      -6.033629      -164.1834
  22   2.0000      -6.033122      -164.1696
  23   2.0000      -6.029466      -164.0701
  24   2.0000      -0.995656       -27.0932
  25   2.0000      -0.975245       -26.5378
  26   2.0000      -0.914785       -24.8926
  27   2.0000      -0.898239       -24.4423
  28   2.0000      -0.862897       -23.4806
  29   2.0000      -0.847121       -23.0513
  30   2.0000      -0.841811       -22.9068
  31   2.0000      -0.810015       -22.0416
  32   2.0000      -0.783175       -21.3113
  33   2.0000      -0.766695       -20.8628
  34   2.0000      -0.703088       -19.1320
  35   2.0000      -0.701370       -19.0852
  36   2.0000      -0.689569       -18.7641
  37   2.0000      -0.656105       -17.8535
  38   2.0000      -0.641746       -17.4628
  39   2.0000      -0.616248       -16.7690
  40   2.0000      -0.592390       -16.1197
  41   2.0000      -0.566704       -15.4208
  42   2.0000      -0.560747       -15.2587
  43   2.0000      -0.549382       -14.9494
  44   2.0000      -0.530236       -14.4285
  45   2.0000      -0.524289       -14.2666
  46   2.0000      -0.518372       -14.1056
  47   2.0000      -0.507051       -13.7976
  48   2.0000      -0.499207       -13.5841
  49   2.0000      -0.495245       -13.4763
  50   2.0000      -0.488830       -13.3017
  51   2.0000      -0.479776       -13.0554
  52   2.0000      -0.465349       -12.6628
  53   2.0000      -0.462583       -12.5875
  54   2.0000      -0.455900       -12.4057
  55   2.0000      -0.444386       -12.0924
  56   2.0000      -0.442248       -12.0342
  57   2.0000      -0.439549       -11.9607
  58   2.0000      -0.430825       -11.7233
  59   2.0000      -0.420923       -11.4539
  60   2.0000      -0.416980       -11.3466
  61   2.0000      -0.411561       -11.1991
  62   2.0000      -0.404184       -10.9984
  63   2.0000      -0.350787        -9.5454
  64   2.0000      -0.333571        -9.0769
  65   2.0000      -0.325297        -8.8518
  66   2.0000      -0.287830        -7.8323
  67   0.0000       0.022377         0.6089
  68   0.0000       0.059100         1.6082
  69   0.0000       0.106018         2.8849
  70   0.0000       0.113072         3.0769
  71   0.0000       0.132368         3.6019

MULLIKEN ATOMIC CHARGES
-----------------------
   0 S :    0.100043
   1 C :   -0.116363
   2 C :   -0.063711
   3 C :    0.023523
   4 C :   -0.127745
   5 H :    0.013814
   6 C :    0.018029
   7 H :    0.025313
   8 H :    0.030039
   9 C :   -0.053242
  10 H :    0.033105
  11 H :    0.036977
  12 C :   -0.079865
  13 H :    0.037723
  14 H :    0.035453
  15 H :    0.044165
  16 S :    0.088407
  17 C :   -0.092439
  18 C :   -0.065578
  19 C :   -0.020885
  20 C :   -0.162328
  21 H :    0.056490
  22 C :    0.049253
  23 H :   -0.007381
  24 H :    0.036541
  25 C :   -0.090661
  26 H :    0.042869
  27 H :    0.022036
  28 C :   -0.020659
  29 H :    0.043851
  30 H :    0.031560
  31 H :    0.024849
  32 H :    0.053905
  33 H :    0.052915
Sum of atomic charges:    0.0000000

LOEWDIN ATOMIC CHARGES
----------------------
   0 S :    0.379804
   1 C :   -0.186174
   2 C :   -0.062865
   3 C :   -0.056888
   4 C :   -0.189036
   5 H :    0.028143
   6 C :   -0.046250
   7 H :    0.037875
   8 H :    0.034729
   9 C :   -0.036615
  10 H :    0.028518
  11 H :    0.024943
  12 C :   -0.071293
  13 H :    0.027533
  14 H :    0.022929
  15 H :    0.032637
  16 S :    0.387635
  17 C :   -0.185995
  18 C :   -0.084045
  19 C :   -0.064447
  20 C :   -0.169541
  21 H :    0.050404
  22 C :   -0.047617
  23 H :    0.027209
  24 H :    0.040502
  25 C :   -0.037053
  26 H :    0.033954
  27 H :    0.019549
  28 C :   -0.063231
  29 H :    0.026616
  30 H :    0.017855
  31 H :    0.027844
  32 H :    0.027434
  33 H :    0.024938

  Mayer bond orders larger than 0.100000
B(  0-S ,  1-C ) :   1.1551 B(  0-S ,  4-C ) :   1.1226 B(  1-C ,  2-C ) :   1.5575
B(  1-C ,  4-C ) :   0.1032 B(  1-C , 32-H ) :   0.9685 B(  2-C ,  3-C ) :   1.2701
B(  2-C ,  6-C ) :   1.0332 B(  3-C ,  4-C ) :   1.5599 B(  3-C ,  5-H ) :   0.9846
B(  4-C , 20-C ) :   1.0409 B(  6-C ,  7-H ) :   0.9352 B(  6-C ,  8-H ) :   0.9475
B(  6-C ,  9-C ) :   1.0580 B(  9-C , 10-H ) :   0.9540 B(  9-C , 11-H ) :   0.9577
B(  9-C , 12-C ) :   1.0751 B( 12-C , 13-H ) :   0.9762 B( 12-C , 14-H ) :   0.9741
B( 12-C , 15-H ) :   0.9748 B( 16-S , 17-C ) :   1.1580 B( 16-S , 20-C ) :   1.1377
B( 17-C , 18-C ) :   1.6036 B( 17-C , 20-C ) :   0.1006 B( 17-C , 33-H ) :   0.9716
B( 18-C , 19-C ) :   1.2547 B( 18-C , 21-H ) :   0.9710 B( 19-C , 20-C ) :   1.5943
B( 19-C , 22-C ) :   1.0294 B( 22-C , 23-H ) :   0.9161 B( 22-C , 24-H ) :   0.9356
B( 22-C , 25-C ) :   1.0786 B( 25-C , 26-H ) :   0.9549 B( 25-C , 27-H ) :   0.9511
B( 25-C , 28-C ) :   1.0743 B( 28-C , 29-H ) :   0.9729 B( 28-C , 30-H ) :   0.9748
B( 28-C , 31-H ) :   0.9732

Dispersion correction           -0.014490677
FINAL SINGLE POINT ENERGY     -1339.863500491627

DIPOLE MOMENT
-------------
                                X             Y             Z
Electronic contribution:    -10.08121     -17.93972     -15.60473
Nuclear contribution   :     10.35484      18.20348      16.18067
                        -----------------------------------------
Total Dipole Moment    :      0.27363       0.26376       0.57594
                        -----------------------------------------
Magnitude (a.u.)       :      0.69004
Magnitude (Debye)      :      1.75394

Rotational constants in cm-1:     0.020147     0.007718     0.006813
Rotational constants in MHz :   603.980583   231.383717   204.250076

                             ****ORCA TERMINATED NORMALLY****
TOTAL RUN TIME: 0 days 0 hours 0 minutes 21 seconds 368 msec
