                         Program Version 4.2.1 -  RELEASE  -
|  1> ! wB97X-D3 SP def2-SVP
|  2> %pal
|  3> nprocs 24
|  4> end
|  5>
|  6> * xyz 0 1
|  7> S 	 36.4768 	 -15.6679 	 -122.306
|  8> C 	 36.4896 	 -13.984 	 -121.861
|  9> C 	 37.4294 	 -13.2633 	 -122.495
| 10> C 	 38.284 	 -14.0965 	 -123.262
| 11> C 	 37.9766 	 -15.4338 	 -123.29
| 12> H 	 39.0234 	 -13.7009 	 -123.887
| 13> C 	 37.731 	 -11.7245 	 -122.441
| 14> H 	 37.5462 	 -11.3908 	 -121.394
| 15> H 	 37.0569 	 -11.3342 	 -123.125
| 16> C 	 39.1603 	 -11.2043 	 -122.883
| 17> H 	 39.2145 	 -11.5706 	 -123.881
| 18> H 	 39.2715 	 -10.0795 	 -122.928
| 19> C 	 40.2929 	 -11.6087 	 -121.879
| 20> H 	 40.4086 	 -12.6558 	 -121.604
| 21> H 	 41.2722 	 -11.4362 	 -122.287
| 22> H 	 40.1952 	 -11.2139 	 -120.845
| 23> S 	 37.4903 	 -17.9034 	 -124.433
| 24> C 	 38.6585 	 -18.6012 	 -125.501
| 25> C 	 39.8815 	 -17.8599 	 -125.391
| 26> C 	 39.843 	 -16.7338 	 -124.499
| 27> C 	 38.5565 	 -16.5559 	 -124.024
| 28> H 	 40.6969 	 -18.2092 	 -126.03
| 29> C 	 41.0622 	 -15.9806 	 -124.007
| 30> H 	 41.7773 	 -16.6327 	 -123.631
| 31> H 	 40.7963 	 -15.3564 	 -123.162
| 32> C 	 41.6621 	 -15.2146 	 -125.177
| 33> H 	 41.0262 	 -14.4819 	 -125.691
| 34> H 	 41.9669 	 -15.8038 	 -125.998
| 35> C 	 42.9519 	 -14.5231 	 -124.751
| 36> H 	 43.6441 	 -15.2455 	 -124.505
| 37> H 	 42.8479 	 -13.8553 	 -123.92
| 38> H 	 43.469 	 -14.0691 	 -125.539
| 39> H 	 35.7733 	 -13.5122 	 -121.27
| 40> H 	 38.5168 	 -19.5863 	 -126.019
| 41> *
| 42>
| 43>                          ****END OF INPUT****

CARTESIAN COORDINATES (ANGSTROEM)
---------------------------------
  S     36.476800  -15.667900  -122.306000
  C     36.489600  -13.984000  -121.861000
  C     37.429400  -13.263300  -122.495000
  C     38.284000  -14.096500  -123.262000
  C     37.976600  -15.433800  -123.290000
  H     39.023400  -13.700900  -123.887000
  C     37.731000  -11.724500  -122.441000
  H     37.546200  -11.390800  -121.394000
  H     37.056900  -11.334200  -123.125000
  C     39.160300  -11.204300  -122.883000
  H     39.214500  -11.570600  -123.881000
  H     39.271500  -10.079500  -122.928000
  C     40.292900  -11.608700  -121.879000
  H     40.408600  -12.655800  -121.604000
  H     41.272200  -11.436200  -122.287000
  H     40.195200  -11.213900  -120.845000
  S     37.490300  -17.903400  -124.433000
  C     38.658500  -18.601200  -125.501000
  C     39.881500  -17.859900  -125.391000
  C     39.843000  -16.733800  -124.499000
  C     38.556500  -16.555900  -124.024000
  H     40.696900  -18.209200  -126.030000
  C     41.062200  -15.980600  -124.007000
  H     41.777300  -16.632700  -123.631000
  H     40.796300  -15.356400  -123.162000
  C     41.662100  -15.214600  -125.177000
  H     41.026200  -14.481900  -125.691000
  H     41.966900  -15.803800  -125.998000
  C     42.951900  -14.523100  -124.751000
  H     43.644100  -15.245500  -124.505000
  H     42.847900  -13.855300  -123.920000
  H     43.469000  -14.069100  -125.539000
  H     35.773300  -13.512200  -121.270000
  H     38.516800  -19.586300  -126.019000

 Total Charge           Charge          ....    0
 Multiplicity           Mult            ....    1
 Number of Electrons    NEL             ....  134
 Basis Dimension        Dim             ....  322

ORBITAL ENERGIES
----------------

  NO   OCC          E(Eh)            E(eV)
   0   2.0000     -88.966140     -2420.8917
   1   2.0000     -88.962734     -2420.7991
   2   2.0000     -10.332794      -281.1696
   3   2.0000     -10.328710      -281.0585
   4   2.0000     -10.325359      -280.9673
   5   2.0000     -10.305979      -280.4399
   6   2.0000     -10.304597      -280.4023
   7   2.0000     -10.301703      -280.3236
   8   2.0000     -10.301626      -280.3215
   9   2.0000     -10.297703      -280.2147
  10   2.0000     -10.297012      -280.1959
  11   2.0000     -10.289710      -279.9972
  12   2.0000     -10.286010      -279.8966
  13   2.0000     -10.282089      -279.7899
  14   2.0000     -10.281420      -279.7717
  15   2.0000     -10.262309      -279.2516
  16   2.0000      -8.080968      -219.8943
  17   2.0000      -8.076944      -219.7848
  18   2.0000      -6.039456      -164.3419
  19   2.0000      -6.035626      -164.2377
  20   2.0000      -6.035449      -164.2329
  21   2.0000      -6.031763      -164.1326
  22   2.0000      -6.031700      -164.1309
  23   2.0000      -6.027396      -164.0138
  24   2.0000      -1.004538       -27.3349
  25   2.0000      -0.982751       -26.7420
  26   2.0000      -0.918235       -24.9864
  27   2.0000      -0.902113       -24.5478
  28   2.0000      -0.868609       -23.6361
  29   2.0000      -0.855912       -23.2905
  30   2.0000      -0.839920       -22.8554
  31   2.0000      -0.812555       -22.1108
  32   2.0000      -0.788733       -21.4625
  33   2.0000      -0.778487       -21.1837
  34   2.0000      -0.713647       -19.4193
  35   2.0000      -0.708060       -19.2673
  36   2.0000      -0.697524       -18.9806
  37   2.0000      -0.661348       -17.9962
  38   2.0000      -0.637681       -17.3522
  39   2.0000      -0.627404       -17.0725
  40   2.0000      -0.598841       -16.2953
  41   2.0000      -0.570307       -15.5188
  42   2.0000      -0.563758       -15.3406
  43   2.0000      -0.552411       -15.0319
  44   2.0000      -0.537071       -14.6144
  45   2.0000      -0.532538       -14.4911
  46   2.0000      -0.516522       -14.0553
  47   2.0000      -0.514921       -14.0117
  48   2.0000      -0.500752       -13.6262
  49   2.0000      -0.497781       -13.5453
  50   2.0000      -0.494057       -13.4440
  51   2.0000      -0.491249       -13.3676
  52   2.0000      -0.473357       -12.8807
  53   2.0000      -0.466965       -12.7068
  54   2.0000      -0.456021       -12.4090
  55   2.0000      -0.448620       -12.2076
  56   2.0000      -0.445051       -12.1105
  57   2.0000      -0.441049       -12.0016
  58   2.0000      -0.434502       -11.8234
  59   2.0000      -0.427494       -11.6327
  60   2.0000      -0.422707       -11.5024
  61   2.0000      -0.416595       -11.3361
  62   2.0000      -0.407039       -11.0761
  63   2.0000      -0.359060        -9.7705
  64   2.0000      -0.333265        -9.0686
  65   2.0000      -0.326712        -8.8903
  66   2.0000      -0.281195        -7.6517
  67   0.0000       0.020888         0.5684
  68   0.0000       0.077335         2.1044
  69   0.0000       0.100117         2.7243
  70   0.0000       0.119830         3.2607
  71   0.0000       0.126418         3.4400

MULLIKEN ATOMIC CHARGES
-----------------------
   0 S :    0.084293
   1 C :   -0.105193
   2 C :   -0.077054
   3 C :    0.009802
   4 C :   -0.107551
   5 H :   -0.022191
   6 C :    0.081277
   7 H :    0.036468
   8 H :    0.032786
   9 C :   -0.085613
  10 H :    0.032319
  11 H :    0.051997
  12 C :   -0.067183
  13 H :    0.022559
  14 H :    0.031610
  15 H :    0.037589
  16 S :    0.104796
  17 C :   -0.120606
  18 C :   -0.056818
  19 C :   -0.035784
  20 C :   -0.134120
  21 H :    0.026322
  22 C :    0.131401
  23 H :    0.012904
  24 H :    0.025287
  25 C :   -0.103434
  26 H :    0.028763
  27 H :    0.015424
  28 C :    0.020484
  29 H :   -0.002991
  30 H :    0.022759
  31 H :    0.009829
  32 H :    0.014863
  33 H :    0.085003
Sum of atomic charges:   -0.0000000

LOEWDIN ATOMIC CHARGES
----------------------
   0 S :    0.371936
   1 C :   -0.185592
   2 C :   -0.062795
   3 C :   -0.064547
   4 C :   -0.162017
   5 H :    0.018889
   6 C :   -0.020594
   7 H :    0.032564
   8 H :    0.024893
   9 C :   -0.039153
  10 H :    0.018269
  11 H :    0.039435
  12 C :   -0.080321
  13 H :    0.023520
  14 H :    0.023909
  15 H :    0.033341
  16 S :    0.406629
  17 C :   -0.205695
  18 C :   -0.072693
  19 C :   -0.052556
  20 C :   -0.191140
  21 H :    0.030658
  22 C :   -0.014850
  23 H :    0.027200
  24 H :    0.033124
  25 C :   -0.036148
  26 H :    0.024101
  27 H :    0.020345
  28 C :   -0.057106
  29 H :    0.015449
  30 H :    0.020458
  31 H :    0.020282
  32 H :    0.016849
  33 H :    0.043355

  Mayer bond orders larger than 0.100000
B(  0-S ,  1-C ) :   1.1257 B(  0-S ,  4-C ) :   1.1180 B(  1-C ,  2-C ) :   1.6717
B(  1-C , 32-H ) :   0.9701 B(  2-C ,  3-C ) :   1.2403 B(  2-C ,  6-C ) :   0.9756
B(  3-C ,  4-C ) :   1.5935 B(  3-C ,  5-H ) :   0.9946 B(  4-C , 20-C ) :   1.0747
B(  6-C ,  7-H ) :   0.9515 B(  6-C ,  8-H ) :   0.9352 B(  6-C ,  9-C ) :   1.0807
B(  9-C , 10-H ) :   0.9512 B(  9-C , 11-H ) :   0.9564 B(  9-C , 12-C ) :   1.0610
B( 12-C , 13-H ) :   0.9757 B( 12-C , 14-H ) :   0.9766 B( 12-C , 15-H ) :   0.9726
B( 16-S , 17-C ) :   1.1639 B( 16-S , 20-C ) :   1.1392 B( 17-C , 18-C ) :   1.5838
B( 17-C , 20-C ) :   0.1043 B( 17-C , 33-H ) :   0.9635 B( 18-C , 19-C ) :   1.2358
B( 18-C , 21-H ) :   0.9893 B( 19-C , 20-C ) :   1.5776 B( 19-C , 22-C ) :   1.0367
B( 22-C , 23-H ) :   0.9315 B( 22-C , 24-H ) :   0.9364 B( 22-C , 25-C ) :   1.0504
B( 25-C , 26-H ) :   0.9567 B( 25-C , 27-H ) :   0.9550 B( 25-C , 28-C ) :   1.0949
B( 28-C , 29-H ) :   0.9648 B( 28-C , 30-H ) :   0.9730 B( 28-C , 31-H ) :   0.9666

Dispersion correction           -0.014873629
FINAL SINGLE POINT ENERGY     -1339.853953924668

DIPOLE MOMENT
-------------
                                X             Y             Z
Electronic contribution:    -24.52961     -22.08813       0.74707
Nuclear contribution   :     25.18129      22.49405      -0.94749
                        -----------------------------------------
Total Dipole Moment    :      0.65168       0.40592      -0.20042
                        -----------------------------------------
Magnitude (a.u.)       :      0.79349
Magnitude (Debye)      :      2.01688

Rotational constants in cm-1:     0.016013     0.011153     0.006885
Rotational constants in MHz :   480.044524   334.360948   206.412170

                             ****ORCA TERMINATED NORMALLY****
TOTAL RUN TIME: 0 days 0 hours 0 minutes 21 seconds 246 msec
