                         Program Version 4.2.1 -  RELEASE  -
|  1> ! wB97X-D3 SP def2-SVP
|  2> %pal
|  3> nprocs 24
|  4> end
|  5>
|  6> * xyz 0 1
|  7> S 	 -144.757 	 24.9784 	 -18.53
|  8> C 	 -145.239 	 23.3982 	 -19.0358
|  9> C 	 -144.239 	 22.7384 	 -19.6582
| 10> C 	 -143.15 	 23.6194 	 -19.8543
| 11> C 	 -143.25 	 24.8201 	 -19.2319
| 12> H 	 -142.227 	 23.3694 	 -20.3325
| 13> C 	 -144.232 	 21.1958 	 -20.0465
| 14> H 	 -144.924 	 20.6935 	 -19.3127
| 15> H 	 -143.188 	 20.8619 	 -20.1264
| 16> C 	 -144.831 	 21.005 	 -21.4677
| 17> H 	 -145.867 	 21.3251 	 -21.4345
| 18> H 	 -144.368 	 21.7427 	 -22.1235
| 19> C 	 -144.703 	 19.6044 	 -21.9786
| 20> H 	 -144.637 	 18.946 	 -21.11
| 21> H 	 -145.521 	 19.2584 	 -22.6316
| 22> H 	 -143.726 	 19.517 	 -22.5224
| 23> S 	 -142.674 	 27.4668 	 -19.9345
| 24> C 	 -141.251 	 28.2102 	 -19.1171
| 25> C 	 -140.521 	 27.2742 	 -18.429
| 26> C 	 -141.093 	 25.9962 	 -18.3921
| 27> C 	 -142.275 	 25.9329 	 -19.1052
| 28> H 	 -139.566 	 27.4392 	 -17.9593
| 29> C 	 -140.625 	 24.9185 	 -17.4287
| 30> H 	 -141.434 	 24.2266 	 -17.4476
| 31> H 	 -140.589 	 25.2976 	 -16.4111
| 32> C 	 -139.306 	 24.3203 	 -17.8384
| 33> H 	 -138.421 	 24.9651 	 -17.9056
| 34> H 	 -139.376 	 23.8558 	 -18.7704
| 35> C 	 -138.839 	 23.1423 	 -17.0537
| 36> H 	 -139.098 	 23.3787 	 -16.0302
| 37> H 	 -137.758 	 22.9903 	 -17.0685
| 38> H 	 -139.277 	 22.1949 	 -17.4046
| 39> H 	 -145.998 	 22.896 	 -18.493
| 40> H 	 -140.959 	 29.261 	 -19.3875
| 41> *
| 42>
| 43>                          ****END OF INPUT****

CARTESIAN COORDINATES (ANGSTROEM)
---------------------------------
  S    -144.757000   24.978400  -18.530000
  C    -145.239000   23.398200  -19.035800
  C    -144.239000   22.738400  -19.658200
  C    -143.150000   23.619400  -19.854300
  C    -143.250000   24.820100  -19.231900
  H    -142.227000   23.369400  -20.332500
  C    -144.232000   21.195800  -20.046500
  H    -144.924000   20.693500  -19.312700
  H    -143.188000   20.861900  -20.126400
  C    -144.831000   21.005000  -21.467700
  H    -145.867000   21.325100  -21.434500
  H    -144.368000   21.742700  -22.123500
  C    -144.703000   19.604400  -21.978600
  H    -144.637000   18.946000  -21.110000
  H    -145.521000   19.258400  -22.631600
  H    -143.726000   19.517000  -22.522400
  S    -142.674000   27.466800  -19.934500
  C    -141.251000   28.210200  -19.117100
  C    -140.521000   27.274200  -18.429000
  C    -141.093000   25.996200  -18.392100
  C    -142.275000   25.932900  -19.105200
  H    -139.566000   27.439200  -17.959300
  C    -140.625000   24.918500  -17.428700
  H    -141.434000   24.226600  -17.447600
  H    -140.589000   25.297600  -16.411100
  C    -139.306000   24.320300  -17.838400
  H    -138.421000   24.965100  -17.905600
  H    -139.376000   23.855800  -18.770400
  C    -138.839000   23.142300  -17.053700
  H    -139.098000   23.378700  -16.030200
  H    -137.758000   22.990300  -17.068500
  H    -139.277000   22.194900  -17.404600
  H    -145.998000   22.896000  -18.493000
  H    -140.959000   29.261000  -19.387500

 Total Charge           Charge          ....    0
 Multiplicity           Mult            ....    1
 Number of Electrons    NEL             ....  134
 Basis Dimension        Dim             ....  322

ORBITAL ENERGIES
----------------

  NO   OCC          E(Eh)            E(eV)
   0   2.0000     -88.965550     -2420.8757
   1   2.0000     -88.960726     -2420.7444
   2   2.0000     -10.329281      -281.0740
   3   2.0000     -10.325591      -280.9736
   4   2.0000     -10.320757      -280.8421
   5   2.0000     -10.306992      -280.4675
   6   2.0000     -10.302785      -280.3530
   7   2.0000     -10.300451      -280.2895
   8   2.0000     -10.298912      -280.2476
   9   2.0000     -10.292001      -280.0596
  10   2.0000     -10.289038      -279.9790
  11   2.0000     -10.286527      -279.9106
  12   2.0000     -10.281496      -279.7737
  13   2.0000     -10.280700      -279.7521
  14   2.0000     -10.275357      -279.6067
  15   2.0000     -10.272503      -279.5290
  16   2.0000      -8.079132      -219.8444
  17   2.0000      -8.077829      -219.8089
  18   2.0000      -6.037670      -164.2934
  19   2.0000      -6.036095      -164.2505
  20   2.0000      -6.033944      -164.1920
  21   2.0000      -6.031908      -164.1366
  22   2.0000      -6.029783      -164.0787
  23   2.0000      -6.028775      -164.0513
  24   2.0000      -1.017591       -27.6900
  25   2.0000      -0.986358       -26.8402
  26   2.0000      -0.917668       -24.9710
  27   2.0000      -0.911463       -24.8022
  28   2.0000      -0.871028       -23.7019
  29   2.0000      -0.856756       -23.3135
  30   2.0000      -0.847726       -23.0678
  31   2.0000      -0.815867       -22.2009
  32   2.0000      -0.783901       -21.3310
  33   2.0000      -0.772226       -21.0133
  34   2.0000      -0.698958       -19.0196
  35   2.0000      -0.695650       -18.9296
  36   2.0000      -0.693013       -18.8578
  37   2.0000      -0.662753       -18.0344
  38   2.0000      -0.650138       -17.6911
  39   2.0000      -0.619105       -16.8467
  40   2.0000      -0.599366       -16.3096
  41   2.0000      -0.575847       -15.6696
  42   2.0000      -0.572915       -15.5898
  43   2.0000      -0.558922       -15.2090
  44   2.0000      -0.536788       -14.6068
  45   2.0000      -0.527212       -14.3462
  46   2.0000      -0.520368       -14.1599
  47   2.0000      -0.511495       -13.9185
  48   2.0000      -0.508090       -13.8258
  49   2.0000      -0.497583       -13.5399
  50   2.0000      -0.488701       -13.2982
  51   2.0000      -0.480674       -13.0798
  52   2.0000      -0.474166       -12.9027
  53   2.0000      -0.465909       -12.6780
  54   2.0000      -0.457093       -12.4381
  55   2.0000      -0.452648       -12.3172
  56   2.0000      -0.444488       -12.0951
  57   2.0000      -0.431444       -11.7402
  58   2.0000      -0.429050       -11.6750
  59   2.0000      -0.421864       -11.4795
  60   2.0000      -0.419703       -11.4207
  61   2.0000      -0.418019       -11.3749
  62   2.0000      -0.414179       -11.2704
  63   2.0000      -0.338735        -9.2174
  64   2.0000      -0.336504        -9.1567
  65   2.0000      -0.329032        -8.9534
  66   2.0000      -0.304930        -8.2976
  67   0.0000       0.041418         1.1271
  68   0.0000       0.060802         1.6545
  69   0.0000       0.109045         2.9673
  70   0.0000       0.120287         3.2732
  71   0.0000       0.129048         3.5116

MULLIKEN ATOMIC CHARGES
-----------------------
   0 S :    0.116763
   1 C :   -0.108191
   2 C :   -0.105050
   3 C :    0.046783
   4 C :   -0.186027
   5 H :   -0.010348
   6 C :    0.055415
   7 H :    0.042634
   8 H :    0.032289
   9 C :   -0.092159
  10 H :    0.022383
  11 H :    0.029600
  12 C :   -0.036954
  13 H :    0.026416
  14 H :    0.046671
  15 H :    0.039194
  16 S :    0.096002
  17 C :   -0.113231
  18 C :   -0.001702
  19 C :   -0.015610
  20 C :   -0.179817
  21 H :    0.012685
  22 C :    0.114011
  23 H :    0.016689
  24 H :    0.032358
  25 C :   -0.072131
  26 H :    0.028398
  27 H :    0.006891
  28 C :   -0.041169
  29 H :    0.015182
  30 H :    0.027549
  31 H :    0.034006
  32 H :    0.041550
  33 H :    0.078920
Sum of atomic charges:    0.0000000

LOEWDIN ATOMIC CHARGES
----------------------
   0 S :    0.449158
   1 C :   -0.207129
   2 C :   -0.059172
   3 C :   -0.070570
   4 C :   -0.222620
   5 H :    0.024492
   6 C :   -0.020585
   7 H :    0.036948
   8 H :    0.031084
   9 C :   -0.050520
  10 H :    0.021554
  11 H :    0.023237
  12 C :   -0.071883
  13 H :    0.024739
  14 H :    0.031528
  15 H :    0.032285
  16 S :    0.366894
  17 C :   -0.170419
  18 C :   -0.066629
  19 C :   -0.053707
  20 C :   -0.185939
  21 H :    0.031522
  22 C :   -0.019226
  23 H :    0.029874
  24 H :    0.032519
  25 C :   -0.049389
  26 H :    0.026793
  27 H :    0.019802
  28 C :   -0.061882
  29 H :    0.019185
  30 H :    0.025984
  31 H :    0.024673
  32 H :    0.019608
  33 H :    0.037793

  Mayer bond orders larger than 0.100000
B(  0-S ,  1-C ) :   1.1509 B(  0-S ,  4-C ) :   1.1936 B(  1-C ,  2-C ) :   1.6302
B(  1-C , 32-H ) :   0.9605 B(  2-C ,  3-C ) :   1.2477 B(  2-C ,  6-C ) :   1.0077
B(  3-C ,  4-C ) :   1.5863 B(  3-C ,  5-H ) :   1.0051 B(  4-C , 20-C ) :   0.9694
B(  6-C ,  7-H ) :   0.9379 B(  6-C ,  8-H ) :   0.9455 B(  6-C ,  9-C ) :   1.0697
B(  9-C , 10-H ) :   0.9557 B(  9-C , 11-H ) :   0.9609 B(  9-C , 12-C ) :   1.0713
B( 12-C , 13-H ) :   0.9725 B( 12-C , 14-H ) :   0.9747 B( 12-C , 15-H ) :   0.9741
B( 16-S , 17-C ) :   1.1334 B( 16-S , 20-C ) :   1.1437 B( 17-C , 18-C ) :   1.6110
B( 17-C , 20-C ) :   0.1015 B( 17-C , 33-H ) :   0.9622 B( 18-C , 19-C ) :   1.2426
B( 18-C , 21-H ) :   0.9859 B( 19-C , 20-C ) :   1.6244 B( 19-C , 22-C ) :   1.0392
B( 22-C , 23-H ) :   0.9258 B( 22-C , 24-H ) :   0.9343 B( 22-C , 25-C ) :   1.0646
B( 25-C , 26-H ) :   0.9587 B( 25-C , 27-H ) :   0.9518 B( 25-C , 28-C ) :   1.0867
B( 28-C , 29-H ) :   0.9698 B( 28-C , 30-H ) :   0.9743 B( 28-C , 31-H ) :   0.9797

Dispersion correction           -0.013666201
FINAL SINGLE POINT ENERGY     -1339.868432327150

DIPOLE MOMENT
-------------
                                X             Y             Z
Electronic contribution:    -10.71444      26.54114       0.87546
Nuclear contribution   :     11.16188     -27.06611      -0.74907
                        -----------------------------------------
Total Dipole Moment    :      0.44744      -0.52497       0.12639
                        -----------------------------------------
Magnitude (a.u.)       :      0.70127
Magnitude (Debye)      :      1.78248

Rotational constants in cm-1:     0.018101     0.008030     0.006368
Rotational constants in MHz :   542.665637   240.742551   190.903284

                             ****ORCA TERMINATED NORMALLY****
TOTAL RUN TIME: 0 days 0 hours 0 minutes 21 seconds 50 msec
