                         Program Version 4.2.1 -  RELEASE  -
|  1> ! wB97X-D3 SP def2-SVP
|  2> %pal
|  3> nprocs 24
|  4> end
|  5>
|  6> * xyz 0 1
|  7> S 	 -33.0811 	 11.6385 	 12.332
|  8> C 	 -32.9724 	 13.2914 	 11.7658
|  9> C 	 -33.2312 	 14.2345 	 12.7994
| 10> C 	 -33.3881 	 13.5173 	 14.0412
| 11> C 	 -33.3191 	 12.1655 	 13.9417
| 12> H 	 -33.5141 	 13.9825 	 15.0145
| 13> C 	 -33.2333 	 15.7692 	 12.6856
| 14> H 	 -32.4461 	 16.2162 	 13.2226
| 15> H 	 -34.2187 	 16.0722 	 13.1993
| 16> C 	 -33.3068 	 16.3455 	 11.2924
| 17> H 	 -32.3637 	 16.231 	 10.7837
| 18> H 	 -34.0351 	 15.7809 	 10.7387
| 19> C 	 -33.7006 	 17.8459 	 11.3139
| 20> H 	 -33.642 	 18.3344 	 10.4193
| 21> H 	 -34.7369 	 17.9574 	 11.7824
| 22> H 	 -33.0509 	 18.5183 	 11.9054
| 23> S 	 -32.0682 	 10.7902 	 15.9909
| 24> C 	 -33.0076 	 9.61669 	 16.8962
| 25> C 	 -34.3282 	 9.64669 	 16.5141
| 26> C 	 -34.6474 	 10.5686 	 15.4541
| 27> C 	 -33.4904 	 11.2142 	 15.0536
| 28> H 	 -35.0167 	 9.01193 	 17.0619
| 29> C 	 -35.9907 	 11.0824 	 15.0976
| 30> H 	 -35.756 	 12.0375 	 14.6228
| 31> H 	 -36.5112 	 11.3745 	 15.9939
| 32> C 	 -36.7988 	 10.183 	 14.174
| 33> H 	 -36.9738 	 9.26136 	 14.6746
| 34> H 	 -36.1845 	 10.0676 	 13.2788
| 35> C 	 -38.1809 	 10.6502 	 13.7259
| 36> H 	 -37.9336 	 11.4546 	 13.0292
| 37> H 	 -38.7622 	 11.1041 	 14.5167
| 38> H 	 -38.7469 	 9.9312 	 13.1485
| 39> H 	 -32.753 	 13.6608 	 10.772
| 40> H 	 -32.6353 	 8.87808 	 17.4706
| 41> *
| 42>
| 43>                          ****END OF INPUT****

CARTESIAN COORDINATES (ANGSTROEM)
---------------------------------
  S    -33.081100   11.638500   12.332000
  C    -32.972400   13.291400   11.765800
  C    -33.231200   14.234500   12.799400
  C    -33.388100   13.517300   14.041200
  C    -33.319100   12.165500   13.941700
  H    -33.514100   13.982500   15.014500
  C    -33.233300   15.769200   12.685600
  H    -32.446100   16.216200   13.222600
  H    -34.218700   16.072200   13.199300
  C    -33.306800   16.345500   11.292400
  H    -32.363700   16.231000   10.783700
  H    -34.035100   15.780900   10.738700
  C    -33.700600   17.845900   11.313900
  H    -33.642000   18.334400   10.419300
  H    -34.736900   17.957400   11.782400
  H    -33.050900   18.518300   11.905400
  S    -32.068200   10.790200   15.990900
  C    -33.007600    9.616690   16.896200
  C    -34.328200    9.646690   16.514100
  C    -34.647400   10.568600   15.454100
  C    -33.490400   11.214200   15.053600
  H    -35.016700    9.011930   17.061900
  C    -35.990700   11.082400   15.097600
  H    -35.756000   12.037500   14.622800
  H    -36.511200   11.374500   15.993900
  C    -36.798800   10.183000   14.174000
  H    -36.973800    9.261360   14.674600
  H    -36.184500   10.067600   13.278800
  C    -38.180900   10.650200   13.725900
  H    -37.933600   11.454600   13.029200
  H    -38.762200   11.104100   14.516700
  H    -38.746900    9.931200   13.148500
  H    -32.753000   13.660800   10.772000
  H    -32.635300    8.878080   17.470600

 Total Charge           Charge          ....    0
 Multiplicity           Mult            ....    1
 Number of Electrons    NEL             ....  134
 Basis Dimension        Dim             ....  322

ORBITAL ENERGIES
----------------

  NO   OCC          E(Eh)            E(eV)
   0   2.0000     -88.970009     -2420.9970
   1   2.0000     -88.964452     -2420.8458
   2   2.0000     -10.323897      -280.9275
   3   2.0000     -10.322222      -280.8819
   4   2.0000     -10.317141      -280.7437
   5   2.0000     -10.307967      -280.4940
   6   2.0000     -10.307748      -280.4881
   7   2.0000     -10.299938      -280.2756
   8   2.0000     -10.298230      -280.2291
   9   2.0000     -10.292212      -280.0653
  10   2.0000     -10.292005      -280.0597
  11   2.0000     -10.288023      -279.9513
  12   2.0000     -10.283708      -279.8339
  13   2.0000     -10.282046      -279.7887
  14   2.0000     -10.277170      -279.6560
  15   2.0000     -10.271433      -279.4999
  16   2.0000      -8.084885      -220.0009
  17   2.0000      -8.079099      -219.8435
  18   2.0000      -6.043361      -164.4482
  19   2.0000      -6.039356      -164.3392
  20   2.0000      -6.037553      -164.2902
  21   2.0000      -6.035680      -164.2392
  22   2.0000      -6.033619      -164.1831
  23   2.0000      -6.029936      -164.0829
  24   2.0000      -1.008132       -27.4327
  25   2.0000      -0.983580       -26.7646
  26   2.0000      -0.915317       -24.9070
  27   2.0000      -0.911490       -24.8029
  28   2.0000      -0.866623       -23.5820
  29   2.0000      -0.851727       -23.1767
  30   2.0000      -0.850287       -23.1375
  31   2.0000      -0.814171       -22.1547
  32   2.0000      -0.785768       -21.3818
  33   2.0000      -0.772320       -21.0159
  34   2.0000      -0.714694       -19.4478
  35   2.0000      -0.698368       -19.0036
  36   2.0000      -0.695410       -18.9231
  37   2.0000      -0.657913       -17.9027
  38   2.0000      -0.641342       -17.4518
  39   2.0000      -0.612891       -16.6776
  40   2.0000      -0.595440       -16.2028
  41   2.0000      -0.578026       -15.7289
  42   2.0000      -0.572677       -15.5833
  43   2.0000      -0.568962       -15.4822
  44   2.0000      -0.531729       -14.4691
  45   2.0000      -0.522339       -14.2136
  46   2.0000      -0.519309       -14.1311
  47   2.0000      -0.512113       -13.9353
  48   2.0000      -0.506446       -13.7811
  49   2.0000      -0.495570       -13.4852
  50   2.0000      -0.493987       -13.4421
  51   2.0000      -0.476680       -12.9711
  52   2.0000      -0.467693       -12.7266
  53   2.0000      -0.462839       -12.5945
  54   2.0000      -0.457544       -12.4504
  55   2.0000      -0.450875       -12.2689
  56   2.0000      -0.446559       -12.1515
  57   2.0000      -0.437956       -11.9174
  58   2.0000      -0.431469       -11.7409
  59   2.0000      -0.429477       -11.6867
  60   2.0000      -0.424223       -11.5437
  61   2.0000      -0.421701       -11.4751
  62   2.0000      -0.408893       -11.1265
  63   2.0000      -0.336049        -9.1443
  64   2.0000      -0.329965        -8.9788
  65   2.0000      -0.319427        -8.6920
  66   2.0000      -0.311759        -8.4834
  67   0.0000       0.049930         1.3587
  68   0.0000       0.053645         1.4598
  69   0.0000       0.108197         2.9442
  70   0.0000       0.122222         3.3258
  71   0.0000       0.131400         3.5756

MULLIKEN ATOMIC CHARGES
-----------------------
   0 S :    0.142676
   1 C :   -0.125998
   2 C :   -0.096881
   3 C :    0.041584
   4 C :   -0.173928
   5 H :    0.012223
   6 C :    0.048349
   7 H :    0.036540
   8 H :    0.039689
   9 C :   -0.074357
  10 H :    0.031836
  11 H :    0.030350
  12 C :   -0.036694
  13 H :    0.013801
  14 H :    0.039536
  15 H :    0.022589
  16 S :    0.113859
  17 C :   -0.050764
  18 C :   -0.039509
  19 C :    0.008407
  20 C :   -0.212863
  21 H :    0.016944
  22 C :    0.082053
  23 H :    0.015301
  24 H :    0.023558
  25 C :   -0.076674
  26 H :    0.019292
  27 H :    0.027377
  28 C :   -0.021429
  29 H :    0.019484
  30 H :    0.025795
  31 H :    0.037943
  32 H :    0.043852
  33 H :    0.016058
Sum of atomic charges:    0.0000000

LOEWDIN ATOMIC CHARGES
----------------------
   0 S :    0.431960
   1 C :   -0.207579
   2 C :   -0.057938
   3 C :   -0.062918
   4 C :   -0.217510
   5 H :    0.032568
   6 C :   -0.030064
   7 H :    0.026647
   8 H :    0.042603
   9 C :   -0.040882
  10 H :    0.022159
  11 H :    0.023503
  12 C :   -0.063440
  13 H :    0.012614
  14 H :    0.033910
  15 H :    0.027591
  16 S :    0.402145
  17 C :   -0.170425
  18 C :   -0.062738
  19 C :   -0.053328
  20 C :   -0.196739
  21 H :    0.029947
  22 C :   -0.030940
  23 H :    0.032131
  24 H :    0.030117
  25 C :   -0.038161
  26 H :    0.015644
  27 H :    0.026304
  28 C :   -0.065243
  29 H :    0.026250
  30 H :    0.021675
  31 H :    0.026810
  32 H :    0.026013
  33 H :    0.007312

  Mayer bond orders larger than 0.100000
B(  0-S ,  1-C ) :   1.1432 B(  0-S ,  4-C ) :   1.1556 B(  1-C ,  2-C ) :   1.6124
B(  1-C , 32-H ) :   0.9622 B(  2-C ,  3-C ) :   1.2455 B(  2-C ,  6-C ) :   1.0022
B(  3-C ,  4-C ) :   1.5973 B(  3-C ,  5-H ) :   0.9942 B(  4-C , 20-C ) :   0.9932
B(  6-C ,  7-H ) :   0.9409 B(  6-C ,  8-H ) :   0.9440 B(  6-C ,  9-C ) :   1.0762
B(  9-C , 10-H ) :   0.9469 B(  9-C , 11-H ) :   0.9551 B(  9-C , 12-C ) :   1.0871
B( 12-C , 13-H ) :   0.9728 B( 12-C , 14-H ) :   0.9743 B( 12-C , 15-H ) :   0.9724
B( 16-S , 17-C ) :   1.1363 B( 16-S , 20-C ) :   1.1579 B( 17-C , 18-C ) :   1.6421
B( 17-C , 33-H ) :   0.9781 B( 18-C , 19-C ) :   1.2110 B( 18-C , 21-H ) :   0.9867
B( 19-C , 20-C ) :   1.6044 B( 19-C , 22-C ) :   1.0382 B( 22-C , 23-H ) :   0.9274
B( 22-C , 24-H ) :   0.9344 B( 22-C , 25-C ) :   1.0550 B( 25-C , 26-H ) :   0.9618
B( 25-C , 27-H ) :   0.9546 B( 25-C , 28-C ) :   1.0853 B( 28-C , 29-H ) :   0.9749
B( 28-C , 30-H ) :   0.9725 B( 28-C , 31-H ) :   0.9743

Dispersion correction           -0.014017904
FINAL SINGLE POINT ENERGY     -1339.873384544232

DIPOLE MOMENT
-------------
                                X             Y             Z
Electronic contribution:     18.05756     -17.20185       8.72429
Nuclear contribution   :    -18.36403      17.64885      -8.72264
                        -----------------------------------------
Total Dipole Moment    :     -0.30648       0.44700       0.00165
                        -----------------------------------------
Magnitude (a.u.)       :      0.54197
Magnitude (Debye)      :      1.37759

Rotational constants in cm-1:     0.019515     0.007610     0.006317
Rotational constants in MHz :   585.056468   228.146760   189.368635

                             ****ORCA TERMINATED NORMALLY****
TOTAL RUN TIME: 0 days 0 hours 0 minutes 22 seconds 104 msec
