                         Program Version 4.2.1 -  RELEASE  -
|  1> ! wB97X-D3 SP def2-SVP
|  2> %pal
|  3> nprocs 24
|  4> end
|  5>
|  6> * xyz 0 1
|  7> S 	 -70.3096 	 6.29884 	 -109.26
|  8> C 	 -71.7977 	 7.09259 	 -108.855
|  9> C 	 -72.749 	 6.22074 	 -108.346
| 10> C 	 -72.2654 	 4.89109 	 -108.409
| 11> C 	 -71.0357 	 4.70383 	 -109.036
| 12> H 	 -72.8904 	 4.05257 	 -108.151
| 13> C 	 -74.1224 	 6.51744 	 -107.746
| 14> H 	 -74.1234 	 7.57329 	 -107.414
| 15> H 	 -74.3309 	 5.88712 	 -106.899
| 16> C 	 -75.1364 	 6.14936 	 -108.848
| 17> H 	 -75.1744 	 6.91407 	 -109.652
| 18> H 	 -74.7561 	 5.22278 	 -109.263
| 19> C 	 -76.5485 	 6.03536 	 -108.267
| 20> H 	 -76.8089 	 5.14811 	 -107.747
| 21> H 	 -76.8531 	 6.81497 	 -107.608
| 22> H 	 -77.1804 	 6.2498 	 -109.159
| 23> S 	 -68.6875 	 3.27293 	 -108.699
| 24> C 	 -68.5682 	 1.6355 	 -109.278
| 25> C 	 -69.716 	 1.21644 	 -109.879
| 26> C 	 -70.7341 	 2.19471 	 -109.785
| 27> C 	 -70.3408 	 3.49827 	 -109.316
| 28> H 	 -69.7948 	 0.313698 	 -110.384
| 29> C 	 -72.095 	 1.79922 	 -110.338
| 30> H 	 -71.9906 	 1.17209 	 -111.29
| 31> H 	 -72.4588 	 2.66596 	 -110.855
| 32> C 	 -72.9856 	 1.11789 	 -109.326
| 33> H 	 -73.0861 	 1.70642 	 -108.379
| 34> H 	 -72.5161 	 0.158176 	 -109.13
| 35> C 	 -74.4245 	 0.851449 	 -109.9
| 36> H 	 -74.8182 	 1.82679 	 -110.147
| 37> H 	 -75.1362 	 0.418992 	 -109.246
| 38> H 	 -74.355 	 0.20533 	 -110.764
| 39> H 	 -71.8042 	 8.1475 	 -108.87
| 40> H 	 -67.591 	 1.10553 	 -109.274
| 41> *
| 42>
| 43>                          ****END OF INPUT****

CARTESIAN COORDINATES (ANGSTROEM)
---------------------------------
  S    -70.309600    6.298840  -109.260000
  C    -71.797700    7.092590  -108.855000
  C    -72.749000    6.220740  -108.346000
  C    -72.265400    4.891090  -108.409000
  C    -71.035700    4.703830  -109.036000
  H    -72.890400    4.052570  -108.151000
  C    -74.122400    6.517440  -107.746000
  H    -74.123400    7.573290  -107.414000
  H    -74.330900    5.887120  -106.899000
  C    -75.136400    6.149360  -108.848000
  H    -75.174400    6.914070  -109.652000
  H    -74.756100    5.222780  -109.263000
  C    -76.548500    6.035360  -108.267000
  H    -76.808900    5.148110  -107.747000
  H    -76.853100    6.814970  -107.608000
  H    -77.180400    6.249800  -109.159000
  S    -68.687500    3.272930  -108.699000
  C    -68.568200    1.635500  -109.278000
  C    -69.716000    1.216440  -109.879000
  C    -70.734100    2.194710  -109.785000
  C    -70.340800    3.498270  -109.316000
  H    -69.794800    0.313698  -110.384000
  C    -72.095000    1.799220  -110.338000
  H    -71.990600    1.172090  -111.290000
  H    -72.458800    2.665960  -110.855000
  C    -72.985600    1.117890  -109.326000
  H    -73.086100    1.706420  -108.379000
  H    -72.516100    0.158176  -109.130000
  C    -74.424500    0.851449  -109.900000
  H    -74.818200    1.826790  -110.147000
  H    -75.136200    0.418992  -109.246000
  H    -74.355000    0.205330  -110.764000
  H    -71.804200    8.147500  -108.870000
  H    -67.591000    1.105530  -109.274000

 Total Charge           Charge          ....    0
 Multiplicity           Mult            ....    1
 Number of Electrons    NEL             ....  134
 Basis Dimension        Dim             ....  322

ORBITAL ENERGIES
----------------

  NO   OCC          E(Eh)            E(eV)
   0   2.0000     -88.964602     -2420.8499
   1   2.0000     -88.962941     -2420.8047
   2   2.0000     -10.332193      -281.1533
   3   2.0000     -10.330498      -281.1072
   4   2.0000     -10.318456      -280.7795
   5   2.0000     -10.312923      -280.6289
   6   2.0000     -10.306871      -280.4642
   7   2.0000     -10.301274      -280.3119
   8   2.0000     -10.294778      -280.1352
   9   2.0000     -10.293291      -280.0947
  10   2.0000     -10.292011      -280.0599
  11   2.0000     -10.290344      -280.0145
  12   2.0000     -10.290276      -280.0126
  13   2.0000     -10.286996      -279.9234
  14   2.0000     -10.275577      -279.6127
  15   2.0000     -10.274559      -279.5850
  16   2.0000      -8.079597      -219.8570
  17   2.0000      -8.077607      -219.8029
  18   2.0000      -6.038118      -164.3056
  19   2.0000      -6.036123      -164.2513
  20   2.0000      -6.034097      -164.1961
  21   2.0000      -6.032039      -164.1401
  22   2.0000      -6.030316      -164.0932
  23   2.0000      -6.028438      -164.0421
  24   2.0000      -1.005779       -27.3686
  25   2.0000      -0.984663       -26.7940
  26   2.0000      -0.915847       -24.9215
  27   2.0000      -0.907859       -24.7041
  28   2.0000      -0.874798       -23.8045
  29   2.0000      -0.850071       -23.1316
  30   2.0000      -0.846086       -23.0232
  31   2.0000      -0.813810       -22.1449
  32   2.0000      -0.783422       -21.3180
  33   2.0000      -0.769379       -20.9359
  34   2.0000      -0.710443       -19.3321
  35   2.0000      -0.701478       -19.0882
  36   2.0000      -0.695617       -18.9287
  37   2.0000      -0.664467       -18.0811
  38   2.0000      -0.645225       -17.5575
  39   2.0000      -0.626108       -17.0373
  40   2.0000      -0.596591       -16.2341
  41   2.0000      -0.572403       -15.5759
  42   2.0000      -0.569386       -15.4938
  43   2.0000      -0.561780       -15.2868
  44   2.0000      -0.529477       -14.4078
  45   2.0000      -0.523168       -14.2361
  46   2.0000      -0.518714       -14.1149
  47   2.0000      -0.516324       -14.0499
  48   2.0000      -0.505973       -13.7682
  49   2.0000      -0.504155       -13.7188
  50   2.0000      -0.494187       -13.4475
  51   2.0000      -0.480980       -13.0881
  52   2.0000      -0.470138       -12.7931
  53   2.0000      -0.468182       -12.7399
  54   2.0000      -0.459624       -12.5070
  55   2.0000      -0.451534       -12.2869
  56   2.0000      -0.447469       -12.1762
  57   2.0000      -0.436365       -11.8741
  58   2.0000      -0.430096       -11.7035
  59   2.0000      -0.429456       -11.6861
  60   2.0000      -0.414903       -11.2901
  61   2.0000      -0.411101       -11.1866
  62   2.0000      -0.410671       -11.1749
  63   2.0000      -0.352470        -9.5912
  64   2.0000      -0.330683        -8.9983
  65   2.0000      -0.327999        -8.9253
  66   2.0000      -0.285698        -7.7742
  67   0.0000       0.020711         0.5636
  68   0.0000       0.070643         1.9223
  69   0.0000       0.113720         3.0945
  70   0.0000       0.119999         3.2653
  71   0.0000       0.125279         3.4090

MULLIKEN ATOMIC CHARGES
-----------------------
   0 S :    0.104537
   1 C :   -0.114905
   2 C :   -0.100583
   3 C :    0.035847
   4 C :   -0.154308
   5 H :   -0.006662
   6 C :    0.092028
   7 H :    0.030155
   8 H :    0.027011
   9 C :   -0.093083
  10 H :    0.036509
  11 H :    0.032636
  12 C :   -0.022065
  13 H :    0.033126
  14 H :    0.017653
  15 H :    0.030139
  16 S :    0.087954
  17 C :   -0.096069
  18 C :    0.007614
  19 C :   -0.052365
  20 C :   -0.112630
  21 H :   -0.001573
  22 C :    0.005542
  23 H :    0.025358
  24 H :    0.015444
  25 C :   -0.064442
  26 H :    0.045384
  27 H :    0.026696
  28 C :   -0.020713
  29 H :    0.023506
  30 H :    0.027988
  31 H :    0.027167
  32 H :    0.033444
  33 H :    0.073659
Sum of atomic charges:   -0.0000000

LOEWDIN ATOMIC CHARGES
----------------------
   0 S :    0.405959
   1 C :   -0.189951
   2 C :   -0.063184
   3 C :   -0.057023
   4 C :   -0.194813
   5 H :    0.024286
   6 C :   -0.025339
   7 H :    0.031931
   8 H :    0.029257
   9 C :   -0.034828
  10 H :    0.029470
  11 H :    0.024422
  12 C :   -0.070286
  13 H :    0.019923
  14 H :    0.021716
  15 H :    0.034604
  16 S :    0.398642
  17 C :   -0.183453
  18 C :   -0.069331
  19 C :   -0.046930
  20 C :   -0.197732
  21 H :    0.024314
  22 C :   -0.046733
  23 H :    0.036729
  24 H :    0.024205
  25 C :   -0.036571
  26 H :    0.026677
  27 H :    0.023882
  28 C :   -0.059716
  29 H :    0.023037
  30 H :    0.019974
  31 H :    0.023602
  32 H :    0.016238
  33 H :    0.037026

  Mayer bond orders larger than 0.100000
B(  0-S ,  1-C ) :   1.1538 B(  0-S ,  4-C ) :   1.1449 B(  1-C ,  2-C ) :   1.5863
B(  1-C ,  4-C ) :   0.1038 B(  1-C , 32-H ) :   0.9773 B(  2-C ,  3-C ) :   1.2684
B(  2-C ,  6-C ) :   1.0231 B(  3-C ,  4-C ) :   1.5442 B(  3-C ,  5-H ) :   0.9881
B(  4-C , 20-C ) :   1.0889 B(  6-C ,  7-H ) :   0.9371 B(  6-C ,  8-H ) :   0.9464
B(  6-C ,  9-C ) :   1.0513 B(  9-C , 10-H ) :   0.9580 B(  9-C , 11-H ) :   0.9620
B(  9-C , 12-C ) :   1.0736 B( 12-C , 13-H ) :   0.9770 B( 12-C , 14-H ) :   0.9701
B( 12-C , 15-H ) :   0.9750 B( 16-S , 17-C ) :   1.1737 B( 16-S , 20-C ) :   1.1280
B( 17-C , 18-C ) :   1.5684 B( 17-C , 20-C ) :   0.1077 B( 17-C , 33-H ) :   0.9597
B( 18-C , 19-C ) :   1.2688 B( 18-C , 21-H ) :   1.0049 B( 19-C , 20-C ) :   1.5481
B( 19-C , 22-C ) :   1.0427 B( 22-C , 23-H ) :   0.9426 B( 22-C , 24-H ) :   0.9399
B( 22-C , 25-C ) :   1.0451 B( 25-C , 26-H ) :   0.9560 B( 25-C , 27-H ) :   0.9516
B( 25-C , 28-C ) :   1.0757 B( 28-C , 29-H ) :   0.9769 B( 28-C , 30-H ) :   0.9767
B( 28-C , 31-H ) :   0.9746

Dispersion correction           -0.014238001
FINAL SINGLE POINT ENERGY     -1339.869797125634

DIPOLE MOMENT
-------------
                                X             Y             Z
Electronic contribution:     32.43186       7.10749       0.93902
Nuclear contribution   :    -33.10060      -7.34159      -0.95957
                        -----------------------------------------
Total Dipole Moment    :     -0.66874      -0.23410      -0.02055
                        -----------------------------------------
Magnitude (a.u.)       :      0.70882
Magnitude (Debye)      :      1.80169

Rotational constants in cm-1:     0.017037     0.009776     0.006532
Rotational constants in MHz :   510.770759   293.066438   195.820400

                             ****ORCA TERMINATED NORMALLY****
TOTAL RUN TIME: 0 days 0 hours 0 minutes 22 seconds 102 msec
