                         Program Version 4.2.1 -  RELEASE  -
|  1> ! wB97X-D3 SP def2-SVP
|  2> %pal
|  3> nprocs 24
|  4> end
|  5>
|  6> * xyz 0 1
|  7> S 	 28.2649 	 2.36205 	 -117.087
|  8> C 	 28.6888 	 2.86388 	 -118.758
|  9> C 	 30.0244 	 3.31559 	 -118.772
| 10> C 	 30.7017 	 3.13206 	 -117.461
| 11> C 	 29.9079 	 2.58333 	 -116.46
| 12> H 	 31.757 	 3.39076 	 -117.106
| 13> C 	 30.7012 	 3.86941 	 -120.025
| 14> H 	 30.9808 	 3.03495 	 -120.629
| 15> H 	 31.609 	 4.38089 	 -119.745
| 16> C 	 29.8508 	 4.86082 	 -120.84
| 17> H 	 28.8778 	 4.45334 	 -121.107
| 18> H 	 29.5902 	 5.69281 	 -120.217
| 19> C 	 30.5799 	 5.49409 	 -122.057
| 20> H 	 30.1974 	 5.06177 	 -122.98
| 21> H 	 30.3981 	 6.57509 	 -122.182
| 22> H 	 31.6712 	 5.31815 	 -122.053
| 23> S 	 29.0351 	 2.56435 	 -113.769
| 24> C 	 30.0062 	 1.689 	 -112.663
| 25> C 	 31.0531 	 1.07264 	 -113.219
| 26> C 	 31.266 	 1.48059 	 -114.595
| 27> C 	 30.2314 	 2.20498 	 -115.109
| 28> H 	 31.5985 	 0.450878 	 -112.473
| 29> C 	 32.5749 	 1.09258 	 -115.26
| 30> H 	 32.426 	 0.715319 	 -116.295
| 31> H 	 32.8096 	 0.191962 	 -114.754
| 32> C 	 33.7228 	 2.11421 	 -115.406
| 33> H 	 33.676 	 2.64693 	 -116.387
| 34> H 	 34.6236 	 1.62402 	 -115.627
| 35> C 	 34.0562 	 2.95278 	 -114.134
| 36> H 	 34.2552 	 2.33121 	 -113.227
| 37> H 	 33.1335 	 3.40101 	 -113.875
| 38> H 	 34.8592 	 3.72444 	 -114.285
| 39> H 	 28.0644 	 2.75618 	 -119.685
| 40> H 	 29.7188 	 1.44393 	 -111.666
| 41> *
| 42>
| 43>                          ****END OF INPUT****

CARTESIAN COORDINATES (ANGSTROEM)
---------------------------------
  S     28.264900    2.362050  -117.087000
  C     28.688800    2.863880  -118.758000
  C     30.024400    3.315590  -118.772000
  C     30.701700    3.132060  -117.461000
  C     29.907900    2.583330  -116.460000
  H     31.757000    3.390760  -117.106000
  C     30.701200    3.869410  -120.025000
  H     30.980800    3.034950  -120.629000
  H     31.609000    4.380890  -119.745000
  C     29.850800    4.860820  -120.840000
  H     28.877800    4.453340  -121.107000
  H     29.590200    5.692810  -120.217000
  C     30.579900    5.494090  -122.057000
  H     30.197400    5.061770  -122.980000
  H     30.398100    6.575090  -122.182000
  H     31.671200    5.318150  -122.053000
  S     29.035100    2.564350  -113.769000
  C     30.006200    1.689000  -112.663000
  C     31.053100    1.072640  -113.219000
  C     31.266000    1.480590  -114.595000
  C     30.231400    2.204980  -115.109000
  H     31.598500    0.450878  -112.473000
  C     32.574900    1.092580  -115.260000
  H     32.426000    0.715319  -116.295000
  H     32.809600    0.191962  -114.754000
  C     33.722800    2.114210  -115.406000
  H     33.676000    2.646930  -116.387000
  H     34.623600    1.624020  -115.627000
  C     34.056200    2.952780  -114.134000
  H     34.255200    2.331210  -113.227000
  H     33.133500    3.401010  -113.875000
  H     34.859200    3.724440  -114.285000
  H     28.064400    2.756180  -119.685000
  H     29.718800    1.443930  -111.666000

 Total Charge           Charge          ....    0
 Multiplicity           Mult            ....    1
 Number of Electrons    NEL             ....  134
 Basis Dimension        Dim             ....  322

ORBITAL ENERGIES
----------------

  NO   OCC          E(Eh)            E(eV)
   0   2.0000     -88.963968     -2420.8326
   1   2.0000     -88.963496     -2420.8198
   2   2.0000     -10.333821      -281.1976
   3   2.0000     -10.332575      -281.1637
   4   2.0000     -10.325106      -280.9604
   5   2.0000     -10.314050      -280.6596
   6   2.0000     -10.310175      -280.5541
   7   2.0000     -10.309539      -280.5368
   8   2.0000     -10.306850      -280.4636
   9   2.0000     -10.293906      -280.1114
  10   2.0000     -10.293060      -280.0884
  11   2.0000     -10.291999      -280.0595
  12   2.0000     -10.290396      -280.0159
  13   2.0000     -10.285951      -279.8950
  14   2.0000     -10.281998      -279.7874
  15   2.0000     -10.280649      -279.7507
  16   2.0000      -8.078260      -219.8206
  17   2.0000      -8.077568      -219.8018
  18   2.0000      -6.036974      -164.2744
  19   2.0000      -6.036385      -164.2584
  20   2.0000      -6.032829      -164.1616
  21   2.0000      -6.032173      -164.1438
  22   2.0000      -6.028717      -164.0497
  23   2.0000      -6.028103      -164.0330
  24   2.0000      -1.004122       -27.3235
  25   2.0000      -0.976186       -26.5634
  26   2.0000      -0.910076       -24.7644
  27   2.0000      -0.907296       -24.6888
  28   2.0000      -0.870662       -23.6919
  29   2.0000      -0.848571       -23.0908
  30   2.0000      -0.837137       -22.7797
  31   2.0000      -0.815723       -22.1970
  32   2.0000      -0.786196       -21.3935
  33   2.0000      -0.773146       -21.0384
  34   2.0000      -0.717427       -19.5222
  35   2.0000      -0.707458       -19.2509
  36   2.0000      -0.694571       -18.9002
  37   2.0000      -0.658743       -17.9253
  38   2.0000      -0.635894       -17.3036
  39   2.0000      -0.604284       -16.4434
  40   2.0000      -0.584871       -15.9152
  41   2.0000      -0.570879       -15.5344
  42   2.0000      -0.562025       -15.2935
  43   2.0000      -0.556142       -15.1334
  44   2.0000      -0.544197       -14.8084
  45   2.0000      -0.521851       -14.2003
  46   2.0000      -0.517230       -14.0745
  47   2.0000      -0.509337       -13.8598
  48   2.0000      -0.504668       -13.7327
  49   2.0000      -0.498636       -13.5686
  50   2.0000      -0.486075       -13.2268
  51   2.0000      -0.484620       -13.1872
  52   2.0000      -0.472925       -12.8690
  53   2.0000      -0.463105       -12.6017
  54   2.0000      -0.453112       -12.3298
  55   2.0000      -0.450318       -12.2538
  56   2.0000      -0.446910       -12.1610
  57   2.0000      -0.438021       -11.9192
  58   2.0000      -0.432492       -11.7687
  59   2.0000      -0.426284       -11.5998
  60   2.0000      -0.414581       -11.2813
  61   2.0000      -0.413198       -11.2437
  62   2.0000      -0.402750       -10.9594
  63   2.0000      -0.355438        -9.6720
  64   2.0000      -0.331946        -9.0327
  65   2.0000      -0.325446        -8.8558
  66   2.0000      -0.291996        -7.9456
  67   0.0000       0.025923         0.7054
  68   0.0000       0.064522         1.7557
  69   0.0000       0.109355         2.9757
  70   0.0000       0.121033         3.2935
  71   0.0000       0.126057         3.4302

MULLIKEN ATOMIC CHARGES
-----------------------
   0 S :    0.094440
   1 C :   -0.145230
   2 C :   -0.104978
   3 C :    0.005201
   4 C :   -0.145220
   5 H :    0.031013
   6 C :    0.097010
   7 H :    0.039004
   8 H :    0.018538
   9 C :   -0.088033
  10 H :    0.021842
  11 H :    0.027392
  12 C :   -0.060173
  13 H :    0.027934
  14 H :    0.039080
  15 H :    0.035555
  16 S :    0.093150
  17 C :   -0.067616
  18 C :   -0.057649
  19 C :   -0.054950
  20 C :   -0.141795
  21 H :    0.034971
  22 C :    0.089609
  23 H :    0.031333
  24 H :    0.011207
  25 C :   -0.050500
  26 H :    0.024530
  27 H :    0.008826
  28 C :   -0.056382
  29 H :    0.034338
  30 H :    0.032228
  31 H :    0.050258
  32 H :    0.080151
  33 H :    0.044916
Sum of atomic charges:   -0.0000000

LOEWDIN ATOMIC CHARGES
----------------------
   0 S :    0.376259
   1 C :   -0.199196
   2 C :   -0.055739
   3 C :   -0.078627
   4 C :   -0.182718
   5 H :    0.042972
   6 C :   -0.029037
   7 H :    0.030803
   8 H :    0.028761
   9 C :   -0.041709
  10 H :    0.019333
  11 H :    0.024878
  12 C :   -0.070484
  13 H :    0.024996
  14 H :    0.030158
  15 H :    0.027634
  16 S :    0.376496
  17 C :   -0.182600
  18 C :   -0.084634
  19 C :   -0.049884
  20 C :   -0.173171
  21 H :    0.043873
  22 C :   -0.033160
  23 H :    0.039937
  24 H :    0.026841
  25 C :   -0.045267
  26 H :    0.027849
  27 H :    0.020426
  28 C :   -0.070040
  29 H :    0.031122
  30 H :    0.019307
  31 H :    0.033818
  32 H :    0.044279
  33 H :    0.026524

  Mayer bond orders larger than 0.100000
B(  0-S ,  1-C ) :   1.1192 B(  0-S ,  4-C ) :   1.1285 B(  1-C ,  2-C ) :   1.6245
B(  1-C , 32-H ) :   0.9634 B(  2-C ,  3-C ) :   1.2026 B(  2-C ,  6-C ) :   1.0193
B(  3-C ,  4-C ) :   1.6039 B(  3-C ,  5-H ) :   0.9783 B(  4-C , 20-C ) :   1.0804
B(  6-C ,  7-H ) :   0.9357 B(  6-C ,  8-H ) :   0.9419 B(  6-C ,  9-C ) :   1.0694
B(  9-C , 10-H ) :   0.9587 B(  9-C , 11-H ) :   0.9639 B(  9-C , 12-C ) :   1.0627
B( 12-C , 13-H ) :   0.9769 B( 12-C , 14-H ) :   0.9801 B( 12-C , 15-H ) :   0.9781
B( 16-S , 17-C ) :   1.1401 B( 16-S , 20-C ) :   1.0990 B( 17-C , 18-C ) :   1.6945
B( 17-C , 33-H ) :   0.9579 B( 18-C , 19-C ) :   1.1745 B( 18-C , 21-H ) :   0.9822
B( 19-C , 20-C ) :   1.6352 B( 19-C , 22-C ) :   1.0434 B( 22-C , 23-H ) :   0.9262
B( 22-C , 24-H ) :   0.9312 B( 22-C , 25-C ) :   1.0694 B( 25-C , 26-H ) :   0.9500
B( 25-C , 27-H ) :   0.9428 B( 25-C , 28-C ) :   1.0630 B( 28-C , 29-H ) :   0.9730
B( 28-C , 30-H ) :   0.9751 B( 28-C , 31-H ) :   0.9748

Dispersion correction           -0.014233754
FINAL SINGLE POINT ENERGY     -1339.857100008213

DIPOLE MOMENT
-------------
                                X             Y             Z
Electronic contribution:    -20.77861      -7.88601      16.45493
Nuclear contribution   :     21.43453       7.76689     -16.69966
                        -----------------------------------------
Total Dipole Moment    :      0.65592      -0.11913      -0.24473
                        -----------------------------------------
Magnitude (a.u.)       :      0.71015
Magnitude (Debye)      :      1.80505

Rotational constants in cm-1:     0.021697     0.007560     0.006006
Rotational constants in MHz :   650.446159   226.637523   180.064818

                             ****ORCA TERMINATED NORMALLY****
TOTAL RUN TIME: 0 days 0 hours 0 minutes 21 seconds 265 msec
