                         Program Version 4.2.1 -  RELEASE  -
|  1> ! wB97X-D3 SP def2-SVP
|  2> %pal
|  3> nprocs 24
|  4> end
|  5>
|  6> * xyz 0 1
|  7> S 	 -85.8381 	 -3.29882 	 -65.5946
|  8> C 	 -86.1767 	 -2.04626 	 -66.8116
|  9> C 	 -86.3783 	 -0.787955 	 -66.2131
| 10> C 	 -86.1463 	 -0.91532 	 -64.8108
| 11> C 	 -85.8509 	 -2.16437 	 -64.3263
| 12> H 	 -86.2509 	 -0.0243512 	 -64.1895
| 13> C 	 -86.8861 	 0.501418 	 -66.9156
| 14> H 	 -86.9272 	 1.19727 	 -66.1519
| 15> H 	 -87.9222 	 0.436965 	 -67.296
| 16> C 	 -85.9615 	 1.22071 	 -67.8299
| 17> H 	 -86.4653 	 2.0942 	 -68.2022
| 18> H 	 -85.1067 	 1.78482 	 -67.3938
| 19> C 	 -85.474 	 0.296786 	 -68.9165
| 20> H 	 -84.9149 	 1.01074 	 -69.576
| 21> H 	 -84.8544 	 -0.545332 	 -68.6585
| 22> H 	 -86.3689 	 -0.1462 	 -69.3954
| 23> S 	 -84.3728 	 -1.62773 	 -62.0471
| 24> C 	 -84.46 	 -2.74277 	 -60.7334
| 25> C 	 -85.3967 	 -3.73048 	 -60.92
| 26> C 	 -86.0086 	 -3.66669 	 -62.2177
| 27> C 	 -85.5706 	 -2.59983 	 -62.9578
| 28> H 	 -85.6077 	 -4.4432 	 -60.1616
| 29> C 	 -87.0022 	 -4.72607 	 -62.6618
| 30> H 	 -86.7082 	 -5.60715 	 -62.0176
| 31> H 	 -86.8135 	 -5.11959 	 -63.665
| 32> C 	 -88.3963 	 -4.29162 	 -62.5631
| 33> H 	 -89.0286 	 -5.17736 	 -62.8791
| 34> H 	 -88.4719 	 -3.45466 	 -63.2175
| 35> C 	 -88.8928 	 -3.77436 	 -61.2102
| 36> H 	 -89.1885 	 -4.50809 	 -60.5151
| 37> H 	 -89.8373 	 -3.25324 	 -61.5373
| 38> H 	 -88.1419 	 -3.17018 	 -60.6862
| 39> H 	 -86.5316 	 -2.1432 	 -67.8272
| 40> H 	 -83.7947 	 -2.73965 	 -59.8894
| 41> *
| 42>
| 43>                          ****END OF INPUT****

CARTESIAN COORDINATES (ANGSTROEM)
---------------------------------
  S    -85.838100   -3.298820  -65.594600
  C    -86.176700   -2.046260  -66.811600
  C    -86.378300   -0.787955  -66.213100
  C    -86.146300   -0.915320  -64.810800
  C    -85.850900   -2.164370  -64.326300
  H    -86.250900   -0.024351  -64.189500
  C    -86.886100    0.501418  -66.915600
  H    -86.927200    1.197270  -66.151900
  H    -87.922200    0.436965  -67.296000
  C    -85.961500    1.220710  -67.829900
  H    -86.465300    2.094200  -68.202200
  H    -85.106700    1.784820  -67.393800
  C    -85.474000    0.296786  -68.916500
  H    -84.914900    1.010740  -69.576000
  H    -84.854400   -0.545332  -68.658500
  H    -86.368900   -0.146200  -69.395400
  S    -84.372800   -1.627730  -62.047100
  C    -84.460000   -2.742770  -60.733400
  C    -85.396700   -3.730480  -60.920000
  C    -86.008600   -3.666690  -62.217700
  C    -85.570600   -2.599830  -62.957800
  H    -85.607700   -4.443200  -60.161600
  C    -87.002200   -4.726070  -62.661800
  H    -86.708200   -5.607150  -62.017600
  H    -86.813500   -5.119590  -63.665000
  C    -88.396300   -4.291620  -62.563100
  H    -89.028600   -5.177360  -62.879100
  H    -88.471900   -3.454660  -63.217500
  C    -88.892800   -3.774360  -61.210200
  H    -89.188500   -4.508090  -60.515100
  H    -89.837300   -3.253240  -61.537300
  H    -88.141900   -3.170180  -60.686200
  H    -86.531600   -2.143200  -67.827200
  H    -83.794700   -2.739650  -59.889400

 Total Charge           Charge          ....    0
 Multiplicity           Mult            ....    1
 Number of Electrons    NEL             ....  134
 Basis Dimension        Dim             ....  322

ORBITAL ENERGIES
----------------

  NO   OCC          E(Eh)            E(eV)
   0   2.0000     -88.969623     -2420.9865
   1   2.0000     -88.966222     -2420.8940
   2   2.0000     -10.328434      -281.0510
   3   2.0000     -10.327808      -281.0340
   4   2.0000     -10.316001      -280.7127
   5   2.0000     -10.313936      -280.6565
   6   2.0000     -10.304324      -280.3949
   7   2.0000     -10.303038      -280.3599
   8   2.0000     -10.292408      -280.0707
   9   2.0000     -10.291552      -280.0474
  10   2.0000     -10.289152      -279.9821
  11   2.0000     -10.288343      -279.9600
  12   2.0000     -10.282821      -279.8098
  13   2.0000     -10.279880      -279.7297
  14   2.0000     -10.274718      -279.5893
  15   2.0000     -10.271585      -279.5040
  16   2.0000      -8.084088      -219.9792
  17   2.0000      -8.080835      -219.8907
  18   2.0000      -6.042714      -164.4306
  19   2.0000      -6.039325      -164.3384
  20   2.0000      -6.038487      -164.3156
  21   2.0000      -6.035370      -164.2308
  22   2.0000      -6.034898      -164.2179
  23   2.0000      -6.031615      -164.1286
  24   2.0000      -1.008976       -27.4556
  25   2.0000      -0.985480       -26.8163
  26   2.0000      -0.922017       -25.0893
  27   2.0000      -0.917410       -24.9640
  28   2.0000      -0.868471       -23.6323
  29   2.0000      -0.850286       -23.1375
  30   2.0000      -0.843675       -22.9576
  31   2.0000      -0.809475       -22.0269
  32   2.0000      -0.791482       -21.5373
  33   2.0000      -0.782315       -21.2879
  34   2.0000      -0.710112       -19.3231
  35   2.0000      -0.697123       -18.9697
  36   2.0000      -0.683795       -18.6070
  37   2.0000      -0.668333       -18.1863
  38   2.0000      -0.631555       -17.1855
  39   2.0000      -0.620151       -16.8752
  40   2.0000      -0.598677       -16.2908
  41   2.0000      -0.569977       -15.5099
  42   2.0000      -0.554972       -15.1016
  43   2.0000      -0.553704       -15.0670
  44   2.0000      -0.550272       -14.9737
  45   2.0000      -0.546755       -14.8780
  46   2.0000      -0.526639       -14.3306
  47   2.0000      -0.519516       -14.1368
  48   2.0000      -0.497606       -13.5406
  49   2.0000      -0.487824       -13.2744
  50   2.0000      -0.484977       -13.1969
  51   2.0000      -0.482161       -13.1203
  52   2.0000      -0.475631       -12.9426
  53   2.0000      -0.469121       -12.7654
  54   2.0000      -0.458039       -12.4639
  55   2.0000      -0.455505       -12.3949
  56   2.0000      -0.443269       -12.0620
  57   2.0000      -0.439465       -11.9584
  58   2.0000      -0.428893       -11.6708
  59   2.0000      -0.419648       -11.4192
  60   2.0000      -0.411603       -11.2003
  61   2.0000      -0.407923       -11.1002
  62   2.0000      -0.395986       -10.7753
  63   2.0000      -0.347404        -9.4533
  64   2.0000      -0.334658        -9.1065
  65   2.0000      -0.333672        -9.0797
  66   2.0000      -0.292172        -7.9504
  67   0.0000       0.028956         0.7879
  68   0.0000       0.070828         1.9273
  69   0.0000       0.101091         2.7508
  70   0.0000       0.120367         3.2753
  71   0.0000       0.128529         3.4975

MULLIKEN ATOMIC CHARGES
-----------------------
   0 S :    0.121394
   1 C :   -0.115971
   2 C :   -0.132279
   3 C :    0.014563
   4 C :   -0.139063
   5 H :    0.006593
   6 C :    0.100881
   7 H :   -0.011466
   8 H :    0.054198
   9 C :   -0.068481
  10 H :    0.018070
  11 H :    0.025819
  12 C :   -0.069519
  13 H :    0.036095
  14 H :    0.054953
  15 H :    0.023096
  16 S :    0.113458
  17 C :   -0.077974
  18 C :   -0.030959
  19 C :   -0.065047
  20 C :   -0.142527
  21 H :    0.008950
  22 C :    0.066662
  23 H :    0.017793
  24 H :    0.029497
  25 C :   -0.055034
  26 H :    0.041126
  27 H :    0.029507
  28 C :   -0.058419
  29 H :    0.016947
  30 H :    0.041685
  31 H :    0.047715
  32 H :    0.045387
  33 H :    0.052349
Sum of atomic charges:    0.0000000

LOEWDIN ATOMIC CHARGES
----------------------
   0 S :    0.433123
   1 C :   -0.202368
   2 C :   -0.053291
   3 C :   -0.075106
   4 C :   -0.211062
   5 H :    0.028504
   6 C :   -0.032697
   7 H :    0.023880
   8 H :    0.040345
   9 C :   -0.046219
  10 H :    0.025344
  11 H :    0.028212
  12 C :   -0.069872
  13 H :    0.031631
  14 H :    0.024500
  15 H :    0.022787
  16 S :    0.402104
  17 C :   -0.182657
  18 C :   -0.070450
  19 C :   -0.054993
  20 C :   -0.186697
  21 H :    0.027132
  22 C :   -0.042534
  23 H :    0.031836
  24 H :    0.024723
  25 C :   -0.043149
  26 H :    0.034577
  27 H :    0.024569
  28 C :   -0.067657
  29 H :    0.014237
  30 H :    0.038067
  31 H :    0.028662
  32 H :    0.026664
  33 H :    0.027854

  Mayer bond orders larger than 0.100000
B(  0-S ,  1-C ) :   1.1405 B(  0-S ,  4-C ) :   1.1648 B(  1-C ,  2-C ) :   1.6004
B(  1-C , 32-H ) :   0.9583 B(  2-C ,  3-C ) :   1.2944 B(  2-C ,  6-C ) :   1.0034
B(  3-C ,  4-C ) :   1.5478 B(  3-C ,  5-H ) :   0.9897 B(  4-C , 20-C ) :   1.0280
B(  6-C ,  7-H ) :   0.9225 B(  6-C ,  8-H ) :   0.9423 B(  6-C ,  9-C ) :   1.0862
B(  9-C , 10-H ) :   0.9457 B(  9-C , 11-H ) :   0.9504 B(  9-C , 12-C ) :   1.0851
B( 12-C , 13-H ) :   0.9720 B( 12-C , 14-H ) :   0.9691 B( 12-C , 15-H ) :   0.9719
B( 16-S , 17-C ) :   1.1604 B( 16-S , 20-C ) :   1.1260 B( 17-C , 18-C ) :   1.6168
B( 17-C , 33-H ) :   0.9661 B( 18-C , 19-C ) :   1.2271 B( 18-C , 21-H ) :   0.9940
B( 19-C , 20-C ) :   1.6138 B( 19-C , 22-C ) :   1.0261 B( 22-C , 23-H ) :   0.9284
B( 22-C , 24-H ) :   0.9345 B( 22-C , 25-C ) :   1.0776 B( 25-C , 26-H ) :   0.9493
B( 25-C , 27-H ) :   0.9562 B( 25-C , 28-C ) :   1.0747 B( 28-C , 29-H ) :   0.9753
B( 28-C , 30-H ) :   0.9769 B( 28-C , 31-H ) :   0.9710

Dispersion correction           -0.014825737
FINAL SINGLE POINT ENERGY     -1339.861677272515

DIPOLE MOMENT
-------------
                                X             Y             Z
Electronic contribution:     12.84450      -4.94906       8.15677
Nuclear contribution   :    -13.19206       5.08268      -8.09038
                        -----------------------------------------
Total Dipole Moment    :     -0.34756       0.13362       0.06639
                        -----------------------------------------
Magnitude (a.u.)       :      0.37824
Magnitude (Debye)      :      0.96140

Rotational constants in cm-1:     0.024529     0.007674     0.006790
Rotational constants in MHz :   735.366702   230.073692   203.551060

                             ****ORCA TERMINATED NORMALLY****
TOTAL RUN TIME: 0 days 0 hours 0 minutes 20 seconds 839 msec
