                         Program Version 4.2.1 -  RELEASE  -
|  1> ! wB97X-D3 SP def2-SVP
|  2> %pal
|  3> nprocs 24
|  4> end
|  5>
|  6> * xyz 0 1
|  7> S 	 36.7137 	 -7.69328 	 -113.568
|  8> C 	 38.2805 	 -7.11805 	 -113.926
|  9> C 	 38.2696 	 -5.75375 	 -114.157
| 10> C 	 37.011 	 -5.21045 	 -113.909
| 11> C 	 36.0228 	 -6.07276 	 -113.447
| 12> H 	 36.792 	 -4.1686 	 -113.978
| 13> C 	 39.3664 	 -4.95589 	 -114.674
| 14> H 	 39.0631 	 -4.53962 	 -115.639
| 15> H 	 40.0574 	 -5.73434 	 -115.017
| 16> C 	 40.0254 	 -3.9854 	 -113.62
| 17> H 	 39.3219 	 -3.29406 	 -113.242
| 18> H 	 40.3931 	 -4.60517 	 -112.853
| 19> C 	 41.2594 	 -3.25244 	 -114.268
| 20> H 	 41.5224 	 -2.43412 	 -113.474
| 21> H 	 42.0849 	 -3.96799 	 -114.403
| 22> H 	 41.0223 	 -2.68484 	 -115.158
| 23> S 	 33.3424 	 -6.73427 	 -113.349
| 24> C 	 32.2826 	 -5.90737 	 -112.182
| 25> C 	 32.9541 	 -4.95538 	 -111.538
| 26> C 	 34.3463 	 -4.80092 	 -111.895
| 27> C 	 34.6948 	 -5.75496 	 -112.88
| 28> H 	 32.4752 	 -4.47268 	 -110.702
| 29> C 	 35.1526 	 -3.64319 	 -111.184
| 30> H 	 34.4673 	 -3.13737 	 -110.548
| 31> H 	 35.5462 	 -2.99142 	 -111.927
| 32> C 	 36.3216 	 -4.13682 	 -110.284
| 33> H 	 36.909 	 -3.25874 	 -109.943
| 34> H 	 36.9772 	 -4.78223 	 -110.919
| 35> C 	 35.7701 	 -5.01451 	 -109.038
| 36> H 	 35.1843 	 -5.80785 	 -109.501
| 37> H 	 35.0612 	 -4.42391 	 -108.46
| 38> H 	 36.5081 	 -5.43545 	 -108.321
| 39> H 	 39.1513 	 -7.78132 	 -114.166
| 40> H 	 31.3033 	 -6.23287 	 -111.949
| 41> *
| 42>
| 43>                          ****END OF INPUT****

CARTESIAN COORDINATES (ANGSTROEM)
---------------------------------
  S     36.713700   -7.693280  -113.568000
  C     38.280500   -7.118050  -113.926000
  C     38.269600   -5.753750  -114.157000
  C     37.011000   -5.210450  -113.909000
  C     36.022800   -6.072760  -113.447000
  H     36.792000   -4.168600  -113.978000
  C     39.366400   -4.955890  -114.674000
  H     39.063100   -4.539620  -115.639000
  H     40.057400   -5.734340  -115.017000
  C     40.025400   -3.985400  -113.620000
  H     39.321900   -3.294060  -113.242000
  H     40.393100   -4.605170  -112.853000
  C     41.259400   -3.252440  -114.268000
  H     41.522400   -2.434120  -113.474000
  H     42.084900   -3.967990  -114.403000
  H     41.022300   -2.684840  -115.158000
  S     33.342400   -6.734270  -113.349000
  C     32.282600   -5.907370  -112.182000
  C     32.954100   -4.955380  -111.538000
  C     34.346300   -4.800920  -111.895000
  C     34.694800   -5.754960  -112.880000
  H     32.475200   -4.472680  -110.702000
  C     35.152600   -3.643190  -111.184000
  H     34.467300   -3.137370  -110.548000
  H     35.546200   -2.991420  -111.927000
  C     36.321600   -4.136820  -110.284000
  H     36.909000   -3.258740  -109.943000
  H     36.977200   -4.782230  -110.919000
  C     35.770100   -5.014510  -109.038000
  H     35.184300   -5.807850  -109.501000
  H     35.061200   -4.423910  -108.460000
  H     36.508100   -5.435450  -108.321000
  H     39.151300   -7.781320  -114.166000
  H     31.303300   -6.232870  -111.949000

 Total Charge           Charge          ....    0
 Multiplicity           Mult            ....    1
 Number of Electrons    NEL             ....  134
 Basis Dimension        Dim             ....  322

ORBITAL ENERGIES
----------------

  NO   OCC          E(Eh)            E(eV)
   0   2.0000     -88.965427     -2420.8724
   1   2.0000     -88.965023     -2420.8614
   2   2.0000     -10.335201      -281.2351
   3   2.0000     -10.331258      -281.1278
   4   2.0000     -10.314509      -280.6721
   5   2.0000     -10.312566      -280.6192
   6   2.0000     -10.311780      -280.5978
   7   2.0000     -10.295887      -280.1653
   8   2.0000     -10.294533      -280.1285
   9   2.0000     -10.290829      -280.0277
  10   2.0000     -10.290089      -280.0076
  11   2.0000     -10.290007      -280.0053
  12   2.0000     -10.288729      -279.9706
  13   2.0000     -10.288341      -279.9600
  14   2.0000     -10.286675      -279.9147
  15   2.0000     -10.279797      -279.7275
  16   2.0000      -8.080214      -219.8738
  17   2.0000      -8.080153      -219.8722
  18   2.0000      -6.038834      -164.3250
  19   2.0000      -6.038585      -164.3183
  20   2.0000      -6.034681      -164.2120
  21   2.0000      -6.034529      -164.2079
  22   2.0000      -6.031049      -164.1132
  23   2.0000      -6.030882      -164.1087
  24   2.0000      -1.008106       -27.4320
  25   2.0000      -0.988399       -26.8957
  26   2.0000      -0.912323       -24.8256
  27   2.0000      -0.897425       -24.4202
  28   2.0000      -0.870818       -23.6962
  29   2.0000      -0.850239       -23.1362
  30   2.0000      -0.836831       -22.7713
  31   2.0000      -0.816416       -22.2158
  32   2.0000      -0.779583       -21.2135
  33   2.0000      -0.768235       -20.9047
  34   2.0000      -0.713084       -19.4040
  35   2.0000      -0.703799       -19.1513
  36   2.0000      -0.686525       -18.6813
  37   2.0000      -0.661265       -17.9939
  38   2.0000      -0.639344       -17.3974
  39   2.0000      -0.624559       -16.9951
  40   2.0000      -0.592597       -16.1254
  41   2.0000      -0.570915       -15.5354
  42   2.0000      -0.562642       -15.3103
  43   2.0000      -0.552633       -15.0379
  44   2.0000      -0.541109       -14.7243
  45   2.0000      -0.524967       -14.2851
  46   2.0000      -0.513724       -13.9791
  47   2.0000      -0.504991       -13.7415
  48   2.0000      -0.502489       -13.6734
  49   2.0000      -0.496640       -13.5143
  50   2.0000      -0.489532       -13.3208
  51   2.0000      -0.473939       -12.8965
  52   2.0000      -0.470135       -12.7930
  53   2.0000      -0.466812       -12.7026
  54   2.0000      -0.465341       -12.6626
  55   2.0000      -0.446460       -12.1488
  56   2.0000      -0.441159       -12.0045
  57   2.0000      -0.435545       -11.8518
  58   2.0000      -0.434022       -11.8103
  59   2.0000      -0.427052       -11.6207
  60   2.0000      -0.419539       -11.4162
  61   2.0000      -0.416095       -11.3225
  62   2.0000      -0.415131       -11.2963
  63   2.0000      -0.352961        -9.6046
  64   2.0000      -0.333268        -9.0687
  65   2.0000      -0.327553        -8.9132
  66   2.0000      -0.290868        -7.9149
  67   0.0000       0.025788         0.7017
  68   0.0000       0.074041         2.0148
  69   0.0000       0.110856         3.0165
  70   0.0000       0.125671         3.4197
  71   0.0000       0.132224         3.5980

MULLIKEN ATOMIC CHARGES
-----------------------
   0 S :    0.114382
   1 C :   -0.133464
   2 C :   -0.107767
   3 C :    0.031580
   4 C :   -0.138132
   5 H :   -0.007101
   6 C :    0.061389
   7 H :    0.032887
   8 H :   -0.000532
   9 C :   -0.033857
  10 H :    0.027619
  11 H :    0.026663
  12 C :   -0.078992
  13 H :    0.042655
  14 H :    0.047281
  15 H :    0.038498
  16 S :    0.097510
  17 C :   -0.074891
  18 C :   -0.024947
  19 C :   -0.062437
  20 C :   -0.168070
  21 H :    0.017853
  22 C :    0.112917
  23 H :    0.009516
  24 H :    0.033409
  25 C :   -0.102844
  26 H :    0.037784
  27 H :    0.054677
  28 C :   -0.078158
  29 H :    0.046237
  30 H :    0.019784
  31 H :    0.050060
  32 H :    0.065585
  33 H :    0.042905
Sum of atomic charges:    0.0000000

LOEWDIN ATOMIC CHARGES
----------------------
   0 S :    0.419285
   1 C :   -0.216750
   2 C :   -0.079112
   3 C :   -0.060538
   4 C :   -0.194767
   5 H :    0.024011
   6 C :   -0.039103
   7 H :    0.034277
   8 H :    0.029495
   9 C :   -0.021936
  10 H :    0.017380
  11 H :    0.023160
  12 C :   -0.069319
  13 H :    0.036675
  14 H :    0.027660
  15 H :    0.021408
  16 S :    0.395943
  17 C :   -0.168232
  18 C :   -0.072344
  19 C :   -0.052683
  20 C :   -0.200775
  21 H :    0.031731
  22 C :   -0.017002
  23 H :    0.023577
  24 H :    0.027406
  25 C :   -0.038774
  26 H :    0.022993
  27 H :    0.028380
  28 C :   -0.072265
  29 H :    0.028064
  30 H :    0.018243
  31 H :    0.030404
  32 H :    0.039441
  33 H :    0.024067

  Mayer bond orders larger than 0.100000
B(  0-S ,  1-C ) :   1.1651 B(  0-S ,  4-C ) :   1.1563 B(  1-C ,  2-C ) :   1.5649
B(  1-C ,  4-C ) :   0.1026 B(  1-C , 32-H ) :   0.9569 B(  2-C ,  3-C ) :   1.2810
B(  2-C ,  6-C ) :   1.0379 B(  3-C ,  4-C ) :   1.5338 B(  3-C ,  5-H ) :   1.0069
B(  4-C , 20-C ) :   1.0408 B(  6-C ,  7-H ) :   0.9359 B(  6-C ,  8-H ) :   0.9328
B(  6-C ,  9-C ) :   1.0432 B(  9-C , 10-H ) :   0.9648 B(  9-C , 11-H ) :   0.9541
B(  9-C , 12-C ) :   1.0786 B( 12-C , 13-H ) :   0.9765 B( 12-C , 14-H ) :   0.9774
B( 12-C , 15-H ) :   0.9775 B( 16-S , 17-C ) :   1.1237 B( 16-S , 20-C ) :   1.1551
B( 17-C , 18-C ) :   1.6526 B( 17-C , 33-H ) :   0.9710 B( 18-C , 19-C ) :   1.2287
B( 18-C , 21-H ) :   0.9834 B( 19-C , 20-C ) :   1.5884 B( 19-C , 22-C ) :   1.0180
B( 22-C , 23-H ) :   0.9394 B( 22-C , 24-H ) :   0.9387 B( 22-C , 25-C ) :   1.0635
B( 25-C , 26-H ) :   0.9597 B( 25-C , 27-H ) :   0.9609 B( 25-C , 28-C ) :   1.0489
B( 28-C , 29-H ) :   0.9783 B( 28-C , 30-H ) :   0.9784 B( 28-C , 31-H ) :   0.9790

Dispersion correction           -0.014992802
FINAL SINGLE POINT ENERGY     -1339.874751120160

DIPOLE MOMENT
-------------
                                X             Y             Z
Electronic contribution:    -20.16908     -18.52387      -9.76036
Nuclear contribution   :     20.47518      19.04096       9.97992
                        -----------------------------------------
Total Dipole Moment    :      0.30610       0.51710       0.21956
                        -----------------------------------------
Magnitude (a.u.)       :      0.63976
Magnitude (Debye)      :      1.62614

Rotational constants in cm-1:     0.019975     0.008647     0.006962
Rotational constants in MHz :   598.830952   259.238330   208.710668

                             ****ORCA TERMINATED NORMALLY****
TOTAL RUN TIME: 0 days 0 hours 0 minutes 22 seconds 98 msec
