                         Program Version 4.2.1 -  RELEASE  -
|  1> ! wB97X-D3 SP def2-SVP
|  2> %pal
|  3> nprocs 24
|  4> end
|  5>
|  6> * xyz 0 1
|  7> S 	 -33.4039 	 -7.13304 	 8.43811
|  8> C 	 -33.2104 	 -6.7055 	 10.0505
|  9> C 	 -34.2827 	 -7.00328 	 10.8149
| 10> C 	 -35.275 	 -7.7341 	 10.1303
| 11> C 	 -35.0651 	 -7.67994 	 8.79603
| 12> H 	 -36.1216 	 -8.23676 	 10.6297
| 13> C 	 -34.4225 	 -6.83629 	 12.3523
| 14> H 	 -35.5172 	 -6.71753 	 12.4045
| 15> H 	 -33.9753 	 -5.93463 	 12.7935
| 16> C 	 -34.0351 	 -8.11556 	 13.1441
| 17> H 	 -34.2627 	 -9.01227 	 12.6351
| 18> H 	 -32.9182 	 -8.06165 	 13.2358
| 19> C 	 -34.6752 	 -8.39269 	 14.5072
| 20> H 	 -35.7042 	 -8.7598 	 14.3772
| 21> H 	 -34.0883 	 -9.20805 	 15.055
| 22> H 	 -34.7319 	 -7.47694 	 15.1075
| 23> S 	 -35.2746 	 -9.72765 	 7.19723
| 24> C 	 -36.6944 	 -9.88936 	 6.15276
| 25> C 	 -37.6293 	 -8.85386 	 6.34355
| 26> C 	 -37.2469 	 -7.93694 	 7.36699
| 27> C 	 -35.9253 	 -8.18973 	 7.77672
| 28> H 	 -38.4946 	 -8.93323 	 5.70734
| 29> C 	 -38.195 	 -6.81501 	 7.83936
| 30> H 	 -38.4809 	 -7.09731 	 8.81001
| 31> H 	 -39.0907 	 -6.84318 	 7.20459
| 32> C 	 -37.5077 	 -5.46566 	 7.90448
| 33> H 	 -37.0115 	 -5.32337 	 6.94817
| 34> H 	 -36.7488 	 -5.37156 	 8.66663
| 35> C 	 -38.3936 	 -4.33994 	 8.15982
| 36> H 	 -38.9769 	 -4.4079 	 9.10211
| 37> H 	 -39.0251 	 -4.12075 	 7.33876
| 38> H 	 -37.7789 	 -3.41752 	 8.22234
| 39> H 	 -32.2999 	 -6.39761 	 10.5057
| 40> H 	 -36.6889 	 -10.5035 	 5.18554
| 41> *
| 42>
| 43>                          ****END OF INPUT****

CARTESIAN COORDINATES (ANGSTROEM)
---------------------------------
  S    -33.403900   -7.133040    8.438110
  C    -33.210400   -6.705500   10.050500
  C    -34.282700   -7.003280   10.814900
  C    -35.275000   -7.734100   10.130300
  C    -35.065100   -7.679940    8.796030
  H    -36.121600   -8.236760   10.629700
  C    -34.422500   -6.836290   12.352300
  H    -35.517200   -6.717530   12.404500
  H    -33.975300   -5.934630   12.793500
  C    -34.035100   -8.115560   13.144100
  H    -34.262700   -9.012270   12.635100
  H    -32.918200   -8.061650   13.235800
  C    -34.675200   -8.392690   14.507200
  H    -35.704200   -8.759800   14.377200
  H    -34.088300   -9.208050   15.055000
  H    -34.731900   -7.476940   15.107500
  S    -35.274600   -9.727650    7.197230
  C    -36.694400   -9.889360    6.152760
  C    -37.629300   -8.853860    6.343550
  C    -37.246900   -7.936940    7.366990
  C    -35.925300   -8.189730    7.776720
  H    -38.494600   -8.933230    5.707340
  C    -38.195000   -6.815010    7.839360
  H    -38.480900   -7.097310    8.810010
  H    -39.090700   -6.843180    7.204590
  C    -37.507700   -5.465660    7.904480
  H    -37.011500   -5.323370    6.948170
  H    -36.748800   -5.371560    8.666630
  C    -38.393600   -4.339940    8.159820
  H    -38.976900   -4.407900    9.102110
  H    -39.025100   -4.120750    7.338760
  H    -37.778900   -3.417520    8.222340
  H    -32.299900   -6.397610   10.505700
  H    -36.688900  -10.503500    5.185540

 Total Charge           Charge          ....    0
 Multiplicity           Mult            ....    1
 Number of Electrons    NEL             ....  134
 Basis Dimension        Dim             ....  322

ORBITAL ENERGIES
----------------

  NO   OCC          E(Eh)            E(eV)
   0   2.0000     -88.963960     -2420.8324
   1   2.0000     -88.963764     -2420.8271
   2   2.0000     -10.323405      -280.9141
   3   2.0000     -10.322622      -280.8928
   4   2.0000     -10.320130      -280.8250
   5   2.0000     -10.310305      -280.5577
   6   2.0000     -10.301807      -280.3264
   7   2.0000     -10.296726      -280.1882
   8   2.0000     -10.295369      -280.1512
   9   2.0000     -10.293614      -280.1035
  10   2.0000     -10.291211      -280.0381
  11   2.0000     -10.290364      -280.0150
  12   2.0000     -10.285713      -279.8885
  13   2.0000     -10.285622      -279.8860
  14   2.0000     -10.273222      -279.5486
  15   2.0000     -10.269293      -279.4417
  16   2.0000      -8.079761      -219.8615
  17   2.0000      -8.078016      -219.8140
  18   2.0000      -6.038121      -164.3056
  19   2.0000      -6.036478      -164.2609
  20   2.0000      -6.034317      -164.2021
  21   2.0000      -6.032612      -164.1557
  22   2.0000      -6.030402      -164.0956
  23   2.0000      -6.028810      -164.0523
  24   2.0000      -1.013309       -27.5735
  25   2.0000      -0.982157       -26.7259
  26   2.0000      -0.916199       -24.9310
  27   2.0000      -0.905217       -24.6322
  28   2.0000      -0.873292       -23.7635
  29   2.0000      -0.855955       -23.2917
  30   2.0000      -0.850811       -23.1518
  31   2.0000      -0.811377       -22.0787
  32   2.0000      -0.782585       -21.2952
  33   2.0000      -0.768028       -20.8991
  34   2.0000      -0.705934       -19.2094
  35   2.0000      -0.694417       -18.8961
  36   2.0000      -0.689969       -18.7750
  37   2.0000      -0.656069       -17.8525
  38   2.0000      -0.642234       -17.4761
  39   2.0000      -0.624299       -16.9880
  40   2.0000      -0.590369       -16.0648
  41   2.0000      -0.575193       -15.6518
  42   2.0000      -0.560275       -15.2459
  43   2.0000      -0.555648       -15.1200
  44   2.0000      -0.527857       -14.3637
  45   2.0000      -0.523754       -14.2521
  46   2.0000      -0.517354       -14.0779
  47   2.0000      -0.511355       -13.9147
  48   2.0000      -0.504271       -13.7219
  49   2.0000      -0.500078       -13.6078
  50   2.0000      -0.493345       -13.4246
  51   2.0000      -0.486818       -13.2470
  52   2.0000      -0.471371       -12.8267
  53   2.0000      -0.464856       -12.6494
  54   2.0000      -0.460617       -12.5340
  55   2.0000      -0.445901       -12.1336
  56   2.0000      -0.441838       -12.0230
  57   2.0000      -0.434233       -11.8161
  58   2.0000      -0.427681       -11.6378
  59   2.0000      -0.422241       -11.4898
  60   2.0000      -0.418118       -11.3776
  61   2.0000      -0.416616       -11.3367
  62   2.0000      -0.414314       -11.2741
  63   2.0000      -0.342274        -9.3138
  64   2.0000      -0.328507        -8.9391
  65   2.0000      -0.318098        -8.6559
  66   2.0000      -0.299090        -8.1387
  67   0.0000       0.028661         0.7799
  68   0.0000       0.066577         1.8117
  69   0.0000       0.109724         2.9857
  70   0.0000       0.121668         3.3108
  71   0.0000       0.131816         3.5869

MULLIKEN ATOMIC CHARGES
-----------------------
   0 S :    0.120796
   1 C :   -0.091470
   2 C :   -0.097592
   3 C :    0.026665
   4 C :   -0.176020
   5 H :    0.031922
   6 C :    0.061993
   7 H :    0.015702
   8 H :    0.034702
   9 C :   -0.071137
  10 H :    0.021588
  11 H :    0.031345
  12 C :   -0.075558
  13 H :    0.034556
  14 H :    0.050693
  15 H :    0.033346
  16 S :    0.103085
  17 C :   -0.122752
  18 C :   -0.066532
  19 C :   -0.017442
  20 C :   -0.184124
  21 H :    0.021137
  22 C :    0.152461
  23 H :    0.011146
  24 H :    0.016590
  25 C :   -0.089115
  26 H :    0.026992
  27 H :    0.039889
  28 C :   -0.029857
  29 H :    0.031042
  30 H :    0.015036
  31 H :    0.026500
  32 H :    0.030723
  33 H :    0.083689
Sum of atomic charges:   -0.0000000

LOEWDIN ATOMIC CHARGES
----------------------
   0 S :    0.415783
   1 C :   -0.212757
   2 C :   -0.070248
   3 C :   -0.055587
   4 C :   -0.197244
   5 H :    0.040273
   6 C :   -0.031370
   7 H :    0.027763
   8 H :    0.030316
   9 C :   -0.047779
  10 H :    0.019527
  11 H :    0.027217
  12 C :   -0.071292
  13 H :    0.024200
  14 H :    0.038485
  15 H :    0.021464
  16 S :    0.397732
  17 C :   -0.200995
  18 C :   -0.074213
  19 C :   -0.044112
  20 C :   -0.195390
  21 H :    0.032074
  22 C :   -0.018043
  23 H :    0.026048
  24 H :    0.032316
  25 C :   -0.047236
  26 H :    0.027441
  27 H :    0.029257
  28 C :   -0.065154
  29 H :    0.026602
  30 H :    0.015885
  31 H :    0.031784
  32 H :    0.024512
  33 H :    0.042742

  Mayer bond orders larger than 0.100000
B(  0-S ,  1-C ) :   1.1414 B(  0-S ,  4-C ) :   1.1379 B(  1-C ,  2-C ) :   1.6387
B(  1-C , 32-H ) :   0.9663 B(  2-C ,  3-C ) :   1.2329 B(  2-C ,  6-C ) :   1.0127
B(  3-C ,  4-C ) :   1.5927 B(  3-C ,  5-H ) :   0.9904 B(  4-C , 20-C ) :   1.0298
B(  6-C ,  7-H ) :   0.9424 B(  6-C ,  8-H ) :   0.9470 B(  6-C ,  9-C ) :   1.0532
B(  9-C , 10-H ) :   0.9608 B(  9-C , 11-H ) :   0.9566 B(  9-C , 12-C ) :   1.0757
B( 12-C , 13-H ) :   0.9759 B( 12-C , 14-H ) :   0.9724 B( 12-C , 15-H ) :   0.9772
B( 16-S , 17-C ) :   1.1482 B( 16-S , 20-C ) :   1.1609 B( 17-C , 18-C ) :   1.6312
B( 17-C , 20-C ) :   0.1157 B( 17-C , 33-H ) :   0.9499 B( 18-C , 19-C ) :   1.2178
B( 18-C , 21-H ) :   0.9896 B( 19-C , 20-C ) :   1.5890 B( 19-C , 22-C ) :   1.0365
B( 22-C , 23-H ) :   0.9104 B( 22-C , 24-H ) :   0.9378 B( 22-C , 25-C ) :   1.0739
B( 25-C , 26-H ) :   0.9544 B( 25-C , 27-H ) :   0.9440 B( 25-C , 28-C ) :   1.1153
B( 28-C , 29-H ) :   0.9682 B( 28-C , 30-H ) :   0.9698 B( 28-C , 31-H ) :   0.9688

Dispersion correction           -0.014327158
FINAL SINGLE POINT ENERGY     -1339.856488385047

DIPOLE MOMENT
-------------
                                X             Y             Z
Electronic contribution:     11.47124     -11.05736     -19.58940
Nuclear contribution   :    -11.82469      11.20915      19.94186
                        -----------------------------------------
Total Dipole Moment    :     -0.35345       0.15179       0.35246
                        -----------------------------------------
Magnitude (a.u.)       :      0.52172
Magnitude (Debye)      :      1.32612

Rotational constants in cm-1:     0.017257     0.008636     0.007380
Rotational constants in MHz :   517.349801   258.887901   221.254062

                             ****ORCA TERMINATED NORMALLY****
TOTAL RUN TIME: 0 days 0 hours 0 minutes 20 seconds 682 msec
