                         Program Version 4.2.1 -  RELEASE  -
|  1> ! wB97X-D3 SP def2-SVP
|  2> %pal
|  3> nprocs 24
|  4> end
|  5>
|  6> * xyz 0 1
|  7> S 	 -111.632 	 16.5402 	 -118.147
|  8> C 	 -112.56 	 17.4648 	 -116.988
|  9> C 	 -111.862 	 18.5408 	 -116.493
| 10> C 	 -110.636 	 18.6696 	 -117.185
| 11> C 	 -110.333 	 17.7216 	 -118.114
| 12> H 	 -109.937 	 19.4184 	 -116.851
| 13> C 	 -112.306 	 19.5048 	 -115.405
| 14> H 	 -113.075 	 18.9851 	 -114.819
| 15> H 	 -112.805 	 20.3222 	 -115.937
| 16> C 	 -111.218 	 20.0498 	 -114.467
| 17> H 	 -110.57 	 20.7052 	 -115.02
| 18> H 	 -111.831 	 20.7453 	 -113.892
| 19> C 	 -110.381 	 19.0084 	 -113.619
| 20> H 	 -109.835 	 18.3035 	 -114.208
| 21> H 	 -109.643 	 19.5557 	 -113.094
| 22> H 	 -110.981 	 18.4782 	 -112.893
| 23> S 	 -109.761 	 17.1591 	 -120.769
| 24> C 	 -108.273 	 17.5899 	 -121.389
| 25> C 	 -107.459 	 18.1621 	 -120.441
| 26> C 	 -108.051 	 18.2388 	 -119.137
| 27> C 	 -109.362 	 17.8194 	 -119.162
| 28> H 	 -106.536 	 18.455 	 -120.757
| 29> C 	 -107.33 	 18.9101 	 -118.029
| 30> H 	 -107.886 	 19.5455 	 -117.412
| 31> H 	 -106.743 	 19.7058 	 -118.528
| 32> C 	 -106.63 	 17.9301 	 -117.134
| 33> H 	 -105.973 	 17.3927 	 -117.855
| 34> H 	 -107.214 	 17.2069 	 -116.539
| 35> C 	 -105.762 	 18.7677 	 -116.191
| 36> H 	 -105.185 	 18.1676 	 -115.487
| 37> H 	 -106.455 	 19.4257 	 -115.614
| 38> H 	 -104.966 	 19.3569 	 -116.651
| 39> H 	 -113.525 	 17.1218 	 -116.599
| 40> H 	 -108.089 	 17.6606 	 -122.414
| 41> *
| 42>
| 43>                          ****END OF INPUT****

CARTESIAN COORDINATES (ANGSTROEM)
---------------------------------
  S    -111.632000   16.540200  -118.147000
  C    -112.560000   17.464800  -116.988000
  C    -111.862000   18.540800  -116.493000
  C    -110.636000   18.669600  -117.185000
  C    -110.333000   17.721600  -118.114000
  H    -109.937000   19.418400  -116.851000
  C    -112.306000   19.504800  -115.405000
  H    -113.075000   18.985100  -114.819000
  H    -112.805000   20.322200  -115.937000
  C    -111.218000   20.049800  -114.467000
  H    -110.570000   20.705200  -115.020000
  H    -111.831000   20.745300  -113.892000
  C    -110.381000   19.008400  -113.619000
  H    -109.835000   18.303500  -114.208000
  H    -109.643000   19.555700  -113.094000
  H    -110.981000   18.478200  -112.893000
  S    -109.761000   17.159100  -120.769000
  C    -108.273000   17.589900  -121.389000
  C    -107.459000   18.162100  -120.441000
  C    -108.051000   18.238800  -119.137000
  C    -109.362000   17.819400  -119.162000
  H    -106.536000   18.455000  -120.757000
  C    -107.330000   18.910100  -118.029000
  H    -107.886000   19.545500  -117.412000
  H    -106.743000   19.705800  -118.528000
  C    -106.630000   17.930100  -117.134000
  H    -105.973000   17.392700  -117.855000
  H    -107.214000   17.206900  -116.539000
  C    -105.762000   18.767700  -116.191000
  H    -105.185000   18.167600  -115.487000
  H    -106.455000   19.425700  -115.614000
  H    -104.966000   19.356900  -116.651000
  H    -113.525000   17.121800  -116.599000
  H    -108.089000   17.660600  -122.414000

 Total Charge           Charge          ....    0
 Multiplicity           Mult            ....    1
 Number of Electrons    NEL             ....  134
 Basis Dimension        Dim             ....  322

ORBITAL ENERGIES
----------------

  NO   OCC          E(Eh)            E(eV)
   0   2.0000     -88.962875     -2420.8029
   1   2.0000     -88.961272     -2420.7593
   2   2.0000     -10.324157      -280.9346
   3   2.0000     -10.323767      -280.9240
   4   2.0000     -10.310632      -280.5666
   5   2.0000     -10.303752      -280.3793
   6   2.0000     -10.297719      -280.2152
   7   2.0000     -10.294707      -280.1332
   8   2.0000     -10.294271      -280.1214
   9   2.0000     -10.293497      -280.1003
  10   2.0000     -10.288306      -279.9590
  11   2.0000     -10.284636      -279.8592
  12   2.0000     -10.284587      -279.8578
  13   2.0000     -10.283150      -279.8187
  14   2.0000     -10.279208      -279.7115
  15   2.0000     -10.278974      -279.7051
  16   2.0000      -8.077657      -219.8042
  17   2.0000      -8.077306      -219.7947
  18   2.0000      -6.036232      -164.2542
  19   2.0000      -6.035743      -164.2409
  20   2.0000      -6.032155      -164.1433
  21   2.0000      -6.031499      -164.1254
  22   2.0000      -6.028367      -164.0402
  23   2.0000      -6.028203      -164.0357
  24   2.0000      -1.011353       -27.5203
  25   2.0000      -0.988293       -26.8928
  26   2.0000      -0.922190       -25.0941
  27   2.0000      -0.910399       -24.7732
  28   2.0000      -0.872234       -23.7347
  29   2.0000      -0.855070       -23.2676
  30   2.0000      -0.841521       -22.8990
  31   2.0000      -0.815103       -22.1801
  32   2.0000      -0.788987       -21.4694
  33   2.0000      -0.777053       -21.1447
  34   2.0000      -0.714873       -19.4527
  35   2.0000      -0.701894       -19.0995
  36   2.0000      -0.695493       -18.9253
  37   2.0000      -0.665297       -18.1036
  38   2.0000      -0.634615       -17.2688
  39   2.0000      -0.630447       -17.1553
  40   2.0000      -0.609164       -16.5762
  41   2.0000      -0.569149       -15.4873
  42   2.0000      -0.561372       -15.2757
  43   2.0000      -0.555688       -15.1211
  44   2.0000      -0.533078       -14.5058
  45   2.0000      -0.531304       -14.4575
  46   2.0000      -0.520917       -14.1749
  47   2.0000      -0.518870       -14.1192
  48   2.0000      -0.502708       -13.6794
  49   2.0000      -0.499094       -13.5810
  50   2.0000      -0.495355       -13.4793
  51   2.0000      -0.484328       -13.1792
  52   2.0000      -0.468024       -12.7356
  53   2.0000      -0.465590       -12.6694
  54   2.0000      -0.459744       -12.5103
  55   2.0000      -0.448622       -12.2076
  56   2.0000      -0.445892       -12.1333
  57   2.0000      -0.441466       -12.0129
  58   2.0000      -0.437265       -11.8986
  59   2.0000      -0.430531       -11.7154
  60   2.0000      -0.420299       -11.4369
  61   2.0000      -0.415650       -11.3104
  62   2.0000      -0.403740       -10.9863
  63   2.0000      -0.357786        -9.7359
  64   2.0000      -0.330087        -8.9821
  65   2.0000      -0.328678        -8.9438
  66   2.0000      -0.281269        -7.6537
  67   0.0000       0.027517         0.7488
  68   0.0000       0.078414         2.1338
  69   0.0000       0.109790         2.9875
  70   0.0000       0.118113         3.2140
  71   0.0000       0.128502         3.4967

MULLIKEN ATOMIC CHARGES
-----------------------
   0 S :    0.095970
   1 C :   -0.149695
   2 C :   -0.082016
   3 C :   -0.001040
   4 C :   -0.110637
   5 H :   -0.008511
   6 C :    0.068702
   7 H :    0.019537
   8 H :    0.048106
   9 C :   -0.087844
  10 H :    0.023285
  11 H :    0.026451
  12 C :   -0.007704
  13 H :    0.034199
  14 H :    0.023388
  15 H :    0.033609
  16 S :    0.106472
  17 C :   -0.063418
  18 C :   -0.012119
  19 C :   -0.005577
  20 C :   -0.129972
  21 H :   -0.025628
  22 C :    0.048125
  23 H :   -0.017112
  24 H :    0.027950
  25 C :   -0.062741
  26 H :    0.028098
  27 H :    0.055005
  28 C :   -0.044794
  29 H :    0.025826
  30 H :    0.026285
  31 H :    0.029723
  32 H :    0.046565
  33 H :    0.041510
Sum of atomic charges:   -0.0000000

LOEWDIN ATOMIC CHARGES
----------------------
   0 S :    0.395467
   1 C :   -0.198080
   2 C :   -0.069105
   3 C :   -0.066309
   4 C :   -0.188991
   5 H :    0.022890
   6 C :   -0.031394
   7 H :    0.029414
   8 H :    0.039729
   9 C :   -0.039809
  10 H :    0.017953
  11 H :    0.029814
  12 C :   -0.054736
  13 H :    0.024822
  14 H :    0.023815
  15 H :    0.026803
  16 S :    0.422429
  17 C :   -0.199641
  18 C :   -0.061511
  19 C :   -0.052708
  20 C :   -0.181880
  21 H :    0.012898
  22 C :   -0.035717
  23 H :    0.014273
  24 H :    0.041273
  25 C :   -0.035839
  26 H :    0.027828
  27 H :    0.034804
  28 C :   -0.068555
  29 H :    0.021976
  30 H :    0.025000
  31 H :    0.024821
  32 H :    0.027741
  33 H :    0.020525

  Mayer bond orders larger than 0.100000
B(  0-S ,  1-C ) :   1.1425 B(  0-S ,  4-C ) :   1.1324 B(  1-C ,  2-C ) :   1.6032
B(  1-C , 32-H ) :   0.9629 B(  2-C ,  3-C ) :   1.2731 B(  2-C ,  6-C ) :   1.0050
B(  3-C ,  4-C ) :   1.5602 B(  3-C ,  5-H ) :   0.9868 B(  4-C , 20-C ) :   1.0766
B(  6-C ,  7-H ) :   0.9420 B(  6-C ,  8-H ) :   0.9344 B(  6-C ,  9-C ) :   1.0803
B(  9-C , 10-H ) :   0.9522 B(  9-C , 11-H ) :   0.9532 B(  9-C , 12-C ) :   1.0642
B( 12-C , 13-H ) :   0.9752 B( 12-C , 14-H ) :   0.9743 B( 12-C , 15-H ) :   0.9772
B( 16-S , 17-C ) :   1.1776 B( 16-S , 20-C ) :   1.1303 B( 17-C , 18-C ) :   1.5962
B( 17-C , 33-H ) :   0.9691 B( 18-C , 19-C ) :   1.2331 B( 18-C , 21-H ) :   1.0089
B( 19-C , 20-C ) :   1.5885 B( 19-C , 22-C ) :   1.0317 B( 22-C , 23-H ) :   0.9358
B( 22-C , 24-H ) :   0.9411 B( 22-C , 25-C ) :   1.0421 B( 25-C , 26-H ) :   0.9545
B( 25-C , 27-H ) :   0.9562 B( 25-C , 28-C ) :   1.0808 B( 28-C , 29-H ) :   0.9736
B( 28-C , 30-H ) :   0.9710 B( 28-C , 31-H ) :   0.9754

Dispersion correction           -0.014652377
FINAL SINGLE POINT ENERGY     -1339.870402730472

DIPOLE MOMENT
-------------
                                X             Y             Z
Electronic contribution:    -12.75090     -13.69282     -24.85537
Nuclear contribution   :     13.03717      14.28295      25.32792
                        -----------------------------------------
Total Dipole Moment    :      0.28627       0.59013       0.47254
                        -----------------------------------------
Magnitude (a.u.)       :      0.80840
Magnitude (Debye)      :      2.05479

Rotational constants in cm-1:     0.016983     0.010588     0.007125
Rotational constants in MHz :   509.134161   317.407681   213.596765

                             ****ORCA TERMINATED NORMALLY****
TOTAL RUN TIME: 0 days 0 hours 0 minutes 21 seconds 255 msec
