                         Program Version 4.2.1 -  RELEASE  -
|  1> ! wB97X-D3 SP def2-SVP
|  2> %pal
|  3> nprocs 24
|  4> end
|  5>
|  6> * xyz 0 1
|  7> S 	 -58.9399 	 -57.13 	 -86.0127
|  8> C 	 -58.5982 	 -55.6144 	 -85.0903
|  9> C 	 -57.9172 	 -55.9467 	 -83.9426
| 10> C 	 -57.5717 	 -57.3233 	 -83.9199
| 11> C 	 -58.0771 	 -58.1049 	 -84.9079
| 12> H 	 -57.1486 	 -57.8634 	 -83.0475
| 13> C 	 -57.6167 	 -54.9311 	 -82.8247
| 14> H 	 -57.3181 	 -53.9799 	 -83.2741
| 15> H 	 -56.6974 	 -55.2671 	 -82.2899
| 16> C 	 -58.6615 	 -54.8282 	 -81.7274
| 17> H 	 -59.6303 	 -54.5763 	 -82.0947
| 18> H 	 -58.8392 	 -55.7368 	 -81.2173
| 19> C 	 -58.4008 	 -53.7151 	 -80.6618
| 20> H 	 -57.6083 	 -53.7873 	 -79.9707
| 21> H 	 -58.179 	 -52.8253 	 -81.2711
| 22> H 	 -59.4143 	 -53.5247 	 -80.1671
| 23> S 	 -56.649 	 -60.3113 	 -84.6549
| 24> C 	 -57.2763 	 -61.8812 	 -85.0772
| 25> C 	 -58.6265 	 -61.758 	 -85.266
| 26> C 	 -59.1567 	 -60.4517 	 -85.2606
| 27> C 	 -58.1726 	 -59.5495 	 -84.9751
| 28> H 	 -59.274 	 -62.5701 	 -85.4603
| 29> C 	 -60.6337 	 -60.1321 	 -85.5106
| 30> H 	 -60.9762 	 -59.0698 	 -85.4183
| 31> H 	 -61.2324 	 -60.6242 	 -84.7261
| 32> C 	 -61.1214 	 -60.6074 	 -86.9283
| 33> H 	 -62.109 	 -60.1716 	 -87.119
| 34> H 	 -61.1379 	 -61.679 	 -86.9365
| 35> C 	 -60.2122 	 -60.2133 	 -88.1306
| 36> H 	 -59.1696 	 -60.5642 	 -87.8937
| 37> H 	 -60.2671 	 -59.1519 	 -88.4034
| 38> H 	 -60.4278 	 -60.7549 	 -89.0846
| 39> H 	 -59.0627 	 -54.6785 	 -85.2027
| 40> H 	 -56.7823 	 -62.8692 	 -84.9181
| 41> *
| 42>
| 43>                          ****END OF INPUT****

CARTESIAN COORDINATES (ANGSTROEM)
---------------------------------
  S    -58.939900  -57.130000  -86.012700
  C    -58.598200  -55.614400  -85.090300
  C    -57.917200  -55.946700  -83.942600
  C    -57.571700  -57.323300  -83.919900
  C    -58.077100  -58.104900  -84.907900
  H    -57.148600  -57.863400  -83.047500
  C    -57.616700  -54.931100  -82.824700
  H    -57.318100  -53.979900  -83.274100
  H    -56.697400  -55.267100  -82.289900
  C    -58.661500  -54.828200  -81.727400
  H    -59.630300  -54.576300  -82.094700
  H    -58.839200  -55.736800  -81.217300
  C    -58.400800  -53.715100  -80.661800
  H    -57.608300  -53.787300  -79.970700
  H    -58.179000  -52.825300  -81.271100
  H    -59.414300  -53.524700  -80.167100
  S    -56.649000  -60.311300  -84.654900
  C    -57.276300  -61.881200  -85.077200
  C    -58.626500  -61.758000  -85.266000
  C    -59.156700  -60.451700  -85.260600
  C    -58.172600  -59.549500  -84.975100
  H    -59.274000  -62.570100  -85.460300
  C    -60.633700  -60.132100  -85.510600
  H    -60.976200  -59.069800  -85.418300
  H    -61.232400  -60.624200  -84.726100
  C    -61.121400  -60.607400  -86.928300
  H    -62.109000  -60.171600  -87.119000
  H    -61.137900  -61.679000  -86.936500
  C    -60.212200  -60.213300  -88.130600
  H    -59.169600  -60.564200  -87.893700
  H    -60.267100  -59.151900  -88.403400
  H    -60.427800  -60.754900  -89.084600
  H    -59.062700  -54.678500  -85.202700
  H    -56.782300  -62.869200  -84.918100

 Total Charge           Charge          ....    0
 Multiplicity           Mult            ....    1
 Number of Electrons    NEL             ....  134
 Basis Dimension        Dim             ....  322

ORBITAL ENERGIES
----------------

  NO   OCC          E(Eh)            E(eV)
   0   2.0000     -88.965163     -2420.8652
   1   2.0000     -88.964624     -2420.8505
   2   2.0000     -10.325812      -280.9796
   3   2.0000     -10.325618      -280.9743
   4   2.0000     -10.320304      -280.8298
   5   2.0000     -10.312142      -280.6076
   6   2.0000     -10.303476      -280.3718
   7   2.0000     -10.303456      -280.3713
   8   2.0000     -10.299661      -280.2680
   9   2.0000     -10.297697      -280.2146
  10   2.0000     -10.290934      -280.0306
  11   2.0000     -10.290704      -280.0243
  12   2.0000     -10.288055      -279.9522
  13   2.0000     -10.282970      -279.8138
  14   2.0000     -10.282680      -279.8060
  15   2.0000     -10.278250      -279.6854
  16   2.0000      -8.080404      -219.8790
  17   2.0000      -8.078924      -219.8387
  18   2.0000      -6.038982      -164.3291
  19   2.0000      -6.037529      -164.2895
  20   2.0000      -6.034750      -164.2139
  21   2.0000      -6.033375      -164.1765
  22   2.0000      -6.031148      -164.1159
  23   2.0000      -6.029699      -164.0764
  24   2.0000      -1.016496       -27.6603
  25   2.0000      -0.989951       -26.9379
  26   2.0000      -0.912409       -24.8279
  27   2.0000      -0.902771       -24.5656
  28   2.0000      -0.874528       -23.7971
  29   2.0000      -0.848643       -23.0928
  30   2.0000      -0.840450       -22.8698
  31   2.0000      -0.815443       -22.1893
  32   2.0000      -0.783467       -21.3192
  33   2.0000      -0.774701       -21.0807
  34   2.0000      -0.708083       -19.2679
  35   2.0000      -0.704201       -19.1623
  36   2.0000      -0.688703       -18.7406
  37   2.0000      -0.671563       -18.2742
  38   2.0000      -0.637124       -17.3370
  39   2.0000      -0.616795       -16.7838
  40   2.0000      -0.601779       -16.3752
  41   2.0000      -0.571250       -15.5445
  42   2.0000      -0.561728       -15.2854
  43   2.0000      -0.549791       -14.9606
  44   2.0000      -0.542731       -14.7685
  45   2.0000      -0.527487       -14.3536
  46   2.0000      -0.517380       -14.0786
  47   2.0000      -0.513720       -13.9790
  48   2.0000      -0.503899       -13.7118
  49   2.0000      -0.497387       -13.5346
  50   2.0000      -0.484071       -13.1722
  51   2.0000      -0.478647       -13.0247
  52   2.0000      -0.472088       -12.8462
  53   2.0000      -0.465011       -12.6536
  54   2.0000      -0.458839       -12.4857
  55   2.0000      -0.445677       -12.1275
  56   2.0000      -0.442644       -12.0450
  57   2.0000      -0.438474       -11.9315
  58   2.0000      -0.434488       -11.8230
  59   2.0000      -0.425499       -11.5784
  60   2.0000      -0.418997       -11.4015
  61   2.0000      -0.415390       -11.3033
  62   2.0000      -0.400649       -10.9022
  63   2.0000      -0.353922        -9.6307
  64   2.0000      -0.333473        -9.0743
  65   2.0000      -0.331671        -9.0252
  66   2.0000      -0.294875        -8.0239
  67   0.0000       0.027501         0.7483
  68   0.0000       0.077720         2.1149
  69   0.0000       0.105561         2.8724
  70   0.0000       0.121200         3.2980
  71   0.0000       0.136607         3.7173

MULLIKEN ATOMIC CHARGES
-----------------------
   0 S :    0.093615
   1 C :   -0.096470
   2 C :   -0.095705
   3 C :    0.010326
   4 C :   -0.110468
   5 H :    0.020804
   6 C :    0.055609
   7 H :    0.028694
   8 H :    0.025995
   9 C :   -0.032292
  10 H :    0.010019
  11 H :    0.019187
  12 C :   -0.066416
  13 H :    0.034516
  14 H :    0.020322
  15 H :    0.045769
  16 S :    0.103092
  17 C :   -0.083666
  18 C :   -0.032719
  19 C :   -0.037500
  20 C :   -0.164948
  21 H :   -0.001132
  22 C :    0.051125
  23 H :    0.037635
  24 H :    0.040483
  25 C :   -0.080561
  26 H :    0.036663
  27 H :    0.027045
  28 C :   -0.095558
  29 H :    0.050094
  30 H :    0.041973
  31 H :    0.035017
  32 H :    0.032370
  33 H :    0.077081
Sum of atomic charges:    0.0000000

LOEWDIN ATOMIC CHARGES
----------------------
   0 S :    0.412939
   1 C :   -0.179483
   2 C :   -0.056375
   3 C :   -0.082902
   4 C :   -0.203572
   5 H :    0.032352
   6 C :   -0.032738
   7 H :    0.030765
   8 H :    0.036124
   9 C :   -0.037292
  10 H :    0.019281
  11 H :    0.019719
  12 C :   -0.064798
  13 H :    0.014714
  14 H :    0.024523
  15 H :    0.038094
  16 S :    0.423624
  17 C :   -0.196358
  18 C :   -0.066185
  19 C :   -0.064341
  20 C :   -0.191513
  21 H :    0.022953
  22 C :   -0.037546
  23 H :    0.029682
  24 H :    0.036507
  25 C :   -0.039009
  26 H :    0.026312
  27 H :    0.016785
  28 C :   -0.079782
  29 H :    0.031445
  30 H :    0.022616
  31 H :    0.029565
  32 H :    0.020219
  33 H :    0.043674

  Mayer bond orders larger than 0.100000
B(  0-S ,  1-C ) :   1.1197 B(  0-S ,  4-C ) :   1.1549 B(  1-C ,  2-C ) :   1.6290
B(  1-C , 32-H ) :   0.9733 B(  2-C ,  3-C ) :   1.2580 B(  2-C ,  6-C ) :   1.0185
B(  3-C ,  4-C ) :   1.5792 B(  3-C ,  5-H ) :   0.9788 B(  4-C , 20-C ) :   1.0056
B(  6-C ,  7-H ) :   0.9442 B(  6-C ,  8-H ) :   0.9400 B(  6-C ,  9-C ) :   1.0655
B(  9-C , 10-H ) :   0.9560 B(  9-C , 11-H ) :   0.9536 B(  9-C , 12-C ) :   1.0710
B( 12-C , 13-H ) :   0.9810 B( 12-C , 14-H ) :   0.9752 B( 12-C , 15-H ) :   0.9773
B( 16-S , 17-C ) :   1.1447 B( 16-S , 20-C ) :   1.1625 B( 17-C , 18-C ) :   1.5970
B( 17-C , 33-H ) :   0.9624 B( 18-C , 19-C ) :   1.2507 B( 18-C , 21-H ) :   0.9905
B( 19-C , 20-C ) :   1.5961 B( 19-C , 22-C ) :   1.0260 B( 22-C , 23-H ) :   0.9442
B( 22-C , 24-H ) :   0.9386 B( 22-C , 25-C ) :   1.0551 B( 25-C , 26-H ) :   0.9605
B( 25-C , 27-H ) :   0.9596 B( 25-C , 28-C ) :   1.0757 B( 28-C , 29-H ) :   0.9678
B( 28-C , 30-H ) :   0.9772 B( 28-C , 31-H ) :   0.9747

Dispersion correction           -0.014629201
FINAL SINGLE POINT ENERGY     -1339.876063762361

DIPOLE MOMENT
-------------
                                X             Y             Z
Electronic contribution:     10.89061      -9.38984      -6.39906
Nuclear contribution   :    -11.30909       9.36256       6.80881
                        -----------------------------------------
Total Dipole Moment    :     -0.41849      -0.02728       0.40975
                        -----------------------------------------
Magnitude (a.u.)       :      0.58632
Magnitude (Debye)      :      1.49030

Rotational constants in cm-1:     0.023591     0.007541     0.006509
Rotational constants in MHz :   707.251379   226.069582   195.133769

                             ****ORCA TERMINATED NORMALLY****
TOTAL RUN TIME: 0 days 0 hours 0 minutes 20 seconds 375 msec
