                         Program Version 4.2.1 -  RELEASE  -
|  1> ! wB97X-D3 SP def2-SVP
|  2> %pal
|  3> nprocs 24
|  4> end
|  5>
|  6> * xyz 0 1
|  7> S 	 -48.8237 	 6.04882 	 -20.463
|  8> C 	 -49.6515 	 6.87702 	 -19.1976
|  9> C 	 -50.0732 	 8.1296 	 -19.6527
| 10> C 	 -49.3529 	 8.5775 	 -20.8135
| 11> C 	 -48.4832 	 7.62116 	 -21.2535
| 12> H 	 -49.4749 	 9.58753 	 -21.2381
| 13> C 	 -51.1654 	 9.01148 	 -18.9789
| 14> H 	 -52.0035 	 8.34669 	 -18.5124
| 15> H 	 -51.5521 	 9.56337 	 -19.8239
| 16> C 	 -50.5963 	 10.0836 	 -18.083
| 17> H 	 -49.6192 	 10.257 	 -18.2246
| 18> H 	 -51.1234 	 10.9961 	 -18.3918
| 19> C 	 -50.8936 	 9.83815 	 -16.5727
| 20> H 	 -50.1147 	 10.4411 	 -16.1001
| 21> H 	 -51.8748 	 10.1761 	 -16.1712
| 22> H 	 -50.6803 	 8.83129 	 -16.2202
| 23> S 	 -47.0529 	 6.29254 	 -23.1155
| 24> C 	 -46.2799 	 7.09486 	 -24.4547
| 25> C 	 -46.3441 	 8.51906 	 -24.2508
| 26> C 	 -47.067 	 8.88087 	 -23.1107
| 27> C 	 -47.6068 	 7.79118 	 -22.456
| 28> H 	 -45.7367 	 9.15445 	 -24.889
| 29> C 	 -47.3075 	 10.3437 	 -22.6615
| 30> H 	 -46.337 	 10.7735 	 -22.8312
| 31> H 	 -47.4238 	 10.47 	 -21.584
| 32> C 	 -48.3456 	 11.1837 	 -23.4148
| 33> H 	 -49.3226 	 10.7105 	 -23.3231
| 34> H 	 -48.0594 	 11.1989 	 -24.4757
| 35> C 	 -48.5462 	 12.6551 	 -23.1477
| 36> H 	 -49.3641 	 13.1203 	 -23.7376
| 37> H 	 -47.5753 	 13.1751 	 -23.4069
| 38> H 	 -48.8434 	 12.9974 	 -22.1554
| 39> H 	 -50.1756 	 6.3625 	 -18.4289
| 40> H 	 -45.7669 	 6.6847 	 -25.3075
| 41> *
| 42>
| 43>                          ****END OF INPUT****

CARTESIAN COORDINATES (ANGSTROEM)
---------------------------------
  S    -48.823700    6.048820  -20.463000
  C    -49.651500    6.877020  -19.197600
  C    -50.073200    8.129600  -19.652700
  C    -49.352900    8.577500  -20.813500
  C    -48.483200    7.621160  -21.253500
  H    -49.474900    9.587530  -21.238100
  C    -51.165400    9.011480  -18.978900
  H    -52.003500    8.346690  -18.512400
  H    -51.552100    9.563370  -19.823900
  C    -50.596300   10.083600  -18.083000
  H    -49.619200   10.257000  -18.224600
  H    -51.123400   10.996100  -18.391800
  C    -50.893600    9.838150  -16.572700
  H    -50.114700   10.441100  -16.100100
  H    -51.874800   10.176100  -16.171200
  H    -50.680300    8.831290  -16.220200
  S    -47.052900    6.292540  -23.115500
  C    -46.279900    7.094860  -24.454700
  C    -46.344100    8.519060  -24.250800
  C    -47.067000    8.880870  -23.110700
  C    -47.606800    7.791180  -22.456000
  H    -45.736700    9.154450  -24.889000
  C    -47.307500   10.343700  -22.661500
  H    -46.337000   10.773500  -22.831200
  H    -47.423800   10.470000  -21.584000
  C    -48.345600   11.183700  -23.414800
  H    -49.322600   10.710500  -23.323100
  H    -48.059400   11.198900  -24.475700
  C    -48.546200   12.655100  -23.147700
  H    -49.364100   13.120300  -23.737600
  H    -47.575300   13.175100  -23.406900
  H    -48.843400   12.997400  -22.155400
  H    -50.175600    6.362500  -18.428900
  H    -45.766900    6.684700  -25.307500

 Total Charge           Charge          ....    0
 Multiplicity           Mult            ....    1
 Number of Electrons    NEL             ....  134
 Basis Dimension        Dim             ....  322

ORBITAL ENERGIES
----------------

  NO   OCC          E(Eh)            E(eV)
   0   2.0000     -88.969619     -2420.9864
   1   2.0000     -88.966657     -2420.9058
   2   2.0000     -10.336087      -281.2592
   3   2.0000     -10.329135      -281.0701
   4   2.0000     -10.321658      -280.8666
   5   2.0000     -10.308282      -280.5026
   6   2.0000     -10.306155      -280.4447
   7   2.0000     -10.303200      -280.3643
   8   2.0000     -10.299431      -280.2618
   9   2.0000     -10.296635      -280.1857
  10   2.0000     -10.295505      -280.1549
  11   2.0000     -10.295450      -280.1534
  12   2.0000     -10.289598      -279.9942
  13   2.0000     -10.286687      -279.9150
  14   2.0000     -10.279866      -279.7294
  15   2.0000     -10.278785      -279.7000
  16   2.0000      -8.084619      -219.9937
  17   2.0000      -8.081138      -219.8989
  18   2.0000      -6.042991      -164.4381
  19   2.0000      -6.039861      -164.3530
  20   2.0000      -6.038995      -164.3294
  21   2.0000      -6.036094      -164.2505
  22   2.0000      -6.035623      -164.2376
  23   2.0000      -6.031283      -164.1196
  24   2.0000      -1.008756       -27.4496
  25   2.0000      -0.985791       -26.8247
  26   2.0000      -0.911574       -24.8052
  27   2.0000      -0.909412       -24.7464
  28   2.0000      -0.865514       -23.5518
  29   2.0000      -0.859365       -23.3845
  30   2.0000      -0.845137       -22.9974
  31   2.0000      -0.811633       -22.0857
  32   2.0000      -0.785408       -21.3721
  33   2.0000      -0.773258       -21.0414
  34   2.0000      -0.703428       -19.1412
  35   2.0000      -0.698987       -19.0204
  36   2.0000      -0.694594       -18.9009
  37   2.0000      -0.668051       -18.1786
  38   2.0000      -0.637033       -17.3346
  39   2.0000      -0.623649       -16.9703
  40   2.0000      -0.594154       -16.1678
  41   2.0000      -0.570724       -15.5302
  42   2.0000      -0.569939       -15.5088
  43   2.0000      -0.545392       -14.8409
  44   2.0000      -0.530866       -14.4456
  45   2.0000      -0.524474       -14.2717
  46   2.0000      -0.519448       -14.1349
  47   2.0000      -0.512500       -13.9458
  48   2.0000      -0.508755       -13.8439
  49   2.0000      -0.497805       -13.5460
  50   2.0000      -0.490711       -13.3529
  51   2.0000      -0.483918       -13.1681
  52   2.0000      -0.475549       -12.9403
  53   2.0000      -0.469845       -12.7851
  54   2.0000      -0.457910       -12.4604
  55   2.0000      -0.452440       -12.3115
  56   2.0000      -0.449478       -12.2309
  57   2.0000      -0.444334       -12.0909
  58   2.0000      -0.430351       -11.7105
  59   2.0000      -0.420255       -11.4357
  60   2.0000      -0.417227       -11.3533
  61   2.0000      -0.413402       -11.2492
  62   2.0000      -0.405224       -11.0267
  63   2.0000      -0.360294        -9.8041
  64   2.0000      -0.338704        -9.2166
  65   2.0000      -0.323855        -8.8125
  66   2.0000      -0.279874        -7.6158
  67   0.0000       0.016959         0.4615
  68   0.0000       0.074408         2.0247
  69   0.0000       0.089576         2.4375
  70   0.0000       0.115557         3.1445
  71   0.0000       0.131075         3.5667

MULLIKEN ATOMIC CHARGES
-----------------------
   0 S :    0.092944
   1 C :   -0.079334
   2 C :   -0.130272
   3 C :   -0.021693
   4 C :   -0.062695
   5 H :    0.016697
   6 C :    0.034104
   7 H :    0.055001
   8 H :    0.017794
   9 C :   -0.002451
  10 H :    0.004905
  11 H :    0.022461
  12 C :   -0.072375
  13 H :    0.024577
  14 H :    0.046243
  15 H :    0.029988
  16 S :    0.107701
  17 C :   -0.092588
  18 C :   -0.058192
  19 C :   -0.039298
  20 C :   -0.142255
  21 H :    0.021099
  22 C :    0.069626
  23 H :    0.007125
  24 H :    0.028069
  25 C :   -0.059225
  26 H :    0.029293
  27 H :    0.028670
  28 C :   -0.069862
  29 H :    0.040829
  30 H :    0.035580
  31 H :    0.022078
  32 H :    0.039084
  33 H :    0.056370
Sum of atomic charges:    0.0000000

LOEWDIN ATOMIC CHARGES
----------------------
   0 S :    0.385549
   1 C :   -0.208854
   2 C :   -0.053980
   3 C :   -0.072373
   4 C :   -0.167634
   5 H :    0.036331
   6 C :   -0.035770
   7 H :    0.042327
   8 H :    0.029127
   9 C :   -0.031142
  10 H :    0.008794
  11 H :    0.029290
  12 C :   -0.068047
  13 H :    0.027838
  14 H :    0.028871
  15 H :    0.021705
  16 S :    0.427583
  17 C :   -0.195074
  18 C :   -0.067392
  19 C :   -0.064444
  20 C :   -0.189568
  21 H :    0.031884
  22 C :   -0.032732
  23 H :    0.028445
  24 H :    0.028708
  25 C :   -0.048729
  26 H :    0.020758
  27 H :    0.031155
  28 C :   -0.074646
  29 H :    0.034423
  30 H :    0.029792
  31 H :    0.018136
  32 H :    0.020250
  33 H :    0.029421

  Mayer bond orders larger than 0.100000
B(  0-S ,  1-C ) :   1.1196 B(  0-S ,  4-C ) :   1.1392 B(  1-C ,  2-C ) :   1.6240
B(  1-C , 32-H ) :   0.9687 B(  2-C ,  3-C ) :   1.2243 B(  2-C ,  6-C ) :   1.0299
B(  3-C ,  4-C ) :   1.5721 B(  3-C ,  5-H ) :   0.9900 B(  4-C , 20-C ) :   1.0617
B(  6-C ,  7-H ) :   0.9520 B(  6-C ,  8-H ) :   0.9425 B(  6-C ,  9-C ) :   1.0461
B(  9-C , 10-H ) :   0.9612 B(  9-C , 11-H ) :   0.9565 B(  9-C , 12-C ) :   1.0775
B( 12-C , 13-H ) :   0.9773 B( 12-C , 14-H ) :   0.9793 B( 12-C , 15-H ) :   0.9777
B( 16-S , 17-C ) :   1.1756 B( 16-S , 20-C ) :   1.1561 B( 17-C , 18-C ) :   1.5612
B( 17-C , 20-C ) :   0.1100 B( 17-C , 33-H ) :   0.9720 B( 18-C , 19-C ) :   1.2898
B( 18-C , 21-H ) :   0.9880 B( 19-C , 20-C ) :   1.5637 B( 19-C , 22-C ) :   1.0305
B( 22-C , 23-H ) :   0.9221 B( 22-C , 24-H ) :   0.9375 B( 22-C , 25-C ) :   1.0634
B( 25-C , 26-H ) :   0.9527 B( 25-C , 27-H ) :   0.9500 B( 25-C , 28-C ) :   1.0848
B( 28-C , 29-H ) :   0.9711 B( 28-C , 30-H ) :   0.9743 B( 28-C , 31-H ) :   0.9739

Dispersion correction           -0.013885107
FINAL SINGLE POINT ENERGY     -1339.846486256129

DIPOLE MOMENT
-------------
                                X             Y             Z
Electronic contribution:     10.54267     -29.28459      -9.53014
Nuclear contribution   :    -10.74962      30.01141       9.48091
                        -----------------------------------------
Total Dipole Moment    :     -0.20695       0.72681      -0.04924
                        -----------------------------------------
Magnitude (a.u.)       :      0.75730
Magnitude (Debye)      :      1.92491

Rotational constants in cm-1:     0.017230     0.009310     0.006273
Rotational constants in MHz :   516.544168   279.108256   188.051825

                             ****ORCA TERMINATED NORMALLY****
TOTAL RUN TIME: 0 days 0 hours 0 minutes 20 seconds 275 msec
