                         Program Version 4.2.1 -  RELEASE  -
|  1> ! wB97X-D3 SP def2-SVP
|  2> %pal
|  3> nprocs 24
|  4> end
|  5>
|  6> * xyz 0 1
|  7> S 	 -91.5043 	 -34.8329 	 -55.9868
|  8> C 	 -92.1948 	 -36.2435 	 -55.1967
|  9> C 	 -93.4395 	 -35.9791 	 -54.7488
| 10> C 	 -93.9201 	 -34.708 	 -55.1269
| 11> C 	 -92.9982 	 -33.9594 	 -55.8057
| 12> H 	 -94.8923 	 -34.2001 	 -54.9043
| 13> C 	 -94.2325 	 -37.1193 	 -54.0305
| 14> H 	 -95.0338 	 -36.6532 	 -53.4891
| 15> H 	 -93.5776 	 -37.4294 	 -53.1736
| 16> C 	 -94.6127 	 -38.3687 	 -54.8589
| 17> H 	 -95.0219 	 -37.9613 	 -55.8289
| 18> H 	 -93.7355 	 -38.924 	 -55.1598
| 19> C 	 -95.5334 	 -39.253 	 -53.9829
| 20> H 	 -95.7799 	 -40.0939 	 -54.5997
| 21> H 	 -95.0196 	 -39.4313 	 -53.0415
| 22> H 	 -96.4676 	 -38.8287 	 -53.7111
| 23> S 	 -91.7609 	 -31.6031 	 -56.1894
| 24> C 	 -92.4884 	 -30.2276 	 -56.9948
| 25> C 	 -93.8285 	 -30.5124 	 -57.228
| 26> C 	 -94.1484 	 -31.8726 	 -56.9224
| 27> C 	 -93.107 	 -32.6052 	 -56.3567
| 28> H 	 -94.5396 	 -29.8068 	 -57.6141
| 29> C 	 -95.553 	 -32.2685 	 -57.1967
| 30> H 	 -95.4867 	 -33.3569 	 -57.3105
| 31> H 	 -95.9257 	 -31.8965 	 -58.1202
| 32> C 	 -96.4922 	 -32.1153 	 -55.9638
| 33> H 	 -96.799 	 -31.0975 	 -55.8457
| 34> H 	 -95.9522 	 -32.3905 	 -55.0453
| 35> C 	 -97.6851 	 -33.1002 	 -56.0383
| 36> H 	 -98.0647 	 -33.2306 	 -57.0695
| 37> H 	 -98.5094 	 -32.9213 	 -55.3876
| 38> H 	 -97.3428 	 -34.1169 	 -55.7122
| 39> H 	 -91.8371 	 -37.2639 	 -55.136
| 40> H 	 -91.9915 	 -29.2989 	 -57.1584
| 41> *
| 42>
| 43>                          ****END OF INPUT****

CARTESIAN COORDINATES (ANGSTROEM)
---------------------------------
  S    -91.504300  -34.832900  -55.986800
  C    -92.194800  -36.243500  -55.196700
  C    -93.439500  -35.979100  -54.748800
  C    -93.920100  -34.708000  -55.126900
  C    -92.998200  -33.959400  -55.805700
  H    -94.892300  -34.200100  -54.904300
  C    -94.232500  -37.119300  -54.030500
  H    -95.033800  -36.653200  -53.489100
  H    -93.577600  -37.429400  -53.173600
  C    -94.612700  -38.368700  -54.858900
  H    -95.021900  -37.961300  -55.828900
  H    -93.735500  -38.924000  -55.159800
  C    -95.533400  -39.253000  -53.982900
  H    -95.779900  -40.093900  -54.599700
  H    -95.019600  -39.431300  -53.041500
  H    -96.467600  -38.828700  -53.711100
  S    -91.760900  -31.603100  -56.189400
  C    -92.488400  -30.227600  -56.994800
  C    -93.828500  -30.512400  -57.228000
  C    -94.148400  -31.872600  -56.922400
  C    -93.107000  -32.605200  -56.356700
  H    -94.539600  -29.806800  -57.614100
  C    -95.553000  -32.268500  -57.196700
  H    -95.486700  -33.356900  -57.310500
  H    -95.925700  -31.896500  -58.120200
  C    -96.492200  -32.115300  -55.963800
  H    -96.799000  -31.097500  -55.845700
  H    -95.952200  -32.390500  -55.045300
  C    -97.685100  -33.100200  -56.038300
  H    -98.064700  -33.230600  -57.069500
  H    -98.509400  -32.921300  -55.387600
  H    -97.342800  -34.116900  -55.712200
  H    -91.837100  -37.263900  -55.136000
  H    -91.991500  -29.298900  -57.158400

 Total Charge           Charge          ....    0
 Multiplicity           Mult            ....    1
 Number of Electrons    NEL             ....  134
 Basis Dimension        Dim             ....  322

ORBITAL ENERGIES
----------------

  NO   OCC          E(Eh)            E(eV)
   0   2.0000     -88.966301     -2420.8961
   1   2.0000     -88.963539     -2420.8210
   2   2.0000     -10.330185      -281.0986
   3   2.0000     -10.325075      -280.9596
   4   2.0000     -10.316524      -280.7269
   5   2.0000     -10.308689      -280.5137
   6   2.0000     -10.298257      -280.2298
   7   2.0000     -10.297158      -280.1999
   8   2.0000     -10.296410      -280.1795
   9   2.0000     -10.294937      -280.1395
  10   2.0000     -10.294500      -280.1276
  11   2.0000     -10.292541      -280.0743
  12   2.0000     -10.290001      -280.0052
  13   2.0000     -10.286254      -279.9032
  14   2.0000     -10.281859      -279.7836
  15   2.0000     -10.278382      -279.6890
  16   2.0000      -8.081083      -219.8974
  17   2.0000      -8.079484      -219.8539
  18   2.0000      -6.039614      -164.3463
  19   2.0000      -6.037902      -164.2997
  20   2.0000      -6.035610      -164.2373
  21   2.0000      -6.033670      -164.1845
  22   2.0000      -6.031762      -164.1326
  23   2.0000      -6.030398      -164.0955
  24   2.0000      -1.015085       -27.6219
  25   2.0000      -0.990887       -26.9634
  26   2.0000      -0.911998       -24.8167
  27   2.0000      -0.908598       -24.7242
  28   2.0000      -0.873596       -23.7718
  29   2.0000      -0.850630       -23.1468
  30   2.0000      -0.846001       -23.0209
  31   2.0000      -0.820309       -22.3218
  32   2.0000      -0.779454       -21.2100
  33   2.0000      -0.769933       -20.9509
  34   2.0000      -0.708781       -19.2869
  35   2.0000      -0.707649       -19.2561
  36   2.0000      -0.697917       -18.9913
  37   2.0000      -0.672150       -18.2901
  38   2.0000      -0.639814       -17.4102
  39   2.0000      -0.615163       -16.7394
  40   2.0000      -0.598379       -16.2827
  41   2.0000      -0.570725       -15.5302
  42   2.0000      -0.566506       -15.4154
  43   2.0000      -0.557851       -15.1799
  44   2.0000      -0.534549       -14.5458
  45   2.0000      -0.524689       -14.2775
  46   2.0000      -0.520800       -14.1717
  47   2.0000      -0.513791       -13.9810
  48   2.0000      -0.510503       -13.8915
  49   2.0000      -0.503243       -13.6939
  50   2.0000      -0.489604       -13.3228
  51   2.0000      -0.481565       -13.1041
  52   2.0000      -0.473914       -12.8959
  53   2.0000      -0.466088       -12.6829
  54   2.0000      -0.462375       -12.5819
  55   2.0000      -0.453214       -12.3326
  56   2.0000      -0.443364       -12.0645
  57   2.0000      -0.440743       -11.9932
  58   2.0000      -0.431283       -11.7358
  59   2.0000      -0.421169       -11.4606
  60   2.0000      -0.420289       -11.4366
  61   2.0000      -0.417926       -11.3723
  62   2.0000      -0.412853       -11.2343
  63   2.0000      -0.355642        -9.6775
  64   2.0000      -0.334987        -9.1154
  65   2.0000      -0.326875        -8.8947
  66   2.0000      -0.289562        -7.8794
  67   0.0000       0.028264         0.7691
  68   0.0000       0.078110         2.1255
  69   0.0000       0.108928         2.9641
  70   0.0000       0.128292         3.4910
  71   0.0000       0.130575         3.5531

MULLIKEN ATOMIC CHARGES
-----------------------
   0 S :    0.112148
   1 C :   -0.112246
   2 C :   -0.080165
   3 C :    0.006471
   4 C :   -0.132518
   5 H :    0.003021
   6 C :    0.032573
   7 H :    0.010445
   8 H :    0.030951
   9 C :   -0.075458
  10 H :    0.042654
  11 H :    0.027992
  12 C :   -0.007637
  13 H :    0.034338
  14 H :    0.030876
  15 H :    0.021542
  16 S :    0.099853
  17 C :   -0.082429
  18 C :   -0.019609
  19 C :   -0.084235
  20 C :   -0.116485
  21 H :    0.015559
  22 C :    0.068801
  23 H :    0.013959
  24 H :    0.023962
  25 C :   -0.051454
  26 H :    0.022026
  27 H :    0.036555
  28 C :   -0.060809
  29 H :    0.036536
  30 H :    0.030036
  31 H :    0.025907
  32 H :    0.043956
  33 H :    0.052881
Sum of atomic charges:   -0.0000000

LOEWDIN ATOMIC CHARGES
----------------------
   0 S :    0.405423
   1 C :   -0.193202
   2 C :   -0.068919
   3 C :   -0.076376
   4 C :   -0.188396
   5 H :    0.038336
   6 C :   -0.036625
   7 H :    0.022876
   8 H :    0.033699
   9 C :   -0.039141
  10 H :    0.030666
  11 H :    0.020994
  12 C :   -0.056379
  13 H :    0.026867
  14 H :    0.029118
  15 H :    0.020764
  16 S :    0.435047
  17 C :   -0.182878
  18 C :   -0.064554
  19 C :   -0.064162
  20 C :   -0.220197
  21 H :    0.029821
  22 C :   -0.031476
  23 H :    0.031838
  24 H :    0.026148
  25 C :   -0.033136
  26 H :    0.017729
  27 H :    0.024761
  28 C :   -0.069570
  29 H :    0.026819
  30 H :    0.020725
  31 H :    0.026136
  32 H :    0.032184
  33 H :    0.025059

  Mayer bond orders larger than 0.100000
B(  0-S ,  1-C ) :   1.1237 B(  0-S ,  4-C ) :   1.1547 B(  1-C ,  2-C ) :   1.6360
B(  1-C , 32-H ) :   0.9699 B(  2-C ,  3-C ) :   1.2350 B(  2-C ,  6-C ) :   1.0066
B(  3-C ,  4-C ) :   1.5831 B(  3-C ,  5-H ) :   0.9878 B(  4-C , 20-C ) :   1.0179
B(  6-C ,  7-H ) :   0.9478 B(  6-C ,  8-H ) :   0.9381 B(  6-C ,  9-C ) :   1.0537
B(  9-C , 10-H ) :   0.9594 B(  9-C , 11-H ) :   0.9521 B(  9-C , 12-C ) :   1.0720
B( 12-C , 13-H ) :   0.9737 B( 12-C , 14-H ) :   0.9719 B( 12-C , 15-H ) :   0.9778
B( 16-S , 17-C ) :   1.1671 B( 16-S , 20-C ) :   1.1646 B( 17-C , 18-C ) :   1.5539
B( 17-C , 20-C ) :   0.1020 B( 17-C , 33-H ) :   0.9768 B( 18-C , 19-C ) :   1.2785
B( 18-C , 21-H ) :   0.9949 B( 19-C , 20-C ) :   1.5551 B( 19-C , 22-C ) :   1.0626
B( 22-C , 23-H ) :   0.9319 B( 22-C , 24-H ) :   0.9336 B( 22-C , 25-C ) :   1.0451
B( 25-C , 26-H ) :   0.9543 B( 25-C , 27-H ) :   0.9566 B( 25-C , 28-C ) :   1.0711
B( 28-C , 29-H ) :   0.9761 B( 28-C , 30-H ) :   0.9749 B( 28-C , 31-H ) :   0.9736

Dispersion correction           -0.014222818
FINAL SINGLE POINT ENERGY     -1339.877260037145

DIPOLE MOMENT
-------------
                                X             Y             Z
Electronic contribution:     27.08632      16.06609      -5.85410
Nuclear contribution   :    -27.79140     -16.24383       5.95676
                        -----------------------------------------
Total Dipole Moment    :     -0.70508      -0.17775       0.10266
                        -----------------------------------------
Magnitude (a.u.)       :      0.73435
Magnitude (Debye)      :      1.86657

Rotational constants in cm-1:     0.019868     0.008574     0.006222
Rotational constants in MHz :   595.623421   257.043255   186.524295

                             ****ORCA TERMINATED NORMALLY****
TOTAL RUN TIME: 0 days 0 hours 0 minutes 21 seconds 844 msec
