                         Program Version 4.2.1 -  RELEASE  -
|  1> ! wB97X-D3 SP def2-SVP
|  2> %pal
|  3> nprocs 24
|  4> end
|  5>
|  6> * xyz 0 1
|  7> S 	 -127.969 	 60.53 	 -47.2324
|  8> C 	 -126.975 	 59.3006 	 -47.826
|  9> C 	 -125.777 	 59.8627 	 -48.2171
| 10> C 	 -125.591 	 61.2335 	 -47.9284
| 11> C 	 -126.74 	 61.8084 	 -47.4907
| 12> H 	 -124.724 	 61.8103 	 -48.223
| 13> C 	 -124.785 	 59.1083 	 -49.1112
| 14> H 	 -124.31 	 58.3749 	 -48.551
| 15> H 	 -124.013 	 59.8685 	 -49.275
| 16> C 	 -125.358 	 58.5887 	 -50.3767
| 17> H 	 -124.494 	 58.0694 	 -50.8569
| 18> H 	 -126.155 	 57.8417 	 -50.1266
| 19> C 	 -125.853 	 59.6508 	 -51.3518
| 20> H 	 -125.039 	 60.2818 	 -51.5662
| 21> H 	 -126.178 	 59.2425 	 -52.2579
| 22> H 	 -126.646 	 60.2947 	 -50.9883
| 23> S 	 -127.206 	 64.2613 	 -48.6523
| 24> C 	 -127.607 	 65.6326 	 -47.7169
| 25> C 	 -127.334 	 65.377 	 -46.3747
| 26> C 	 -126.961 	 63.998 	 -46.1039
| 27> C 	 -127.094 	 63.2003 	 -47.2525
| 28> H 	 -127.215 	 66.2525 	 -45.7482
| 29> C 	 -126.646 	 63.534 	 -44.6692
| 30> H 	 -125.67 	 63.9456 	 -44.5397
| 31> H 	 -126.503 	 62.418 	 -44.6012
| 32> C 	 -127.726 	 63.9293 	 -43.6715
| 33> H 	 -128.711 	 63.4622 	 -43.8526
| 34> H 	 -127.87 	 64.9825 	 -43.6983
| 35> C 	 -127.193 	 63.6894 	 -42.2684
| 36> H 	 -127.943 	 63.9171 	 -41.5518
| 37> H 	 -126.423 	 64.3788 	 -42.1213
| 38> H 	 -126.86 	 62.6678 	 -42.0843
| 39> H 	 -127.412 	 58.3278 	 -48.0048
| 40> H 	 -127.749 	 66.5851 	 -48.06
| 41> *
| 42>
| 43>                          ****END OF INPUT****

CARTESIAN COORDINATES (ANGSTROEM)
---------------------------------
  S    -127.969000   60.530000  -47.232400
  C    -126.975000   59.300600  -47.826000
  C    -125.777000   59.862700  -48.217100
  C    -125.591000   61.233500  -47.928400
  C    -126.740000   61.808400  -47.490700
  H    -124.724000   61.810300  -48.223000
  C    -124.785000   59.108300  -49.111200
  H    -124.310000   58.374900  -48.551000
  H    -124.013000   59.868500  -49.275000
  C    -125.358000   58.588700  -50.376700
  H    -124.494000   58.069400  -50.856900
  H    -126.155000   57.841700  -50.126600
  C    -125.853000   59.650800  -51.351800
  H    -125.039000   60.281800  -51.566200
  H    -126.178000   59.242500  -52.257900
  H    -126.646000   60.294700  -50.988300
  S    -127.206000   64.261300  -48.652300
  C    -127.607000   65.632600  -47.716900
  C    -127.334000   65.377000  -46.374700
  C    -126.961000   63.998000  -46.103900
  C    -127.094000   63.200300  -47.252500
  H    -127.215000   66.252500  -45.748200
  C    -126.646000   63.534000  -44.669200
  H    -125.670000   63.945600  -44.539700
  H    -126.503000   62.418000  -44.601200
  C    -127.726000   63.929300  -43.671500
  H    -128.711000   63.462200  -43.852600
  H    -127.870000   64.982500  -43.698300
  C    -127.193000   63.689400  -42.268400
  H    -127.943000   63.917100  -41.551800
  H    -126.423000   64.378800  -42.121300
  H    -126.860000   62.667800  -42.084300
  H    -127.412000   58.327800  -48.004800
  H    -127.749000   66.585100  -48.060000

 Total Charge           Charge          ....    0
 Multiplicity           Mult            ....    1
 Number of Electrons    NEL             ....  134
 Basis Dimension        Dim             ....  322

ORBITAL ENERGIES
----------------

  NO   OCC          E(Eh)            E(eV)
   0   2.0000     -88.962290     -2420.7870
   1   2.0000     -88.958507     -2420.6840
   2   2.0000     -10.327709      -281.0313
   3   2.0000     -10.324782      -280.9516
   4   2.0000     -10.310398      -280.5602
   5   2.0000     -10.309105      -280.5250
   6   2.0000     -10.307729      -280.4876
   7   2.0000     -10.294087      -280.1163
   8   2.0000     -10.293696      -280.1057
   9   2.0000     -10.292323      -280.0683
  10   2.0000     -10.292101      -280.0623
  11   2.0000     -10.286723      -279.9160
  12   2.0000     -10.281139      -279.7640
  13   2.0000     -10.278264      -279.6858
  14   2.0000     -10.265848      -279.3479
  15   2.0000     -10.263515      -279.2844
  16   2.0000      -8.077626      -219.8034
  17   2.0000      -8.074108      -219.7076
  18   2.0000      -6.036091      -164.2504
  19   2.0000      -6.032502      -164.1527
  20   2.0000      -6.032111      -164.1421
  21   2.0000      -6.028327      -164.0391
  22   2.0000      -6.028293      -164.0382
  23   2.0000      -6.025118      -163.9518
  24   2.0000      -1.007702       -27.4210
  25   2.0000      -0.987732       -26.8775
  26   2.0000      -0.914450       -24.8835
  27   2.0000      -0.912494       -24.8302
  28   2.0000      -0.872246       -23.7350
  29   2.0000      -0.850420       -23.1411
  30   2.0000      -0.847042       -23.0492
  31   2.0000      -0.815962       -22.2034
  32   2.0000      -0.783985       -21.3333
  33   2.0000      -0.770561       -20.9680
  34   2.0000      -0.703441       -19.1416
  35   2.0000      -0.700241       -19.0545
  36   2.0000      -0.698064       -18.9953
  37   2.0000      -0.655228       -17.8297
  38   2.0000      -0.649694       -17.6791
  39   2.0000      -0.612202       -16.6589
  40   2.0000      -0.596183       -16.2230
  41   2.0000      -0.575309       -15.6549
  42   2.0000      -0.567708       -15.4481
  43   2.0000      -0.557495       -15.1702
  44   2.0000      -0.544324       -14.8118
  45   2.0000      -0.530145       -14.4260
  46   2.0000      -0.519490       -14.1360
  47   2.0000      -0.516842       -14.0640
  48   2.0000      -0.505982       -13.7685
  49   2.0000      -0.497737       -13.5441
  50   2.0000      -0.488146       -13.2831
  51   2.0000      -0.476279       -12.9602
  52   2.0000      -0.472576       -12.8595
  53   2.0000      -0.464754       -12.6466
  54   2.0000      -0.458555       -12.4779
  55   2.0000      -0.446893       -12.1606
  56   2.0000      -0.442985       -12.0542
  57   2.0000      -0.442137       -12.0312
  58   2.0000      -0.434507       -11.8235
  59   2.0000      -0.423906       -11.5351
  60   2.0000      -0.420954       -11.4547
  61   2.0000      -0.410457       -11.1691
  62   2.0000      -0.400774       -10.9056
  63   2.0000      -0.341821        -9.3014
  64   2.0000      -0.323569        -8.8048
  65   2.0000      -0.319940        -8.7060
  66   2.0000      -0.304453        -8.2846
  67   0.0000       0.045484         1.2377
  68   0.0000       0.051261         1.3949
  69   0.0000       0.106870         2.9081
  70   0.0000       0.125052         3.4028
  71   0.0000       0.139107         3.7853

MULLIKEN ATOMIC CHARGES
-----------------------
   0 S :    0.101653
   1 C :   -0.125723
   2 C :   -0.136487
   3 C :    0.061023
   4 C :   -0.186122
   5 H :    0.017353
   6 C :    0.116375
   7 H :    0.015564
   8 H :   -0.001505
   9 C :   -0.088627
  10 H :    0.031922
  11 H :    0.031992
  12 C :   -0.002725
  13 H :    0.008690
  14 H :    0.019048
  15 H :    0.039966
  16 S :    0.106121
  17 C :   -0.043873
  18 C :   -0.060384
  19 C :   -0.018784
  20 C :   -0.165002
  21 H :    0.026263
  22 C :    0.060163
  23 H :    0.027768
  24 H :    0.036586
  25 C :   -0.072418
  26 H :    0.044890
  27 H :    0.017412
  28 C :   -0.006338
  29 H :    0.019960
  30 H :    0.012250
  31 H :    0.029196
  32 H :    0.058926
  33 H :    0.024865
Sum of atomic charges:   -0.0000000

LOEWDIN ATOMIC CHARGES
----------------------
   0 S :    0.415015
   1 C :   -0.214231
   2 C :   -0.069711
   3 C :   -0.062845
   4 C :   -0.183571
   5 H :    0.035904
   6 C :   -0.029911
   7 H :    0.021854
   8 H :    0.025192
   9 C :   -0.040651
  10 H :    0.030886
  11 H :    0.024217
  12 C :   -0.056194
  13 H :    0.019787
  14 H :    0.019681
  15 H :    0.028854
  16 S :    0.420949
  17 C :   -0.180902
  18 C :   -0.078507
  19 C :   -0.041427
  20 C :   -0.215093
  21 H :    0.029892
  22 C :   -0.030621
  23 H :    0.031639
  24 H :    0.036392
  25 C :   -0.035248
  26 H :    0.031197
  27 H :    0.018208
  28 C :   -0.054697
  29 H :    0.021429
  30 H :    0.017445
  31 H :    0.023521
  32 H :    0.028981
  33 H :    0.012567

  Mayer bond orders larger than 0.100000
B(  0-S ,  1-C ) :   1.1617 B(  0-S ,  4-C ) :   1.1622 B(  1-C ,  2-C ) :   1.5739
B(  1-C ,  4-C ) :   0.1005 B(  1-C , 32-H ) :   0.9778 B(  2-C ,  3-C ) :   1.2604
B(  2-C ,  6-C ) :   1.0026 B(  3-C ,  4-C ) :   1.5875 B(  3-C ,  5-H ) :   0.9946
B(  4-C , 20-C ) :   1.0062 B(  6-C ,  7-H ) :   0.9290 B(  6-C ,  8-H ) :   0.9388
B(  6-C ,  9-C ) :   1.0905 B(  9-C , 10-H ) :   0.9508 B(  9-C , 11-H ) :   0.9514
B(  9-C , 12-C ) :   1.0781 B( 12-C , 13-H ) :   0.9709 B( 12-C , 14-H ) :   0.9724
B( 12-C , 15-H ) :   0.9745 B( 16-S , 17-C ) :   1.1771 B( 16-S , 20-C ) :   1.1410
B( 17-C , 18-C ) :   1.5963 B( 17-C , 20-C ) :   0.1013 B( 17-C , 33-H ) :   0.9767
B( 18-C , 19-C ) :   1.2445 B( 18-C , 21-H ) :   0.9848 B( 19-C , 20-C ) :   1.5757
B( 19-C , 22-C ) :   1.0281 B( 22-C , 23-H ) :   0.9312 B( 22-C , 24-H ) :   0.9400
B( 22-C , 25-C ) :   1.0670 B( 25-C , 26-H ) :   0.9565 B( 25-C , 27-H ) :   0.9523
B( 25-C , 28-C ) :   1.0848 B( 28-C , 29-H ) :   0.9707 B( 28-C , 30-H ) :   0.9765
B( 28-C , 31-H ) :   0.9743

Dispersion correction           -0.014456051
FINAL SINGLE POINT ENERGY     -1339.865265089724

DIPOLE MOMENT
-------------
                                X             Y             Z
Electronic contribution:     -7.52048       5.45372      -5.82037
Nuclear contribution   :      7.95108      -5.31926       5.92626
                        -----------------------------------------
Total Dipole Moment    :      0.43060       0.13446       0.10589
                        -----------------------------------------
Magnitude (a.u.)       :      0.46337
Magnitude (Debye)      :      1.17778

Rotational constants in cm-1:     0.022659     0.007896     0.006486
Rotational constants in MHz :   679.297210   236.730720   194.453365

                             ****ORCA TERMINATED NORMALLY****
TOTAL RUN TIME: 0 days 0 hours 0 minutes 21 seconds 478 msec
