                         Program Version 4.2.1 -  RELEASE  -
|  1> ! wB97X-D3 SP def2-SVP
|  2> %pal
|  3> nprocs 24
|  4> end
|  5>
|  6> * xyz 0 1
|  7> S 	 -55.9493 	 19.6562 	 23.84
|  8> C 	 -56.9773 	 19.3328 	 25.2297
|  9> C 	 -58.2458 	 18.997 	 24.8008
| 10> C 	 -58.4133 	 19.2753 	 23.4051
| 11> C 	 -57.2544 	 19.6311 	 22.7078
| 12> H 	 -59.2492 	 19.3102 	 22.7494
| 13> C 	 -59.3544 	 18.5007 	 25.721
| 14> H 	 -59.2675 	 19.1109 	 26.6708
| 15> H 	 -59.2318 	 17.5255 	 26.0932
| 16> C 	 -60.8424 	 18.409 	 25.2628
| 17> H 	 -61.173 	 19.3174 	 24.7512
| 18> H 	 -60.9339 	 17.6679 	 24.4527
| 19> C 	 -61.8408 	 18.1544 	 26.451
| 20> H 	 -61.901 	 18.9433 	 27.0702
| 21> H 	 -62.9031 	 18.0736 	 26.13
| 22> H 	 -61.5232 	 17.3293 	 27.0536
| 23> S 	 -56.8851 	 21.8209 	 20.9624
| 24> C 	 -56.7976 	 21.4692 	 19.2766
| 25> C 	 -57.0093 	 20.1241 	 19.0518
| 26> C 	 -57.2428 	 19.2937 	 20.2115
| 27> C 	 -57.1925 	 20.1179 	 21.299
| 28> H 	 -56.7649 	 19.8783 	 17.9586
| 29> C 	 -57.3238 	 17.7525 	 20.2248
| 30> H 	 -58.2006 	 17.464 	 20.7852
| 31> H 	 -56.4768 	 17.2856 	 20.7907
| 32> C 	 -57.3149 	 17.1533 	 18.7993
| 33> H 	 -56.4374 	 17.4269 	 18.2219
| 34> H 	 -58.0859 	 17.4967 	 18.2056
| 35> C 	 -57.3398 	 15.6911 	 18.7425
| 36> H 	 -57.0857 	 15.3131 	 17.7507
| 37> H 	 -58.1795 	 15.2034 	 19.1893
| 38> H 	 -56.5827 	 15.2364 	 19.3633
| 39> H 	 -56.6454 	 19.1647 	 26.2156
| 40> H 	 -56.2627 	 22.058 	 18.5586
| 41> *
| 42>
| 43>                          ****END OF INPUT****

CARTESIAN COORDINATES (ANGSTROEM)
---------------------------------
  S    -55.949300   19.656200   23.840000
  C    -56.977300   19.332800   25.229700
  C    -58.245800   18.997000   24.800800
  C    -58.413300   19.275300   23.405100
  C    -57.254400   19.631100   22.707800
  H    -59.249200   19.310200   22.749400
  C    -59.354400   18.500700   25.721000
  H    -59.267500   19.110900   26.670800
  H    -59.231800   17.525500   26.093200
  C    -60.842400   18.409000   25.262800
  H    -61.173000   19.317400   24.751200
  H    -60.933900   17.667900   24.452700
  C    -61.840800   18.154400   26.451000
  H    -61.901000   18.943300   27.070200
  H    -62.903100   18.073600   26.130000
  H    -61.523200   17.329300   27.053600
  S    -56.885100   21.820900   20.962400
  C    -56.797600   21.469200   19.276600
  C    -57.009300   20.124100   19.051800
  C    -57.242800   19.293700   20.211500
  C    -57.192500   20.117900   21.299000
  H    -56.764900   19.878300   17.958600
  C    -57.323800   17.752500   20.224800
  H    -58.200600   17.464000   20.785200
  H    -56.476800   17.285600   20.790700
  C    -57.314900   17.153300   18.799300
  H    -56.437400   17.426900   18.221900
  H    -58.085900   17.496700   18.205600
  C    -57.339800   15.691100   18.742500
  H    -57.085700   15.313100   17.750700
  H    -58.179500   15.203400   19.189300
  H    -56.582700   15.236400   19.363300
  H    -56.645400   19.164700   26.215600
  H    -56.262700   22.058000   18.558600

 Total Charge           Charge          ....    0
 Multiplicity           Mult            ....    1
 Number of Electrons    NEL             ....  134
 Basis Dimension        Dim             ....  322

ORBITAL ENERGIES
----------------

  NO   OCC          E(Eh)            E(eV)
   0   2.0000     -88.966289     -2420.8958
   1   2.0000     -88.964838     -2420.8563
   2   2.0000     -10.327520      -281.0261
   3   2.0000     -10.326315      -280.9933
   4   2.0000     -10.312764      -280.6246
   5   2.0000     -10.311203      -280.5821
   6   2.0000     -10.309300      -280.5303
   7   2.0000     -10.307428      -280.4794
   8   2.0000     -10.301146      -280.3084
   9   2.0000     -10.300013      -280.2776
  10   2.0000     -10.295455      -280.1536
  11   2.0000     -10.293474      -280.0997
  12   2.0000     -10.291779      -280.0536
  13   2.0000     -10.276592      -279.6403
  14   2.0000     -10.275222      -279.6030
  15   2.0000     -10.268666      -279.4246
  16   2.0000      -8.081290      -219.9031
  17   2.0000      -8.079538      -219.8554
  18   2.0000      -6.039740      -164.3497
  19   2.0000      -6.038062      -164.3040
  20   2.0000      -6.035839      -164.2435
  21   2.0000      -6.033841      -164.1892
  22   2.0000      -6.031995      -164.1389
  23   2.0000      -6.030489      -164.0979
  24   2.0000      -1.006588       -27.3907
  25   2.0000      -0.986072       -26.8324
  26   2.0000      -0.915913       -24.9233
  27   2.0000      -0.905317       -24.6349
  28   2.0000      -0.871225       -23.7072
  29   2.0000      -0.855356       -23.2754
  30   2.0000      -0.842692       -22.9308
  31   2.0000      -0.814916       -22.1750
  32   2.0000      -0.786965       -21.4144
  33   2.0000      -0.778629       -21.1876
  34   2.0000      -0.712141       -19.3783
  35   2.0000      -0.710090       -19.3225
  36   2.0000      -0.693727       -18.8773
  37   2.0000      -0.650128       -17.6909
  38   2.0000      -0.644017       -17.5246
  39   2.0000      -0.614289       -16.7156
  40   2.0000      -0.598840       -16.2953
  41   2.0000      -0.573415       -15.6034
  42   2.0000      -0.570395       -15.5212
  43   2.0000      -0.555835       -15.1250
  44   2.0000      -0.538578       -14.6555
  45   2.0000      -0.522119       -14.2076
  46   2.0000      -0.514608       -14.0032
  47   2.0000      -0.506756       -13.7895
  48   2.0000      -0.504046       -13.7158
  49   2.0000      -0.498228       -13.5575
  50   2.0000      -0.489044       -13.3076
  51   2.0000      -0.483701       -13.1622
  52   2.0000      -0.476923       -12.9777
  53   2.0000      -0.464819       -12.6484
  54   2.0000      -0.462886       -12.5958
  55   2.0000      -0.453455       -12.3391
  56   2.0000      -0.442038       -12.0285
  57   2.0000      -0.433292       -11.7905
  58   2.0000      -0.431448       -11.7403
  59   2.0000      -0.427534       -11.6338
  60   2.0000      -0.423705       -11.5296
  61   2.0000      -0.416640       -11.3373
  62   2.0000      -0.414366       -11.2755
  63   2.0000      -0.335098        -9.1185
  64   2.0000      -0.331879        -9.0309
  65   2.0000      -0.323996        -8.8164
  66   2.0000      -0.308305        -8.3894
  67   0.0000       0.033718         0.9175
  68   0.0000       0.063448         1.7265
  69   0.0000       0.121663         3.3106
  70   0.0000       0.126177         3.4335
  71   0.0000       0.129139         3.5141

MULLIKEN ATOMIC CHARGES
-----------------------
   0 S :    0.112620
   1 C :   -0.107620
   2 C :   -0.030541
   3 C :    0.037104
   4 C :   -0.200037
   5 H :   -0.001530
   6 C :    0.030769
   7 H :    0.033812
   8 H :    0.023830
   9 C :   -0.089781
  10 H :    0.027036
  11 H :    0.033748
  12 C :   -0.009203
  13 H :    0.004280
  14 H :    0.036722
  15 H :    0.025006
  16 S :    0.126740
  17 C :   -0.093090
  18 C :   -0.096198
  19 C :   -0.012368
  20 C :   -0.184311
  21 H :    0.044720
  22 C :    0.096246
  23 H :    0.026253
  24 H :    0.046706
  25 C :   -0.055326
  26 H :    0.022574
  27 H :    0.013776
  28 C :   -0.001266
  29 H :    0.029062
  30 H :    0.015096
  31 H :    0.001038
  32 H :    0.035041
  33 H :    0.059092
Sum of atomic charges:   -0.0000000

LOEWDIN ATOMIC CHARGES
----------------------
   0 S :    0.414306
   1 C :   -0.186531
   2 C :   -0.059863
   3 C :   -0.064688
   4 C :   -0.206287
   5 H :    0.025935
   6 C :   -0.039420
   7 H :    0.038682
   8 H :    0.025872
   9 C :   -0.039584
  10 H :    0.020534
  11 H :    0.023580
  12 C :   -0.054631
  13 H :    0.009869
  14 H :    0.036278
  15 H :    0.022067
  16 S :    0.411895
  17 C :   -0.204511
  18 C :   -0.081007
  19 C :   -0.052088
  20 C :   -0.197348
  21 H :    0.043280
  22 C :   -0.021749
  23 H :    0.032277
  24 H :    0.042487
  25 C :   -0.042358
  26 H :    0.027835
  27 H :    0.016075
  28 C :   -0.063772
  29 H :    0.029885
  30 H :    0.020144
  31 H :    0.021480
  32 H :    0.021355
  33 H :    0.029999

  Mayer bond orders larger than 0.100000
B(  0-S ,  1-C ) :   1.1491 B(  0-S ,  4-C ) :   1.1640 B(  1-C ,  2-C ) :   1.5982
B(  1-C ,  4-C ) :   0.1002 B(  1-C , 32-H ) :   0.9774 B(  2-C ,  3-C ) :   1.2302
B(  2-C ,  6-C ) :   1.0074 B(  3-C ,  4-C ) :   1.5802 B(  3-C ,  5-H ) :   0.9943
B(  4-C , 20-C ) :   1.0109 B(  6-C ,  7-H ) :   0.9478 B(  6-C ,  8-H ) :   0.9370
B(  6-C ,  9-C ) :   1.0629 B(  9-C , 10-H ) :   0.9576 B(  9-C , 11-H ) :   0.9549
B(  9-C , 12-C ) :   1.0752 B( 12-C , 13-H ) :   0.9741 B( 12-C , 14-H ) :   0.9723
B( 12-C , 15-H ) :   0.9774 B( 16-S , 17-C ) :   1.1435 B( 16-S , 20-C ) :   1.1545
B( 17-C , 18-C ) :   1.6571 B( 17-C , 33-H ) :   0.9577 B( 18-C , 19-C ) :   1.2197
B( 18-C , 21-H ) :   0.9702 B( 19-C , 20-C ) :   1.6251 B( 19-C , 22-C ) :   1.0270
B( 22-C , 23-H ) :   0.9243 B( 22-C , 24-H ) :   0.9313 B( 22-C , 25-C ) :   1.0812
B( 25-C , 26-H ) :   0.9442 B( 25-C , 27-H ) :   0.9477 B( 25-C , 28-C ) :   1.1046
B( 28-C , 29-H ) :   0.9688 B( 28-C , 30-H ) :   0.9681 B( 28-C , 31-H ) :   0.9626

Dispersion correction           -0.013387050
FINAL SINGLE POINT ENERGY     -1339.852254864597

DIPOLE MOMENT
-------------
                                X             Y             Z
Electronic contribution:     17.01726      21.23197      -0.93256
Nuclear contribution   :    -17.21699     -21.73632       0.90989
                        -----------------------------------------
Total Dipole Moment    :     -0.19972      -0.50435      -0.02266
                        -----------------------------------------
Magnitude (a.u.)       :      0.54293
Magnitude (Debye)      :      1.38002

Rotational constants in cm-1:     0.016683     0.007680     0.006376
Rotational constants in MHz :   500.152671   230.254847   191.138065

                             ****ORCA TERMINATED NORMALLY****
TOTAL RUN TIME: 0 days 0 hours 0 minutes 20 seconds 727 msec
