                         Program Version 4.2.1 -  RELEASE  -
|  1> ! wB97X-D3 SP def2-SVP
|  2> %pal
|  3> nprocs 24
|  4> end
|  5>
|  6> * xyz 0 1
|  7> S 	 -104.917 	 21.7201 	 -119.431
|  8> C 	 -104.846 	 20.2468 	 -118.459
|  9> C 	 -105.226 	 20.4502 	 -117.146
| 10> C 	 -105.484 	 21.8525 	 -116.891
| 11> C 	 -105.448 	 22.6233 	 -118.042
| 12> H 	 -105.713 	 22.2583 	 -115.914
| 13> C 	 -105.245 	 19.3534 	 -115.991
| 14> H 	 -104.315 	 18.8902 	 -116.259
| 15> H 	 -106.127 	 18.6922 	 -116.027
| 16> C 	 -105.216 	 19.9286 	 -114.522
| 17> H 	 -104.511 	 20.7058 	 -114.385
| 18> H 	 -106.153 	 20.4445 	 -114.341
| 19> C 	 -104.93 	 18.8557 	 -113.41
| 20> H 	 -105.68 	 18.1095 	 -113.417
| 21> H 	 -104.021 	 18.3328 	 -113.692
| 22> H 	 -104.815 	 19.1135 	 -112.335
| 23> S 	 -107.459 	 24.3957 	 -117.995
| 24> C 	 -107.186 	 26.076 	 -118.455
| 25> C 	 -105.823 	 26.2891 	 -118.71
| 26> C 	 -104.96 	 25.1884 	 -118.511
| 27> C 	 -105.725 	 24.0617 	 -118.171
| 28> H 	 -105.545 	 27.3097 	 -119.025
| 29> C 	 -103.507 	 25.2118 	 -118.816
| 30> H 	 -103.207 	 24.1946 	 -119.077
| 31> H 	 -102.974 	 25.3565 	 -117.88
| 32> C 	 -103.03 	 26.0187 	 -120.028
| 33> H 	 -103.259 	 27.1078 	 -119.864
| 34> H 	 -103.585 	 25.6078 	 -120.853
| 35> C 	 -101.525 	 25.9874 	 -120.255
| 36> H 	 -101.303 	 25.0844 	 -120.795
| 37> H 	 -100.895 	 26.2351 	 -119.294
| 38> H 	 -101.25 	 26.8025 	 -120.906
| 39> H 	 -104.57 	 19.3097 	 -118.869
| 40> H 	 -107.897 	 26.8738 	 -118.449
| 41> *
| 42>
| 43>                          ****END OF INPUT****

CARTESIAN COORDINATES (ANGSTROEM)
---------------------------------
  S    -104.917000   21.720100  -119.431000
  C    -104.846000   20.246800  -118.459000
  C    -105.226000   20.450200  -117.146000
  C    -105.484000   21.852500  -116.891000
  C    -105.448000   22.623300  -118.042000
  H    -105.713000   22.258300  -115.914000
  C    -105.245000   19.353400  -115.991000
  H    -104.315000   18.890200  -116.259000
  H    -106.127000   18.692200  -116.027000
  C    -105.216000   19.928600  -114.522000
  H    -104.511000   20.705800  -114.385000
  H    -106.153000   20.444500  -114.341000
  C    -104.930000   18.855700  -113.410000
  H    -105.680000   18.109500  -113.417000
  H    -104.021000   18.332800  -113.692000
  H    -104.815000   19.113500  -112.335000
  S    -107.459000   24.395700  -117.995000
  C    -107.186000   26.076000  -118.455000
  C    -105.823000   26.289100  -118.710000
  C    -104.960000   25.188400  -118.511000
  C    -105.725000   24.061700  -118.171000
  H    -105.545000   27.309700  -119.025000
  C    -103.507000   25.211800  -118.816000
  H    -103.207000   24.194600  -119.077000
  H    -102.974000   25.356500  -117.880000
  C    -103.030000   26.018700  -120.028000
  H    -103.259000   27.107800  -119.864000
  H    -103.585000   25.607800  -120.853000
  C    -101.525000   25.987400  -120.255000
  H    -101.303000   25.084400  -120.795000
  H    -100.895000   26.235100  -119.294000
  H    -101.250000   26.802500  -120.906000
  H    -104.570000   19.309700  -118.869000
  H    -107.897000   26.873800  -118.449000

 Total Charge           Charge          ....    0
 Multiplicity           Mult            ....    1
 Number of Electrons    NEL             ....  134
 Basis Dimension        Dim             ....  322

ORBITAL ENERGIES
----------------

  NO   OCC          E(Eh)            E(eV)
   0   2.0000     -88.967430     -2420.9269
   1   2.0000     -88.965362     -2420.8706
   2   2.0000     -10.327805      -281.0339
   3   2.0000     -10.326712      -281.0041
   4   2.0000     -10.315711      -280.7048
   5   2.0000     -10.312760      -280.6245
   6   2.0000     -10.307851      -280.4909
   7   2.0000     -10.304297      -280.3942
   8   2.0000     -10.303920      -280.3839
   9   2.0000     -10.294692      -280.1328
  10   2.0000     -10.293603      -280.1032
  11   2.0000     -10.291303      -280.0406
  12   2.0000     -10.288713      -279.9701
  13   2.0000     -10.286325      -279.9051
  14   2.0000     -10.283697      -279.8336
  15   2.0000     -10.280400      -279.7439
  16   2.0000      -8.081784      -219.9165
  17   2.0000      -8.079269      -219.8481
  18   2.0000      -6.040312      -164.3652
  19   2.0000      -6.037758      -164.2958
  20   2.0000      -6.036371      -164.2580
  21   2.0000      -6.033816      -164.1885
  22   2.0000      -6.032538      -164.1537
  23   2.0000      -6.030170      -164.0893
  24   2.0000      -1.001480       -27.2516
  25   2.0000      -0.977944       -26.6112
  26   2.0000      -0.911575       -24.8052
  27   2.0000      -0.900976       -24.5168
  28   2.0000      -0.863954       -23.5094
  29   2.0000      -0.852938       -23.2096
  30   2.0000      -0.842696       -22.9309
  31   2.0000      -0.809341       -22.0233
  32   2.0000      -0.783303       -21.3147
  33   2.0000      -0.771529       -20.9944
  34   2.0000      -0.713841       -19.4246
  35   2.0000      -0.698578       -19.0093
  36   2.0000      -0.690551       -18.7909
  37   2.0000      -0.654765       -17.8171
  38   2.0000      -0.637567       -17.3491
  39   2.0000      -0.614709       -16.7271
  40   2.0000      -0.596616       -16.2347
  41   2.0000      -0.575288       -15.6544
  42   2.0000      -0.572877       -15.5888
  43   2.0000      -0.555632       -15.1195
  44   2.0000      -0.522352       -14.2139
  45   2.0000      -0.521416       -14.1885
  46   2.0000      -0.510705       -13.8970
  47   2.0000      -0.508437       -13.8353
  48   2.0000      -0.504756       -13.7351
  49   2.0000      -0.498991       -13.5782
  50   2.0000      -0.488370       -13.2892
  51   2.0000      -0.473370       -12.8811
  52   2.0000      -0.467607       -12.7242
  53   2.0000      -0.462623       -12.5886
  54   2.0000      -0.461491       -12.5578
  55   2.0000      -0.450430       -12.2568
  56   2.0000      -0.447360       -12.1733
  57   2.0000      -0.434191       -11.8149
  58   2.0000      -0.431932       -11.7535
  59   2.0000      -0.428922       -11.6716
  60   2.0000      -0.425450       -11.5771
  61   2.0000      -0.417667       -11.3653
  62   2.0000      -0.406928       -11.0731
  63   2.0000      -0.334093        -9.0911
  64   2.0000      -0.331750        -9.0274
  65   2.0000      -0.325667        -8.8619
  66   2.0000      -0.298958        -8.1351
  67   0.0000       0.037122         1.0101
  68   0.0000       0.061518         1.6740
  69   0.0000       0.111601         3.0368
  70   0.0000       0.115895         3.1537
  71   0.0000       0.133475         3.6320

MULLIKEN ATOMIC CHARGES
-----------------------
   0 S :    0.120795
   1 C :   -0.131031
   2 C :   -0.090571
   3 C :    0.031941
   4 C :   -0.156905
   5 H :    0.013222
   6 C :    0.069057
   7 H :    0.034524
   8 H :    0.057676
   9 C :   -0.098032
  10 H :    0.025311
  11 H :    0.034353
  12 C :   -0.033943
  13 H :    0.014997
  14 H :    0.023234
  15 H :    0.044711
  16 S :    0.115151
  17 C :   -0.082075
  18 C :   -0.078517
  19 C :    0.016163
  20 C :   -0.196763
  21 H :    0.025474
  22 C :    0.090913
  23 H :    0.004879
  24 H :    0.031644
  25 C :   -0.104673
  26 H :    0.035121
  27 H :    0.038399
  28 C :   -0.046915
  29 H :    0.037391
  30 H :    0.048654
  31 H :    0.027925
  32 H :    0.031708
  33 H :    0.046184
Sum of atomic charges:    0.0000000

LOEWDIN ATOMIC CHARGES
----------------------
   0 S :    0.408575
   1 C :   -0.192107
   2 C :   -0.056588
   3 C :   -0.064823
   4 C :   -0.204889
   5 H :    0.031090
   6 C :   -0.021658
   7 H :    0.030754
   8 H :    0.037721
   9 C :   -0.040361
  10 H :    0.017313
  11 H :    0.022324
  12 C :   -0.067161
  13 H :    0.016515
  14 H :    0.024938
  15 H :    0.033694
  16 S :    0.404285
  17 C :   -0.185271
  18 C :   -0.073013
  19 C :   -0.056890
  20 C :   -0.192876
  21 H :    0.032721
  22 C :   -0.039336
  23 H :    0.026286
  24 H :    0.034816
  25 C :   -0.040834
  26 H :    0.023759
  27 H :    0.027735
  28 C :   -0.069762
  29 H :    0.024222
  30 H :    0.041143
  31 H :    0.024894
  32 H :    0.018296
  33 H :    0.024486

  Mayer bond orders larger than 0.100000
B(  0-S ,  1-C ) :   1.1357 B(  0-S ,  4-C ) :   1.1500 B(  1-C ,  2-C ) :   1.6411
B(  1-C , 32-H ) :   0.9761 B(  2-C ,  3-C ) :   1.2354 B(  2-C ,  6-C ) :   0.9756
B(  3-C ,  4-C ) :   1.5824 B(  3-C ,  5-H ) :   0.9917 B(  4-C , 20-C ) :   1.0029
B(  6-C ,  7-H ) :   0.9481 B(  6-C ,  8-H ) :   0.9446 B(  6-C ,  9-C ) :   1.0762
B(  9-C , 10-H ) :   0.9595 B(  9-C , 11-H ) :   0.9521 B(  9-C , 12-C ) :   1.0674
B( 12-C , 13-H ) :   0.9765 B( 12-C , 14-H ) :   0.9759 B( 12-C , 15-H ) :   0.9776
B( 16-S , 17-C ) :   1.1487 B( 16-S , 20-C ) :   1.1629 B( 17-C , 18-C ) :   1.6080
B( 17-C , 20-C ) :   0.1099 B( 17-C , 33-H ) :   0.9694 B( 18-C , 19-C ) :   1.2411
B( 18-C , 21-H ) :   0.9829 B( 19-C , 20-C ) :   1.5651 B( 19-C , 22-C ) :   1.0507
B( 22-C , 23-H ) :   0.9278 B( 22-C , 24-H ) :   0.9155 B( 22-C , 25-C ) :   1.0611
B( 25-C , 26-H ) :   0.9516 B( 25-C , 27-H ) :   0.9579 B( 25-C , 28-C ) :   1.0902
B( 28-C , 29-H ) :   0.9743 B( 28-C , 30-H ) :   0.9701 B( 28-C , 31-H ) :   0.9736

Dispersion correction           -0.013522957
FINAL SINGLE POINT ENERGY     -1339.869826041774

DIPOLE MOMENT
-------------
                                X             Y             Z
Electronic contribution:    -15.69345       3.47634     -10.17504
Nuclear contribution   :     16.03832      -3.47735      10.38940
                        -----------------------------------------
Total Dipole Moment    :      0.34488      -0.00101       0.21436
                        -----------------------------------------
Magnitude (a.u.)       :      0.40607
Magnitude (Debye)      :      1.03215

Rotational constants in cm-1:     0.019605     0.007155     0.006253
Rotational constants in MHz :   587.753797   214.502645   187.454800

                             ****ORCA TERMINATED NORMALLY****
TOTAL RUN TIME: 0 days 0 hours 0 minutes 20 seconds 664 msec
