                         Program Version 4.2.1 -  RELEASE  -
|  1> ! wB97X-D3 SP def2-SVP
|  2> %pal
|  3> nprocs 24
|  4> end
|  5>
|  6> * xyz 0 1
|  7> S 	 40.7855 	 -23.1912 	 -116.462
|  8> C 	 42.4577 	 -23.5471 	 -116.82
|  9> C 	 43.2632 	 -22.9671 	 -115.845
| 10> C 	 42.5064 	 -22.4651 	 -114.726
| 11> C 	 41.1882 	 -22.7604 	 -114.843
| 12> H 	 42.9438 	 -21.8996 	 -113.941
| 13> C 	 44.7305 	 -22.835 	 -115.976
| 14> H 	 45.2479 	 -21.9881 	 -115.573
| 15> H 	 44.9349 	 -22.7047 	 -117.032
| 16> C 	 45.5648 	 -24.0743 	 -115.738
| 17> H 	 45.1257 	 -24.9375 	 -116.152
| 18> H 	 46.5612 	 -24.018 	 -116.263
| 19> C 	 45.9068 	 -24.3311 	 -114.281
| 20> H 	 46.2552 	 -23.4193 	 -113.749
| 21> H 	 45.013 	 -24.7227 	 -113.804
| 22> H 	 46.7241 	 -25.0716 	 -114.156
| 23> S 	 39.0216 	 -21.1217 	 -114.473
| 24> C 	 38.4477 	 -20.9547 	 -112.878
| 25> C 	 39.128 	 -21.6374 	 -111.902
| 26> C 	 40.2037 	 -22.4627 	 -112.476
| 27> C 	 40.1865 	 -22.3405 	 -113.893
| 28> H 	 39.0028 	 -21.5408 	 -110.866
| 29> C 	 41.1884 	 -23.1953 	 -111.561
| 30> H 	 41.8868 	 -22.414 	 -111.399
| 31> H 	 41.6517 	 -23.8962 	 -112.217
| 32> C 	 40.7114 	 -23.7342 	 -110.211
| 33> H 	 40.0774 	 -23.0544 	 -109.616
| 34> H 	 41.5424 	 -24.2062 	 -109.663
| 35> C 	 39.6875 	 -24.933 	 -110.334
| 36> H 	 40.1609 	 -25.7268 	 -110.969
| 37> H 	 38.7383 	 -24.5983 	 -110.841
| 38> H 	 39.4158 	 -25.2554 	 -109.299
| 39> H 	 42.7476 	 -24.0842 	 -117.726
| 40> H 	 37.5927 	 -20.346 	 -112.682
| 41> *
| 42>
| 43>                          ****END OF INPUT****

CARTESIAN COORDINATES (ANGSTROEM)
---------------------------------
  S     40.785500  -23.191200  -116.462000
  C     42.457700  -23.547100  -116.820000
  C     43.263200  -22.967100  -115.845000
  C     42.506400  -22.465100  -114.726000
  C     41.188200  -22.760400  -114.843000
  H     42.943800  -21.899600  -113.941000
  C     44.730500  -22.835000  -115.976000
  H     45.247900  -21.988100  -115.573000
  H     44.934900  -22.704700  -117.032000
  C     45.564800  -24.074300  -115.738000
  H     45.125700  -24.937500  -116.152000
  H     46.561200  -24.018000  -116.263000
  C     45.906800  -24.331100  -114.281000
  H     46.255200  -23.419300  -113.749000
  H     45.013000  -24.722700  -113.804000
  H     46.724100  -25.071600  -114.156000
  S     39.021600  -21.121700  -114.473000
  C     38.447700  -20.954700  -112.878000
  C     39.128000  -21.637400  -111.902000
  C     40.203700  -22.462700  -112.476000
  C     40.186500  -22.340500  -113.893000
  H     39.002800  -21.540800  -110.866000
  C     41.188400  -23.195300  -111.561000
  H     41.886800  -22.414000  -111.399000
  H     41.651700  -23.896200  -112.217000
  C     40.711400  -23.734200  -110.211000
  H     40.077400  -23.054400  -109.616000
  H     41.542400  -24.206200  -109.663000
  C     39.687500  -24.933000  -110.334000
  H     40.160900  -25.726800  -110.969000
  H     38.738300  -24.598300  -110.841000
  H     39.415800  -25.255400  -109.299000
  H     42.747600  -24.084200  -117.726000
  H     37.592700  -20.346000  -112.682000

 Total Charge           Charge          ....    0
 Multiplicity           Mult            ....    1
 Number of Electrons    NEL             ....  134
 Basis Dimension        Dim             ....  322

ORBITAL ENERGIES
----------------

  NO   OCC          E(Eh)            E(eV)
   0   2.0000     -88.965608     -2420.8773
   1   2.0000     -88.962649     -2420.7968
   2   2.0000     -10.324869      -280.9540
   3   2.0000     -10.321572      -280.8643
   4   2.0000     -10.315377      -280.6957
   5   2.0000     -10.311793      -280.5982
   6   2.0000     -10.311005      -280.5767
   7   2.0000     -10.302241      -280.3382
   8   2.0000     -10.296354      -280.1780
   9   2.0000     -10.292260      -280.0666
  10   2.0000     -10.290565      -280.0205
  11   2.0000     -10.289505      -279.9917
  12   2.0000     -10.285552      -279.8841
  13   2.0000     -10.283312      -279.8231
  14   2.0000     -10.281463      -279.7728
  15   2.0000     -10.275351      -279.6065
  16   2.0000      -8.080918      -219.8930
  17   2.0000      -8.078396      -219.8243
  18   2.0000      -6.039299      -164.3377
  19   2.0000      -6.036844      -164.2709
  20   2.0000      -6.035593      -164.2368
  21   2.0000      -6.033021      -164.1669
  22   2.0000      -6.031545      -164.1267
  23   2.0000      -6.028910      -164.0550
  24   2.0000      -1.010325       -27.4923
  25   2.0000      -0.983229       -26.7550
  26   2.0000      -0.918363       -24.9899
  27   2.0000      -0.909424       -24.7467
  28   2.0000      -0.869834       -23.6694
  29   2.0000      -0.851284       -23.1646
  30   2.0000      -0.843455       -22.9516
  31   2.0000      -0.814247       -22.1568
  32   2.0000      -0.787449       -21.4276
  33   2.0000      -0.770330       -20.9617
  34   2.0000      -0.701154       -19.0794
  35   2.0000      -0.699487       -19.0340
  36   2.0000      -0.690395       -18.7866
  37   2.0000      -0.658327       -17.9140
  38   2.0000      -0.644670       -17.5423
  39   2.0000      -0.621509       -16.9121
  40   2.0000      -0.600950       -16.3527
  41   2.0000      -0.574611       -15.6359
  42   2.0000      -0.555301       -15.1105
  43   2.0000      -0.550036       -14.9672
  44   2.0000      -0.546163       -14.8618
  45   2.0000      -0.533197       -14.5090
  46   2.0000      -0.523044       -14.2328
  47   2.0000      -0.513787       -13.9809
  48   2.0000      -0.502052       -13.6615
  49   2.0000      -0.501535       -13.6475
  50   2.0000      -0.494176       -13.4472
  51   2.0000      -0.478900       -13.0315
  52   2.0000      -0.469242       -12.7687
  53   2.0000      -0.463964       -12.6251
  54   2.0000      -0.456669       -12.4266
  55   2.0000      -0.451534       -12.2869
  56   2.0000      -0.442509       -12.0413
  57   2.0000      -0.437444       -11.9035
  58   2.0000      -0.431687       -11.7468
  59   2.0000      -0.427899       -11.6437
  60   2.0000      -0.420879       -11.4527
  61   2.0000      -0.412938       -11.2366
  62   2.0000      -0.406572       -11.0634
  63   2.0000      -0.345283        -9.3956
  64   2.0000      -0.328057        -8.9269
  65   2.0000      -0.324497        -8.8300
  66   2.0000      -0.287489        -7.8230
  67   0.0000       0.028594         0.7781
  68   0.0000       0.065895         1.7931
  69   0.0000       0.101496         2.7618
  70   0.0000       0.118208         3.2166
  71   0.0000       0.129842         3.5332

MULLIKEN ATOMIC CHARGES
-----------------------
   0 S :    0.098922
   1 C :   -0.124657
   2 C :   -0.068070
   3 C :    0.033576
   4 C :   -0.143676
   5 H :    0.006546
   6 C :    0.084436
   7 H :    0.018241
   8 H :    0.014312
   9 C :   -0.077100
  10 H :    0.010863
  11 H :    0.025006
  12 C :   -0.062272
  13 H :    0.026088
  14 H :    0.032725
  15 H :    0.034071
  16 S :    0.108027
  17 C :   -0.068918
  18 C :   -0.013677
  19 C :   -0.106284
  20 C :   -0.143620
  21 H :   -0.004937
  22 C :    0.126806
  23 H :    0.037622
  24 H :    0.025947
  25 C :   -0.083987
  26 H :    0.040433
  27 H :    0.045600
  28 C :   -0.110752
  29 H :    0.042909
  30 H :    0.047972
  31 H :    0.043500
  32 H :    0.057159
  33 H :    0.047189
Sum of atomic charges:    0.0000000

LOEWDIN ATOMIC CHARGES
----------------------
   0 S :    0.409335
   1 C :   -0.194483
   2 C :   -0.057934
   3 C :   -0.055998
   4 C :   -0.203511
   5 H :    0.028590
   6 C :   -0.039802
   7 H :    0.029652
   8 H :    0.037184
   9 C :   -0.039565
  10 H :    0.015968
  11 H :    0.026698
  12 C :   -0.072184
  13 H :    0.023516
  14 H :    0.022807
  15 H :    0.026836
  16 S :    0.407182
  17 C :   -0.187276
  18 C :   -0.070624
  19 C :   -0.037896
  20 C :   -0.200367
  21 H :    0.020186
  22 C :   -0.030973
  23 H :    0.035404
  24 H :    0.030745
  25 C :   -0.043829
  26 H :    0.027295
  27 H :    0.033444
  28 C :   -0.073825
  29 H :    0.026246
  30 H :    0.027828
  31 H :    0.027427
  32 H :    0.030413
  33 H :    0.021511

  Mayer bond orders larger than 0.100000
B(  0-S ,  1-C ) :   1.1357 B(  0-S ,  4-C ) :   1.1607 B(  1-C ,  2-C ) :   1.5906
B(  1-C , 32-H ) :   0.9734 B(  2-C ,  3-C ) :   1.2342 B(  2-C ,  6-C ) :   1.0308
B(  3-C ,  4-C ) :   1.5399 B(  3-C ,  5-H ) :   1.0106 B(  4-C , 20-C ) :   1.0364
B(  6-C ,  7-H ) :   0.9465 B(  6-C ,  8-H ) :   0.9257 B(  6-C ,  9-C ) :   1.0795
B(  9-C , 10-H ) :   0.9525 B(  9-C , 11-H ) :   0.9559 B(  9-C , 12-C ) :   1.0815
B( 12-C , 13-H ) :   0.9746 B( 12-C , 14-H ) :   0.9765 B( 12-C , 15-H ) :   0.9748
B( 16-S , 17-C ) :   1.1648 B( 16-S , 20-C ) :   1.1312 B( 17-C , 18-C ) :   1.6142
B( 17-C , 33-H ) :   0.9661 B( 18-C , 19-C ) :   1.2245 B( 18-C , 21-H ) :   0.9970
B( 19-C , 20-C ) :   1.6200 B( 19-C , 22-C ) :   1.0153 B( 22-C , 23-H ) :   0.9231
B( 22-C , 24-H ) :   0.9310 B( 22-C , 25-C ) :   1.0733 B( 25-C , 26-H ) :   0.9558
B( 25-C , 27-H ) :   0.9544 B( 25-C , 28-C ) :   1.0653 B( 28-C , 29-H ) :   0.9765
B( 28-C , 30-H ) :   0.9766 B( 28-C , 31-H ) :   0.9768

Dispersion correction           -0.014204735
FINAL SINGLE POINT ENERGY     -1339.859452236268

DIPOLE MOMENT
-------------
                                X             Y             Z
Electronic contribution:    -19.26115      12.18109     -16.36138
Nuclear contribution   :     19.81455     -12.09500      16.73558
                        -----------------------------------------
Total Dipole Moment    :      0.55340       0.08609       0.37420
                        -----------------------------------------
Magnitude (a.u.)       :      0.67356
Magnitude (Debye)      :      1.71206

Rotational constants in cm-1:     0.017869     0.009013     0.006698
Rotational constants in MHz :   535.714077   270.201730   200.799031

                             ****ORCA TERMINATED NORMALLY****
TOTAL RUN TIME: 0 days 0 hours 0 minutes 21 seconds 884 msec
