                         Program Version 4.2.1 -  RELEASE  -
|  1> ! wB97X-D3 SP def2-SVP
|  2> %pal
|  3> nprocs 24
|  4> end
|  5>
|  6> * xyz 0 1
|  7> S 	 -115.098 	 32.6065 	 -15.1487
|  8> C 	 -114.438 	 31.6225 	 -16.4385
|  9> C 	 -115.418 	 31.0552 	 -17.2504
| 10> C 	 -116.699 	 31.4513 	 -16.7388
| 11> C 	 -116.658 	 32.2477 	 -15.6647
| 12> H 	 -117.722 	 31.0892 	 -17.0503
| 13> C 	 -115.271 	 29.9827 	 -18.3397
| 14> H 	 -115.572 	 28.9975 	 -17.8622
| 15> H 	 -114.22 	 30.0361 	 -18.5966
| 16> C 	 -115.871 	 30.3784 	 -19.7081
| 17> H 	 -116.993 	 30.507 	 -19.8039
| 18> H 	 -115.331 	 31.2808 	 -20.0938
| 19> C 	 -115.681 	 29.2793 	 -20.7127
| 20> H 	 -115.922 	 28.3331 	 -20.3822
| 21> H 	 -116.226 	 29.6175 	 -21.5317
| 22> H 	 -114.745 	 29.2979 	 -21.0366
| 23> S 	 -117.815 	 32.2193 	 -13.268
| 24> C 	 -119.391 	 32.9544 	 -12.9522
| 25> C 	 -119.88 	 33.4677 	 -14.171
| 26> C 	 -118.959 	 33.4516 	 -15.2349
| 27> C 	 -117.822 	 32.7785 	 -14.9087
| 28> H 	 -120.878 	 33.8154 	 -14.1843
| 29> C 	 -119.24 	 34.1124 	 -16.5532
| 30> H 	 -120.234 	 34.5455 	 -16.527
| 31> H 	 -119.489 	 33.3994 	 -17.2478
| 32> C 	 -118.306 	 35.2089 	 -17.0951
| 33> H 	 -117.389 	 34.7654 	 -17.1695
| 34> H 	 -118.089 	 36.1232 	 -16.5532
| 35> C 	 -118.589 	 35.5921 	 -18.5336
| 36> H 	 -119.265 	 36.366 	 -18.4268
| 37> H 	 -119.016 	 34.6925 	 -19.0184
| 38> H 	 -117.775 	 35.9909 	 -19.1169
| 39> H 	 -113.385 	 31.422 	 -16.4628
| 40> H 	 -119.922 	 32.7466 	 -12.0998
| 41> *
| 42>
| 43>                          ****END OF INPUT****

CARTESIAN COORDINATES (ANGSTROEM)
---------------------------------
  S    -115.098000   32.606500  -15.148700
  C    -114.438000   31.622500  -16.438500
  C    -115.418000   31.055200  -17.250400
  C    -116.699000   31.451300  -16.738800
  C    -116.658000   32.247700  -15.664700
  H    -117.722000   31.089200  -17.050300
  C    -115.271000   29.982700  -18.339700
  H    -115.572000   28.997500  -17.862200
  H    -114.220000   30.036100  -18.596600
  C    -115.871000   30.378400  -19.708100
  H    -116.993000   30.507000  -19.803900
  H    -115.331000   31.280800  -20.093800
  C    -115.681000   29.279300  -20.712700
  H    -115.922000   28.333100  -20.382200
  H    -116.226000   29.617500  -21.531700
  H    -114.745000   29.297900  -21.036600
  S    -117.815000   32.219300  -13.268000
  C    -119.391000   32.954400  -12.952200
  C    -119.880000   33.467700  -14.171000
  C    -118.959000   33.451600  -15.234900
  C    -117.822000   32.778500  -14.908700
  H    -120.878000   33.815400  -14.184300
  C    -119.240000   34.112400  -16.553200
  H    -120.234000   34.545500  -16.527000
  H    -119.489000   33.399400  -17.247800
  C    -118.306000   35.208900  -17.095100
  H    -117.389000   34.765400  -17.169500
  H    -118.089000   36.123200  -16.553200
  C    -118.589000   35.592100  -18.533600
  H    -119.265000   36.366000  -18.426800
  H    -119.016000   34.692500  -19.018400
  H    -117.775000   35.990900  -19.116900
  H    -113.385000   31.422000  -16.462800
  H    -119.922000   32.746600  -12.099800

 Total Charge           Charge          ....    0
 Multiplicity           Mult            ....    1
 Number of Electrons    NEL             ....  134
 Basis Dimension        Dim             ....  322

ORBITAL ENERGIES
----------------

  NO   OCC          E(Eh)            E(eV)
   0   2.0000     -88.963295     -2420.8143
   1   2.0000     -88.961533     -2420.7664
   2   2.0000     -10.321769      -280.8696
   3   2.0000     -10.317747      -280.7602
   4   2.0000     -10.312120      -280.6071
   5   2.0000     -10.311846      -280.5996
   6   2.0000     -10.303526      -280.3732
   7   2.0000     -10.301727      -280.3242
   8   2.0000     -10.298325      -280.2317
   9   2.0000     -10.292782      -280.0808
  10   2.0000     -10.291990      -280.0593
  11   2.0000     -10.288236      -279.9571
  12   2.0000     -10.283424      -279.8262
  13   2.0000     -10.269687      -279.4524
  14   2.0000     -10.265756      -279.3454
  15   2.0000     -10.253410      -279.0095
  16   2.0000      -8.079517      -219.8548
  17   2.0000      -8.076519      -219.7732
  18   2.0000      -6.037839      -164.2980
  19   2.0000      -6.034888      -164.2177
  20   2.0000      -6.033862      -164.1897
  21   2.0000      -6.030879      -164.1086
  22   2.0000      -6.030341      -164.0939
  23   2.0000      -6.027517      -164.0171
  24   2.0000      -1.014006       -27.5925
  25   2.0000      -0.987239       -26.8641
  26   2.0000      -0.917550       -24.9678
  27   2.0000      -0.912021       -24.8174
  28   2.0000      -0.872290       -23.7362
  29   2.0000      -0.857089       -23.3226
  30   2.0000      -0.851081       -23.1591
  31   2.0000      -0.816167       -22.2090
  32   2.0000      -0.786283       -21.3959
  33   2.0000      -0.777237       -21.1497
  34   2.0000      -0.707097       -19.2411
  35   2.0000      -0.697870       -18.9900
  36   2.0000      -0.688947       -18.7472
  37   2.0000      -0.669586       -18.2204
  38   2.0000      -0.645848       -17.5744
  39   2.0000      -0.617507       -16.8032
  40   2.0000      -0.601324       -16.3629
  41   2.0000      -0.578221       -15.7342
  42   2.0000      -0.567554       -15.4439
  43   2.0000      -0.562068       -15.2947
  44   2.0000      -0.537959       -14.6386
  45   2.0000      -0.527711       -14.3597
  46   2.0000      -0.524475       -14.2717
  47   2.0000      -0.519488       -14.1360
  48   2.0000      -0.504189       -13.7197
  49   2.0000      -0.497327       -13.5329
  50   2.0000      -0.491108       -13.3637
  51   2.0000      -0.489316       -13.3150
  52   2.0000      -0.470442       -12.8014
  53   2.0000      -0.459997       -12.5171
  54   2.0000      -0.456635       -12.4257
  55   2.0000      -0.447193       -12.1687
  56   2.0000      -0.444905       -12.1065
  57   2.0000      -0.443800       -12.0764
  58   2.0000      -0.431230       -11.7344
  59   2.0000      -0.425974       -11.5913
  60   2.0000      -0.419549       -11.4165
  61   2.0000      -0.412901       -11.2356
  62   2.0000      -0.398705       -10.8493
  63   2.0000      -0.339909        -9.2494
  64   2.0000      -0.332988        -9.0611
  65   2.0000      -0.328215        -8.9312
  66   2.0000      -0.298733        -8.1289
  67   0.0000       0.040383         1.0989
  68   0.0000       0.069937         1.9031
  69   0.0000       0.113358         3.0846
  70   0.0000       0.126618         3.4455
  71   0.0000       0.130519         3.5516

MULLIKEN ATOMIC CHARGES
-----------------------
   0 S :    0.120341
   1 C :   -0.134559
   2 C :   -0.076400
   3 C :    0.015745
   4 C :   -0.159192
   5 H :    0.026268
   6 C :    0.067543
   7 H :    0.066665
   8 H :    0.015396
   9 C :   -0.154347
  10 H :    0.038184
  11 H :    0.040759
  12 C :    0.085242
  13 H :    0.014886
  14 H :    0.007531
  15 H :   -0.017400
  16 S :    0.094702
  17 C :   -0.066006
  18 C :   -0.044008
  19 C :   -0.014005
  20 C :   -0.162425
  21 H :    0.006920
  22 C :    0.132403
  23 H :   -0.012079
  24 H :   -0.005155
  25 C :   -0.023710
  26 H :    0.006317
  27 H :    0.026665
  28 C :   -0.043721
  29 H :    0.013241
  30 H :    0.029050
  31 H :    0.032914
  32 H :    0.039355
  33 H :    0.032881
Sum of atomic charges:    0.0000000

LOEWDIN ATOMIC CHARGES
----------------------
   0 S :    0.429850
   1 C :   -0.197161
   2 C :   -0.061984
   3 C :   -0.074776
   4 C :   -0.223109
   5 H :    0.040086
   6 C :   -0.034229
   7 H :    0.045110
   8 H :    0.032537
   9 C :   -0.041109
  10 H :    0.025742
  11 H :    0.033602
  12 C :   -0.043515
  13 H :    0.016418
  14 H :    0.024057
  15 H :    0.005432
  16 S :    0.410464
  17 C :   -0.172745
  18 C :   -0.056428
  19 C :   -0.064315
  20 C :   -0.192398
  21 H :    0.024861
  22 C :   -0.025997
  23 H :    0.029403
  24 H :    0.022465
  25 C :   -0.034029
  26 H :    0.012429
  27 H :    0.027403
  28 C :   -0.055280
  29 H :    0.013314
  30 H :    0.027708
  31 H :    0.026466
  32 H :    0.019697
  33 H :    0.010034

  Mayer bond orders larger than 0.100000
B(  0-S ,  1-C ) :   1.1418 B(  0-S ,  4-C ) :   1.1641 B(  1-C ,  2-C ) :   1.6147
B(  1-C , 32-H ) :   0.9740 B(  2-C ,  3-C ) :   1.2150 B(  2-C ,  6-C ) :   1.0202
B(  3-C ,  4-C ) :   1.6327 B(  3-C ,  5-H ) :   0.9856 B(  4-C , 20-C ) :   0.9633
B(  6-C ,  7-H ) :   0.9443 B(  6-C ,  8-H ) :   0.9360 B(  6-C ,  9-C ) :   1.0562
B(  9-C , 10-H ) :   0.9659 B(  9-C , 11-H ) :   0.9557 B(  9-C , 12-C ) :   1.0830
B( 12-C , 13-H ) :   0.9708 B( 12-C , 14-H ) :   0.9684 B( 12-C , 15-H ) :   0.9622
B( 16-S , 17-C ) :   1.1539 B( 16-S , 20-C ) :   1.1750 B( 17-C , 18-C ) :   1.5862
B( 17-C , 20-C ) :   0.1085 B( 17-C , 33-H ) :   0.9804 B( 18-C , 19-C ) :   1.2522
B( 18-C , 21-H ) :   0.9947 B( 19-C , 20-C ) :   1.6017 B( 19-C , 22-C ) :   1.0435
B( 22-C , 23-H ) :   0.9159 B( 22-C , 24-H ) :   0.9104 B( 22-C , 25-C ) :   1.0545
B( 25-C , 26-H ) :   0.9520 B( 25-C , 27-H ) :   0.9598 B( 25-C , 28-C ) :   1.0768
B( 28-C , 29-H ) :   0.9821 B( 28-C , 30-H ) :   0.9737 B( 28-C , 31-H ) :   0.9738

Dispersion correction           -0.013841966
FINAL SINGLE POINT ENERGY     -1339.829512941759

DIPOLE MOMENT
-------------
                                X             Y             Z
Electronic contribution:      4.13160      -0.04869      29.50604
Nuclear contribution   :     -4.33790      -0.19383     -30.11661
                        -----------------------------------------
Total Dipole Moment    :     -0.20630      -0.24251      -0.61057
                        -----------------------------------------
Magnitude (a.u.)       :      0.68860
Magnitude (Debye)      :      1.75027

Rotational constants in cm-1:     0.017636     0.008747     0.007050
Rotational constants in MHz :   528.704891   262.217413   211.366671

                             ****ORCA TERMINATED NORMALLY****
TOTAL RUN TIME: 0 days 0 hours 0 minutes 20 seconds 638 msec
