                         Program Version 4.2.1 -  RELEASE  -
|  1> ! wB97X-D3 SP def2-SVP
|  2> %pal
|  3> nprocs 24
|  4> end
|  5>
|  6> * xyz 0 1
|  7> S 	 -49.2473 	 22.3009 	 25.9699
|  8> C 	 -50.3255 	 23.6171 	 26.1887
|  9> C 	 -51.6339 	 23.2241 	 26.2469
| 10> C 	 -51.7473 	 21.8385 	 25.9061
| 11> C 	 -50.5844 	 21.2472 	 25.5515
| 12> H 	 -52.6374 	 21.2479 	 25.8104
| 13> C 	 -52.9123 	 24.0981 	 26.2671
| 14> H 	 -53.7213 	 23.5305 	 25.7762
| 15> H 	 -52.7603 	 24.9071 	 25.5599
| 16> C 	 -53.578 	 24.4627 	 27.6253
| 17> H 	 -52.938 	 25.171 	 28.1438
| 18> H 	 -54.5944 	 24.9455 	 27.575
| 19> C 	 -53.5954 	 23.2434 	 28.5117
| 20> H 	 -54.4538 	 23.2401 	 29.2161
| 21> H 	 -53.5748 	 22.2789 	 27.9323
| 22> H 	 -52.5942 	 23.2127 	 29.0397
| 23> S 	 -49.624 	 18.5779 	 25.7454
| 24> C 	 -50.0727 	 17.4892 	 24.4144
| 25> C 	 -50.462 	 18.2447 	 23.3245
| 26> C 	 -50.6443 	 19.628 	 23.5906
| 27> C 	 -50.3299 	 19.9803 	 24.8419
| 28> H 	 -50.7627 	 17.8087 	 22.3853
| 29> C 	 -51.1283 	 20.6795 	 22.5684
| 30> H 	 -50.7396 	 21.6848 	 22.8106
| 31> H 	 -52.2049 	 20.6593 	 22.7713
| 32> C 	 -50.9898 	 20.3971 	 21.0602
| 33> H 	 -51.1848 	 19.3648 	 20.8423
| 34> H 	 -49.9701 	 20.5196 	 20.7886
| 35> C 	 -51.8559 	 21.4353 	 20.2605
| 36> H 	 -52.8692 	 21.4558 	 20.6563
| 37> H 	 -51.7859 	 20.9078 	 19.2948
| 38> H 	 -51.3321 	 22.403 	 20.3759
| 39> H 	 -49.9818 	 24.5962 	 26.2772
| 40> H 	 -50.176 	 16.459 	 24.6215
| 41> *
| 42>
| 43>                          ****END OF INPUT****

CARTESIAN COORDINATES (ANGSTROEM)
---------------------------------
  S    -49.247300   22.300900   25.969900
  C    -50.325500   23.617100   26.188700
  C    -51.633900   23.224100   26.246900
  C    -51.747300   21.838500   25.906100
  C    -50.584400   21.247200   25.551500
  H    -52.637400   21.247900   25.810400
  C    -52.912300   24.098100   26.267100
  H    -53.721300   23.530500   25.776200
  H    -52.760300   24.907100   25.559900
  C    -53.578000   24.462700   27.625300
  H    -52.938000   25.171000   28.143800
  H    -54.594400   24.945500   27.575000
  C    -53.595400   23.243400   28.511700
  H    -54.453800   23.240100   29.216100
  H    -53.574800   22.278900   27.932300
  H    -52.594200   23.212700   29.039700
  S    -49.624000   18.577900   25.745400
  C    -50.072700   17.489200   24.414400
  C    -50.462000   18.244700   23.324500
  C    -50.644300   19.628000   23.590600
  C    -50.329900   19.980300   24.841900
  H    -50.762700   17.808700   22.385300
  C    -51.128300   20.679500   22.568400
  H    -50.739600   21.684800   22.810600
  H    -52.204900   20.659300   22.771300
  C    -50.989800   20.397100   21.060200
  H    -51.184800   19.364800   20.842300
  H    -49.970100   20.519600   20.788600
  C    -51.855900   21.435300   20.260500
  H    -52.869200   21.455800   20.656300
  H    -51.785900   20.907800   19.294800
  H    -51.332100   22.403000   20.375900
  H    -49.981800   24.596200   26.277200
  H    -50.176000   16.459000   24.621500

 Total Charge           Charge          ....    0
 Multiplicity           Mult            ....    1
 Number of Electrons    NEL             ....  134
 Basis Dimension        Dim             ....  322

ORBITAL ENERGIES
----------------

  NO   OCC          E(Eh)            E(eV)
   0   2.0000     -88.961186     -2420.7569
   1   2.0000     -88.957993     -2420.6700
   2   2.0000     -10.324678      -280.9488
   3   2.0000     -10.322552      -280.8909
   4   2.0000     -10.320931      -280.8468
   5   2.0000     -10.309523      -280.5364
   6   2.0000     -10.303768      -280.3798
   7   2.0000     -10.299838      -280.2728
   8   2.0000     -10.296853      -280.1916
   9   2.0000     -10.296114      -280.1715
  10   2.0000     -10.292829      -280.0821
  11   2.0000     -10.291042      -280.0335
  12   2.0000     -10.288492      -279.9641
  13   2.0000     -10.286197      -279.9016
  14   2.0000     -10.284217      -279.8478
  15   2.0000     -10.280529      -279.7474
  16   2.0000      -8.077199      -219.7918
  17   2.0000      -8.072222      -219.6563
  18   2.0000      -6.035612      -164.2373
  19   2.0000      -6.031621      -164.1288
  20   2.0000      -6.030789      -164.1061
  21   2.0000      -6.027886      -164.0271
  22   2.0000      -6.026966      -164.0021
  23   2.0000      -6.022785      -163.8883
  24   2.0000      -1.009262       -27.4634
  25   2.0000      -0.985642       -26.8207
  26   2.0000      -0.908817       -24.7302
  27   2.0000      -0.906531       -24.6680
  28   2.0000      -0.870619       -23.6908
  29   2.0000      -0.849327       -23.1114
  30   2.0000      -0.845876       -23.0174
  31   2.0000      -0.814422       -22.1616
  32   2.0000      -0.778332       -21.1795
  33   2.0000      -0.770825       -20.9752
  34   2.0000      -0.705632       -19.2012
  35   2.0000      -0.699783       -19.0421
  36   2.0000      -0.694191       -18.8899
  37   2.0000      -0.659024       -17.9330
  38   2.0000      -0.653022       -17.7696
  39   2.0000      -0.610875       -16.6228
  40   2.0000      -0.601073       -16.3560
  41   2.0000      -0.570536       -15.5251
  42   2.0000      -0.569252       -15.4901
  43   2.0000      -0.551839       -15.0163
  44   2.0000      -0.544647       -14.8206
  45   2.0000      -0.537056       -14.6140
  46   2.0000      -0.517702       -14.0874
  47   2.0000      -0.506358       -13.7787
  48   2.0000      -0.502862       -13.6836
  49   2.0000      -0.497761       -13.5448
  50   2.0000      -0.485746       -13.2178
  51   2.0000      -0.483937       -13.1686
  52   2.0000      -0.468174       -12.7397
  53   2.0000      -0.463935       -12.6243
  54   2.0000      -0.460812       -12.5393
  55   2.0000      -0.445897       -12.1335
  56   2.0000      -0.442155       -12.0316
  57   2.0000      -0.431428       -11.7397
  58   2.0000      -0.430475       -11.7138
  59   2.0000      -0.427952       -11.6452
  60   2.0000      -0.426100       -11.5948
  61   2.0000      -0.404770       -11.0143
  62   2.0000      -0.403862       -10.9896
  63   2.0000      -0.338558        -9.2126
  64   2.0000      -0.330930        -9.0050
  65   2.0000      -0.327959        -8.9242
  66   2.0000      -0.299867        -8.1598
  67   0.0000       0.041748         1.1360
  68   0.0000       0.047262         1.2861
  69   0.0000       0.111964         3.0467
  70   0.0000       0.117574         3.1994
  71   0.0000       0.128914         3.5079

MULLIKEN ATOMIC CHARGES
-----------------------
   0 S :    0.108649
   1 C :   -0.101625
   2 C :   -0.068190
   3 C :    0.043916
   4 C :   -0.183768
   5 H :    0.010588
   6 C :    0.034014
   7 H :    0.025053
   8 H :    0.031306
   9 C :   -0.059866
  10 H :    0.026342
  11 H :    0.043784
  12 C :   -0.089759
  13 H :    0.045934
  14 H :    0.028167
  15 H :    0.047403
  16 S :    0.073731
  17 C :   -0.087213
  18 C :   -0.022103
  19 C :   -0.010042
  20 C :   -0.173659
  21 H :    0.013507
  22 C :    0.060429
  23 H :    0.045935
  24 H :    0.026368
  25 C :   -0.087075
  26 H :    0.019097
  27 H :    0.026041
  28 C :   -0.049603
  29 H :    0.037914
  30 H :    0.048026
  31 H :    0.051885
  32 H :    0.025073
  33 H :    0.059742
Sum of atomic charges:   -0.0000000

LOEWDIN ATOMIC CHARGES
----------------------
   0 S :    0.408137
   1 C :   -0.183850
   2 C :   -0.068165
   3 C :   -0.057069
   4 C :   -0.189015
   5 H :    0.029943
   6 C :   -0.031986
   7 H :    0.032209
   8 H :    0.029155
   9 C :   -0.049835
  10 H :    0.020106
  11 H :    0.030349
  12 C :   -0.077253
  13 H :    0.028328
  14 H :    0.025909
  15 H :    0.036904
  16 S :    0.352864
  17 C :   -0.156265
  18 C :   -0.072296
  19 C :   -0.055331
  20 C :   -0.185651
  21 H :    0.027255
  22 C :   -0.030912
  23 H :    0.035008
  24 H :    0.033106
  25 C :   -0.038998
  26 H :    0.014656
  27 H :    0.020157
  28 C :   -0.059208
  29 H :    0.023319
  30 H :    0.035843
  31 H :    0.033526
  32 H :    0.015363
  33 H :    0.023694

  Mayer bond orders larger than 0.100000
B(  0-S ,  1-C ) :   1.1544 B(  0-S ,  4-C ) :   1.1377 B(  1-C ,  2-C ) :   1.6217
B(  1-C , 32-H ) :   0.9806 B(  2-C ,  3-C ) :   1.2010 B(  2-C ,  6-C ) :   1.0018
B(  3-C ,  4-C ) :   1.6415 B(  3-C ,  5-H ) :   0.9967 B(  4-C , 20-C ) :   0.9886
B(  6-C ,  7-H ) :   0.9501 B(  6-C ,  8-H ) :   0.9524 B(  6-C ,  9-C ) :   1.0566
B(  9-C , 10-H ) :   0.9619 B(  9-C , 11-H ) :   0.9643 B(  9-C , 12-C ) :   1.0612
B( 12-C , 13-H ) :   0.9746 B( 12-C , 14-H ) :   0.9800 B( 12-C , 15-H ) :   0.9682
B( 16-S , 17-C ) :   1.1534 B( 16-S , 20-C ) :   1.1085 B( 17-C , 18-C ) :   1.5992
B( 17-C , 33-H ) :   0.9761 B( 18-C , 19-C ) :   1.2251 B( 18-C , 21-H ) :   0.9881
B( 19-C , 20-C ) :   1.6769 B( 19-C , 22-C ) :   1.0087 B( 22-C , 23-H ) :   0.9412
B( 22-C , 24-H ) :   0.9290 B( 22-C , 25-C ) :   1.0685 B( 25-C , 26-H ) :   0.9551
B( 25-C , 27-H ) :   0.9549 B( 25-C , 28-C ) :   1.0627 B( 28-C , 29-H ) :   0.9801
B( 28-C , 30-H ) :   0.9766 B( 28-C , 31-H ) :   0.9767

Dispersion correction           -0.014269171
FINAL SINGLE POINT ENERGY     -1339.853461290179

DIPOLE MOMENT
-------------
                                X             Y             Z
Electronic contribution:     19.13986     -12.01306       9.12447
Nuclear contribution   :    -19.75523      12.20859      -9.61667
                        -----------------------------------------
Total Dipole Moment    :     -0.61537       0.19553      -0.49220
                        -----------------------------------------
Magnitude (a.u.)       :      0.81190
Magnitude (Debye)      :      2.06367

Rotational constants in cm-1:     0.017525     0.008462     0.006892
Rotational constants in MHz :   525.387857   253.689156   206.615960

                             ****ORCA TERMINATED NORMALLY****
TOTAL RUN TIME: 0 days 0 hours 0 minutes 21 seconds 524 msec
