                         Program Version 4.2.1 -  RELEASE  -
|  1> ! wB97X-D3 SP def2-SVP
|  2> %pal
|  3> nprocs 24
|  4> end
|  5>
|  6> * xyz 0 1
|  7> S 	 -105.01 	 58.3272 	 -88.9152
|  8> C 	 -103.336 	 58.8032 	 -88.754
|  9> C 	 -102.472 	 58.051 	 -89.5524
| 10> C 	 -103.19 	 57.1167 	 -90.3032
| 11> C 	 -104.562 	 57.1259 	 -90.0511
| 12> H 	 -102.715 	 56.4702 	 -91.016
| 13> C 	 -100.976 	 58.075 	 -89.5661
| 14> H 	 -100.701 	 57.061 	 -89.4383
| 15> H 	 -100.584 	 58.7583 	 -88.772
| 16> C 	 -100.205 	 58.4037 	 -90.7616
| 17> H 	 -100.555 	 57.8614 	 -91.6911
| 18> H 	 -100.516 	 59.4262 	 -90.9219
| 19> C 	 -98.6533 	 58.3785 	 -90.6765
| 20> H 	 -98.2062 	 58.9313 	 -89.827
| 21> H 	 -98.3024 	 57.3282 	 -90.3731
| 22> H 	 -98.104 	 58.7195 	 -91.5389
| 23> S 	 -106.342 	 55.2485 	 -89.3406
| 24> C 	 -107.214 	 54.33 	 -90.5387
| 25> C 	 -106.815 	 54.7355 	 -91.8175
| 26> C 	 -105.768 	 55.7459 	 -91.852
| 27> C 	 -105.527 	 56.17 	 -90.5895
| 28> H 	 -107.201 	 54.197 	 -92.6792
| 29> C 	 -105.088 	 56.2199 	 -93.127
| 30> H 	 -104.063 	 56.4911 	 -92.9365
| 31> H 	 -105.625 	 57.1408 	 -93.4537
| 32> C 	 -104.9 	 55.1986 	 -94.3149
| 33> H 	 -105.915 	 54.8207 	 -94.6194
| 34> H 	 -104.161 	 54.3641 	 -94.0483
| 35> C 	 -104.298 	 55.8065 	 -95.6173
| 36> H 	 -104.562 	 55.2855 	 -96.4506
| 37> H 	 -103.196 	 55.7521 	 -95.5098
| 38> H 	 -104.533 	 56.8717 	 -95.6799
| 39> H 	 -103.03 	 59.5514 	 -88.0048
| 40> H 	 -108.001 	 53.5655 	 -90.4829
| 41> *
| 42>
| 43>                          ****END OF INPUT****

CARTESIAN COORDINATES (ANGSTROEM)
---------------------------------
  S    -105.010000   58.327200  -88.915200
  C    -103.336000   58.803200  -88.754000
  C    -102.472000   58.051000  -89.552400
  C    -103.190000   57.116700  -90.303200
  C    -104.562000   57.125900  -90.051100
  H    -102.715000   56.470200  -91.016000
  C    -100.976000   58.075000  -89.566100
  H    -100.701000   57.061000  -89.438300
  H    -100.584000   58.758300  -88.772000
  C    -100.205000   58.403700  -90.761600
  H    -100.555000   57.861400  -91.691100
  H    -100.516000   59.426200  -90.921900
  C    -98.653300   58.378500  -90.676500
  H    -98.206200   58.931300  -89.827000
  H    -98.302400   57.328200  -90.373100
  H    -98.104000   58.719500  -91.538900
  S    -106.342000   55.248500  -89.340600
  C    -107.214000   54.330000  -90.538700
  C    -106.815000   54.735500  -91.817500
  C    -105.768000   55.745900  -91.852000
  C    -105.527000   56.170000  -90.589500
  H    -107.201000   54.197000  -92.679200
  C    -105.088000   56.219900  -93.127000
  H    -104.063000   56.491100  -92.936500
  H    -105.625000   57.140800  -93.453700
  C    -104.900000   55.198600  -94.314900
  H    -105.915000   54.820700  -94.619400
  H    -104.161000   54.364100  -94.048300
  C    -104.298000   55.806500  -95.617300
  H    -104.562000   55.285500  -96.450600
  H    -103.196000   55.752100  -95.509800
  H    -104.533000   56.871700  -95.679900
  H    -103.030000   59.551400  -88.004800
  H    -108.001000   53.565500  -90.482900

 Total Charge           Charge          ....    0
 Multiplicity           Mult            ....    1
 Number of Electrons    NEL             ....  134
 Basis Dimension        Dim             ....  322

ORBITAL ENERGIES
----------------

  NO   OCC          E(Eh)            E(eV)
   0   2.0000     -88.970732     -2421.0167
   1   2.0000     -88.965520     -2420.8749
   2   2.0000     -10.325954      -280.9835
   3   2.0000     -10.321622      -280.8656
   4   2.0000     -10.317078      -280.7420
   5   2.0000     -10.315257      -280.6924
   6   2.0000     -10.303642      -280.3763
   7   2.0000     -10.301316      -280.3131
   8   2.0000     -10.300214      -280.2831
   9   2.0000     -10.298892      -280.2471
  10   2.0000     -10.293781      -280.1080
  11   2.0000     -10.290409      -280.0163
  12   2.0000     -10.289738      -279.9980
  13   2.0000     -10.288703      -279.9698
  14   2.0000     -10.288148      -279.9547
  15   2.0000     -10.276149      -279.6282
  16   2.0000      -8.085926      -220.0292
  17   2.0000      -8.080121      -219.8713
  18   2.0000      -6.044163      -164.4700
  19   2.0000      -6.040405      -164.3678
  20   2.0000      -6.038733      -164.3223
  21   2.0000      -6.036913      -164.2727
  22   2.0000      -6.034661      -164.2115
  23   2.0000      -6.030751      -164.1051
  24   2.0000      -1.011109       -27.5137
  25   2.0000      -0.985429       -26.8149
  26   2.0000      -0.924407       -25.1544
  27   2.0000      -0.902669       -24.5629
  28   2.0000      -0.867534       -23.6068
  29   2.0000      -0.856566       -23.3083
  30   2.0000      -0.847447       -23.0602
  31   2.0000      -0.809738       -22.0341
  32   2.0000      -0.786875       -21.4119
  33   2.0000      -0.776759       -21.1367
  34   2.0000      -0.704741       -19.1770
  35   2.0000      -0.695626       -18.9290
  36   2.0000      -0.693396       -18.8683
  37   2.0000      -0.655153       -17.8276
  38   2.0000      -0.639622       -17.4050
  39   2.0000      -0.627438       -17.0735
  40   2.0000      -0.594923       -16.1887
  41   2.0000      -0.579845       -15.7784
  42   2.0000      -0.566220       -15.4076
  43   2.0000      -0.560232       -15.2447
  44   2.0000      -0.528593       -14.3837
  45   2.0000      -0.525388       -14.2965
  46   2.0000      -0.518202       -14.1010
  47   2.0000      -0.510791       -13.8993
  48   2.0000      -0.510124       -13.8812
  49   2.0000      -0.492871       -13.4117
  50   2.0000      -0.490213       -13.3394
  51   2.0000      -0.483426       -13.1547
  52   2.0000      -0.472057       -12.8453
  53   2.0000      -0.464818       -12.6483
  54   2.0000      -0.459401       -12.5009
  55   2.0000      -0.454315       -12.3625
  56   2.0000      -0.449452       -12.2302
  57   2.0000      -0.442829       -12.0500
  58   2.0000      -0.428546       -11.6613
  59   2.0000      -0.425312       -11.5733
  60   2.0000      -0.423586       -11.5264
  61   2.0000      -0.411555       -11.1990
  62   2.0000      -0.406818       -11.0701
  63   2.0000      -0.341479        -9.2921
  64   2.0000      -0.334016        -9.0890
  65   2.0000      -0.328014        -8.9257
  66   2.0000      -0.293015        -7.9734
  67   0.0000       0.035071         0.9543
  68   0.0000       0.071171         1.9366
  69   0.0000       0.113734         3.0949
  70   0.0000       0.123111         3.3500
  71   0.0000       0.123459         3.3595

MULLIKEN ATOMIC CHARGES
-----------------------
   0 S :    0.134135
   1 C :   -0.154921
   2 C :   -0.047077
   3 C :    0.027817
   4 C :   -0.169345
   5 H :    0.004773
   6 C :    0.092077
   7 H :    0.013697
   8 H :    0.023811
   9 C :   -0.084380
  10 H :    0.032071
  11 H :    0.015860
  12 C :   -0.063167
  13 H :    0.026290
  14 H :    0.028216
  15 H :    0.046609
  16 S :    0.114611
  17 C :   -0.086068
  18 C :   -0.063226
  19 C :   -0.009431
  20 C :   -0.160395
  21 H :    0.018264
  22 C :    0.075027
  23 H :    0.012812
  24 H :    0.051153
  25 C :   -0.154556
  26 H :    0.040881
  27 H :    0.053890
  28 C :   -0.012423
  29 H :    0.022361
  30 H :    0.027738
  31 H :    0.029362
  32 H :    0.054181
  33 H :    0.059355
Sum of atomic charges:    0.0000000

LOEWDIN ATOMIC CHARGES
----------------------
   0 S :    0.434157
   1 C :   -0.206912
   2 C :   -0.059334
   3 C :   -0.059185
   4 C :   -0.209197
   5 H :    0.026132
   6 C :   -0.035171
   7 H :    0.028400
   8 H :    0.037345
   9 C :   -0.049880
  10 H :    0.026866
  11 H :    0.020693
  12 C :   -0.072539
  13 H :    0.027172
  14 H :    0.030034
  15 H :    0.028301
  16 S :    0.408385
  17 C :   -0.201079
  18 C :   -0.069610
  19 C :   -0.059620
  20 C :   -0.195205
  21 H :    0.027267
  22 C :   -0.033129
  23 H :    0.026058
  24 H :    0.041831
  25 C :   -0.045661
  26 H :    0.021749
  27 H :    0.035069
  28 C :   -0.057867
  29 H :    0.013411
  30 H :    0.027706
  31 H :    0.026083
  32 H :    0.029428
  33 H :    0.038304

  Mayer bond orders larger than 0.100000
B(  0-S ,  1-C ) :   1.1487 B(  0-S ,  4-C ) :   1.1836 B(  1-C ,  2-C ) :   1.5725
B(  1-C ,  4-C ) :   0.1008 B(  1-C , 32-H ) :   0.9652 B(  2-C ,  3-C ) :   1.2807
B(  2-C ,  6-C ) :   1.0345 B(  3-C ,  4-C ) :   1.5348 B(  3-C ,  5-H ) :   0.9939
B(  4-C , 20-C ) :   1.0110 B(  6-C ,  7-H ) :   0.9270 B(  6-C ,  8-H ) :   0.9375
B(  6-C ,  9-C ) :   1.0645 B(  9-C , 10-H ) :   0.9502 B(  9-C , 11-H ) :   0.9499
B(  9-C , 12-C ) :   1.0772 B( 12-C , 13-H ) :   0.9722 B( 12-C , 14-H ) :   0.9729
B( 12-C , 15-H ) :   0.9760 B( 16-S , 17-C ) :   1.1336 B( 16-S , 20-C ) :   1.1453
B( 17-C , 18-C ) :   1.6462 B( 17-C , 33-H ) :   0.9631 B( 18-C , 19-C ) :   1.2079
B( 18-C , 21-H ) :   0.9808 B( 19-C , 20-C ) :   1.6399 B( 19-C , 22-C ) :   1.0399
B( 22-C , 23-H ) :   0.9376 B( 22-C , 24-H ) :   0.9268 B( 22-C , 25-C ) :   1.0620
B( 25-C , 26-H ) :   0.9559 B( 25-C , 27-H ) :   0.9636 B( 25-C , 28-C ) :   1.0716
B( 28-C , 29-H ) :   0.9767 B( 28-C , 30-H ) :   0.9781 B( 28-C , 31-H ) :   0.9753

Dispersion correction           -0.013315577
FINAL SINGLE POINT ENERGY     -1339.863983653906

DIPOLE MOMENT
-------------
                                X             Y             Z
Electronic contribution:    -23.58559      -1.13280      21.75281
Nuclear contribution   :     24.07623       1.06283     -22.25700
                        -----------------------------------------
Total Dipole Moment    :      0.49064      -0.06998      -0.50419
                        -----------------------------------------
Magnitude (a.u.)       :      0.70699
Magnitude (Debye)      :      1.79702

Rotational constants in cm-1:     0.015678     0.008861     0.006198
Rotational constants in MHz :   470.007419   265.644969   185.813504

                             ****ORCA TERMINATED NORMALLY****
TOTAL RUN TIME: 0 days 0 hours 0 minutes 19 seconds 708 msec
