                         Program Version 4.2.1 -  RELEASE  -
|  1> ! wB97X-D3 SP def2-SVP
|  2> %pal
|  3> nprocs 24
|  4> end
|  5>
|  6> * xyz 0 1
|  7> S 	 -120.381 	 24.7005 	 -16.3785
|  8> C 	 -119.645 	 25.4437 	 -17.7504
|  9> C 	 -118.46 	 26.0904 	 -17.487
| 10> C 	 -118.208 	 26.0321 	 -16.062
| 11> C 	 -119.185 	 25.3637 	 -15.3161
| 12> H 	 -117.359 	 26.3705 	 -15.6042
| 13> C 	 -117.585 	 26.7705 	 -18.5103
| 14> H 	 -117.396 	 27.8267 	 -18.3331
| 15> H 	 -118.19 	 26.8751 	 -19.431
| 16> C 	 -116.209 	 26.0924 	 -18.7519
| 17> H 	 -115.676 	 26.0996 	 -17.7944
| 18> H 	 -116.286 	 25.0224 	 -18.9936
| 19> C 	 -115.282 	 26.9071 	 -19.7509
| 20> H 	 -115.555 	 26.7735 	 -20.7786
| 21> H 	 -115.223 	 27.9199 	 -19.417
| 22> H 	 -114.295 	 26.5393 	 -19.7182
| 23> S 	 -119.247 	 23.4946 	 -13.3214
| 24> C 	 -119.27 	 24.0471 	 -11.6563
| 25> C 	 -119.211 	 25.424 	 -11.5284
| 26> C 	 -119.194 	 26.1008 	 -12.8236
| 27> C 	 -119.207 	 25.1673 	 -13.8548
| 28> H 	 -119.006 	 25.9047 	 -10.5519
| 29> C 	 -119.286 	 27.6797 	 -12.9308
| 30> H 	 -118.462 	 28.0561 	 -13.5346
| 31> H 	 -119.249 	 28.1284 	 -11.9705
| 32> C 	 -120.631 	 28.1186 	 -13.5857
| 33> H 	 -120.686 	 27.7852 	 -14.6022
| 34> H 	 -120.722 	 29.2042 	 -13.7957
| 35> C 	 -121.883 	 27.5089 	 -12.7287
| 36> H 	 -121.756 	 27.6736 	 -11.6552
| 37> H 	 -121.925 	 26.3907 	 -12.7714
| 38> H 	 -122.904 	 27.7476 	 -13.0987
| 39> H 	 -120.033 	 25.3648 	 -18.7656
| 40> H 	 -119.142 	 23.3715 	 -10.8514
| 41> *
| 42>
| 43>                          ****END OF INPUT****

CARTESIAN COORDINATES (ANGSTROEM)
---------------------------------
  S    -120.381000   24.700500  -16.378500
  C    -119.645000   25.443700  -17.750400
  C    -118.460000   26.090400  -17.487000
  C    -118.208000   26.032100  -16.062000
  C    -119.185000   25.363700  -15.316100
  H    -117.359000   26.370500  -15.604200
  C    -117.585000   26.770500  -18.510300
  H    -117.396000   27.826700  -18.333100
  H    -118.190000   26.875100  -19.431000
  C    -116.209000   26.092400  -18.751900
  H    -115.676000   26.099600  -17.794400
  H    -116.286000   25.022400  -18.993600
  C    -115.282000   26.907100  -19.750900
  H    -115.555000   26.773500  -20.778600
  H    -115.223000   27.919900  -19.417000
  H    -114.295000   26.539300  -19.718200
  S    -119.247000   23.494600  -13.321400
  C    -119.270000   24.047100  -11.656300
  C    -119.211000   25.424000  -11.528400
  C    -119.194000   26.100800  -12.823600
  C    -119.207000   25.167300  -13.854800
  H    -119.006000   25.904700  -10.551900
  C    -119.286000   27.679700  -12.930800
  H    -118.462000   28.056100  -13.534600
  H    -119.249000   28.128400  -11.970500
  C    -120.631000   28.118600  -13.585700
  H    -120.686000   27.785200  -14.602200
  H    -120.722000   29.204200  -13.795700
  C    -121.883000   27.508900  -12.728700
  H    -121.756000   27.673600  -11.655200
  H    -121.925000   26.390700  -12.771400
  H    -122.904000   27.747600  -13.098700
  H    -120.033000   25.364800  -18.765600
  H    -119.142000   23.371500  -10.851400

 Total Charge           Charge          ....    0
 Multiplicity           Mult            ....    1
 Number of Electrons    NEL             ....  134
 Basis Dimension        Dim             ....  322

ORBITAL ENERGIES
----------------

  NO   OCC          E(Eh)            E(eV)
   0   2.0000     -88.967794     -2420.9368
   1   2.0000     -88.967185     -2420.9202
   2   2.0000     -10.329099      -281.0691
   3   2.0000     -10.328117      -281.0424
   4   2.0000     -10.316209      -280.7183
   5   2.0000     -10.311935      -280.6020
   6   2.0000     -10.311628      -280.5937
   7   2.0000     -10.301595      -280.3206
   8   2.0000     -10.300514      -280.2912
   9   2.0000     -10.298137      -280.2265
  10   2.0000     -10.296134      -280.1720
  11   2.0000     -10.293202      -280.0923
  12   2.0000     -10.290297      -280.0132
  13   2.0000     -10.289022      -279.9785
  14   2.0000     -10.280889      -279.7572
  15   2.0000     -10.275874      -279.6207
  16   2.0000      -8.082536      -219.9370
  17   2.0000      -8.082462      -219.9350
  18   2.0000      -6.040982      -164.3835
  19   2.0000      -6.040951      -164.3826
  20   2.0000      -6.037097      -164.2778
  21   2.0000      -6.036929      -164.2732
  22   2.0000      -6.033367      -164.1763
  23   2.0000      -6.033131      -164.1698
  24   2.0000      -1.005166       -27.3519
  25   2.0000      -0.982066       -26.7234
  26   2.0000      -0.906650       -24.6712
  27   2.0000      -0.894332       -24.3360
  28   2.0000      -0.865565       -23.5532
  29   2.0000      -0.847199       -23.0535
  30   2.0000      -0.834663       -22.7123
  31   2.0000      -0.810390       -22.0518
  32   2.0000      -0.781982       -21.2788
  33   2.0000      -0.772146       -21.0111
  34   2.0000      -0.711171       -19.3519
  35   2.0000      -0.702359       -19.1122
  36   2.0000      -0.687200       -18.6997
  37   2.0000      -0.662474       -18.0268
  38   2.0000      -0.645089       -17.5538
  39   2.0000      -0.619487       -16.8571
  40   2.0000      -0.589408       -16.0386
  41   2.0000      -0.572255       -15.5718
  42   2.0000      -0.554616       -15.0919
  43   2.0000      -0.547867       -14.9082
  44   2.0000      -0.533717       -14.5232
  45   2.0000      -0.519072       -14.1247
  46   2.0000      -0.510979       -13.9044
  47   2.0000      -0.506291       -13.7769
  48   2.0000      -0.501567       -13.6483
  49   2.0000      -0.493435       -13.4271
  50   2.0000      -0.483624       -13.1601
  51   2.0000      -0.471871       -12.8403
  52   2.0000      -0.468238       -12.7414
  53   2.0000      -0.466323       -12.6893
  54   2.0000      -0.457159       -12.4399
  55   2.0000      -0.451601       -12.2887
  56   2.0000      -0.441719       -12.0198
  57   2.0000      -0.438925       -11.9437
  58   2.0000      -0.436423       -11.8757
  59   2.0000      -0.427534       -11.6338
  60   2.0000      -0.423593       -11.5266
  61   2.0000      -0.416564       -11.3353
  62   2.0000      -0.410663       -11.1747
  63   2.0000      -0.342272        -9.3137
  64   2.0000      -0.333383        -9.0718
  65   2.0000      -0.329659        -8.9705
  66   2.0000      -0.295864        -8.0509
  67   0.0000       0.036175         0.9844
  68   0.0000       0.066383         1.8064
  69   0.0000       0.107772         2.9326
  70   0.0000       0.121630         3.3097
  71   0.0000       0.134798         3.6680

MULLIKEN ATOMIC CHARGES
-----------------------
   0 S :    0.125295
   1 C :   -0.124763
   2 C :   -0.071412
   3 C :    0.068444
   4 C :   -0.167881
   5 H :   -0.028648
   6 C :    0.071721
   7 H :    0.022577
   8 H :    0.013550
   9 C :   -0.105261
  10 H :    0.028881
  11 H :    0.037651
  12 C :   -0.015181
  13 H :    0.034288
  14 H :    0.027171
  15 H :    0.019587
  16 S :    0.110624
  17 C :   -0.079434
  18 C :   -0.048966
  19 C :   -0.049992
  20 C :   -0.177329
  21 H :    0.037507
  22 C :    0.113916
  23 H :    0.033372
  24 H :    0.016321
  25 C :   -0.075739
  26 H :    0.032844
  27 H :    0.033180
  28 C :   -0.089973
  29 H :    0.030078
  30 H :    0.044764
  31 H :    0.040556
  32 H :    0.046089
  33 H :    0.046160
Sum of atomic charges:   -0.0000000

LOEWDIN ATOMIC CHARGES
----------------------
   0 S :    0.423174
   1 C :   -0.202791
   2 C :   -0.063457
   3 C :   -0.049478
   4 C :   -0.205534
   5 H :    0.012202
   6 C :   -0.037957
   7 H :    0.030182
   8 H :    0.030768
   9 C :   -0.036838
  10 H :    0.023879
  11 H :    0.025851
  12 C :   -0.058113
  13 H :    0.023694
  14 H :    0.023179
  15 H :    0.022394
  16 S :    0.402013
  17 C :   -0.178101
  18 C :   -0.073372
  19 C :   -0.048230
  20 C :   -0.198372
  21 H :    0.038263
  22 C :   -0.018200
  23 H :    0.031865
  24 H :    0.023365
  25 C :   -0.039164
  26 H :    0.021253
  27 H :    0.026678
  28 C :   -0.079046
  29 H :    0.021390
  30 H :    0.032306
  31 H :    0.027925
  32 H :    0.028506
  33 H :    0.019765

  Mayer bond orders larger than 0.100000
B(  0-S ,  1-C ) :   1.1481 B(  0-S ,  4-C ) :   1.1563 B(  1-C ,  2-C ) :   1.6183
B(  1-C , 32-H ) :   0.9606 B(  2-C ,  3-C ) :   1.2325 B(  2-C ,  6-C ) :   1.0329
B(  3-C ,  4-C ) :   1.5762 B(  3-C ,  5-H ) :   1.0102 B(  4-C , 20-C ) :   1.0176
B(  6-C ,  7-H ) :   0.9378 B(  6-C ,  8-H ) :   0.9389 B(  6-C ,  9-C ) :   1.0463
B(  9-C , 10-H ) :   0.9594 B(  9-C , 11-H ) :   0.9598 B(  9-C , 12-C ) :   1.0769
B( 12-C , 13-H ) :   0.9789 B( 12-C , 14-H ) :   0.9737 B( 12-C , 15-H ) :   0.9740
B( 16-S , 17-C ) :   1.1433 B( 16-S , 20-C ) :   1.1489 B( 17-C , 18-C ) :   1.6366
B( 17-C , 33-H ) :   0.9702 B( 18-C , 19-C ) :   1.2191 B( 18-C , 21-H ) :   0.9786
B( 19-C , 20-C ) :   1.6258 B( 19-C , 22-C ) :   1.0261 B( 22-C , 23-H ) :   0.9365
B( 22-C , 24-H ) :   0.9442 B( 22-C , 25-C ) :   1.0677 B( 25-C , 26-H ) :   0.9581
B( 25-C , 27-H ) :   0.9614 B( 25-C , 28-C ) :   1.0446 B( 28-C , 29-H ) :   0.9810
B( 28-C , 30-H ) :   0.9735 B( 28-C , 31-H ) :   0.9786

Dispersion correction           -0.015039757
FINAL SINGLE POINT ENERGY     -1339.880625954209

DIPOLE MOMENT
-------------
                                X             Y             Z
Electronic contribution:     -7.98440     -18.77511       8.50822
Nuclear contribution   :      8.42083      19.19466      -8.60168
                        -----------------------------------------
Total Dipole Moment    :      0.43642       0.41956      -0.09346
                        -----------------------------------------
Magnitude (a.u.)       :      0.61256
Magnitude (Debye)      :      1.55700

Rotational constants in cm-1:     0.021495     0.007521     0.007054
Rotational constants in MHz :   644.414945   225.483250   211.481392

                             ****ORCA TERMINATED NORMALLY****
TOTAL RUN TIME: 0 days 0 hours 0 minutes 21 seconds 841 msec
