                         Program Version 4.2.1 -  RELEASE  -
|  1> ! wB97X-D3 SP def2-SVP
|  2> %pal
|  3> nprocs 24
|  4> end
|  5>
|  6> * xyz 0 1
|  7> S 	 -56.1993 	 -1.96954 	 -31.7958
|  8> C 	 -57.0236 	 -2.75864 	 -30.4453
|  9> C 	 -57.3966 	 -1.77335 	 -29.5499
| 10> C 	 -56.6325 	 -0.583618 	 -29.698
| 11> C 	 -55.729 	 -0.673801 	 -30.732
| 12> H 	 -56.464 	 0.188926 	 -29.0054
| 13> C 	 -58.3229 	 -1.98486 	 -28.3723
| 14> H 	 -58.2171 	 -1.11258 	 -27.7149
| 15> H 	 -58.0336 	 -2.82523 	 -27.8207
| 16> C 	 -59.7855 	 -2.27527 	 -28.7496
| 17> H 	 -60.149 	 -1.4349 	 -29.3136
| 18> H 	 -59.8683 	 -3.19716 	 -29.3237
| 19> C 	 -60.7076 	 -2.43631 	 -27.5227
| 20> H 	 -60.3567 	 -3.26389 	 -26.8356
| 21> H 	 -60.8806 	 -1.498 	 -26.9338
| 22> H 	 -61.6795 	 -2.75094 	 -27.8397
| 23> S 	 -53.2909 	 -0.750496 	 -31.9683
| 24> C 	 -52.4164 	 0.697497 	 -32.2158
| 25> C 	 -52.8657 	 1.74601 	 -31.4743
| 26> C 	 -54.0565 	 1.43808 	 -30.7022
| 27> C 	 -54.5572 	 0.189763 	 -31.0955
| 28> H 	 -52.2518 	 2.62721 	 -31.5936
| 29> C 	 -54.5674 	 2.37745 	 -29.6272
| 30> H 	 -53.72 	 2.92228 	 -29.3205
| 31> H 	 -54.8323 	 1.86225 	 -28.6942
| 32> C 	 -55.7587 	 3.25924 	 -30.1235
| 33> H 	 -56.0376 	 4.05041 	 -29.4632
| 34> H 	 -56.6449 	 2.64102 	 -30.2289
| 35> C 	 -55.4985 	 4.07431 	 -31.3564
| 36> H 	 -54.6412 	 4.78644 	 -31.187
| 37> H 	 -56.4141 	 4.68279 	 -31.5862
| 38> H 	 -55.274 	 3.5447 	 -32.3116
| 39> H 	 -57.6079 	 -3.7021 	 -30.517
| 40> H 	 -51.4395 	 0.830654 	 -32.7187
| 41> *
| 42>
| 43>                          ****END OF INPUT****

CARTESIAN COORDINATES (ANGSTROEM)
---------------------------------
  S    -56.199300   -1.969540  -31.795800
  C    -57.023600   -2.758640  -30.445300
  C    -57.396600   -1.773350  -29.549900
  C    -56.632500   -0.583618  -29.698000
  C    -55.729000   -0.673801  -30.732000
  H    -56.464000    0.188926  -29.005400
  C    -58.322900   -1.984860  -28.372300
  H    -58.217100   -1.112580  -27.714900
  H    -58.033600   -2.825230  -27.820700
  C    -59.785500   -2.275270  -28.749600
  H    -60.149000   -1.434900  -29.313600
  H    -59.868300   -3.197160  -29.323700
  C    -60.707600   -2.436310  -27.522700
  H    -60.356700   -3.263890  -26.835600
  H    -60.880600   -1.498000  -26.933800
  H    -61.679500   -2.750940  -27.839700
  S    -53.290900   -0.750496  -31.968300
  C    -52.416400    0.697497  -32.215800
  C    -52.865700    1.746010  -31.474300
  C    -54.056500    1.438080  -30.702200
  C    -54.557200    0.189763  -31.095500
  H    -52.251800    2.627210  -31.593600
  C    -54.567400    2.377450  -29.627200
  H    -53.720000    2.922280  -29.320500
  H    -54.832300    1.862250  -28.694200
  C    -55.758700    3.259240  -30.123500
  H    -56.037600    4.050410  -29.463200
  H    -56.644900    2.641020  -30.228900
  C    -55.498500    4.074310  -31.356400
  H    -54.641200    4.786440  -31.187000
  H    -56.414100    4.682790  -31.586200
  H    -55.274000    3.544700  -32.311600
  H    -57.607900   -3.702100  -30.517000
  H    -51.439500    0.830654  -32.718700

 Total Charge           Charge          ....    0
 Multiplicity           Mult            ....    1
 Number of Electrons    NEL             ....  134
 Basis Dimension        Dim             ....  322

ORBITAL ENERGIES
----------------

  NO   OCC          E(Eh)            E(eV)
   0   2.0000     -88.964176     -2420.8383
   1   2.0000     -88.961957     -2420.7779
   2   2.0000     -10.335496      -281.2432
   3   2.0000     -10.332166      -281.1525
   4   2.0000     -10.313648      -280.6486
   5   2.0000     -10.311655      -280.5944
   6   2.0000     -10.311008      -280.5768
   7   2.0000     -10.301250      -280.3113
   8   2.0000     -10.296438      -280.1803
   9   2.0000     -10.292047      -280.0608
  10   2.0000     -10.287747      -279.9438
  11   2.0000     -10.286619      -279.9131
  12   2.0000     -10.286177      -279.9011
  13   2.0000     -10.285677      -279.8875
  14   2.0000     -10.283719      -279.8342
  15   2.0000     -10.281726      -279.7800
  16   2.0000      -8.078822      -219.8359
  17   2.0000      -8.076824      -219.7815
  18   2.0000      -6.037345      -164.2845
  19   2.0000      -6.035374      -164.2309
  20   2.0000      -6.033495      -164.1797
  21   2.0000      -6.031676      -164.1303
  22   2.0000      -6.029363      -164.0673
  23   2.0000      -6.027120      -164.0063
  24   2.0000      -1.007109       -27.4048
  25   2.0000      -0.985946       -26.8289
  26   2.0000      -0.912294       -24.8248
  27   2.0000      -0.910608       -24.7789
  28   2.0000      -0.864650       -23.5283
  29   2.0000      -0.852703       -23.2032
  30   2.0000      -0.843340       -22.9485
  31   2.0000      -0.816879       -22.2284
  32   2.0000      -0.785709       -21.3802
  33   2.0000      -0.772140       -21.0110
  34   2.0000      -0.706443       -19.2233
  35   2.0000      -0.700823       -19.0704
  36   2.0000      -0.687588       -18.7102
  37   2.0000      -0.657143       -17.8818
  38   2.0000      -0.635151       -17.2833
  39   2.0000      -0.620534       -16.8856
  40   2.0000      -0.592379       -16.1194
  41   2.0000      -0.570512       -15.5244
  42   2.0000      -0.567208       -15.4345
  43   2.0000      -0.555535       -15.1169
  44   2.0000      -0.545543       -14.8450
  45   2.0000      -0.522770       -14.2253
  46   2.0000      -0.515375       -14.0241
  47   2.0000      -0.508518       -13.8375
  48   2.0000      -0.496933       -13.5222
  49   2.0000      -0.492236       -13.3944
  50   2.0000      -0.490937       -13.3591
  51   2.0000      -0.480980       -13.0881
  52   2.0000      -0.469098       -12.7648
  53   2.0000      -0.465074       -12.6553
  54   2.0000      -0.461363       -12.5543
  55   2.0000      -0.448705       -12.2099
  56   2.0000      -0.436621       -11.8811
  57   2.0000      -0.434478       -11.8228
  58   2.0000      -0.431720       -11.7477
  59   2.0000      -0.428477       -11.6594
  60   2.0000      -0.427183       -11.6242
  61   2.0000      -0.416859       -11.3433
  62   2.0000      -0.415747       -11.3131
  63   2.0000      -0.353727        -9.6254
  64   2.0000      -0.330578        -8.9955
  65   2.0000      -0.322757        -8.7827
  66   2.0000      -0.283855        -7.7241
  67   0.0000       0.013998         0.3809
  68   0.0000       0.076116         2.0712
  69   0.0000       0.095233         2.5914
  70   0.0000       0.102797         2.7973
  71   0.0000       0.137043         3.7291

MULLIKEN ATOMIC CHARGES
-----------------------
   0 S :    0.098394
   1 C :   -0.116792
   2 C :   -0.093126
   3 C :    0.041923
   4 C :   -0.133832
   5 H :   -0.018572
   6 C :    0.089380
   7 H :    0.018040
   8 H :    0.015986
   9 C :   -0.082262
  10 H :    0.030029
  11 H :    0.031324
  12 C :   -0.066420
  13 H :    0.033571
  14 H :    0.041165
  15 H :    0.025383
  16 S :    0.101806
  17 C :   -0.080471
  18 C :   -0.061535
  19 C :   -0.052119
  20 C :   -0.126595
  21 H :    0.017325
  22 C :    0.090347
  23 H :    0.007443
  24 H :    0.035180
  25 C :   -0.035666
  26 H :    0.024430
  27 H :    0.032366
  28 C :   -0.105699
  29 H :    0.031914
  30 H :    0.039063
  31 H :    0.048593
  32 H :    0.059566
  33 H :    0.059859
Sum of atomic charges:   -0.0000000

LOEWDIN ATOMIC CHARGES
----------------------
   0 S :    0.391408
   1 C :   -0.202834
   2 C :   -0.054220
   3 C :   -0.074158
   4 C :   -0.175396
   5 H :    0.020357
   6 C :   -0.029406
   7 H :    0.029979
   8 H :    0.025461
   9 C :   -0.035373
  10 H :    0.023072
  11 H :    0.023844
  12 C :   -0.071961
  13 H :    0.028447
  14 H :    0.029015
  15 H :    0.021081
  16 S :    0.401759
  17 C :   -0.203257
  18 C :   -0.078894
  19 C :   -0.045687
  20 C :   -0.175890
  21 H :    0.033151
  22 C :   -0.028268
  23 H :    0.026383
  24 H :    0.032970
  25 C :   -0.040424
  26 H :    0.024843
  27 H :    0.024911
  28 C :   -0.075904
  29 H :    0.026519
  30 H :    0.032160
  31 H :    0.025862
  32 H :    0.032734
  33 H :    0.037713

  Mayer bond orders larger than 0.100000
B(  0-S ,  1-C ) :   1.1036 B(  0-S ,  4-C ) :   1.1618 B(  1-C ,  2-C ) :   1.6218
B(  1-C , 32-H ) :   0.9643 B(  2-C ,  3-C ) :   1.2162 B(  2-C ,  6-C ) :   1.0289
B(  3-C ,  4-C ) :   1.5883 B(  3-C ,  5-H ) :   0.9967 B(  4-C , 20-C ) :   1.0482
B(  6-C ,  7-H ) :   0.9461 B(  6-C ,  8-H ) :   0.9364 B(  6-C ,  9-C ) :   1.0588
B(  9-C , 10-H ) :   0.9574 B(  9-C , 11-H ) :   0.9563 B(  9-C , 12-C ) :   1.0889
B( 12-C , 13-H ) :   0.9723 B( 12-C , 14-H ) :   0.9751 B( 12-C , 15-H ) :   0.9739
B( 16-S , 17-C ) :   1.1420 B( 16-S , 20-C ) :   1.1369 B( 17-C , 18-C ) :   1.6622
B( 17-C , 33-H ) :   0.9565 B( 18-C , 19-C ) :   1.1935 B( 18-C , 21-H ) :   0.9903
B( 19-C , 20-C ) :   1.5968 B( 19-C , 22-C ) :   1.0342 B( 22-C , 23-H ) :   0.9299
B( 22-C , 24-H ) :   0.9395 B( 22-C , 25-C ) :   1.0648 B( 25-C , 26-H ) :   0.9555
B( 25-C , 27-H ) :   0.9555 B( 25-C , 28-C ) :   1.0783 B( 28-C , 29-H ) :   0.9753
B( 28-C , 30-H ) :   0.9726 B( 28-C , 31-H ) :   0.9710

Dispersion correction           -0.014067390
FINAL SINGLE POINT ENERGY     -1339.852033015502

DIPOLE MOMENT
-------------
                                X             Y             Z
Electronic contribution:     18.61229     -11.72803     -15.63208
Nuclear contribution   :    -18.78896      12.16252      16.17085
                        -----------------------------------------
Total Dipole Moment    :     -0.17667       0.43449       0.53877
                        -----------------------------------------
Magnitude (a.u.)       :      0.71433
Magnitude (Debye)      :      1.81569

Rotational constants in cm-1:     0.021533     0.007755     0.006121
Rotational constants in MHz :   645.533970   232.501847   183.515648

                             ****ORCA TERMINATED NORMALLY****
TOTAL RUN TIME: 0 days 0 hours 0 minutes 21 seconds 282 msec
