                         Program Version 4.2.1 -  RELEASE  -
|  1> ! wB97X-D3 SP def2-SVP
|  2> %pal
|  3> nprocs 24
|  4> end
|  5>
|  6> * xyz 0 1
|  7> S 	 -61.6418 	 14.2693 	 -110.889
|  8> C 	 -61.8381 	 12.8317 	 -110.05
|  9> C 	 -62.0377 	 13.0168 	 -108.706
| 10> C 	 -62.3157 	 14.3898 	 -108.415
| 11> C 	 -62.057 	 15.1877 	 -109.516
| 12> H 	 -62.5559 	 14.8219 	 -107.427
| 13> C 	 -62.1757 	 11.8998 	 -107.633
| 14> H 	 -62.7875 	 11.1115 	 -108.003
| 15> H 	 -62.7552 	 12.3066 	 -106.777
| 16> C 	 -60.85 	 11.3397 	 -107.203
| 17> H 	 -60.3664 	 10.9269 	 -108.092
| 18> H 	 -60.2867 	 12.2094 	 -106.833
| 19> C 	 -61.0023 	 10.1976 	 -106.22
| 20> H 	 -59.9401 	 9.78211 	 -106
| 21> H 	 -61.4781 	 10.4694 	 -105.304
| 22> H 	 -61.6601 	 9.41331 	 -106.554
| 23> S 	 -63.2909 	 17.6569 	 -110.023
| 24> C 	 -62.3119 	 19.1098 	 -110.054
| 25> C 	 -61.0788 	 18.8218 	 -109.548
| 26> C 	 -60.8134 	 17.4698 	 -109.356
| 27> C 	 -61.9083 	 16.6669 	 -109.582
| 28> H 	 -60.3662 	 19.704 	 -109.45
| 29> C 	 -59.5627 	 16.8559 	 -108.924
| 30> H 	 -58.7583 	 17.1586 	 -109.638
| 31> H 	 -59.5179 	 15.8513 	 -109.091
| 32> C 	 -58.9431 	 17.422 	 -107.582
| 33> H 	 -59.4408 	 18.2726 	 -107.195
| 34> H 	 -57.8571 	 17.6585 	 -107.676
| 35> C 	 -59.0618 	 16.3575 	 -106.457
| 36> H 	 -60.1538 	 16.1251 	 -106.338
| 37> H 	 -58.5996 	 16.8117 	 -105.573
| 38> H 	 -58.5035 	 15.4404 	 -106.655
| 39> H 	 -61.566 	 11.9885 	 -110.569
| 40> H 	 -62.6136 	 20.1232 	 -110.374
| 41> *
| 42>
| 43>                          ****END OF INPUT****

CARTESIAN COORDINATES (ANGSTROEM)
---------------------------------
  S    -61.641800   14.269300  -110.889000
  C    -61.838100   12.831700  -110.050000
  C    -62.037700   13.016800  -108.706000
  C    -62.315700   14.389800  -108.415000
  C    -62.057000   15.187700  -109.516000
  H    -62.555900   14.821900  -107.427000
  C    -62.175700   11.899800  -107.633000
  H    -62.787500   11.111500  -108.003000
  H    -62.755200   12.306600  -106.777000
  C    -60.850000   11.339700  -107.203000
  H    -60.366400   10.926900  -108.092000
  H    -60.286700   12.209400  -106.833000
  C    -61.002300   10.197600  -106.220000
  H    -59.940100    9.782110  -106.000000
  H    -61.478100   10.469400  -105.304000
  H    -61.660100    9.413310  -106.554000
  S    -63.290900   17.656900  -110.023000
  C    -62.311900   19.109800  -110.054000
  C    -61.078800   18.821800  -109.548000
  C    -60.813400   17.469800  -109.356000
  C    -61.908300   16.666900  -109.582000
  H    -60.366200   19.704000  -109.450000
  C    -59.562700   16.855900  -108.924000
  H    -58.758300   17.158600  -109.638000
  H    -59.517900   15.851300  -109.091000
  C    -58.943100   17.422000  -107.582000
  H    -59.440800   18.272600  -107.195000
  H    -57.857100   17.658500  -107.676000
  C    -59.061800   16.357500  -106.457000
  H    -60.153800   16.125100  -106.338000
  H    -58.599600   16.811700  -105.573000
  H    -58.503500   15.440400  -106.655000
  H    -61.566000   11.988500  -110.569000
  H    -62.613600   20.123200  -110.374000

 Total Charge           Charge          ....    0
 Multiplicity           Mult            ....    1
 Number of Electrons    NEL             ....  134
 Basis Dimension        Dim             ....  322

ORBITAL ENERGIES
----------------

  NO   OCC          E(Eh)            E(eV)
   0   2.0000     -88.965197     -2420.8661
   1   2.0000     -88.959709     -2420.7167
   2   2.0000     -10.324406      -280.9414
   3   2.0000     -10.320787      -280.8429
   4   2.0000     -10.316723      -280.7323
   5   2.0000     -10.302916      -280.3566
   6   2.0000     -10.302076      -280.3338
   7   2.0000     -10.297639      -280.2130
   8   2.0000     -10.294977      -280.1406
   9   2.0000     -10.291953      -280.0583
  10   2.0000     -10.289513      -279.9919
  11   2.0000     -10.287554      -279.9386
  12   2.0000     -10.284595      -279.8581
  13   2.0000     -10.281117      -279.7634
  14   2.0000     -10.280143      -279.7369
  15   2.0000     -10.277472      -279.6642
  16   2.0000      -8.082314      -219.9309
  17   2.0000      -8.074495      -219.7182
  18   2.0000      -6.040415      -164.3681
  19   2.0000      -6.036407      -164.2590
  20   2.0000      -6.033436      -164.1781
  21   2.0000      -6.032977      -164.1657
  22   2.0000      -6.028982      -164.0569
  23   2.0000      -6.025296      -163.9566
  24   2.0000      -1.016136       -27.6505
  25   2.0000      -0.993579       -27.0366
  26   2.0000      -0.916292       -24.9336
  27   2.0000      -0.906184       -24.6585
  28   2.0000      -0.868935       -23.6449
  29   2.0000      -0.854346       -23.2479
  30   2.0000      -0.847920       -23.0731
  31   2.0000      -0.815745       -22.1976
  32   2.0000      -0.782087       -21.2817
  33   2.0000      -0.769619       -20.9424
  34   2.0000      -0.699928       -19.0460
  35   2.0000      -0.699443       -19.0328
  36   2.0000      -0.696245       -18.9458
  37   2.0000      -0.658630       -17.9222
  38   2.0000      -0.648472       -17.6458
  39   2.0000      -0.618669       -16.8348
  40   2.0000      -0.602533       -16.3958
  41   2.0000      -0.571933       -15.5631
  42   2.0000      -0.565318       -15.3831
  43   2.0000      -0.552231       -15.0270
  44   2.0000      -0.531421       -14.4607
  45   2.0000      -0.525971       -14.3124
  46   2.0000      -0.520090       -14.1524
  47   2.0000      -0.510085       -13.8801
  48   2.0000      -0.507550       -13.8111
  49   2.0000      -0.497990       -13.5510
  50   2.0000      -0.489901       -13.3309
  51   2.0000      -0.478597       -13.0233
  52   2.0000      -0.474025       -12.8989
  53   2.0000      -0.465345       -12.6627
  54   2.0000      -0.461807       -12.5664
  55   2.0000      -0.449660       -12.2359
  56   2.0000      -0.442083       -12.0297
  57   2.0000      -0.438035       -11.9195
  58   2.0000      -0.437177       -11.8962
  59   2.0000      -0.424085       -11.5399
  60   2.0000      -0.418002       -11.3744
  61   2.0000      -0.415113       -11.2958
  62   2.0000      -0.406608       -11.0644
  63   2.0000      -0.337560        -9.1855
  64   2.0000      -0.329960        -8.9787
  65   2.0000      -0.317657        -8.6439
  66   2.0000      -0.310721        -8.4552
  67   0.0000       0.051462         1.4004
  68   0.0000       0.055809         1.5186
  69   0.0000       0.118466         3.2236
  70   0.0000       0.125526         3.4157
  71   0.0000       0.131187         3.5698

MULLIKEN ATOMIC CHARGES
-----------------------
   0 S :    0.136205
   1 C :   -0.088723
   2 C :   -0.092345
   3 C :    0.047119
   4 C :   -0.198892
   5 H :    0.027122
   6 C :    0.057564
   7 H :    0.016126
   8 H :    0.021170
   9 C :   -0.072163
  10 H :    0.027682
  11 H :    0.034778
  12 C :   -0.033014
  13 H :    0.049184
  14 H :    0.017780
  15 H :    0.022504
  16 S :    0.102611
  17 C :   -0.106381
  18 C :   -0.061425
  19 C :    0.013278
  20 C :   -0.191674
  21 H :    0.038316
  22 C :    0.117520
  23 H :    0.020985
  24 H :   -0.005514
  25 C :   -0.075063
  26 H :    0.029564
  27 H :    0.031866
  28 C :   -0.076215
  29 H :    0.040693
  30 H :    0.030526
  31 H :    0.034575
  32 H :    0.019803
  33 H :    0.064439
Sum of atomic charges:    0.0000000

LOEWDIN ATOMIC CHARGES
----------------------
   0 S :    0.467668
   1 C :   -0.204956
   2 C :   -0.060099
   3 C :   -0.059927
   4 C :   -0.217384
   5 H :    0.038033
   6 C :   -0.029995
   7 H :    0.022859
   8 H :    0.029725
   9 C :   -0.044352
  10 H :    0.025078
  11 H :    0.028162
  12 C :   -0.068087
  13 H :    0.038985
  14 H :    0.018766
  15 H :    0.023110
  16 S :    0.396420
  17 C :   -0.186291
  18 C :   -0.084591
  19 C :   -0.062065
  20 C :   -0.206432
  21 H :    0.042861
  22 C :   -0.029862
  23 H :    0.042748
  24 H :    0.015618
  25 C :   -0.030604
  26 H :    0.019555
  27 H :    0.025430
  28 C :   -0.067361
  29 H :    0.028133
  30 H :    0.022960
  31 H :    0.020221
  32 H :    0.007501
  33 H :    0.038174

  Mayer bond orders larger than 0.100000
B(  0-S ,  1-C ) :   1.1766 B(  0-S ,  4-C ) :   1.1982 B(  1-C ,  2-C ) :   1.5777
B(  1-C , 32-H ) :   0.9818 B(  2-C ,  3-C ) :   1.2655 B(  2-C ,  6-C ) :   1.0094
B(  3-C ,  4-C ) :   1.5662 B(  3-C ,  5-H ) :   0.9906 B(  4-C , 20-C ) :   0.9719
B(  6-C ,  7-H ) :   0.9434 B(  6-C ,  8-H ) :   0.9462 B(  6-C ,  9-C ) :   1.0644
B(  9-C , 10-H ) :   0.9556 B(  9-C , 11-H ) :   0.9536 B(  9-C , 12-C ) :   1.0852
B( 12-C , 13-H ) :   0.9735 B( 12-C , 14-H ) :   0.9721 B( 12-C , 15-H ) :   0.9697
B( 16-S , 17-C ) :   1.1586 B( 16-S , 20-C ) :   1.1439 B( 17-C , 18-C ) :   1.6151
B( 17-C , 33-H ) :   0.9636 B( 18-C , 19-C ) :   1.2361 B( 18-C , 21-H ) :   0.9788
B( 19-C , 20-C ) :   1.5969 B( 19-C , 22-C ) :   1.0795 B( 22-C , 23-H ) :   0.9197
B( 22-C , 24-H ) :   0.9266 B( 22-C , 25-C ) :   1.0276 B( 25-C , 26-H ) :   0.9657
B( 25-C , 27-H ) :   0.9612 B( 25-C , 28-C ) :   1.0796 B( 28-C , 29-H ) :   0.9759
B( 28-C , 30-H ) :   0.9743 B( 28-C , 31-H ) :   0.9796

Dispersion correction           -0.014746065
FINAL SINGLE POINT ENERGY     -1339.868911584237

DIPOLE MOMENT
-------------
                                X             Y             Z
Electronic contribution:    -15.16657      13.85907     -21.85535
Nuclear contribution   :     15.63683     -14.02263      22.18963
                        -----------------------------------------
Total Dipole Moment    :      0.47025      -0.16356       0.33427
                        -----------------------------------------
Magnitude (a.u.)       :      0.59969
Magnitude (Debye)      :      1.52430

Rotational constants in cm-1:     0.020742     0.008413     0.006798
Rotational constants in MHz :   621.833516   252.228613   203.812763

                             ****ORCA TERMINATED NORMALLY****
TOTAL RUN TIME: 0 days 0 hours 0 minutes 21 seconds 890 msec
