                         Program Version 4.2.1 -  RELEASE  -
|  1> ! wB97X-D3 SP def2-SVP
|  2> %pal
|  3> nprocs 24
|  4> end
|  5>
|  6> * xyz 0 1
|  7> S 	 -108.787 	 59.2907 	 -95.7198
|  8> C 	 -107.869 	 59.9446 	 -94.461
|  9> C 	 -106.837 	 60.7924 	 -94.8768
| 10> C 	 -106.672 	 60.7171 	 -96.2797
| 11> C 	 -107.67 	 60.0362 	 -96.9274
| 12> H 	 -105.855 	 61.1722 	 -96.8209
| 13> C 	 -105.902 	 61.5189 	 -93.9651
| 14> H 	 -105.202 	 60.7429 	 -93.6138
| 15> H 	 -106.414 	 61.9274 	 -93.1018
| 16> C 	 -105.211 	 62.6485 	 -94.7308
| 17> H 	 -104.453 	 62.301 	 -95.414
| 18> H 	 -105.962 	 63.2455 	 -95.3278
| 19> C 	 -104.56 	 63.5561 	 -93.6899
| 20> H 	 -103.727 	 64.1468 	 -94.0524
| 21> H 	 -105.269 	 64.2801 	 -93.2045
| 22> H 	 -104.04 	 62.9348 	 -92.8534
| 23> S 	 -107.995 	 58.5452 	 -99.1722
| 24> C 	 -108.441 	 59.2691 	 -100.708
| 25> C 	 -108.267 	 60.6422 	 -100.639
| 26> C 	 -108.06 	 61.0917 	 -99.2821
| 27> C 	 -107.959 	 60.0403 	 -98.334
| 28> H 	 -108.436 	 61.2331 	 -101.573
| 29> C 	 -108.071 	 62.5646 	 -98.9213
| 30> H 	 -108.131 	 62.5985 	 -97.8716
| 31> H 	 -108.89 	 63.1487 	 -99.4009
| 32> C 	 -106.686 	 63.1793 	 -99.3258
| 33> H 	 -106.597 	 63.0211 	 -100.436
| 34> H 	 -105.805 	 62.6785 	 -98.8463
| 35> C 	 -106.66 	 64.725 	 -99.0178
| 36> H 	 -107.475 	 65.2713 	 -99.5419
| 37> H 	 -105.78 	 65.2235 	 -99.4795
| 38> H 	 -106.612 	 64.8512 	 -97.8637
| 39> H 	 -108.092 	 59.7235 	 -93.3915
| 40> H 	 -108.681 	 58.7428 	 -101.613
| 41> *
| 42>
| 43>                          ****END OF INPUT****

CARTESIAN COORDINATES (ANGSTROEM)
---------------------------------
  S    -108.787000   59.290700  -95.719800
  C    -107.869000   59.944600  -94.461000
  C    -106.837000   60.792400  -94.876800
  C    -106.672000   60.717100  -96.279700
  C    -107.670000   60.036200  -96.927400
  H    -105.855000   61.172200  -96.820900
  C    -105.902000   61.518900  -93.965100
  H    -105.202000   60.742900  -93.613800
  H    -106.414000   61.927400  -93.101800
  C    -105.211000   62.648500  -94.730800
  H    -104.453000   62.301000  -95.414000
  H    -105.962000   63.245500  -95.327800
  C    -104.560000   63.556100  -93.689900
  H    -103.727000   64.146800  -94.052400
  H    -105.269000   64.280100  -93.204500
  H    -104.040000   62.934800  -92.853400
  S    -107.995000   58.545200  -99.172200
  C    -108.441000   59.269100  -100.708000
  C    -108.267000   60.642200  -100.639000
  C    -108.060000   61.091700  -99.282100
  C    -107.959000   60.040300  -98.334000
  H    -108.436000   61.233100  -101.573000
  C    -108.071000   62.564600  -98.921300
  H    -108.131000   62.598500  -97.871600
  H    -108.890000   63.148700  -99.400900
  C    -106.686000   63.179300  -99.325800
  H    -106.597000   63.021100  -100.436000
  H    -105.805000   62.678500  -98.846300
  C    -106.660000   64.725000  -99.017800
  H    -107.475000   65.271300  -99.541900
  H    -105.780000   65.223500  -99.479500
  H    -106.612000   64.851200  -97.863700
  H    -108.092000   59.723500  -93.391500
  H    -108.681000   58.742800  -101.613000

 Total Charge           Charge          ....    0
 Multiplicity           Mult            ....    1
 Number of Electrons    NEL             ....  134
 Basis Dimension        Dim             ....  322

ORBITAL ENERGIES
----------------

  NO   OCC          E(Eh)            E(eV)
   0   2.0000     -88.965904     -2420.8853
   1   2.0000     -88.960424     -2420.7362
   2   2.0000     -10.327122      -281.0153
   3   2.0000     -10.322649      -280.8936
   4   2.0000     -10.316278      -280.7202
   5   2.0000     -10.313154      -280.6352
   6   2.0000     -10.306190      -280.4457
   7   2.0000     -10.298346      -280.2322
   8   2.0000     -10.296598      -280.1847
   9   2.0000     -10.296487      -280.1816
  10   2.0000     -10.293620      -280.1036
  11   2.0000     -10.293390      -280.0974
  12   2.0000     -10.292685      -280.0782
  13   2.0000     -10.291555      -280.0474
  14   2.0000     -10.288452      -279.9630
  15   2.0000     -10.287984      -279.9503
  16   2.0000      -8.080935      -219.8934
  17   2.0000      -8.075838      -219.7547
  18   2.0000      -6.039301      -164.3377
  19   2.0000      -6.035392      -164.2314
  20   2.0000      -6.034287      -164.2013
  21   2.0000      -6.031840      -164.1347
  22   2.0000      -6.030154      -164.0888
  23   2.0000      -6.026709      -163.9951
  24   2.0000      -1.006828       -27.3972
  25   2.0000      -0.984970       -26.8024
  26   2.0000      -0.917940       -24.9784
  27   2.0000      -0.901039       -24.5185
  28   2.0000      -0.872612       -23.7450
  29   2.0000      -0.851437       -23.1688
  30   2.0000      -0.838302       -22.8114
  31   2.0000      -0.815652       -22.1950
  32   2.0000      -0.774660       -21.0796
  33   2.0000      -0.760739       -20.7008
  34   2.0000      -0.713373       -19.4119
  35   2.0000      -0.690556       -18.7910
  36   2.0000      -0.686954       -18.6930
  37   2.0000      -0.655568       -17.8389
  38   2.0000      -0.641283       -17.4502
  39   2.0000      -0.625340       -17.0164
  40   2.0000      -0.591250       -16.0887
  41   2.0000      -0.576698       -15.6928
  42   2.0000      -0.566340       -15.4109
  43   2.0000      -0.561639       -15.2830
  44   2.0000      -0.522392       -14.2150
  45   2.0000      -0.519101       -14.1255
  46   2.0000      -0.511237       -13.9115
  47   2.0000      -0.507948       -13.8220
  48   2.0000      -0.506204       -13.7745
  49   2.0000      -0.495685       -13.4883
  50   2.0000      -0.493623       -13.4322
  51   2.0000      -0.476398       -12.9634
  52   2.0000      -0.470536       -12.8039
  53   2.0000      -0.462682       -12.5902
  54   2.0000      -0.458046       -12.4641
  55   2.0000      -0.451327       -12.2812
  56   2.0000      -0.442518       -12.0415
  57   2.0000      -0.434359       -11.8195
  58   2.0000      -0.433516       -11.7966
  59   2.0000      -0.429844       -11.6966
  60   2.0000      -0.418984       -11.4011
  61   2.0000      -0.417438       -11.3591
  62   2.0000      -0.411087       -11.1863
  63   2.0000      -0.344640        -9.3781
  64   2.0000      -0.330499        -8.9933
  65   2.0000      -0.321716        -8.7543
  66   2.0000      -0.290736        -7.9113
  67   0.0000       0.028882         0.7859
  68   0.0000       0.069582         1.8934
  69   0.0000       0.113831         3.0975
  70   0.0000       0.119617         3.2549
  71   0.0000       0.124091         3.3767

MULLIKEN ATOMIC CHARGES
-----------------------
   0 S :    0.125620
   1 C :   -0.125675
   2 C :   -0.125627
   3 C :    0.030744
   4 C :   -0.153331
   5 H :    0.011138
   6 C :    0.084638
   7 H :    0.051538
   8 H :    0.029003
   9 C :   -0.114807
  10 H :    0.039693
  11 H :    0.051711
  12 C :   -0.073871
  13 H :    0.027097
  14 H :    0.047406
  15 H :    0.035153
  16 S :    0.103685
  17 C :   -0.094804
  18 C :   -0.049450
  19 C :   -0.043114
  20 C :   -0.151235
  21 H :    0.040165
  22 C :    0.094049
  23 H :    0.013915
  24 H :    0.039596
  25 C :   -0.133815
  26 H :    0.033293
  27 H :    0.041369
  28 C :   -0.073621
  29 H :    0.037621
  30 H :    0.035901
  31 H :    0.053169
  32 H :    0.058644
  33 H :    0.054203
Sum of atomic charges:    0.0000000

LOEWDIN ATOMIC CHARGES
----------------------
   0 S :    0.414383
   1 C :   -0.215942
   2 C :   -0.074341
   3 C :   -0.051806
   4 C :   -0.190636
   5 H :    0.032019
   6 C :   -0.031232
   7 H :    0.041845
   8 H :    0.031611
   9 C :   -0.046906
  10 H :    0.023329
  11 H :    0.032986
  12 C :   -0.076760
  13 H :    0.020377
  14 H :    0.030456
  15 H :    0.033269
  16 S :    0.418422
  17 C :   -0.182526
  18 C :   -0.079386
  19 C :   -0.050275
  20 C :   -0.221894
  21 H :    0.040794
  22 C :   -0.027855
  23 H :    0.020824
  24 H :    0.035731
  25 C :   -0.043959
  26 H :    0.023772
  27 H :    0.025354
  28 C :   -0.082674
  29 H :    0.027337
  30 H :    0.026433
  31 H :    0.035163
  32 H :    0.034343
  33 H :    0.027741

  Mayer bond orders larger than 0.100000
B(  0-S ,  1-C ) :   1.1704 B(  0-S ,  4-C ) :   1.1386 B(  1-C ,  2-C ) :   1.5877
B(  1-C ,  4-C ) :   0.1019 B(  1-C , 32-H ) :   0.9631 B(  2-C ,  3-C ) :   1.2610
B(  2-C ,  6-C ) :   1.0149 B(  3-C ,  4-C ) :   1.5519 B(  3-C ,  5-H ) :   0.9955
B(  4-C , 20-C ) :   1.0452 B(  6-C ,  7-H ) :   0.9224 B(  6-C ,  8-H ) :   0.9465
B(  6-C ,  9-C ) :   1.0792 B(  9-C , 10-H ) :   0.9416 B(  9-C , 11-H ) :   0.9608
B(  9-C , 12-C ) :   1.0807 B( 12-C , 13-H ) :   0.9738 B( 12-C , 14-H ) :   0.9752
B( 12-C , 15-H ) :   0.9696 B( 16-S , 17-C ) :   1.1645 B( 16-S , 20-C ) :   1.1546
B( 17-C , 18-C ) :   1.5961 B( 17-C , 20-C ) :   0.1015 B( 17-C , 33-H ) :   0.9711
B( 18-C , 19-C ) :   1.2430 B( 18-C , 21-H ) :   0.9831 B( 19-C , 20-C ) :   1.5581
B( 19-C , 22-C ) :   1.0526 B( 22-C , 23-H ) :   0.9279 B( 22-C , 24-H ) :   0.9433
B( 22-C , 25-C ) :   1.0473 B( 25-C , 26-H ) :   0.9604 B( 25-C , 27-H ) :   0.9546
B( 25-C , 28-C ) :   1.0739 B( 28-C , 29-H ) :   0.9724 B( 28-C , 30-H ) :   0.9744
B( 28-C , 31-H ) :   0.9736

Dispersion correction           -0.014772311
FINAL SINGLE POINT ENERGY     -1339.880767242509

DIPOLE MOMENT
-------------
                                X             Y             Z
Electronic contribution:    -15.62792     -28.51323      -5.83337
Nuclear contribution   :     15.98114      29.11727       5.88487
                        -----------------------------------------
Total Dipole Moment    :      0.35321       0.60403       0.05151
                        -----------------------------------------
Magnitude (a.u.)       :      0.70162
Magnitude (Debye)      :      1.78337

Rotational constants in cm-1:     0.016980     0.010029     0.006843
Rotational constants in MHz :   509.036492   300.659834   205.149068

                             ****ORCA TERMINATED NORMALLY****
TOTAL RUN TIME: 0 days 0 hours 0 minutes 22 seconds 333 msec
