                         Program Version 4.2.1 -  RELEASE  -
|  1> ! wB97X-D3 SP def2-SVP
|  2> %pal
|  3> nprocs 24
|  4> end
|  5>
|  6> * xyz 0 1
|  7> S 	 -64.1047 	 1.46015 	 -19.9881
|  8> C 	 -65.5605 	 2.00017 	 -20.8128
|  9> C 	 -65.2637 	 2.91438 	 -21.7921
| 10> C 	 -63.866 	 2.80497 	 -22.1954
| 11> C 	 -63.1353 	 1.97154 	 -21.3713
| 12> H 	 -63.4129 	 3.26357 	 -23.0346
| 13> C 	 -66.3345 	 3.76479 	 -22.5712
| 14> H 	 -67.2322 	 3.08795 	 -22.7503
| 15> H 	 -65.9846 	 4.13389 	 -23.5252
| 16> C 	 -66.901 	 4.921 	 -21.8422
| 17> H 	 -67.171 	 4.62778 	 -20.7974
| 18> H 	 -66.2212 	 5.68677 	 -21.8345
| 19> C 	 -68.1308 	 5.49411 	 -22.4412
| 20> H 	 -67.7284 	 6.14066 	 -23.2533
| 21> H 	 -68.8336 	 4.78302 	 -22.8695
| 22> H 	 -68.6207 	 6.14874 	 -21.7118
| 23> S 	 -60.4622 	 1.97967 	 -20.3118
| 24> C 	 -59.2845 	 1.66808 	 -21.4656
| 25> C 	 -59.6709 	 1.14588 	 -22.6558
| 26> C 	 -61.1362 	 1.05606 	 -22.6665
| 27> C 	 -61.7476 	 1.62461 	 -21.5198
| 28> H 	 -58.9988 	 0.827601 	 -23.4235
| 29> C 	 -61.7781 	 0.40088 	 -23.8883
| 30> H 	 -61.5741 	 1.00053 	 -24.8849
| 31> H 	 -62.8604 	 0.384557 	 -23.7132
| 32> C 	 -61.3358 	 -1.06802 	 -24.2204
| 33> H 	 -61.2347 	 -1.52643 	 -23.2335
| 34> H 	 -60.3365 	 -1.20022 	 -24.6675
| 35> C 	 -62.356 	 -1.7928 	 -25.0879
| 36> H 	 -63.3896 	 -1.59584 	 -24.9162
| 37> H 	 -62.2416 	 -2.87169 	 -25.2214
| 38> H 	 -62.1809 	 -1.35165 	 -26.086
| 39> H 	 -66.5765 	 1.75249 	 -20.4603
| 40> H 	 -58.2072 	 1.90524 	 -21.3708
| 41> *
| 42>
| 43>                          ****END OF INPUT****

CARTESIAN COORDINATES (ANGSTROEM)
---------------------------------
  S    -64.104700    1.460150  -19.988100
  C    -65.560500    2.000170  -20.812800
  C    -65.263700    2.914380  -21.792100
  C    -63.866000    2.804970  -22.195400
  C    -63.135300    1.971540  -21.371300
  H    -63.412900    3.263570  -23.034600
  C    -66.334500    3.764790  -22.571200
  H    -67.232200    3.087950  -22.750300
  H    -65.984600    4.133890  -23.525200
  C    -66.901000    4.921000  -21.842200
  H    -67.171000    4.627780  -20.797400
  H    -66.221200    5.686770  -21.834500
  C    -68.130800    5.494110  -22.441200
  H    -67.728400    6.140660  -23.253300
  H    -68.833600    4.783020  -22.869500
  H    -68.620700    6.148740  -21.711800
  S    -60.462200    1.979670  -20.311800
  C    -59.284500    1.668080  -21.465600
  C    -59.670900    1.145880  -22.655800
  C    -61.136200    1.056060  -22.666500
  C    -61.747600    1.624610  -21.519800
  H    -58.998800    0.827601  -23.423500
  C    -61.778100    0.400880  -23.888300
  H    -61.574100    1.000530  -24.884900
  H    -62.860400    0.384557  -23.713200
  C    -61.335800   -1.068020  -24.220400
  H    -61.234700   -1.526430  -23.233500
  H    -60.336500   -1.200220  -24.667500
  C    -62.356000   -1.792800  -25.087900
  H    -63.389600   -1.595840  -24.916200
  H    -62.241600   -2.871690  -25.221400
  H    -62.180900   -1.351650  -26.086000
  H    -66.576500    1.752490  -20.460300
  H    -58.207200    1.905240  -21.370800

 Total Charge           Charge          ....    0
 Multiplicity           Mult            ....    1
 Number of Electrons    NEL             ....  134
 Basis Dimension        Dim             ....  322

ORBITAL ENERGIES
----------------

  NO   OCC          E(Eh)            E(eV)
   0   2.0000     -88.967151     -2420.9192
   1   2.0000     -88.963050     -2420.8077
   2   2.0000     -10.330254      -281.1005
   3   2.0000     -10.328899      -281.0636
   4   2.0000     -10.317833      -280.7625
   5   2.0000     -10.312774      -280.6249
   6   2.0000     -10.309975      -280.5487
   7   2.0000     -10.308378      -280.5052
   8   2.0000     -10.301266      -280.3117
   9   2.0000     -10.297432      -280.2074
  10   2.0000     -10.296537      -280.1830
  11   2.0000     -10.289528      -279.9923
  12   2.0000     -10.288340      -279.9600
  13   2.0000     -10.276808      -279.6462
  14   2.0000     -10.275315      -279.6055
  15   2.0000     -10.272552      -279.5303
  16   2.0000      -8.082703      -219.9415
  17   2.0000      -8.077958      -219.8124
  18   2.0000      -6.041297      -164.3920
  19   2.0000      -6.037248      -164.2819
  20   2.0000      -6.036552      -164.2629
  21   2.0000      -6.033164      -164.1707
  22   2.0000      -6.032756      -164.1596
  23   2.0000      -6.028305      -164.0385
  24   2.0000      -1.004161       -27.3246
  25   2.0000      -0.983920       -26.7738
  26   2.0000      -0.922131       -25.0925
  27   2.0000      -0.903049       -24.5732
  28   2.0000      -0.873502       -23.7692
  29   2.0000      -0.851349       -23.1664
  30   2.0000      -0.844912       -22.9912
  31   2.0000      -0.813154       -22.1270
  32   2.0000      -0.783162       -21.3109
  33   2.0000      -0.767687       -20.8898
  34   2.0000      -0.704288       -19.1647
  35   2.0000      -0.692605       -18.8467
  36   2.0000      -0.690832       -18.7985
  37   2.0000      -0.653682       -17.7876
  38   2.0000      -0.641666       -17.4606
  39   2.0000      -0.618266       -16.8239
  40   2.0000      -0.594362       -16.1734
  41   2.0000      -0.585220       -15.9246
  42   2.0000      -0.565313       -15.3829
  43   2.0000      -0.558316       -15.1925
  44   2.0000      -0.526820       -14.3355
  45   2.0000      -0.516953       -14.0670
  46   2.0000      -0.516006       -14.0412
  47   2.0000      -0.512734       -13.9522
  48   2.0000      -0.507508       -13.8100
  49   2.0000      -0.500453       -13.6180
  50   2.0000      -0.488075       -13.2812
  51   2.0000      -0.481772       -13.1097
  52   2.0000      -0.472396       -12.8545
  53   2.0000      -0.466608       -12.6971
  54   2.0000      -0.459374       -12.5002
  55   2.0000      -0.451702       -12.2914
  56   2.0000      -0.446312       -12.1448
  57   2.0000      -0.433863       -11.8060
  58   2.0000      -0.426444       -11.6041
  59   2.0000      -0.423776       -11.5315
  60   2.0000      -0.421221       -11.4620
  61   2.0000      -0.411830       -11.2065
  62   2.0000      -0.406533       -11.0623
  63   2.0000      -0.346463        -9.4277
  64   2.0000      -0.328810        -8.9474
  65   2.0000      -0.328287        -8.9331
  66   2.0000      -0.288011        -7.8372
  67   0.0000       0.031255         0.8505
  68   0.0000       0.058229         1.5845
  69   0.0000       0.108224         2.9449
  70   0.0000       0.113595         3.0911
  71   0.0000       0.126579         3.4444

MULLIKEN ATOMIC CHARGES
-----------------------
   0 S :    0.099454
   1 C :   -0.134076
   2 C :   -0.049363
   3 C :    0.045514
   4 C :   -0.170363
   5 H :    0.001882
   6 C :    0.042839
   7 H :    0.032054
   8 H :    0.014288
   9 C :   -0.048295
  10 H :    0.024413
  11 H :    0.007568
  12 C :   -0.049315
  13 H :    0.024746
  14 H :    0.030247
  15 H :    0.039554
  16 S :    0.122802
  17 C :   -0.078226
  18 C :   -0.028535
  19 C :   -0.044568
  20 C :   -0.142743
  21 H :    0.016946
  22 C :    0.011477
  23 H :    0.048445
  24 H :    0.034502
  25 C :   -0.080713
  26 H :    0.032666
  27 H :    0.033570
  28 C :   -0.044394
  29 H :    0.027168
  30 H :    0.041014
  31 H :    0.017950
  32 H :    0.058835
  33 H :    0.062657
Sum of atomic charges:   -0.0000000

LOEWDIN ATOMIC CHARGES
----------------------
   0 S :    0.382545
   1 C :   -0.186190
   2 C :   -0.057600
   3 C :   -0.048470
   4 C :   -0.187337
   5 H :    0.027418
   6 C :   -0.028907
   7 H :    0.036920
   8 H :    0.024571
   9 C :   -0.046127
  10 H :    0.024054
  11 H :    0.013419
  12 C :   -0.062489
  13 H :    0.028224
  14 H :    0.020873
  15 H :    0.030406
  16 S :    0.409282
  17 C :   -0.202011
  18 C :   -0.074681
  19 C :   -0.044150
  20 C :   -0.199307
  21 H :    0.030990
  22 C :   -0.041126
  23 H :    0.039558
  24 H :    0.029781
  25 C :   -0.045585
  26 H :    0.022383
  27 H :    0.024421
  28 C :   -0.068553
  29 H :    0.020979
  30 H :    0.029199
  31 H :    0.028216
  32 H :    0.031895
  33 H :    0.037397

  Mayer bond orders larger than 0.100000
B(  0-S ,  1-C ) :   1.1311 B(  0-S ,  4-C ) :   1.1210 B(  1-C ,  2-C ) :   1.6368
B(  1-C , 32-H ) :   0.9681 B(  2-C ,  3-C ) :   1.1932 B(  2-C ,  6-C ) :   1.0113
B(  3-C ,  4-C ) :   1.5982 B(  3-C ,  5-H ) :   1.0074 B(  4-C , 20-C ) :   1.0736
B(  6-C ,  7-H ) :   0.9469 B(  6-C ,  8-H ) :   0.9458 B(  6-C ,  9-C ) :   1.0735
B(  9-C , 10-H ) :   0.9555 B(  9-C , 11-H ) :   0.9503 B(  9-C , 12-C ) :   1.0862
B( 12-C , 13-H ) :   0.9754 B( 12-C , 14-H ) :   0.9745 B( 12-C , 15-H ) :   0.9732
B( 16-S , 17-C ) :   1.1644 B( 16-S , 20-C ) :   1.0991 B( 17-C , 18-C ) :   1.6422
B( 17-C , 33-H ) :   0.9521 B( 18-C , 19-C ) :   1.2006 B( 18-C , 21-H ) :   0.9959
B( 19-C , 20-C ) :   1.6075 B( 19-C , 22-C ) :   1.0579 B( 22-C , 23-H ) :   0.9363
B( 22-C , 24-H ) :   0.9385 B( 22-C , 25-C ) :   1.0446 B( 25-C , 26-H ) :   0.9600
B( 25-C , 27-H ) :   0.9533 B( 25-C , 28-C ) :   1.0799 B( 28-C , 29-H ) :   0.9770
B( 28-C , 30-H ) :   0.9752 B( 28-C , 31-H ) :   0.9727

Dispersion correction           -0.013337747
FINAL SINGLE POINT ENERGY     -1339.853678457853

DIPOLE MOMENT
-------------
                                X             Y             Z
Electronic contribution:     15.70726      -1.25811      21.11299
Nuclear contribution   :    -15.86454       1.40754     -21.74323
                        -----------------------------------------
Total Dipole Moment    :     -0.15728       0.14943      -0.63024
                        -----------------------------------------
Magnitude (a.u.)       :      0.66653
Magnitude (Debye)      :      1.69419

Rotational constants in cm-1:     0.018972     0.007221     0.006086
Rotational constants in MHz :   568.767838   216.477055   182.443101

                             ****ORCA TERMINATED NORMALLY****
TOTAL RUN TIME: 0 days 0 hours 0 minutes 20 seconds 649 msec
