                         Program Version 4.2.1 -  RELEASE  -
|  1> ! wB97X-D3 SP def2-SVP
|  2> %pal
|  3> nprocs 24
|  4> end
|  5>
|  6> * xyz 0 1
|  7> S 	 -119.54 	 60.2115 	 -32.9812
|  8> C 	 -119.152 	 59.9394 	 -31.3536
|  9> C 	 -118.297 	 60.93 	 -30.9298
| 10> C 	 -117.95 	 61.8618 	 -31.9348
| 11> C 	 -118.617 	 61.7139 	 -33.1127
| 12> H 	 -117.238 	 62.5807 	 -31.7984
| 13> C 	 -117.687 	 61.0714 	 -29.559
| 14> H 	 -116.621 	 61.2652 	 -29.6141
| 15> H 	 -117.869 	 60.0734 	 -28.9765
| 16> C 	 -118.349 	 62.0806 	 -28.6757
| 17> H 	 -118.026 	 61.88 	 -27.6556
| 18> H 	 -118.003 	 63.0732 	 -29.0351
| 19> C 	 -119.879 	 62.0666 	 -28.7548
| 20> H 	 -120.284 	 62.6421 	 -27.9294
| 21> H 	 -120.283 	 62.4555 	 -29.6851
| 22> H 	 -120.205 	 61.0009 	 -28.7479
| 23> S 	 -117.413 	 63.4916 	 -34.7953
| 24> C 	 -118.282 	 64.7957 	 -35.4522
| 25> C 	 -119.621 	 64.6755 	 -35.2759
| 26> C 	 -119.926 	 63.5612 	 -34.3994
| 27> C 	 -118.807 	 62.7685 	 -34.0806
| 28> H 	 -120.235 	 65.5113 	 -35.6114
| 29> C 	 -121.34 	 63.1585 	 -33.9574
| 30> H 	 -121.396 	 62.0883 	 -33.93
| 31> H 	 -121.99 	 63.3424 	 -34.7658
| 32> C 	 -121.722 	 63.7502 	 -32.5551
| 33> H 	 -121.418 	 64.8 	 -32.549
| 34> H 	 -121.192 	 63.2379 	 -31.817
| 35> C 	 -123.166 	 63.3864 	 -32.2192
| 36> H 	 -123.163 	 62.318 	 -32.1469
| 37> H 	 -123.821 	 63.6033 	 -33.0493
| 38> H 	 -123.523 	 63.8977 	 -31.2678
| 39> H 	 -119.529 	 59.082 	 -30.742
| 40> H 	 -117.8 	 65.7397 	 -35.8766
| 41> *
| 42>
| 43>                          ****END OF INPUT****

CARTESIAN COORDINATES (ANGSTROEM)
---------------------------------
  S    -119.540000   60.211500  -32.981200
  C    -119.152000   59.939400  -31.353600
  C    -118.297000   60.930000  -30.929800
  C    -117.950000   61.861800  -31.934800
  C    -118.617000   61.713900  -33.112700
  H    -117.238000   62.580700  -31.798400
  C    -117.687000   61.071400  -29.559000
  H    -116.621000   61.265200  -29.614100
  H    -117.869000   60.073400  -28.976500
  C    -118.349000   62.080600  -28.675700
  H    -118.026000   61.880000  -27.655600
  H    -118.003000   63.073200  -29.035100
  C    -119.879000   62.066600  -28.754800
  H    -120.284000   62.642100  -27.929400
  H    -120.283000   62.455500  -29.685100
  H    -120.205000   61.000900  -28.747900
  S    -117.413000   63.491600  -34.795300
  C    -118.282000   64.795700  -35.452200
  C    -119.621000   64.675500  -35.275900
  C    -119.926000   63.561200  -34.399400
  C    -118.807000   62.768500  -34.080600
  H    -120.235000   65.511300  -35.611400
  C    -121.340000   63.158500  -33.957400
  H    -121.396000   62.088300  -33.930000
  H    -121.990000   63.342400  -34.765800
  C    -121.722000   63.750200  -32.555100
  H    -121.418000   64.800000  -32.549000
  H    -121.192000   63.237900  -31.817000
  C    -123.166000   63.386400  -32.219200
  H    -123.163000   62.318000  -32.146900
  H    -123.821000   63.603300  -33.049300
  H    -123.523000   63.897700  -31.267800
  H    -119.529000   59.082000  -30.742000
  H    -117.800000   65.739700  -35.876600

 Total Charge           Charge          ....    0
 Multiplicity           Mult            ....    1
 Number of Electrons    NEL             ....  134
 Basis Dimension        Dim             ....  322

ORBITAL ENERGIES
----------------

  NO   OCC          E(Eh)            E(eV)
   0   2.0000     -88.966806     -2420.9099
   1   2.0000     -88.962794     -2420.8007
   2   2.0000     -10.329741      -281.0865
   3   2.0000     -10.325208      -280.9632
   4   2.0000     -10.318833      -280.7897
   5   2.0000     -10.315718      -280.7050
   6   2.0000     -10.306714      -280.4599
   7   2.0000     -10.297279      -280.2032
   8   2.0000     -10.293992      -280.1138
   9   2.0000     -10.293634      -280.1040
  10   2.0000     -10.286326      -279.9052
  11   2.0000     -10.284609      -279.8584
  12   2.0000     -10.281800      -279.7820
  13   2.0000     -10.278961      -279.7048
  14   2.0000     -10.276749      -279.6446
  15   2.0000     -10.275861      -279.6204
  16   2.0000      -8.081928      -219.9204
  17   2.0000      -8.078989      -219.8405
  18   2.0000      -6.040369      -164.3668
  19   2.0000      -6.037361      -164.2849
  20   2.0000      -6.036174      -164.2526
  21   2.0000      -6.033156      -164.1705
  22   2.0000      -6.032911      -164.1639
  23   2.0000      -6.029945      -164.0831
  24   2.0000      -1.015900       -27.6440
  25   2.0000      -0.994832       -27.0708
  26   2.0000      -0.918473       -24.9929
  27   2.0000      -0.905349       -24.6358
  28   2.0000      -0.879234       -23.9252
  29   2.0000      -0.850504       -23.1434
  30   2.0000      -0.846555       -23.0359
  31   2.0000      -0.818056       -22.2604
  32   2.0000      -0.782051       -21.2807
  33   2.0000      -0.769085       -20.9279
  34   2.0000      -0.708436       -19.2775
  35   2.0000      -0.697126       -18.9698
  36   2.0000      -0.689826       -18.7711
  37   2.0000      -0.658990       -17.9320
  38   2.0000      -0.645497       -17.5649
  39   2.0000      -0.623242       -16.9593
  40   2.0000      -0.592484       -16.1223
  41   2.0000      -0.571332       -15.5467
  42   2.0000      -0.563176       -15.3248
  43   2.0000      -0.560314       -15.2469
  44   2.0000      -0.552249       -15.0275
  45   2.0000      -0.525017       -14.2864
  46   2.0000      -0.517778       -14.0894
  47   2.0000      -0.513122       -13.9628
  48   2.0000      -0.509224       -13.8567
  49   2.0000      -0.500422       -13.6172
  50   2.0000      -0.495148       -13.4737
  51   2.0000      -0.481296       -13.0967
  52   2.0000      -0.470813       -12.8115
  53   2.0000      -0.460662       -12.5352
  54   2.0000      -0.457777       -12.4568
  55   2.0000      -0.446809       -12.1583
  56   2.0000      -0.441699       -12.0193
  57   2.0000      -0.441176       -12.0050
  58   2.0000      -0.434616       -11.8265
  59   2.0000      -0.424220       -11.5436
  60   2.0000      -0.417704       -11.3663
  61   2.0000      -0.409275       -11.1370
  62   2.0000      -0.408065       -11.1040
  63   2.0000      -0.349096        -9.4994
  64   2.0000      -0.332345        -9.0436
  65   2.0000      -0.326449        -8.8831
  66   2.0000      -0.296609        -8.0711
  67   0.0000       0.030444         0.8284
  68   0.0000       0.074322         2.0224
  69   0.0000       0.112765         3.0685
  70   0.0000       0.121608         3.3091
  71   0.0000       0.133590         3.6352

MULLIKEN ATOMIC CHARGES
-----------------------
   0 S :    0.108172
   1 C :   -0.136561
   2 C :   -0.099060
   3 C :    0.074409
   4 C :   -0.129683
   5 H :   -0.023294
   6 C :    0.028624
   7 H :    0.037665
   8 H :    0.023908
   9 C :   -0.068849
  10 H :    0.035124
  11 H :    0.024993
  12 C :   -0.042436
  13 H :    0.039130
  14 H :    0.041943
  15 H :    0.014821
  16 S :    0.106652
  17 C :   -0.126830
  18 C :   -0.023893
  19 C :   -0.070136
  20 C :   -0.141791
  21 H :    0.027400
  22 C :    0.065591
  23 H :    0.000627
  24 H :    0.007885
  25 C :   -0.037488
  26 H :    0.032279
  27 H :    0.015816
  28 C :   -0.034521
  29 H :    0.021975
  30 H :    0.022216
  31 H :    0.049981
  32 H :    0.072490
  33 H :    0.082838
Sum of atomic charges:   -0.0000000

LOEWDIN ATOMIC CHARGES
----------------------
   0 S :    0.429590
   1 C :   -0.214977
   2 C :   -0.073313
   3 C :   -0.041502
   4 C :   -0.194110
   5 H :    0.014723
   6 C :   -0.038117
   7 H :    0.031315
   8 H :    0.033870
   9 C :   -0.043417
  10 H :    0.025432
  11 H :    0.022082
  12 C :   -0.064990
  13 H :    0.026771
  14 H :    0.024328
  15 H :    0.023696
  16 S :    0.434395
  17 C :   -0.212091
  18 C :   -0.083318
  19 C :   -0.047503
  20 C :   -0.210204
  21 H :    0.037345
  22 C :   -0.031243
  23 H :    0.015393
  24 H :    0.022297
  25 C :   -0.030134
  26 H :    0.022427
  27 H :    0.016795
  28 C :   -0.063296
  29 H :    0.024087
  30 H :    0.018791
  31 H :    0.034403
  32 H :    0.043475
  33 H :    0.046998

  Mayer bond orders larger than 0.100000
B(  0-S ,  1-C ) :   1.1627 B(  0-S ,  4-C ) :   1.1520 B(  1-C ,  2-C ) :   1.5737
B(  1-C , 32-H ) :   0.9612 B(  2-C ,  3-C ) :   1.2779 B(  2-C ,  6-C ) :   1.0310
B(  3-C ,  4-C ) :   1.5436 B(  3-C ,  5-H ) :   1.0110 B(  4-C , 20-C ) :   1.0176
B(  6-C ,  7-H ) :   0.9451 B(  6-C ,  8-H ) :   0.9394 B(  6-C ,  9-C ) :   1.0789
B(  9-C , 10-H ) :   0.9587 B(  9-C , 11-H ) :   0.9491 B(  9-C , 12-C ) :   1.0864
B( 12-C , 13-H ) :   0.9698 B( 12-C , 14-H ) :   0.9659 B( 12-C , 15-H ) :   0.9711
B( 16-S , 17-C ) :   1.1800 B( 16-S , 20-C ) :   1.1436 B( 17-C , 18-C ) :   1.6032
B( 17-C , 33-H ) :   0.9528 B( 18-C , 19-C ) :   1.2466 B( 18-C , 21-H ) :   0.9911
B( 19-C , 20-C ) :   1.5820 B( 19-C , 22-C ) :   1.0378 B( 22-C , 23-H ) :   0.9340
B( 22-C , 24-H ) :   0.9396 B( 22-C , 25-C ) :   1.0468 B( 25-C , 26-H ) :   0.9608
B( 25-C , 27-H ) :   0.9537 B( 25-C , 28-C ) :   1.0751 B( 28-C , 29-H ) :   0.9723
B( 28-C , 30-H ) :   0.9776 B( 28-C , 31-H ) :   0.9730

Dispersion correction           -0.016164378
FINAL SINGLE POINT ENERGY     -1339.871053996776

DIPOLE MOMENT
-------------
                                X             Y             Z
Electronic contribution:     14.58226      -5.03568     -20.57982
Nuclear contribution   :    -14.72872       5.34485      21.08745
                        -----------------------------------------
Total Dipole Moment    :     -0.14646       0.30916       0.50763
                        -----------------------------------------
Magnitude (a.u.)       :      0.61215
Magnitude (Debye)      :      1.55595

Rotational constants in cm-1:     0.017855     0.010236     0.008480
Rotational constants in MHz :   535.290486   306.870277   254.229973

                             ****ORCA TERMINATED NORMALLY****
TOTAL RUN TIME: 0 days 0 hours 0 minutes 23 seconds 364 msec
