                         Program Version 4.2.1 -  RELEASE  -
|  1> ! wB97X-D3 SP def2-SVP
|  2> %pal
|  3> nprocs 24
|  4> end
|  5>
|  6> * xyz 0 1
|  7> S 	 -128.575 	 63.8948 	 -55.9377
|  8> C 	 -127.077 	 64.6917 	 -55.4863
|  9> C 	 -125.964 	 63.9735 	 -56.0135
| 10> C 	 -126.314 	 62.7688 	 -56.7403
| 11> C 	 -127.676 	 62.5971 	 -56.7066
| 12> H 	 -125.569 	 62.0535 	 -57.0917
| 13> C 	 -124.534 	 64.5752 	 -56.178
| 14> H 	 -123.858 	 63.8203 	 -55.7623
| 15> H 	 -124.581 	 65.4582 	 -55.5416
| 16> C 	 -124.074 	 64.7616 	 -57.623
| 17> H 	 -124.221 	 63.8356 	 -58.1359
| 18> H 	 -124.652 	 65.5712 	 -58.0661
| 19> C 	 -122.584 	 65.03 	 -57.7095
| 20> H 	 -122.299 	 65.4135 	 -58.7082
| 21> H 	 -122.258 	 65.8295 	 -57.0178
| 22> H 	 -122.051 	 64.0858 	 -57.4599
| 23> S 	 -129.73 	 61.7288 	 -58.4192
| 24> C 	 -129.98 	 59.9917 	 -58.6946
| 25> C 	 -129.119 	 59.2661 	 -57.8735
| 26> C 	 -128.294 	 60.1238 	 -57.0733
| 27> C 	 -128.451 	 61.4966 	 -57.3036
| 28> H 	 -128.992 	 58.2126 	 -57.9856
| 29> C 	 -127.215 	 59.4892 	 -56.1973
| 30> H 	 -127.701 	 58.7738 	 -55.458
| 31> H 	 -126.962 	 60.2504 	 -55.4824
| 32> C 	 -125.979 	 58.7773 	 -56.784
| 33> H 	 -125.386 	 59.5196 	 -57.3674
| 34> H 	 -126.367 	 58.1456 	 -57.5126
| 35> C 	 -125.135 	 58.0288 	 -55.7691
| 36> H 	 -124.505 	 58.6008 	 -55.0763
| 37> H 	 -124.439 	 57.3264 	 -56.1115
| 38> H 	 -125.81 	 57.3869 	 -55.1692
| 39> H 	 -126.967 	 65.7377 	 -55.264
| 40> H 	 -130.793 	 59.5719 	 -59.2845
| 41> *
| 42>
| 43>                          ****END OF INPUT****

CARTESIAN COORDINATES (ANGSTROEM)
---------------------------------
  S    -128.575000   63.894800  -55.937700
  C    -127.077000   64.691700  -55.486300
  C    -125.964000   63.973500  -56.013500
  C    -126.314000   62.768800  -56.740300
  C    -127.676000   62.597100  -56.706600
  H    -125.569000   62.053500  -57.091700
  C    -124.534000   64.575200  -56.178000
  H    -123.858000   63.820300  -55.762300
  H    -124.581000   65.458200  -55.541600
  C    -124.074000   64.761600  -57.623000
  H    -124.221000   63.835600  -58.135900
  H    -124.652000   65.571200  -58.066100
  C    -122.584000   65.030000  -57.709500
  H    -122.299000   65.413500  -58.708200
  H    -122.258000   65.829500  -57.017800
  H    -122.051000   64.085800  -57.459900
  S    -129.730000   61.728800  -58.419200
  C    -129.980000   59.991700  -58.694600
  C    -129.119000   59.266100  -57.873500
  C    -128.294000   60.123800  -57.073300
  C    -128.451000   61.496600  -57.303600
  H    -128.992000   58.212600  -57.985600
  C    -127.215000   59.489200  -56.197300
  H    -127.701000   58.773800  -55.458000
  H    -126.962000   60.250400  -55.482400
  C    -125.979000   58.777300  -56.784000
  H    -125.386000   59.519600  -57.367400
  H    -126.367000   58.145600  -57.512600
  C    -125.135000   58.028800  -55.769100
  H    -124.505000   58.600800  -55.076300
  H    -124.439000   57.326400  -56.111500
  H    -125.810000   57.386900  -55.169200
  H    -126.967000   65.737700  -55.264000
  H    -130.793000   59.571900  -59.284500

 Total Charge           Charge          ....    0
 Multiplicity           Mult            ....    1
 Number of Electrons    NEL             ....  134
 Basis Dimension        Dim             ....  322

ORBITAL ENERGIES
----------------

  NO   OCC          E(Eh)            E(eV)
   0   2.0000     -88.970182     -2421.0017
   1   2.0000     -88.967737     -2420.9352
   2   2.0000     -10.335370      -281.2397
   3   2.0000     -10.327233      -281.0183
   4   2.0000     -10.323025      -280.9038
   5   2.0000     -10.315816      -280.7076
   6   2.0000     -10.307713      -280.4871
   7   2.0000     -10.303590      -280.3749
   8   2.0000     -10.300027      -280.2780
   9   2.0000     -10.295290      -280.1491
  10   2.0000     -10.294061      -280.1156
  11   2.0000     -10.288881      -279.9747
  12   2.0000     -10.288269      -279.9580
  13   2.0000     -10.284552      -279.8569
  14   2.0000     -10.283782      -279.8359
  15   2.0000     -10.278359      -279.6884
  16   2.0000      -8.084438      -219.9888
  17   2.0000      -8.082518      -219.9365
  18   2.0000      -6.043005      -164.4385
  19   2.0000      -6.040977      -164.3834
  20   2.0000      -6.039024      -164.3302
  21   2.0000      -6.036866      -164.2715
  22   2.0000      -6.035161      -164.2251
  23   2.0000      -6.033459      -164.1788
  24   2.0000      -1.005867       -27.3710
  25   2.0000      -0.981066       -26.6962
  26   2.0000      -0.913208       -24.8497
  27   2.0000      -0.906461       -24.6661
  28   2.0000      -0.868192       -23.6247
  29   2.0000      -0.853105       -23.2142
  30   2.0000      -0.847186       -23.0531
  31   2.0000      -0.816779       -22.2257
  32   2.0000      -0.779909       -21.2224
  33   2.0000      -0.767578       -20.8869
  34   2.0000      -0.711003       -19.3474
  35   2.0000      -0.702003       -19.1025
  36   2.0000      -0.692510       -18.8441
  37   2.0000      -0.661620       -18.0036
  38   2.0000      -0.637759       -17.3543
  39   2.0000      -0.623332       -16.9617
  40   2.0000      -0.595152       -16.1949
  41   2.0000      -0.578102       -15.7310
  42   2.0000      -0.564438       -15.3591
  43   2.0000      -0.558541       -15.1987
  44   2.0000      -0.525091       -14.2885
  45   2.0000      -0.521493       -14.1906
  46   2.0000      -0.519186       -14.1278
  47   2.0000      -0.511194       -13.9103
  48   2.0000      -0.509485       -13.8638
  49   2.0000      -0.503224       -13.6934
  50   2.0000      -0.492871       -13.4117
  51   2.0000      -0.476201       -12.9581
  52   2.0000      -0.469152       -12.7663
  53   2.0000      -0.464573       -12.6417
  54   2.0000      -0.456759       -12.4290
  55   2.0000      -0.455539       -12.3958
  56   2.0000      -0.447376       -12.1737
  57   2.0000      -0.432046       -11.7566
  58   2.0000      -0.431083       -11.7304
  59   2.0000      -0.429591       -11.6898
  60   2.0000      -0.420868       -11.4524
  61   2.0000      -0.414993       -11.2925
  62   2.0000      -0.411166       -11.1884
  63   2.0000      -0.345157        -9.3922
  64   2.0000      -0.332665        -9.0523
  65   2.0000      -0.326964        -8.8972
  66   2.0000      -0.297276        -8.0893
  67   0.0000       0.028063         0.7636
  68   0.0000       0.067446         1.8353
  69   0.0000       0.107904         2.9362
  70   0.0000       0.117300         3.1919
  71   0.0000       0.124033         3.3751

MULLIKEN ATOMIC CHARGES
-----------------------
   0 S :    0.114851
   1 C :   -0.101396
   2 C :   -0.128401
   3 C :    0.026752
   4 C :   -0.157575
   5 H :    0.030722
   6 C :    0.046162
   7 H :    0.021974
   8 H :    0.021556
   9 C :   -0.046687
  10 H :    0.024967
  11 H :    0.034865
  12 C :   -0.068966
  13 H :    0.039705
  14 H :    0.032736
  15 H :    0.038674
  16 S :    0.108759
  17 C :   -0.108471
  18 C :   -0.014287
  19 C :   -0.047321
  20 C :   -0.131975
  21 H :    0.022927
  22 C :    0.011821
  23 H :    0.022784
  24 H :    0.017505
  25 C :    0.002329
  26 H :    0.022612
  27 H :    0.003821
  28 C :   -0.034044
  29 H :    0.033374
  30 H :    0.016701
  31 H :    0.021788
  32 H :    0.053124
  33 H :    0.068613
Sum of atomic charges:    0.0000000

LOEWDIN ATOMIC CHARGES
----------------------
   0 S :    0.407369
   1 C :   -0.214757
   2 C :   -0.052444
   3 C :   -0.061388
   4 C :   -0.178260
   5 H :    0.037194
   6 C :   -0.030843
   7 H :    0.029258
   8 H :    0.026951
   9 C :   -0.039114
  10 H :    0.022646
  11 H :    0.025948
  12 C :   -0.068191
  13 H :    0.029484
  14 H :    0.025313
  15 H :    0.028355
  16 S :    0.415688
  17 C :   -0.179899
  18 C :   -0.066038
  19 C :   -0.059360
  20 C :   -0.220017
  21 H :    0.029690
  22 C :   -0.044594
  23 H :    0.035172
  24 H :    0.024556
  25 C :   -0.035116
  26 H :    0.024203
  27 H :    0.015623
  28 C :   -0.066451
  29 H :    0.028947
  30 H :    0.020760
  31 H :    0.029355
  32 H :    0.026549
  33 H :    0.033410

  Mayer bond orders larger than 0.100000
B(  0-S ,  1-C ) :   1.1250 B(  0-S ,  4-C ) :   1.1646 B(  1-C ,  2-C ) :   1.6277
B(  1-C , 32-H ) :   0.9596 B(  2-C ,  3-C ) :   1.2243 B(  2-C ,  6-C ) :   1.0298
B(  3-C ,  4-C ) :   1.5814 B(  3-C ,  5-H ) :   0.9859 B(  4-C , 20-C ) :   1.0164
B(  6-C ,  7-H ) :   0.9335 B(  6-C ,  8-H ) :   0.9448 B(  6-C ,  9-C ) :   1.0689
B(  9-C , 10-H ) :   0.9490 B(  9-C , 11-H ) :   0.9555 B(  9-C , 12-C ) :   1.0845
B( 12-C , 13-H ) :   0.9734 B( 12-C , 14-H ) :   0.9756 B( 12-C , 15-H ) :   0.9744
B( 16-S , 17-C ) :   1.1619 B( 16-S , 20-C ) :   1.1503 B( 17-C , 18-C ) :   1.5787
B( 17-C , 33-H ) :   0.9675 B( 18-C , 19-C ) :   1.2651 B( 18-C , 21-H ) :   0.9938
B( 19-C , 20-C ) :   1.5649 B( 19-C , 22-C ) :   1.0566 B( 22-C , 23-H ) :   0.9317
B( 22-C , 24-H ) :   0.9266 B( 22-C , 25-C ) :   1.0539 B( 25-C , 26-H ) :   0.9489
B( 25-C , 27-H ) :   0.9488 B( 25-C , 28-C ) :   1.0796 B( 28-C , 29-H ) :   0.9766
B( 28-C , 30-H ) :   0.9726 B( 28-C , 31-H ) :   0.9705

Dispersion correction           -0.013959043
FINAL SINGLE POINT ENERGY     -1339.873597044686

DIPOLE MOMENT
-------------
                                X             Y             Z
Electronic contribution:    -29.16018       6.87372      -2.50314
Nuclear contribution   :     29.76142      -7.16144       2.33896
                        -----------------------------------------
Total Dipole Moment    :      0.60124      -0.28772      -0.16418
                        -----------------------------------------
Magnitude (a.u.)       :      0.68646
Magnitude (Debye)      :      1.74484

Rotational constants in cm-1:     0.016087     0.008916     0.006794
Rotational constants in MHz :   482.265969   267.306997   203.678424

                             ****ORCA TERMINATED NORMALLY****
TOTAL RUN TIME: 0 days 0 hours 0 minutes 20 seconds 187 msec
