                         Program Version 4.2.1 -  RELEASE  -
|  1> ! wB97X-D3 SP def2-SVP
|  2> %pal
|  3> nprocs 24
|  4> end
|  5>
|  6> * xyz 0 1
|  7> S 	 29.737 	 -8.57511 	 -115.883
|  8> C 	 31.3243 	 -9.02781 	 -116.39
|  9> C 	 32.1739 	 -9.21272 	 -115.313
| 10> C 	 31.5693 	 -8.71139 	 -114.107
| 11> C 	 30.3137 	 -8.17922 	 -114.311
| 12> H 	 32.1067 	 -8.53804 	 -113.177
| 13> C 	 33.6037 	 -9.54402 	 -115.41
| 14> H 	 34.169 	 -8.58651 	 -115.407
| 15> H 	 33.7141 	 -10.015 	 -116.386
| 16> C 	 34.1842 	 -10.5867 	 -114.41
| 17> H 	 35.2629 	 -10.8474 	 -114.481
| 18> H 	 34.1129 	 -10.2086 	 -113.42
| 19> C 	 33.4682 	 -11.8897 	 -114.526
| 20> H 	 33.7501 	 -12.6118 	 -113.745
| 21> H 	 32.3502 	 -11.813 	 -114.444
| 22> H 	 33.6951 	 -12.3294 	 -115.453
| 23> S 	 28.0941 	 -8.19799 	 -112.725
| 24> C 	 27.6573 	 -6.72623 	 -111.776
| 25> C 	 28.608 	 -5.76284 	 -111.947
| 26> C 	 29.7346 	 -6.19695 	 -112.723
| 27> C 	 29.5125 	 -7.39292 	 -113.361
| 28> H 	 28.4035 	 -4.80791 	 -111.473
| 29> C 	 31.0383 	 -5.47389 	 -112.913
| 30> H 	 30.6878 	 -4.43317 	 -113.022
| 31> H 	 31.5435 	 -5.74292 	 -113.835
| 32> C 	 31.9237 	 -5.60949 	 -111.683
| 33> H 	 32.3034 	 -6.66512 	 -111.607
| 34> H 	 31.4577 	 -5.50616 	 -110.707
| 35> C 	 33.0921 	 -4.65332 	 -111.715
| 36> H 	 33.7098 	 -4.97639 	 -110.886
| 37> H 	 32.8165 	 -3.62227 	 -111.684
| 38> H 	 33.5975 	 -4.7216 	 -112.684
| 39> H 	 31.7124 	 -9.11249 	 -117.404
| 40> H 	 26.7326 	 -6.70412 	 -111.272
| 41> *
| 42>
| 43>                          ****END OF INPUT****

CARTESIAN COORDINATES (ANGSTROEM)
---------------------------------
  S     29.737000   -8.575110  -115.883000
  C     31.324300   -9.027810  -116.390000
  C     32.173900   -9.212720  -115.313000
  C     31.569300   -8.711390  -114.107000
  C     30.313700   -8.179220  -114.311000
  H     32.106700   -8.538040  -113.177000
  C     33.603700   -9.544020  -115.410000
  H     34.169000   -8.586510  -115.407000
  H     33.714100  -10.015000  -116.386000
  C     34.184200  -10.586700  -114.410000
  H     35.262900  -10.847400  -114.481000
  H     34.112900  -10.208600  -113.420000
  C     33.468200  -11.889700  -114.526000
  H     33.750100  -12.611800  -113.745000
  H     32.350200  -11.813000  -114.444000
  H     33.695100  -12.329400  -115.453000
  S     28.094100   -8.197990  -112.725000
  C     27.657300   -6.726230  -111.776000
  C     28.608000   -5.762840  -111.947000
  C     29.734600   -6.196950  -112.723000
  C     29.512500   -7.392920  -113.361000
  H     28.403500   -4.807910  -111.473000
  C     31.038300   -5.473890  -112.913000
  H     30.687800   -4.433170  -113.022000
  H     31.543500   -5.742920  -113.835000
  C     31.923700   -5.609490  -111.683000
  H     32.303400   -6.665120  -111.607000
  H     31.457700   -5.506160  -110.707000
  C     33.092100   -4.653320  -111.715000
  H     33.709800   -4.976390  -110.886000
  H     32.816500   -3.622270  -111.684000
  H     33.597500   -4.721600  -112.684000
  H     31.712400   -9.112490  -117.404000
  H     26.732600   -6.704120  -111.272000

 Total Charge           Charge          ....    0
 Multiplicity           Mult            ....    1
 Number of Electrons    NEL             ....  134
 Basis Dimension        Dim             ....  322

ORBITAL ENERGIES
----------------

  NO   OCC          E(Eh)            E(eV)
   0   2.0000     -88.965761     -2420.8814
   1   2.0000     -88.956405     -2420.6268
   2   2.0000     -10.326405      -280.9958
   3   2.0000     -10.322128      -280.8794
   4   2.0000     -10.316712      -280.7320
   5   2.0000     -10.311975      -280.6031
   6   2.0000     -10.302008      -280.3319
   7   2.0000     -10.299010      -280.2503
   8   2.0000     -10.297665      -280.2137
   9   2.0000     -10.293615      -280.1035
  10   2.0000     -10.293572      -280.1023
  11   2.0000     -10.289976      -280.0045
  12   2.0000     -10.286706      -279.9155
  13   2.0000     -10.285921      -279.8941
  14   2.0000     -10.273328      -279.5515
  15   2.0000     -10.270970      -279.4873
  16   2.0000      -8.081489      -219.9085
  17   2.0000      -8.071043      -219.6242
  18   2.0000      -6.039914      -164.3544
  19   2.0000      -6.035941      -164.2463
  20   2.0000      -6.032183      -164.1440
  21   2.0000      -6.029540      -164.0721
  22   2.0000      -6.025676      -163.9670
  23   2.0000      -6.021710      -163.8591
  24   2.0000      -1.009838       -27.4791
  25   2.0000      -0.985293       -26.8112
  26   2.0000      -0.918078       -24.9822
  27   2.0000      -0.912787       -24.8382
  28   2.0000      -0.871377       -23.7114
  29   2.0000      -0.852532       -23.1986
  30   2.0000      -0.848260       -23.0823
  31   2.0000      -0.818745       -22.2792
  32   2.0000      -0.780679       -21.2434
  33   2.0000      -0.769413       -20.9368
  34   2.0000      -0.709559       -19.3081
  35   2.0000      -0.699350       -19.0303
  36   2.0000      -0.693603       -18.8739
  37   2.0000      -0.662848       -18.0370
  38   2.0000      -0.638452       -17.3732
  39   2.0000      -0.622723       -16.9452
  40   2.0000      -0.599219       -16.3056
  41   2.0000      -0.568881       -15.4800
  42   2.0000      -0.561285       -15.2734
  43   2.0000      -0.556457       -15.1420
  44   2.0000      -0.545872       -14.8539
  45   2.0000      -0.538889       -14.6639
  46   2.0000      -0.521422       -14.1886
  47   2.0000      -0.514080       -13.9888
  48   2.0000      -0.512163       -13.9367
  49   2.0000      -0.496433       -13.5086
  50   2.0000      -0.489458       -13.3188
  51   2.0000      -0.475465       -12.9381
  52   2.0000      -0.469473       -12.7750
  53   2.0000      -0.466019       -12.6810
  54   2.0000      -0.460570       -12.5328
  55   2.0000      -0.447019       -12.1640
  56   2.0000      -0.445187       -12.1142
  57   2.0000      -0.440791       -11.9945
  58   2.0000      -0.437296       -11.8994
  59   2.0000      -0.423977       -11.5370
  60   2.0000      -0.414847       -11.2886
  61   2.0000      -0.414362       -11.2754
  62   2.0000      -0.408416       -11.1136
  63   2.0000      -0.340732        -9.2718
  64   2.0000      -0.329103        -8.9553
  65   2.0000      -0.322205        -8.7676
  66   2.0000      -0.298451        -8.1213
  67   0.0000       0.038912         1.0588
  68   0.0000       0.058572         1.5938
  69   0.0000       0.113430         3.0866
  70   0.0000       0.122611         3.3364
  71   0.0000       0.128116         3.4862

MULLIKEN ATOMIC CHARGES
-----------------------
   0 S :    0.136532
   1 C :   -0.117759
   2 C :   -0.113486
   3 C :    0.050506
   4 C :   -0.175576
   5 H :    0.013551
   6 C :    0.062061
   7 H :    0.054198
   8 H :    0.009787
   9 C :   -0.052520
  10 H :    0.034405
  11 H :    0.015289
  12 C :   -0.067812
  13 H :    0.032659
  14 H :    0.048169
  15 H :    0.016723
  16 S :    0.072868
  17 C :   -0.089244
  18 C :   -0.022518
  19 C :   -0.030578
  20 C :   -0.156498
  21 H :    0.024036
  22 C :    0.074714
  23 H :    0.019247
  24 H :    0.039956
  25 C :   -0.097156
  26 H :    0.021795
  27 H :    0.026840
  28 C :   -0.008020
  29 H :    0.037970
  30 H :    0.025134
  31 H :    0.019552
  32 H :    0.046992
  33 H :    0.048182
Sum of atomic charges:   -0.0000000

LOEWDIN ATOMIC CHARGES
----------------------
   0 S :    0.428116
   1 C :   -0.204461
   2 C :   -0.068099
   3 C :   -0.059714
   4 C :   -0.205524
   5 H :    0.029915
   6 C :   -0.034064
   7 H :    0.039708
   8 H :    0.028096
   9 C :   -0.043509
  10 H :    0.032894
  11 H :    0.014279
  12 C :   -0.066415
  13 H :    0.028372
  14 H :    0.032007
  15 H :    0.016026
  16 S :    0.366729
  17 C :   -0.153956
  18 C :   -0.069534
  19 C :   -0.055401
  20 C :   -0.196176
  21 H :    0.036341
  22 C :   -0.030197
  23 H :    0.032026
  24 H :    0.033404
  25 C :   -0.043906
  26 H :    0.024911
  27 H :    0.024772
  28 C :   -0.061544
  29 H :    0.029131
  30 H :    0.020279
  31 H :    0.024399
  32 H :    0.031561
  33 H :    0.019532

  Mayer bond orders larger than 0.100000
B(  0-S ,  1-C ) :   1.1420 B(  0-S ,  4-C ) :   1.1620 B(  1-C ,  2-C ) :   1.6179
B(  1-C , 32-H ) :   0.9654 B(  2-C ,  3-C ) :   1.2075 B(  2-C ,  6-C ) :   1.0350
B(  3-C ,  4-C ) :   1.5853 B(  3-C ,  5-H ) :   0.9981 B(  4-C , 20-C ) :   0.9978
B(  6-C ,  7-H ) :   0.9386 B(  6-C ,  8-H ) :   0.9373 B(  6-C ,  9-C ) :   1.0611
B(  9-C , 10-H ) :   0.9565 B(  9-C , 11-H ) :   0.9554 B(  9-C , 12-C ) :   1.0812
B( 12-C , 13-H ) :   0.9715 B( 12-C , 14-H ) :   0.9721 B( 12-C , 15-H ) :   0.9751
B( 16-S , 17-C ) :   1.1333 B( 16-S , 20-C ) :   1.1397 B( 17-C , 18-C ) :   1.6360
B( 17-C , 33-H ) :   0.9762 B( 18-C , 19-C ) :   1.1878 B( 18-C , 21-H ) :   0.9943
B( 19-C , 20-C ) :   1.6457 B( 19-C , 22-C ) :   1.0475 B( 22-C , 23-H ) :   0.9336
B( 22-C , 24-H ) :   0.9296 B( 22-C , 25-C ) :   1.0611 B( 25-C , 26-H ) :   0.9464
B( 25-C , 27-H ) :   0.9563 B( 25-C , 28-C ) :   1.0861 B( 28-C , 29-H ) :   0.9727
B( 28-C , 30-H ) :   0.9751 B( 28-C , 31-H ) :   0.9692

Dispersion correction           -0.014708615
FINAL SINGLE POINT ENERGY     -1339.874951297221

DIPOLE MOMENT
-------------
                                X             Y             Z
Electronic contribution:    -26.07774      -1.30305      -6.25293
Nuclear contribution   :     26.70947       1.64077       6.45567
                        -----------------------------------------
Total Dipole Moment    :      0.63174       0.33772       0.20274
                        -----------------------------------------
Magnitude (a.u.)       :      0.74448
Magnitude (Debye)      :      1.89231

Rotational constants in cm-1:     0.017605     0.009313     0.007254
Rotational constants in MHz :   527.798129   279.209163   217.462985

                             ****ORCA TERMINATED NORMALLY****
TOTAL RUN TIME: 0 days 0 hours 0 minutes 22 seconds 63 msec
