                         Program Version 4.2.1 -  RELEASE  -
|  1> ! wB97X-D3 SP def2-SVP
|  2> %pal
|  3> nprocs 24
|  4> end
|  5>
|  6> * xyz 0 1
|  7> S 	 -60.0147 	 -0.556287 	 -30.0209
|  8> C 	 -60.2225 	 -1.05188 	 -28.3553
|  9> C 	 -59.1153 	 -0.823923 	 -27.524
| 10> C 	 -58.093 	 -0.123348 	 -28.2394
| 11> C 	 -58.4288 	 0.239534 	 -29.5356
| 12> H 	 -57.105 	 0.254215 	 -27.9343
| 13> C 	 -58.8623 	 -1.46877 	 -26.1334
| 14> H 	 -57.9657 	 -2.10041 	 -26.278
| 15> H 	 -59.585 	 -2.19468 	 -25.7198
| 16> C 	 -58.6007 	 -0.410606 	 -25.0941
| 17> H 	 -57.6309 	 0.0982201 	 -25.0852
| 18> H 	 -59.289 	 0.424259 	 -25.2135
| 19> C 	 -58.7779 	 -0.950855 	 -23.6466
| 20> H 	 -59.8149 	 -1.20785 	 -23.5976
| 21> H 	 -58.1428 	 -1.80136 	 -23.4365
| 22> H 	 -58.5677 	 -0.11893 	 -22.9883
| 23> S 	 -56.4558 	 0.174601 	 -31.4647
| 24> C 	 -55.4868 	 1.59081 	 -31.8101
| 25> C 	 -55.8975 	 2.6253 	 -30.9946
| 26> C 	 -57.0766 	 2.29543 	 -30.2422
| 27> C 	 -57.5483 	 1.00355 	 -30.4337
| 28> H 	 -55.361 	 3.57438 	 -31.104
| 29> C 	 -57.561 	 3.35333 	 -29.3209
| 30> H 	 -57.2005 	 4.30921 	 -29.6274
| 31> H 	 -57.0775 	 3.1201 	 -28.4394
| 32> C 	 -59.1038 	 3.51365 	 -29.0701
| 33> H 	 -59.1627 	 4.30913 	 -28.4211
| 34> H 	 -59.4374 	 2.62484 	 -28.5611
| 35> C 	 -59.9119 	 3.77806 	 -30.3706
| 36> H 	 -59.3855 	 4.46805 	 -31.0134
| 37> H 	 -60.894 	 4.24108 	 -30.0543
| 38> H 	 -60.1507 	 2.93859 	 -30.9197
| 39> H 	 -61.1487 	 -1.58544 	 -28.0429
| 40> H 	 -54.7423 	 1.71205 	 -32.5807
| 41> *
| 42>
| 43>                          ****END OF INPUT****

CARTESIAN COORDINATES (ANGSTROEM)
---------------------------------
  S    -60.014700   -0.556287  -30.020900
  C    -60.222500   -1.051880  -28.355300
  C    -59.115300   -0.823923  -27.524000
  C    -58.093000   -0.123348  -28.239400
  C    -58.428800    0.239534  -29.535600
  H    -57.105000    0.254215  -27.934300
  C    -58.862300   -1.468770  -26.133400
  H    -57.965700   -2.100410  -26.278000
  H    -59.585000   -2.194680  -25.719800
  C    -58.600700   -0.410606  -25.094100
  H    -57.630900    0.098220  -25.085200
  H    -59.289000    0.424259  -25.213500
  C    -58.777900   -0.950855  -23.646600
  H    -59.814900   -1.207850  -23.597600
  H    -58.142800   -1.801360  -23.436500
  H    -58.567700   -0.118930  -22.988300
  S    -56.455800    0.174601  -31.464700
  C    -55.486800    1.590810  -31.810100
  C    -55.897500    2.625300  -30.994600
  C    -57.076600    2.295430  -30.242200
  C    -57.548300    1.003550  -30.433700
  H    -55.361000    3.574380  -31.104000
  C    -57.561000    3.353330  -29.320900
  H    -57.200500    4.309210  -29.627400
  H    -57.077500    3.120100  -28.439400
  C    -59.103800    3.513650  -29.070100
  H    -59.162700    4.309130  -28.421100
  H    -59.437400    2.624840  -28.561100
  C    -59.911900    3.778060  -30.370600
  H    -59.385500    4.468050  -31.013400
  H    -60.894000    4.241080  -30.054300
  H    -60.150700    2.938590  -30.919700
  H    -61.148700   -1.585440  -28.042900
  H    -54.742300    1.712050  -32.580700

 Total Charge           Charge          ....    0
 Multiplicity           Mult            ....    1
 Number of Electrons    NEL             ....  134
 Basis Dimension        Dim             ....  322

ORBITAL ENERGIES
----------------

  NO   OCC          E(Eh)            E(eV)
   0   2.0000     -88.968362     -2420.9522
   1   2.0000     -88.961030     -2420.7527
   2   2.0000     -10.335805      -281.2516
   3   2.0000     -10.322873      -280.8997
   4   2.0000     -10.321917      -280.8736
   5   2.0000     -10.317072      -280.7418
   6   2.0000     -10.310516      -280.5634
   7   2.0000     -10.301733      -280.3244
   8   2.0000     -10.301404      -280.3154
   9   2.0000     -10.300504      -280.2910
  10   2.0000     -10.292600      -280.0759
  11   2.0000     -10.283548      -279.8296
  12   2.0000     -10.276703      -279.6433
  13   2.0000     -10.275471      -279.6098
  14   2.0000     -10.273637      -279.5599
  15   2.0000     -10.267633      -279.3965
  16   2.0000      -8.081678      -219.9136
  17   2.0000      -8.076451      -219.7714
  18   2.0000      -6.040114      -164.3599
  19   2.0000      -6.036567      -164.2633
  20   2.0000      -6.035048      -164.2220
  21   2.0000      -6.032420      -164.1505
  22   2.0000      -6.030658      -164.1026
  23   2.0000      -6.027263      -164.0102
  24   2.0000      -1.004768       -27.3411
  25   2.0000      -0.978885       -26.6368
  26   2.0000      -0.911095       -24.7922
  27   2.0000      -0.905192       -24.6315
  28   2.0000      -0.869874       -23.6705
  29   2.0000      -0.848122       -23.0786
  30   2.0000      -0.843706       -22.9584
  31   2.0000      -0.813365       -22.1328
  32   2.0000      -0.781226       -21.2582
  33   2.0000      -0.770030       -20.9536
  34   2.0000      -0.711113       -19.3504
  35   2.0000      -0.697295       -18.9744
  36   2.0000      -0.686065       -18.6688
  37   2.0000      -0.659606       -17.9488
  38   2.0000      -0.645969       -17.5777
  39   2.0000      -0.616421       -16.7737
  40   2.0000      -0.583929       -15.8895
  41   2.0000      -0.569250       -15.4901
  42   2.0000      -0.564937       -15.3727
  43   2.0000      -0.560558       -15.2536
  44   2.0000      -0.539857       -14.6903
  45   2.0000      -0.529105       -14.3977
  46   2.0000      -0.513290       -13.9673
  47   2.0000      -0.508164       -13.8278
  48   2.0000      -0.501226       -13.6391
  49   2.0000      -0.495384       -13.4801
  50   2.0000      -0.489883       -13.3304
  51   2.0000      -0.478413       -13.0183
  52   2.0000      -0.474589       -12.9142
  53   2.0000      -0.468271       -12.7423
  54   2.0000      -0.459405       -12.5011
  55   2.0000      -0.447289       -12.1713
  56   2.0000      -0.441882       -12.0242
  57   2.0000      -0.440834       -11.9957
  58   2.0000      -0.426962       -11.6182
  59   2.0000      -0.420950       -11.4546
  60   2.0000      -0.415985       -11.3195
  61   2.0000      -0.413905       -11.2629
  62   2.0000      -0.409932       -11.1548
  63   2.0000      -0.341569        -9.2946
  64   2.0000      -0.330716        -8.9992
  65   2.0000      -0.316681        -8.6173
  66   2.0000      -0.304886        -8.2964
  67   0.0000       0.034862         0.9486
  68   0.0000       0.056974         1.5503
  69   0.0000       0.104840         2.8528
  70   0.0000       0.124329         3.3832
  71   0.0000       0.129403         3.5212

MULLIKEN ATOMIC CHARGES
-----------------------
   0 S :    0.102419
   1 C :   -0.139907
   2 C :   -0.052938
   3 C :    0.042215
   4 C :   -0.206052
   5 H :    0.030066
   6 C :    0.068876
   7 H :    0.043525
   8 H :    0.025694
   9 C :   -0.118766
  10 H :    0.029147
  11 H :    0.029647
  12 C :   -0.038366
  13 H :    0.027190
  14 H :    0.035786
  15 H :    0.033681
  16 S :    0.101438
  17 C :   -0.089415
  18 C :   -0.054544
  19 C :   -0.070164
  20 C :   -0.116441
  21 H :    0.029049
  22 C :    0.081178
  23 H :    0.006805
  24 H :    0.012177
  25 C :   -0.019617
  26 H :    0.005698
  27 H :    0.034918
  28 C :   -0.032441
  29 H :    0.022580
  30 H :    0.033902
  31 H :    0.021624
  32 H :    0.066080
  33 H :    0.054956
Sum of atomic charges:   -0.0000000

LOEWDIN ATOMIC CHARGES
----------------------
   0 S :    0.367505
   1 C :   -0.194197
   2 C :   -0.065640
   3 C :   -0.049357
   4 C :   -0.174242
   5 H :    0.039520
   6 C :   -0.032130
   7 H :    0.039710
   8 H :    0.032711
   9 C :   -0.049349
  10 H :    0.021821
  11 H :    0.023490
  12 C :   -0.057917
  13 H :    0.019935
  14 H :    0.022912
  15 H :    0.026472
  16 S :    0.419970
  17 C :   -0.180196
  18 C :   -0.078795
  19 C :   -0.049373
  20 C :   -0.230012
  21 H :    0.035889
  22 C :   -0.025997
  23 H :    0.023802
  24 H :    0.025364
  25 C :   -0.024636
  26 H :    0.012498
  27 H :    0.023873
  28 C :   -0.056565
  29 H :    0.021703
  30 H :    0.033447
  31 H :    0.012945
  32 H :    0.034174
  33 H :    0.030666

  Mayer bond orders larger than 0.100000
B(  0-S ,  1-C ) :   1.1508 B(  0-S ,  4-C ) :   1.1094 B(  1-C ,  2-C ) :   1.6175
B(  1-C , 32-H ) :   0.9620 B(  2-C ,  3-C ) :   1.2028 B(  2-C ,  6-C ) :   1.0165
B(  3-C ,  4-C ) :   1.6258 B(  3-C ,  5-H ) :   0.9862 B(  4-C , 20-C ) :   1.0215
B(  6-C ,  7-H ) :   0.9381 B(  6-C ,  8-H ) :   0.9549 B(  6-C ,  9-C ) :   1.0439
B(  9-C , 10-H ) :   0.9547 B(  9-C , 11-H ) :   0.9623 B(  9-C , 12-C ) :   1.0882
B( 12-C , 13-H ) :   0.9781 B( 12-C , 14-H ) :   0.9755 B( 12-C , 15-H ) :   0.9753
B( 16-S , 17-C ) :   1.1750 B( 16-S , 20-C ) :   1.1366 B( 17-C , 18-C ) :   1.5931
B( 17-C , 33-H ) :   0.9675 B( 18-C , 19-C ) :   1.2571 B( 18-C , 21-H ) :   0.9902
B( 19-C , 20-C ) :   1.5717 B( 19-C , 22-C ) :   1.0348 B( 22-C , 23-H ) :   0.9379
B( 22-C , 24-H ) :   0.9183 B( 22-C , 25-C ) :   1.0873 B( 25-C , 26-H ) :   0.9540
B( 25-C , 27-H ) :   0.9504 B( 25-C , 28-C ) :   1.0747 B( 28-C , 29-H ) :   0.9782
B( 28-C , 30-H ) :   0.9764 B( 28-C , 31-H ) :   0.9747

Dispersion correction           -0.015273105
FINAL SINGLE POINT ENERGY     -1339.863341109660

DIPOLE MOMENT
-------------
                                X             Y             Z
Electronic contribution:      4.60093      -9.69385     -22.77209
Nuclear contribution   :     -4.34329       9.95650      23.39478
                        -----------------------------------------
Total Dipole Moment    :      0.25765       0.26266       0.62270
                        -----------------------------------------
Magnitude (a.u.)       :      0.72327
Magnitude (Debye)      :      1.83841

Rotational constants in cm-1:     0.018982     0.008155     0.007814
Rotational constants in MHz :   569.074209   244.490864   234.254674

                             ****ORCA TERMINATED NORMALLY****
TOTAL RUN TIME: 0 days 0 hours 0 minutes 22 seconds 232 msec
