                         Program Version 4.2.1 -  RELEASE  -
|  1> ! wB97X-D3 SP def2-SVP
|  2> %pal
|  3> nprocs 24
|  4> end
|  5>
|  6> * xyz 0 1
|  7> S 	 -69.8239 	 18.4855 	 -71.0051
|  8> C 	 -68.189 	 18.6 	 -70.3565
|  9> C 	 -67.2459 	 18.5103 	 -71.3238
| 10> C 	 -67.7896 	 18.4395 	 -72.6502
| 11> C 	 -69.1596 	 18.4628 	 -72.6569
| 12> H 	 -67.2088 	 18.1944 	 -73.5721
| 13> C 	 -65.7337 	 18.422 	 -71.0647
| 14> H 	 -65.2716 	 17.5723 	 -71.628
| 15> H 	 -65.7545 	 18.1546 	 -69.9919
| 16> C 	 -64.8702 	 19.6521 	 -71.2999
| 17> H 	 -65.0177 	 19.9061 	 -72.3488
| 18> H 	 -65.1152 	 20.5155 	 -70.6919
| 19> C 	 -63.3637 	 19.4218 	 -71.1004
| 20> H 	 -63.1475 	 19.1583 	 -70.0058
| 21> H 	 -62.9838 	 18.7386 	 -71.833
| 22> H 	 -62.7373 	 20.2863 	 -71.2976
| 23> S 	 -71.4292 	 17.547 	 -73.7833
| 24> C 	 -71.9922 	 18.1258 	 -75.3893
| 25> C 	 -70.9892 	 18.8736 	 -75.9689
| 26> C 	 -69.9202 	 19.1959 	 -75.0139
| 27> C 	 -70.0013 	 18.514 	 -73.841
| 28> H 	 -71.0505 	 19.2746 	 -76.9664
| 29> C 	 -68.8891 	 20.2376 	 -75.4515
| 30> H 	 -68.1496 	 20.4327 	 -74.7325
| 31> H 	 -69.4496 	 21.1773 	 -75.5526
| 32> C 	 -68.1575 	 19.8565 	 -76.7634
| 33> H 	 -67.4855 	 20.6875 	 -77.1604
| 34> H 	 -68.9171 	 19.6694 	 -77.5391
| 35> C 	 -67.0993 	 18.7771 	 -76.6015
| 36> H 	 -67.5681 	 18.0004 	 -76.035
| 37> H 	 -66.2554 	 19.0425 	 -75.9763
| 38> H 	 -66.8081 	 18.3777 	 -77.5556
| 39> H 	 -67.8506 	 18.7588 	 -69.327
| 40> H 	 -73.0594 	 18.0216 	 -75.8513
| 41> *
| 42>
| 43>                          ****END OF INPUT****

CARTESIAN COORDINATES (ANGSTROEM)
---------------------------------
  S    -69.823900   18.485500  -71.005100
  C    -68.189000   18.600000  -70.356500
  C    -67.245900   18.510300  -71.323800
  C    -67.789600   18.439500  -72.650200
  C    -69.159600   18.462800  -72.656900
  H    -67.208800   18.194400  -73.572100
  C    -65.733700   18.422000  -71.064700
  H    -65.271600   17.572300  -71.628000
  H    -65.754500   18.154600  -69.991900
  C    -64.870200   19.652100  -71.299900
  H    -65.017700   19.906100  -72.348800
  H    -65.115200   20.515500  -70.691900
  C    -63.363700   19.421800  -71.100400
  H    -63.147500   19.158300  -70.005800
  H    -62.983800   18.738600  -71.833000
  H    -62.737300   20.286300  -71.297600
  S    -71.429200   17.547000  -73.783300
  C    -71.992200   18.125800  -75.389300
  C    -70.989200   18.873600  -75.968900
  C    -69.920200   19.195900  -75.013900
  C    -70.001300   18.514000  -73.841000
  H    -71.050500   19.274600  -76.966400
  C    -68.889100   20.237600  -75.451500
  H    -68.149600   20.432700  -74.732500
  H    -69.449600   21.177300  -75.552600
  C    -68.157500   19.856500  -76.763400
  H    -67.485500   20.687500  -77.160400
  H    -68.917100   19.669400  -77.539100
  C    -67.099300   18.777100  -76.601500
  H    -67.568100   18.000400  -76.035000
  H    -66.255400   19.042500  -75.976300
  H    -66.808100   18.377700  -77.555600
  H    -67.850600   18.758800  -69.327000
  H    -73.059400   18.021600  -75.851300

 Total Charge           Charge          ....    0
 Multiplicity           Mult            ....    1
 Number of Electrons    NEL             ....  134
 Basis Dimension        Dim             ....  322

ORBITAL ENERGIES
----------------

  NO   OCC          E(Eh)            E(eV)
   0   2.0000     -88.970679     -2421.0152
   1   2.0000     -88.962195     -2420.7844
   2   2.0000     -10.332820      -281.1703
   3   2.0000     -10.330407      -281.1047
   4   2.0000     -10.324637      -280.9477
   5   2.0000     -10.315014      -280.6858
   6   2.0000     -10.305384      -280.4238
   7   2.0000     -10.299458      -280.2625
   8   2.0000     -10.299021      -280.2506
   9   2.0000     -10.297797      -280.2173
  10   2.0000     -10.297034      -280.1965
  11   2.0000     -10.292706      -280.0788
  12   2.0000     -10.289631      -279.9951
  13   2.0000     -10.287124      -279.9269
  14   2.0000     -10.282833      -279.8101
  15   2.0000     -10.272941      -279.5409
  16   2.0000      -8.084553      -219.9919
  17   2.0000      -8.077010      -219.7866
  18   2.0000      -6.043308      -164.4468
  19   2.0000      -6.039317      -164.3382
  20   2.0000      -6.035786      -164.2421
  21   2.0000      -6.034941      -164.2191
  22   2.0000      -6.031490      -164.1252
  23   2.0000      -6.027478      -164.0160
  24   2.0000      -1.008054       -27.4305
  25   2.0000      -0.983532       -26.7633
  26   2.0000      -0.911587       -24.8055
  27   2.0000      -0.908090       -24.7104
  28   2.0000      -0.873422       -23.7670
  29   2.0000      -0.850559       -23.1449
  30   2.0000      -0.843843       -22.9621
  31   2.0000      -0.819088       -22.2885
  32   2.0000      -0.781117       -21.2553
  33   2.0000      -0.774164       -21.0661
  34   2.0000      -0.708633       -19.2829
  35   2.0000      -0.696325       -18.9480
  36   2.0000      -0.693177       -18.8623
  37   2.0000      -0.661454       -17.9991
  38   2.0000      -0.635972       -17.3057
  39   2.0000      -0.618518       -16.8307
  40   2.0000      -0.594582       -16.1794
  41   2.0000      -0.576829       -15.6963
  42   2.0000      -0.561441       -15.2776
  43   2.0000      -0.555626       -15.1194
  44   2.0000      -0.540484       -14.7073
  45   2.0000      -0.523586       -14.2475
  46   2.0000      -0.517660       -14.0862
  47   2.0000      -0.508009       -13.8236
  48   2.0000      -0.504502       -13.7282
  49   2.0000      -0.503874       -13.7111
  50   2.0000      -0.492553       -13.4030
  51   2.0000      -0.483645       -13.1606
  52   2.0000      -0.470539       -12.8040
  53   2.0000      -0.464481       -12.6392
  54   2.0000      -0.461563       -12.5598
  55   2.0000      -0.451750       -12.2927
  56   2.0000      -0.445554       -12.1242
  57   2.0000      -0.432851       -11.7785
  58   2.0000      -0.430643       -11.7184
  59   2.0000      -0.428737       -11.6665
  60   2.0000      -0.424523       -11.5519
  61   2.0000      -0.414984       -11.2923
  62   2.0000      -0.401045       -10.9130
  63   2.0000      -0.353420        -9.6170
  64   2.0000      -0.334465        -9.1013
  65   2.0000      -0.327480        -8.9112
  66   2.0000      -0.294761        -8.0208
  67   0.0000       0.026620         0.7244
  68   0.0000       0.075216         2.0467
  69   0.0000       0.096791         2.6338
  70   0.0000       0.122480         3.3329
  71   0.0000       0.128873         3.5068

MULLIKEN ATOMIC CHARGES
-----------------------
   0 S :    0.116983
   1 C :   -0.114414
   2 C :   -0.090116
   3 C :    0.002297
   4 C :   -0.120970
   5 H :    0.028798
   6 C :    0.047824
   7 H :    0.037047
   8 H :    0.012075
   9 C :   -0.049214
  10 H :    0.019586
  11 H :    0.029997
  12 C :   -0.063540
  13 H :    0.043581
  14 H :    0.025395
  15 H :    0.029427
  16 S :    0.080696
  17 C :   -0.125491
  18 C :   -0.029868
  19 C :   -0.079786
  20 C :   -0.127574
  21 H :    0.025879
  22 C :    0.099876
  23 H :    0.003470
  24 H :    0.040647
  25 C :   -0.118895
  26 H :    0.036703
  27 H :    0.031324
  28 C :   -0.025360
  29 H :    0.023681
  30 H :    0.029396
  31 H :    0.034864
  32 H :    0.046738
  33 H :    0.098942
Sum of atomic charges:   -0.0000000

LOEWDIN ATOMIC CHARGES
----------------------
   0 S :    0.388622
   1 C :   -0.194769
   2 C :   -0.067121
   3 C :   -0.066046
   4 C :   -0.178620
   5 H :    0.040692
   6 C :   -0.034093
   7 H :    0.037075
   8 H :    0.028357
   9 C :   -0.043107
  10 H :    0.022149
  11 H :    0.024458
  12 C :   -0.070806
  13 H :    0.033551
  14 H :    0.020335
  15 H :    0.026334
  16 S :    0.383950
  17 C :   -0.186202
  18 C :   -0.068209
  19 C :   -0.058839
  20 C :   -0.203573
  21 H :    0.029403
  22 C :   -0.026969
  23 H :    0.019478
  24 H :    0.038048
  25 C :   -0.044357
  26 H :    0.031274
  27 H :    0.020692
  28 C :   -0.063789
  29 H :    0.018146
  30 H :    0.023475
  31 H :    0.027709
  32 H :    0.035540
  33 H :    0.057213

  Mayer bond orders larger than 0.100000
B(  0-S ,  1-C ) :   1.1121 B(  0-S ,  4-C ) :   1.1291 B(  1-C ,  2-C ) :   1.6754
B(  1-C , 32-H ) :   0.9544 B(  2-C ,  3-C ) :   1.2096 B(  2-C ,  6-C ) :   1.0148
B(  3-C ,  4-C ) :   1.6068 B(  3-C ,  5-H ) :   0.9842 B(  4-C , 20-C ) :   1.0371
B(  6-C ,  7-H ) :   0.9430 B(  6-C ,  8-H ) :   0.9369 B(  6-C ,  9-C ) :   1.0638
B(  9-C , 10-H ) :   0.9531 B(  9-C , 11-H ) :   0.9559 B(  9-C , 12-C ) :   1.0886
B( 12-C , 13-H ) :   0.9749 B( 12-C , 14-H ) :   0.9731 B( 12-C , 15-H ) :   0.9728
B( 16-S , 17-C ) :   1.1293 B( 16-S , 20-C ) :   1.1152 B( 17-C , 18-C ) :   1.6479
B( 17-C , 33-H ) :   0.9537 B( 18-C , 19-C ) :   1.1971 B( 18-C , 21-H ) :   0.9848
B( 19-C , 20-C ) :   1.6484 B( 19-C , 22-C ) :   1.0389 B( 22-C , 23-H ) :   0.9383
B( 22-C , 24-H ) :   0.9331 B( 22-C , 25-C ) :   1.0657 B( 25-C , 26-H ) :   0.9566
B( 25-C , 27-H ) :   0.9586 B( 25-C , 28-C ) :   1.0713 B( 28-C , 29-H ) :   0.9725
B( 28-C , 30-H ) :   0.9722 B( 28-C , 31-H ) :   0.9679

Dispersion correction           -0.014422197
FINAL SINGLE POINT ENERGY     -1339.874107330850

DIPOLE MOMENT
-------------
                                X             Y             Z
Electronic contribution:    -29.59317      -8.14091       8.48942
Nuclear contribution   :     30.15719       8.48586      -8.84912
                        -----------------------------------------
Total Dipole Moment    :      0.56402       0.34495      -0.35971
                        -----------------------------------------
Magnitude (a.u.)       :      0.75266
Magnitude (Debye)      :      1.91311

Rotational constants in cm-1:     0.018941     0.008954     0.006426
Rotational constants in MHz :   567.845660   268.422983   192.653179

                             ****ORCA TERMINATED NORMALLY****
TOTAL RUN TIME: 0 days 0 hours 0 minutes 20 seconds 955 msec
