                         Program Version 4.2.1 -  RELEASE  -
|  1> ! wB97X-D3 SP def2-SVP
|  2> %pal
|  3> nprocs 24
|  4> end
|  5>
|  6> * xyz 0 1
|  7> S 	 -51.621 	 20.2674 	 -87.1463
|  8> C 	 -52.5217 	 20.672 	 -88.5926
|  9> C 	 -53.8582 	 21.0198 	 -88.2906
| 10> C 	 -54.143 	 20.984 	 -86.8965
| 11> C 	 -52.9894 	 20.7195 	 -86.1403
| 12> H 	 -55.034 	 21.2033 	 -86.3568
| 13> C 	 -54.8937 	 21.4006 	 -89.2672
| 14> H 	 -55.8786 	 21.2083 	 -88.9514
| 15> H 	 -54.7423 	 20.6849 	 -90.0973
| 16> C 	 -54.8658 	 22.8127 	 -89.8311
| 17> H 	 -54.9947 	 23.5883 	 -89.0328
| 18> H 	 -53.9389 	 23.0249 	 -90.333
| 19> C 	 -56.0008 	 23.1568 	 -90.7947
| 20> H 	 -56.9584 	 23.0388 	 -90.2121
| 21> H 	 -55.9917 	 24.1598 	 -91.3038
| 22> H 	 -56.1708 	 22.4374 	 -91.5888
| 23> S 	 -52.8767 	 18.9402 	 -84.159
| 24> C 	 -52.6593 	 19.4746 	 -82.539
| 25> C 	 -52.7477 	 20.8357 	 -82.3505
| 26> C 	 -52.9418 	 21.4585 	 -83.6461
| 27> C 	 -52.9612 	 20.5911 	 -84.6935
| 28> H 	 -52.6337 	 21.2607 	 -81.3541
| 29> C 	 -52.9399 	 22.9452 	 -83.8811
| 30> H 	 -53.4912 	 23.4738 	 -83.0502
| 31> H 	 -53.6886 	 23.1257 	 -84.7796
| 32> C 	 -51.5581 	 23.5321 	 -84.261
| 33> H 	 -51.3481 	 23.1904 	 -85.2891
| 34> H 	 -50.7661 	 23.2505 	 -83.5584
| 35> C 	 -51.6791 	 25.0366 	 -84.2051
| 36> H 	 -52.1444 	 25.3635 	 -83.2603
| 37> H 	 -52.1703 	 25.3537 	 -85.1429
| 38> H 	 -50.7588 	 25.5358 	 -84.4402
| 39> H 	 -52.2414 	 20.6005 	 -89.6262
| 40> H 	 -52.3559 	 18.7344 	 -81.8068
| 41> *
| 42>
| 43>                          ****END OF INPUT****

CARTESIAN COORDINATES (ANGSTROEM)
---------------------------------
  S    -51.621000   20.267400  -87.146300
  C    -52.521700   20.672000  -88.592600
  C    -53.858200   21.019800  -88.290600
  C    -54.143000   20.984000  -86.896500
  C    -52.989400   20.719500  -86.140300
  H    -55.034000   21.203300  -86.356800
  C    -54.893700   21.400600  -89.267200
  H    -55.878600   21.208300  -88.951400
  H    -54.742300   20.684900  -90.097300
  C    -54.865800   22.812700  -89.831100
  H    -54.994700   23.588300  -89.032800
  H    -53.938900   23.024900  -90.333000
  C    -56.000800   23.156800  -90.794700
  H    -56.958400   23.038800  -90.212100
  H    -55.991700   24.159800  -91.303800
  H    -56.170800   22.437400  -91.588800
  S    -52.876700   18.940200  -84.159000
  C    -52.659300   19.474600  -82.539000
  C    -52.747700   20.835700  -82.350500
  C    -52.941800   21.458500  -83.646100
  C    -52.961200   20.591100  -84.693500
  H    -52.633700   21.260700  -81.354100
  C    -52.939900   22.945200  -83.881100
  H    -53.491200   23.473800  -83.050200
  H    -53.688600   23.125700  -84.779600
  C    -51.558100   23.532100  -84.261000
  H    -51.348100   23.190400  -85.289100
  H    -50.766100   23.250500  -83.558400
  C    -51.679100   25.036600  -84.205100
  H    -52.144400   25.363500  -83.260300
  H    -52.170300   25.353700  -85.142900
  H    -50.758800   25.535800  -84.440200
  H    -52.241400   20.600500  -89.626200
  H    -52.355900   18.734400  -81.806800

 Total Charge           Charge          ....    0
 Multiplicity           Mult            ....    1
 Number of Electrons    NEL             ....  134
 Basis Dimension        Dim             ....  322

ORBITAL ENERGIES
----------------

  NO   OCC          E(Eh)            E(eV)
   0   2.0000     -88.974175     -2421.1104
   1   2.0000     -88.959170     -2420.7021
   2   2.0000     -10.329215      -281.0722
   3   2.0000     -10.316578      -280.7284
   4   2.0000     -10.315755      -280.7060
   5   2.0000     -10.313191      -280.6362
   6   2.0000     -10.302456      -280.3441
   7   2.0000     -10.300996      -280.3044
   8   2.0000     -10.297365      -280.2055
   9   2.0000     -10.296693      -280.1873
  10   2.0000     -10.293954      -280.1127
  11   2.0000     -10.288326      -279.9596
  12   2.0000     -10.287601      -279.9399
  13   2.0000     -10.284010      -279.8421
  14   2.0000     -10.283903      -279.8392
  15   2.0000     -10.272442      -279.5273
  16   2.0000      -8.087922      -220.0836
  17   2.0000      -8.075381      -219.7423
  18   2.0000      -6.046420      -164.5315
  19   2.0000      -6.042506      -164.4249
  20   2.0000      -6.038812      -164.3244
  21   2.0000      -6.033692      -164.1851
  22   2.0000      -6.029751      -164.0779
  23   2.0000      -6.026191      -163.9810
  24   2.0000      -1.009024       -27.4569
  25   2.0000      -0.984091       -26.7785
  26   2.0000      -0.916446       -24.9378
  27   2.0000      -0.906699       -24.6725
  28   2.0000      -0.869016       -23.6471
  29   2.0000      -0.854068       -23.2404
  30   2.0000      -0.850523       -23.1439
  31   2.0000      -0.814277       -22.1576
  32   2.0000      -0.778902       -21.1950
  33   2.0000      -0.764005       -20.7896
  34   2.0000      -0.702660       -19.1204
  35   2.0000      -0.701826       -19.0977
  36   2.0000      -0.687458       -18.7067
  37   2.0000      -0.664047       -18.0696
  38   2.0000      -0.645790       -17.5728
  39   2.0000      -0.614527       -16.7221
  40   2.0000      -0.593017       -16.1368
  41   2.0000      -0.579075       -15.7574
  42   2.0000      -0.568456       -15.4685
  43   2.0000      -0.557043       -15.1579
  44   2.0000      -0.525182       -14.2909
  45   2.0000      -0.522155       -14.2086
  46   2.0000      -0.520755       -14.1705
  47   2.0000      -0.507890       -13.8204
  48   2.0000      -0.505619       -13.7586
  49   2.0000      -0.498640       -13.5687
  50   2.0000      -0.491817       -13.3830
  51   2.0000      -0.482432       -13.1276
  52   2.0000      -0.468997       -12.7621
  53   2.0000      -0.457069       -12.4375
  54   2.0000      -0.452954       -12.3255
  55   2.0000      -0.449577       -12.2336
  56   2.0000      -0.441756       -12.0208
  57   2.0000      -0.440151       -11.9771
  58   2.0000      -0.429633       -11.6909
  59   2.0000      -0.425841       -11.5877
  60   2.0000      -0.418789       -11.3958
  61   2.0000      -0.413873       -11.2620
  62   2.0000      -0.408847       -11.1253
  63   2.0000      -0.339900        -9.2492
  64   2.0000      -0.328513        -8.9393
  65   2.0000      -0.322393        -8.7728
  66   2.0000      -0.302192        -8.2231
  67   0.0000       0.036987         1.0065
  68   0.0000       0.059569         1.6210
  69   0.0000       0.116368         3.1665
  70   0.0000       0.118017         3.2114
  71   0.0000       0.130346         3.5469

MULLIKEN ATOMIC CHARGES
-----------------------
   0 S :    0.139021
   1 C :   -0.099993
   2 C :   -0.083782
   3 C :    0.067372
   4 C :   -0.181594
   5 H :    0.008911
   6 C :    0.081576
   7 H :    0.000860
   8 H :    0.022296
   9 C :   -0.049711
  10 H :    0.033487
  11 H :    0.021511
  12 C :   -0.079516
  13 H :    0.024260
  14 H :    0.052486
  15 H :    0.018671
  16 S :    0.108175
  17 C :   -0.098629
  18 C :   -0.031555
  19 C :    0.002818
  20 C :   -0.191505
  21 H :    0.025886
  22 C :   -0.028928
  23 H :    0.029327
  24 H :    0.036505
  25 C :   -0.047371
  26 H :    0.037556
  27 H :    0.034782
  28 C :   -0.030471
  29 H :    0.043430
  30 H :    0.020833
  31 H :    0.017746
  32 H :    0.037157
  33 H :    0.058386
Sum of atomic charges:   -0.0000000

LOEWDIN ATOMIC CHARGES
----------------------
   0 S :    0.419148
   1 C :   -0.202920
   2 C :   -0.058594
   3 C :   -0.050124
   4 C :   -0.200166
   5 H :    0.030586
   6 C :   -0.034953
   7 H :    0.023294
   8 H :    0.036631
   9 C :   -0.039960
  10 H :    0.030187
  11 H :    0.018673
  12 C :   -0.077534
  13 H :    0.026906
  14 H :    0.035014
  15 H :    0.017667
  16 S :    0.417304
  17 C :   -0.184374
  18 C :   -0.073990
  19 C :   -0.057104
  20 C :   -0.212798
  21 H :    0.037865
  22 C :   -0.046330
  23 H :    0.029120
  24 H :    0.040674
  25 C :   -0.037238
  26 H :    0.029709
  27 H :    0.023952
  28 C :   -0.071777
  29 H :    0.027938
  30 H :    0.030139
  31 H :    0.021737
  32 H :    0.026780
  33 H :    0.024535

  Mayer bond orders larger than 0.100000
B(  0-S ,  1-C ) :   1.1401 B(  0-S ,  4-C ) :   1.1576 B(  1-C ,  2-C ) :   1.5875
B(  1-C ,  4-C ) :   0.1065 B(  1-C , 32-H ) :   0.9685 B(  2-C ,  3-C ) :   1.2454
B(  2-C ,  6-C ) :   1.0383 B(  3-C ,  4-C ) :   1.5629 B(  3-C ,  5-H ) :   0.9955
B(  4-C , 20-C ) :   1.0113 B(  6-C ,  7-H ) :   0.9400 B(  6-C ,  8-H ) :   0.9258
B(  6-C ,  9-C ) :   1.0668 B(  9-C , 10-H ) :   0.9552 B(  9-C , 11-H ) :   0.9545
B(  9-C , 12-C ) :   1.0755 B( 12-C , 13-H ) :   0.9731 B( 12-C , 14-H ) :   0.9746
B( 12-C , 15-H ) :   0.9745 B( 16-S , 17-C ) :   1.1718 B( 16-S , 20-C ) :   1.1429
B( 17-C , 18-C ) :   1.6138 B( 17-C , 33-H ) :   0.9650 B( 18-C , 19-C ) :   1.2004
B( 18-C , 21-H ) :   1.0011 B( 19-C , 20-C ) :   1.6425 B( 19-C , 22-C ) :   1.0488
B( 22-C , 23-H ) :   0.9414 B( 22-C , 24-H ) :   0.9322 B( 22-C , 25-C ) :   1.0528
B( 25-C , 26-H ) :   0.9490 B( 25-C , 27-H ) :   0.9599 B( 25-C , 28-C ) :   1.0927
B( 28-C , 29-H ) :   0.9743 B( 28-C , 30-H ) :   0.9691 B( 28-C , 31-H ) :   0.9682

Dispersion correction           -0.014156222
FINAL SINGLE POINT ENERGY     -1339.873808961996

DIPOLE MOMENT
-------------
                                X             Y             Z
Electronic contribution:      9.09605     -24.34831      10.90427
Nuclear contribution   :     -9.28109      24.69712     -11.00066
                        -----------------------------------------
Total Dipole Moment    :     -0.18504       0.34881      -0.09639
                        -----------------------------------------
Magnitude (a.u.)       :      0.40645
Magnitude (Debye)      :      1.03310

Rotational constants in cm-1:     0.019011     0.008202     0.006784
Rotational constants in MHz :   569.942163   245.892869   203.384157

                             ****ORCA TERMINATED NORMALLY****
TOTAL RUN TIME: 0 days 0 hours 0 minutes 21 seconds 526 msec
