                         Program Version 4.2.1 -  RELEASE  -
|  1> ! wB97X-D3 SP def2-SVP
|  2> %pal
|  3> nprocs 24
|  4> end
|  5>
|  6> * xyz 0 1
|  7> S 	 -108.547 	 2.88837 	 -112.351
|  8> C 	 -110.069 	 3.51721 	 -113.175
|  9> C 	 -110.362 	 2.84815 	 -114.386
| 10> C 	 -109.36 	 1.83522 	 -114.591
| 11> C 	 -108.349 	 1.68436 	 -113.658
| 12> H 	 -109.397 	 1.04674 	 -115.352
| 13> C 	 -111.518 	 2.9701 	 -115.367
| 14> H 	 -112.353 	 3.47881 	 -114.884
| 15> H 	 -112.023 	 2.03823 	 -115.793
| 16> C 	 -111.202 	 3.94005 	 -116.573
| 17> H 	 -110.802 	 4.89443 	 -116.142
| 18> H 	 -110.351 	 3.44878 	 -117.098
| 19> C 	 -112.433 	 4.24461 	 -117.414
| 20> H 	 -112.081 	 4.91543 	 -118.174
| 21> H 	 -112.987 	 3.44693 	 -117.853
| 22> H 	 -113.091 	 4.93367 	 -116.81
| 23> S 	 -105.764 	 1.1395 	 -113.161
| 24> C 	 -105.107 	 -0.441137 	 -113.749
| 25> C 	 -106.129 	 -1.28408 	 -114.129
| 26> C 	 -107.417 	 -0.674811 	 -114.062
| 27> C 	 -107.316 	 0.659626 	 -113.586
| 28> H 	 -105.969 	 -2.32375 	 -114.419
| 29> C 	 -108.661 	 -1.42095 	 -114.559
| 30> H 	 -108.675 	 -1.40795 	 -115.642
| 31> H 	 -109.604 	 -0.913791 	 -114.348
| 32> C 	 -108.837 	 -2.88611 	 -114.208
| 33> H 	 -107.942 	 -3.39117 	 -114.708
| 34> H 	 -109.808 	 -3.27725 	 -114.573
| 35> C 	 -108.714 	 -3.1373 	 -112.704
| 36> H 	 -109.514 	 -2.51161 	 -112.183
| 37> H 	 -107.674 	 -3.0047 	 -112.286
| 38> H 	 -108.935 	 -4.22233 	 -112.594
| 39> H 	 -110.603 	 4.29795 	 -112.762
| 40> H 	 -104.05 	 -0.649308 	 -113.775
| 41> *
| 42>
| 43>                          ****END OF INPUT****

CARTESIAN COORDINATES (ANGSTROEM)
---------------------------------
  S    -108.547000    2.888370  -112.351000
  C    -110.069000    3.517210  -113.175000
  C    -110.362000    2.848150  -114.386000
  C    -109.360000    1.835220  -114.591000
  C    -108.349000    1.684360  -113.658000
  H    -109.397000    1.046740  -115.352000
  C    -111.518000    2.970100  -115.367000
  H    -112.353000    3.478810  -114.884000
  H    -112.023000    2.038230  -115.793000
  C    -111.202000    3.940050  -116.573000
  H    -110.802000    4.894430  -116.142000
  H    -110.351000    3.448780  -117.098000
  C    -112.433000    4.244610  -117.414000
  H    -112.081000    4.915430  -118.174000
  H    -112.987000    3.446930  -117.853000
  H    -113.091000    4.933670  -116.810000
  S    -105.764000    1.139500  -113.161000
  C    -105.107000   -0.441137  -113.749000
  C    -106.129000   -1.284080  -114.129000
  C    -107.417000   -0.674811  -114.062000
  C    -107.316000    0.659626  -113.586000
  H    -105.969000   -2.323750  -114.419000
  C    -108.661000   -1.420950  -114.559000
  H    -108.675000   -1.407950  -115.642000
  H    -109.604000   -0.913791  -114.348000
  C    -108.837000   -2.886110  -114.208000
  H    -107.942000   -3.391170  -114.708000
  H    -109.808000   -3.277250  -114.573000
  C    -108.714000   -3.137300  -112.704000
  H    -109.514000   -2.511610  -112.183000
  H    -107.674000   -3.004700  -112.286000
  H    -108.935000   -4.222330  -112.594000
  H    -110.603000    4.297950  -112.762000
  H    -104.050000   -0.649308  -113.775000

 Total Charge           Charge          ....    0
 Multiplicity           Mult            ....    1
 Number of Electrons    NEL             ....  134
 Basis Dimension        Dim             ....  322

ORBITAL ENERGIES
----------------

  NO   OCC          E(Eh)            E(eV)
   0   2.0000     -88.969576     -2420.9852
   1   2.0000     -88.966020     -2420.8885
   2   2.0000     -10.331132      -281.1244
   3   2.0000     -10.327547      -281.0268
   4   2.0000     -10.323334      -280.9122
   5   2.0000     -10.322717      -280.8954
   6   2.0000     -10.313208      -280.6367
   7   2.0000     -10.308830      -280.5175
   8   2.0000     -10.301861      -280.3279
   9   2.0000     -10.299939      -280.2756
  10   2.0000     -10.294502      -280.1276
  11   2.0000     -10.294132      -280.1176
  12   2.0000     -10.293460      -280.0993
  13   2.0000     -10.290559      -280.0204
  14   2.0000     -10.284076      -279.8439
  15   2.0000     -10.281425      -279.7718
  16   2.0000      -8.084836      -219.9996
  17   2.0000      -8.078937      -219.8391
  18   2.0000      -6.043264      -164.4456
  19   2.0000      -6.039303      -164.3378
  20   2.0000      -6.037590      -164.2912
  21   2.0000      -6.035607      -164.2372
  22   2.0000      -6.033874      -164.1900
  23   2.0000      -6.029491      -164.0708
  24   2.0000      -1.005476       -27.3604
  25   2.0000      -0.972353       -26.4591
  26   2.0000      -0.912976       -24.8433
  27   2.0000      -0.906248       -24.6603
  28   2.0000      -0.870188       -23.6790
  29   2.0000      -0.847212       -23.0538
  30   2.0000      -0.842667       -22.9301
  31   2.0000      -0.809995       -22.0411
  32   2.0000      -0.783232       -21.3128
  33   2.0000      -0.772810       -21.0292
  34   2.0000      -0.702405       -19.1134
  35   2.0000      -0.695717       -18.9314
  36   2.0000      -0.687414       -18.7055
  37   2.0000      -0.658446       -17.9172
  38   2.0000      -0.645467       -17.5640
  39   2.0000      -0.617643       -16.8069
  40   2.0000      -0.601559       -16.3693
  41   2.0000      -0.569672       -15.5016
  42   2.0000      -0.556590       -15.1456
  43   2.0000      -0.552855       -15.0440
  44   2.0000      -0.543712       -14.7952
  45   2.0000      -0.520522       -14.1641
  46   2.0000      -0.518615       -14.1122
  47   2.0000      -0.510078       -13.8799
  48   2.0000      -0.503545       -13.7022
  49   2.0000      -0.497488       -13.5373
  50   2.0000      -0.491525       -13.3751
  51   2.0000      -0.472013       -12.8441
  52   2.0000      -0.469770       -12.7831
  53   2.0000      -0.462042       -12.5728
  54   2.0000      -0.458010       -12.4631
  55   2.0000      -0.449603       -12.2343
  56   2.0000      -0.446185       -12.1413
  57   2.0000      -0.433024       -11.7832
  58   2.0000      -0.429948       -11.6995
  59   2.0000      -0.424775       -11.5587
  60   2.0000      -0.420108       -11.4317
  61   2.0000      -0.413017       -11.2388
  62   2.0000      -0.409767       -11.1503
  63   2.0000      -0.354454        -9.6452
  64   2.0000      -0.330924        -9.0049
  65   2.0000      -0.328434        -8.9371
  66   2.0000      -0.284547        -7.7429
  67   0.0000       0.023063         0.6276
  68   0.0000       0.069516         1.8916
  69   0.0000       0.088292         2.4025
  70   0.0000       0.116459         3.1690
  71   0.0000       0.126125         3.4320

MULLIKEN ATOMIC CHARGES
-----------------------
   0 S :    0.076007
   1 C :   -0.102826
   2 C :   -0.033888
   3 C :   -0.002441
   4 C :   -0.125614
   5 H :    0.010325
   6 C :    0.027405
   7 H :    0.010390
   8 H :    0.047189
   9 C :   -0.116449
  10 H :    0.036789
  11 H :    0.037118
  12 C :   -0.022033
  13 H :    0.031008
  14 H :    0.039352
  15 H :    0.032764
  16 S :    0.110488
  17 C :   -0.102420
  18 C :   -0.028890
  19 C :   -0.041312
  20 C :   -0.126486
  21 H :    0.026781
  22 C :    0.049480
  23 H :    0.036509
  24 H :    0.025579
  25 C :   -0.105088
  26 H :    0.030046
  27 H :    0.042169
  28 C :   -0.079807
  29 H :    0.049096
  30 H :    0.054398
  31 H :    0.035669
  32 H :    0.021494
  33 H :    0.057198
Sum of atomic charges:   -0.0000000

LOEWDIN ATOMIC CHARGES
----------------------
   0 S :    0.345322
   1 C :   -0.151968
   2 C :   -0.053127
   3 C :   -0.068181
   4 C :   -0.176492
   5 H :    0.029924
   6 C :   -0.042704
   7 H :    0.025427
   8 H :    0.039417
   9 C :   -0.041449
  10 H :    0.030157
  11 H :    0.023231
  12 C :   -0.067638
  13 H :    0.029275
  14 H :    0.021753
  15 H :    0.033599
  16 S :    0.419437
  17 C :   -0.167155
  18 C :   -0.064305
  19 C :   -0.054084
  20 C :   -0.219657
  21 H :    0.034834
  22 C :   -0.045145
  23 H :    0.031600
  24 H :    0.028063
  25 C :   -0.047495
  26 H :    0.024343
  27 H :    0.031600
  28 C :   -0.078093
  29 H :    0.034202
  30 H :    0.033039
  31 H :    0.027144
  32 H :    0.008294
  33 H :    0.026831

  Mayer bond orders larger than 0.100000
B(  0-S ,  1-C ) :   1.1237 B(  0-S ,  4-C ) :   1.1148 B(  1-C ,  2-C ) :   1.6150
B(  1-C ,  4-C ) :   0.1014 B(  1-C , 32-H ) :   0.9805 B(  2-C ,  3-C ) :   1.2122
B(  2-C ,  6-C ) :   1.0260 B(  3-C ,  4-C ) :   1.6243 B(  3-C ,  5-H ) :   0.9812
B(  4-C , 20-C ) :   1.0305 B(  6-C ,  7-H ) :   0.9397 B(  6-C ,  8-H ) :   0.9504
B(  6-C ,  9-C ) :   1.0449 B(  9-C , 10-H ) :   0.9551 B(  9-C , 11-H ) :   0.9606
B(  9-C , 12-C ) :   1.0803 B( 12-C , 13-H ) :   0.9699 B( 12-C , 14-H ) :   0.9756
B( 12-C , 15-H ) :   0.9703 B( 16-S , 17-C ) :   1.1422 B( 16-S , 20-C ) :   1.1651
B( 17-C , 18-C ) :   1.5976 B( 17-C , 33-H ) :   0.9737 B( 18-C , 19-C ) :   1.2541
B( 18-C , 21-H ) :   0.9845 B( 19-C , 20-C ) :   1.5640 B( 19-C , 22-C ) :   1.0297
B( 22-C , 23-H ) :   0.9305 B( 22-C , 24-H ) :   0.9319 B( 22-C , 25-C ) :   1.0767
B( 25-C , 26-H ) :   0.9475 B( 25-C , 27-H ) :   0.9531 B( 25-C , 28-C ) :   1.0850
B( 28-C , 29-H ) :   0.9729 B( 28-C , 30-H ) :   0.9682 B( 28-C , 31-H ) :   0.9743

Dispersion correction           -0.013873889
FINAL SINGLE POINT ENERGY     -1339.866627391171

DIPOLE MOMENT
-------------
                                X             Y             Z
Electronic contribution:     20.11760       8.60739      15.02046
Nuclear contribution   :    -20.54298      -8.96433     -15.60157
                        -----------------------------------------
Total Dipole Moment    :     -0.42539      -0.35694      -0.58111
                        -----------------------------------------
Magnitude (a.u.)       :      0.80377
Magnitude (Debye)      :      2.04303

Rotational constants in cm-1:     0.019132     0.007738     0.006479
Rotational constants in MHz :   573.561716   231.989037   194.249129

                             ****ORCA TERMINATED NORMALLY****
TOTAL RUN TIME: 0 days 0 hours 0 minutes 21 seconds 252 msec
