                         Program Version 4.2.1 -  RELEASE  -
|  1> ! wB97X-D3 SP def2-SVP
|  2> %pal
|  3> nprocs 24
|  4> end
|  5>
|  6> * xyz 0 1
|  7> S 	 -32.0215 	 10.3063 	 12.3311
|  8> C 	 -31.7257 	 11.9786 	 11.7296
|  9> C 	 -32.5896 	 12.915 	 12.259
| 10> C 	 -33.4239 	 12.2765 	 13.2251
| 11> C 	 -33.2897 	 10.9251 	 13.3833
| 12> H 	 -34.1907 	 12.7758 	 13.7888
| 13> C 	 -32.6233 	 14.4093 	 12.0432
| 14> H 	 -31.8096 	 14.863 	 11.4036
| 15> H 	 -32.5227 	 14.8769 	 13.0062
| 16> C 	 -33.7929 	 15.0097 	 11.28
| 17> H 	 -33.5927 	 16.1033 	 11.221
| 18> H 	 -33.8497 	 14.638 	 10.2405
| 19> C 	 -35.2624 	 14.8495 	 11.7733
| 20> H 	 -36.0197 	 15.3592 	 11.1911
| 21> H 	 -35.6123 	 13.8771 	 11.5767
| 22> H 	 -35.4076 	 15.0529 	 12.8288
| 23> S 	 -32.947 	 9.77273 	 15.8873
| 24> C 	 -34.2296 	 8.92596 	 16.6238
| 25> C 	 -35.3527 	 8.97659 	 15.8596
| 26> C 	 -35.2084 	 9.65647 	 14.6054
| 27> C 	 -33.8913 	 10.1295 	 14.4395
| 28> H 	 -36.21 	 8.53722 	 16.4123
| 29> C 	 -36.3972 	 9.57162 	 13.7219
| 30> H 	 -36.9864 	 8.67295 	 14.0126
| 31> H 	 -36.0681 	 9.38875 	 12.6641
| 32> C 	 -37.3446 	 10.7878 	 13.8446
| 33> H 	 -36.7341 	 11.6951 	 13.668
| 34> H 	 -37.8341 	 10.8702 	 14.8521
| 35> C 	 -38.5156 	 10.5698 	 12.8377
| 36> H 	 -39.105 	 9.72172 	 12.9164
| 37> H 	 -38.0094 	 10.5951 	 11.8755
| 38> H 	 -39.1513 	 11.4882 	 12.8382
| 39> H 	 -31.0522 	 12.0847 	 10.9282
| 40> H 	 -34.171 	 8.54002 	 17.6343
| 41> *
| 42>
| 43>                          ****END OF INPUT****

CARTESIAN COORDINATES (ANGSTROEM)
---------------------------------
  S    -32.021500   10.306300   12.331100
  C    -31.725700   11.978600   11.729600
  C    -32.589600   12.915000   12.259000
  C    -33.423900   12.276500   13.225100
  C    -33.289700   10.925100   13.383300
  H    -34.190700   12.775800   13.788800
  C    -32.623300   14.409300   12.043200
  H    -31.809600   14.863000   11.403600
  H    -32.522700   14.876900   13.006200
  C    -33.792900   15.009700   11.280000
  H    -33.592700   16.103300   11.221000
  H    -33.849700   14.638000   10.240500
  C    -35.262400   14.849500   11.773300
  H    -36.019700   15.359200   11.191100
  H    -35.612300   13.877100   11.576700
  H    -35.407600   15.052900   12.828800
  S    -32.947000    9.772730   15.887300
  C    -34.229600    8.925960   16.623800
  C    -35.352700    8.976590   15.859600
  C    -35.208400    9.656470   14.605400
  C    -33.891300   10.129500   14.439500
  H    -36.210000    8.537220   16.412300
  C    -36.397200    9.571620   13.721900
  H    -36.986400    8.672950   14.012600
  H    -36.068100    9.388750   12.664100
  C    -37.344600   10.787800   13.844600
  H    -36.734100   11.695100   13.668000
  H    -37.834100   10.870200   14.852100
  C    -38.515600   10.569800   12.837700
  H    -39.105000    9.721720   12.916400
  H    -38.009400   10.595100   11.875500
  H    -39.151300   11.488200   12.838200
  H    -31.052200   12.084700   10.928200
  H    -34.171000    8.540020   17.634300

 Total Charge           Charge          ....    0
 Multiplicity           Mult            ....    1
 Number of Electrons    NEL             ....  134
 Basis Dimension        Dim             ....  322

ORBITAL ENERGIES
----------------

  NO   OCC          E(Eh)            E(eV)
   0   2.0000     -88.964275     -2420.8410
   1   2.0000     -88.960775     -2420.7458
   2   2.0000     -10.327729      -281.0318
   3   2.0000     -10.326646      -281.0023
   4   2.0000     -10.317873      -280.7636
   5   2.0000     -10.308746      -280.5152
   6   2.0000     -10.305797      -280.4350
   7   2.0000     -10.304680      -280.4046
   8   2.0000     -10.300053      -280.2787
   9   2.0000     -10.293871      -280.1105
  10   2.0000     -10.293299      -280.0949
  11   2.0000     -10.293211      -280.0925
  12   2.0000     -10.292090      -280.0620
  13   2.0000     -10.288078      -279.9528
  14   2.0000     -10.274936      -279.5952
  15   2.0000     -10.272438      -279.5273
  16   2.0000      -8.078411      -219.8247
  17   2.0000      -8.076360      -219.7689
  18   2.0000      -6.036881      -164.2719
  19   2.0000      -6.034789      -164.2149
  20   2.0000      -6.033106      -164.1692
  21   2.0000      -6.030647      -164.1022
  22   2.0000      -6.029147      -164.0614
  23   2.0000      -6.027255      -164.0100
  24   2.0000      -1.004917       -27.3452
  25   2.0000      -0.983607       -26.7653
  26   2.0000      -0.911916       -24.8145
  27   2.0000      -0.908993       -24.7349
  28   2.0000      -0.869206       -23.6523
  29   2.0000      -0.849460       -23.1150
  30   2.0000      -0.844416       -22.9777
  31   2.0000      -0.814485       -22.1633
  32   2.0000      -0.790923       -21.5221
  33   2.0000      -0.771622       -20.9969
  34   2.0000      -0.706297       -19.2193
  35   2.0000      -0.702406       -19.1134
  36   2.0000      -0.690764       -18.7966
  37   2.0000      -0.653903       -17.7936
  38   2.0000      -0.647350       -17.6153
  39   2.0000      -0.619334       -16.8529
  40   2.0000      -0.595745       -16.2110
  41   2.0000      -0.574121       -15.6226
  42   2.0000      -0.564345       -15.3566
  43   2.0000      -0.548519       -14.9260
  44   2.0000      -0.533371       -14.5138
  45   2.0000      -0.523350       -14.2411
  46   2.0000      -0.520188       -14.1550
  47   2.0000      -0.514906       -14.0113
  48   2.0000      -0.506623       -13.7859
  49   2.0000      -0.499324       -13.5873
  50   2.0000      -0.493966       -13.4415
  51   2.0000      -0.483390       -13.1537
  52   2.0000      -0.468724       -12.7546
  53   2.0000      -0.463630       -12.6160
  54   2.0000      -0.457630       -12.4528
  55   2.0000      -0.448717       -12.2102
  56   2.0000      -0.439071       -11.9477
  57   2.0000      -0.436685       -11.8828
  58   2.0000      -0.432045       -11.7565
  59   2.0000      -0.421542       -11.4707
  60   2.0000      -0.417773       -11.3682
  61   2.0000      -0.415398       -11.3035
  62   2.0000      -0.408257       -11.1092
  63   2.0000      -0.337127        -9.1737
  64   2.0000      -0.329147        -8.9565
  65   2.0000      -0.323918        -8.8143
  66   2.0000      -0.306512        -8.3406
  67   0.0000       0.040551         1.1034
  68   0.0000       0.059319         1.6141
  69   0.0000       0.115499         3.1429
  70   0.0000       0.119441         3.2502
  71   0.0000       0.122242         3.3264

MULLIKEN ATOMIC CHARGES
-----------------------
   0 S :    0.094261
   1 C :   -0.124925
   2 C :   -0.024596
   3 C :    0.036616
   4 C :   -0.170654
   5 H :    0.006511
   6 C :    0.064155
   7 H :    0.036282
   8 H :    0.035376
   9 C :   -0.107595
  10 H :    0.038332
  11 H :    0.033336
  12 C :   -0.039041
  13 H :    0.023954
  14 H :    0.013937
  15 H :    0.030384
  16 S :    0.114093
  17 C :   -0.102724
  18 C :   -0.064783
  19 C :    0.024545
  20 C :   -0.175088
  21 H :    0.031477
  22 C :    0.026779
  23 H :    0.028415
  24 H :    0.039238
  25 C :   -0.103959
  26 H :    0.039340
  27 H :    0.036847
  28 C :   -0.017747
  29 H :    0.027822
  30 H :    0.021555
  31 H :    0.034243
  32 H :    0.035408
  33 H :    0.058206
Sum of atomic charges:   -0.0000000

LOEWDIN ATOMIC CHARGES
----------------------
   0 S :    0.376942
   1 C :   -0.159126
   2 C :   -0.063331
   3 C :   -0.050922
   4 C :   -0.199393
   5 H :    0.027703
   6 C :   -0.034722
   7 H :    0.045411
   8 H :    0.033346
   9 C :   -0.043002
  10 H :    0.028343
  11 H :    0.028681
  12 C :   -0.075497
  13 H :    0.029487
  14 H :    0.017945
  15 H :    0.020506
  16 S :    0.418847
  17 C :   -0.199168
  18 C :   -0.085994
  19 C :   -0.051628
  20 C :   -0.205321
  21 H :    0.039683
  22 C :   -0.038567
  23 H :    0.035307
  24 H :    0.035948
  25 C :   -0.037498
  26 H :    0.025938
  27 H :    0.026682
  28 C :   -0.062110
  29 H :    0.014827
  30 H :    0.025190
  31 H :    0.030028
  32 H :    0.014563
  33 H :    0.030902

  Mayer bond orders larger than 0.100000
B(  0-S ,  1-C ) :   1.1408 B(  0-S ,  4-C ) :   1.1325 B(  1-C ,  2-C ) :   1.6179
B(  1-C , 32-H ) :   0.9745 B(  2-C ,  3-C ) :   1.2148 B(  2-C ,  6-C ) :   1.0140
B(  3-C ,  4-C ) :   1.6227 B(  3-C ,  5-H ) :   0.9906 B(  4-C , 20-C ) :   1.0223
B(  6-C ,  7-H ) :   0.9435 B(  6-C ,  8-H ) :   0.9390 B(  6-C ,  9-C ) :   1.0750
B(  9-C , 10-H ) :   0.9588 B(  9-C , 11-H ) :   0.9537 B(  9-C , 12-C ) :   1.0820
B( 12-C , 13-H ) :   0.9678 B( 12-C , 14-H ) :   0.9694 B( 12-C , 15-H ) :   0.9755
B( 16-S , 17-C ) :   1.1668 B( 16-S , 20-C ) :   1.1496 B( 17-C , 18-C ) :   1.6294
B( 17-C , 33-H ) :   0.9632 B( 18-C , 19-C ) :   1.2282 B( 18-C , 21-H ) :   0.9828
B( 19-C , 20-C ) :   1.5812 B( 19-C , 22-C ) :   1.0449 B( 22-C , 23-H ) :   0.9383
B( 22-C , 24-H ) :   0.9381 B( 22-C , 25-C ) :   1.0576 B( 25-C , 26-H ) :   0.9565
B( 25-C , 27-H ) :   0.9559 B( 25-C , 28-C ) :   1.0735 B( 28-C , 29-H ) :   0.9770
B( 28-C , 30-H ) :   0.9747 B( 28-C , 31-H ) :   0.9745

Dispersion correction           -0.014466525
FINAL SINGLE POINT ENERGY     -1339.871689217981

DIPOLE MOMENT
-------------
                                X             Y             Z
Electronic contribution:     22.84962     -16.54985      10.13075
Nuclear contribution   :    -23.36240      16.96023     -10.20484
                        -----------------------------------------
Total Dipole Moment    :     -0.51279       0.41038      -0.07409
                        -----------------------------------------
Magnitude (a.u.)       :      0.66095
Magnitude (Debye)      :      1.67999

Rotational constants in cm-1:     0.015946     0.009960     0.007160
Rotational constants in MHz :   478.048510   298.584524   214.646695

                             ****ORCA TERMINATED NORMALLY****
TOTAL RUN TIME: 0 days 0 hours 0 minutes 21 seconds 873 msec
