                         Program Version 4.2.1 -  RELEASE  -
|  1> ! wB97X-D3 SP def2-SVP
|  2> %pal
|  3> nprocs 24
|  4> end
|  5>
|  6> * xyz 0 1
|  7> S 	 -102.097 	 -3.31196 	 -121.577
|  8> C 	 -102.694 	 -3.18828 	 -123.3
|  9> C 	 -102.801 	 -1.85934 	 -123.723
| 10> C 	 -102.35 	 -0.965641 	 -122.655
| 11> C 	 -101.957 	 -1.59098 	 -121.441
| 12> H 	 -102.315 	 0.103515 	 -122.694
| 13> C 	 -103.383 	 -1.29866 	 -125.041
| 14> H 	 -102.919 	 -1.8986 	 -125.822
| 15> H 	 -102.861 	 -0.321677 	 -125.196
| 16> C 	 -104.932 	 -1.0704 	 -124.974
| 17> H 	 -105.395 	 -2.07739 	 -124.953
| 18> H 	 -105.266 	 -0.636466 	 -123.993
| 19> C 	 -105.593 	 -0.327402 	 -126.057
| 20> H 	 -105.483 	 -0.819014 	 -127.047
| 21> H 	 -106.685 	 -0.147681 	 -125.921
| 22> H 	 -105.062 	 0.583715 	 -126.224
| 23> S 	 -102.439 	 -1.16612 	 -118.794
| 24> C 	 -101.635 	 0.0841044 	 -117.964
| 25> C 	 -100.479 	 0.471561 	 -118.579
| 26> C 	 -100.476 	 -0.0392183 	 -119.932
| 27> C 	 -101.514 	 -0.896833 	 -120.176
| 28> H 	 -99.7932 	 1.23393 	 -118.197
| 29> C 	 -99.4146 	 0.441746 	 -120.923
| 30> H 	 -99.3683 	 -0.175841 	 -121.882
| 31> H 	 -98.5054 	 0.284 	 -120.389
| 32> C 	 -99.5747 	 1.87569 	 -121.478
| 33> H 	 -100.276 	 2.49149 	 -120.992
| 34> H 	 -100.029 	 1.94734 	 -122.446
| 35> C 	 -98.18 	 2.53766 	 -121.648
| 36> H 	 -97.4808 	 1.96314 	 -122.209
| 37> H 	 -97.6596 	 2.92949 	 -120.799
| 38> H 	 -98.2039 	 3.39608 	 -122.305
| 39> H 	 -102.996 	 -4.05014 	 -123.858
| 40> H 	 -101.842 	 0.384131 	 -116.913
| 41> *
| 42>
| 43>                          ****END OF INPUT****

CARTESIAN COORDINATES (ANGSTROEM)
---------------------------------
  S    -102.097000   -3.311960  -121.577000
  C    -102.694000   -3.188280  -123.300000
  C    -102.801000   -1.859340  -123.723000
  C    -102.350000   -0.965641  -122.655000
  C    -101.957000   -1.590980  -121.441000
  H    -102.315000    0.103515  -122.694000
  C    -103.383000   -1.298660  -125.041000
  H    -102.919000   -1.898600  -125.822000
  H    -102.861000   -0.321677  -125.196000
  C    -104.932000   -1.070400  -124.974000
  H    -105.395000   -2.077390  -124.953000
  H    -105.266000   -0.636466  -123.993000
  C    -105.593000   -0.327402  -126.057000
  H    -105.483000   -0.819014  -127.047000
  H    -106.685000   -0.147681  -125.921000
  H    -105.062000    0.583715  -126.224000
  S    -102.439000   -1.166120  -118.794000
  C    -101.635000    0.084104  -117.964000
  C    -100.479000    0.471561  -118.579000
  C    -100.476000   -0.039218  -119.932000
  C    -101.514000   -0.896833  -120.176000
  H    -99.793200    1.233930  -118.197000
  C    -99.414600    0.441746  -120.923000
  H    -99.368300   -0.175841  -121.882000
  H    -98.505400    0.284000  -120.389000
  C    -99.574700    1.875690  -121.478000
  H    -100.276000    2.491490  -120.992000
  H    -100.029000    1.947340  -122.446000
  C    -98.180000    2.537660  -121.648000
  H    -97.480800    1.963140  -122.209000
  H    -97.659600    2.929490  -120.799000
  H    -98.203900    3.396080  -122.305000
  H    -102.996000   -4.050140  -123.858000
  H    -101.842000    0.384131  -116.913000

 Total Charge           Charge          ....    0
 Multiplicity           Mult            ....    1
 Number of Electrons    NEL             ....  134
 Basis Dimension        Dim             ....  322

ORBITAL ENERGIES
----------------

  NO   OCC          E(Eh)            E(eV)
   0   2.0000     -88.967261     -2420.9222
   1   2.0000     -88.963793     -2420.8279
   2   2.0000     -10.335012      -281.2300
   3   2.0000     -10.321486      -280.8619
   4   2.0000     -10.320658      -280.8394
   5   2.0000     -10.314976      -280.6848
   6   2.0000     -10.311495      -280.5900
   7   2.0000     -10.304855      -280.4094
   8   2.0000     -10.301259      -280.3115
   9   2.0000     -10.296566      -280.1838
  10   2.0000     -10.294260      -280.1211
  11   2.0000     -10.292955      -280.0856
  12   2.0000     -10.292732      -280.0795
  13   2.0000     -10.283398      -279.8255
  14   2.0000     -10.277727      -279.6712
  15   2.0000     -10.271652      -279.5059
  16   2.0000      -8.080971      -219.8944
  17   2.0000      -8.080911      -219.8928
  18   2.0000      -6.039596      -164.3458
  19   2.0000      -6.039256      -164.3365
  20   2.0000      -6.035606      -164.2372
  21   2.0000      -6.035137      -164.2244
  22   2.0000      -6.031696      -164.1308
  23   2.0000      -6.031633      -164.1291
  24   2.0000      -1.013988       -27.5920
  25   2.0000      -0.976553       -26.5734
  26   2.0000      -0.909242       -24.7417
  27   2.0000      -0.905533       -24.6408
  28   2.0000      -0.868160       -23.6238
  29   2.0000      -0.851697       -23.1759
  30   2.0000      -0.844686       -22.9851
  31   2.0000      -0.809786       -22.0354
  32   2.0000      -0.783019       -21.3070
  33   2.0000      -0.773868       -21.0580
  34   2.0000      -0.715087       -19.4585
  35   2.0000      -0.699960       -19.0469
  36   2.0000      -0.689403       -18.7596
  37   2.0000      -0.663387       -18.0517
  38   2.0000      -0.639830       -17.4107
  39   2.0000      -0.613064       -16.6823
  40   2.0000      -0.596009       -16.2182
  41   2.0000      -0.565600       -15.3907
  42   2.0000      -0.556586       -15.1455
  43   2.0000      -0.548041       -14.9130
  44   2.0000      -0.532769       -14.4974
  45   2.0000      -0.525398       -14.2968
  46   2.0000      -0.518959       -14.1216
  47   2.0000      -0.510056       -13.8793
  48   2.0000      -0.508479       -13.8364
  49   2.0000      -0.503784       -13.7087
  50   2.0000      -0.493079       -13.4174
  51   2.0000      -0.477052       -12.9812
  52   2.0000      -0.466052       -12.6819
  53   2.0000      -0.460243       -12.5238
  54   2.0000      -0.457081       -12.4378
  55   2.0000      -0.454888       -12.3781
  56   2.0000      -0.447311       -12.1720
  57   2.0000      -0.440770       -11.9940
  58   2.0000      -0.436014       -11.8645
  59   2.0000      -0.424061       -11.5393
  60   2.0000      -0.418709       -11.3937
  61   2.0000      -0.406973       -11.0743
  62   2.0000      -0.406334       -11.0569
  63   2.0000      -0.343465        -9.3462
  64   2.0000      -0.331635        -9.0242
  65   2.0000      -0.325425        -8.8553
  66   2.0000      -0.298884        -8.1331
  67   0.0000       0.041075         1.1177
  68   0.0000       0.065844         1.7917
  69   0.0000       0.107201         2.9171
  70   0.0000       0.121088         3.2950
  71   0.0000       0.126970         3.4550

MULLIKEN ATOMIC CHARGES
-----------------------
   0 S :    0.099725
   1 C :   -0.131805
   2 C :   -0.091960
   3 C :    0.034374
   4 C :   -0.148474
   5 H :   -0.000355
   6 C :    0.069526
   7 H :    0.035137
   8 H :    0.020996
   9 C :   -0.072525
  10 H :    0.027786
  11 H :    0.042577
  12 C :   -0.032841
  13 H :    0.023503
  14 H :    0.050242
  15 H :    0.015240
  16 S :    0.128462
  17 C :   -0.104381
  18 C :   -0.029137
  19 C :   -0.061909
  20 C :   -0.162208
  21 H :    0.030853
  22 C :    0.055529
  23 H :    0.047903
  24 H :    0.032910
  25 C :   -0.023131
  26 H :    0.013445
  27 H :    0.016230
  28 C :   -0.052911
  29 H :    0.018311
  30 H :    0.029348
  31 H :    0.008270
  32 H :    0.044361
  33 H :    0.066910
Sum of atomic charges:    0.0000000

LOEWDIN ATOMIC CHARGES
----------------------
   0 S :    0.383450
   1 C :   -0.177127
   2 C :   -0.055144
   3 C :   -0.066886
   4 C :   -0.197158
   5 H :    0.023207
   6 C :   -0.032006
   7 H :    0.033544
   8 H :    0.032235
   9 C :   -0.048772
  10 H :    0.027479
  11 H :    0.035256
  12 C :   -0.072692
  13 H :    0.027013
  14 H :    0.036363
  15 H :    0.018570
  16 S :    0.450117
  17 C :   -0.200832
  18 C :   -0.072310
  19 C :   -0.057120
  20 C :   -0.227317
  21 H :    0.036554
  22 C :   -0.031447
  23 H :    0.043587
  24 H :    0.029541
  25 C :   -0.037639
  26 H :    0.017318
  27 H :    0.024966
  28 C :   -0.067733
  29 H :    0.021965
  30 H :    0.020562
  31 H :    0.024013
  32 H :    0.022518
  33 H :    0.035926

  Mayer bond orders larger than 0.100000
B(  0-S ,  1-C ) :   1.1236 B(  0-S ,  4-C ) :   1.1602 B(  1-C ,  2-C ) :   1.6193
B(  1-C , 32-H ) :   0.9748 B(  2-C ,  3-C ) :   1.2285 B(  2-C ,  6-C ) :   1.0169
B(  3-C ,  4-C ) :   1.5889 B(  3-C ,  5-H ) :   0.9936 B(  4-C , 20-C ) :   0.9861
B(  6-C ,  7-H ) :   0.9418 B(  6-C ,  8-H ) :   0.9412 B(  6-C ,  9-C ) :   1.0392
B(  9-C , 10-H ) :   0.9519 B(  9-C , 11-H ) :   0.9566 B(  9-C , 12-C ) :   1.0971
B( 12-C , 13-H ) :   0.9689 B( 12-C , 14-H ) :   0.9706 B( 12-C , 15-H ) :   0.9701
B( 16-S , 17-C ) :   1.1787 B( 16-S , 20-C ) :   1.1527 B( 17-C , 18-C ) :   1.6070
B( 17-C , 33-H ) :   0.9605 B( 18-C , 19-C ) :   1.2339 B( 18-C , 21-H ) :   0.9881
B( 19-C , 20-C ) :   1.6282 B( 19-C , 22-C ) :   1.0431 B( 22-C , 23-H ) :   0.9349
B( 22-C , 24-H ) :   0.9498 B( 22-C , 25-C ) :   1.0326 B( 25-C , 26-H ) :   0.9638
B( 25-C , 27-H ) :   0.9539 B( 25-C , 28-C ) :   1.0733 B( 28-C , 29-H ) :   0.9742
B( 28-C , 30-H ) :   0.9796 B( 28-C , 31-H ) :   0.9699

Dispersion correction           -0.013758531
FINAL SINGLE POINT ENERGY     -1339.861199236144

DIPOLE MOMENT
-------------
                                X             Y             Z
Electronic contribution:     -2.04854     -18.45626      21.40558
Nuclear contribution   :      2.09501      18.99833     -21.79970
                        -----------------------------------------
Total Dipole Moment    :      0.04647       0.54207      -0.39413
                        -----------------------------------------
Magnitude (a.u.)       :      0.67181
Magnitude (Debye)      :      1.70762

Rotational constants in cm-1:     0.016935     0.007946     0.006440
Rotational constants in MHz :   507.710979   238.223550   193.072480

                             ****ORCA TERMINATED NORMALLY****
TOTAL RUN TIME: 0 days 0 hours 0 minutes 20 seconds 758 msec
