                         Program Version 4.2.1 -  RELEASE  -
|  1> ! wB97X-D3 SP def2-SVP
|  2> %pal
|  3> nprocs 24
|  4> end
|  5>
|  6> * xyz 0 1
|  7> S 	 28.2597 	 -6.63251 	 -119.097
|  8> C 	 27.3923 	 -8.19669 	 -118.824
|  9> C 	 27.7161 	 -9.08821 	 -119.876
| 10> C 	 28.9939 	 -8.68451 	 -120.43
| 11> C 	 29.4604 	 -7.39046 	 -120.17
| 12> H 	 29.5405 	 -9.35406 	 -121.044
| 13> C 	 27.2419 	 -10.5377 	 -120.036
| 14> H 	 27.0188 	 -10.989 	 -119.097
| 15> H 	 28.1299 	 -11.1422 	 -120.382
| 16> C 	 25.9691 	 -10.6887 	 -120.876
| 17> H 	 26.2202 	 -10.397 	 -121.866
| 18> H 	 25.6961 	 -11.7776 	 -120.955
| 19> C 	 24.7977 	 -9.92349 	 -120.257
| 20> H 	 25.001 	 -8.84423 	 -120.044
| 21> H 	 23.9113 	 -9.97245 	 -120.9
| 22> H 	 24.4921 	 -10.2955 	 -119.282
| 23> S 	 30.6109 	 -5.85892 	 -122.033
| 24> C 	 32.1257 	 -5.04897 	 -121.592
| 25> C 	 32.7854 	 -5.62069 	 -120.569
| 26> C 	 31.9269 	 -6.57404 	 -119.946
| 27> C 	 30.7573 	 -6.8204 	 -120.582
| 28> H 	 33.7546 	 -5.35156 	 -120.202
| 29> C 	 32.1806 	 -7.17127 	 -118.606
| 30> H 	 32.1145 	 -8.20756 	 -118.68
| 31> H 	 31.3857 	 -6.77841 	 -117.969
| 32> C 	 33.4609 	 -6.79134 	 -117.954
| 33> H 	 33.5097 	 -5.67782 	 -117.915
| 34> H 	 34.4009 	 -7.16813 	 -118.394
| 35> C 	 33.515 	 -7.33473 	 -116.484
| 36> H 	 34.4298 	 -6.97511 	 -115.956
| 37> H 	 33.4903 	 -8.42067 	 -116.392
| 38> H 	 32.7288 	 -6.88621 	 -115.843
| 39> H 	 26.555 	 -8.31378 	 -118.109
| 40> H 	 32.5661 	 -4.2884 	 -122.257
| 41> *
| 42>
| 43>                          ****END OF INPUT****

CARTESIAN COORDINATES (ANGSTROEM)
---------------------------------
  S     28.259700   -6.632510  -119.097000
  C     27.392300   -8.196690  -118.824000
  C     27.716100   -9.088210  -119.876000
  C     28.993900   -8.684510  -120.430000
  C     29.460400   -7.390460  -120.170000
  H     29.540500   -9.354060  -121.044000
  C     27.241900  -10.537700  -120.036000
  H     27.018800  -10.989000  -119.097000
  H     28.129900  -11.142200  -120.382000
  C     25.969100  -10.688700  -120.876000
  H     26.220200  -10.397000  -121.866000
  H     25.696100  -11.777600  -120.955000
  C     24.797700   -9.923490  -120.257000
  H     25.001000   -8.844230  -120.044000
  H     23.911300   -9.972450  -120.900000
  H     24.492100  -10.295500  -119.282000
  S     30.610900   -5.858920  -122.033000
  C     32.125700   -5.048970  -121.592000
  C     32.785400   -5.620690  -120.569000
  C     31.926900   -6.574040  -119.946000
  C     30.757300   -6.820400  -120.582000
  H     33.754600   -5.351560  -120.202000
  C     32.180600   -7.171270  -118.606000
  H     32.114500   -8.207560  -118.680000
  H     31.385700   -6.778410  -117.969000
  C     33.460900   -6.791340  -117.954000
  H     33.509700   -5.677820  -117.915000
  H     34.400900   -7.168130  -118.394000
  C     33.515000   -7.334730  -116.484000
  H     34.429800   -6.975110  -115.956000
  H     33.490300   -8.420670  -116.392000
  H     32.728800   -6.886210  -115.843000
  H     26.555000   -8.313780  -118.109000
  H     32.566100   -4.288400  -122.257000

 Total Charge           Charge          ....    0
 Multiplicity           Mult            ....    1
 Number of Electrons    NEL             ....  134
 Basis Dimension        Dim             ....  322

ORBITAL ENERGIES
----------------

  NO   OCC          E(Eh)            E(eV)
   0   2.0000     -88.965443     -2420.8728
   1   2.0000     -88.960177     -2420.7295
   2   2.0000     -10.332391      -281.1587
   3   2.0000     -10.328638      -281.0565
   4   2.0000     -10.318695      -280.7860
   5   2.0000     -10.317556      -280.7550
   6   2.0000     -10.308762      -280.5157
   7   2.0000     -10.297425      -280.2072
   8   2.0000     -10.295236      -280.1476
   9   2.0000     -10.294885      -280.1381
  10   2.0000     -10.291891      -280.0566
  11   2.0000     -10.289606      -279.9944
  12   2.0000     -10.288839      -279.9735
  13   2.0000     -10.281930      -279.7856
  14   2.0000     -10.279625      -279.7228
  15   2.0000     -10.277828      -279.6739
  16   2.0000      -8.078532      -219.8280
  17   2.0000      -8.075246      -219.7386
  18   2.0000      -6.037264      -164.2823
  19   2.0000      -6.033727      -164.1860
  20   2.0000      -6.033260      -164.1734
  21   2.0000      -6.029809      -164.0794
  22   2.0000      -6.029139      -164.0612
  23   2.0000      -6.025900      -163.9731
  24   2.0000      -1.006060       -27.3763
  25   2.0000      -0.977237       -26.5920
  26   2.0000      -0.915090       -24.9009
  27   2.0000      -0.910341       -24.7716
  28   2.0000      -0.868164       -23.6239
  29   2.0000      -0.846345       -23.0302
  30   2.0000      -0.839999       -22.8575
  31   2.0000      -0.811865       -22.0920
  32   2.0000      -0.780833       -21.2475
  33   2.0000      -0.770667       -20.9709
  34   2.0000      -0.704735       -19.1768
  35   2.0000      -0.700369       -19.0580
  36   2.0000      -0.694136       -18.8884
  37   2.0000      -0.655831       -17.8461
  38   2.0000      -0.637718       -17.3532
  39   2.0000      -0.617170       -16.7941
  40   2.0000      -0.601882       -16.3780
  41   2.0000      -0.581256       -15.8168
  42   2.0000      -0.571288       -15.5455
  43   2.0000      -0.546982       -14.8841
  44   2.0000      -0.540579       -14.7099
  45   2.0000      -0.521996       -14.2042
  46   2.0000      -0.512691       -13.9510
  47   2.0000      -0.511638       -13.9224
  48   2.0000      -0.501391       -13.6435
  49   2.0000      -0.491238       -13.3673
  50   2.0000      -0.481933       -13.1141
  51   2.0000      -0.477348       -12.9893
  52   2.0000      -0.470958       -12.8154
  53   2.0000      -0.461612       -12.5611
  54   2.0000      -0.458051       -12.4642
  55   2.0000      -0.452059       -12.3012
  56   2.0000      -0.440704       -11.9922
  57   2.0000      -0.435159       -11.8413
  58   2.0000      -0.428873       -11.6702
  59   2.0000      -0.427644       -11.6368
  60   2.0000      -0.422542       -11.4979
  61   2.0000      -0.412542       -11.2258
  62   2.0000      -0.411205       -11.1894
  63   2.0000      -0.337483        -9.1834
  64   2.0000      -0.327595        -8.9143
  65   2.0000      -0.315045        -8.5728
  66   2.0000      -0.310629        -8.4527
  67   0.0000       0.035061         0.9540
  68   0.0000       0.049773         1.3544
  69   0.0000       0.108711         2.9582
  70   0.0000       0.115860         3.1527
  71   0.0000       0.120665         3.2835

MULLIKEN ATOMIC CHARGES
-----------------------
   0 S :    0.099481
   1 C :   -0.140936
   2 C :   -0.051738
   3 C :    0.017364
   4 C :   -0.126282
   5 H :   -0.000154
   6 C :    0.016000
   7 H :    0.020462
   8 H :    0.036441
   9 C :   -0.039399
  10 H :    0.023665
  11 H :    0.036909
  12 C :   -0.073904
  13 H :    0.044453
  14 H :    0.039223
  15 H :    0.019516
  16 S :    0.095282
  17 C :   -0.082642
  18 C :   -0.012190
  19 C :   -0.074131
  20 C :   -0.172083
  21 H :    0.016163
  22 C :    0.143427
  23 H :    0.017768
  24 H :    0.032636
  25 C :   -0.126685
  26 H :    0.035422
  27 H :    0.037481
  28 C :   -0.063385
  29 H :    0.030131
  30 H :    0.039035
  31 H :    0.031004
  32 H :    0.072087
  33 H :    0.059579
Sum of atomic charges:    0.0000000

LOEWDIN ATOMIC CHARGES
----------------------
   0 S :    0.367475
   1 C :   -0.171399
   2 C :   -0.062763
   3 C :   -0.052812
   4 C :   -0.198889
   5 H :    0.021402
   6 C :   -0.034857
   7 H :    0.024662
   8 H :    0.036345
   9 C :   -0.038327
  10 H :    0.018406
  11 H :    0.031295
  12 C :   -0.072433
  13 H :    0.030009
  14 H :    0.028803
  15 H :    0.021345
  16 S :    0.394685
  17 C :   -0.161048
  18 C :   -0.071277
  19 C :   -0.045757
  20 C :   -0.209174
  21 H :    0.033163
  22 C :   -0.030780
  23 H :    0.026841
  24 H :    0.040876
  25 C :   -0.046477
  26 H :    0.027052
  27 H :    0.024832
  28 C :   -0.070023
  29 H :    0.027811
  30 H :    0.023729
  31 H :    0.025479
  32 H :    0.032461
  33 H :    0.029345

  Mayer bond orders larger than 0.100000
B(  0-S ,  1-C ) :   1.1455 B(  0-S ,  4-C ) :   1.1048 B(  1-C ,  2-C ) :   1.5834
B(  1-C ,  4-C ) :   0.1010 B(  1-C , 32-H ) :   0.9631 B(  2-C ,  3-C ) :   1.2281
B(  2-C ,  6-C ) :   1.0149 B(  3-C ,  4-C ) :   1.6102 B(  3-C ,  5-H ) :   0.9899
B(  4-C , 20-C ) :   1.0168 B(  6-C ,  7-H ) :   0.9512 B(  6-C ,  8-H ) :   0.9530
B(  6-C ,  9-C ) :   1.0592 B(  9-C , 10-H ) :   0.9567 B(  9-C , 11-H ) :   0.9546
B(  9-C , 12-C ) :   1.0745 B( 12-C , 13-H ) :   0.9695 B( 12-C , 14-H ) :   0.9734
B( 12-C , 15-H ) :   0.9737 B( 16-S , 17-C ) :   1.1642 B( 16-S , 20-C ) :   1.1210
B( 17-C , 18-C ) :   1.6099 B( 17-C , 33-H ) :   0.9556 B( 18-C , 19-C ) :   1.2246
B( 18-C , 21-H ) :   0.9952 B( 19-C , 20-C ) :   1.6605 B( 19-C , 22-C ) :   1.0252
B( 22-C , 23-H ) :   0.9227 B( 22-C , 24-H ) :   0.9165 B( 22-C , 25-C ) :   1.0972
B( 25-C , 26-H ) :   0.9447 B( 25-C , 27-H ) :   0.9509 B( 25-C , 28-C ) :   1.0844
B( 28-C , 29-H ) :   0.9740 B( 28-C , 30-H ) :   0.9762 B( 28-C , 31-H ) :   0.9744

Dispersion correction           -0.013972832
FINAL SINGLE POINT ENERGY     -1339.860169938469

DIPOLE MOMENT
-------------
                                X             Y             Z
Electronic contribution:      0.78807      14.91608     -11.92450
Nuclear contribution   :     -0.58019     -15.33294      12.20836
                        -----------------------------------------
Total Dipole Moment    :      0.20788      -0.41686       0.28386
                        -----------------------------------------
Magnitude (a.u.)       :      0.54549
Magnitude (Debye)      :      1.38653

Rotational constants in cm-1:     0.021841     0.007352     0.006232
Rotational constants in MHz :   654.765527   220.395011   186.833963

                             ****ORCA TERMINATED NORMALLY****
TOTAL RUN TIME: 0 days 0 hours 0 minutes 21 seconds 134 msec
