                         Program Version 4.2.1 -  RELEASE  -
|  1> ! wB97X-D3 SP def2-SVP
|  2> %pal
|  3> nprocs 24
|  4> end
|  5>
|  6> * xyz 0 1
|  7> S 	 -118.448 	 24.6563 	 -17.9218
|  8> C 	 -117.355 	 23.9356 	 -19.0514
|  9> C 	 -116.701 	 24.8787 	 -19.7685
| 10> C 	 -117.167 	 26.2238 	 -19.4607
| 11> C 	 -118.16 	 26.2442 	 -18.4923
| 12> H 	 -116.882 	 27.2119 	 -19.8168
| 13> C 	 -115.56 	 24.6254 	 -20.7648
| 14> H 	 -115.57 	 25.436 	 -21.3961
| 15> H 	 -115.943 	 23.7858 	 -21.3507
| 16> C 	 -114.173 	 24.4802 	 -20.2049
| 17> H 	 -113.952 	 25.3688 	 -19.5663
| 18> H 	 -114.313 	 23.6777 	 -19.4263
| 19> C 	 -113.009 	 24.4179 	 -21.188
| 20> H 	 -112.11 	 24.2321 	 -20.6161
| 21> H 	 -113.137 	 23.6038 	 -21.9243
| 22> H 	 -113.026 	 25.3192 	 -21.7586
| 23> S 	 -118.924 	 27.4375 	 -16.1351
| 24> C 	 -119.679 	 29.0157 	 -16.287
| 25> C 	 -119.908 	 29.4396 	 -17.5522
| 26> C 	 -119.381 	 28.5102 	 -18.4598
| 27> C 	 -118.895 	 27.3551 	 -17.9186
| 28> H 	 -120.4 	 30.3794 	 -17.7793
| 29> C 	 -119.34 	 28.8201 	 -19.9903
| 30> H 	 -118.321 	 28.8324 	 -20.3283
| 31> H 	 -119.718 	 29.8132 	 -20.088
| 32> C 	 -120.254 	 27.919 	 -20.8592
| 33> H 	 -120.574 	 28.4432 	 -21.7407
| 34> H 	 -121.268 	 27.6796 	 -20.4062
| 35> C 	 -119.702 	 26.5418 	 -21.2834
| 36> H 	 -120.286 	 26.1907 	 -22.1417
| 37> H 	 -119.81 	 25.7069 	 -20.613
| 38> H 	 -118.65 	 26.6892 	 -21.6735
| 39> H 	 -117.203 	 22.8648 	 -19.2201
| 40> H 	 -120.068 	 29.6306 	 -15.4626
| 41> *
| 42>
| 43>                          ****END OF INPUT****

CARTESIAN COORDINATES (ANGSTROEM)
---------------------------------
  S    -118.448000   24.656300  -17.921800
  C    -117.355000   23.935600  -19.051400
  C    -116.701000   24.878700  -19.768500
  C    -117.167000   26.223800  -19.460700
  C    -118.160000   26.244200  -18.492300
  H    -116.882000   27.211900  -19.816800
  C    -115.560000   24.625400  -20.764800
  H    -115.570000   25.436000  -21.396100
  H    -115.943000   23.785800  -21.350700
  C    -114.173000   24.480200  -20.204900
  H    -113.952000   25.368800  -19.566300
  H    -114.313000   23.677700  -19.426300
  C    -113.009000   24.417900  -21.188000
  H    -112.110000   24.232100  -20.616100
  H    -113.137000   23.603800  -21.924300
  H    -113.026000   25.319200  -21.758600
  S    -118.924000   27.437500  -16.135100
  C    -119.679000   29.015700  -16.287000
  C    -119.908000   29.439600  -17.552200
  C    -119.381000   28.510200  -18.459800
  C    -118.895000   27.355100  -17.918600
  H    -120.400000   30.379400  -17.779300
  C    -119.340000   28.820100  -19.990300
  H    -118.321000   28.832400  -20.328300
  H    -119.718000   29.813200  -20.088000
  C    -120.254000   27.919000  -20.859200
  H    -120.574000   28.443200  -21.740700
  H    -121.268000   27.679600  -20.406200
  C    -119.702000   26.541800  -21.283400
  H    -120.286000   26.190700  -22.141700
  H    -119.810000   25.706900  -20.613000
  H    -118.650000   26.689200  -21.673500
  H    -117.203000   22.864800  -19.220100
  H    -120.068000   29.630600  -15.462600

 Total Charge           Charge          ....    0
 Multiplicity           Mult            ....    1
 Number of Electrons    NEL             ....  134
 Basis Dimension        Dim             ....  322

ORBITAL ENERGIES
----------------

  NO   OCC          E(Eh)            E(eV)
   0   2.0000     -88.966992     -2420.9149
   1   2.0000     -88.962894     -2420.8034
   2   2.0000     -10.323887      -280.9272
   3   2.0000     -10.323468      -280.9158
   4   2.0000     -10.316358      -280.7224
   5   2.0000     -10.310051      -280.5507
   6   2.0000     -10.300964      -280.3035
   7   2.0000     -10.300260      -280.2843
   8   2.0000     -10.293229      -280.0930
   9   2.0000     -10.292457      -280.0720
  10   2.0000     -10.290442      -280.0172
  11   2.0000     -10.288136      -279.9544
  12   2.0000     -10.287024      -279.9242
  13   2.0000     -10.283018      -279.8151
  14   2.0000     -10.280258      -279.7400
  15   2.0000     -10.271655      -279.5059
  16   2.0000      -8.081255      -219.9021
  17   2.0000      -8.078607      -219.8301
  18   2.0000      -6.039791      -164.3511
  19   2.0000      -6.037089      -164.2776
  20   2.0000      -6.036036      -164.2489
  21   2.0000      -6.032880      -164.1630
  22   2.0000      -6.031801      -164.1337
  23   2.0000      -6.029440      -164.0694
  24   2.0000      -1.011415       -27.5220
  25   2.0000      -0.988450       -26.8971
  26   2.0000      -0.915201       -24.9039
  27   2.0000      -0.900365       -24.5002
  28   2.0000      -0.874368       -23.7928
  29   2.0000      -0.846688       -23.0396
  30   2.0000      -0.845886       -23.0177
  31   2.0000      -0.816858       -22.2278
  32   2.0000      -0.786822       -21.4105
  33   2.0000      -0.775648       -21.1065
  34   2.0000      -0.705142       -19.1879
  35   2.0000      -0.699226       -19.0269
  36   2.0000      -0.688107       -18.7243
  37   2.0000      -0.666119       -18.1260
  38   2.0000      -0.642361       -17.4795
  39   2.0000      -0.612086       -16.6557
  40   2.0000      -0.591886       -16.1060
  41   2.0000      -0.574965       -15.6456
  42   2.0000      -0.559915       -15.2361
  43   2.0000      -0.543285       -14.7835
  44   2.0000      -0.536407       -14.5964
  45   2.0000      -0.531521       -14.4634
  46   2.0000      -0.518796       -14.1172
  47   2.0000      -0.508161       -13.8278
  48   2.0000      -0.506560       -13.7842
  49   2.0000      -0.501210       -13.6386
  50   2.0000      -0.497116       -13.5272
  51   2.0000      -0.478578       -13.0228
  52   2.0000      -0.470493       -12.8028
  53   2.0000      -0.468823       -12.7573
  54   2.0000      -0.460766       -12.5381
  55   2.0000      -0.449136       -12.2216
  56   2.0000      -0.443113       -12.0577
  57   2.0000      -0.437587       -11.9073
  58   2.0000      -0.426552       -11.6071
  59   2.0000      -0.422361       -11.4930
  60   2.0000      -0.417817       -11.3694
  61   2.0000      -0.406536       -11.0624
  62   2.0000      -0.402516       -10.9530
  63   2.0000      -0.353425        -9.6172
  64   2.0000      -0.336051        -9.1444
  65   2.0000      -0.327339        -8.9074
  66   2.0000      -0.289710        -7.8834
  67   0.0000       0.032242         0.8774
  68   0.0000       0.072221         1.9652
  69   0.0000       0.108304         2.9471
  70   0.0000       0.124313         3.3827
  71   0.0000       0.136920         3.7258

MULLIKEN ATOMIC CHARGES
-----------------------
   0 S :    0.105271
   1 C :   -0.121511
   2 C :   -0.121565
   3 C :    0.042079
   4 C :   -0.182143
   5 H :    0.003076
   6 C :    0.128689
   7 H :   -0.020413
   8 H :    0.023226
   9 C :   -0.097176
  10 H :    0.027324
  11 H :    0.023258
  12 C :   -0.003435
  13 H :    0.045477
  14 H :    0.026837
  15 H :    0.028992
  16 S :    0.104765
  17 C :   -0.078891
  18 C :   -0.040416
  19 C :   -0.062019
  20 C :   -0.123457
  21 H :    0.021203
  22 C :    0.115582
  23 H :    0.027772
  24 H :   -0.000408
  25 C :   -0.081949
  26 H :    0.020734
  27 H :    0.032123
  28 C :   -0.040594
  29 H :    0.017448
  30 H :    0.044221
  31 H :    0.030437
  32 H :    0.050329
  33 H :    0.055131
Sum of atomic charges:    0.0000000

LOEWDIN ATOMIC CHARGES
----------------------
   0 S :    0.423238
   1 C :   -0.209002
   2 C :   -0.058705
   3 C :   -0.063599
   4 C :   -0.203765
   5 H :    0.028246
   6 C :   -0.029107
   7 H :    0.012840
   8 H :    0.031640
   9 C :   -0.050317
  10 H :    0.029598
  11 H :    0.025157
  12 C :   -0.057571
  13 H :    0.032054
  14 H :    0.025421
  15 H :    0.024523
  16 S :    0.387546
  17 C :   -0.175494
  18 C :   -0.075396
  19 C :   -0.052098
  20 C :   -0.190995
  21 H :    0.037079
  22 C :   -0.021898
  23 H :    0.025440
  24 H :    0.025787
  25 C :   -0.044551
  26 H :    0.020338
  27 H :    0.033546
  28 C :   -0.069687
  29 H :    0.023979
  30 H :    0.022212
  31 H :    0.026176
  32 H :    0.034801
  33 H :    0.032562

  Mayer bond orders larger than 0.100000
B(  0-S ,  1-C ) :   1.1268 B(  0-S ,  4-C ) :   1.1631 B(  1-C ,  2-C ) :   1.6351
B(  1-C , 32-H ) :   0.9679 B(  2-C ,  3-C ) :   1.2187 B(  2-C ,  6-C ) :   1.0151
B(  3-C ,  4-C ) :   1.5809 B(  3-C ,  5-H ) :   0.9952 B(  4-C , 20-C ) :   1.0267
B(  6-C ,  7-H ) :   0.9252 B(  6-C ,  8-H ) :   0.9340 B(  6-C ,  9-C ) :   1.0686
B(  9-C , 10-H ) :   0.9510 B(  9-C , 11-H ) :   0.9551 B(  9-C , 12-C ) :   1.0715
B( 12-C , 13-H ) :   0.9734 B( 12-C , 14-H ) :   0.9764 B( 12-C , 15-H ) :   0.9714
B( 16-S , 17-C ) :   1.1497 B( 16-S , 20-C ) :   1.1148 B( 17-C , 18-C ) :   1.6398
B( 17-C , 33-H ) :   0.9548 B( 18-C , 19-C ) :   1.2399 B( 18-C , 21-H ) :   0.9884
B( 19-C , 20-C ) :   1.6427 B( 19-C , 22-C ) :   1.0211 B( 22-C , 23-H ) :   0.9417
B( 22-C , 24-H ) :   0.9250 B( 22-C , 25-C ) :   1.0674 B( 25-C , 26-H ) :   0.9601
B( 25-C , 27-H ) :   0.9531 B( 25-C , 28-C ) :   1.0869 B( 28-C , 29-H ) :   0.9673
B( 28-C , 30-H ) :   0.9722 B( 28-C , 31-H ) :   0.9670

Dispersion correction           -0.015669223
FINAL SINGLE POINT ENERGY     -1339.874141329796

DIPOLE MOMENT
-------------
                                X             Y             Z
Electronic contribution:    -11.76945       1.36095      24.06208
Nuclear contribution   :     11.91804      -1.01536     -24.63561
                        -----------------------------------------
Total Dipole Moment    :      0.14858       0.34559      -0.57353
                        -----------------------------------------
Magnitude (a.u.)       :      0.68589
Magnitude (Debye)      :      1.74339

Rotational constants in cm-1:     0.021787     0.008253     0.007292
Rotational constants in MHz :   653.162434   247.432498   218.608679

                             ****ORCA TERMINATED NORMALLY****
TOTAL RUN TIME: 0 days 0 hours 0 minutes 22 seconds 696 msec
