                         Program Version 4.2.1 -  RELEASE  -
|  1> ! wB97X-D3 SP def2-SVP
|  2> %pal
|  3> nprocs 24
|  4> end
|  5>
|  6> * xyz 0 1
|  7> S 	 39.1687 	 -15.1442 	 -121.525
|  8> C 	 39.555 	 -13.5159 	 -120.979
|  9> C 	 39.7075 	 -12.595 	 -122.056
| 10> C 	 39.5718 	 -13.3179 	 -123.32
| 11> C 	 39.3265 	 -14.7151 	 -123.234
| 12> H 	 39.6505 	 -12.8023 	 -124.281
| 13> C 	 39.8331 	 -11.0864 	 -121.876
| 14> H 	 39.4923 	 -10.7404 	 -120.897
| 15> H 	 39.1451 	 -10.6095 	 -122.557
| 16> C 	 41.1875 	 -10.5076 	 -122.174
| 17> H 	 41.6166 	 -11.027 	 -123.087
| 18> H 	 41.1492 	 -9.52279 	 -122.485
| 19> C 	 42.2435 	 -10.5927 	 -121.002
| 20> H 	 42.3232 	 -11.6268 	 -120.782
| 21> H 	 43.2953 	 -10.3287 	 -121.162
| 22> H 	 41.9033 	 -10.1012 	 -120.121
| 23> S 	 38.0141 	 -16.9779 	 -124.1
| 24> C 	 38.5853 	 -17.745 	 -125.522
| 25> C 	 39.6086 	 -17.0375 	 -126.13
| 26> C 	 39.9307 	 -15.8173 	 -125.487
| 27> C 	 39.189 	 -15.6996 	 -124.308
| 28> H 	 40.034 	 -17.4214 	 -127.123
| 29> C 	 40.9914 	 -14.8936 	 -126.021
| 30> H 	 41.6926 	 -15.5526 	 -126.49
| 31> H 	 41.4958 	 -14.3989 	 -125.244
| 32> C 	 40.5337 	 -13.9063 	 -127.049
| 33> H 	 39.5271 	 -13.4747 	 -126.882
| 34> H 	 40.241 	 -14.4386 	 -127.898
| 35> C 	 41.7232 	 -12.8131 	 -127.376
| 36> H 	 41.4641 	 -12.2092 	 -128.292
| 37> H 	 42.622 	 -13.3127 	 -127.616
| 38> H 	 42.037 	 -12.1407 	 -126.534
| 39> H 	 39.6067 	 -13.2238 	 -119.966
| 40> H 	 38.1114 	 -18.6579 	 -125.908
| 41> *
| 42>
| 43>                          ****END OF INPUT****

CARTESIAN COORDINATES (ANGSTROEM)
---------------------------------
  S     39.168700  -15.144200  -121.525000
  C     39.555000  -13.515900  -120.979000
  C     39.707500  -12.595000  -122.056000
  C     39.571800  -13.317900  -123.320000
  C     39.326500  -14.715100  -123.234000
  H     39.650500  -12.802300  -124.281000
  C     39.833100  -11.086400  -121.876000
  H     39.492300  -10.740400  -120.897000
  H     39.145100  -10.609500  -122.557000
  C     41.187500  -10.507600  -122.174000
  H     41.616600  -11.027000  -123.087000
  H     41.149200   -9.522790  -122.485000
  C     42.243500  -10.592700  -121.002000
  H     42.323200  -11.626800  -120.782000
  H     43.295300  -10.328700  -121.162000
  H     41.903300  -10.101200  -120.121000
  S     38.014100  -16.977900  -124.100000
  C     38.585300  -17.745000  -125.522000
  C     39.608600  -17.037500  -126.130000
  C     39.930700  -15.817300  -125.487000
  C     39.189000  -15.699600  -124.308000
  H     40.034000  -17.421400  -127.123000
  C     40.991400  -14.893600  -126.021000
  H     41.692600  -15.552600  -126.490000
  H     41.495800  -14.398900  -125.244000
  C     40.533700  -13.906300  -127.049000
  H     39.527100  -13.474700  -126.882000
  H     40.241000  -14.438600  -127.898000
  C     41.723200  -12.813100  -127.376000
  H     41.464100  -12.209200  -128.292000
  H     42.622000  -13.312700  -127.616000
  H     42.037000  -12.140700  -126.534000
  H     39.606700  -13.223800  -119.966000
  H     38.111400  -18.657900  -125.908000

 Total Charge           Charge          ....    0
 Multiplicity           Mult            ....    1
 Number of Electrons    NEL             ....  134
 Basis Dimension        Dim             ....  322

ORBITAL ENERGIES
----------------

  NO   OCC          E(Eh)            E(eV)
   0   2.0000     -88.969211     -2420.9753
   1   2.0000     -88.967877     -2420.9390
   2   2.0000     -10.336106      -281.2598
   3   2.0000     -10.329698      -281.0854
   4   2.0000     -10.317925      -280.7650
   5   2.0000     -10.316391      -280.7233
   6   2.0000     -10.310345      -280.5588
   7   2.0000     -10.304679      -280.4046
   8   2.0000     -10.301806      -280.3264
   9   2.0000     -10.300313      -280.2858
  10   2.0000     -10.295384      -280.1516
  11   2.0000     -10.292256      -280.0665
  12   2.0000     -10.291074      -280.0344
  13   2.0000     -10.285856      -279.8924
  14   2.0000     -10.284628      -279.8590
  15   2.0000     -10.271649      -279.5058
  16   2.0000      -8.084722      -219.9965
  17   2.0000      -8.081806      -219.9171
  18   2.0000      -6.043090      -164.4408
  19   2.0000      -6.040421      -164.3682
  20   2.0000      -6.039086      -164.3319
  21   2.0000      -6.036334      -164.2570
  22   2.0000      -6.035624      -164.2377
  23   2.0000      -6.032605      -164.1555
  24   2.0000      -1.007119       -27.4051
  25   2.0000      -0.977299       -26.5937
  26   2.0000      -0.914666       -24.8893
  27   2.0000      -0.911591       -24.8057
  28   2.0000      -0.863906       -23.5081
  29   2.0000      -0.849344       -23.1118
  30   2.0000      -0.838915       -22.8280
  31   2.0000      -0.807515       -21.9736
  32   2.0000      -0.786426       -21.3997
  33   2.0000      -0.776495       -21.1295
  34   2.0000      -0.717971       -19.5370
  35   2.0000      -0.705506       -19.1978
  36   2.0000      -0.694655       -18.9025
  37   2.0000      -0.660220       -17.9655
  38   2.0000      -0.637571       -17.3492
  39   2.0000      -0.620040       -16.8722
  40   2.0000      -0.602036       -16.3822
  41   2.0000      -0.568820       -15.4784
  42   2.0000      -0.558846       -15.2070
  43   2.0000      -0.546173       -14.8621
  44   2.0000      -0.537247       -14.6192
  45   2.0000      -0.524229       -14.2650
  46   2.0000      -0.511652       -13.9228
  47   2.0000      -0.510526       -13.8921
  48   2.0000      -0.502627       -13.6772
  49   2.0000      -0.495947       -13.4954
  50   2.0000      -0.490231       -13.3399
  51   2.0000      -0.477034       -12.9807
  52   2.0000      -0.471520       -12.8307
  53   2.0000      -0.467090       -12.7102
  54   2.0000      -0.459147       -12.4940
  55   2.0000      -0.456334       -12.4175
  56   2.0000      -0.448750       -12.2111
  57   2.0000      -0.443556       -12.0698
  58   2.0000      -0.434037       -11.8108
  59   2.0000      -0.427549       -11.6342
  60   2.0000      -0.423214       -11.5162
  61   2.0000      -0.414902       -11.2901
  62   2.0000      -0.411814       -11.2060
  63   2.0000      -0.351969        -9.5776
  64   2.0000      -0.336755        -9.1636
  65   2.0000      -0.328671        -8.9436
  66   2.0000      -0.283352        -7.7104
  67   0.0000       0.023979         0.6525
  68   0.0000       0.072635         1.9765
  69   0.0000       0.109860         2.9894
  70   0.0000       0.120730         3.2852
  71   0.0000       0.124188         3.3793

MULLIKEN ATOMIC CHARGES
-----------------------
   0 S :    0.106243
   1 C :   -0.104186
   2 C :   -0.102104
   3 C :    0.014633
   4 C :   -0.137055
   5 H :    0.012802
   6 C :    0.087342
   7 H :    0.019287
   8 H :    0.028314
   9 C :   -0.064918
  10 H :    0.027116
  11 H :    0.012371
  12 C :   -0.038683
  13 H :    0.015704
  14 H :    0.035759
  15 H :    0.020058
  16 S :    0.120915
  17 C :   -0.104859
  18 C :   -0.058807
  19 C :   -0.049568
  20 C :   -0.156770
  21 H :    0.042715
  22 C :    0.117792
  23 H :    0.014243
  24 H :    0.013431
  25 C :   -0.048312
  26 H :    0.029888
  27 H :   -0.000722
  28 C :   -0.069365
  29 H :    0.047610
  30 H :    0.021526
  31 H :    0.046614
  32 H :    0.035712
  33 H :    0.065276
Sum of atomic charges:    0.0000000

LOEWDIN ATOMIC CHARGES
----------------------
   0 S :    0.396222
   1 C :   -0.190741
   2 C :   -0.056421
   3 C :   -0.068355
   4 C :   -0.189432
   5 H :    0.029572
   6 C :   -0.029304
   7 H :    0.031203
   8 H :    0.036933
   9 C :   -0.036785
  10 H :    0.030032
  11 H :    0.010795
  12 C :   -0.067691
  13 H :    0.020770
  14 H :    0.029376
  15 H :    0.017743
  16 S :    0.424488
  17 C :   -0.200759
  18 C :   -0.081311
  19 C :   -0.049885
  20 C :   -0.199626
  21 H :    0.043716
  22 C :   -0.026199
  23 H :    0.031681
  24 H :    0.023140
  25 C :   -0.037281
  26 H :    0.027161
  27 H :    0.016498
  28 C :   -0.069494
  29 H :    0.033659
  30 H :    0.017561
  31 H :    0.031277
  32 H :    0.018492
  33 H :    0.032965

  Mayer bond orders larger than 0.100000
B(  0-S ,  1-C ) :   1.1470 B(  0-S ,  4-C ) :   1.1458 B(  1-C ,  2-C ) :   1.5826
B(  1-C ,  4-C ) :   0.1009 B(  1-C , 32-H ) :   0.9730 B(  2-C ,  3-C ) :   1.2599
B(  2-C ,  6-C ) :   1.0305 B(  3-C ,  4-C ) :   1.5443 B(  3-C ,  5-H ) :   0.9877
B(  4-C , 20-C ) :   1.0678 B(  6-C ,  7-H ) :   0.9460 B(  6-C ,  8-H ) :   0.9345
B(  6-C ,  9-C ) :   1.0662 B(  9-C , 10-H ) :   0.9572 B(  9-C , 11-H ) :   0.9575
B(  9-C , 12-C ) :   1.0635 B( 12-C , 13-H ) :   0.9766 B( 12-C , 14-H ) :   0.9773
B( 12-C , 15-H ) :   0.9769 B( 16-S , 17-C ) :   1.1654 B( 16-S , 20-C ) :   1.1527
B( 17-C , 18-C ) :   1.5916 B( 17-C , 33-H ) :   0.9658 B( 18-C , 19-C ) :   1.2669
B( 18-C , 21-H ) :   0.9765 B( 19-C , 20-C ) :   1.5589 B( 19-C , 22-C ) :   1.0458
B( 22-C , 23-H ) :   0.9227 B( 22-C , 24-H ) :   0.9317 B( 22-C , 25-C ) :   1.0570
B( 25-C , 26-H ) :   0.9576 B( 25-C , 27-H ) :   0.9459 B( 25-C , 28-C ) :   1.0546
B( 28-C , 29-H ) :   0.9780 B( 28-C , 30-H ) :   0.9758 B( 28-C , 31-H ) :   0.9793

Dispersion correction           -0.014329423
FINAL SINGLE POINT ENERGY     -1339.870823028333

DIPOLE MOMENT
-------------
                                X             Y             Z
Electronic contribution:    -17.71525     -24.96810       8.93479
Nuclear contribution   :     17.95866      25.34876      -9.38991
                        -----------------------------------------
Total Dipole Moment    :      0.24341       0.38066      -0.45512
                        -----------------------------------------
Magnitude (a.u.)       :      0.64132
Magnitude (Debye)      :      1.63010

Rotational constants in cm-1:     0.017797     0.009235     0.006430
Rotational constants in MHz :   533.530951   276.858763   192.752504

                             ****ORCA TERMINATED NORMALLY****
TOTAL RUN TIME: 0 days 0 hours 0 minutes 21 seconds 586 msec
