                         Program Version 4.2.1 -  RELEASE  -
|  1> ! wB97X-D3 SP def2-SVP
|  2> %pal
|  3> nprocs 24
|  4> end
|  5>
|  6> * xyz 0 1
|  7> S 	 -63.2354 	 9.79791 	 -16.5187
|  8> C 	 -64.5366 	 8.61329 	 -16.6008
|  9> C 	 -64.2409 	 7.56983 	 -17.4638
| 10> C 	 -63.0981 	 7.81563 	 -18.2626
| 11> C 	 -62.5222 	 8.96394 	 -17.8671
| 12> H 	 -62.6768 	 7.23744 	 -19.1563
| 13> C 	 -65.0412 	 6.30882 	 -17.5041
| 14> H 	 -66.0488 	 6.57806 	 -17.2314
| 15> H 	 -64.6268 	 5.51901 	 -16.927
| 16> C 	 -65.2199 	 5.69534 	 -18.8851
| 17> H 	 -65.6054 	 6.48736 	 -19.6443
| 18> H 	 -64.2441 	 5.30526 	 -19.2463
| 19> C 	 -66.3483 	 4.69002 	 -19.018
| 20> H 	 -66.3159 	 3.86936 	 -18.3
| 21> H 	 -67.2845 	 5.25655 	 -18.9113
| 22> H 	 -66.4169 	 4.16205 	 -19.9539
| 23> S 	 -61.7423 	 10.4577 	 -20.108
| 24> C 	 -60.0125 	 10.7171 	 -20.265
| 25> C 	 -59.2731 	 10.3805 	 -19.18
| 26> C 	 -60.0425 	 9.6383 	 -18.211
| 27> C 	 -61.4042 	 9.59555 	 -18.5762
| 28> H 	 -58.2195 	 10.6405 	 -19.1285
| 29> C 	 -59.4737 	 8.92152 	 -16.9997
| 30> H 	 -60.2234 	 8.55741 	 -16.3627
| 31> H 	 -58.6324 	 9.5192 	 -16.5083
| 32> C 	 -58.8409 	 7.58964 	 -17.5963
| 33> H 	 -58.3304 	 7.02211 	 -16.8485
| 34> H 	 -57.9596 	 7.8876 	 -18.2555
| 35> C 	 -59.7971 	 6.67011 	 -18.3254
| 36> H 	 -59.3363 	 5.80506 	 -18.7076
| 37> H 	 -60.3233 	 7.09738 	 -19.1914
| 38> H 	 -60.5724 	 6.3513 	 -17.6987
| 39> H 	 -65.3561 	 8.42137 	 -15.9701
| 40> H 	 -59.5521 	 11.3341 	 -20.9874
| 41> *
| 42>
| 43>                          ****END OF INPUT****

CARTESIAN COORDINATES (ANGSTROEM)
---------------------------------
  S    -63.235400    9.797910  -16.518700
  C    -64.536600    8.613290  -16.600800
  C    -64.240900    7.569830  -17.463800
  C    -63.098100    7.815630  -18.262600
  C    -62.522200    8.963940  -17.867100
  H    -62.676800    7.237440  -19.156300
  C    -65.041200    6.308820  -17.504100
  H    -66.048800    6.578060  -17.231400
  H    -64.626800    5.519010  -16.927000
  C    -65.219900    5.695340  -18.885100
  H    -65.605400    6.487360  -19.644300
  H    -64.244100    5.305260  -19.246300
  C    -66.348300    4.690020  -19.018000
  H    -66.315900    3.869360  -18.300000
  H    -67.284500    5.256550  -18.911300
  H    -66.416900    4.162050  -19.953900
  S    -61.742300   10.457700  -20.108000
  C    -60.012500   10.717100  -20.265000
  C    -59.273100   10.380500  -19.180000
  C    -60.042500    9.638300  -18.211000
  C    -61.404200    9.595550  -18.576200
  H    -58.219500   10.640500  -19.128500
  C    -59.473700    8.921520  -16.999700
  H    -60.223400    8.557410  -16.362700
  H    -58.632400    9.519200  -16.508300
  C    -58.840900    7.589640  -17.596300
  H    -58.330400    7.022110  -16.848500
  H    -57.959600    7.887600  -18.255500
  C    -59.797100    6.670110  -18.325400
  H    -59.336300    5.805060  -18.707600
  H    -60.323300    7.097380  -19.191400
  H    -60.572400    6.351300  -17.698700
  H    -65.356100    8.421370  -15.970100
  H    -59.552100   11.334100  -20.987400

 Total Charge           Charge          ....    0
 Multiplicity           Mult            ....    1
 Number of Electrons    NEL             ....  134
 Basis Dimension        Dim             ....  322

ORBITAL ENERGIES
----------------

  NO   OCC          E(Eh)            E(eV)
   0   2.0000     -88.970784     -2421.0181
   1   2.0000     -88.965201     -2420.8662
   2   2.0000     -10.322900      -280.9004
   3   2.0000     -10.320961      -280.8476
   4   2.0000     -10.309114      -280.5253
   5   2.0000     -10.307440      -280.4797
   6   2.0000     -10.305391      -280.4240
   7   2.0000     -10.297282      -280.2033
   8   2.0000     -10.297011      -280.1959
   9   2.0000     -10.293857      -280.1101
  10   2.0000     -10.292077      -280.0616
  11   2.0000     -10.291493      -280.0458
  12   2.0000     -10.287548      -279.9384
  13   2.0000     -10.286369      -279.9063
  14   2.0000     -10.277741      -279.6715
  15   2.0000     -10.263709      -279.2897
  16   2.0000      -8.085090      -220.0065
  17   2.0000      -8.079119      -219.8440
  18   2.0000      -6.043552      -164.4534
  19   2.0000      -6.039875      -164.3533
  20   2.0000      -6.037614      -164.2918
  21   2.0000      -6.035694      -164.2396
  22   2.0000      -6.034009      -164.1937
  23   2.0000      -6.029692      -164.0763
  24   2.0000      -1.007292       -27.4098
  25   2.0000      -0.980936       -26.6926
  26   2.0000      -0.917281       -24.9605
  27   2.0000      -0.904976       -24.6257
  28   2.0000      -0.867948       -23.6181
  29   2.0000      -0.853092       -23.2138
  30   2.0000      -0.842580       -22.9278
  31   2.0000      -0.818557       -22.2741
  32   2.0000      -0.786850       -21.4113
  33   2.0000      -0.771547       -20.9949
  34   2.0000      -0.708349       -19.2752
  35   2.0000      -0.695075       -18.9140
  36   2.0000      -0.684114       -18.6157
  37   2.0000      -0.655630       -17.8406
  38   2.0000      -0.634703       -17.2711
  39   2.0000      -0.617509       -16.8033
  40   2.0000      -0.594416       -16.1749
  41   2.0000      -0.583249       -15.8710
  42   2.0000      -0.564371       -15.3573
  43   2.0000      -0.551508       -15.0073
  44   2.0000      -0.542689       -14.7673
  45   2.0000      -0.518013       -14.0959
  46   2.0000      -0.513573       -13.9750
  47   2.0000      -0.509119       -13.8538
  48   2.0000      -0.502847       -13.6832
  49   2.0000      -0.492283       -13.3957
  50   2.0000      -0.488002       -13.2792
  51   2.0000      -0.476875       -12.9764
  52   2.0000      -0.469382       -12.7725
  53   2.0000      -0.463229       -12.6051
  54   2.0000      -0.461999       -12.5716
  55   2.0000      -0.451164       -12.2768
  56   2.0000      -0.448305       -12.1990
  57   2.0000      -0.438114       -11.9217
  58   2.0000      -0.434988       -11.8366
  59   2.0000      -0.421524       -11.4702
  60   2.0000      -0.419169       -11.4062
  61   2.0000      -0.413139       -11.2421
  62   2.0000      -0.411656       -11.2017
  63   2.0000      -0.340085        -9.2542
  64   2.0000      -0.329576        -8.9682
  65   2.0000      -0.321147        -8.7389
  66   2.0000      -0.302351        -8.2274
  67   0.0000       0.044875         1.2211
  68   0.0000       0.056671         1.5421
  69   0.0000       0.107002         2.9117
  70   0.0000       0.109413         2.9773
  71   0.0000       0.130814         3.5596

MULLIKEN ATOMIC CHARGES
-----------------------
   0 S :    0.139882
   1 C :   -0.080738
   2 C :   -0.113701
   3 C :    0.009825
   4 C :   -0.179991
   5 H :    0.054079
   6 C :    0.133412
   7 H :    0.006424
   8 H :    0.039523
   9 C :   -0.166667
  10 H :    0.042088
  11 H :    0.036236
  12 C :   -0.030481
  13 H :    0.020396
  14 H :    0.032385
  15 H :    0.030656
  16 S :    0.116483
  17 C :   -0.067062
  18 C :   -0.041902
  19 C :   -0.035477
  20 C :   -0.199018
  21 H :    0.022656
  22 C :    0.107840
  23 H :    0.018582
  24 H :    0.048744
  25 C :   -0.104176
  26 H :    0.019933
  27 H :    0.027177
  28 C :   -0.013465
  29 H :    0.018057
  30 H :    0.038038
  31 H :    0.015562
  32 H :    0.017286
  33 H :    0.037413
Sum of atomic charges:    0.0000000

LOEWDIN ATOMIC CHARGES
----------------------
   0 S :    0.414150
   1 C :   -0.194328
   2 C :   -0.057613
   3 C :   -0.066449
   4 C :   -0.197587
   5 H :    0.051720
   6 C :   -0.029110
   7 H :    0.029250
   8 H :    0.031869
   9 C :   -0.052046
  10 H :    0.034879
  11 H :    0.018783
  12 C :   -0.068416
  13 H :    0.019004
  14 H :    0.027946
  15 H :    0.026875
  16 S :    0.384121
  17 C :   -0.177213
  18 C :   -0.069820
  19 C :   -0.046559
  20 C :   -0.198616
  21 H :    0.034126
  22 C :   -0.024346
  23 H :    0.019911
  24 H :    0.043553
  25 C :   -0.037920
  26 H :    0.016736
  27 H :    0.024807
  28 C :   -0.062552
  29 H :    0.022532
  30 H :    0.027151
  31 H :    0.016778
  32 H :    0.017915
  33 H :    0.020471

  Mayer bond orders larger than 0.100000
B(  0-S ,  1-C ) :   1.1162 B(  0-S ,  4-C ) :   1.1519 B(  1-C ,  2-C ) :   1.6617
B(  1-C , 32-H ) :   0.9634 B(  2-C ,  3-C ) :   1.2003 B(  2-C ,  6-C ) :   1.0320
B(  3-C ,  4-C ) :   1.6168 B(  3-C ,  5-H ) :   0.9774 B(  4-C , 20-C ) :   1.0051
B(  6-C ,  7-H ) :   0.9338 B(  6-C ,  8-H ) :   0.9266 B(  6-C ,  9-C ) :   1.0638
B(  9-C , 10-H ) :   0.9635 B(  9-C , 11-H ) :   0.9477 B(  9-C , 12-C ) :   1.0818
B( 12-C , 13-H ) :   0.9720 B( 12-C , 14-H ) :   0.9751 B( 12-C , 15-H ) :   0.9726
B( 16-S , 17-C ) :   1.1353 B( 16-S , 20-C ) :   1.1260 B( 17-C , 18-C ) :   1.6681
B( 17-C , 33-H ) :   0.9616 B( 18-C , 19-C ) :   1.2046 B( 18-C , 21-H ) :   0.9839
B( 19-C , 20-C ) :   1.6180 B( 19-C , 22-C ) :   1.0616 B( 22-C , 23-H ) :   0.9259
B( 22-C , 24-H ) :   0.9372 B( 22-C , 25-C ) :   1.0578 B( 25-C , 26-H ) :   0.9576
B( 25-C , 27-H ) :   0.9577 B( 25-C , 28-C ) :   1.0792 B( 28-C , 29-H ) :   0.9646
B( 28-C , 30-H ) :   0.9678 B( 28-C , 31-H ) :   0.9697

Dispersion correction           -0.015825921
FINAL SINGLE POINT ENERGY     -1339.863061976125

DIPOLE MOMENT
-------------
                                X             Y             Z
Electronic contribution:      1.53727      24.46700       0.85534
Nuclear contribution   :     -1.35385     -24.98924      -0.78526
                        -----------------------------------------
Total Dipole Moment    :      0.18342      -0.52223       0.07008
                        -----------------------------------------
Magnitude (a.u.)       :      0.55793
Magnitude (Debye)      :      1.41813

Rotational constants in cm-1:     0.020468     0.008275     0.007916
Rotational constants in MHz :   613.616258   248.078891   237.329547

                             ****ORCA TERMINATED NORMALLY****
TOTAL RUN TIME: 0 days 0 hours 0 minutes 21 seconds 428 msec
