                         Program Version 4.2.1 -  RELEASE  -
|  1> ! wB97X-D3 SP def2-SVP
|  2> %pal
|  3> nprocs 24
|  4> end
|  5>
|  6> * xyz 0 1
|  7> S 	 -52.0903 	 21.7259 	 34.3005
|  8> C 	 -50.4061 	 21.8994 	 34.143
|  9> C 	 -49.849 	 20.8451 	 33.418
| 10> C 	 -50.7527 	 19.8029 	 33.0706
| 11> C 	 -52.0235 	 20.1938 	 33.4601
| 12> H 	 -50.5445 	 18.9152 	 32.5297
| 13> C 	 -48.4163 	 20.9247 	 33.0277
| 14> H 	 -47.8169 	 20.3298 	 33.79
| 15> H 	 -48.0714 	 21.8983 	 33.2556
| 16> C 	 -48.1251 	 20.6554 	 31.5962
| 17> H 	 -48.808 	 21.2024 	 30.9545
| 18> H 	 -47.2368 	 21.1953 	 31.3117
| 19> C 	 -47.9139 	 19.194 	 31.2078
| 20> H 	 -47.6181 	 19.0354 	 30.1594
| 21> H 	 -47.0568 	 18.7859 	 31.7329
| 22> H 	 -48.6594 	 18.4337 	 31.4848
| 23> S 	 -53.9205 	 18.6833 	 34.8224
| 24> C 	 -55.0071 	 17.6977 	 33.9205
| 25> C 	 -54.7905 	 17.7778 	 32.5369
| 26> C 	 -53.7065 	 18.6445 	 32.1721
| 27> C 	 -53.2099 	 19.3128 	 33.2903
| 28> H 	 -55.4077 	 17.2641 	 31.8663
| 29> C 	 -53.209 	 18.8453 	 30.7243
| 30> H 	 -52.1192 	 18.9374 	 30.7261
| 31> H 	 -53.5636 	 19.8396 	 30.4113
| 32> C 	 -53.6651 	 17.8178 	 29.6771
| 33> H 	 -54.7233 	 17.6218 	 29.6712
| 34> H 	 -53.2782 	 16.8014 	 29.9121
| 35> C 	 -53.2505 	 18.3027 	 28.2929
| 36> H 	 -53.8877 	 19.1397 	 27.9504
| 37> H 	 -53.3407 	 17.5008 	 27.567
| 38> H 	 -52.1494 	 18.5454 	 28.4098
| 39> H 	 -49.9013 	 22.7379 	 34.5994
| 40> H 	 -55.8461 	 17.0206 	 34.2602
| 41> *
| 42>
| 43>                          ****END OF INPUT****

CARTESIAN COORDINATES (ANGSTROEM)
---------------------------------
  S    -52.090300   21.725900   34.300500
  C    -50.406100   21.899400   34.143000
  C    -49.849000   20.845100   33.418000
  C    -50.752700   19.802900   33.070600
  C    -52.023500   20.193800   33.460100
  H    -50.544500   18.915200   32.529700
  C    -48.416300   20.924700   33.027700
  H    -47.816900   20.329800   33.790000
  H    -48.071400   21.898300   33.255600
  C    -48.125100   20.655400   31.596200
  H    -48.808000   21.202400   30.954500
  H    -47.236800   21.195300   31.311700
  C    -47.913900   19.194000   31.207800
  H    -47.618100   19.035400   30.159400
  H    -47.056800   18.785900   31.732900
  H    -48.659400   18.433700   31.484800
  S    -53.920500   18.683300   34.822400
  C    -55.007100   17.697700   33.920500
  C    -54.790500   17.777800   32.536900
  C    -53.706500   18.644500   32.172100
  C    -53.209900   19.312800   33.290300
  H    -55.407700   17.264100   31.866300
  C    -53.209000   18.845300   30.724300
  H    -52.119200   18.937400   30.726100
  H    -53.563600   19.839600   30.411300
  C    -53.665100   17.817800   29.677100
  H    -54.723300   17.621800   29.671200
  H    -53.278200   16.801400   29.912100
  C    -53.250500   18.302700   28.292900
  H    -53.887700   19.139700   27.950400
  H    -53.340700   17.500800   27.567000
  H    -52.149400   18.545400   28.409800
  H    -49.901300   22.737900   34.599400
  H    -55.846100   17.020600   34.260200

 Total Charge           Charge          ....    0
 Multiplicity           Mult            ....    1
 Number of Electrons    NEL             ....  134
 Basis Dimension        Dim             ....  322

ORBITAL ENERGIES
----------------

  NO   OCC          E(Eh)            E(eV)
   0   2.0000     -88.966089     -2420.8904
   1   2.0000     -88.965015     -2420.8611
   2   2.0000     -10.327357      -281.0217
   3   2.0000     -10.324910      -280.9551
   4   2.0000     -10.318492      -280.7804
   5   2.0000     -10.307137      -280.4715
   6   2.0000     -10.305158      -280.4176
   7   2.0000     -10.296242      -280.1750
   8   2.0000     -10.296204      -280.1740
   9   2.0000     -10.291822      -280.0547
  10   2.0000     -10.288214      -279.9565
  11   2.0000     -10.287761      -279.9442
  12   2.0000     -10.284815      -279.8640
  13   2.0000     -10.284624      -279.8588
  14   2.0000     -10.284144      -279.8458
  15   2.0000     -10.280873      -279.7568
  16   2.0000      -8.081718      -219.9147
  17   2.0000      -8.079182      -219.8457
  18   2.0000      -6.039958      -164.3556
  19   2.0000      -6.037712      -164.2945
  20   2.0000      -6.036105      -164.2508
  21   2.0000      -6.033736      -164.1863
  22   2.0000      -6.032718      -164.1586
  23   2.0000      -6.029990      -164.0844
  24   2.0000      -1.004504       -27.3339
  25   2.0000      -0.980317       -26.6758
  26   2.0000      -0.918086       -24.9824
  27   2.0000      -0.909115       -24.7383
  28   2.0000      -0.865024       -23.5385
  29   2.0000      -0.852369       -23.1941
  30   2.0000      -0.847271       -23.0554
  31   2.0000      -0.814063       -22.1518
  32   2.0000      -0.782536       -21.2939
  33   2.0000      -0.766896       -20.8683
  34   2.0000      -0.710173       -19.3248
  35   2.0000      -0.701057       -19.0767
  36   2.0000      -0.689215       -18.7545
  37   2.0000      -0.653764       -17.7898
  38   2.0000      -0.644025       -17.5248
  39   2.0000      -0.621710       -16.9176
  40   2.0000      -0.594223       -16.1696
  41   2.0000      -0.567503       -15.4425
  42   2.0000      -0.564677       -15.3656
  43   2.0000      -0.549275       -14.9465
  44   2.0000      -0.538935       -14.6652
  45   2.0000      -0.522409       -14.2155
  46   2.0000      -0.512807       -13.9542
  47   2.0000      -0.512283       -13.9399
  48   2.0000      -0.508533       -13.8379
  49   2.0000      -0.499881       -13.6025
  50   2.0000      -0.488690       -13.2979
  51   2.0000      -0.478115       -13.0102
  52   2.0000      -0.472782       -12.8651
  53   2.0000      -0.462144       -12.5756
  54   2.0000      -0.455598       -12.3975
  55   2.0000      -0.450095       -12.2477
  56   2.0000      -0.448858       -12.2140
  57   2.0000      -0.441478       -12.0132
  58   2.0000      -0.434497       -11.8233
  59   2.0000      -0.426582       -11.6079
  60   2.0000      -0.422695       -11.5021
  61   2.0000      -0.415732       -11.3126
  62   2.0000      -0.407097       -11.0777
  63   2.0000      -0.342532        -9.3208
  64   2.0000      -0.329270        -8.9599
  65   2.0000      -0.322109        -8.7650
  66   2.0000      -0.291035        -7.9195
  67   0.0000       0.035809         0.9744
  68   0.0000       0.068158         1.8547
  69   0.0000       0.118301         3.2191
  70   0.0000       0.123935         3.3724
  71   0.0000       0.130566         3.5529

MULLIKEN ATOMIC CHARGES
-----------------------
   0 S :    0.129124
   1 C :   -0.136218
   2 C :   -0.095056
   3 C :    0.064746
   4 C :   -0.181488
   5 H :    0.004940
   6 C :    0.092133
   7 H :    0.039266
   8 H :   -0.008620
   9 C :   -0.033886
  10 H :    0.023281
  11 H :    0.014681
  12 C :   -0.051339
  13 H :    0.034203
  14 H :    0.015164
  15 H :    0.027016
  16 S :    0.114236
  17 C :   -0.093693
  18 C :   -0.045281
  19 C :   -0.018448
  20 C :   -0.168343
  21 H :   -0.008393
  22 C :    0.072867
  23 H :    0.021566
  24 H :    0.038785
  25 C :   -0.098068
  26 H :    0.025477
  27 H :    0.030703
  28 C :   -0.049950
  29 H :    0.048182
  30 H :    0.031147
  31 H :    0.038882
  32 H :    0.050799
  33 H :    0.071581
Sum of atomic charges:    0.0000000

LOEWDIN ATOMIC CHARGES
----------------------
   0 S :    0.430363
   1 C :   -0.219780
   2 C :   -0.059332
   3 C :   -0.051854
   4 C :   -0.195946
   5 H :    0.028058
   6 C :   -0.036981
   7 H :    0.039619
   8 H :    0.024644
   9 C :   -0.045023
  10 H :    0.027616
  11 H :    0.028773
  12 C :   -0.073037
  13 H :    0.029740
  14 H :    0.025455
  15 H :    0.022385
  16 S :    0.401135
  17 C :   -0.206551
  18 C :   -0.074110
  19 C :   -0.050513
  20 C :   -0.191082
  21 H :    0.017968
  22 C :   -0.029991
  23 H :    0.029697
  24 H :    0.038805
  25 C :   -0.048625
  26 H :    0.018151
  27 H :    0.026421
  28 C :   -0.064423
  29 H :    0.030627
  30 H :    0.023810
  31 H :    0.033045
  32 H :    0.026039
  33 H :    0.044898

  Mayer bond orders larger than 0.100000
B(  0-S ,  1-C ) :   1.1487 B(  0-S ,  4-C ) :   1.1827 B(  1-C ,  2-C ) :   1.5820
B(  1-C , 32-H ) :   0.9718 B(  2-C ,  3-C ) :   1.2501 B(  2-C ,  6-C ) :   1.0384
B(  3-C ,  4-C ) :   1.5463 B(  3-C ,  5-H ) :   0.9963 B(  4-C , 20-C ) :   1.0103
B(  6-C ,  7-H ) :   0.9269 B(  6-C ,  8-H ) :   0.9293 B(  6-C ,  9-C ) :   1.0755
B(  9-C , 10-H ) :   0.9524 B(  9-C , 11-H ) :   0.9472 B(  9-C , 12-C ) :   1.0706
B( 12-C , 13-H ) :   0.9714 B( 12-C , 14-H ) :   0.9682 B( 12-C , 15-H ) :   0.9774
B( 16-S , 17-C ) :   1.1606 B( 16-S , 20-C ) :   1.1395 B( 17-C , 18-C ) :   1.6098
B( 17-C , 33-H ) :   0.9535 B( 18-C , 19-C ) :   1.2462 B( 18-C , 21-H ) :   0.9926
B( 19-C , 20-C ) :   1.6104 B( 19-C , 22-C ) :   1.0195 B( 22-C , 23-H ) :   0.9314
B( 22-C , 24-H ) :   0.9337 B( 22-C , 25-C ) :   1.0706 B( 25-C , 26-H ) :   0.9470
B( 25-C , 27-H ) :   0.9539 B( 25-C , 28-C ) :   1.0862 B( 28-C , 29-H ) :   0.9748
B( 28-C , 30-H ) :   0.9717 B( 28-C , 31-H ) :   0.9735

Dispersion correction           -0.014133462
FINAL SINGLE POINT ENERGY     -1339.878053347197

DIPOLE MOMENT
-------------
                                X             Y             Z
Electronic contribution:    -14.93762       7.09551      26.06570
Nuclear contribution   :     15.32598      -7.24477     -26.64558
                        -----------------------------------------
Total Dipole Moment    :      0.38836      -0.14926      -0.57988
                        -----------------------------------------
Magnitude (a.u.)       :      0.71369
Magnitude (Debye)      :      1.81407

Rotational constants in cm-1:     0.015254     0.010152     0.006895
Rotational constants in MHz :   457.302452   304.338118   206.720243

                             ****ORCA TERMINATED NORMALLY****
TOTAL RUN TIME: 0 days 0 hours 0 minutes 21 seconds 773 msec
