                         Program Version 4.2.1 -  RELEASE  -
|  1> ! wB97X-D3 SP def2-SVP
|  2> %pal
|  3> nprocs 24
|  4> end
|  5>
|  6> * xyz 0 1
|  7> S 	 -69.9616 	 17.862 	 -108.597
|  8> C 	 -68.8367 	 18.0028 	 -107.209
|  9> C 	 -67.7993 	 18.914 	 -107.361
| 10> C 	 -67.8707 	 19.4219 	 -108.716
| 11> C 	 -68.919 	 18.938 	 -109.519
| 12> H 	 -67.1488 	 20.0772 	 -109.191
| 13> C 	 -66.6805 	 19.3139 	 -106.46
| 14> H 	 -65.9952 	 19.9728 	 -106.941
| 15> H 	 -66.1197 	 18.3679 	 -106.385
| 16> C 	 -67.0941 	 19.7096 	 -105.081
| 17> H 	 -67.7339 	 20.5908 	 -105.145
| 18> H 	 -67.6416 	 19.0213 	 -104.473
| 19> C 	 -65.947 	 20.1038 	 -104.098
| 20> H 	 -66.2046 	 20.6639 	 -103.169
| 21> H 	 -65.3874 	 19.2267 	 -103.747
| 22> H 	 -65.2836 	 20.8886 	 -104.503
| 23> S 	 -69.3772 	 21.0351 	 -111.162
| 24> C 	 -69.6266 	 20.7333 	 -112.758
| 25> C 	 -69.7614 	 19.4343 	 -113.065
| 26> C 	 -69.4998 	 18.5628 	 -111.971
| 27> C 	 -69.2737 	 19.3349 	 -110.834
| 28> H 	 -69.9097 	 19.2041 	 -114.082
| 29> C 	 -69.2335 	 17.0958 	 -112.128
| 30> H 	 -69.8018 	 16.8156 	 -113.047
| 31> H 	 -69.6711 	 16.522 	 -111.325
| 32> C 	 -67.8144 	 16.5577 	 -112.37
| 33> H 	 -67.3517 	 17.1284 	 -113.172
| 34> H 	 -67.9441 	 15.4673 	 -112.544
| 35> C 	 -66.9471 	 16.739 	 -111.166
| 36> H 	 -67.501 	 16.3422 	 -110.332
| 37> H 	 -66.8395 	 17.8213 	 -110.858
| 38> H 	 -66.0403 	 16.2568 	 -111.125
| 39> H 	 -68.9948 	 17.5438 	 -106.199
| 40> H 	 -69.764 	 21.5387 	 -113.409
| 41> *
| 42>
| 43>                          ****END OF INPUT****

CARTESIAN COORDINATES (ANGSTROEM)
---------------------------------
  S    -69.961600   17.862000  -108.597000
  C    -68.836700   18.002800  -107.209000
  C    -67.799300   18.914000  -107.361000
  C    -67.870700   19.421900  -108.716000
  C    -68.919000   18.938000  -109.519000
  H    -67.148800   20.077200  -109.191000
  C    -66.680500   19.313900  -106.460000
  H    -65.995200   19.972800  -106.941000
  H    -66.119700   18.367900  -106.385000
  C    -67.094100   19.709600  -105.081000
  H    -67.733900   20.590800  -105.145000
  H    -67.641600   19.021300  -104.473000
  C    -65.947000   20.103800  -104.098000
  H    -66.204600   20.663900  -103.169000
  H    -65.387400   19.226700  -103.747000
  H    -65.283600   20.888600  -104.503000
  S    -69.377200   21.035100  -111.162000
  C    -69.626600   20.733300  -112.758000
  C    -69.761400   19.434300  -113.065000
  C    -69.499800   18.562800  -111.971000
  C    -69.273700   19.334900  -110.834000
  H    -69.909700   19.204100  -114.082000
  C    -69.233500   17.095800  -112.128000
  H    -69.801800   16.815600  -113.047000
  H    -69.671100   16.522000  -111.325000
  C    -67.814400   16.557700  -112.370000
  H    -67.351700   17.128400  -113.172000
  H    -67.944100   15.467300  -112.544000
  C    -66.947100   16.739000  -111.166000
  H    -67.501000   16.342200  -110.332000
  H    -66.839500   17.821300  -110.858000
  H    -66.040300   16.256800  -111.125000
  H    -68.994800   17.543800  -106.199000
  H    -69.764000   21.538700  -113.409000

 Total Charge           Charge          ....    0
 Multiplicity           Mult            ....    1
 Number of Electrons    NEL             ....  134
 Basis Dimension        Dim             ....  322

ORBITAL ENERGIES
----------------

  NO   OCC          E(Eh)            E(eV)
   0   2.0000     -88.968784     -2420.9637
   1   2.0000     -88.963240     -2420.8128
   2   2.0000     -10.325639      -280.9749
   3   2.0000     -10.318001      -280.7671
   4   2.0000     -10.317975      -280.7664
   5   2.0000     -10.304497      -280.3996
   6   2.0000     -10.301486      -280.3177
   7   2.0000     -10.299787      -280.2715
   8   2.0000     -10.294452      -280.1263
   9   2.0000     -10.293892      -280.1110
  10   2.0000     -10.288028      -279.9515
  11   2.0000     -10.288002      -279.9508
  12   2.0000     -10.283861      -279.8381
  13   2.0000     -10.283002      -279.8147
  14   2.0000     -10.282930      -279.8128
  15   2.0000     -10.257202      -279.1127
  16   2.0000      -8.082149      -219.9265
  17   2.0000      -8.080798      -219.8897
  18   2.0000      -6.040745      -164.3770
  19   2.0000      -6.038867      -164.3259
  20   2.0000      -6.036921      -164.2730
  21   2.0000      -6.034913      -164.2183
  22   2.0000      -6.032830      -164.1617
  23   2.0000      -6.031833      -164.1345
  24   2.0000      -1.018059       -27.7028
  25   2.0000      -0.982632       -26.7388
  26   2.0000      -0.920036       -25.0354
  27   2.0000      -0.913120       -24.8472
  28   2.0000      -0.871735       -23.7211
  29   2.0000      -0.857454       -23.3325
  30   2.0000      -0.846467       -23.0335
  31   2.0000      -0.808169       -21.9914
  32   2.0000      -0.788635       -21.4599
  33   2.0000      -0.774806       -21.0836
  34   2.0000      -0.711929       -19.3726
  35   2.0000      -0.703688       -19.1483
  36   2.0000      -0.692253       -18.8372
  37   2.0000      -0.662491       -18.0273
  38   2.0000      -0.632667       -17.2157
  39   2.0000      -0.615072       -16.7370
  40   2.0000      -0.603636       -16.4258
  41   2.0000      -0.577376       -15.7112
  42   2.0000      -0.564114       -15.3503
  43   2.0000      -0.553822       -15.0703
  44   2.0000      -0.545508       -14.8440
  45   2.0000      -0.525704       -14.3051
  46   2.0000      -0.519167       -14.1273
  47   2.0000      -0.510415       -13.8891
  48   2.0000      -0.506816       -13.7912
  49   2.0000      -0.498577       -13.5670
  50   2.0000      -0.491661       -13.3788
  51   2.0000      -0.476213       -12.9584
  52   2.0000      -0.467877       -12.7316
  53   2.0000      -0.464707       -12.6453
  54   2.0000      -0.459313       -12.4986
  55   2.0000      -0.445500       -12.1227
  56   2.0000      -0.442735       -12.0474
  57   2.0000      -0.434525       -11.8240
  58   2.0000      -0.431051       -11.7295
  59   2.0000      -0.426488       -11.6053
  60   2.0000      -0.418804       -11.3962
  61   2.0000      -0.415555       -11.3078
  62   2.0000      -0.413970       -11.2647
  63   2.0000      -0.341358        -9.2888
  64   2.0000      -0.334124        -9.0920
  65   2.0000      -0.329334        -8.9616
  66   2.0000      -0.288672        -7.8552
  67   0.0000       0.029693         0.8080
  68   0.0000       0.076386         2.0786
  69   0.0000       0.105947         2.8830
  70   0.0000       0.114385         3.1126
  71   0.0000       0.127220         3.4618

MULLIKEN ATOMIC CHARGES
-----------------------
   0 S :    0.119069
   1 C :   -0.145706
   2 C :   -0.076867
   3 C :    0.001883
   4 C :   -0.170903
   5 H :    0.008644
   6 C :    0.129049
   7 H :    0.014800
   8 H :    0.039723
   9 C :   -0.075306
  10 H :    0.031305
  11 H :    0.029909
  12 C :   -0.091495
  13 H :    0.033194
  14 H :    0.038885
  15 H :    0.026040
  16 S :    0.140268
  17 C :   -0.069502
  18 C :   -0.020021
  19 C :   -0.012668
  20 C :   -0.184260
  21 H :   -0.004635
  22 C :    0.045638
  23 H :    0.022076
  24 H :    0.017846
  25 C :   -0.030900
  26 H :    0.024766
  27 H :    0.038966
  28 C :   -0.018849
  29 H :    0.003162
  30 H :    0.036552
  31 H :    0.014017
  32 H :    0.053793
  33 H :    0.031527
Sum of atomic charges:    0.0000000

LOEWDIN ATOMIC CHARGES
----------------------
   0 S :    0.395247
   1 C :   -0.199488
   2 C :   -0.054894
   3 C :   -0.067853
   4 C :   -0.193360
   5 H :    0.024243
   6 C :   -0.029985
   7 H :    0.030798
   8 H :    0.045312
   9 C :   -0.041371
  10 H :    0.027694
  11 H :    0.024194
  12 C :   -0.078766
  13 H :    0.031720
  14 H :    0.024066
  15 H :    0.023790
  16 S :    0.464858
  17 C :   -0.204909
  18 C :   -0.069537
  19 C :   -0.053262
  20 C :   -0.214430
  21 H :    0.024811
  22 C :   -0.037016
  23 H :    0.036053
  24 H :    0.023034
  25 C :   -0.032353
  26 H :    0.022851
  27 H :    0.032824
  28 C :   -0.069566
  29 H :    0.020857
  30 H :    0.033712
  31 H :    0.011606
  32 H :    0.032408
  33 H :    0.016712

  Mayer bond orders larger than 0.100000
B(  0-S ,  1-C ) :   1.1264 B(  0-S ,  4-C ) :   1.1331 B(  1-C ,  2-C ) :   1.6330
B(  1-C , 32-H ) :   0.9555 B(  2-C ,  3-C ) :   1.2239 B(  2-C ,  6-C ) :   1.0154
B(  3-C ,  4-C ) :   1.5792 B(  3-C ,  5-H ) :   0.9881 B(  4-C , 20-C ) :   1.0803
B(  6-C ,  7-H ) :   0.9402 B(  6-C ,  8-H ) :   0.9240 B(  6-C ,  9-C ) :   1.0579
B(  9-C , 10-H ) :   0.9585 B(  9-C , 11-H ) :   0.9574 B(  9-C , 12-C ) :   1.0786
B( 12-C , 13-H ) :   0.9748 B( 12-C , 14-H ) :   0.9775 B( 12-C , 15-H ) :   0.9740
B( 16-S , 17-C ) :   1.1850 B( 16-S , 20-C ) :   1.1669 B( 17-C , 18-C ) :   1.5939
B( 17-C , 33-H ) :   0.9706 B( 18-C , 19-C ) :   1.2476 B( 18-C , 21-H ) :   1.0027
B( 19-C , 20-C ) :   1.5405 B( 19-C , 22-C ) :   1.0595 B( 22-C , 23-H ) :   0.9255
B( 22-C , 24-H ) :   0.9232 B( 22-C , 25-C ) :   1.0797 B( 25-C , 26-H ) :   0.9503
B( 25-C , 27-H ) :   0.9479 B( 25-C , 28-C ) :   1.0958 B( 28-C , 29-H ) :   0.9647
B( 28-C , 30-H ) :   0.9654 B( 28-C , 31-H ) :   0.9699

Dispersion correction           -0.015464757
FINAL SINGLE POINT ENERGY     -1339.868630016934

DIPOLE MOMENT
-------------
                                X             Y             Z
Electronic contribution:    -17.09811       6.90982     -11.27412
Nuclear contribution   :     17.50142      -6.86844      11.32624
                        -----------------------------------------
Total Dipole Moment    :      0.40331       0.04138       0.05212
                        -----------------------------------------
Magnitude (a.u.)       :      0.40877
Magnitude (Debye)      :      1.03900

Rotational constants in cm-1:     0.023470     0.007744     0.006890
Rotational constants in MHz :   703.604400   232.167598   206.543087

                             ****ORCA TERMINATED NORMALLY****
TOTAL RUN TIME: 0 days 0 hours 0 minutes 21 seconds 135 msec
