                         Program Version 4.2.1 -  RELEASE  -
|  1> ! wB97X-D3 SP def2-SVP
|  2> %pal
|  3> nprocs 24
|  4> end
|  5>
|  6> * xyz 0 1
|  7> S 	 -105.203 	 -0.701946 	 -104.278
|  8> C 	 -105.333 	 0.240485 	 -102.825
|  9> C 	 -105.278 	 1.57299 	 -103.076
| 10> C 	 -104.857 	 1.83855 	 -104.442
| 11> C 	 -104.892 	 0.731092 	 -105.233
| 12> H 	 -104.718 	 2.76796 	 -104.975
| 13> C 	 -105.468 	 2.69893 	 -102.101
| 14> H 	 -104.557 	 3.21972 	 -102.056
| 15> H 	 -105.537 	 2.22484 	 -101.14
| 16> C 	 -106.613 	 3.59396 	 -102.417
| 17> H 	 -106.71 	 4.27604 	 -101.519
| 18> H 	 -106.376 	 4.09439 	 -103.392
| 19> C 	 -107.877 	 2.85195 	 -102.668
| 20> H 	 -108.727 	 3.51648 	 -102.532
| 21> H 	 -107.835 	 2.46321 	 -103.71
| 22> H 	 -108.149 	 1.98542 	 -102.009
| 23> S 	 -103.012 	 -0.34243 	 -107.089
| 24> C 	 -103.17 	 0.0976102 	 -108.732
| 25> C 	 -104.095 	 1.06735 	 -108.962
| 26> C 	 -104.846 	 1.32737 	 -107.749
| 27> C 	 -104.392 	 0.681221 	 -106.639
| 28> H 	 -104.262 	 1.36159 	 -109.987
| 29> C 	 -105.921 	 2.43473 	 -107.761
| 30> H 	 -105.395 	 3.36979 	 -107.871
| 31> H 	 -106.357 	 2.55144 	 -106.792
| 32> C 	 -106.985 	 2.02263 	 -108.758
| 33> H 	 -107.463 	 1.10934 	 -108.336
| 34> H 	 -106.693 	 1.75157 	 -109.778
| 35> C 	 -108.097 	 3.08671 	 -108.746
| 36> H 	 -107.681 	 3.95419 	 -109.115
| 37> H 	 -108.286 	 3.20082 	 -107.65
| 38> H 	 -108.895 	 2.80986 	 -109.485
| 39> H 	 -105.606 	 -0.27383 	 -101.906
| 40> H 	 -102.703 	 -0.385854 	 -109.589
| 41> *
| 42>
| 43>                          ****END OF INPUT****

CARTESIAN COORDINATES (ANGSTROEM)
---------------------------------
  S    -105.203000   -0.701946  -104.278000
  C    -105.333000    0.240485  -102.825000
  C    -105.278000    1.572990  -103.076000
  C    -104.857000    1.838550  -104.442000
  C    -104.892000    0.731092  -105.233000
  H    -104.718000    2.767960  -104.975000
  C    -105.468000    2.698930  -102.101000
  H    -104.557000    3.219720  -102.056000
  H    -105.537000    2.224840  -101.140000
  C    -106.613000    3.593960  -102.417000
  H    -106.710000    4.276040  -101.519000
  H    -106.376000    4.094390  -103.392000
  C    -107.877000    2.851950  -102.668000
  H    -108.727000    3.516480  -102.532000
  H    -107.835000    2.463210  -103.710000
  H    -108.149000    1.985420  -102.009000
  S    -103.012000   -0.342430  -107.089000
  C    -103.170000    0.097610  -108.732000
  C    -104.095000    1.067350  -108.962000
  C    -104.846000    1.327370  -107.749000
  C    -104.392000    0.681221  -106.639000
  H    -104.262000    1.361590  -109.987000
  C    -105.921000    2.434730  -107.761000
  H    -105.395000    3.369790  -107.871000
  H    -106.357000    2.551440  -106.792000
  C    -106.985000    2.022630  -108.758000
  H    -107.463000    1.109340  -108.336000
  H    -106.693000    1.751570  -109.778000
  C    -108.097000    3.086710  -108.746000
  H    -107.681000    3.954190  -109.115000
  H    -108.286000    3.200820  -107.650000
  H    -108.895000    2.809860  -109.485000
  H    -105.606000   -0.273830  -101.906000
  H    -102.703000   -0.385854  -109.589000

 Total Charge           Charge          ....    0
 Multiplicity           Mult            ....    1
 Number of Electrons    NEL             ....  134
 Basis Dimension        Dim             ....  322

ORBITAL ENERGIES
----------------

  NO   OCC          E(Eh)            E(eV)
   0   2.0000     -88.962664     -2420.7972
   1   2.0000     -88.961738     -2420.7719
   2   2.0000     -10.328766      -281.0600
   3   2.0000     -10.324783      -280.9516
   4   2.0000     -10.313672      -280.6493
   5   2.0000     -10.311346      -280.5860
   6   2.0000     -10.301615      -280.3212
   7   2.0000     -10.300982      -280.3040
   8   2.0000     -10.293611      -280.1034
   9   2.0000     -10.290745      -280.0254
  10   2.0000     -10.289412      -279.9891
  11   2.0000     -10.288438      -279.9626
  12   2.0000     -10.284962      -279.8680
  13   2.0000     -10.280768      -279.7539
  14   2.0000     -10.276948      -279.6500
  15   2.0000     -10.274955      -279.5957
  16   2.0000      -8.078056      -219.8151
  17   2.0000      -8.077028      -219.7871
  18   2.0000      -6.036587      -164.2639
  19   2.0000      -6.035604      -164.2371
  20   2.0000      -6.032516      -164.1531
  21   2.0000      -6.031494      -164.1253
  22   2.0000      -6.028710      -164.0495
  23   2.0000      -6.027640      -164.0204
  24   2.0000      -1.008323       -27.4379
  25   2.0000      -0.989452       -26.9244
  26   2.0000      -0.924419       -25.1547
  27   2.0000      -0.914001       -24.8712
  28   2.0000      -0.871417       -23.7125
  29   2.0000      -0.849828       -23.1250
  30   2.0000      -0.844071       -22.9683
  31   2.0000      -0.819639       -22.3035
  32   2.0000      -0.786083       -21.3904
  33   2.0000      -0.772752       -21.0277
  34   2.0000      -0.702044       -19.1036
  35   2.0000      -0.697986       -18.9932
  36   2.0000      -0.688970       -18.7478
  37   2.0000      -0.653921       -17.7941
  38   2.0000      -0.646954       -17.6045
  39   2.0000      -0.622969       -16.9518
  40   2.0000      -0.598710       -16.2917
  41   2.0000      -0.575314       -15.6551
  42   2.0000      -0.564699       -15.3662
  43   2.0000      -0.556783       -15.1508
  44   2.0000      -0.548293       -14.9198
  45   2.0000      -0.533080       -14.5059
  46   2.0000      -0.519503       -14.1364
  47   2.0000      -0.511805       -13.9269
  48   2.0000      -0.504478       -13.7275
  49   2.0000      -0.501955       -13.6589
  50   2.0000      -0.494045       -13.4436
  51   2.0000      -0.474532       -12.9127
  52   2.0000      -0.469688       -12.7809
  53   2.0000      -0.464737       -12.6461
  54   2.0000      -0.453582       -12.3426
  55   2.0000      -0.447109       -12.1664
  56   2.0000      -0.443789       -12.0761
  57   2.0000      -0.441386       -12.0107
  58   2.0000      -0.433969       -11.8089
  59   2.0000      -0.420926       -11.4540
  60   2.0000      -0.419088       -11.4040
  61   2.0000      -0.414055       -11.2670
  62   2.0000      -0.405388       -11.0312
  63   2.0000      -0.346092        -9.4176
  64   2.0000      -0.330190        -8.9849
  65   2.0000      -0.325460        -8.8562
  66   2.0000      -0.304940        -8.2978
  67   0.0000       0.037545         1.0216
  68   0.0000       0.077695         2.1142
  69   0.0000       0.115850         3.1525
  70   0.0000       0.117482         3.1969
  71   0.0000       0.127209         3.4615

MULLIKEN ATOMIC CHARGES
-----------------------
   0 S :    0.100736
   1 C :   -0.135901
   2 C :   -0.113189
   3 C :    0.022884
   4 C :   -0.162973
   5 H :    0.018301
   6 C :    0.146183
   7 H :    0.019622
   8 H :   -0.000890
   9 C :   -0.087760
  10 H :    0.045648
  11 H :    0.038330
  12 C :   -0.064872
  13 H :    0.031559
  14 H :    0.045931
  15 H :    0.030847
  16 S :    0.111001
  17 C :   -0.091103
  18 C :   -0.030601
  19 C :   -0.068985
  20 C :   -0.147401
  21 H :    0.021331
  22 C :    0.096889
  23 H :    0.035179
  24 H :    0.000054
  25 C :   -0.132496
  26 H :    0.037936
  27 H :    0.034307
  28 C :    0.008579
  29 H :    0.003064
  30 H :    0.031775
  31 H :    0.042551
  32 H :    0.055806
  33 H :    0.057657
Sum of atomic charges:    0.0000000

LOEWDIN ATOMIC CHARGES
----------------------
   0 S :    0.400854
   1 C :   -0.193850
   2 C :   -0.061713
   3 C :   -0.061008
   4 C :   -0.189921
   5 H :    0.031116
   6 C :   -0.030447
   7 H :    0.027691
   8 H :    0.025341
   9 C :   -0.047641
  10 H :    0.033792
  11 H :    0.032167
  12 C :   -0.074127
  13 H :    0.025377
  14 H :    0.032110
  15 H :    0.027241
  16 S :    0.402254
  17 C :   -0.190922
  18 C :   -0.078342
  19 C :   -0.049813
  20 C :   -0.199462
  21 H :    0.032168
  22 C :   -0.028078
  23 H :    0.029612
  24 H :    0.021529
  25 C :   -0.042366
  26 H :    0.032052
  27 H :    0.019779
  28 C :   -0.062200
  29 H :    0.008336
  30 H :    0.032416
  31 H :    0.032916
  32 H :    0.029056
  33 H :    0.034082

  Mayer bond orders larger than 0.100000
B(  0-S ,  1-C ) :   1.1365 B(  0-S ,  4-C ) :   1.1449 B(  1-C ,  2-C ) :   1.6345
B(  1-C , 32-H ) :   0.9650 B(  2-C ,  3-C ) :   1.1896 B(  2-C ,  6-C ) :   1.0172
B(  3-C ,  4-C ) :   1.6190 B(  3-C ,  5-H ) :   0.9874 B(  4-C , 20-C ) :   1.0117
B(  6-C ,  7-H ) :   0.9329 B(  6-C ,  8-H ) :   0.9300 B(  6-C ,  9-C ) :   1.0796
B(  9-C , 10-H ) :   0.9549 B(  9-C , 11-H ) :   0.9519 B(  9-C , 12-C ) :   1.0796
B( 12-C , 13-H ) :   0.9721 B( 12-C , 14-H ) :   0.9654 B( 12-C , 15-H ) :   0.9764
B( 16-S , 17-C ) :   1.1617 B( 16-S , 20-C ) :   1.1114 B( 17-C , 18-C ) :   1.6498
B( 17-C , 33-H ) :   0.9581 B( 18-C , 19-C ) :   1.2020 B( 18-C , 21-H ) :   0.9902
B( 19-C , 20-C ) :   1.6598 B( 19-C , 22-C ) :   1.0355 B( 22-C , 23-H ) :   0.9415
B( 22-C , 24-H ) :   0.9247 B( 22-C , 25-C ) :   1.0475 B( 25-C , 26-H ) :   0.9543
B( 25-C , 27-H ) :   0.9643 B( 25-C , 28-C ) :   1.0785 B( 28-C , 29-H ) :   0.9738
B( 28-C , 30-H ) :   0.9713 B( 28-C , 31-H ) :   0.9722

Dispersion correction           -0.014736259
FINAL SINGLE POINT ENERGY     -1339.870574434006

DIPOLE MOMENT
-------------
                                X             Y             Z
Electronic contribution:     19.88011     -20.46823      -0.86870
Nuclear contribution   :    -20.16987      21.00596       0.83716
                        -----------------------------------------
Total Dipole Moment    :     -0.28975       0.53773      -0.03154
                        -----------------------------------------
Magnitude (a.u.)       :      0.61164
Magnitude (Debye)      :      1.55466

Rotational constants in cm-1:     0.017517     0.009758     0.007023
Rotational constants in MHz :   525.133576   292.549072   210.547539

                             ****ORCA TERMINATED NORMALLY****
TOTAL RUN TIME: 0 days 0 hours 0 minutes 22 seconds 555 msec
