                         Program Version 4.2.1 -  RELEASE  -
|  1> ! wB97X-D3 SP def2-SVP
|  2> %pal
|  3> nprocs 24
|  4> end
|  5>
|  6> * xyz 0 1
|  7> S 	 -85.0414 	 -38.667 	 -72.7143
|  8> C 	 -84.7748 	 -38.7501 	 -74.4136
|  9> C 	 -83.7219 	 -39.5833 	 -74.7042
| 10> C 	 -83.3969 	 -40.3865 	 -73.5883
| 11> C 	 -84.0375 	 -40.0813 	 -72.4313
| 12> H 	 -82.6774 	 -41.0893 	 -73.5192
| 13> C 	 -82.9884 	 -39.6462 	 -75.9489
| 14> H 	 -83.664 	 -39.8353 	 -76.8612
| 15> H 	 -82.3284 	 -40.4693 	 -75.9941
| 16> C 	 -82.0723 	 -38.4789 	 -76.4236
| 17> H 	 -81.577 	 -38.7954 	 -77.3318
| 18> H 	 -82.7707 	 -37.5909 	 -76.7096
| 19> C 	 -81.0938 	 -38.1087 	 -75.3057
| 20> H 	 -80.6126 	 -37.2058 	 -75.6396
| 21> H 	 -81.5978 	 -37.9392 	 -74.3902
| 22> H 	 -80.3793 	 -38.8109 	 -75.124
| 23> S 	 -82.4825 	 -40.0657 	 -70.1505
| 24> C 	 -82.7326 	 -41.2866 	 -68.9379
| 25> C 	 -83.8162 	 -42.0402 	 -69.2092
| 26> C 	 -84.4002 	 -41.7327 	 -70.5063
| 27> C 	 -83.7928 	 -40.6361 	 -71.0991
| 28> H 	 -84.2264 	 -42.7452 	 -68.5293
| 29> C 	 -85.6462 	 -42.4207 	 -70.9904
| 30> H 	 -86.2541 	 -41.7208 	 -71.5834
| 31> H 	 -86.2462 	 -42.7447 	 -70.0974
| 32> C 	 -85.474 	 -43.7414 	 -71.8104
| 33> H 	 -86.4523 	 -44.1988 	 -71.867
| 34> H 	 -84.9341 	 -44.556 	 -71.2121
| 35> C 	 -84.862 	 -43.5852 	 -73.2486
| 36> H 	 -84.533 	 -44.5619 	 -73.626
| 37> H 	 -84.0187 	 -43.0098 	 -73.3114
| 38> H 	 -85.4712 	 -43.1501 	 -74.0031
| 39> H 	 -85.3514 	 -38.1164 	 -75.1129
| 40> H 	 -82.1566 	 -41.5229 	 -68.0364
| 41> *
| 42>
| 43>                          ****END OF INPUT****

CARTESIAN COORDINATES (ANGSTROEM)
---------------------------------
  S    -85.041400  -38.667000  -72.714300
  C    -84.774800  -38.750100  -74.413600
  C    -83.721900  -39.583300  -74.704200
  C    -83.396900  -40.386500  -73.588300
  C    -84.037500  -40.081300  -72.431300
  H    -82.677400  -41.089300  -73.519200
  C    -82.988400  -39.646200  -75.948900
  H    -83.664000  -39.835300  -76.861200
  H    -82.328400  -40.469300  -75.994100
  C    -82.072300  -38.478900  -76.423600
  H    -81.577000  -38.795400  -77.331800
  H    -82.770700  -37.590900  -76.709600
  C    -81.093800  -38.108700  -75.305700
  H    -80.612600  -37.205800  -75.639600
  H    -81.597800  -37.939200  -74.390200
  H    -80.379300  -38.810900  -75.124000
  S    -82.482500  -40.065700  -70.150500
  C    -82.732600  -41.286600  -68.937900
  C    -83.816200  -42.040200  -69.209200
  C    -84.400200  -41.732700  -70.506300
  C    -83.792800  -40.636100  -71.099100
  H    -84.226400  -42.745200  -68.529300
  C    -85.646200  -42.420700  -70.990400
  H    -86.254100  -41.720800  -71.583400
  H    -86.246200  -42.744700  -70.097400
  C    -85.474000  -43.741400  -71.810400
  H    -86.452300  -44.198800  -71.867000
  H    -84.934100  -44.556000  -71.212100
  C    -84.862000  -43.585200  -73.248600
  H    -84.533000  -44.561900  -73.626000
  H    -84.018700  -43.009800  -73.311400
  H    -85.471200  -43.150100  -74.003100
  H    -85.351400  -38.116400  -75.112900
  H    -82.156600  -41.522900  -68.036400

 Total Charge           Charge          ....    0
 Multiplicity           Mult            ....    1
 Number of Electrons    NEL             ....  134
 Basis Dimension        Dim             ....  322

ORBITAL ENERGIES
----------------

  NO   OCC          E(Eh)            E(eV)
   0   2.0000     -88.965672     -2420.8790
   1   2.0000     -88.964020     -2420.8340
   2   2.0000     -10.324642      -280.9478
   3   2.0000     -10.321971      -280.8751
   4   2.0000     -10.315477      -280.6984
   5   2.0000     -10.314597      -280.6744
   6   2.0000     -10.301378      -280.3147
   7   2.0000     -10.296727      -280.1882
   8   2.0000     -10.294032      -280.1148
   9   2.0000     -10.292973      -280.0860
  10   2.0000     -10.292909      -280.0843
  11   2.0000     -10.288437      -279.9626
  12   2.0000     -10.286306      -279.9046
  13   2.0000     -10.283447      -279.8268
  14   2.0000     -10.264202      -279.3031
  15   2.0000     -10.261422      -279.2275
  16   2.0000      -8.081161      -219.8996
  17   2.0000      -8.079299      -219.8489
  18   2.0000      -6.039759      -164.3502
  19   2.0000      -6.037667      -164.2933
  20   2.0000      -6.035475      -164.2336
  21   2.0000      -6.033747      -164.1866
  22   2.0000      -6.031865      -164.1354
  23   2.0000      -6.030154      -164.0888
  24   2.0000      -1.013356       -27.5748
  25   2.0000      -0.992686       -27.0124
  26   2.0000      -0.914179       -24.8761
  27   2.0000      -0.898489       -24.4491
  28   2.0000      -0.873453       -23.7679
  29   2.0000      -0.852781       -23.2054
  30   2.0000      -0.843003       -22.9393
  31   2.0000      -0.822129       -22.3713
  32   2.0000      -0.785469       -21.3737
  33   2.0000      -0.774231       -21.0679
  34   2.0000      -0.707907       -19.2631
  35   2.0000      -0.703439       -19.1416
  36   2.0000      -0.691633       -18.8203
  37   2.0000      -0.659133       -17.9359
  38   2.0000      -0.653899       -17.7935
  39   2.0000      -0.614031       -16.7086
  40   2.0000      -0.590984       -16.0815
  41   2.0000      -0.580803       -15.8045
  42   2.0000      -0.551754       -15.0140
  43   2.0000      -0.544028       -14.8038
  44   2.0000      -0.536752       -14.6058
  45   2.0000      -0.535628       -14.5752
  46   2.0000      -0.518420       -14.1069
  47   2.0000      -0.511820       -13.9273
  48   2.0000      -0.503254       -13.6942
  49   2.0000      -0.500182       -13.6106
  50   2.0000      -0.497409       -13.5352
  51   2.0000      -0.483595       -13.1593
  52   2.0000      -0.472095       -12.8464
  53   2.0000      -0.468723       -12.7546
  54   2.0000      -0.462679       -12.5901
  55   2.0000      -0.446894       -12.1606
  56   2.0000      -0.443736       -12.0747
  57   2.0000      -0.432664       -11.7734
  58   2.0000      -0.429399       -11.6845
  59   2.0000      -0.423123       -11.5138
  60   2.0000      -0.418246       -11.3810
  61   2.0000      -0.413503       -11.2520
  62   2.0000      -0.411469       -11.1966
  63   2.0000      -0.339788        -9.2461
  64   2.0000      -0.329111        -8.9556
  65   2.0000      -0.317038        -8.6271
  66   2.0000      -0.311936        -8.4882
  67   0.0000       0.044210         1.2030
  68   0.0000       0.056090         1.5263
  69   0.0000       0.112169         3.0523
  70   0.0000       0.116898         3.1809
  71   0.0000       0.129239         3.5168

MULLIKEN ATOMIC CHARGES
-----------------------
   0 S :    0.113121
   1 C :   -0.135800
   2 C :   -0.044654
   3 C :    0.087429
   4 C :   -0.187655
   5 H :   -0.025823
   6 C :    0.028468
   7 H :    0.038097
   8 H :    0.001594
   9 C :   -0.092950
  10 H :    0.030885
  11 H :    0.034386
  12 C :    0.005229
  13 H :    0.026769
  14 H :    0.036225
  15 H :    0.007239
  16 S :    0.125516
  17 C :   -0.085705
  18 C :   -0.020923
  19 C :   -0.010839
  20 C :   -0.177603
  21 H :    0.007582
  22 C :    0.037513
  23 H :    0.035302
  24 H :    0.029983
  25 C :   -0.078596
  26 H :    0.024977
  27 H :    0.029318
  28 C :    0.008478
  29 H :    0.020725
  30 H :   -0.013996
  31 H :    0.024170
  32 H :    0.062105
  33 H :    0.059434
Sum of atomic charges:    0.0000000

LOEWDIN ATOMIC CHARGES
----------------------
   0 S :    0.413740
   1 C :   -0.194302
   2 C :   -0.074201
   3 C :   -0.040636
   4 C :   -0.194607
   5 H :    0.012495
   6 C :   -0.046034
   7 H :    0.040922
   8 H :    0.021036
   9 C :   -0.032820
  10 H :    0.022092
  11 H :    0.026607
  12 C :   -0.054399
  13 H :    0.027497
  14 H :    0.025584
  15 H :    0.012205
  16 S :    0.423904
  17 C :   -0.191564
  18 C :   -0.067810
  19 C :   -0.051546
  20 C :   -0.221494
  21 H :    0.026600
  22 C :   -0.036450
  23 H :    0.032317
  24 H :    0.037831
  25 C :   -0.039742
  26 H :    0.021999
  27 H :    0.028738
  28 C :   -0.063179
  29 H :    0.028981
  30 H :    0.009068
  31 H :    0.024287
  32 H :    0.034128
  33 H :    0.038753

  Mayer bond orders larger than 0.100000
B(  0-S ,  1-C ) :   1.1634 B(  0-S ,  4-C ) :   1.1498 B(  1-C ,  2-C ) :   1.5585
B(  1-C , 32-H ) :   0.9716 B(  2-C ,  3-C ) :   1.2373 B(  2-C ,  6-C ) :   1.0520
B(  3-C ,  4-C ) :   1.5912 B(  3-C ,  5-H ) :   1.0103 B(  4-C , 20-C ) :   1.0016
B(  6-C ,  7-H ) :   0.9306 B(  6-C ,  8-H ) :   0.9382 B(  6-C ,  9-C ) :   1.0709
B(  9-C , 10-H ) :   0.9556 B(  9-C , 11-H ) :   0.9566 B(  9-C , 12-C ) :   1.0732
B( 12-C , 13-H ) :   0.9722 B( 12-C , 14-H ) :   0.9737 B( 12-C , 15-H ) :   0.9742
B( 16-S , 17-C ) :   1.1462 B( 16-S , 20-C ) :   1.1456 B( 17-C , 18-C ) :   1.6359
B( 17-C , 33-H ) :   0.9603 B( 18-C , 19-C ) :   1.2347 B( 18-C , 21-H ) :   0.9907
B( 19-C , 20-C ) :   1.6092 B( 19-C , 22-C ) :   1.0487 B( 22-C , 23-H ) :   0.9360
B( 22-C , 24-H ) :   0.9361 B( 22-C , 25-C ) :   1.0742 B( 25-C , 26-H ) :   0.9556
B( 25-C , 27-H ) :   0.9580 B( 25-C , 28-C ) :   1.0639 B( 28-C , 29-H ) :   0.9696
B( 28-C , 30-H ) :   0.9732 B( 28-C , 31-H ) :   0.9742

Dispersion correction           -0.015870170
FINAL SINGLE POINT ENERGY     -1339.864750678445

DIPOLE MOMENT
-------------
                                X             Y             Z
Electronic contribution:     -2.17499       9.69613      17.13268
Nuclear contribution   :      2.25953     -10.03186     -17.36541
                        -----------------------------------------
Total Dipole Moment    :      0.08454      -0.33573      -0.23273
                        -----------------------------------------
Magnitude (a.u.)       :      0.41717
Magnitude (Debye)      :      1.06035

Rotational constants in cm-1:     0.020553     0.009060     0.007796
Rotational constants in MHz :   616.154120   271.601614   233.724533

                             ****ORCA TERMINATED NORMALLY****
TOTAL RUN TIME: 0 days 0 hours 0 minutes 22 seconds 563 msec
