                         Program Version 4.2.1 -  RELEASE  -
|  1> ! wB97X-D3 SP def2-SVP
|  2> %pal
|  3> nprocs 24
|  4> end
|  5>
|  6> * xyz 0 1
|  7> S 	 -59.8318 	 9.60044 	 -15.7171
|  8> C 	 -58.9383 	 8.07602 	 -15.9347
|  9> C 	 -59.7836 	 6.94091 	 -15.7412
| 10> C 	 -61.0843 	 7.3265 	 -15.3446
| 11> C 	 -61.3108 	 8.65846 	 -15.2609
| 12> H 	 -61.9109 	 6.6452 	 -15.1562
| 13> C 	 -59.2212 	 5.57851 	 -15.7077
| 14> H 	 -59.3403 	 5.2367 	 -14.6177
| 15> H 	 -58.1624 	 5.61143 	 -15.7287
| 16> C 	 -59.8382 	 4.55185 	 -16.7597
| 17> H 	 -60.9027 	 4.55094 	 -16.7039
| 18> H 	 -59.569 	 4.79966 	 -17.7537
| 19> C 	 -59.4646 	 3.11227 	 -16.607
| 20> H 	 -59.7914 	 2.81173 	 -15.6004
| 21> H 	 -59.8099 	 2.54476 	 -17.4632
| 22> H 	 -58.3896 	 3.02493 	 -16.6366
| 23> S 	 -62.1196 	 10.5907 	 -13.429
| 24> C 	 -63.8374 	 10.609 	 -13.0127
| 25> C 	 -64.5987 	 9.67027 	 -13.7184
| 26> C 	 -63.8242 	 9.08584 	 -14.7907
| 27> C 	 -62.4269 	 9.34766 	 -14.6439
| 28> H 	 -65.6356 	 9.5993 	 -13.4729
| 29> C 	 -64.488 	 8.04193 	 -15.7139
| 30> H 	 -63.8418 	 7.46264 	 -16.2691
| 31> H 	 -65.0939 	 8.59819 	 -16.4323
| 32> C 	 -65.5401 	 7.0872 	 -15.0222
| 33> H 	 -65.9473 	 6.48914 	 -15.8136
| 34> H 	 -66.3815 	 7.68346 	 -14.6552
| 35> C 	 -65.0356 	 6.31914 	 -13.8403
| 36> H 	 -65.8453 	 5.59756 	 -13.4918
| 37> H 	 -64.6916 	 7.01153 	 -12.9914
| 38> H 	 -64.1554 	 5.7153 	 -14.0528
| 39> H 	 -57.8965 	 7.94522 	 -16.2442
| 40> H 	 -64.1798 	 11.3713 	 -12.3766
| 41> *
| 42>
| 43>                          ****END OF INPUT****

CARTESIAN COORDINATES (ANGSTROEM)
---------------------------------
  S    -59.831800    9.600440  -15.717100
  C    -58.938300    8.076020  -15.934700
  C    -59.783600    6.940910  -15.741200
  C    -61.084300    7.326500  -15.344600
  C    -61.310800    8.658460  -15.260900
  H    -61.910900    6.645200  -15.156200
  C    -59.221200    5.578510  -15.707700
  H    -59.340300    5.236700  -14.617700
  H    -58.162400    5.611430  -15.728700
  C    -59.838200    4.551850  -16.759700
  H    -60.902700    4.550940  -16.703900
  H    -59.569000    4.799660  -17.753700
  C    -59.464600    3.112270  -16.607000
  H    -59.791400    2.811730  -15.600400
  H    -59.809900    2.544760  -17.463200
  H    -58.389600    3.024930  -16.636600
  S    -62.119600   10.590700  -13.429000
  C    -63.837400   10.609000  -13.012700
  C    -64.598700    9.670270  -13.718400
  C    -63.824200    9.085840  -14.790700
  C    -62.426900    9.347660  -14.643900
  H    -65.635600    9.599300  -13.472900
  C    -64.488000    8.041930  -15.713900
  H    -63.841800    7.462640  -16.269100
  H    -65.093900    8.598190  -16.432300
  C    -65.540100    7.087200  -15.022200
  H    -65.947300    6.489140  -15.813600
  H    -66.381500    7.683460  -14.655200
  C    -65.035600    6.319140  -13.840300
  H    -65.845300    5.597560  -13.491800
  H    -64.691600    7.011530  -12.991400
  H    -64.155400    5.715300  -14.052800
  H    -57.896500    7.945220  -16.244200
  H    -64.179800   11.371300  -12.376600

 Total Charge           Charge          ....    0
 Multiplicity           Mult            ....    1
 Number of Electrons    NEL             ....  134
 Basis Dimension        Dim             ....  322

ORBITAL ENERGIES
----------------

  NO   OCC          E(Eh)            E(eV)
   0   2.0000     -88.967573     -2420.9307
   1   2.0000     -88.966263     -2420.8951
   2   2.0000     -10.331693      -281.1397
   3   2.0000     -10.330443      -281.1056
   4   2.0000     -10.320037      -280.8225
   5   2.0000     -10.318081      -280.7693
   6   2.0000     -10.313267      -280.6383
   7   2.0000     -10.302577      -280.3474
   8   2.0000     -10.299687      -280.2687
   9   2.0000     -10.297756      -280.2162
  10   2.0000     -10.293319      -280.0954
  11   2.0000     -10.290603      -280.0215
  12   2.0000     -10.287504      -279.9372
  13   2.0000     -10.284550      -279.8568
  14   2.0000     -10.282785      -279.8088
  15   2.0000     -10.275421      -279.6084
  16   2.0000      -8.081769      -219.9161
  17   2.0000      -8.079514      -219.8548
  18   2.0000      -6.040193      -164.3620
  19   2.0000      -6.038117      -164.3055
  20   2.0000      -6.036400      -164.2588
  21   2.0000      -6.034327      -164.2024
  22   2.0000      -6.032592      -164.1552
  23   2.0000      -6.030178      -164.0895
  24   2.0000      -0.998767       -27.1778
  25   2.0000      -0.975042       -26.5323
  26   2.0000      -0.911019       -24.7901
  27   2.0000      -0.907064       -24.6825
  28   2.0000      -0.870401       -23.6848
  29   2.0000      -0.852446       -23.1962
  30   2.0000      -0.844773       -22.9874
  31   2.0000      -0.818576       -22.2746
  32   2.0000      -0.785304       -21.3692
  33   2.0000      -0.764625       -20.8065
  34   2.0000      -0.708910       -19.2904
  35   2.0000      -0.696955       -18.9651
  36   2.0000      -0.693999       -18.8847
  37   2.0000      -0.656978       -17.8773
  38   2.0000      -0.642851       -17.4929
  39   2.0000      -0.622159       -16.9298
  40   2.0000      -0.602845       -16.4042
  41   2.0000      -0.570531       -15.5249
  42   2.0000      -0.560381       -15.2487
  43   2.0000      -0.546576       -14.8731
  44   2.0000      -0.538691       -14.6585
  45   2.0000      -0.533050       -14.5050
  46   2.0000      -0.525124       -14.2893
  47   2.0000      -0.505066       -13.7435
  48   2.0000      -0.504502       -13.7282
  49   2.0000      -0.501511       -13.6468
  50   2.0000      -0.488849       -13.3023
  51   2.0000      -0.480862       -13.0849
  52   2.0000      -0.471439       -12.8285
  53   2.0000      -0.466418       -12.6919
  54   2.0000      -0.453712       -12.3461
  55   2.0000      -0.448752       -12.2112
  56   2.0000      -0.446520       -12.1504
  57   2.0000      -0.432985       -11.7821
  58   2.0000      -0.431680       -11.7466
  59   2.0000      -0.427865       -11.6428
  60   2.0000      -0.420361       -11.4386
  61   2.0000      -0.418235       -11.3808
  62   2.0000      -0.414083       -11.2678
  63   2.0000      -0.348952        -9.4955
  64   2.0000      -0.332396        -9.0450
  65   2.0000      -0.325755        -8.8643
  66   2.0000      -0.283525        -7.7151
  67   0.0000       0.021456         0.5839
  68   0.0000       0.069114         1.8807
  69   0.0000       0.101297         2.7564
  70   0.0000       0.114641         3.1195
  71   0.0000       0.127149         3.4599

MULLIKEN ATOMIC CHARGES
-----------------------
   0 S :    0.093199
   1 C :   -0.127633
   2 C :   -0.075941
   3 C :    0.043374
   4 C :   -0.147240
   5 H :    0.006494
   6 C :    0.038462
   7 H :    0.042130
   8 H :    0.001581
   9 C :   -0.053468
  10 H :    0.020504
  11 H :    0.018840
  12 C :   -0.031269
  13 H :    0.030134
  14 H :    0.039571
  15 H :    0.016259
  16 S :    0.109852
  17 C :   -0.091504
  18 C :   -0.030280
  19 C :   -0.046901
  20 C :   -0.137763
  21 H :    0.023994
  22 C :    0.097189
  23 H :    0.005794
  24 H :    0.032848
  25 C :   -0.080840
  26 H :    0.027929
  27 H :    0.024057
  28 C :   -0.083670
  29 H :    0.046721
  30 H :    0.056267
  31 H :    0.028158
  32 H :    0.056129
  33 H :    0.047023
Sum of atomic charges:   -0.0000000

LOEWDIN ATOMIC CHARGES
----------------------
   0 S :    0.362831
   1 C :   -0.191357
   2 C :   -0.063479
   3 C :   -0.057297
   4 C :   -0.169266
   5 H :    0.032339
   6 C :   -0.035456
   7 H :    0.043737
   8 H :    0.022919
   9 C :   -0.034821
  10 H :    0.018884
  11 H :    0.020008
  12 C :   -0.061383
  13 H :    0.025744
  14 H :    0.029855
  15 H :    0.019483
  16 S :    0.396416
  17 C :   -0.167908
  18 C :   -0.066516
  19 C :   -0.048474
  20 C :   -0.199692
  21 H :    0.030848
  22 C :   -0.022675
  23 H :    0.013577
  24 H :    0.038314
  25 C :   -0.042274
  26 H :    0.023933
  27 H :    0.021929
  28 C :   -0.079554
  29 H :    0.035386
  30 H :    0.038676
  31 H :    0.017922
  32 H :    0.031168
  33 H :    0.016183

  Mayer bond orders larger than 0.100000
B(  0-S ,  1-C ) :   1.1311 B(  0-S ,  4-C ) :   1.1194 B(  1-C ,  2-C ) :   1.5968
B(  1-C , 32-H ) :   0.9628 B(  2-C ,  3-C ) :   1.2372 B(  2-C ,  6-C ) :   1.0461
B(  3-C ,  4-C ) :   1.5993 B(  3-C ,  5-H ) :   0.9839 B(  4-C , 20-C ) :   1.0626
B(  6-C ,  7-H ) :   0.9405 B(  6-C ,  8-H ) :   0.9377 B(  6-C ,  9-C ) :   1.0345
B(  9-C , 10-H ) :   0.9624 B(  9-C , 11-H ) :   0.9551 B(  9-C , 12-C ) :   1.0945
B( 12-C , 13-H ) :   0.9756 B( 12-C , 14-H ) :   0.9717 B( 12-C , 15-H ) :   0.9730
B( 16-S , 17-C ) :   1.1570 B( 16-S , 20-C ) :   1.1395 B( 17-C , 18-C ) :   1.6001
B( 17-C , 20-C ) :   0.1006 B( 17-C , 33-H ) :   0.9737 B( 18-C , 19-C ) :   1.2305
B( 18-C , 21-H ) :   0.9909 B( 19-C , 20-C ) :   1.5572 B( 19-C , 22-C ) :   1.0416
B( 22-C , 23-H ) :   0.9437 B( 22-C , 24-H ) :   0.9247 B( 22-C , 25-C ) :   1.0787
B( 25-C , 26-H ) :   0.9537 B( 25-C , 27-H ) :   0.9454 B( 25-C , 28-C ) :   1.0844
B( 28-C , 29-H ) :   0.9701 B( 28-C , 30-H ) :   0.9655 B( 28-C , 31-H ) :   0.9726

Dispersion correction           -0.014380937
FINAL SINGLE POINT ENERGY     -1339.864787013685

DIPOLE MOMENT
-------------
                                X             Y             Z
Electronic contribution:      7.83983      29.62430       4.86265
Nuclear contribution   :     -8.17612     -30.26676      -4.92393
                        -----------------------------------------
Total Dipole Moment    :     -0.33629      -0.64246      -0.06129
                        -----------------------------------------
Magnitude (a.u.)       :      0.72773
Magnitude (Debye)      :      1.84975

Rotational constants in cm-1:     0.017836     0.009043     0.006470
Rotational constants in MHz :   534.697329   271.097052   193.956054

                             ****ORCA TERMINATED NORMALLY****
TOTAL RUN TIME: 0 days 0 hours 0 minutes 20 seconds 617 msec
