                         Program Version 4.2.1 -  RELEASE  -
|  1> ! wB97X-D3 SP def2-SVP
|  2> %pal
|  3> nprocs 24
|  4> end
|  5>
|  6> * xyz 0 1
|  7> S 	 -61.4741 	 17.3202 	 22.3925
|  8> C 	 -62.2413 	 16.9113 	 23.985
|  9> C 	 -62.3929 	 18.081 	 24.7002
| 10> C 	 -61.9446 	 19.2245 	 23.9532
| 11> C 	 -61.3936 	 18.9905 	 22.6968
| 12> H 	 -61.9812 	 20.2835 	 24.1745
| 13> C 	 -62.8934 	 18.1015 	 26.1424
| 14> H 	 -63.7513 	 17.4561 	 26.2723
| 15> H 	 -63.2955 	 19.1308 	 26.4122
| 16> C 	 -61.7479 	 17.8864 	 27.1476
| 17> H 	 -61.181 	 17.0695 	 26.8902
| 18> H 	 -61.1138 	 18.7737 	 27.3493
| 19> C 	 -62.3454 	 17.5006 	 28.5373
| 20> H 	 -61.5443 	 17.2191 	 29.2455
| 21> H 	 -62.8683 	 18.3584 	 28.9621
| 22> H 	 -62.9707 	 16.6159 	 28.359
| 23> S 	 -61.7037 	 21.1786 	 20.9934
| 24> C 	 -60.2913 	 22.0541 	 20.4407
| 25> C 	 -59.106 	 21.3455 	 20.6332
| 26> C 	 -59.3984 	 20.1548 	 21.4499
| 27> C 	 -60.7426 	 19.9674 	 21.7753
| 28> H 	 -58.2364 	 21.7329 	 20.1668
| 29> C 	 -58.3011 	 19.2678 	 22.0256
| 30> H 	 -58.4622 	 18.2407 	 21.702
| 31> H 	 -58.3175 	 19.3226 	 23.0795
| 32> C 	 -56.8797 	 19.7356 	 21.6366
| 33> H 	 -56.5865 	 20.6298 	 22.1284
| 34> H 	 -56.7653 	 19.9876 	 20.5523
| 35> C 	 -55.7735 	 18.6557 	 22.0716
| 36> H 	 -55.6528 	 18.5084 	 23.1605
| 37> H 	 -54.7519 	 18.9334 	 21.6473
| 38> H 	 -55.9096 	 17.589 	 21.706
| 39> H 	 -62.403 	 15.9184 	 24.3997
| 40> H 	 -60.2396 	 22.961 	 19.9063
| 41> *
| 42>
| 43>                          ****END OF INPUT****

CARTESIAN COORDINATES (ANGSTROEM)
---------------------------------
  S    -61.474100   17.320200   22.392500
  C    -62.241300   16.911300   23.985000
  C    -62.392900   18.081000   24.700200
  C    -61.944600   19.224500   23.953200
  C    -61.393600   18.990500   22.696800
  H    -61.981200   20.283500   24.174500
  C    -62.893400   18.101500   26.142400
  H    -63.751300   17.456100   26.272300
  H    -63.295500   19.130800   26.412200
  C    -61.747900   17.886400   27.147600
  H    -61.181000   17.069500   26.890200
  H    -61.113800   18.773700   27.349300
  C    -62.345400   17.500600   28.537300
  H    -61.544300   17.219100   29.245500
  H    -62.868300   18.358400   28.962100
  H    -62.970700   16.615900   28.359000
  S    -61.703700   21.178600   20.993400
  C    -60.291300   22.054100   20.440700
  C    -59.106000   21.345500   20.633200
  C    -59.398400   20.154800   21.449900
  C    -60.742600   19.967400   21.775300
  H    -58.236400   21.732900   20.166800
  C    -58.301100   19.267800   22.025600
  H    -58.462200   18.240700   21.702000
  H    -58.317500   19.322600   23.079500
  C    -56.879700   19.735600   21.636600
  H    -56.586500   20.629800   22.128400
  H    -56.765300   19.987600   20.552300
  C    -55.773500   18.655700   22.071600
  H    -55.652800   18.508400   23.160500
  H    -54.751900   18.933400   21.647300
  H    -55.909600   17.589000   21.706000
  H    -62.403000   15.918400   24.399700
  H    -60.239600   22.961000   19.906300

 Total Charge           Charge          ....    0
 Multiplicity           Mult            ....    1
 Number of Electrons    NEL             ....  134
 Basis Dimension        Dim             ....  322

ORBITAL ENERGIES
----------------

  NO   OCC          E(Eh)            E(eV)
   0   2.0000     -88.968067     -2420.9442
   1   2.0000     -88.964859     -2420.8569
   2   2.0000     -10.331212      -281.1266
   3   2.0000     -10.329182      -281.0713
   4   2.0000     -10.320306      -280.8298
   5   2.0000     -10.317076      -280.7419
   6   2.0000     -10.310693      -280.5682
   7   2.0000     -10.307319      -280.4764
   8   2.0000     -10.299731      -280.2699
   9   2.0000     -10.299264      -280.2572
  10   2.0000     -10.294987      -280.1408
  11   2.0000     -10.292290      -280.0675
  12   2.0000     -10.290382      -280.0155
  13   2.0000     -10.286521      -279.9105
  14   2.0000     -10.283996      -279.8418
  15   2.0000     -10.281056      -279.7618
  16   2.0000      -8.082720      -219.9420
  17   2.0000      -8.079246      -219.8475
  18   2.0000      -6.041265      -164.3912
  19   2.0000      -6.037748      -164.2955
  20   2.0000      -6.037129      -164.2786
  21   2.0000      -6.033624      -164.1833
  22   2.0000      -6.033554      -164.1814
  23   2.0000      -6.030174      -164.0894
  24   2.0000      -1.004683       -27.3388
  25   2.0000      -0.983039       -26.7499
  26   2.0000      -0.912944       -24.8425
  27   2.0000      -0.901636       -24.5348
  28   2.0000      -0.869528       -23.6611
  29   2.0000      -0.843579       -22.9550
  30   2.0000      -0.836499       -22.7623
  31   2.0000      -0.817110       -22.2347
  32   2.0000      -0.778834       -21.1931
  33   2.0000      -0.766680       -20.8624
  34   2.0000      -0.706554       -19.2263
  35   2.0000      -0.701097       -19.0778
  36   2.0000      -0.697875       -18.9901
  37   2.0000      -0.655477       -17.8364
  38   2.0000      -0.642115       -17.4728
  39   2.0000      -0.614289       -16.7156
  40   2.0000      -0.593766       -16.1572
  41   2.0000      -0.579370       -15.7655
  42   2.0000      -0.568134       -15.4597
  43   2.0000      -0.563116       -15.3232
  44   2.0000      -0.530074       -14.4240
  45   2.0000      -0.521862       -14.2006
  46   2.0000      -0.514036       -13.9876
  47   2.0000      -0.508934       -13.8488
  48   2.0000      -0.505488       -13.7550
  49   2.0000      -0.498028       -13.5520
  50   2.0000      -0.488797       -13.3008
  51   2.0000      -0.471322       -12.8253
  52   2.0000      -0.467579       -12.7235
  53   2.0000      -0.464421       -12.6375
  54   2.0000      -0.461346       -12.5539
  55   2.0000      -0.449762       -12.2387
  56   2.0000      -0.443168       -12.0592
  57   2.0000      -0.432988       -11.7822
  58   2.0000      -0.432379       -11.7656
  59   2.0000      -0.425186       -11.5699
  60   2.0000      -0.422252       -11.4901
  61   2.0000      -0.413020       -11.2388
  62   2.0000      -0.410537       -11.1713
  63   2.0000      -0.335936        -9.1413
  64   2.0000      -0.330602        -8.9961
  65   2.0000      -0.328597        -8.9416
  66   2.0000      -0.305715        -8.3189
  67   0.0000       0.034664         0.9432
  68   0.0000       0.064015         1.7419
  69   0.0000       0.115939         3.1549
  70   0.0000       0.117568         3.1992
  71   0.0000       0.125544         3.4162

MULLIKEN ATOMIC CHARGES
-----------------------
   0 S :    0.102476
   1 C :   -0.127887
   2 C :   -0.058082
   3 C :    0.045081
   4 C :   -0.180778
   5 H :    0.004422
   6 C :    0.035222
   7 H :    0.032700
   8 H :    0.030454
   9 C :   -0.048989
  10 H :    0.012447
  11 H :    0.044233
  12 C :   -0.077951
  13 H :    0.038444
  14 H :    0.036107
  15 H :    0.033057
  16 S :    0.124337
  17 C :   -0.071122
  18 C :   -0.046067
  19 C :   -0.050451
  20 C :   -0.152752
  21 H :    0.015447
  22 C :    0.114583
  23 H :    0.034337
  24 H :    0.033376
  25 C :   -0.099293
  26 H :    0.027306
  27 H :    0.040501
  28 C :   -0.099008
  29 H :    0.038960
  30 H :    0.038655
  31 H :    0.038049
  32 H :    0.054075
  33 H :    0.038110
Sum of atomic charges:    0.0000000

LOEWDIN ATOMIC CHARGES
----------------------
   0 S :    0.407100
   1 C :   -0.182369
   2 C :   -0.061134
   3 C :   -0.067771
   4 C :   -0.213099
   5 H :    0.029711
   6 C :   -0.032720
   7 H :    0.029062
   8 H :    0.038694
   9 C :   -0.032256
  10 H :    0.009480
  11 H :    0.031356
  12 C :   -0.065292
  13 H :    0.027160
  14 H :    0.022603
  15 H :    0.023186
  16 S :    0.419537
  17 C :   -0.176443
  18 C :   -0.070176
  19 C :   -0.045367
  20 C :   -0.217566
  21 H :    0.029862
  22 C :   -0.029635
  23 H :    0.031509
  24 H :    0.032325
  25 C :   -0.039240
  26 H :    0.020004
  27 H :    0.025841
  28 C :   -0.082280
  29 H :    0.024798
  30 H :    0.030450
  31 H :    0.027931
  32 H :    0.032510
  33 H :    0.022228

  Mayer bond orders larger than 0.100000
B(  0-S ,  1-C ) :   1.1328 B(  0-S ,  4-C ) :   1.1681 B(  1-C ,  2-C ) :   1.6010
B(  1-C , 32-H ) :   0.9725 B(  2-C ,  3-C ) :   1.2318 B(  2-C ,  6-C ) :   1.0233
B(  3-C ,  4-C ) :   1.5865 B(  3-C ,  5-H ) :   0.9962 B(  4-C , 20-C ) :   0.9923
B(  6-C ,  7-H ) :   0.9515 B(  6-C ,  8-H ) :   0.9406 B(  6-C ,  9-C ) :   1.0558
B(  9-C , 10-H ) :   0.9618 B(  9-C , 11-H ) :   0.9569 B(  9-C , 12-C ) :   1.0789
B( 12-C , 13-H ) :   0.9756 B( 12-C , 14-H ) :   0.9773 B( 12-C , 15-H ) :   0.9790
B( 16-S , 17-C ) :   1.1675 B( 16-S , 20-C ) :   1.1374 B( 17-C , 18-C ) :   1.6188
B( 17-C , 33-H ) :   0.9635 B( 18-C , 19-C ) :   1.2204 B( 18-C , 21-H ) :   0.9954
B( 19-C , 20-C ) :   1.6156 B( 19-C , 22-C ) :   1.0346 B( 22-C , 23-H ) :   0.9320
B( 22-C , 24-H ) :   0.9277 B( 22-C , 25-C ) :   1.0848 B( 25-C , 26-H ) :   0.9524
B( 25-C , 27-H ) :   0.9537 B( 25-C , 28-C ) :   1.0646 B( 28-C , 29-H ) :   0.9774
B( 28-C , 30-H ) :   0.9764 B( 28-C , 31-H ) :   0.9783

Dispersion correction           -0.013533215
FINAL SINGLE POINT ENERGY     -1339.866033474239

DIPOLE MOMENT
-------------
                                X             Y             Z
Electronic contribution:    -14.42642       5.56588     -20.27904
Nuclear contribution   :     14.79426      -5.44963      20.76296
                        -----------------------------------------
Total Dipole Moment    :      0.36785       0.11624       0.48392
                        -----------------------------------------
Magnitude (a.u.)       :      0.61887
Magnitude (Debye)      :      1.57304

Rotational constants in cm-1:     0.018158     0.007428     0.006267
Rotational constants in MHz :   544.373076   222.698397   187.880336

                             ****ORCA TERMINATED NORMALLY****
TOTAL RUN TIME: 0 days 0 hours 0 minutes 20 seconds 663 msec
