                         Program Version 4.2.1 -  RELEASE  -
|  1> ! wB97X-D3 SP def2-SVP
|  2> %pal
|  3> nprocs 24
|  4> end
|  5>
|  6> * xyz 0 1
|  7> S 	 -59.2128 	 -2.16904 	 -20.1702
|  8> C 	 -59.0011 	 -1.6805 	 -18.431
|  9> C 	 -58.6347 	 -2.7501 	 -17.6752
| 10> C 	 -58.519 	 -3.96653 	 -18.4664
| 11> C 	 -58.6354 	 -3.80213 	 -19.8487
| 12> H 	 -58.194 	 -4.92689 	 -18.0298
| 13> C 	 -58.351 	 -2.77712 	 -16.1538
| 14> H 	 -59.1296 	 -3.11882 	 -15.5112
| 15> H 	 -58.0495 	 -1.77386 	 -15.7944
| 16> C 	 -57.0715 	 -3.58272 	 -15.9759
| 17> H 	 -57.2359 	 -4.60851 	 -16.2654
| 18> H 	 -56.3662 	 -3.42451 	 -16.7588
| 19> C 	 -56.4412 	 -3.45765 	 -14.5632
| 20> H 	 -55.4879 	 -3.89953 	 -14.5882
| 21> H 	 -56.373 	 -2.40413 	 -14.2201
| 22> H 	 -56.916 	 -4.08705 	 -13.8327
| 23> S 	 -57.1442 	 -5.95887 	 -20.518
| 24> C 	 -57.6302 	 -7.05676 	 -21.79
| 25> C 	 -58.6367 	 -6.49393 	 -22.534
| 26> C 	 -59.0825 	 -5.22505 	 -21.9775
| 27> C 	 -58.3876 	 -4.83033 	 -20.886
| 28> H 	 -59.049 	 -6.90335 	 -23.4257
| 29> C 	 -60.2212 	 -4.42652 	 -22.5297
| 30> H 	 -60.4352 	 -4.8308 	 -23.5173
| 31> H 	 -59.9537 	 -3.37853 	 -22.6296
| 32> C 	 -61.5399 	 -4.45749 	 -21.7542
| 33> H 	 -62.2362 	 -3.77266 	 -22.0909
| 34> H 	 -61.3446 	 -4.01722 	 -20.719
| 35> C 	 -62.0294 	 -5.92597 	 -21.5653
| 36> H 	 -62.9425 	 -5.84097 	 -20.9105
| 37> H 	 -61.3682 	 -6.57446 	 -21.0074
| 38> H 	 -62.2428 	 -6.44406 	 -22.4865
| 39> H 	 -59.1804 	 -0.720507 	 -18.0186
| 40> H 	 -57.1594 	 -7.98693 	 -21.9979
| 41> *
| 42>
| 43>                          ****END OF INPUT****

CARTESIAN COORDINATES (ANGSTROEM)
---------------------------------
  S    -59.212800   -2.169040  -20.170200
  C    -59.001100   -1.680500  -18.431000
  C    -58.634700   -2.750100  -17.675200
  C    -58.519000   -3.966530  -18.466400
  C    -58.635400   -3.802130  -19.848700
  H    -58.194000   -4.926890  -18.029800
  C    -58.351000   -2.777120  -16.153800
  H    -59.129600   -3.118820  -15.511200
  H    -58.049500   -1.773860  -15.794400
  C    -57.071500   -3.582720  -15.975900
  H    -57.235900   -4.608510  -16.265400
  H    -56.366200   -3.424510  -16.758800
  C    -56.441200   -3.457650  -14.563200
  H    -55.487900   -3.899530  -14.588200
  H    -56.373000   -2.404130  -14.220100
  H    -56.916000   -4.087050  -13.832700
  S    -57.144200   -5.958870  -20.518000
  C    -57.630200   -7.056760  -21.790000
  C    -58.636700   -6.493930  -22.534000
  C    -59.082500   -5.225050  -21.977500
  C    -58.387600   -4.830330  -20.886000
  H    -59.049000   -6.903350  -23.425700
  C    -60.221200   -4.426520  -22.529700
  H    -60.435200   -4.830800  -23.517300
  H    -59.953700   -3.378530  -22.629600
  C    -61.539900   -4.457490  -21.754200
  H    -62.236200   -3.772660  -22.090900
  H    -61.344600   -4.017220  -20.719000
  C    -62.029400   -5.925970  -21.565300
  H    -62.942500   -5.840970  -20.910500
  H    -61.368200   -6.574460  -21.007400
  H    -62.242800   -6.444060  -22.486500
  H    -59.180400   -0.720507  -18.018600
  H    -57.159400   -7.986930  -21.997900

 Total Charge           Charge          ....    0
 Multiplicity           Mult            ....    1
 Number of Electrons    NEL             ....  134
 Basis Dimension        Dim             ....  322

ORBITAL ENERGIES
----------------

  NO   OCC          E(Eh)            E(eV)
   0   2.0000     -88.967509     -2420.9290
   1   2.0000     -88.964809     -2420.8555
   2   2.0000     -10.339347      -281.3479
   3   2.0000     -10.324231      -280.9366
   4   2.0000     -10.319036      -280.7952
   5   2.0000     -10.316938      -280.7382
   6   2.0000     -10.305799      -280.4350
   7   2.0000     -10.299296      -280.2581
   8   2.0000     -10.299206      -280.2556
   9   2.0000     -10.297144      -280.1995
  10   2.0000     -10.295644      -280.1587
  11   2.0000     -10.285189      -279.8742
  12   2.0000     -10.280398      -279.7439
  13   2.0000     -10.280208      -279.7387
  14   2.0000     -10.276073      -279.6262
  15   2.0000     -10.274076      -279.5718
  16   2.0000      -8.080506      -219.8818
  17   2.0000      -8.080250      -219.8748
  18   2.0000      -6.039384      -164.3400
  19   2.0000      -6.038780      -164.3236
  20   2.0000      -6.035293      -164.2287
  21   2.0000      -6.034628      -164.2106
  22   2.0000      -6.030960      -164.1108
  23   2.0000      -6.030951      -164.1105
  24   2.0000      -1.009964       -27.4825
  25   2.0000      -0.981711       -26.7137
  26   2.0000      -0.913589       -24.8600
  27   2.0000      -0.907773       -24.7017
  28   2.0000      -0.871825       -23.7236
  29   2.0000      -0.844913       -22.9913
  30   2.0000      -0.837914       -22.8008
  31   2.0000      -0.814806       -22.1720
  32   2.0000      -0.783872       -21.3302
  33   2.0000      -0.776271       -21.1234
  34   2.0000      -0.716734       -19.5033
  35   2.0000      -0.702409       -19.1135
  36   2.0000      -0.690186       -18.7809
  37   2.0000      -0.677120       -18.4254
  38   2.0000      -0.634583       -17.2679
  39   2.0000      -0.618688       -16.8354
  40   2.0000      -0.592333       -16.1182
  41   2.0000      -0.573176       -15.5969
  42   2.0000      -0.563469       -15.3328
  43   2.0000      -0.552094       -15.0232
  44   2.0000      -0.546977       -14.8840
  45   2.0000      -0.523295       -14.2396
  46   2.0000      -0.516689       -14.0598
  47   2.0000      -0.510300       -13.8860
  48   2.0000      -0.502943       -13.6858
  49   2.0000      -0.496683       -13.5154
  50   2.0000      -0.491238       -13.3673
  51   2.0000      -0.482677       -13.1343
  52   2.0000      -0.475820       -12.9477
  53   2.0000      -0.471102       -12.8193
  54   2.0000      -0.463559       -12.6141
  55   2.0000      -0.449732       -12.2378
  56   2.0000      -0.442788       -12.0489
  57   2.0000      -0.438830       -11.9412
  58   2.0000      -0.430320       -11.7096
  59   2.0000      -0.419535       -11.4161
  60   2.0000      -0.414335       -11.2746
  61   2.0000      -0.409256       -11.1364
  62   2.0000      -0.404367       -11.0034
  63   2.0000      -0.355137        -9.6638
  64   2.0000      -0.330963        -9.0060
  65   2.0000      -0.329662        -8.9706
  66   2.0000      -0.294710        -8.0195
  67   0.0000       0.024898         0.6775
  68   0.0000       0.078716         2.1420
  69   0.0000       0.105319         2.8659
  70   0.0000       0.119214         3.2440
  71   0.0000       0.126249         3.4354

MULLIKEN ATOMIC CHARGES
-----------------------
   0 S :    0.078171
   1 C :   -0.102256
   2 C :   -0.081757
   3 C :   -0.005757
   4 C :   -0.135254
   5 H :    0.028798
   6 C :    0.111695
   7 H :    0.043041
   8 H :    0.017391
   9 C :   -0.136203
  10 H :    0.015765
  11 H :    0.025280
  12 C :    0.000076
  13 H :    0.016704
  14 H :    0.039841
  15 H :    0.024758
  16 S :    0.094469
  17 C :   -0.080669
  18 C :    0.002428
  19 C :   -0.084117
  20 C :   -0.108017
  21 H :    0.007812
  22 C :    0.060629
  23 H :    0.009531
  24 H :    0.035032
  25 C :   -0.051203
  26 H :    0.014740
  27 H :    0.035550
  28 C :   -0.061815
  29 H :    0.035367
  30 H :    0.041799
  31 H :    0.025549
  32 H :    0.031992
  33 H :    0.050633
Sum of atomic charges:    0.0000000

LOEWDIN ATOMIC CHARGES
----------------------
   0 S :    0.374334
   1 C :   -0.168322
   2 C :   -0.056899
   3 C :   -0.074001
   4 C :   -0.178901
   5 H :    0.027534
   6 C :   -0.021232
   7 H :    0.029439
   8 H :    0.030755
   9 C :   -0.048266
  10 H :    0.019352
  11 H :    0.023955
  12 C :   -0.061646
  13 H :    0.022974
  14 H :    0.029462
  15 H :    0.024557
  16 S :    0.422766
  17 C :   -0.176102
  18 C :   -0.061298
  19 C :   -0.059971
  20 C :   -0.200660
  21 H :    0.027029
  22 C :   -0.037792
  23 H :    0.026873
  24 H :    0.025206
  25 C :   -0.038920
  26 H :    0.014285
  27 H :    0.026728
  28 C :   -0.067373
  29 H :    0.032703
  30 H :    0.025796
  31 H :    0.017803
  32 H :    0.023922
  33 H :    0.025910

  Mayer bond orders larger than 0.100000
B(  0-S ,  1-C ) :   1.0975 B(  0-S ,  4-C ) :   1.1337 B(  1-C ,  2-C ) :   1.6758
B(  1-C , 32-H ) :   0.9721 B(  2-C ,  3-C ) :   1.2049 B(  2-C ,  6-C ) :   1.0095
B(  3-C ,  4-C ) :   1.6033 B(  3-C ,  5-H ) :   0.9759 B(  4-C , 20-C ) :   1.0176
B(  6-C ,  7-H ) :   0.9435 B(  6-C ,  8-H ) :   0.9487 B(  6-C ,  9-C ) :   1.0539
B(  9-C , 10-H ) :   0.9427 B(  9-C , 11-H ) :   0.9591 B(  9-C , 12-C ) :   1.0838
B( 12-C , 13-H ) :   0.9685 B( 12-C , 14-H ) :   0.9755 B( 12-C , 15-H ) :   0.9715
B( 16-S , 17-C ) :   1.1588 B( 16-S , 20-C ) :   1.1352 B( 17-C , 18-C ) :   1.5916
B( 17-C , 33-H ) :   0.9735 B( 18-C , 19-C ) :   1.2446 B( 18-C , 21-H ) :   0.9948
B( 19-C , 20-C ) :   1.6083 B( 19-C , 22-C ) :   1.0426 B( 22-C , 23-H ) :   0.9279
B( 22-C , 24-H ) :   0.9383 B( 22-C , 25-C ) :   1.0762 B( 25-C , 26-H ) :   0.9567
B( 25-C , 27-H ) :   0.9475 B( 25-C , 28-C ) :   1.0628 B( 28-C , 29-H ) :   0.9745
B( 28-C , 30-H ) :   0.9740 B( 28-C , 31-H ) :   0.9788

Dispersion correction           -0.014984605
FINAL SINGLE POINT ENERGY     -1339.873786258501

DIPOLE MOMENT
-------------
                                X             Y             Z
Electronic contribution:      6.41184       1.77478     -12.35403
Nuclear contribution   :     -6.50400      -1.98560      12.61975
                        -----------------------------------------
Total Dipole Moment    :     -0.09216      -0.21083       0.26573
                        -----------------------------------------
Magnitude (a.u.)       :      0.35150
Magnitude (Debye)      :      0.89344

Rotational constants in cm-1:     0.021316     0.008624     0.007018
Rotational constants in MHz :   639.042038   258.551091   210.403838

                             ****ORCA TERMINATED NORMALLY****
TOTAL RUN TIME: 0 days 0 hours 0 minutes 22 seconds 232 msec
