                         Program Version 4.2.1 -  RELEASE  -
|  1> ! wB97X-D3 SP def2-SVP
|  2> %pal
|  3> nprocs 24
|  4> end
|  5>
|  6> * xyz 0 1
|  7> S 	 -144.359 	 26.1745 	 -16.8357
|  8> C 	 -144.26 	 24.4517 	 -17.1812
|  9> C 	 -143.236 	 23.8426 	 -16.5313
| 10> C 	 -142.411 	 24.7675 	 -15.8074
| 11> C 	 -142.812 	 26.067 	 -15.9407
| 12> H 	 -141.563 	 24.6266 	 -15.2162
| 13> C 	 -142.872 	 22.3859 	 -16.5643
| 14> H 	 -143.801 	 21.8524 	 -16.7712
| 15> H 	 -142.574 	 22.0743 	 -15.5564
| 16> C 	 -141.843 	 21.906 	 -17.6038
| 17> H 	 -142.229 	 22.0688 	 -18.6042
| 18> H 	 -140.963 	 22.4851 	 -17.571
| 19> C 	 -141.584 	 20.4253 	 -17.54
| 20> H 	 -142.519 	 19.9129 	 -17.6118
| 21> H 	 -141.003 	 20.0467 	 -18.4464
| 22> H 	 -140.97 	 20.091 	 -16.6818
| 23> S 	 -143.383 	 28.2245 	 -14.4446
| 24> C 	 -142.177 	 29.3267 	 -13.8968
| 25> C 	 -140.983 	 28.9603 	 -14.4302
| 26> C 	 -141.003 	 27.8052 	 -15.305
| 27> C 	 -142.223 	 27.2161 	 -15.3207
| 28> H 	 -140.159 	 29.6191 	 -14.2416
| 29> C 	 -139.687 	 27.2957 	 -16.0465
| 30> H 	 -140.091 	 26.5688 	 -16.8239
| 31> H 	 -139.072 	 26.7201 	 -15.325
| 32> C 	 -138.719 	 28.28 	 -16.7517
| 33> H 	 -138.253 	 28.8763 	 -15.978
| 34> H 	 -139.355 	 28.8825 	 -17.4218
| 35> C 	 -137.574 	 27.5608 	 -17.4925
| 36> H 	 -136.786 	 28.3762 	 -17.5916
| 37> H 	 -137.757 	 27.1684 	 -18.533
| 38> H 	 -137.1 	 26.7064 	 -16.8951
| 39> H 	 -144.846 	 23.9451 	 -17.9123
| 40> H 	 -142.274 	 30.2695 	 -13.3939
| 41> *
| 42>
| 43>                          ****END OF INPUT****

CARTESIAN COORDINATES (ANGSTROEM)
---------------------------------
  S    -144.359000   26.174500  -16.835700
  C    -144.260000   24.451700  -17.181200
  C    -143.236000   23.842600  -16.531300
  C    -142.411000   24.767500  -15.807400
  C    -142.812000   26.067000  -15.940700
  H    -141.563000   24.626600  -15.216200
  C    -142.872000   22.385900  -16.564300
  H    -143.801000   21.852400  -16.771200
  H    -142.574000   22.074300  -15.556400
  C    -141.843000   21.906000  -17.603800
  H    -142.229000   22.068800  -18.604200
  H    -140.963000   22.485100  -17.571000
  C    -141.584000   20.425300  -17.540000
  H    -142.519000   19.912900  -17.611800
  H    -141.003000   20.046700  -18.446400
  H    -140.970000   20.091000  -16.681800
  S    -143.383000   28.224500  -14.444600
  C    -142.177000   29.326700  -13.896800
  C    -140.983000   28.960300  -14.430200
  C    -141.003000   27.805200  -15.305000
  C    -142.223000   27.216100  -15.320700
  H    -140.159000   29.619100  -14.241600
  C    -139.687000   27.295700  -16.046500
  H    -140.091000   26.568800  -16.823900
  H    -139.072000   26.720100  -15.325000
  C    -138.719000   28.280000  -16.751700
  H    -138.253000   28.876300  -15.978000
  H    -139.355000   28.882500  -17.421800
  C    -137.574000   27.560800  -17.492500
  H    -136.786000   28.376200  -17.591600
  H    -137.757000   27.168400  -18.533000
  H    -137.100000   26.706400  -16.895100
  H    -144.846000   23.945100  -17.912300
  H    -142.274000   30.269500  -13.393900

 Total Charge           Charge          ....    0
 Multiplicity           Mult            ....    1
 Number of Electrons    NEL             ....  134
 Basis Dimension        Dim             ....  322

ORBITAL ENERGIES
----------------

  NO   OCC          E(Eh)            E(eV)
   0   2.0000     -88.965592     -2420.8768
   1   2.0000     -88.958944     -2420.6959
   2   2.0000     -10.328334      -281.0483
   3   2.0000     -10.324467      -280.9430
   4   2.0000     -10.312128      -280.6073
   5   2.0000     -10.311033      -280.5775
   6   2.0000     -10.308098      -280.4976
   7   2.0000     -10.302343      -280.3410
   8   2.0000     -10.299572      -280.2656
   9   2.0000     -10.295545      -280.1560
  10   2.0000     -10.293613      -280.1034
  11   2.0000     -10.291683      -280.0509
  12   2.0000     -10.289497      -279.9915
  13   2.0000     -10.288468      -279.9635
  14   2.0000     -10.281860      -279.7836
  15   2.0000     -10.281733      -279.7802
  16   2.0000      -8.079759      -219.8614
  17   2.0000      -8.074372      -219.7148
  18   2.0000      -6.038399      -164.3132
  19   2.0000      -6.034517      -164.2076
  20   2.0000      -6.032988      -164.1659
  21   2.0000      -6.030219      -164.0906
  22   2.0000      -6.028767      -164.0511
  23   2.0000      -6.024944      -163.9470
  24   2.0000      -1.009405       -27.4673
  25   2.0000      -0.985222       -26.8093
  26   2.0000      -0.914446       -24.8833
  27   2.0000      -0.900546       -24.5051
  28   2.0000      -0.877753       -23.8849
  29   2.0000      -0.853342       -23.2206
  30   2.0000      -0.842062       -22.9137
  31   2.0000      -0.820085       -22.3156
  32   2.0000      -0.777609       -21.1598
  33   2.0000      -0.770500       -20.9664
  34   2.0000      -0.709945       -19.3186
  35   2.0000      -0.703451       -19.1419
  36   2.0000      -0.692697       -18.8492
  37   2.0000      -0.658438       -17.9170
  38   2.0000      -0.647074       -17.6078
  39   2.0000      -0.619795       -16.8655
  40   2.0000      -0.589909       -16.0522
  41   2.0000      -0.571068       -15.5396
  42   2.0000      -0.569483       -15.4964
  43   2.0000      -0.564456       -15.3596
  44   2.0000      -0.524676       -14.2772
  45   2.0000      -0.521997       -14.2043
  46   2.0000      -0.517459       -14.0808
  47   2.0000      -0.513144       -13.9634
  48   2.0000      -0.505434       -13.7536
  49   2.0000      -0.503713       -13.7067
  50   2.0000      -0.489152       -13.3105
  51   2.0000      -0.477567       -12.9953
  52   2.0000      -0.476331       -12.9616
  53   2.0000      -0.468376       -12.7452
  54   2.0000      -0.459199       -12.4954
  55   2.0000      -0.446943       -12.1619
  56   2.0000      -0.440506       -11.9868
  57   2.0000      -0.432029       -11.7561
  58   2.0000      -0.429201       -11.6791
  59   2.0000      -0.426572       -11.6076
  60   2.0000      -0.420576       -11.4444
  61   2.0000      -0.418581       -11.3902
  62   2.0000      -0.410302       -11.1649
  63   2.0000      -0.352669        -9.5966
  64   2.0000      -0.331634        -9.0242
  65   2.0000      -0.327664        -8.9162
  66   2.0000      -0.295924        -8.0525
  67   0.0000       0.032389         0.8814
  68   0.0000       0.068945         1.8761
  69   0.0000       0.110487         3.0065
  70   0.0000       0.127201         3.4613
  71   0.0000       0.132228         3.5981

MULLIKEN ATOMIC CHARGES
-----------------------
   0 S :    0.104660
   1 C :   -0.104371
   2 C :   -0.062817
   3 C :    0.050387
   4 C :   -0.147865
   5 H :   -0.009827
   6 C :    0.059090
   7 H :    0.011207
   8 H :    0.026508
   9 C :   -0.022032
  10 H :    0.015592
  11 H :    0.014497
  12 C :   -0.066828
  13 H :    0.025132
  14 H :    0.037653
  15 H :    0.039952
  16 S :    0.086941
  17 C :   -0.069100
  18 C :   -0.052467
  19 C :   -0.001371
  20 C :   -0.169794
  21 H :    0.009368
  22 C :    0.005008
  23 H :    0.041294
  24 H :    0.038487
  25 C :   -0.058001
  26 H :    0.033424
  27 H :    0.044341
  28 C :   -0.108072
  29 H :    0.043648
  30 H :    0.053275
  31 H :    0.043966
  32 H :    0.035430
  33 H :    0.052684
Sum of atomic charges:   -0.0000000

LOEWDIN ATOMIC CHARGES
----------------------
   0 S :    0.377695
   1 C :   -0.182249
   2 C :   -0.062441
   3 C :   -0.047226
   4 C :   -0.176777
   5 H :    0.025147
   6 C :   -0.031400
   7 H :    0.028553
   8 H :    0.032010
   9 C :   -0.037863
  10 H :    0.025410
  11 H :    0.016192
  12 C :   -0.068758
  13 H :    0.021214
  14 H :    0.034570
  15 H :    0.026094
  16 S :    0.398095
  17 C :   -0.191095
  18 C :   -0.076342
  19 C :   -0.060082
  20 C :   -0.188077
  21 H :    0.025301
  22 C :   -0.038528
  23 H :    0.034860
  24 H :    0.028894
  25 C :   -0.043752
  26 H :    0.022854
  27 H :    0.031199
  28 C :   -0.080092
  29 H :    0.034742
  30 H :    0.030999
  31 H :    0.032495
  32 H :    0.024673
  33 H :    0.033682

  Mayer bond orders larger than 0.100000
B(  0-S ,  1-C ) :   1.1165 B(  0-S ,  4-C ) :   1.1185 B(  1-C ,  2-C ) :   1.6574
B(  1-C , 32-H ) :   0.9686 B(  2-C ,  3-C ) :   1.1794 B(  2-C ,  6-C ) :   1.0328
B(  3-C ,  4-C ) :   1.6153 B(  3-C ,  5-H ) :   1.0085 B(  4-C , 20-C ) :   1.0502
B(  6-C ,  7-H ) :   0.9330 B(  6-C ,  8-H ) :   0.9405 B(  6-C ,  9-C ) :   1.0646
B(  9-C , 10-H ) :   0.9497 B(  9-C , 11-H ) :   0.9550 B(  9-C , 12-C ) :   1.0887
B( 12-C , 13-H ) :   0.9720 B( 12-C , 14-H ) :   0.9731 B( 12-C , 15-H ) :   0.9754
B( 16-S , 17-C ) :   1.1379 B( 16-S , 20-C ) :   1.1227 B( 17-C , 18-C ) :   1.6514
B( 17-C , 33-H ) :   0.9666 B( 18-C , 19-C ) :   1.2021 B( 18-C , 21-H ) :   0.9903
B( 19-C , 20-C ) :   1.6429 B( 19-C , 22-C ) :   1.0184 B( 22-C , 23-H ) :   0.9439
B( 22-C , 24-H ) :   0.9410 B( 22-C , 25-C ) :   1.0672 B( 25-C , 26-H ) :   0.9530
B( 25-C , 27-H ) :   0.9569 B( 25-C , 28-C ) :   1.0739 B( 28-C , 29-H ) :   0.9765
B( 28-C , 30-H ) :   0.9756 B( 28-C , 31-H ) :   0.9718

Dispersion correction           -0.013172198
FINAL SINGLE POINT ENERGY     -1339.878172157187

DIPOLE MOMENT
-------------
                                X             Y             Z
Electronic contribution:    -23.65609      17.38541      10.37393
Nuclear contribution   :     24.31704     -17.65946     -10.57033
                        -----------------------------------------
Total Dipole Moment    :      0.66095      -0.27404      -0.19640
                        -----------------------------------------
Magnitude (a.u.)       :      0.74197
Magnitude (Debye)      :      1.88594

Rotational constants in cm-1:     0.016354     0.008394     0.006083
Rotational constants in MHz :   490.291946   251.649857   182.370003

                             ****ORCA TERMINATED NORMALLY****
TOTAL RUN TIME: 0 days 0 hours 0 minutes 20 seconds 549 msec
