                         Program Version 4.2.1 -  RELEASE  -
|  1> ! wB97X-D3 SP def2-SVP
|  2> %pal
|  3> nprocs 24
|  4> end
|  5>
|  6> * xyz 0 1
|  7> S 	 -45.3925 	 26.1606 	 30.0034
|  8> C 	 -46.5586 	 26.4581 	 28.7231
|  9> C 	 -47.8604 	 26.2123 	 29.1726
| 10> C 	 -47.8519 	 26.0294 	 30.6103
| 11> C 	 -46.5819 	 26.1821 	 31.1973
| 12> H 	 -48.7378 	 26.0674 	 31.2622
| 13> C 	 -49.1376 	 26.1742 	 28.2344
| 14> H 	 -50.0605 	 25.8393 	 28.7941
| 15> H 	 -48.9174 	 25.3901 	 27.5644
| 16> C 	 -49.4797 	 27.4483 	 27.4592
| 17> H 	 -49.577 	 28.2598 	 28.1683
| 18> H 	 -48.8338 	 27.6661 	 26.6384
| 19> C 	 -50.8901 	 27.3839 	 26.8824
| 20> H 	 -51.0702 	 28.267 	 26.342
| 21> H 	 -51.0838 	 26.6094 	 26.1867
| 22> H 	 -51.6506 	 27.2637 	 27.6322
| 23> S 	 -45.7126 	 27.9206 	 33.0486
| 24> C 	 -45.3811 	 27.2795 	 34.7226
| 25> C 	 -46.1114 	 26.1376 	 34.9646
| 26> C 	 -46.5935 	 25.5371 	 33.6824
| 27> C 	 -46.3495 	 26.3524 	 32.6139
| 28> H 	 -46.0901 	 25.8451 	 35.9912
| 29> C 	 -47.5595 	 24.3625 	 33.6409
| 30> H 	 -48.0537 	 24.4115 	 32.6983
| 31> H 	 -48.3552 	 24.4414 	 34.3953
| 32> C 	 -46.9858 	 22.9685 	 33.8259
| 33> H 	 -46.5316 	 22.9319 	 34.8001
| 34> H 	 -46.1981 	 22.8768 	 33.1213
| 35> C 	 -48.1251 	 21.9328 	 33.705
| 36> H 	 -48.4722 	 22.03 	 32.6947
| 37> H 	 -48.9468 	 22.096 	 34.4256
| 38> H 	 -47.641 	 20.945 	 33.8315
| 39> H 	 -46.3275 	 26.5137 	 27.6325
| 40> H 	 -44.7608 	 27.722 	 35.4481
| 41> *
| 42>
| 43>                          ****END OF INPUT****

CARTESIAN COORDINATES (ANGSTROEM)
---------------------------------
  S    -45.392500   26.160600   30.003400
  C    -46.558600   26.458100   28.723100
  C    -47.860400   26.212300   29.172600
  C    -47.851900   26.029400   30.610300
  C    -46.581900   26.182100   31.197300
  H    -48.737800   26.067400   31.262200
  C    -49.137600   26.174200   28.234400
  H    -50.060500   25.839300   28.794100
  H    -48.917400   25.390100   27.564400
  C    -49.479700   27.448300   27.459200
  H    -49.577000   28.259800   28.168300
  H    -48.833800   27.666100   26.638400
  C    -50.890100   27.383900   26.882400
  H    -51.070200   28.267000   26.342000
  H    -51.083800   26.609400   26.186700
  H    -51.650600   27.263700   27.632200
  S    -45.712600   27.920600   33.048600
  C    -45.381100   27.279500   34.722600
  C    -46.111400   26.137600   34.964600
  C    -46.593500   25.537100   33.682400
  C    -46.349500   26.352400   32.613900
  H    -46.090100   25.845100   35.991200
  C    -47.559500   24.362500   33.640900
  H    -48.053700   24.411500   32.698300
  H    -48.355200   24.441400   34.395300
  C    -46.985800   22.968500   33.825900
  H    -46.531600   22.931900   34.800100
  H    -46.198100   22.876800   33.121300
  C    -48.125100   21.932800   33.705000
  H    -48.472200   22.030000   32.694700
  H    -48.946800   22.096000   34.425600
  H    -47.641000   20.945000   33.831500
  H    -46.327500   26.513700   27.632500
  H    -44.760800   27.722000   35.448100

 Total Charge           Charge          ....    0
 Multiplicity           Mult            ....    1
 Number of Electrons    NEL             ....  134
 Basis Dimension        Dim             ....  322

ORBITAL ENERGIES
----------------

  NO   OCC          E(Eh)            E(eV)
   0   2.0000     -88.967813     -2420.9373
   1   2.0000     -88.959835     -2420.7202
   2   2.0000     -10.324789      -280.9518
   3   2.0000     -10.323666      -280.9212
   4   2.0000     -10.317683      -280.7584
   5   2.0000     -10.316694      -280.7315
   6   2.0000     -10.309869      -280.5458
   7   2.0000     -10.307571      -280.4833
   8   2.0000     -10.299369      -280.2601
   9   2.0000     -10.298252      -280.2297
  10   2.0000     -10.298049      -280.2242
  11   2.0000     -10.285346      -279.8785
  12   2.0000     -10.283075      -279.8167
  13   2.0000     -10.279129      -279.7093
  14   2.0000     -10.274858      -279.5931
  15   2.0000     -10.268548      -279.4214
  16   2.0000      -8.083350      -219.9591
  17   2.0000      -8.074103      -219.7075
  18   2.0000      -6.041790      -164.4055
  19   2.0000      -6.037682      -164.2937
  20   2.0000      -6.034182      -164.1985
  21   2.0000      -6.032792      -164.1606
  22   2.0000      -6.029026      -164.0581
  23   2.0000      -6.024330      -163.9304
  24   2.0000      -1.007833       -27.4245
  25   2.0000      -0.977630       -26.6027
  26   2.0000      -0.912424       -24.8283
  27   2.0000      -0.908662       -24.7260
  28   2.0000      -0.871850       -23.7243
  29   2.0000      -0.848908       -23.1000
  30   2.0000      -0.841069       -22.8866
  31   2.0000      -0.812922       -22.1207
  32   2.0000      -0.784425       -21.3453
  33   2.0000      -0.767720       -20.8907
  34   2.0000      -0.704956       -19.1828
  35   2.0000      -0.702652       -19.1201
  36   2.0000      -0.693185       -18.8625
  37   2.0000      -0.660127       -17.9630
  38   2.0000      -0.638172       -17.3655
  39   2.0000      -0.612293       -16.6613
  40   2.0000      -0.589589       -16.0435
  41   2.0000      -0.579259       -15.7624
  42   2.0000      -0.573091       -15.5946
  43   2.0000      -0.564219       -15.3532
  44   2.0000      -0.529459       -14.4073
  45   2.0000      -0.521818       -14.1994
  46   2.0000      -0.519069       -14.1246
  47   2.0000      -0.510819       -13.9001
  48   2.0000      -0.501038       -13.6339
  49   2.0000      -0.495023       -13.4702
  50   2.0000      -0.490237       -13.3400
  51   2.0000      -0.477420       -12.9913
  52   2.0000      -0.470410       -12.8005
  53   2.0000      -0.462223       -12.5777
  54   2.0000      -0.459420       -12.5014
  55   2.0000      -0.446084       -12.1386
  56   2.0000      -0.442458       -12.0399
  57   2.0000      -0.436582       -11.8800
  58   2.0000      -0.431447       -11.7403
  59   2.0000      -0.431061       -11.7298
  60   2.0000      -0.423568       -11.5259
  61   2.0000      -0.419071       -11.4035
  62   2.0000      -0.411609       -11.2005
  63   2.0000      -0.336864        -9.1665
  64   2.0000      -0.328633        -8.9425
  65   2.0000      -0.321267        -8.7421
  66   2.0000      -0.299044        -8.1374
  67   0.0000       0.027551         0.7497
  68   0.0000       0.066895         1.8203
  69   0.0000       0.092246         2.5101
  70   0.0000       0.108001         2.9389
  71   0.0000       0.138930         3.7805

MULLIKEN ATOMIC CHARGES
-----------------------
   0 S :    0.142827
   1 C :   -0.140246
   2 C :   -0.092909
   3 C :    0.033394
   4 C :   -0.182522
   5 H :    0.032141
   6 C :    0.060060
   7 H :    0.027836
   8 H :    0.025724
   9 C :   -0.046909
  10 H :    0.034913
  11 H :    0.030499
  12 C :   -0.035687
  13 H :    0.020680
  14 H :    0.013261
  15 H :    0.021665
  16 S :    0.095324
  17 C :   -0.093637
  18 C :   -0.016369
  19 C :    0.008750
  20 C :   -0.174177
  21 H :    0.020953
  22 C :    0.046217
  23 H :   -0.007962
  24 H :    0.023904
  25 C :   -0.064222
  26 H :    0.017042
  27 H :    0.021667
  28 C :   -0.035618
  29 H :    0.028953
  30 H :    0.039263
  31 H :    0.041354
  32 H :    0.062631
  33 H :    0.041201
Sum of atomic charges:    0.0000000

LOEWDIN ATOMIC CHARGES
----------------------
   0 S :    0.441193
   1 C :   -0.209219
   2 C :   -0.059931
   3 C :   -0.069137
   4 C :   -0.226482
   5 H :    0.032210
   6 C :   -0.028437
   7 H :    0.036037
   8 H :    0.025775
   9 C :   -0.032956
  10 H :    0.029590
  11 H :    0.022146
  12 C :   -0.058358
  13 H :    0.022027
  14 H :    0.016844
  15 H :    0.021235
  16 S :    0.366959
  17 C :   -0.151006
  18 C :   -0.061710
  19 C :   -0.049522
  20 C :   -0.194623
  21 H :    0.031684
  22 C :   -0.032688
  23 H :    0.019938
  24 H :    0.031516
  25 C :   -0.035467
  26 H :    0.016836
  27 H :    0.019266
  28 C :   -0.060840
  29 H :    0.023281
  30 H :    0.028087
  31 H :    0.031052
  32 H :    0.035755
  33 H :    0.018944

  Mayer bond orders larger than 0.100000
B(  0-S ,  1-C ) :   1.1454 B(  0-S ,  4-C ) :   1.1845 B(  1-C ,  2-C ) :   1.5947
B(  1-C , 32-H ) :   0.9653 B(  2-C ,  3-C ) :   1.2715 B(  2-C ,  6-C ) :   0.9998
B(  3-C ,  4-C ) :   1.5365 B(  3-C ,  5-H ) :   0.9778 B(  4-C , 20-C ) :   1.0328
B(  6-C ,  7-H ) :   0.9524 B(  6-C ,  8-H ) :   0.9346 B(  6-C ,  9-C ) :   1.0741
B(  9-C , 10-H ) :   0.9580 B(  9-C , 11-H ) :   0.9530 B(  9-C , 12-C ) :   1.0912
B( 12-C , 13-H ) :   0.9726 B( 12-C , 14-H ) :   0.9735 B( 12-C , 15-H ) :   0.9742
B( 16-S , 17-C ) :   1.1100 B( 16-S , 20-C ) :   1.1248 B( 17-C , 18-C ) :   1.6937
B( 17-C , 33-H ) :   0.9736 B( 18-C , 19-C ) :   1.1366 B( 18-C , 21-H ) :   0.9917
B( 19-C , 20-C ) :   1.6619 B( 19-C , 22-C ) :   1.0417 B( 22-C , 23-H ) :   0.9329
B( 22-C , 24-H ) :   0.9418 B( 22-C , 25-C ) :   1.0593 B( 25-C , 26-H ) :   0.9573
B( 25-C , 27-H ) :   0.9547 B( 25-C , 28-C ) :   1.0775 B( 28-C , 29-H ) :   0.9759
B( 28-C , 30-H ) :   0.9737 B( 28-C , 31-H ) :   0.9744

Dispersion correction           -0.013363226
FINAL SINGLE POINT ENERGY     -1339.848240156844

DIPOLE MOMENT
-------------
                                X             Y             Z
Electronic contribution:     21.78990      12.59310       6.93894
Nuclear contribution   :    -22.32353     -12.84812      -7.00862
                        -----------------------------------------
Total Dipole Moment    :     -0.53363      -0.25502      -0.06969
                        -----------------------------------------
Magnitude (a.u.)       :      0.59553
Magnitude (Debye)      :      1.51371

Rotational constants in cm-1:     0.018155     0.007639     0.006325
Rotational constants in MHz :   544.274159   229.016572   189.627934

                             ****ORCA TERMINATED NORMALLY****
TOTAL RUN TIME: 0 days 0 hours 0 minutes 21 seconds 862 msec
