                         Program Version 4.2.1 -  RELEASE  -
|  1> ! wB97X-D3 SP def2-SVP
|  2> %pal
|  3> nprocs 24
|  4> end
|  5>
|  6> * xyz 0 1
|  7> S 	 -144.653 	 7.87515 	 -0.963422
|  8> C 	 -144.032 	 9.46103 	 -0.523579
|  9> C 	 -142.645 	 9.41949 	 -0.321673
| 10> C 	 -142.142 	 8.1121 	 -0.743147
| 11> C 	 -143.142 	 7.20251 	 -1.15163
| 12> H 	 -141.157 	 7.84453 	 -0.776254
| 13> C 	 -141.689 	 10.5127 	 0.125476
| 14> H 	 -141.201 	 10.8817 	 -0.829363
| 15> H 	 -140.823 	 10.0604 	 0.606047
| 16> C 	 -142.309 	 11.7212 	 0.994406
| 17> H 	 -143.012 	 12.1791 	 0.301254
| 18> H 	 -142.925 	 11.2993 	 1.79984
| 19> C 	 -141.237 	 12.7087 	 1.50442
| 20> H 	 -140.857 	 12.1297 	 2.38625
| 21> H 	 -140.494 	 12.9839 	 0.77643
| 22> H 	 -141.792 	 13.6473 	 1.80787
| 23> S 	 -143.709 	 4.63343 	 -0.653774
| 24> C 	 -143.39 	 3.42307 	 -1.91811
| 25> C 	 -142.615 	 3.99497 	 -2.93421
| 26> C 	 -142.352 	 5.3563 	 -2.77059
| 27> C 	 -142.956 	 5.88773 	 -1.69356
| 28> H 	 -142.338 	 3.30862 	 -3.73352
| 29> C 	 -141.505 	 6.1239 	 -3.76427
| 30> H 	 -140.554 	 6.18212 	 -3.26096
| 31> H 	 -141.742 	 7.22414 	 -3.89363
| 32> C 	 -141.419 	 5.52726 	 -5.18195
| 33> H 	 -140.855 	 4.64991 	 -5.23031
| 34> H 	 -140.782 	 6.11725 	 -5.80394
| 35> C 	 -142.701 	 5.49656 	 -6.06677
| 36> H 	 -143.38 	 4.73796 	 -5.68621
| 37> H 	 -142.419 	 5.38958 	 -7.07026
| 38> H 	 -143.354 	 6.37011 	 -5.89743
| 39> H 	 -144.577 	 10.3433 	 -0.263069
| 40> H 	 -143.823 	 2.42243 	 -1.91253
| 41> *
| 42>
| 43>                          ****END OF INPUT****

CARTESIAN COORDINATES (ANGSTROEM)
---------------------------------
  S    -144.653000    7.875150   -0.963422
  C    -144.032000    9.461030   -0.523579
  C    -142.645000    9.419490   -0.321673
  C    -142.142000    8.112100   -0.743147
  C    -143.142000    7.202510   -1.151630
  H    -141.157000    7.844530   -0.776254
  C    -141.689000   10.512700    0.125476
  H    -141.201000   10.881700   -0.829363
  H    -140.823000   10.060400    0.606047
  C    -142.309000   11.721200    0.994406
  H    -143.012000   12.179100    0.301254
  H    -142.925000   11.299300    1.799840
  C    -141.237000   12.708700    1.504420
  H    -140.857000   12.129700    2.386250
  H    -140.494000   12.983900    0.776430
  H    -141.792000   13.647300    1.807870
  S    -143.709000    4.633430   -0.653774
  C    -143.390000    3.423070   -1.918110
  C    -142.615000    3.994970   -2.934210
  C    -142.352000    5.356300   -2.770590
  C    -142.956000    5.887730   -1.693560
  H    -142.338000    3.308620   -3.733520
  C    -141.505000    6.123900   -3.764270
  H    -140.554000    6.182120   -3.260960
  H    -141.742000    7.224140   -3.893630
  C    -141.419000    5.527260   -5.181950
  H    -140.855000    4.649910   -5.230310
  H    -140.782000    6.117250   -5.803940
  C    -142.701000    5.496560   -6.066770
  H    -143.380000    4.737960   -5.686210
  H    -142.419000    5.389580   -7.070260
  H    -143.354000    6.370110   -5.897430
  H    -144.577000   10.343300   -0.263069
  H    -143.823000    2.422430   -1.912530

 Total Charge           Charge          ....    0
 Multiplicity           Mult            ....    1
 Number of Electrons    NEL             ....  134
 Basis Dimension        Dim             ....  322

ORBITAL ENERGIES
----------------

  NO   OCC          E(Eh)            E(eV)
   0   2.0000     -88.966131     -2420.8915
   1   2.0000     -88.960136     -2420.7284
   2   2.0000     -10.321634      -280.8659
   3   2.0000     -10.321118      -280.8519
   4   2.0000     -10.319821      -280.8166
   5   2.0000     -10.311758      -280.5972
   6   2.0000     -10.306439      -280.4525
   7   2.0000     -10.302307      -280.3400
   8   2.0000     -10.300259      -280.2843
   9   2.0000     -10.296136      -280.1721
  10   2.0000     -10.296020      -280.1690
  11   2.0000     -10.293405      -280.0978
  12   2.0000     -10.290144      -280.0090
  13   2.0000     -10.288048      -279.9520
  14   2.0000     -10.280278      -279.7406
  15   2.0000     -10.274434      -279.5816
  16   2.0000      -8.081879      -219.9191
  17   2.0000      -8.074224      -219.7108
  18   2.0000      -6.040346      -164.3662
  19   2.0000      -6.036072      -164.2499
  20   2.0000      -6.032773      -164.1601
  21   2.0000      -6.032759      -164.1597
  22   2.0000      -6.028873      -164.0540
  23   2.0000      -6.024940      -163.9470
  24   2.0000      -1.009637       -27.4736
  25   2.0000      -0.982348       -26.7310
  26   2.0000      -0.907241       -24.6873
  27   2.0000      -0.903352       -24.5815
  28   2.0000      -0.867702       -23.6114
  29   2.0000      -0.851819       -23.1792
  30   2.0000      -0.844849       -22.9895
  31   2.0000      -0.807868       -21.9832
  32   2.0000      -0.784547       -21.3486
  33   2.0000      -0.774651       -21.0793
  34   2.0000      -0.711546       -19.3622
  35   2.0000      -0.706629       -19.2283
  36   2.0000      -0.693751       -18.8779
  37   2.0000      -0.662620       -18.0308
  38   2.0000      -0.641984       -17.4693
  39   2.0000      -0.609217       -16.5776
  40   2.0000      -0.595610       -16.2074
  41   2.0000      -0.570314       -15.5190
  42   2.0000      -0.564332       -15.3563
  43   2.0000      -0.559070       -15.2131
  44   2.0000      -0.536243       -14.5919
  45   2.0000      -0.522166       -14.2088
  46   2.0000      -0.517302       -14.0765
  47   2.0000      -0.514235       -13.9931
  48   2.0000      -0.506224       -13.7751
  49   2.0000      -0.499869       -13.6021
  50   2.0000      -0.486392       -13.2354
  51   2.0000      -0.480054       -13.0629
  52   2.0000      -0.477301       -12.9880
  53   2.0000      -0.461671       -12.5627
  54   2.0000      -0.459696       -12.5090
  55   2.0000      -0.451376       -12.2826
  56   2.0000      -0.442144       -12.0313
  57   2.0000      -0.437134       -11.8950
  58   2.0000      -0.431637       -11.7455
  59   2.0000      -0.425745       -11.5851
  60   2.0000      -0.420965       -11.4551
  61   2.0000      -0.413490       -11.2516
  62   2.0000      -0.405031       -11.0215
  63   2.0000      -0.333757        -9.0820
  64   2.0000      -0.332612        -9.0508
  65   2.0000      -0.322508        -8.7759
  66   2.0000      -0.296303        -8.0628
  67   0.0000       0.034200         0.9306
  68   0.0000       0.066484         1.8091
  69   0.0000       0.111693         3.0393
  70   0.0000       0.121222         3.2986
  71   0.0000       0.127660         3.4738

MULLIKEN ATOMIC CHARGES
-----------------------
   0 S :    0.140064
   1 C :   -0.127138
   2 C :   -0.083659
   3 C :    0.060735
   4 C :   -0.151217
   5 H :   -0.034560
   6 C :    0.024890
   7 H :    0.046541
   8 H :    0.022742
   9 C :   -0.110670
  10 H :    0.031755
  11 H :    0.044820
  12 C :   -0.050343
  13 H :    0.051418
  14 H :    0.041763
  15 H :    0.048340
  16 S :    0.084455
  17 C :   -0.102305
  18 C :   -0.064420
  19 C :    0.032395
  20 C :   -0.195461
  21 H :    0.029479
  22 C :    0.068053
  23 H :    0.034430
  24 H :    0.043632
  25 C :   -0.068354
  26 H :    0.009384
  27 H :    0.006548
  28 C :   -0.027573
  29 H :    0.024142
  30 H :    0.036396
  31 H :    0.029774
  32 H :    0.038950
  33 H :    0.064994
Sum of atomic charges:   -0.0000000

LOEWDIN ATOMIC CHARGES
----------------------
   0 S :    0.452009
   1 C :   -0.209357
   2 C :   -0.055159
   3 C :   -0.054724
   4 C :   -0.231894
   5 H :    0.009730
   6 C :   -0.041402
   7 H :    0.042186
   8 H :    0.026987
   9 C :   -0.043185
  10 H :    0.017775
  11 H :    0.027148
  12 C :   -0.067511
  13 H :    0.037353
  14 H :    0.023773
  15 H :    0.036486
  16 S :    0.369776
  17 C :   -0.173656
  18 C :   -0.074099
  19 C :   -0.059725
  20 C :   -0.180547
  21 H :    0.036151
  22 C :   -0.030462
  23 H :    0.036283
  24 H :    0.041647
  25 C :   -0.046363
  26 H :    0.014455
  27 H :    0.024677
  28 C :   -0.058554
  29 H :    0.022705
  30 H :    0.021171
  31 H :    0.032067
  32 H :    0.023051
  33 H :    0.031208

  Mayer bond orders larger than 0.100000
B(  0-S ,  1-C ) :   1.1420 B(  0-S ,  4-C ) :   1.1854 B(  1-C ,  2-C ) :   1.5931
B(  1-C , 32-H ) :   0.9693 B(  2-C ,  3-C ) :   1.2479 B(  2-C ,  6-C ) :   1.0210
B(  3-C ,  4-C ) :   1.5334 B(  3-C ,  5-H ) :   1.0139 B(  4-C , 20-C ) :   1.0215
B(  6-C ,  7-H ) :   0.9338 B(  6-C ,  8-H ) :   0.9455 B(  6-C ,  9-C ) :   1.0431
B(  9-C , 10-H ) :   0.9537 B(  9-C , 11-H ) :   0.9664 B(  9-C , 12-C ) :   1.0709
B( 12-C , 13-H ) :   0.9781 B( 12-C , 14-H ) :   0.9765 B( 12-C , 15-H ) :   0.9742
B( 16-S , 17-C ) :   1.1455 B( 16-S , 20-C ) :   1.1310 B( 17-C , 18-C ) :   1.6125
B( 17-C , 20-C ) :   0.1117 B( 17-C , 33-H ) :   0.9661 B( 18-C , 19-C ) :   1.2143
B( 18-C , 21-H ) :   0.9870 B( 19-C , 20-C ) :   1.6447 B( 19-C , 22-C ) :   1.0192
B( 22-C , 23-H ) :   0.9251 B( 22-C , 24-H ) :   0.9390 B( 22-C , 25-C ) :   1.0887
B( 25-C , 26-H ) :   0.9435 B( 25-C , 27-H ) :   0.9495 B( 25-C , 28-C ) :   1.0703
B( 28-C , 29-H ) :   0.9739 B( 28-C , 30-H ) :   0.9780 B( 28-C , 31-H ) :   0.9714

Dispersion correction           -0.013815838
FINAL SINGLE POINT ENERGY     -1339.855838573359

DIPOLE MOMENT
-------------
                                X             Y             Z
Electronic contribution:    -13.85473     -16.25758       8.36937
Nuclear contribution   :     14.40193      16.59908      -8.66407
                        -----------------------------------------
Total Dipole Moment    :      0.54720       0.34150      -0.29470
                        -----------------------------------------
Magnitude (a.u.)       :      0.70915
Magnitude (Debye)      :      1.80252

Rotational constants in cm-1:     0.023309     0.006753     0.005900
Rotational constants in MHz :   698.792996   202.460025   176.881009

                             ****ORCA TERMINATED NORMALLY****
TOTAL RUN TIME: 0 days 0 hours 0 minutes 19 seconds 721 msec
