                         Program Version 4.2.1 -  RELEASE  -
|  1> ! wB97X-D3 SP def2-SVP
|  2> %pal
|  3> nprocs 24
|  4> end
|  5>
|  6> * xyz 0 1
|  7> S 	 -63.9056 	 16.0887 	 -121.556
|  8> C 	 -62.5572 	 15.0903 	 -121.714
|  9> C 	 -62.3274 	 14.3079 	 -120.548
| 10> C 	 -63.4069 	 14.5422 	 -119.635
| 11> C 	 -64.3504 	 15.4865 	 -120.035
| 12> H 	 -63.6282 	 13.9594 	 -118.754
| 13> C 	 -61.429 	 13.0911 	 -120.472
| 14> H 	 -60.6381 	 13.2969 	 -121.211
| 15> H 	 -61.953 	 12.3228 	 -120.958
| 16> C 	 -60.8164 	 12.6663 	 -119.058
| 17> H 	 -60.2837 	 13.4678 	 -118.463
| 18> H 	 -61.6197 	 12.352 	 -118.47
| 19> C 	 -59.8939 	 11.4826 	 -119.235
| 20> H 	 -58.9876 	 11.7129 	 -119.784
| 21> H 	 -59.5938 	 11.179 	 -118.23
| 22> H 	 -60.3398 	 10.5776 	 -119.566
| 23> S 	 -66.8968 	 16.4 	 -120.487
| 24> C 	 -68.0326 	 16.4066 	 -119.104
| 25> C 	 -67.4974 	 15.9946 	 -117.943
| 26> C 	 -66.1243 	 15.5799 	 -118.126
| 27> C 	 -65.6142 	 15.8068 	 -119.397
| 28> H 	 -68.0876 	 15.9181 	 -117.074
| 29> C 	 -65.3725 	 14.9978 	 -116.92
| 30> H 	 -65.6433 	 15.5934 	 -116.025
| 31> H 	 -64.2833 	 15.1435 	 -117.071
| 32> C 	 -65.5071 	 13.4593 	 -116.546
| 33> H 	 -65.4615 	 12.815 	 -117.418
| 34> H 	 -66.4732 	 13.2182 	 -116.207
| 35> C 	 -64.5209 	 13.0482 	 -115.411
| 36> H 	 -64.6767 	 13.3576 	 -114.398
| 37> H 	 -63.5129 	 13.408 	 -115.652
| 38> H 	 -64.4488 	 11.9682 	 -115.459
| 39> H 	 -61.9205 	 15.0148 	 -122.625
| 40> H 	 -69.0516 	 16.7731 	 -119.113
| 41> *
| 42>
| 43>                          ****END OF INPUT****

CARTESIAN COORDINATES (ANGSTROEM)
---------------------------------
  S    -63.905600   16.088700  -121.556000
  C    -62.557200   15.090300  -121.714000
  C    -62.327400   14.307900  -120.548000
  C    -63.406900   14.542200  -119.635000
  C    -64.350400   15.486500  -120.035000
  H    -63.628200   13.959400  -118.754000
  C    -61.429000   13.091100  -120.472000
  H    -60.638100   13.296900  -121.211000
  H    -61.953000   12.322800  -120.958000
  C    -60.816400   12.666300  -119.058000
  H    -60.283700   13.467800  -118.463000
  H    -61.619700   12.352000  -118.470000
  C    -59.893900   11.482600  -119.235000
  H    -58.987600   11.712900  -119.784000
  H    -59.593800   11.179000  -118.230000
  H    -60.339800   10.577600  -119.566000
  S    -66.896800   16.400000  -120.487000
  C    -68.032600   16.406600  -119.104000
  C    -67.497400   15.994600  -117.943000
  C    -66.124300   15.579900  -118.126000
  C    -65.614200   15.806800  -119.397000
  H    -68.087600   15.918100  -117.074000
  C    -65.372500   14.997800  -116.920000
  H    -65.643300   15.593400  -116.025000
  H    -64.283300   15.143500  -117.071000
  C    -65.507100   13.459300  -116.546000
  H    -65.461500   12.815000  -117.418000
  H    -66.473200   13.218200  -116.207000
  C    -64.520900   13.048200  -115.411000
  H    -64.676700   13.357600  -114.398000
  H    -63.512900   13.408000  -115.652000
  H    -64.448800   11.968200  -115.459000
  H    -61.920500   15.014800  -122.625000
  H    -69.051600   16.773100  -119.113000

 Total Charge           Charge          ....    0
 Multiplicity           Mult            ....    1
 Number of Electrons    NEL             ....  134
 Basis Dimension        Dim             ....  322

ORBITAL ENERGIES
----------------

  NO   OCC          E(Eh)            E(eV)
   0   2.0000     -88.967870     -2420.9388
   1   2.0000     -88.964497     -2420.8470
   2   2.0000     -10.331787      -281.1422
   3   2.0000     -10.324809      -280.9523
   4   2.0000     -10.315609      -280.7020
   5   2.0000     -10.314942      -280.6838
   6   2.0000     -10.306311      -280.4490
   7   2.0000     -10.303803      -280.3807
   8   2.0000     -10.298504      -280.2365
   9   2.0000     -10.293687      -280.1055
  10   2.0000     -10.293406      -280.0978
  11   2.0000     -10.290522      -280.0193
  12   2.0000     -10.290360      -280.0149
  13   2.0000     -10.289449      -279.9901
  14   2.0000     -10.281184      -279.7652
  15   2.0000     -10.274913      -279.5946
  16   2.0000      -8.084364      -219.9867
  17   2.0000      -8.078393      -219.8242
  18   2.0000      -6.042636      -164.4285
  19   2.0000      -6.038418      -164.3137
  20   2.0000      -6.037195      -164.2804
  21   2.0000      -6.035496      -164.2342
  22   2.0000      -6.033212      -164.1720
  23   2.0000      -6.028701      -164.0493
  24   2.0000      -1.012305       -27.5462
  25   2.0000      -0.983179       -26.7537
  26   2.0000      -0.909796       -24.7568
  27   2.0000      -0.898695       -24.4547
  28   2.0000      -0.874747       -23.8031
  29   2.0000      -0.855598       -23.2820
  30   2.0000      -0.846679       -23.0393
  31   2.0000      -0.817385       -22.2422
  32   2.0000      -0.781408       -21.2632
  33   2.0000      -0.769096       -20.9282
  34   2.0000      -0.715984       -19.4829
  35   2.0000      -0.707041       -19.2396
  36   2.0000      -0.691253       -18.8100
  37   2.0000      -0.665346       -18.1050
  38   2.0000      -0.638942       -17.3865
  39   2.0000      -0.621156       -16.9025
  40   2.0000      -0.592136       -16.1128
  41   2.0000      -0.570080       -15.5127
  42   2.0000      -0.566106       -15.4045
  43   2.0000      -0.557191       -15.1619
  44   2.0000      -0.528279       -14.3752
  45   2.0000      -0.521603       -14.1935
  46   2.0000      -0.517698       -14.0873
  47   2.0000      -0.507508       -13.8100
  48   2.0000      -0.504875       -13.7383
  49   2.0000      -0.497598       -13.5403
  50   2.0000      -0.494937       -13.4679
  51   2.0000      -0.485471       -13.2103
  52   2.0000      -0.472681       -12.8623
  53   2.0000      -0.464784       -12.6474
  54   2.0000      -0.460750       -12.5377
  55   2.0000      -0.457067       -12.4374
  56   2.0000      -0.444794       -12.1035
  57   2.0000      -0.437915       -11.9163
  58   2.0000      -0.437014       -11.8918
  59   2.0000      -0.427800       -11.6410
  60   2.0000      -0.421397       -11.4668
  61   2.0000      -0.417111       -11.3502
  62   2.0000      -0.411957       -11.2099
  63   2.0000      -0.362759        -9.8712
  64   2.0000      -0.333954        -9.0874
  65   2.0000      -0.325897        -8.8681
  66   2.0000      -0.281142        -7.6503
  67   0.0000       0.023107         0.6288
  68   0.0000       0.082675         2.2497
  69   0.0000       0.103717         2.8223
  70   0.0000       0.115134         3.1329
  71   0.0000       0.129945         3.5360

MULLIKEN ATOMIC CHARGES
-----------------------
   0 S :    0.128255
   1 C :   -0.146432
   2 C :   -0.057684
   3 C :   -0.011069
   4 C :   -0.122396
   5 H :   -0.005095
   6 C :    0.039179
   7 H :    0.014975
   8 H :    0.034192
   9 C :   -0.067903
  10 H :    0.049379
  11 H :    0.021556
  12 C :   -0.028919
  13 H :    0.036945
  14 H :    0.017015
  15 H :    0.021114
  16 S :    0.077942
  17 C :   -0.073709
  18 C :    0.000494
  19 C :   -0.060455
  20 C :   -0.091938
  21 H :    0.005253
  22 C :    0.001065
  23 H :    0.032732
  24 H :    0.027099
  25 C :   -0.036612
  26 H :    0.027205
  27 H :    0.008142
  28 C :   -0.045847
  29 H :    0.038738
  30 H :    0.018738
  31 H :    0.031440
  32 H :    0.065706
  33 H :    0.050897
Sum of atomic charges:   -0.0000000

LOEWDIN ATOMIC CHARGES
----------------------
   0 S :    0.460292
   1 C :   -0.230413
   2 C :   -0.063473
   3 C :   -0.068327
   4 C :   -0.216012
   5 H :    0.025216
   6 C :   -0.031696
   7 H :    0.030469
   8 H :    0.030943
   9 C :   -0.033952
  10 H :    0.036838
  11 H :    0.015381
  12 C :   -0.063224
  13 H :    0.025143
  14 H :    0.027754
  15 H :    0.020739
  16 S :    0.361149
  17 C :   -0.163962
  18 C :   -0.063230
  19 C :   -0.058350
  20 C :   -0.175834
  21 H :    0.029060
  22 C :   -0.038475
  23 H :    0.033650
  24 H :    0.027862
  25 C :   -0.036281
  26 H :    0.024221
  27 H :    0.015878
  28 C :   -0.063641
  29 H :    0.023967
  30 H :    0.022703
  31 H :    0.028698
  32 H :    0.036892
  33 H :    0.030014

  Mayer bond orders larger than 0.100000
B(  0-S ,  1-C ) :   1.1829 B(  0-S ,  4-C ) :   1.1706 B(  1-C ,  2-C ) :   1.5415
B(  1-C , 32-H ) :   0.9648 B(  2-C ,  3-C ) :   1.2888 B(  2-C ,  6-C ) :   1.0290
B(  3-C ,  4-C ) :   1.5318 B(  3-C ,  5-H ) :   0.9881 B(  4-C , 20-C ) :   1.0758
B(  6-C ,  7-H ) :   0.9405 B(  6-C ,  8-H ) :   0.9435 B(  6-C ,  9-C ) :   1.0452
B(  9-C , 10-H ) :   0.9612 B(  9-C , 11-H ) :   0.9504 B(  9-C , 12-C ) :   1.1009
B( 12-C , 13-H ) :   0.9760 B( 12-C , 14-H ) :   0.9686 B( 12-C , 15-H ) :   0.9715
B( 16-S , 17-C ) :   1.1200 B( 16-S , 20-C ) :   1.1034 B( 17-C , 18-C ) :   1.6748
B( 17-C , 33-H ) :   0.9592 B( 18-C , 19-C ) :   1.1958 B( 18-C , 21-H ) :   0.9962
B( 19-C , 20-C ) :   1.6386 B( 19-C , 22-C ) :   1.0420 B( 22-C , 23-H ) :   0.9390
B( 22-C , 24-H ) :   0.9431 B( 22-C , 25-C ) :   1.0503 B( 25-C , 26-H ) :   0.9560
B( 25-C , 27-H ) :   0.9498 B( 25-C , 28-C ) :   1.0712 B( 28-C , 29-H ) :   0.9790
B( 28-C , 30-H ) :   0.9752 B( 28-C , 31-H ) :   0.9740

Dispersion correction           -0.013882576
FINAL SINGLE POINT ENERGY     -1339.870775929032

DIPOLE MOMENT
-------------
                                X             Y             Z
Electronic contribution:    -17.08195      22.56425     -20.34419
Nuclear contribution   :     17.20981     -23.24838      20.84075
                        -----------------------------------------
Total Dipole Moment    :      0.12785      -0.68413       0.49655
                        -----------------------------------------
Magnitude (a.u.)       :      0.85496
Magnitude (Debye)      :      2.17312

Rotational constants in cm-1:     0.016963     0.009551     0.006291
Rotational constants in MHz :   508.528474   286.337106   188.608696

                             ****ORCA TERMINATED NORMALLY****
TOTAL RUN TIME: 0 days 0 hours 0 minutes 21 seconds 433 msec
