                         Program Version 4.2.1 -  RELEASE  -
|  1> ! wB97X-D3 SP def2-SVP
|  2> %pal
|  3> nprocs 24
|  4> end
|  5>
|  6> * xyz 0 1
|  7> S 	 15.3332 	 -11.6096 	 -120.186
|  8> C 	 13.9823 	 -11.2159 	 -121.182
|  9> C 	 13.9868 	 -11.8438 	 -122.37
| 10> C 	 15.0676 	 -12.7583 	 -122.42
| 11> C 	 15.835 	 -12.8679 	 -121.271
| 12> H 	 15.3871 	 -13.2936 	 -123.271
| 13> C 	 12.8897 	 -11.7286 	 -123.477
| 14> H 	 12.141 	 -12.426 	 -123.113
| 15> H 	 13.2016 	 -12.2593 	 -124.361
| 16> C 	 12.315 	 -10.4005 	 -123.691
| 17> H 	 12.2104 	 -9.75236 	 -122.85
| 18> H 	 13.0839 	 -9.8855 	 -124.257
| 19> C 	 11.0545 	 -10.3 	 -124.537
| 20> H 	 10.2995 	 -10.8086 	 -123.935
| 21> H 	 10.7097 	 -9.26066 	 -124.766
| 22> H 	 11.1668 	 -10.8508 	 -125.54
| 23> S 	 18.6111 	 -12.9564 	 -120.856
| 24> C 	 19.3219 	 -14.5693 	 -121.101
| 25> C 	 18.4096 	 -15.5691 	 -121.188
| 26> C 	 17.0203 	 -15.0118 	 -121.06
| 27> C 	 16.995 	 -13.6526 	 -121.025
| 28> H 	 18.6804 	 -16.6237 	 -121.26
| 29> C 	 15.8447 	 -15.9997 	 -121.241
| 30> H 	 16.18 	 -16.9959 	 -121.499
| 31> H 	 15.1509 	 -15.562 	 -121.98
| 32> C 	 15.0912 	 -16.2255 	 -119.961
| 33> H 	 14.3672 	 -16.9413 	 -120.226
| 34> H 	 14.4313 	 -15.4235 	 -119.703
| 35> C 	 15.8628 	 -16.7892 	 -118.744
| 36> H 	 16.132 	 -17.8082 	 -118.795
| 37> H 	 15.344 	 -16.5366 	 -117.813
| 38> H 	 16.7764 	 -16.2468 	 -118.71
| 39> H 	 13.4755 	 -10.3244 	 -121.025
| 40> H 	 20.4148 	 -14.6112 	 -121.05
| 41> *
| 42>
| 43>                          ****END OF INPUT****

CARTESIAN COORDINATES (ANGSTROEM)
---------------------------------
  S     15.333200  -11.609600  -120.186000
  C     13.982300  -11.215900  -121.182000
  C     13.986800  -11.843800  -122.370000
  C     15.067600  -12.758300  -122.420000
  C     15.835000  -12.867900  -121.271000
  H     15.387100  -13.293600  -123.271000
  C     12.889700  -11.728600  -123.477000
  H     12.141000  -12.426000  -123.113000
  H     13.201600  -12.259300  -124.361000
  C     12.315000  -10.400500  -123.691000
  H     12.210400   -9.752360  -122.850000
  H     13.083900   -9.885500  -124.257000
  C     11.054500  -10.300000  -124.537000
  H     10.299500  -10.808600  -123.935000
  H     10.709700   -9.260660  -124.766000
  H     11.166800  -10.850800  -125.540000
  S     18.611100  -12.956400  -120.856000
  C     19.321900  -14.569300  -121.101000
  C     18.409600  -15.569100  -121.188000
  C     17.020300  -15.011800  -121.060000
  C     16.995000  -13.652600  -121.025000
  H     18.680400  -16.623700  -121.260000
  C     15.844700  -15.999700  -121.241000
  H     16.180000  -16.995900  -121.499000
  H     15.150900  -15.562000  -121.980000
  C     15.091200  -16.225500  -119.961000
  H     14.367200  -16.941300  -120.226000
  H     14.431300  -15.423500  -119.703000
  C     15.862800  -16.789200  -118.744000
  H     16.132000  -17.808200  -118.795000
  H     15.344000  -16.536600  -117.813000
  H     16.776400  -16.246800  -118.710000
  H     13.475500  -10.324400  -121.025000
  H     20.414800  -14.611200  -121.050000

 Total Charge           Charge          ....    0
 Multiplicity           Mult            ....    1
 Number of Electrons    NEL             ....  134
 Basis Dimension        Dim             ....  322

ORBITAL ENERGIES
----------------

  NO   OCC          E(Eh)            E(eV)
   0   2.0000     -88.962184     -2420.7841
   1   2.0000     -88.960537     -2420.7393
   2   2.0000     -10.323022      -280.9037
   3   2.0000     -10.322071      -280.8778
   4   2.0000     -10.321469      -280.8615
   5   2.0000     -10.306044      -280.4417
   6   2.0000     -10.300832      -280.2999
   7   2.0000     -10.300420      -280.2887
   8   2.0000     -10.299525      -280.2643
   9   2.0000     -10.294561      -280.1293
  10   2.0000     -10.290791      -280.0266
  11   2.0000     -10.289331      -279.9869
  12   2.0000     -10.289043      -279.9791
  13   2.0000     -10.281233      -279.7666
  14   2.0000     -10.270357      -279.4706
  15   2.0000     -10.266109      -279.3550
  16   2.0000      -8.076823      -219.7815
  17   2.0000      -8.076466      -219.7718
  18   2.0000      -6.035571      -164.2362
  19   2.0000      -6.034820      -164.2158
  20   2.0000      -6.031542      -164.1266
  21   2.0000      -6.030829      -164.1072
  22   2.0000      -6.027304      -164.0113
  23   2.0000      -6.027141      -164.0068
  24   2.0000      -1.010846       -27.5065
  25   2.0000      -0.983587       -26.7648
  26   2.0000      -0.921526       -25.0760
  27   2.0000      -0.908968       -24.7343
  28   2.0000      -0.876428       -23.8488
  29   2.0000      -0.850897       -23.1541
  30   2.0000      -0.839260       -22.8374
  31   2.0000      -0.815217       -22.1832
  32   2.0000      -0.788158       -21.4469
  33   2.0000      -0.778639       -21.1879
  34   2.0000      -0.712759       -19.3952
  35   2.0000      -0.705054       -19.1855
  36   2.0000      -0.686123       -18.6704
  37   2.0000      -0.664656       -18.0862
  38   2.0000      -0.648643       -17.6505
  39   2.0000      -0.614911       -16.7326
  40   2.0000      -0.591395       -16.0927
  41   2.0000      -0.577801       -15.7228
  42   2.0000      -0.564169       -15.3518
  43   2.0000      -0.557696       -15.1757
  44   2.0000      -0.543452       -14.7881
  45   2.0000      -0.532241       -14.4830
  46   2.0000      -0.519982       -14.1494
  47   2.0000      -0.510003       -13.8779
  48   2.0000      -0.507914       -13.8211
  49   2.0000      -0.498365       -13.5612
  50   2.0000      -0.490156       -13.3378
  51   2.0000      -0.478305       -13.0153
  52   2.0000      -0.473232       -12.8773
  53   2.0000      -0.468794       -12.7565
  54   2.0000      -0.458954       -12.4888
  55   2.0000      -0.447844       -12.1865
  56   2.0000      -0.442242       -12.0340
  57   2.0000      -0.440649       -11.9907
  58   2.0000      -0.435697       -11.8559
  59   2.0000      -0.425497       -11.5784
  60   2.0000      -0.421990       -11.4829
  61   2.0000      -0.407895       -11.0994
  62   2.0000      -0.401080       -10.9139
  63   2.0000      -0.343097        -9.3362
  64   2.0000      -0.329492        -8.9659
  65   2.0000      -0.327180        -8.9030
  66   2.0000      -0.300971        -8.1898
  67   0.0000       0.034272         0.9326
  68   0.0000       0.066553         1.8110
  69   0.0000       0.110999         3.0204
  70   0.0000       0.122574         3.3354
  71   0.0000       0.130154         3.5417

MULLIKEN ATOMIC CHARGES
-----------------------
   0 S :    0.101244
   1 C :   -0.103150
   2 C :   -0.088817
   3 C :    0.044325
   4 C :   -0.194627
   5 H :   -0.004464
   6 C :    0.119696
   7 H :    0.030060
   8 H :    0.010917
   9 C :   -0.075662
  10 H :    0.025323
  11 H :    0.021855
  12 C :   -0.077802
  13 H :    0.032145
  14 H :    0.047497
  15 H :    0.040567
  16 S :    0.094515
  17 C :   -0.100232
  18 C :   -0.011443
  19 C :   -0.079557
  20 C :   -0.131477
  21 H :    0.031848
  22 C :    0.107031
  23 H :    0.012217
  24 H :    0.033829
  25 C :   -0.066770
  26 H :    0.004739
  27 H :    0.022262
  28 C :   -0.022238
  29 H :    0.021914
  30 H :    0.036982
  31 H :    0.022383
  32 H :    0.028690
  33 H :    0.066202
Sum of atomic charges:    0.0000000

LOEWDIN ATOMIC CHARGES
----------------------
   0 S :    0.418305
   1 C :   -0.195893
   2 C :   -0.058380
   3 C :   -0.056985
   4 C :   -0.196053
   5 H :    0.022827
   6 C :   -0.024222
   7 H :    0.033672
   8 H :    0.029360
   9 C :   -0.053925
  10 H :    0.022700
  11 H :    0.027701
  12 C :   -0.067428
  13 H :    0.022521
  14 H :    0.032367
  15 H :    0.032150
  16 S :    0.369912
  17 C :   -0.162757
  18 C :   -0.071730
  19 C :   -0.042258
  20 C :   -0.207372
  21 H :    0.035693
  22 C :   -0.025531
  23 H :    0.027557
  24 H :    0.037551
  25 C :   -0.042929
  26 H :    0.017547
  27 H :    0.022337
  28 C :   -0.060226
  29 H :    0.017810
  30 H :    0.033280
  31 H :    0.022015
  32 H :    0.011529
  33 H :    0.028854

  Mayer bond orders larger than 0.100000
B(  0-S ,  1-C ) :   1.1533 B(  0-S ,  4-C ) :   1.1503 B(  1-C ,  2-C ) :   1.6251
B(  1-C , 32-H ) :   0.9651 B(  2-C ,  3-C ) :   1.2552 B(  2-C ,  6-C ) :   0.9946
B(  3-C ,  4-C ) :   1.5783 B(  3-C ,  5-H ) :   0.9987 B(  4-C , 20-C ) :   1.0527
B(  6-C ,  7-H ) :   0.9364 B(  6-C ,  8-H ) :   0.9378 B(  6-C ,  9-C ) :   1.0522
B(  9-C , 10-H ) :   0.9556 B(  9-C , 11-H ) :   0.9494 B(  9-C , 12-C ) :   1.0867
B( 12-C , 13-H ) :   0.9766 B( 12-C , 14-H ) :   0.9733 B( 12-C , 15-H ) :   0.9728
B( 16-S , 17-C ) :   1.1327 B( 16-S , 20-C ) :   1.0988 B( 17-C , 18-C ) :   1.6583
B( 17-C , 33-H ) :   0.9653 B( 18-C , 19-C ) :   1.1700 B( 18-C , 21-H ) :   0.9901
B( 19-C , 20-C ) :   1.6608 B( 19-C , 22-C ) :   1.0411 B( 22-C , 23-H ) :   0.9389
B( 22-C , 24-H ) :   0.9242 B( 22-C , 25-C ) :   1.0885 B( 25-C , 26-H ) :   0.9504
B( 25-C , 27-H ) :   0.9550 B( 25-C , 28-C ) :   1.0662 B( 28-C , 29-H ) :   0.9752
B( 28-C , 30-H ) :   0.9731 B( 28-C , 31-H ) :   0.9770

Dispersion correction           -0.014353610
FINAL SINGLE POINT ENERGY     -1339.862488131267

DIPOLE MOMENT
-------------
                                X             Y             Z
Electronic contribution:     20.72591       7.33371       8.20431
Nuclear contribution   :    -21.02212      -7.64165      -8.67172
                        -----------------------------------------
Total Dipole Moment    :     -0.29621      -0.30793      -0.46741
                        -----------------------------------------
Magnitude (a.u.)       :      0.63328
Magnitude (Debye)      :      1.60966

Rotational constants in cm-1:     0.023032     0.007226     0.006475
Rotational constants in MHz :   690.480959   216.621899   194.126487

                             ****ORCA TERMINATED NORMALLY****
TOTAL RUN TIME: 0 days 0 hours 0 minutes 21 seconds 583 msec
