                         Program Version 4.2.1 -  RELEASE  -
|  1> ! wB97X-D3 SP def2-SVP
|  2> %pal
|  3> nprocs 24
|  4> end
|  5>
|  6> * xyz 0 1
|  7> S 	 -48.1839 	 13.2954 	 24.0587
|  8> C 	 -47.9094 	 14.1898 	 25.5116
|  9> C 	 -49.0179 	 14.8925 	 25.9533
| 10> C 	 -50.0608 	 14.7389 	 25.0492
| 11> C 	 -49.849 	 13.8339 	 24.033
| 12> H 	 -51.0051 	 15.1936 	 25.1096
| 13> C 	 -49.214 	 15.7395 	 27.2073
| 14> H 	 -48.4475 	 15.5 	 27.9598
| 15> H 	 -50.2302 	 15.4244 	 27.6205
| 16> C 	 -49.2566 	 17.2837 	 27.0557
| 17> H 	 -49.9816 	 17.4731 	 26.2493
| 18> H 	 -49.6775 	 17.7811 	 27.9081
| 19> C 	 -47.9209 	 17.8535 	 26.6559
| 20> H 	 -47.8335 	 18.8797 	 26.6179
| 21> H 	 -47.1365 	 17.5557 	 27.3895
| 22> H 	 -47.4755 	 17.4653 	 25.6932
| 23> S 	 -50.9 	 11.6372 	 22.817
| 24> C 	 -52.2764 	 11.7874 	 21.7218
| 25> C 	 -52.6999 	 13.0917 	 21.5217
| 26> C 	 -51.8318 	 13.9882 	 22.2538
| 27> C 	 -50.8628 	 13.3871 	 23.0909
| 28> H 	 -53.5355 	 13.3093 	 20.8966
| 29> C 	 -52.0263 	 15.4355 	 22.1132
| 30> H 	 -52.6115 	 15.7986 	 22.9246
| 31> H 	 -52.6327 	 15.6164 	 21.2124
| 32> C 	 -50.7734 	 16.291 	 22.0236
| 33> H 	 -50.1936 	 16.2687 	 22.9397
| 34> H 	 -51.0156 	 17.3874 	 22.1529
| 35> C 	 -49.8792 	 16.0519 	 20.753
| 36> H 	 -50.337 	 16.1895 	 19.734
| 37> H 	 -49.4762 	 15.04 	 20.8475
| 38> H 	 -49.0662 	 16.7742 	 20.8793
| 39> H 	 -47.0409 	 14.1522 	 26.1298
| 40> H 	 -52.7965 	 10.9029 	 21.4102
| 41> *
| 42>
| 43>                          ****END OF INPUT****

CARTESIAN COORDINATES (ANGSTROEM)
---------------------------------
  S    -48.183900   13.295400   24.058700
  C    -47.909400   14.189800   25.511600
  C    -49.017900   14.892500   25.953300
  C    -50.060800   14.738900   25.049200
  C    -49.849000   13.833900   24.033000
  H    -51.005100   15.193600   25.109600
  C    -49.214000   15.739500   27.207300
  H    -48.447500   15.500000   27.959800
  H    -50.230200   15.424400   27.620500
  C    -49.256600   17.283700   27.055700
  H    -49.981600   17.473100   26.249300
  H    -49.677500   17.781100   27.908100
  C    -47.920900   17.853500   26.655900
  H    -47.833500   18.879700   26.617900
  H    -47.136500   17.555700   27.389500
  H    -47.475500   17.465300   25.693200
  S    -50.900000   11.637200   22.817000
  C    -52.276400   11.787400   21.721800
  C    -52.699900   13.091700   21.521700
  C    -51.831800   13.988200   22.253800
  C    -50.862800   13.387100   23.090900
  H    -53.535500   13.309300   20.896600
  C    -52.026300   15.435500   22.113200
  H    -52.611500   15.798600   22.924600
  H    -52.632700   15.616400   21.212400
  C    -50.773400   16.291000   22.023600
  H    -50.193600   16.268700   22.939700
  H    -51.015600   17.387400   22.152900
  C    -49.879200   16.051900   20.753000
  H    -50.337000   16.189500   19.734000
  H    -49.476200   15.040000   20.847500
  H    -49.066200   16.774200   20.879300
  H    -47.040900   14.152200   26.129800
  H    -52.796500   10.902900   21.410200

 Total Charge           Charge          ....    0
 Multiplicity           Mult            ....    1
 Number of Electrons    NEL             ....  134
 Basis Dimension        Dim             ....  322

ORBITAL ENERGIES
----------------

  NO   OCC          E(Eh)            E(eV)
   0   2.0000     -88.972807     -2421.0732
   1   2.0000     -88.963160     -2420.8106
   2   2.0000     -10.329966      -281.0927
   3   2.0000     -10.329087      -281.0687
   4   2.0000     -10.319183      -280.7992
   5   2.0000     -10.312113      -280.6069
   6   2.0000     -10.306456      -280.4529
   7   2.0000     -10.302863      -280.3552
   8   2.0000     -10.299610      -280.2666
   9   2.0000     -10.297808      -280.2176
  10   2.0000     -10.290307      -280.0135
  11   2.0000     -10.284630      -279.8590
  12   2.0000     -10.282940      -279.8130
  13   2.0000     -10.282293      -279.7954
  14   2.0000     -10.277561      -279.6667
  15   2.0000     -10.275341      -279.6063
  16   2.0000      -8.087442      -220.0705
  17   2.0000      -8.077611      -219.8030
  18   2.0000      -6.045910      -164.5176
  19   2.0000      -6.041986      -164.4108
  20   2.0000      -6.038226      -164.3085
  21   2.0000      -6.036090      -164.2504
  22   2.0000      -6.032125      -164.1425
  23   2.0000      -6.028461      -164.0428
  24   2.0000      -1.009653       -27.4741
  25   2.0000      -0.983682       -26.7674
  26   2.0000      -0.912696       -24.8357
  27   2.0000      -0.906730       -24.6734
  28   2.0000      -0.871728       -23.7209
  29   2.0000      -0.855537       -23.2803
  30   2.0000      -0.840470       -22.8703
  31   2.0000      -0.813679       -22.1413
  32   2.0000      -0.783671       -21.3248
  33   2.0000      -0.771825       -21.0024
  34   2.0000      -0.712336       -19.3837
  35   2.0000      -0.703893       -19.1539
  36   2.0000      -0.687044       -18.6954
  37   2.0000      -0.667535       -18.1646
  38   2.0000      -0.643833       -17.5196
  39   2.0000      -0.624643       -16.9974
  40   2.0000      -0.589419       -16.0389
  41   2.0000      -0.570907       -15.5352
  42   2.0000      -0.557372       -15.1669
  43   2.0000      -0.553710       -15.0672
  44   2.0000      -0.541603       -14.7378
  45   2.0000      -0.537842       -14.6354
  46   2.0000      -0.516288       -14.0489
  47   2.0000      -0.505409       -13.7529
  48   2.0000      -0.502010       -13.6604
  49   2.0000      -0.492457       -13.4004
  50   2.0000      -0.487436       -13.2638
  51   2.0000      -0.481767       -13.1096
  52   2.0000      -0.474419       -12.9096
  53   2.0000      -0.468515       -12.7490
  54   2.0000      -0.454428       -12.3656
  55   2.0000      -0.451480       -12.2854
  56   2.0000      -0.440918       -11.9980
  57   2.0000      -0.437117       -11.8946
  58   2.0000      -0.431197       -11.7335
  59   2.0000      -0.428036       -11.6475
  60   2.0000      -0.423890       -11.5346
  61   2.0000      -0.415715       -11.3122
  62   2.0000      -0.401995       -10.9388
  63   2.0000      -0.349081        -9.4990
  64   2.0000      -0.335944        -9.1415
  65   2.0000      -0.327513        -8.9121
  66   2.0000      -0.286541        -7.7972
  67   0.0000       0.025931         0.7056
  68   0.0000       0.067710         1.8425
  69   0.0000       0.110562         3.0085
  70   0.0000       0.117704         3.2029
  71   0.0000       0.127930         3.4812

MULLIKEN ATOMIC CHARGES
-----------------------
   0 S :    0.137009
   1 C :   -0.109100
   2 C :   -0.062621
   3 C :    0.027202
   4 C :   -0.143532
   5 H :   -0.014071
   6 C :    0.028294
   7 H :    0.023988
   8 H :    0.043937
   9 C :   -0.032433
  10 H :    0.020652
  11 H :    0.031070
  12 C :   -0.050921
  13 H :    0.018721
  14 H :    0.016002
  15 H :    0.041960
  16 S :    0.084157
  17 C :   -0.085617
  18 C :   -0.015802
  19 C :   -0.051245
  20 C :   -0.152627
  21 H :    0.019171
  22 C :    0.086530
  23 H :    0.029495
  24 H :    0.014904
  25 C :   -0.100475
  26 H :    0.024840
  27 H :    0.013517
  28 C :   -0.052356
  29 H :    0.044149
  30 H :    0.044388
  31 H :    0.034074
  32 H :    0.031298
  33 H :    0.055442
Sum of atomic charges:    0.0000000

LOEWDIN ATOMIC CHARGES
----------------------
   0 S :    0.422938
   1 C :   -0.200634
   2 C :   -0.066338
   3 C :   -0.056438
   4 C :   -0.198011
   5 H :    0.021268
   6 C :   -0.029447
   7 H :    0.027195
   8 H :    0.040850
   9 C :   -0.039733
  10 H :    0.023810
  11 H :    0.025156
  12 C :   -0.070934
  13 H :    0.013817
  14 H :    0.025893
  15 H :    0.034406
  16 S :    0.388555
  17 C :   -0.167963
  18 C :   -0.065560
  19 C :   -0.052530
  20 C :   -0.193364
  21 H :    0.033116
  22 C :   -0.040297
  23 H :    0.030817
  24 H :    0.032500
  25 C :   -0.052561
  26 H :    0.024169
  27 H :    0.026150
  28 C :   -0.067629
  29 H :    0.029469
  30 H :    0.026867
  31 H :    0.028207
  32 H :    0.023209
  33 H :    0.023047

  Mayer bond orders larger than 0.100000
B(  0-S ,  1-C ) :   1.1457 B(  0-S ,  4-C ) :   1.1483 B(  1-C ,  2-C ) :   1.5935
B(  1-C , 32-H ) :   0.9644 B(  2-C ,  3-C ) :   1.2645 B(  2-C ,  6-C ) :   1.0197
B(  3-C ,  4-C ) :   1.5525 B(  3-C ,  5-H ) :   1.0031 B(  4-C , 20-C ) :   1.0664
B(  6-C ,  7-H ) :   0.9437 B(  6-C ,  8-H ) :   0.9415 B(  6-C ,  9-C ) :   1.0708
B(  9-C , 10-H ) :   0.9525 B(  9-C , 11-H ) :   0.9543 B(  9-C , 12-C ) :   1.0736
B( 12-C , 13-H ) :   0.9740 B( 12-C , 14-H ) :   0.9717 B( 12-C , 15-H ) :   0.9735
B( 16-S , 17-C ) :   1.1663 B( 16-S , 20-C ) :   1.1220 B( 17-C , 18-C ) :   1.6019
B( 17-C , 33-H ) :   0.9664 B( 18-C , 19-C ) :   1.2281 B( 18-C , 21-H ) :   0.9985
B( 19-C , 20-C ) :   1.5702 B( 19-C , 22-C ) :   1.0522 B( 22-C , 23-H ) :   0.9199
B( 22-C , 24-H ) :   0.9333 B( 22-C , 25-C ) :   1.0877 B( 25-C , 26-H ) :   0.9425
B( 25-C , 27-H ) :   0.9475 B( 25-C , 28-C ) :   1.0674 B( 28-C , 29-H ) :   0.9776
B( 28-C , 30-H ) :   0.9749 B( 28-C , 31-H ) :   0.9741

Dispersion correction           -0.015717391
FINAL SINGLE POINT ENERGY     -1339.879217881137

DIPOLE MOMENT
-------------
                                X             Y             Z
Electronic contribution:     -0.78124     -26.23819      -4.52698
Nuclear contribution   :      0.45892      26.77027       4.76524
                        -----------------------------------------
Total Dipole Moment    :     -0.32232       0.53208       0.23825
                        -----------------------------------------
Magnitude (a.u.)       :      0.66615
Magnitude (Debye)      :      1.69323

Rotational constants in cm-1:     0.021640     0.008975     0.007604
Rotational constants in MHz :   648.748764   269.049439   227.963750

                             ****ORCA TERMINATED NORMALLY****
TOTAL RUN TIME: 0 days 0 hours 0 minutes 22 seconds 811 msec
