                         Program Version 4.2.1 -  RELEASE  -
|  1> ! wB97X-D3 SP def2-SVP
|  2> %pal
|  3> nprocs 24
|  4> end
|  5>
|  6> * xyz 0 1
|  7> S 	 -125.052 	 59.6205 	 -58.0088
|  8> C 	 -123.834 	 60.7795 	 -58.2639
|  9> C 	 -123.916 	 61.8079 	 -57.3006
| 10> C 	 -125.051 	 61.7076 	 -56.4638
| 11> C 	 -125.862 	 60.6471 	 -56.8483
| 12> H 	 -125.391 	 62.4582 	 -55.7286
| 13> C 	 -122.915 	 62.9196 	 -57.2125
| 14> H 	 -122.222 	 62.7972 	 -58.0487
| 15> H 	 -122.337 	 62.812 	 -56.3184
| 16> C 	 -123.519 	 64.3458 	 -57.2825
| 17> H 	 -124.036 	 64.3969 	 -58.2593
| 18> H 	 -124.356 	 64.467 	 -56.6419
| 19> C 	 -122.526 	 65.5099 	 -57.0398
| 20> H 	 -121.825 	 65.3453 	 -56.1505
| 21> H 	 -121.868 	 65.7164 	 -57.8963
| 22> H 	 -123.118 	 66.4309 	 -56.9278
| 23> S 	 -128.378 	 61.3479 	 -57.3674
| 24> C 	 -129.596 	 61.3507 	 -56.1539
| 25> C 	 -129.116 	 60.6697 	 -55.0407
| 26> C 	 -127.736 	 60.2015 	 -55.139
| 27> C 	 -127.204 	 60.3911 	 -56.4378
| 28> H 	 -129.786 	 60.7221 	 -54.1999
| 29> C 	 -126.93 	 59.7145 	 -53.9917
| 30> H 	 -127.523 	 59.8905 	 -53.1451
| 31> H 	 -125.97 	 60.3279 	 -53.9938
| 32> C 	 -126.567 	 58.2458 	 -54.1397
| 33> H 	 -125.893 	 57.9617 	 -54.9835
| 34> H 	 -127.476 	 57.747 	 -54.3697
| 35> C 	 -125.908 	 57.7149 	 -52.8375
| 36> H 	 -125.641 	 56.6489 	 -53.0099
| 37> H 	 -126.647 	 57.8448 	 -51.9757
| 38> H 	 -124.946 	 58.3241 	 -52.6637
| 39> H 	 -123.112 	 60.7808 	 -59.0347
| 40> H 	 -130.533 	 61.9041 	 -56.2182
| 41> *
| 42>
| 43>                          ****END OF INPUT****

CARTESIAN COORDINATES (ANGSTROEM)
---------------------------------
  S    -125.052000   59.620500  -58.008800
  C    -123.834000   60.779500  -58.263900
  C    -123.916000   61.807900  -57.300600
  C    -125.051000   61.707600  -56.463800
  C    -125.862000   60.647100  -56.848300
  H    -125.391000   62.458200  -55.728600
  C    -122.915000   62.919600  -57.212500
  H    -122.222000   62.797200  -58.048700
  H    -122.337000   62.812000  -56.318400
  C    -123.519000   64.345800  -57.282500
  H    -124.036000   64.396900  -58.259300
  H    -124.356000   64.467000  -56.641900
  C    -122.526000   65.509900  -57.039800
  H    -121.825000   65.345300  -56.150500
  H    -121.868000   65.716400  -57.896300
  H    -123.118000   66.430900  -56.927800
  S    -128.378000   61.347900  -57.367400
  C    -129.596000   61.350700  -56.153900
  C    -129.116000   60.669700  -55.040700
  C    -127.736000   60.201500  -55.139000
  C    -127.204000   60.391100  -56.437800
  H    -129.786000   60.722100  -54.199900
  C    -126.930000   59.714500  -53.991700
  H    -127.523000   59.890500  -53.145100
  H    -125.970000   60.327900  -53.993800
  C    -126.567000   58.245800  -54.139700
  H    -125.893000   57.961700  -54.983500
  H    -127.476000   57.747000  -54.369700
  C    -125.908000   57.714900  -52.837500
  H    -125.641000   56.648900  -53.009900
  H    -126.647000   57.844800  -51.975700
  H    -124.946000   58.324100  -52.663700
  H    -123.112000   60.780800  -59.034700
  H    -130.533000   61.904100  -56.218200

 Total Charge           Charge          ....    0
 Multiplicity           Mult            ....    1
 Number of Electrons    NEL             ....  134
 Basis Dimension        Dim             ....  322

ORBITAL ENERGIES
----------------

  NO   OCC          E(Eh)            E(eV)
   0   2.0000     -88.965393     -2420.8714
   1   2.0000     -88.959854     -2420.7207
   2   2.0000     -10.325644      -280.9751
   3   2.0000     -10.320943      -280.8471
   4   2.0000     -10.320862      -280.8449
   5   2.0000     -10.311483      -280.5897
   6   2.0000     -10.308287      -280.5028
   7   2.0000     -10.298531      -280.2373
   8   2.0000     -10.297059      -280.1972
   9   2.0000     -10.295641      -280.1586
  10   2.0000     -10.289741      -279.9981
  11   2.0000     -10.289129      -279.9814
  12   2.0000     -10.287461      -279.9360
  13   2.0000     -10.287278      -279.9311
  14   2.0000     -10.285533      -279.8836
  15   2.0000     -10.281942      -279.7859
  16   2.0000      -8.080861      -219.8914
  17   2.0000      -8.074912      -219.7295
  18   2.0000      -6.039064      -164.3313
  19   2.0000      -6.035204      -164.2262
  20   2.0000      -6.033396      -164.1771
  21   2.0000      -6.031974      -164.1383
  22   2.0000      -6.029038      -164.0585
  23   2.0000      -6.025980      -163.9752
  24   2.0000      -1.008832       -27.4517
  25   2.0000      -0.983811       -26.7709
  26   2.0000      -0.913285       -24.8518
  27   2.0000      -0.908436       -24.7198
  28   2.0000      -0.872006       -23.7285
  29   2.0000      -0.848881       -23.0992
  30   2.0000      -0.843805       -22.9611
  31   2.0000      -0.812913       -22.1205
  32   2.0000      -0.778682       -21.1890
  33   2.0000      -0.764165       -20.7940
  34   2.0000      -0.710472       -19.3329
  35   2.0000      -0.696299       -18.9473
  36   2.0000      -0.689171       -18.7533
  37   2.0000      -0.659512       -17.9462
  38   2.0000      -0.643799       -17.5187
  39   2.0000      -0.620444       -16.8831
  40   2.0000      -0.591892       -16.1062
  41   2.0000      -0.571429       -15.5494
  42   2.0000      -0.566400       -15.4125
  43   2.0000      -0.555712       -15.1217
  44   2.0000      -0.526524       -14.3274
  45   2.0000      -0.524608       -14.2753
  46   2.0000      -0.518776       -14.1166
  47   2.0000      -0.504652       -13.7323
  48   2.0000      -0.503441       -13.6993
  49   2.0000      -0.500808       -13.6277
  50   2.0000      -0.494668       -13.4606
  51   2.0000      -0.479578       -13.0500
  52   2.0000      -0.469875       -12.7859
  53   2.0000      -0.467403       -12.7187
  54   2.0000      -0.455149       -12.3852
  55   2.0000      -0.448516       -12.2047
  56   2.0000      -0.440072       -11.9750
  57   2.0000      -0.436057       -11.8657
  58   2.0000      -0.432907       -11.7800
  59   2.0000      -0.423637       -11.5278
  60   2.0000      -0.418806       -11.3963
  61   2.0000      -0.414397       -11.2763
  62   2.0000      -0.411731       -11.2038
  63   2.0000      -0.339883        -9.2487
  64   2.0000      -0.323351        -8.7988
  65   2.0000      -0.315960        -8.5977
  66   2.0000      -0.303690        -8.2638
  67   0.0000       0.037110         1.0098
  68   0.0000       0.047620         1.2958
  69   0.0000       0.113455         3.0873
  70   0.0000       0.118047         3.2122
  71   0.0000       0.136826         3.7232

MULLIKEN ATOMIC CHARGES
-----------------------
   0 S :    0.132316
   1 C :   -0.097953
   2 C :   -0.121006
   3 C :    0.044330
   4 C :   -0.193854
   5 H :    0.033919
   6 C :    0.107819
   7 H :    0.011062
   8 H :    0.026571
   9 C :   -0.094879
  10 H :    0.028715
  11 H :    0.017194
  12 C :   -0.063966
  13 H :    0.044287
  14 H :    0.034740
  15 H :    0.038458
  16 S :    0.099333
  17 C :   -0.105425
  18 C :   -0.032883
  19 C :   -0.077127
  20 C :   -0.130358
  21 H :    0.013803
  22 C :    0.121681
  23 H :    0.000527
  24 H :    0.040154
  25 C :   -0.092317
  26 H :    0.038515
  27 H :    0.020653
  28 C :   -0.081450
  29 H :    0.046978
  30 H :    0.043633
  31 H :    0.045767
  32 H :    0.029942
  33 H :    0.070821
Sum of atomic charges:   -0.0000000

LOEWDIN ATOMIC CHARGES
----------------------
   0 S :    0.434107
   1 C :   -0.211843
   2 C :   -0.062743
   3 C :   -0.059807
   4 C :   -0.207047
   5 H :    0.039341
   6 C :   -0.029705
   7 H :    0.028724
   8 H :    0.027267
   9 C :   -0.045524
  10 H :    0.030515
  11 H :    0.014953
  12 C :   -0.073530
  13 H :    0.033335
  14 H :    0.024993
  15 H :    0.030176
  16 S :    0.418310
  17 C :   -0.189128
  18 C :   -0.086944
  19 C :   -0.034832
  20 C :   -0.218570
  21 H :    0.027651
  22 C :   -0.031191
  23 H :    0.022945
  24 H :    0.042419
  25 C :   -0.043234
  26 H :    0.029019
  27 H :    0.017880
  28 C :   -0.075295
  29 H :    0.028886
  30 H :    0.029285
  31 H :    0.033530
  32 H :    0.019423
  33 H :    0.036636

  Mayer bond orders larger than 0.100000
B(  0-S ,  1-C ) :   1.1603 B(  0-S ,  4-C ) :   1.1643 B(  1-C ,  2-C ) :   1.5710
B(  1-C , 32-H ) :   0.9750 B(  2-C ,  3-C ) :   1.2649 B(  2-C ,  6-C ) :   1.0394
B(  3-C ,  4-C ) :   1.5487 B(  3-C ,  5-H ) :   0.9876 B(  4-C , 20-C ) :   1.0195
B(  6-C ,  7-H ) :   0.9411 B(  6-C ,  8-H ) :   0.9310 B(  6-C ,  9-C ) :   1.0525
B(  9-C , 10-H ) :   0.9518 B(  9-C , 11-H ) :   0.9616 B(  9-C , 12-C ) :   1.0758
B( 12-C , 13-H ) :   0.9745 B( 12-C , 14-H ) :   0.9769 B( 12-C , 15-H ) :   0.9748
B( 16-S , 17-C ) :   1.1966 B( 16-S , 20-C ) :   1.1382 B( 17-C , 18-C ) :   1.5760
B( 17-C , 33-H ) :   0.9651 B( 18-C , 19-C ) :   1.2493 B( 18-C , 21-H ) :   0.9948
B( 19-C , 20-C ) :   1.5408 B( 19-C , 22-C ) :   1.0637 B( 22-C , 23-H ) :   0.9268
B( 22-C , 24-H ) :   0.9166 B( 22-C , 25-C ) :   1.0670 B( 25-C , 26-H ) :   0.9528
B( 25-C , 27-H ) :   0.9535 B( 25-C , 28-C ) :   1.0828 B( 28-C , 29-H ) :   0.9744
B( 28-C , 30-H ) :   0.9747 B( 28-C , 31-H ) :   0.9722

Dispersion correction           -0.014248029
FINAL SINGLE POINT ENERGY     -1339.869604348411

DIPOLE MOMENT
-------------
                                X             Y             Z
Electronic contribution:    -13.69914      -7.62475     -14.38271
Nuclear contribution   :     13.77761       8.09829      14.83600
                        -----------------------------------------
Total Dipole Moment    :      0.07848       0.47353       0.45329
                        -----------------------------------------
Magnitude (a.u.)       :      0.66020
Magnitude (Debye)      :      1.67810

Rotational constants in cm-1:     0.017339     0.008257     0.007334
Rotational constants in MHz :   519.795820   247.552457   219.881205

                             ****ORCA TERMINATED NORMALLY****
TOTAL RUN TIME: 0 days 0 hours 0 minutes 20 seconds 136 msec
