                         Program Version 4.2.1 -  RELEASE  -
|  1> ! wB97X-D3 SP def2-SVP
|  2> %pal
|  3> nprocs 24
|  4> end
|  5>
|  6> * xyz 0 1
|  7> S 	 25.1778 	 -6.58229 	 -119.705
|  8> C 	 24.9016 	 -6.47307 	 -121.474
|  9> C 	 26.1129 	 -6.57291 	 -122.11
| 10> C 	 27.1881 	 -6.9029 	 -121.228
| 11> C 	 26.8685 	 -6.9783 	 -119.888
| 12> H 	 28.1647 	 -7.17227 	 -121.56
| 13> C 	 26.2714 	 -6.6912 	 -123.589
| 14> H 	 27.1637 	 -7.26525 	 -123.563
| 15> H 	 26.5455 	 -5.7715 	 -124.069
| 16> C 	 25.2456 	 -7.40932 	 -124.494
| 17> H 	 24.26 	 -6.95792 	 -124.507
| 18> H 	 25.5554 	 -7.44948 	 -125.511
| 19> C 	 25.0212 	 -8.84926 	 -124.022
| 20> H 	 24.2098 	 -8.9135 	 -123.231
| 21> H 	 24.7807 	 -9.41041 	 -124.952
| 22> H 	 25.937 	 -9.28011 	 -123.611
| 23> S 	 27.7137 	 -6.10759 	 -117.446
| 24> C 	 29.0748 	 -6.91778 	 -116.666
| 25> C 	 29.4773 	 -8.05858 	 -117.307
| 26> C 	 28.852 	 -8.19742 	 -118.56
| 27> C 	 27.8353 	 -7.29396 	 -118.776
| 28> H 	 30.2837 	 -8.65407 	 -116.86
| 29> C 	 29.2268 	 -9.30408 	 -119.584
| 30> H 	 30.2264 	 -9.63439 	 -119.396
| 31> H 	 29.2221 	 -8.90836 	 -120.558
| 32> C 	 28.3008 	 -10.5336 	 -119.458
| 33> H 	 27.2913 	 -10.1515 	 -119.601
| 34> H 	 28.465 	 -11.0636 	 -118.547
| 35> C 	 28.515 	 -11.5813 	 -120.549
| 36> H 	 28.393 	 -11.253 	 -121.574
| 37> H 	 27.886 	 -12.4395 	 -120.537
| 38> H 	 29.5582 	 -11.8668 	 -120.487
| 39> H 	 24.0248 	 -6.12699 	 -121.908
| 40> H 	 29.6115 	 -6.62902 	 -115.762
| 41> *
| 42>
| 43>                          ****END OF INPUT****

CARTESIAN COORDINATES (ANGSTROEM)
---------------------------------
  S     25.177800   -6.582290  -119.705000
  C     24.901600   -6.473070  -121.474000
  C     26.112900   -6.572910  -122.110000
  C     27.188100   -6.902900  -121.228000
  C     26.868500   -6.978300  -119.888000
  H     28.164700   -7.172270  -121.560000
  C     26.271400   -6.691200  -123.589000
  H     27.163700   -7.265250  -123.563000
  H     26.545500   -5.771500  -124.069000
  C     25.245600   -7.409320  -124.494000
  H     24.260000   -6.957920  -124.507000
  H     25.555400   -7.449480  -125.511000
  C     25.021200   -8.849260  -124.022000
  H     24.209800   -8.913500  -123.231000
  H     24.780700   -9.410410  -124.952000
  H     25.937000   -9.280110  -123.611000
  S     27.713700   -6.107590  -117.446000
  C     29.074800   -6.917780  -116.666000
  C     29.477300   -8.058580  -117.307000
  C     28.852000   -8.197420  -118.560000
  C     27.835300   -7.293960  -118.776000
  H     30.283700   -8.654070  -116.860000
  C     29.226800   -9.304080  -119.584000
  H     30.226400   -9.634390  -119.396000
  H     29.222100   -8.908360  -120.558000
  C     28.300800  -10.533600  -119.458000
  H     27.291300  -10.151500  -119.601000
  H     28.465000  -11.063600  -118.547000
  C     28.515000  -11.581300  -120.549000
  H     28.393000  -11.253000  -121.574000
  H     27.886000  -12.439500  -120.537000
  H     29.558200  -11.866800  -120.487000
  H     24.024800   -6.126990  -121.908000
  H     29.611500   -6.629020  -115.762000

 Total Charge           Charge          ....    0
 Multiplicity           Mult            ....    1
 Number of Electrons    NEL             ....  134
 Basis Dimension        Dim             ....  322

ORBITAL ENERGIES
----------------

  NO   OCC          E(Eh)            E(eV)
   0   2.0000     -88.967882     -2420.9391
   1   2.0000     -88.966147     -2420.8919
   2   2.0000     -10.336485      -281.2701
   3   2.0000     -10.334079      -281.2046
   4   2.0000     -10.318354      -280.7767
   5   2.0000     -10.312085      -280.6061
   6   2.0000     -10.307737      -280.4878
   7   2.0000     -10.300609      -280.2938
   8   2.0000     -10.295181      -280.1461
   9   2.0000     -10.291094      -280.0349
  10   2.0000     -10.290276      -280.0126
  11   2.0000     -10.285488      -279.8823
  12   2.0000     -10.285220      -279.8751
  13   2.0000     -10.282151      -279.7916
  14   2.0000     -10.279892      -279.7301
  15   2.0000     -10.270095      -279.4635
  16   2.0000      -8.081858      -219.9185
  17   2.0000      -8.080200      -219.8734
  18   2.0000      -6.040403      -164.3677
  19   2.0000      -6.038919      -164.3274
  20   2.0000      -6.036542      -164.2627
  21   2.0000      -6.034718      -164.2130
  22   2.0000      -6.032541      -164.1538
  23   2.0000      -6.030848      -164.1077
  24   2.0000      -1.004796       -27.3419
  25   2.0000      -0.985292       -26.8112
  26   2.0000      -0.914965       -24.8975
  27   2.0000      -0.908672       -24.7262
  28   2.0000      -0.867507       -23.6061
  29   2.0000      -0.852113       -23.1872
  30   2.0000      -0.847154       -23.0522
  31   2.0000      -0.816798       -22.2262
  32   2.0000      -0.782775       -21.3004
  33   2.0000      -0.776076       -21.1181
  34   2.0000      -0.710336       -19.3292
  35   2.0000      -0.703484       -19.1428
  36   2.0000      -0.693914       -18.8824
  37   2.0000      -0.664329       -18.0773
  38   2.0000      -0.643348       -17.5064
  39   2.0000      -0.615153       -16.7392
  40   2.0000      -0.593003       -16.1364
  41   2.0000      -0.575943       -15.6722
  42   2.0000      -0.573041       -15.5932
  43   2.0000      -0.553764       -15.0687
  44   2.0000      -0.546823       -14.8798
  45   2.0000      -0.523986       -14.2584
  46   2.0000      -0.517246       -14.0750
  47   2.0000      -0.512717       -13.9517
  48   2.0000      -0.507071       -13.7981
  49   2.0000      -0.502286       -13.6679
  50   2.0000      -0.490059       -13.3352
  51   2.0000      -0.483636       -13.1604
  52   2.0000      -0.471801       -12.8383
  53   2.0000      -0.463976       -12.6254
  54   2.0000      -0.457166       -12.4401
  55   2.0000      -0.446837       -12.1591
  56   2.0000      -0.441732       -12.0201
  57   2.0000      -0.435147       -11.8409
  58   2.0000      -0.431155       -11.7323
  59   2.0000      -0.428691       -11.6653
  60   2.0000      -0.424496       -11.5511
  61   2.0000      -0.416419       -11.3313
  62   2.0000      -0.408355       -11.1119
  63   2.0000      -0.349385        -9.5072
  64   2.0000      -0.335799        -9.1375
  65   2.0000      -0.328956        -8.9514
  66   2.0000      -0.294531        -8.0146
  67   0.0000       0.029465         0.8018
  68   0.0000       0.065082         1.7710
  69   0.0000       0.104330         2.8390
  70   0.0000       0.115846         3.1523
  71   0.0000       0.131735         3.5847

MULLIKEN ATOMIC CHARGES
-----------------------
   0 S :    0.093094
   1 C :   -0.103476
   2 C :   -0.077665
   3 C :    0.010043
   4 C :   -0.106994
   5 H :    0.000690
   6 C :    0.087430
   7 H :    0.001014
   8 H :    0.032390
   9 C :   -0.053622
  10 H :    0.026895
  11 H :    0.023164
  12 C :   -0.083206
  13 H :    0.052542
  14 H :    0.036350
  15 H :    0.026986
  16 S :    0.099512
  17 C :   -0.086160
  18 C :   -0.049763
  19 C :   -0.043225
  20 C :   -0.154812
  21 H :    0.028533
  22 C :    0.109763
  23 H :    0.002993
  24 H :    0.001929
  25 C :   -0.055428
  26 H :    0.039041
  27 H :    0.029018
  28 C :   -0.031541
  29 H :    0.014861
  30 H :    0.030070
  31 H :    0.014152
  32 H :    0.031327
  33 H :    0.054095
Sum of atomic charges:    0.0000000

LOEWDIN ATOMIC CHARGES
----------------------
   0 S :    0.387046
   1 C :   -0.173115
   2 C :   -0.058879
   3 C :   -0.070830
   4 C :   -0.191928
   5 H :    0.022405
   6 C :   -0.033093
   7 H :    0.027054
   8 H :    0.030559
   9 C :   -0.038679
  10 H :    0.022988
  11 H :    0.023430
  12 C :   -0.070126
  13 H :    0.032919
  14 H :    0.029318
  15 H :    0.020492
  16 S :    0.386950
  17 C :   -0.176386
  18 C :   -0.075234
  19 C :   -0.051223
  20 C :   -0.176948
  21 H :    0.039202
  22 C :   -0.016431
  23 H :    0.023030
  24 H :    0.019683
  25 C :   -0.030174
  26 H :    0.027327
  27 H :    0.023654
  28 C :   -0.066805
  29 H :    0.020510
  30 H :    0.023181
  31 H :    0.020995
  32 H :    0.016821
  33 H :    0.032285

  Mayer bond orders larger than 0.100000
B(  0-S ,  1-C ) :   1.1185 B(  0-S ,  4-C ) :   1.1534 B(  1-C ,  2-C ) :   1.6141
B(  1-C , 32-H ) :   0.9766 B(  2-C ,  3-C ) :   1.2482 B(  2-C ,  6-C ) :   1.0045
B(  3-C ,  4-C ) :   1.5788 B(  3-C ,  5-H ) :   0.9911 B(  4-C , 20-C ) :   1.0075
B(  6-C ,  7-H ) :   0.9456 B(  6-C ,  8-H ) :   0.9234 B(  6-C ,  9-C ) :   1.0899
B(  9-C , 10-H ) :   0.9523 B(  9-C , 11-H ) :   0.9569 B(  9-C , 12-C ) :   1.0712
B( 12-C , 13-H ) :   0.9749 B( 12-C , 14-H ) :   0.9773 B( 12-C , 15-H ) :   0.9801
B( 16-S , 17-C ) :   1.1498 B( 16-S , 20-C ) :   1.1261 B( 17-C , 18-C ) :   1.6444
B( 17-C , 20-C ) :   0.1016 B( 17-C , 33-H ) :   0.9611 B( 18-C , 19-C ) :   1.2268
B( 18-C , 21-H ) :   0.9854 B( 19-C , 20-C ) :   1.6386 B( 19-C , 22-C ) :   1.0342
B( 22-C , 23-H ) :   0.9262 B( 22-C , 24-H ) :   0.9386 B( 22-C , 25-C ) :   1.0702
B( 25-C , 26-H ) :   0.9592 B( 25-C , 27-H ) :   0.9559 B( 25-C , 28-C ) :   1.0843
B( 28-C , 29-H ) :   0.9737 B( 28-C , 30-H ) :   0.9743 B( 28-C , 31-H ) :   0.9720

Dispersion correction           -0.014562791
FINAL SINGLE POINT ENERGY     -1339.866120874669

DIPOLE MOMENT
-------------
                                X             Y             Z
Electronic contribution:     -2.90644      20.07688      22.34467
Nuclear contribution   :      3.32819     -20.42947     -22.83641
                        -----------------------------------------
Total Dipole Moment    :      0.42175      -0.35260      -0.49174
                        -----------------------------------------
Magnitude (a.u.)       :      0.73757
Magnitude (Debye)      :      1.87475

Rotational constants in cm-1:     0.018916     0.009230     0.006876
Rotational constants in MHz :   567.084534   276.709657   206.126695

                             ****ORCA TERMINATED NORMALLY****
TOTAL RUN TIME: 0 days 0 hours 0 minutes 22 seconds 140 msec
