                         Program Version 4.2.1 -  RELEASE  -
|  1> ! wB97X-D3 SP def2-SVP
|  2> %pal
|  3> nprocs 24
|  4> end
|  5>
|  6> * xyz 0 1
|  7> S 	 -105.514 	 65.8261 	 -11.291
|  8> C 	 -105.091 	 67.3248 	 -10.5269
|  9> C 	 -104.284 	 67.0804 	 -9.38995
| 10> C 	 -104.116 	 65.6805 	 -9.09444
| 11> C 	 -104.737 	 64.8803 	 -10.0417
| 12> H 	 -103.658 	 65.1394 	 -8.26691
| 13> C 	 -103.853 	 68.146 	 -8.41151
| 14> H 	 -104.291 	 69.0754 	 -8.74216
| 15> H 	 -102.76 	 68.1266 	 -8.53674
| 16> C 	 -104.336 	 68.0465 	 -6.98191
| 17> H 	 -105.406 	 68.0439 	 -6.89018
| 18> H 	 -103.931 	 67.2007 	 -6.47615
| 19> C 	 -103.982 	 69.1928 	 -6.0745
| 20> H 	 -102.896 	 69.3632 	 -6.22293
| 21> H 	 -104.585 	 70.0393 	 -6.40948
| 22> H 	 -104.163 	 68.9586 	 -5.00605
| 23> S 	 -104.656 	 62.6905 	 -11.5611
| 24> C 	 -105.325 	 61.1693 	 -11.0745
| 25> C 	 -105.673 	 61.2687 	 -9.78257
| 26> C 	 -105.494 	 62.5352 	 -9.12272
| 27> C 	 -105.037 	 63.4909 	 -10.0338
| 28> H 	 -106.066 	 60.3632 	 -9.35898
| 29> C 	 -105.888 	 62.6788 	 -7.64937
| 30> H 	 -105.686 	 63.6976 	 -7.3189
| 31> H 	 -105.291 	 62.0883 	 -6.95578
| 32> C 	 -107.4 	 62.3351 	 -7.38935
| 33> H 	 -107.525 	 62.7637 	 -6.3443
| 34> H 	 -107.617 	 61.2479 	 -7.3176
| 35> C 	 -108.515 	 62.9052 	 -8.30622
| 36> H 	 -109.492 	 62.8615 	 -7.77825
| 37> H 	 -108.683 	 62.4104 	 -9.23861
| 38> H 	 -108.277 	 63.9145 	 -8.4328
| 39> H 	 -105.597 	 68.2141 	 -10.7332
| 40> H 	 -105.395 	 60.2962 	 -11.718
| 41> *
| 42>
| 43>                          ****END OF INPUT****

CARTESIAN COORDINATES (ANGSTROEM)
---------------------------------
  S    -105.514000   65.826100  -11.291000
  C    -105.091000   67.324800  -10.526900
  C    -104.284000   67.080400   -9.389950
  C    -104.116000   65.680500   -9.094440
  C    -104.737000   64.880300  -10.041700
  H    -103.658000   65.139400   -8.266910
  C    -103.853000   68.146000   -8.411510
  H    -104.291000   69.075400   -8.742160
  H    -102.760000   68.126600   -8.536740
  C    -104.336000   68.046500   -6.981910
  H    -105.406000   68.043900   -6.890180
  H    -103.931000   67.200700   -6.476150
  C    -103.982000   69.192800   -6.074500
  H    -102.896000   69.363200   -6.222930
  H    -104.585000   70.039300   -6.409480
  H    -104.163000   68.958600   -5.006050
  S    -104.656000   62.690500  -11.561100
  C    -105.325000   61.169300  -11.074500
  C    -105.673000   61.268700   -9.782570
  C    -105.494000   62.535200   -9.122720
  C    -105.037000   63.490900  -10.033800
  H    -106.066000   60.363200   -9.358980
  C    -105.888000   62.678800   -7.649370
  H    -105.686000   63.697600   -7.318900
  H    -105.291000   62.088300   -6.955780
  C    -107.400000   62.335100   -7.389350
  H    -107.525000   62.763700   -6.344300
  H    -107.617000   61.247900   -7.317600
  C    -108.515000   62.905200   -8.306220
  H    -109.492000   62.861500   -7.778250
  H    -108.683000   62.410400   -9.238610
  H    -108.277000   63.914500   -8.432800
  H    -105.597000   68.214100  -10.733200
  H    -105.395000   60.296200  -11.718000

 Total Charge           Charge          ....    0
 Multiplicity           Mult            ....    1
 Number of Electrons    NEL             ....  134
 Basis Dimension        Dim             ....  322

ORBITAL ENERGIES
----------------

  NO   OCC          E(Eh)            E(eV)
   0   2.0000     -88.964880     -2420.8575
   1   2.0000     -88.956004     -2420.6159
   2   2.0000     -10.327596      -281.0282
   3   2.0000     -10.327095      -281.0145
   4   2.0000     -10.313255      -280.6379
   5   2.0000     -10.311000      -280.5766
   6   2.0000     -10.308824      -280.5174
   7   2.0000     -10.307891      -280.4920
   8   2.0000     -10.299132      -280.2536
   9   2.0000     -10.298420      -280.2343
  10   2.0000     -10.294727      -280.1338
  11   2.0000     -10.292063      -280.0613
  12   2.0000     -10.286303      -279.9045
  13   2.0000     -10.280612      -279.7497
  14   2.0000     -10.278547      -279.6935
  15   2.0000     -10.269884      -279.4577
  16   2.0000      -8.079960      -219.8669
  17   2.0000      -8.071536      -219.6377
  18   2.0000      -6.038385      -164.3128
  19   2.0000      -6.034260      -164.2006
  20   2.0000      -6.030908      -164.1094
  21   2.0000      -6.030165      -164.0891
  22   2.0000      -6.025821      -163.9709
  23   2.0000      -6.022214      -163.8728
  24   2.0000      -1.009622       -27.4732
  25   2.0000      -0.983993       -26.7758
  26   2.0000      -0.920326       -25.0434
  27   2.0000      -0.900591       -24.5063
  28   2.0000      -0.877724       -23.8841
  29   2.0000      -0.853758       -23.2319
  30   2.0000      -0.839936       -22.8558
  31   2.0000      -0.819376       -22.2963
  32   2.0000      -0.785674       -21.3793
  33   2.0000      -0.772950       -21.0330
  34   2.0000      -0.710105       -19.3229
  35   2.0000      -0.693144       -18.8614
  36   2.0000      -0.690001       -18.7759
  37   2.0000      -0.657124       -17.8813
  38   2.0000      -0.646495       -17.5920
  39   2.0000      -0.620522       -16.8853
  40   2.0000      -0.599904       -16.3242
  41   2.0000      -0.581362       -15.8197
  42   2.0000      -0.564700       -15.3663
  43   2.0000      -0.552787       -15.0421
  44   2.0000      -0.536161       -14.5897
  45   2.0000      -0.526228       -14.3194
  46   2.0000      -0.521457       -14.1896
  47   2.0000      -0.516965       -14.0673
  48   2.0000      -0.510290       -13.8857
  49   2.0000      -0.502644       -13.6776
  50   2.0000      -0.493958       -13.4413
  51   2.0000      -0.478375       -13.0172
  52   2.0000      -0.474632       -12.9154
  53   2.0000      -0.466082       -12.6827
  54   2.0000      -0.460097       -12.5199
  55   2.0000      -0.447808       -12.1855
  56   2.0000      -0.446329       -12.1452
  57   2.0000      -0.434016       -11.8102
  58   2.0000      -0.427268       -11.6266
  59   2.0000      -0.419484       -11.4147
  60   2.0000      -0.414635       -11.2828
  61   2.0000      -0.412003       -11.2112
  62   2.0000      -0.407367       -11.0850
  63   2.0000      -0.349765        -9.5176
  64   2.0000      -0.332527        -9.0485
  65   2.0000      -0.324300        -8.8246
  66   2.0000      -0.290031        -7.8921
  67   0.0000       0.029577         0.8048
  68   0.0000       0.067574         1.8388
  69   0.0000       0.116914         3.1814
  70   0.0000       0.122038         3.3208
  71   0.0000       0.130236         3.5439

MULLIKEN ATOMIC CHARGES
-----------------------
   0 S :    0.117137
   1 C :   -0.096312
   2 C :   -0.106189
   3 C :    0.033687
   4 C :   -0.153267
   5 H :    0.022911
   6 C :    0.087620
   7 H :    0.002788
   8 H :    0.044882
   9 C :   -0.061687
  10 H :    0.024715
  11 H :    0.014219
  12 C :   -0.069785
  13 H :    0.029689
  14 H :    0.031678
  15 H :    0.046056
  16 S :    0.077126
  17 C :   -0.080815
  18 C :   -0.047393
  19 C :   -0.008115
  20 C :   -0.173910
  21 H :    0.008557
  22 C :    0.110768
  23 H :    0.009099
  24 H :    0.035801
  25 C :   -0.152884
  26 H :    0.036787
  27 H :    0.037669
  28 C :   -0.011401
  29 H :    0.032999
  30 H :    0.037594
  31 H :    0.019902
  32 H :    0.039070
  33 H :    0.061002
Sum of atomic charges:    0.0000000

LOEWDIN ATOMIC CHARGES
----------------------
   0 S :    0.421696
   1 C :   -0.199873
   2 C :   -0.054179
   3 C :   -0.062962
   4 C :   -0.197075
   5 H :    0.037273
   6 C :   -0.032395
   7 H :    0.026894
   8 H :    0.039612
   9 C :   -0.045258
  10 H :    0.024391
  11 H :    0.015434
  12 C :   -0.062401
  13 H :    0.024964
  14 H :    0.022151
  15 H :    0.031691
  16 S :    0.393963
  17 C :   -0.187908
  18 C :   -0.075106
  19 C :   -0.059307
  20 C :   -0.192637
  21 H :    0.027772
  22 C :   -0.031292
  23 H :    0.026401
  24 H :    0.036191
  25 C :   -0.047098
  26 H :    0.031481
  27 H :    0.021779
  28 C :   -0.062334
  29 H :    0.033182
  30 H :    0.023819
  31 H :    0.018605
  32 H :    0.017799
  33 H :    0.034726

  Mayer bond orders larger than 0.100000
B(  0-S ,  1-C ) :   1.1475 B(  0-S ,  4-C ) :   1.1623 B(  1-C ,  2-C ) :   1.5916
B(  1-C , 32-H ) :   0.9763 B(  2-C ,  3-C ) :   1.2110 B(  2-C ,  6-C ) :   1.0331
B(  3-C ,  4-C ) :   1.5836 B(  3-C ,  5-H ) :   0.9968 B(  4-C , 20-C ) :   1.0313
B(  6-C ,  7-H ) :   0.9419 B(  6-C ,  8-H ) :   0.9259 B(  6-C ,  9-C ) :   1.0755
B(  9-C , 10-H ) :   0.9581 B(  9-C , 11-H ) :   0.9475 B(  9-C , 12-C ) :   1.0873
B( 12-C , 13-H ) :   0.9743 B( 12-C , 14-H ) :   0.9782 B( 12-C , 15-H ) :   0.9740
B( 16-S , 17-C ) :   1.1290 B( 16-S , 20-C ) :   1.1498 B( 17-C , 18-C ) :   1.6346
B( 17-C , 33-H ) :   0.9700 B( 18-C , 19-C ) :   1.1980 B( 18-C , 21-H ) :   0.9934
B( 19-C , 20-C ) :   1.5893 B( 19-C , 22-C ) :   1.0525 B( 22-C , 23-H ) :   0.9328
B( 22-C , 24-H ) :   0.9338 B( 22-C , 25-C ) :   1.0600 B( 25-C , 26-H ) :   0.9584
B( 25-C , 27-H ) :   0.9585 B( 25-C , 28-C ) :   1.0760 B( 28-C , 29-H ) :   0.9725
B( 28-C , 30-H ) :   0.9734 B( 28-C , 31-H ) :   0.9761

Dispersion correction           -0.014176554
FINAL SINGLE POINT ENERGY     -1339.868559276983

DIPOLE MOMENT
-------------
                                X             Y             Z
Electronic contribution:      6.24994      -9.15712     -25.75904
Nuclear contribution   :     -6.46959       9.18652      26.51190
                        -----------------------------------------
Total Dipole Moment    :     -0.21965       0.02940       0.75286
                        -----------------------------------------
Magnitude (a.u.)       :      0.78480
Magnitude (Debye)      :      1.99480

Rotational constants in cm-1:     0.019674     0.008438     0.006814
Rotational constants in MHz :   589.812854   252.959739   204.285980

                             ****ORCA TERMINATED NORMALLY****
TOTAL RUN TIME: 0 days 0 hours 0 minutes 21 seconds 564 msec
