                         Program Version 4.2.1 -  RELEASE  -
|  1> ! wB97X-D3 SP def2-SVP
|  2> %pal
|  3> nprocs 24
|  4> end
|  5>
|  6> * xyz 0 1
|  7> S 	 -56.4836 	 12.9155 	 -92.9323
|  8> C 	 -55.2476 	 12.1262 	 -91.9583
|  9> C 	 -54.7786 	 12.9121 	 -90.9482
| 10> C 	 -55.1946 	 14.2608 	 -91.0975
| 11> C 	 -56.1465 	 14.4284 	 -92.1113
| 12> H 	 -54.8109 	 14.9878 	 -90.4728
| 13> C 	 -53.9138 	 12.4161 	 -89.8208
| 14> H 	 -53.7134 	 13.2763 	 -89.1457
| 15> H 	 -52.9147 	 12.2032 	 -90.1975
| 16> C 	 -54.4622 	 11.3729 	 -88.8481
| 17> H 	 -55.4991 	 11.7299 	 -88.5814
| 18> H 	 -54.5014 	 10.479 	 -89.4014
| 19> C 	 -53.57 	 11.294 	 -87.5645
| 20> H 	 -53.496 	 12.183 	 -86.9994
| 21> H 	 -53.857 	 10.4465 	 -87.0127
| 22> H 	 -52.5678 	 10.9745 	 -87.8694
| 23> S 	 -58.5162 	 15.8556 	 -92.3198
| 24> C 	 -58.4883 	 17.4591 	 -93.0306
| 25> C 	 -57.2493 	 17.9585 	 -92.9809
| 26> C 	 -56.259 	 16.9954 	 -92.5575
| 27> C 	 -56.7183 	 15.7351 	 -92.4544
| 28> H 	 -57.1403 	 18.9369 	 -93.275
| 29> C 	 -54.8022 	 17.5001 	 -92.4968
| 30> H 	 -54.5937 	 18.1123 	 -93.3454
| 31> H 	 -54.0898 	 16.6091 	 -92.4396
| 32> C 	 -54.5605 	 18.3698 	 -91.2386
| 33> H 	 -54.8669 	 17.8905 	 -90.3642
| 34> H 	 -55.1055 	 19.3139 	 -91.3929
| 35> C 	 -53.1075 	 18.9659 	 -91.1795
| 36> H 	 -52.3204 	 18.3126 	 -90.7913
| 37> H 	 -53.0812 	 19.7843 	 -90.5632
| 38> H 	 -52.8794 	 19.4486 	 -92.1209
| 39> H 	 -54.9399 	 11.1113 	 -91.96
| 40> H 	 -59.3331 	 18.0774 	 -93.3166
| 41> *
| 42>
| 43>                          ****END OF INPUT****

CARTESIAN COORDINATES (ANGSTROEM)
---------------------------------
  S    -56.483600   12.915500  -92.932300
  C    -55.247600   12.126200  -91.958300
  C    -54.778600   12.912100  -90.948200
  C    -55.194600   14.260800  -91.097500
  C    -56.146500   14.428400  -92.111300
  H    -54.810900   14.987800  -90.472800
  C    -53.913800   12.416100  -89.820800
  H    -53.713400   13.276300  -89.145700
  H    -52.914700   12.203200  -90.197500
  C    -54.462200   11.372900  -88.848100
  H    -55.499100   11.729900  -88.581400
  H    -54.501400   10.479000  -89.401400
  C    -53.570000   11.294000  -87.564500
  H    -53.496000   12.183000  -86.999400
  H    -53.857000   10.446500  -87.012700
  H    -52.567800   10.974500  -87.869400
  S    -58.516200   15.855600  -92.319800
  C    -58.488300   17.459100  -93.030600
  C    -57.249300   17.958500  -92.980900
  C    -56.259000   16.995400  -92.557500
  C    -56.718300   15.735100  -92.454400
  H    -57.140300   18.936900  -93.275000
  C    -54.802200   17.500100  -92.496800
  H    -54.593700   18.112300  -93.345400
  H    -54.089800   16.609100  -92.439600
  C    -54.560500   18.369800  -91.238600
  H    -54.866900   17.890500  -90.364200
  H    -55.105500   19.313900  -91.392900
  C    -53.107500   18.965900  -91.179500
  H    -52.320400   18.312600  -90.791300
  H    -53.081200   19.784300  -90.563200
  H    -52.879400   19.448600  -92.120900
  H    -54.939900   11.111300  -91.960000
  H    -59.333100   18.077400  -93.316600

 Total Charge           Charge          ....    0
 Multiplicity           Mult            ....    1
 Number of Electrons    NEL             ....  134
 Basis Dimension        Dim             ....  322

ORBITAL ENERGIES
----------------

  NO   OCC          E(Eh)            E(eV)
   0   2.0000     -88.973642     -2421.0959
   1   2.0000     -88.952783     -2420.5283
   2   2.0000     -10.333247      -281.1819
   3   2.0000     -10.326619      -281.0016
   4   2.0000     -10.309845      -280.5451
   5   2.0000     -10.309588      -280.5382
   6   2.0000     -10.301729      -280.3243
   7   2.0000     -10.294917      -280.1389
   8   2.0000     -10.293708      -280.1060
   9   2.0000     -10.291465      -280.0450
  10   2.0000     -10.291389      -280.0429
  11   2.0000     -10.290790      -280.0266
  12   2.0000     -10.286271      -279.9037
  13   2.0000     -10.281283      -279.7679
  14   2.0000     -10.277751      -279.6718
  15   2.0000     -10.272867      -279.5389
  16   2.0000      -8.087517      -220.0725
  17   2.0000      -8.067569      -219.5297
  18   2.0000      -6.046119      -164.5232
  19   2.0000      -6.042181      -164.4161
  20   2.0000      -6.038180      -164.3072
  21   2.0000      -6.026331      -163.9848
  22   2.0000      -6.022412      -163.8781
  23   2.0000      -6.017695      -163.7498
  24   2.0000      -1.005311       -27.3559
  25   2.0000      -0.985673       -26.8215
  26   2.0000      -0.913908       -24.8687
  27   2.0000      -0.903466       -24.5846
  28   2.0000      -0.871757       -23.7217
  29   2.0000      -0.854223       -23.2446
  30   2.0000      -0.842169       -22.9166
  31   2.0000      -0.817011       -22.2320
  32   2.0000      -0.784308       -21.3421
  33   2.0000      -0.775953       -21.1147
  34   2.0000      -0.712246       -19.3812
  35   2.0000      -0.706341       -19.2205
  36   2.0000      -0.694924       -18.9098
  37   2.0000      -0.662385       -18.0244
  38   2.0000      -0.639160       -17.3924
  39   2.0000      -0.620431       -16.8828
  40   2.0000      -0.590564       -16.0701
  41   2.0000      -0.580493       -15.7960
  42   2.0000      -0.573987       -15.6190
  43   2.0000      -0.569033       -15.4842
  44   2.0000      -0.526740       -14.3333
  45   2.0000      -0.518105       -14.0984
  46   2.0000      -0.516233       -14.0474
  47   2.0000      -0.512011       -13.9325
  48   2.0000      -0.507027       -13.7969
  49   2.0000      -0.499492       -13.5919
  50   2.0000      -0.495961       -13.4958
  51   2.0000      -0.483097       -13.1457
  52   2.0000      -0.473719       -12.8906
  53   2.0000      -0.464161       -12.6305
  54   2.0000      -0.458404       -12.4738
  55   2.0000      -0.454855       -12.3772
  56   2.0000      -0.447055       -12.1650
  57   2.0000      -0.440729       -11.9928
  58   2.0000      -0.432876       -11.7791
  59   2.0000      -0.426437       -11.6039
  60   2.0000      -0.419999       -11.4287
  61   2.0000      -0.414171       -11.2702
  62   2.0000      -0.406222       -11.0539
  63   2.0000      -0.345159        -9.3923
  64   2.0000      -0.335470        -9.1286
  65   2.0000      -0.321454        -8.7472
  66   2.0000      -0.296313        -8.0631
  67   0.0000       0.028533         0.7764
  68   0.0000       0.071348         1.9415
  69   0.0000       0.107910         2.9364
  70   0.0000       0.117858         3.2071
  71   0.0000       0.127224         3.4619

MULLIKEN ATOMIC CHARGES
-----------------------
   0 S :    0.140435
   1 C :   -0.100498
   2 C :   -0.090349
   3 C :    0.061213
   4 C :   -0.140827
   5 H :   -0.025064
   6 C :    0.030959
   7 H :    0.004213
   8 H :    0.034909
   9 C :   -0.064634
  10 H :    0.044674
  11 H :    0.020794
  12 C :   -0.014403
  13 H :    0.038895
  14 H :    0.024249
  15 H :    0.016583
  16 S :    0.057614
  17 C :   -0.067127
  18 C :   -0.012125
  19 C :   -0.009427
  20 C :   -0.136063
  21 H :   -0.015633
  22 C :    0.054378
  23 H :    0.017921
  24 H :    0.038654
  25 C :   -0.091601
  26 H :    0.024534
  27 H :    0.027369
  28 C :   -0.008092
  29 H :    0.037920
  30 H :    0.003931
  31 H :    0.017623
  32 H :    0.026549
  33 H :    0.052424
Sum of atomic charges:   -0.0000000

LOEWDIN ATOMIC CHARGES
----------------------
   0 S :    0.416699
   1 C :   -0.187578
   2 C :   -0.065485
   3 C :   -0.042350
   4 C :   -0.197708
   5 H :    0.017635
   6 C :   -0.042237
   7 H :    0.028357
   8 H :    0.030222
   9 C :   -0.030657
  10 H :    0.033377
  11 H :    0.014343
  12 C :   -0.056448
  13 H :    0.022109
  14 H :    0.023603
  15 H :    0.027516
  16 S :    0.351942
  17 C :   -0.169371
  18 C :   -0.066843
  19 C :   -0.054905
  20 C :   -0.169515
  21 H :    0.018247
  22 C :   -0.027592
  23 H :    0.023993
  24 H :    0.033713
  25 C :   -0.030511
  26 H :    0.013184
  27 H :    0.027440
  28 C :   -0.061974
  29 H :    0.025220
  30 H :    0.014076
  31 H :    0.026609
  32 H :    0.022017
  33 H :    0.032872

  Mayer bond orders larger than 0.100000
B(  0-S ,  1-C ) :   1.1328 B(  0-S ,  4-C ) :   1.1521 B(  1-C ,  2-C ) :   1.6207
B(  1-C , 32-H ) :   0.9684 B(  2-C ,  3-C ) :   1.2679 B(  2-C ,  6-C ) :   1.0181
B(  3-C ,  4-C ) :   1.5344 B(  3-C ,  5-H ) :   1.0065 B(  4-C , 20-C ) :   1.0355
B(  6-C ,  7-H ) :   0.9440 B(  6-C ,  8-H ) :   0.9320 B(  6-C ,  9-C ) :   1.0532
B(  9-C , 10-H ) :   0.9575 B(  9-C , 11-H ) :   0.9560 B(  9-C , 12-C ) :   1.0853
B( 12-C , 13-H ) :   0.9769 B( 12-C , 14-H ) :   0.9722 B( 12-C , 15-H ) :   0.9704
B( 16-S , 17-C ) :   1.1178 B( 16-S , 20-C ) :   1.0997 B( 17-C , 18-C ) :   1.6819
B( 17-C , 33-H ) :   0.9644 B( 18-C , 19-C ) :   1.1517 B( 18-C , 21-H ) :   1.0054
B( 19-C , 20-C ) :   1.6794 B( 19-C , 22-C ) :   1.0421 B( 22-C , 23-H ) :   0.9390
B( 22-C , 24-H ) :   0.9435 B( 22-C , 25-C ) :   1.0616 B( 25-C , 26-H ) :   0.9616
B( 25-C , 27-H ) :   0.9570 B( 25-C , 28-C ) :   1.0793 B( 28-C , 29-H ) :   0.9758
B( 28-C , 30-H ) :   0.9732 B( 28-C , 31-H ) :   0.9689

Dispersion correction           -0.013609818
FINAL SINGLE POINT ENERGY     -1339.848507469959

DIPOLE MOMENT
-------------
                                X             Y             Z
Electronic contribution:    -22.86877      -4.34935     -17.73169
Nuclear contribution   :     23.50465       4.60967      18.17834
                        -----------------------------------------
Total Dipole Moment    :      0.63588       0.26032       0.44665
                        -----------------------------------------
Magnitude (a.u.)       :      0.81952
Magnitude (Debye)      :      2.08305

Rotational constants in cm-1:     0.017434     0.008070     0.006188
Rotational constants in MHz :   522.648456   241.935241   185.514840

                             ****ORCA TERMINATED NORMALLY****
TOTAL RUN TIME: 0 days 0 hours 0 minutes 21 seconds 175 msec
