                         Program Version 4.2.1 -  RELEASE  -
|  1> ! wB97X-D3 SP def2-SVP
|  2> %pal
|  3> nprocs 24
|  4> end
|  5>
|  6> * xyz 0 1
|  7> S 	 -102.87 	 62.8319 	 -9.09358
|  8> C 	 -103.913 	 64.2195 	 -8.98722
|  9> C 	 -103.823 	 64.9328 	 -10.2224
| 10> C 	 -103.236 	 64.2155 	 -11.2865
| 11> C 	 -102.579 	 63.125 	 -10.8103
| 12> H 	 -103.083 	 64.6219 	 -12.2843
| 13> C 	 -104.475 	 66.2007 	 -10.4055
| 14> H 	 -103.74 	 66.966 	 -10.5279
| 15> H 	 -104.99 	 66.4655 	 -9.40443
| 16> C 	 -105.505 	 66.3051 	 -11.5552
| 17> H 	 -104.892 	 66.2935 	 -12.4709
| 18> H 	 -106.29 	 65.5207 	 -11.7242
| 19> C 	 -106.297 	 67.616 	 -11.572
| 20> H 	 -107.079 	 67.5846 	 -10.8012
| 21> H 	 -105.705 	 68.5222 	 -11.25
| 22> H 	 -106.905 	 67.797 	 -12.4185
| 23> S 	 -101.972 	 60.5012 	 -11.6985
| 24> C 	 -100.744 	 60.2172 	 -12.8847
| 25> C 	 -100.16 	 61.45 	 -13.2394
| 26> C 	 -100.702 	 62.5928 	 -12.5147
| 27> C 	 -101.79 	 62.2451 	 -11.6974
| 28> H 	 -99.41 	 61.4635 	 -13.9694
| 29> C 	 -99.956 	 63.9638 	 -12.6738
| 30> H 	 -100.63 	 64.6834 	 -12.1752
| 31> H 	 -100.006 	 64.2369 	 -13.7062
| 32> C 	 -98.4876 	 63.9368 	 -12.0593
| 33> H 	 -98.0049 	 64.8141 	 -12.5234
| 34> H 	 -97.8851 	 63.0504 	 -12.3251
| 35> C 	 -98.3291 	 64.0913 	 -10.5181
| 36> H 	 -98.8403 	 63.2548 	 -10.0007
| 37> H 	 -98.8806 	 65.0052 	 -10.2194
| 38> H 	 -97.3084 	 64.2166 	 -10.1502
| 39> H 	 -104.531 	 64.6109 	 -8.16316
| 40> H 	 -100.458 	 59.2483 	 -13.2644
| 41> *
| 42>
| 43>                          ****END OF INPUT****

CARTESIAN COORDINATES (ANGSTROEM)
---------------------------------
  S    -102.870000   62.831900   -9.093580
  C    -103.913000   64.219500   -8.987220
  C    -103.823000   64.932800  -10.222400
  C    -103.236000   64.215500  -11.286500
  C    -102.579000   63.125000  -10.810300
  H    -103.083000   64.621900  -12.284300
  C    -104.475000   66.200700  -10.405500
  H    -103.740000   66.966000  -10.527900
  H    -104.990000   66.465500   -9.404430
  C    -105.505000   66.305100  -11.555200
  H    -104.892000   66.293500  -12.470900
  H    -106.290000   65.520700  -11.724200
  C    -106.297000   67.616000  -11.572000
  H    -107.079000   67.584600  -10.801200
  H    -105.705000   68.522200  -11.250000
  H    -106.905000   67.797000  -12.418500
  S    -101.972000   60.501200  -11.698500
  C    -100.744000   60.217200  -12.884700
  C    -100.160000   61.450000  -13.239400
  C    -100.702000   62.592800  -12.514700
  C    -101.790000   62.245100  -11.697400
  H    -99.410000   61.463500  -13.969400
  C    -99.956000   63.963800  -12.673800
  H    -100.630000   64.683400  -12.175200
  H    -100.006000   64.236900  -13.706200
  C    -98.487600   63.936800  -12.059300
  H    -98.004900   64.814100  -12.523400
  H    -97.885100   63.050400  -12.325100
  C    -98.329100   64.091300  -10.518100
  H    -98.840300   63.254800  -10.000700
  H    -98.880600   65.005200  -10.219400
  H    -97.308400   64.216600  -10.150200
  H    -104.531000   64.610900   -8.163160
  H    -100.458000   59.248300  -13.264400

 Total Charge           Charge          ....    0
 Multiplicity           Mult            ....    1
 Number of Electrons    NEL             ....  134
 Basis Dimension        Dim             ....  322

ORBITAL ENERGIES
----------------

  NO   OCC          E(Eh)            E(eV)
   0   2.0000     -88.971055     -2421.0255
   1   2.0000     -88.964220     -2420.8395
   2   2.0000     -10.331529      -281.1352
   3   2.0000     -10.329891      -281.0906
   4   2.0000     -10.320455      -280.8338
   5   2.0000     -10.317942      -280.7655
   6   2.0000     -10.309060      -280.5238
   7   2.0000     -10.300877      -280.3011
   8   2.0000     -10.296741      -280.1886
   9   2.0000     -10.295258      -280.1482
  10   2.0000     -10.293508      -280.1006
  11   2.0000     -10.293341      -280.0960
  12   2.0000     -10.292414      -280.0708
  13   2.0000     -10.291361      -280.0422
  14   2.0000     -10.278998      -279.7058
  15   2.0000     -10.278910      -279.7034
  16   2.0000      -8.085155      -220.0082
  17   2.0000      -8.079128      -219.8443
  18   2.0000      -6.043703      -164.4575
  19   2.0000      -6.039699      -164.3486
  20   2.0000      -6.037643      -164.2926
  21   2.0000      -6.035949      -164.2465
  22   2.0000      -6.033437      -164.1782
  23   2.0000      -6.030039      -164.0857
  24   2.0000      -1.005247       -27.3542
  25   2.0000      -0.982632       -26.7388
  26   2.0000      -0.914298       -24.8793
  27   2.0000      -0.895125       -24.3576
  28   2.0000      -0.867407       -23.6033
  29   2.0000      -0.854707       -23.2578
  30   2.0000      -0.840241       -22.8641
  31   2.0000      -0.816929       -22.2298
  32   2.0000      -0.779796       -21.2193
  33   2.0000      -0.766504       -20.8576
  34   2.0000      -0.708826       -19.2881
  35   2.0000      -0.695741       -18.9321
  36   2.0000      -0.692871       -18.8540
  37   2.0000      -0.657159       -17.8822
  38   2.0000      -0.637969       -17.3600
  39   2.0000      -0.624222       -16.9859
  40   2.0000      -0.591622       -16.0989
  41   2.0000      -0.573366       -15.6021
  42   2.0000      -0.553350       -15.0574
  43   2.0000      -0.546662       -14.8754
  44   2.0000      -0.536663       -14.6034
  45   2.0000      -0.528437       -14.3795
  46   2.0000      -0.517352       -14.0779
  47   2.0000      -0.510367       -13.8878
  48   2.0000      -0.506087       -13.7713
  49   2.0000      -0.500468       -13.6184
  50   2.0000      -0.487692       -13.2708
  51   2.0000      -0.480711       -13.0808
  52   2.0000      -0.468297       -12.7430
  53   2.0000      -0.465411       -12.6645
  54   2.0000      -0.453518       -12.3409
  55   2.0000      -0.449716       -12.2374
  56   2.0000      -0.444395       -12.0926
  57   2.0000      -0.437571       -11.9069
  58   2.0000      -0.433311       -11.7910
  59   2.0000      -0.427851       -11.6424
  60   2.0000      -0.419851       -11.4247
  61   2.0000      -0.407841       -11.0979
  62   2.0000      -0.402949       -10.9648
  63   2.0000      -0.347735        -9.4623
  64   2.0000      -0.327901        -8.9226
  65   2.0000      -0.326155        -8.8751
  66   2.0000      -0.292541        -7.9604
  67   0.0000       0.029223         0.7952
  68   0.0000       0.071885         1.9561
  69   0.0000       0.112786         3.0691
  70   0.0000       0.122845         3.3428
  71   0.0000       0.128001         3.4831

MULLIKEN ATOMIC CHARGES
-----------------------
   0 S :    0.127999
   1 C :   -0.126514
   2 C :   -0.094148
   3 C :    0.021164
   4 C :   -0.132521
   5 H :    0.030932
   6 C :    0.056995
   7 H :    0.030658
   8 H :    0.016118
   9 C :   -0.092726
  10 H :    0.027770
  11 H :    0.045873
  12 C :   -0.051908
  13 H :    0.017037
  14 H :    0.032669
  15 H :    0.028594
  16 S :    0.108142
  17 C :   -0.096377
  18 C :   -0.016938
  19 C :   -0.074325
  20 C :   -0.162435
  21 H :    0.000717
  22 C :    0.093608
  23 H :    0.017693
  24 H :    0.031860
  25 C :   -0.091385
  26 H :    0.032384
  27 H :    0.042679
  28 C :   -0.064159
  29 H :    0.045577
  30 H :    0.027273
  31 H :    0.043418
  32 H :    0.062439
  33 H :    0.061840
Sum of atomic charges:    0.0000000

LOEWDIN ATOMIC CHARGES
----------------------
   0 S :    0.410549
   1 C :   -0.215691
   2 C :   -0.063920
   3 C :   -0.061075
   4 C :   -0.181893
   5 H :    0.037306
   6 C :   -0.038309
   7 H :    0.032230
   8 H :    0.033568
   9 C :   -0.045731
  10 H :    0.021438
  11 H :    0.034409
  12 C :   -0.073520
  13 H :    0.023684
  14 H :    0.029288
  15 H :    0.021618
  16 S :    0.412524
  17 C :   -0.189648
  18 C :   -0.066555
  19 C :   -0.055008
  20 C :   -0.208724
  21 H :    0.018764
  22 C :   -0.026190
  23 H :    0.029435
  24 H :    0.029139
  25 C :   -0.041101
  26 H :    0.025205
  27 H :    0.026300
  28 C :   -0.070064
  29 H :    0.029731
  30 H :    0.025534
  31 H :    0.027841
  32 H :    0.037928
  33 H :    0.030940

  Mayer bond orders larger than 0.100000
B(  0-S ,  1-C ) :   1.1312 B(  0-S ,  4-C ) :   1.1546 B(  1-C ,  2-C ) :   1.5789
B(  1-C , 32-H ) :   0.9630 B(  2-C ,  3-C ) :   1.2487 B(  2-C ,  6-C ) :   1.0660
B(  3-C ,  4-C ) :   1.5656 B(  3-C ,  5-H ) :   0.9867 B(  4-C , 20-C ) :   1.0388
B(  6-C ,  7-H ) :   0.9154 B(  6-C ,  8-H ) :   0.9420 B(  6-C ,  9-C ) :   1.0514
B(  9-C , 10-H ) :   0.9485 B(  9-C , 11-H ) :   0.9619 B(  9-C , 12-C ) :   1.0855
B( 12-C , 13-H ) :   0.9719 B( 12-C , 14-H ) :   0.9724 B( 12-C , 15-H ) :   0.9738
B( 16-S , 17-C ) :   1.1680 B( 16-S , 20-C ) :   1.1425 B( 17-C , 18-C ) :   1.5808
B( 17-C , 33-H ) :   0.9716 B( 18-C , 19-C ) :   1.2504 B( 18-C , 21-H ) :   0.9985
B( 19-C , 20-C ) :   1.5746 B( 19-C , 22-C ) :   1.0281 B( 22-C , 23-H ) :   0.9343
B( 22-C , 24-H ) :   0.9411 B( 22-C , 25-C ) :   1.0474 B( 25-C , 26-H ) :   0.9578
B( 25-C , 27-H ) :   0.9631 B( 25-C , 28-C ) :   1.0717 B( 28-C , 29-H ) :   0.9774
B( 28-C , 30-H ) :   0.9747 B( 28-C , 31-H ) :   0.9757

Dispersion correction           -0.014345743
FINAL SINGLE POINT ENERGY     -1339.868457394639

DIPOLE MOMENT
-------------
                                X             Y             Z
Electronic contribution:     -0.99074     -24.58123       5.28270
Nuclear contribution   :      1.15380      25.14383      -5.61352
                        -----------------------------------------
Total Dipole Moment    :      0.16306       0.56260      -0.33081
                        -----------------------------------------
Magnitude (a.u.)       :      0.67271
Magnitude (Debye)      :      1.70989

Rotational constants in cm-1:     0.019215     0.007813     0.007142
Rotational constants in MHz :   576.063823   234.233215   214.124960

                             ****ORCA TERMINATED NORMALLY****
TOTAL RUN TIME: 0 days 0 hours 0 minutes 21 seconds 342 msec
