                         Program Version 4.2.1 -  RELEASE  -
|  1> ! wB97X-D3 SP def2-SVP
|  2> %pal
|  3> nprocs 24
|  4> end
|  5>
|  6> * xyz 0 1
|  7> S 	 -33.3477 	 7.38523 	 14.7312
|  8> C 	 -34.1273 	 7.96986 	 13.3034
|  9> C 	 -35.1865 	 8.74685 	 13.6554
| 10> C 	 -35.4297 	 8.69292 	 15.0513
| 11> C 	 -34.6441 	 7.93571 	 15.8072
| 12> H 	 -36.2629 	 9.28994 	 15.4279
| 13> C 	 -36.0501 	 9.533 	 12.6587
| 14> H 	 -36.8805 	 8.85847 	 12.3819
| 15> H 	 -35.3663 	 9.59457 	 11.7989
| 16> C 	 -36.565 	 10.8031 	 13.13
| 17> H 	 -37.0657 	 11.2509 	 12.3257
| 18> H 	 -37.2812 	 10.6054 	 13.8585
| 19> C 	 -35.4142 	 11.7265 	 13.6397
| 20> H 	 -34.5352 	 11.6407 	 12.9893
| 21> H 	 -35.6142 	 12.7853 	 13.714
| 22> H 	 -35.1072 	 11.4262 	 14.5813
| 23> S 	 -33.1616 	 7.91784 	 18.0633
| 24> C 	 -33.9735 	 7.80634 	 19.6579
| 25> C 	 -35.3256 	 7.6532 	 19.5679
| 26> C 	 -35.7712 	 7.72845 	 18.1866
| 27> C 	 -34.7116 	 7.8087 	 17.2687
| 28> H 	 -35.949 	 7.57292 	 20.3977
| 29> C 	 -37.2684 	 7.60678 	 17.9122
| 30> H 	 -37.5413 	 6.73665 	 18.4121
| 31> H 	 -37.4579 	 7.46828 	 16.8248
| 32> C 	 -38.0536 	 8.84601 	 18.3213
| 33> H 	 -37.5979 	 9.77397 	 17.9266
| 34> H 	 -38.0482 	 8.74247 	 19.4364
| 35> C 	 -39.5076 	 8.64281 	 17.8031
| 36> H 	 -39.9036 	 7.67869 	 18.1326
| 37> H 	 -39.5589 	 8.72905 	 16.7357
| 38> H 	 -40.1091 	 9.47007 	 18.1931
| 39> H 	 -33.6219 	 8.13202 	 12.3585
| 40> H 	 -33.5754 	 7.89016 	 20.6271
| 41> *
| 42>
| 43>                          ****END OF INPUT****

CARTESIAN COORDINATES (ANGSTROEM)
---------------------------------
  S    -33.347700    7.385230   14.731200
  C    -34.127300    7.969860   13.303400
  C    -35.186500    8.746850   13.655400
  C    -35.429700    8.692920   15.051300
  C    -34.644100    7.935710   15.807200
  H    -36.262900    9.289940   15.427900
  C    -36.050100    9.533000   12.658700
  H    -36.880500    8.858470   12.381900
  H    -35.366300    9.594570   11.798900
  C    -36.565000   10.803100   13.130000
  H    -37.065700   11.250900   12.325700
  H    -37.281200   10.605400   13.858500
  C    -35.414200   11.726500   13.639700
  H    -34.535200   11.640700   12.989300
  H    -35.614200   12.785300   13.714000
  H    -35.107200   11.426200   14.581300
  S    -33.161600    7.917840   18.063300
  C    -33.973500    7.806340   19.657900
  C    -35.325600    7.653200   19.567900
  C    -35.771200    7.728450   18.186600
  C    -34.711600    7.808700   17.268700
  H    -35.949000    7.572920   20.397700
  C    -37.268400    7.606780   17.912200
  H    -37.541300    6.736650   18.412100
  H    -37.457900    7.468280   16.824800
  C    -38.053600    8.846010   18.321300
  H    -37.597900    9.773970   17.926600
  H    -38.048200    8.742470   19.436400
  C    -39.507600    8.642810   17.803100
  H    -39.903600    7.678690   18.132600
  H    -39.558900    8.729050   16.735700
  H    -40.109100    9.470070   18.193100
  H    -33.621900    8.132020   12.358500
  H    -33.575400    7.890160   20.627100

 Total Charge           Charge          ....    0
 Multiplicity           Mult            ....    1
 Number of Electrons    NEL             ....  134
 Basis Dimension        Dim             ....  322

ORBITAL ENERGIES
----------------

  NO   OCC          E(Eh)            E(eV)
   0   2.0000     -88.967496     -2420.9286
   1   2.0000     -88.961255     -2420.7588
   2   2.0000     -10.331743      -281.1410
   3   2.0000     -10.328547      -281.0540
   4   2.0000     -10.316396      -280.7234
   5   2.0000     -10.307474      -280.4806
   6   2.0000     -10.307154      -280.4719
   7   2.0000     -10.294697      -280.1329
   8   2.0000     -10.293172      -280.0914
   9   2.0000     -10.291798      -280.0541
  10   2.0000     -10.290483      -280.0183
  11   2.0000     -10.286797      -279.9180
  12   2.0000     -10.284516      -279.8559
  13   2.0000     -10.281315      -279.7688
  14   2.0000     -10.277272      -279.6588
  15   2.0000     -10.271204      -279.4937
  16   2.0000      -8.081660      -219.9132
  17   2.0000      -8.076207      -219.7648
  18   2.0000      -6.040419      -164.3681
  19   2.0000      -6.036339      -164.2571
  20   2.0000      -6.034942      -164.2191
  21   2.0000      -6.032088      -164.1415
  22   2.0000      -6.030776      -164.1058
  23   2.0000      -6.026593      -163.9919
  24   2.0000      -1.010374       -27.4937
  25   2.0000      -0.985368       -26.8132
  26   2.0000      -0.925064       -25.1723
  27   2.0000      -0.913285       -24.8518
  28   2.0000      -0.876530       -23.8516
  29   2.0000      -0.849272       -23.1099
  30   2.0000      -0.838549       -22.8181
  31   2.0000      -0.823007       -22.3952
  32   2.0000      -0.786358       -21.3979
  33   2.0000      -0.772757       -21.0278
  34   2.0000      -0.716951       -19.5092
  35   2.0000      -0.699847       -19.0438
  36   2.0000      -0.694582       -18.9005
  37   2.0000      -0.666879       -18.1467
  38   2.0000      -0.637812       -17.3558
  39   2.0000      -0.630831       -17.1658
  40   2.0000      -0.593115       -16.1395
  41   2.0000      -0.578099       -15.7309
  42   2.0000      -0.569395       -15.4940
  43   2.0000      -0.565225       -15.3806
  44   2.0000      -0.544433       -14.8148
  45   2.0000      -0.527240       -14.3469
  46   2.0000      -0.520786       -14.1713
  47   2.0000      -0.511175       -13.9098
  48   2.0000      -0.506667       -13.7871
  49   2.0000      -0.497257       -13.5311
  50   2.0000      -0.485783       -13.2188
  51   2.0000      -0.480571       -13.0770
  52   2.0000      -0.471977       -12.8432
  53   2.0000      -0.468819       -12.7572
  54   2.0000      -0.462761       -12.5924
  55   2.0000      -0.452529       -12.3140
  56   2.0000      -0.449364       -12.2278
  57   2.0000      -0.443736       -12.0747
  58   2.0000      -0.433941       -11.8081
  59   2.0000      -0.433146       -11.7865
  60   2.0000      -0.420091       -11.4313
  61   2.0000      -0.413450       -11.2506
  62   2.0000      -0.407632       -11.0922
  63   2.0000      -0.359130        -9.7724
  64   2.0000      -0.332976        -9.0607
  65   2.0000      -0.323817        -8.8115
  66   2.0000      -0.291658        -7.9364
  67   0.0000       0.028315         0.7705
  68   0.0000       0.076355         2.0777
  69   0.0000       0.104562         2.8453
  70   0.0000       0.118021         3.2115
  71   0.0000       0.127943         3.4815

MULLIKEN ATOMIC CHARGES
-----------------------
   0 S :    0.087179
   1 C :   -0.111511
   2 C :   -0.156174
   3 C :    0.005893
   4 C :   -0.085927
   5 H :   -0.001709
   6 C :    0.071352
   7 H :    0.047422
   8 H :    0.011935
   9 C :   -0.010085
  10 H :    0.016676
  11 H :    0.013069
  12 C :   -0.027077
  13 H :    0.024525
  14 H :    0.031003
  15 H :    0.016602
  16 S :    0.097652
  17 C :   -0.051302
  18 C :   -0.013662
  19 C :   -0.055779
  20 C :   -0.142843
  21 H :   -0.001083
  22 C :    0.057428
  23 H :    0.019834
  24 H :    0.019868
  25 C :   -0.105400
  26 H :    0.048727
  27 H :    0.034708
  28 C :   -0.027833
  29 H :    0.033034
  30 H :    0.028440
  31 H :    0.035194
  32 H :    0.056027
  33 H :    0.033813
Sum of atomic charges:   -0.0000000

LOEWDIN ATOMIC CHARGES
----------------------
   0 S :    0.392082
   1 C :   -0.206850
   2 C :   -0.067382
   3 C :   -0.074897
   4 C :   -0.184146
   5 H :    0.026772
   6 C :   -0.027745
   7 H :    0.039180
   8 H :    0.027476
   9 C :   -0.035885
  10 H :    0.023992
  11 H :    0.016290
  12 C :   -0.055299
  13 H :    0.028758
  14 H :    0.024929
  15 H :    0.016149
  16 S :    0.390260
  17 C :   -0.161016
  18 C :   -0.058427
  19 C :   -0.048661
  20 C :   -0.191348
  21 H :    0.022259
  22 C :   -0.032261
  23 H :    0.022678
  24 H :    0.028082
  25 C :   -0.038164
  26 H :    0.028904
  27 H :    0.027311
  28 C :   -0.061382
  29 H :    0.026821
  30 H :    0.020375
  31 H :    0.026758
  32 H :    0.032190
  33 H :    0.022195

  Mayer bond orders larger than 0.100000
B(  0-S ,  1-C ) :   1.1344 B(  0-S ,  4-C ) :   1.1288 B(  1-C ,  2-C ) :   1.6364
B(  1-C , 32-H ) :   0.9547 B(  2-C ,  3-C ) :   1.2645 B(  2-C ,  6-C ) :   0.9937
B(  3-C ,  4-C ) :   1.5755 B(  3-C ,  5-H ) :   0.9911 B(  4-C , 20-C ) :   1.0468
B(  6-C ,  7-H ) :   0.9342 B(  6-C ,  8-H ) :   0.9376 B(  6-C ,  9-C ) :   1.0996
B(  9-C , 10-H ) :   0.9446 B(  9-C , 11-H ) :   0.9423 B(  9-C , 12-C ) :   1.0720
B( 12-C , 13-H ) :   0.9758 B( 12-C , 14-H ) :   0.9765 B( 12-C , 15-H ) :   0.9699
B( 16-S , 17-C ) :   1.1296 B( 16-S , 20-C ) :   1.1229 B( 17-C , 18-C ) :   1.6530
B( 17-C , 33-H ) :   0.9679 B( 18-C , 19-C ) :   1.2079 B( 18-C , 21-H ) :   0.9939
B( 19-C , 20-C ) :   1.6248 B( 19-C , 22-C ) :   1.0366 B( 22-C , 23-H ) :   0.9348
B( 22-C , 24-H ) :   0.9413 B( 22-C , 25-C ) :   1.0561 B( 25-C , 26-H ) :   0.9568
B( 25-C , 27-H ) :   0.9538 B( 25-C , 28-C ) :   1.0852 B( 28-C , 29-H ) :   0.9715
B( 28-C , 30-H ) :   0.9754 B( 28-C , 31-H ) :   0.9744

Dispersion correction           -0.014526766
FINAL SINGLE POINT ENERGY     -1339.863931792521

DIPOLE MOMENT
-------------
                                X             Y             Z
Electronic contribution:     24.56200     -13.96749       5.02693
Nuclear contribution   :    -25.31091      14.43530      -4.95425
                        -----------------------------------------
Total Dipole Moment    :     -0.74891       0.46780       0.07267
                        -----------------------------------------
Magnitude (a.u.)       :      0.88599
Magnitude (Debye)      :      2.25201

Rotational constants in cm-1:     0.016180     0.010371     0.007281
Rotational constants in MHz :   485.061377   310.902427   218.290307

                             ****ORCA TERMINATED NORMALLY****
TOTAL RUN TIME: 0 days 0 hours 0 minutes 22 seconds 490 msec
