                         Program Version 4.2.1 -  RELEASE  -
|  1> ! wB97X-D3 SP def2-SVP
|  2> %pal
|  3> nprocs 24
|  4> end
|  5>
|  6> * xyz 0 1
|  7> S 	 -90.6948 	 -8.3435 	 -114.479
|  8> C 	 -89.4308 	 -8.8174 	 -115.572
|  9> C 	 -89.9268 	 -9.47307 	 -116.65
| 10> C 	 -91.3395 	 -9.42741 	 -116.737
| 11> C 	 -91.9247 	 -8.90339 	 -115.544
| 12> H 	 -91.9854 	 -9.78295 	 -117.505
| 13> C 	 -89.1042 	 -10.0853 	 -117.67
| 14> H 	 -88.1184 	 -9.74108 	 -117.519
| 15> H 	 -89.4067 	 -9.73583 	 -118.667
| 16> C 	 -89.1259 	 -11.5758 	 -117.694
| 17> H 	 -90.1451 	 -11.8862 	 -117.818
| 18> H 	 -88.5569 	 -11.8625 	 -118.555
| 19> C 	 -88.4664 	 -12.2293 	 -116.513
| 20> H 	 -88.2048 	 -13.3145 	 -116.695
| 21> H 	 -87.4921 	 -11.748 	 -116.363
| 22> H 	 -89.0786 	 -12.0511 	 -115.615
| 23> S 	 -93.8286 	 -7.12043 	 -114.855
| 24> C 	 -95.5166 	 -7.53533 	 -115.149
| 25> C 	 -95.6614 	 -8.82184 	 -115.665
| 26> C 	 -94.4173 	 -9.55442 	 -115.73
| 27> C 	 -93.3575 	 -8.76435 	 -115.283
| 28> H 	 -96.5342 	 -9.24154 	 -116.008
| 29> C 	 -94.2736 	 -11.0087 	 -116.117
| 30> H 	 -94.8369 	 -11.7095 	 -115.486
| 31> H 	 -93.2757 	 -11.237 	 -116.002
| 32> C 	 -94.7609 	 -11.29 	 -117.532
| 33> H 	 -94.2243 	 -10.7319 	 -118.325
| 34> H 	 -95.8614 	 -10.8814 	 -117.55
| 35> C 	 -94.7552 	 -12.779 	 -117.894
| 36> H 	 -95.1653 	 -12.8877 	 -118.872
| 37> H 	 -95.4477 	 -13.3909 	 -117.263
| 38> H 	 -93.7315 	 -13.2195 	 -117.724
| 39> H 	 -88.4338 	 -8.63719 	 -115.324
| 40> H 	 -96.4113 	 -6.80906 	 -115.09
| 41> *
| 42>
| 43>                          ****END OF INPUT****

CARTESIAN COORDINATES (ANGSTROEM)
---------------------------------
  S    -90.694800   -8.343500  -114.479000
  C    -89.430800   -8.817400  -115.572000
  C    -89.926800   -9.473070  -116.650000
  C    -91.339500   -9.427410  -116.737000
  C    -91.924700   -8.903390  -115.544000
  H    -91.985400   -9.782950  -117.505000
  C    -89.104200  -10.085300  -117.670000
  H    -88.118400   -9.741080  -117.519000
  H    -89.406700   -9.735830  -118.667000
  C    -89.125900  -11.575800  -117.694000
  H    -90.145100  -11.886200  -117.818000
  H    -88.556900  -11.862500  -118.555000
  C    -88.466400  -12.229300  -116.513000
  H    -88.204800  -13.314500  -116.695000
  H    -87.492100  -11.748000  -116.363000
  H    -89.078600  -12.051100  -115.615000
  S    -93.828600   -7.120430  -114.855000
  C    -95.516600   -7.535330  -115.149000
  C    -95.661400   -8.821840  -115.665000
  C    -94.417300   -9.554420  -115.730000
  C    -93.357500   -8.764350  -115.283000
  H    -96.534200   -9.241540  -116.008000
  C    -94.273600  -11.008700  -116.117000
  H    -94.836900  -11.709500  -115.486000
  H    -93.275700  -11.237000  -116.002000
  C    -94.760900  -11.290000  -117.532000
  H    -94.224300  -10.731900  -118.325000
  H    -95.861400  -10.881400  -117.550000
  C    -94.755200  -12.779000  -117.894000
  H    -95.165300  -12.887700  -118.872000
  H    -95.447700  -13.390900  -117.263000
  H    -93.731500  -13.219500  -117.724000
  H    -88.433800   -8.637190  -115.324000
  H    -96.411300   -6.809060  -115.090000

 Total Charge           Charge          ....    0
 Multiplicity           Mult            ....    1
 Number of Electrons    NEL             ....  134
 Basis Dimension        Dim             ....  322

ORBITAL ENERGIES
----------------

  NO   OCC          E(Eh)            E(eV)
   0   2.0000     -88.968023     -2420.9430
   1   2.0000     -88.964466     -2420.8462
   2   2.0000     -10.329981      -281.0931
   3   2.0000     -10.328594      -281.0553
   4   2.0000     -10.327083      -281.0142
   5   2.0000     -10.306022      -280.4411
   6   2.0000     -10.304642      -280.4036
   7   2.0000     -10.298520      -280.2370
   8   2.0000     -10.293714      -280.1062
   9   2.0000     -10.292171      -280.0642
  10   2.0000     -10.291849      -280.0554
  11   2.0000     -10.287259      -279.9305
  12   2.0000     -10.285827      -279.8916
  13   2.0000     -10.278145      -279.6825
  14   2.0000     -10.277990      -279.6783
  15   2.0000     -10.275921      -279.6220
  16   2.0000      -8.082396      -219.9332
  17   2.0000      -8.080082      -219.8702
  18   2.0000      -6.040961      -164.3829
  19   2.0000      -6.038486      -164.3156
  20   2.0000      -6.037002      -164.2752
  21   2.0000      -6.034357      -164.2032
  22   2.0000      -6.033048      -164.1676
  23   2.0000      -6.031027      -164.1126
  24   2.0000      -1.008792       -27.4506
  25   2.0000      -0.984955       -26.8020
  26   2.0000      -0.927122       -25.2283
  27   2.0000      -0.913768       -24.8649
  28   2.0000      -0.869958       -23.6728
  29   2.0000      -0.853705       -23.2305
  30   2.0000      -0.847485       -23.0612
  31   2.0000      -0.813200       -22.1283
  32   2.0000      -0.785822       -21.3833
  33   2.0000      -0.774208       -21.0673
  34   2.0000      -0.707517       -19.2525
  35   2.0000      -0.695473       -18.9248
  36   2.0000      -0.692239       -18.8368
  37   2.0000      -0.663805       -18.0631
  38   2.0000      -0.646289       -17.5864
  39   2.0000      -0.623683       -16.9713
  40   2.0000      -0.599571       -16.3152
  41   2.0000      -0.574648       -15.6370
  42   2.0000      -0.568288       -15.4639
  43   2.0000      -0.550467       -14.9790
  44   2.0000      -0.548211       -14.9176
  45   2.0000      -0.531291       -14.4572
  46   2.0000      -0.520183       -14.1549
  47   2.0000      -0.516119       -14.0443
  48   2.0000      -0.504126       -13.7180
  49   2.0000      -0.497252       -13.5309
  50   2.0000      -0.490564       -13.3489
  51   2.0000      -0.480762       -13.0822
  52   2.0000      -0.472242       -12.8504
  53   2.0000      -0.465511       -12.6672
  54   2.0000      -0.457516       -12.4496
  55   2.0000      -0.455334       -12.3903
  56   2.0000      -0.440400       -11.9839
  57   2.0000      -0.439388       -11.9564
  58   2.0000      -0.435510       -11.8508
  59   2.0000      -0.427992       -11.6463
  60   2.0000      -0.425432       -11.5766
  61   2.0000      -0.416466       -11.3326
  62   2.0000      -0.414121       -11.2688
  63   2.0000      -0.347004        -9.4425
  64   2.0000      -0.331461        -9.0195
  65   2.0000      -0.330177        -8.9846
  66   2.0000      -0.288587        -7.8529
  67   0.0000       0.025968         0.7066
  68   0.0000       0.074482         2.0268
  69   0.0000       0.106814         2.9066
  70   0.0000       0.117625         3.2007
  71   0.0000       0.123790         3.3685

MULLIKEN ATOMIC CHARGES
-----------------------
   0 S :    0.107404
   1 C :   -0.109438
   2 C :   -0.075378
   3 C :    0.040779
   4 C :   -0.177120
   5 H :   -0.009315
   6 C :    0.099688
   7 H :   -0.008229
   8 H :    0.025051
   9 C :   -0.036841
  10 H :    0.017195
  11 H :    0.018058
  12 C :   -0.070144
  13 H :    0.045601
  14 H :    0.016655
  15 H :    0.050484
  16 S :    0.104865
  17 C :   -0.109558
  18 C :    0.003681
  19 C :   -0.056776
  20 C :   -0.121350
  21 H :   -0.015950
  22 C :    0.128005
  23 H :    0.030890
  24 H :   -0.000048
  25 C :   -0.162272
  26 H :    0.041750
  27 H :    0.036323
  28 C :   -0.032912
  29 H :    0.034622
  30 H :    0.028711
  31 H :    0.043545
  32 H :    0.024403
  33 H :    0.087621
Sum of atomic charges:    0.0000000

LOEWDIN ATOMIC CHARGES
----------------------
   0 S :    0.420744
   1 C :   -0.192229
   2 C :   -0.065491
   3 C :   -0.060438
   4 C :   -0.203063
   5 H :    0.024283
   6 C :   -0.029122
   7 H :    0.020923
   8 H :    0.035368
   9 C :   -0.037593
  10 H :    0.018268
  11 H :    0.022798
  12 C :   -0.069248
  13 H :    0.033630
  14 H :    0.022476
  15 H :    0.029495
  16 S :    0.400803
  17 C :   -0.191673
  18 C :   -0.059569
  19 C :   -0.046287
  20 C :   -0.196190
  21 H :    0.014383
  22 C :   -0.027483
  23 H :    0.036780
  24 H :    0.015971
  25 C :   -0.047850
  26 H :    0.022723
  27 H :    0.030191
  28 C :   -0.070271
  29 H :    0.024326
  30 H :    0.027160
  31 H :    0.032334
  32 H :    0.015088
  33 H :    0.048763

  Mayer bond orders larger than 0.100000
B(  0-S ,  1-C ) :   1.1333 B(  0-S ,  4-C ) :   1.1834 B(  1-C ,  2-C ) :   1.5837
B(  1-C , 32-H ) :   0.9813 B(  2-C ,  3-C ) :   1.2430 B(  2-C ,  6-C ) :   1.0462
B(  3-C ,  4-C ) :   1.5243 B(  3-C ,  5-H ) :   0.9977 B(  4-C , 20-C ) :   1.0252
B(  6-C ,  7-H ) :   0.9301 B(  6-C ,  8-H ) :   0.9286 B(  6-C ,  9-C ) :   1.0845
B(  9-C , 10-H ) :   0.9526 B(  9-C , 11-H ) :   0.9493 B(  9-C , 12-C ) :   1.0796
B( 12-C , 13-H ) :   0.9735 B( 12-C , 14-H ) :   0.9709 B( 12-C , 15-H ) :   0.9742
B( 16-S , 17-C ) :   1.1498 B( 16-S , 20-C ) :   1.1397 B( 17-C , 18-C ) :   1.6066
B( 17-C , 33-H ) :   0.9555 B( 18-C , 19-C ) :   1.2341 B( 18-C , 21-H ) :   1.0000
B( 19-C , 20-C ) :   1.5983 B( 19-C , 22-C ) :   1.0435 B( 22-C , 23-H ) :   0.9338
B( 22-C , 24-H ) :   0.9274 B( 22-C , 25-C ) :   1.0489 B( 25-C , 26-H ) :   0.9521
B( 25-C , 27-H ) :   0.9550 B( 25-C , 28-C ) :   1.0857 B( 28-C , 29-H ) :   0.9722
B( 28-C , 30-H ) :   0.9712 B( 28-C , 31-H ) :   0.9712

Dispersion correction           -0.014671842
FINAL SINGLE POINT ENERGY     -1339.879001347627

DIPOLE MOMENT
-------------
                                X             Y             Z
Electronic contribution:     -3.72472      25.64508      16.61027
Nuclear contribution   :      3.62854     -26.11372     -17.17937
                        -----------------------------------------
Total Dipole Moment    :     -0.09618      -0.46865      -0.56910
                        -----------------------------------------
Magnitude (a.u.)       :      0.74347
Magnitude (Debye)      :      1.88976

Rotational constants in cm-1:     0.017227     0.010265     0.006887
Rotational constants in MHz :   516.458037   307.745380   206.472538

                             ****ORCA TERMINATED NORMALLY****
TOTAL RUN TIME: 0 days 0 hours 0 minutes 22 seconds 442 msec
