                         Program Version 4.2.1 -  RELEASE  -
|  1> ! wB97X-D3 SP def2-SVP
|  2> %pal
|  3> nprocs 24
|  4> end
|  5>
|  6> * xyz 0 1
|  7> S 	 -58.1955 	 11.4057 	 -85.5701
|  8> C 	 -59.4197 	 11.0206 	 -86.7755
|  9> C 	 -60.6953 	 11.0716 	 -86.189
| 10> C 	 -60.622 	 11.2394 	 -84.7328
| 11> C 	 -59.3382 	 11.3653 	 -84.2017
| 12> H 	 -61.4707 	 11.2205 	 -84.1315
| 13> C 	 -62.0272 	 11.1009 	 -86.9264
| 14> H 	 -62.8764 	 11.0175 	 -86.2194
| 15> H 	 -62.1363 	 10.222 	 -87.5818
| 16> C 	 -62.1708 	 12.342 	 -87.8208
| 17> H 	 -61.3432 	 12.4588 	 -88.5199
| 18> H 	 -63.0421 	 12.1353 	 -88.502
| 19> C 	 -62.4771 	 13.6322 	 -87.0225
| 20> H 	 -61.6577 	 13.8233 	 -86.367
| 21> H 	 -62.7234 	 14.512 	 -87.6667
| 22> H 	 -63.3536 	 13.4929 	 -86.359
| 23> S 	 -58.8897 	 13.3917 	 -82.4016
| 24> C 	 -58.9261 	 13.0302 	 -80.7383
| 25> C 	 -58.6571 	 11.6973 	 -80.4521
| 26> C 	 -58.8243 	 10.9324 	 -81.674
| 27> C 	 -58.9452 	 11.6973 	 -82.8295
| 28> H 	 -58.3785 	 11.3857 	 -79.4143
| 29> C 	 -58.6142 	 9.43799 	 -81.7198
| 30> H 	 -57.8387 	 9.27467 	 -81.1185
| 31> H 	 -58.3451 	 9.08028 	 -82.7404
| 32> C 	 -59.7713 	 8.59634 	 -81.2447
| 33> H 	 -59.5883 	 7.61152 	 -81.6742
| 34> H 	 -60.7669 	 8.97621 	 -81.5779
| 35> C 	 -59.649 	 8.46589 	 -79.6813
| 36> H 	 -60.3747 	 7.66845 	 -79.3367
| 37> H 	 -59.7633 	 9.36655 	 -79.145
| 38> H 	 -58.6576 	 7.92863 	 -79.4573
| 39> H 	 -59.1679 	 11.0064 	 -87.8123
| 40> H 	 -58.8249 	 13.7527 	 -79.9621
| 41> *
| 42>
| 43>                          ****END OF INPUT****

CARTESIAN COORDINATES (ANGSTROEM)
---------------------------------
  S    -58.195500   11.405700  -85.570100
  C    -59.419700   11.020600  -86.775500
  C    -60.695300   11.071600  -86.189000
  C    -60.622000   11.239400  -84.732800
  C    -59.338200   11.365300  -84.201700
  H    -61.470700   11.220500  -84.131500
  C    -62.027200   11.100900  -86.926400
  H    -62.876400   11.017500  -86.219400
  H    -62.136300   10.222000  -87.581800
  C    -62.170800   12.342000  -87.820800
  H    -61.343200   12.458800  -88.519900
  H    -63.042100   12.135300  -88.502000
  C    -62.477100   13.632200  -87.022500
  H    -61.657700   13.823300  -86.367000
  H    -62.723400   14.512000  -87.666700
  H    -63.353600   13.492900  -86.359000
  S    -58.889700   13.391700  -82.401600
  C    -58.926100   13.030200  -80.738300
  C    -58.657100   11.697300  -80.452100
  C    -58.824300   10.932400  -81.674000
  C    -58.945200   11.697300  -82.829500
  H    -58.378500   11.385700  -79.414300
  C    -58.614200    9.437990  -81.719800
  H    -57.838700    9.274670  -81.118500
  H    -58.345100    9.080280  -82.740400
  C    -59.771300    8.596340  -81.244700
  H    -59.588300    7.611520  -81.674200
  H    -60.766900    8.976210  -81.577900
  C    -59.649000    8.465890  -79.681300
  H    -60.374700    7.668450  -79.336700
  H    -59.763300    9.366550  -79.145000
  H    -58.657600    7.928630  -79.457300
  H    -59.167900   11.006400  -87.812300
  H    -58.824900   13.752700  -79.962100

 Total Charge           Charge          ....    0
 Multiplicity           Mult            ....    1
 Number of Electrons    NEL             ....  134
 Basis Dimension        Dim             ....  322

ORBITAL ENERGIES
----------------

  NO   OCC          E(Eh)            E(eV)
   0   2.0000     -88.964707     -2420.8528
   1   2.0000     -88.963208     -2420.8120
   2   2.0000     -10.334655      -281.2203
   3   2.0000     -10.324390      -280.9409
   4   2.0000     -10.318660      -280.7850
   5   2.0000     -10.314648      -280.6758
   6   2.0000     -10.308368      -280.5050
   7   2.0000     -10.306172      -280.4452
   8   2.0000     -10.301460      -280.3170
   9   2.0000     -10.297216      -280.2015
  10   2.0000     -10.296164      -280.1729
  11   2.0000     -10.290640      -280.0226
  12   2.0000     -10.286017      -279.8968
  13   2.0000     -10.284323      -279.8507
  14   2.0000     -10.277286      -279.6592
  15   2.0000     -10.274668      -279.5879
  16   2.0000      -8.080498      -219.8815
  17   2.0000      -8.077342      -219.7957
  18   2.0000      -6.038898      -164.3268
  19   2.0000      -6.035947      -164.2465
  20   2.0000      -6.034877      -164.2174
  21   2.0000      -6.031785      -164.1332
  22   2.0000      -6.031270      -164.1192
  23   2.0000      -6.028182      -164.0352
  24   2.0000      -1.005096       -27.3500
  25   2.0000      -0.979479       -26.6530
  26   2.0000      -0.913408       -24.8551
  27   2.0000      -0.907663       -24.6988
  28   2.0000      -0.866909       -23.5898
  29   2.0000      -0.843302       -22.9474
  30   2.0000      -0.839081       -22.8326
  31   2.0000      -0.813515       -22.1369
  32   2.0000      -0.780033       -21.2258
  33   2.0000      -0.769614       -20.9423
  34   2.0000      -0.706327       -19.2201
  35   2.0000      -0.699212       -19.0265
  36   2.0000      -0.689137       -18.7524
  37   2.0000      -0.660071       -17.9614
  38   2.0000      -0.646833       -17.6012
  39   2.0000      -0.613877       -16.7045
  40   2.0000      -0.596383       -16.2284
  41   2.0000      -0.573999       -15.6193
  42   2.0000      -0.548924       -14.9370
  43   2.0000      -0.546649       -14.8751
  44   2.0000      -0.544727       -14.8228
  45   2.0000      -0.535077       -14.5602
  46   2.0000      -0.514261       -13.9938
  47   2.0000      -0.509810       -13.8726
  48   2.0000      -0.504752       -13.7350
  49   2.0000      -0.496969       -13.5232
  50   2.0000      -0.485581       -13.2133
  51   2.0000      -0.480620       -13.0783
  52   2.0000      -0.473028       -12.8717
  53   2.0000      -0.466566       -12.6959
  54   2.0000      -0.458658       -12.4807
  55   2.0000      -0.444224       -12.0880
  56   2.0000      -0.439103       -11.9486
  57   2.0000      -0.435201       -11.8424
  58   2.0000      -0.433299       -11.7907
  59   2.0000      -0.423683       -11.5290
  60   2.0000      -0.416669       -11.3381
  61   2.0000      -0.411025       -11.1846
  62   2.0000      -0.410199       -11.1621
  63   2.0000      -0.336558        -9.1582
  64   2.0000      -0.324488        -8.8298
  65   2.0000      -0.320007        -8.7078
  66   2.0000      -0.309464        -8.4209
  67   0.0000       0.041589         1.1317
  68   0.0000       0.047004         1.2790
  69   0.0000       0.109346         2.9755
  70   0.0000       0.115232         3.1356
  71   0.0000       0.127031         3.4567

MULLIKEN ATOMIC CHARGES
-----------------------
   0 S :    0.089796
   1 C :   -0.111288
   2 C :   -0.096016
   3 C :    0.074774
   4 C :   -0.160505
   5 H :   -0.011541
   6 C :    0.052268
   7 H :    0.025442
   8 H :    0.036996
   9 C :   -0.087260
  10 H :    0.030544
  11 H :    0.027863
  12 C :   -0.054196
  13 H :    0.039558
  14 H :    0.045517
  15 H :    0.024196
  16 S :    0.126294
  17 C :   -0.077649
  18 C :   -0.062437
  19 C :   -0.043513
  20 C :   -0.166181
  21 H :    0.049287
  22 C :    0.115805
  23 H :   -0.019741
  24 H :    0.031069
  25 C :   -0.062801
  26 H :    0.028553
  27 H :    0.040731
  28 C :   -0.096001
  29 H :    0.038515
  30 H :    0.041046
  31 H :    0.035146
  32 H :    0.050349
  33 H :    0.045385
Sum of atomic charges:   -0.0000000

LOEWDIN ATOMIC CHARGES
----------------------
   0 S :    0.387849
   1 C :   -0.187172
   2 C :   -0.061495
   3 C :   -0.047608
   4 C :   -0.192220
   5 H :    0.019474
   6 C :   -0.035564
   7 H :    0.031272
   8 H :    0.035449
   9 C :   -0.042512
  10 H :    0.021191
  11 H :    0.025726
  12 C :   -0.068485
  13 H :    0.022916
  14 H :    0.031652
  15 H :    0.025864
  16 S :    0.431831
  17 C :   -0.189867
  18 C :   -0.081875
  19 C :   -0.039287
  20 C :   -0.217764
  21 H :    0.042672
  22 C :   -0.025359
  23 H :    0.010785
  24 H :    0.035226
  25 C :   -0.034749
  26 H :    0.025973
  27 H :    0.027044
  28 C :   -0.072561
  29 H :    0.029953
  30 H :    0.013878
  31 H :    0.032401
  32 H :    0.023317
  33 H :    0.022043

  Mayer bond orders larger than 0.100000
B(  0-S ,  1-C ) :   1.1503 B(  0-S ,  4-C ) :   1.1427 B(  1-C ,  2-C ) :   1.5840
B(  1-C , 32-H ) :   0.9753 B(  2-C ,  3-C ) :   1.2454 B(  2-C ,  6-C ) :   1.0227
B(  3-C ,  4-C ) :   1.5789 B(  3-C ,  5-H ) :   1.0050 B(  4-C , 20-C ) :   1.0068
B(  6-C ,  7-H ) :   0.9471 B(  6-C ,  8-H ) :   0.9382 B(  6-C ,  9-C ) :   1.0723
B(  9-C , 10-H ) :   0.9584 B(  9-C , 11-H ) :   0.9551 B(  9-C , 12-C ) :   1.0661
B( 12-C , 13-H ) :   0.9787 B( 12-C , 14-H ) :   0.9751 B( 12-C , 15-H ) :   0.9739
B( 16-S , 17-C ) :   1.1957 B( 16-S , 20-C ) :   1.1339 B( 17-C , 18-C ) :   1.5967
B( 17-C , 33-H ) :   0.9625 B( 18-C , 19-C ) :   1.2320 B( 18-C , 21-H ) :   0.9780
B( 19-C , 20-C ) :   1.6173 B( 19-C , 22-C ) :   1.0421 B( 22-C , 23-H ) :   0.9239
B( 22-C , 24-H ) :   0.9383 B( 22-C , 25-C ) :   1.0638 B( 25-C , 26-H ) :   0.9549
B( 25-C , 27-H ) :   0.9585 B( 25-C , 28-C ) :   1.0749 B( 28-C , 29-H ) :   0.9741
B( 28-C , 30-H ) :   0.9767 B( 28-C , 31-H ) :   0.9733

Dispersion correction           -0.014574147
FINAL SINGLE POINT ENERGY     -1339.866534403668

DIPOLE MOMENT
-------------
                                X             Y             Z
Electronic contribution:     14.89757       9.89744      -0.45645
Nuclear contribution   :    -15.22714     -10.09274       0.55830
                        -----------------------------------------
Total Dipole Moment    :     -0.32957      -0.19530       0.10185
                        -----------------------------------------
Magnitude (a.u.)       :      0.39640
Magnitude (Debye)      :      1.00757

Rotational constants in cm-1:     0.021400     0.007689     0.006971
Rotational constants in MHz :   641.550251   230.495736   208.982791

                             ****ORCA TERMINATED NORMALLY****
TOTAL RUN TIME: 0 days 0 hours 0 minutes 21 seconds 545 msec
