                         Program Version 4.2.1 -  RELEASE  -
|  1> ! wB97X-D3 SP def2-SVP
|  2> %pal
|  3> nprocs 24
|  4> end
|  5>
|  6> * xyz 0 1
|  7> S 	 -105.898 	 55.6262 	 -72.7714
|  8> C 	 -106.031 	 54.2535 	 -73.8775
|  9> C 	 -106.963 	 54.4827 	 -74.833
| 10> C 	 -107.62 	 55.7581 	 -74.7709
| 11> C 	 -107.149 	 56.5017 	 -73.7173
| 12> H 	 -108.422 	 56.1084 	 -75.2845
| 13> C 	 -107.366 	 53.478 	 -75.8928
| 14> H 	 -106.828 	 52.5786 	 -75.8752
| 15> H 	 -107.133 	 53.8704 	 -76.8756
| 16> C 	 -108.873 	 53.0579 	 -75.7603
| 17> H 	 -108.964 	 52.5337 	 -74.7763
| 18> H 	 -109.543 	 53.8677 	 -75.7939
| 19> C 	 -109.113 	 52.1773 	 -76.9176
| 20> H 	 -109.064 	 52.745 	 -77.908
| 21> H 	 -108.426 	 51.3393 	 -77.2005
| 22> H 	 -110.018 	 51.5569 	 -76.7741
| 23> S 	 -106.033 	 58.8871 	 -72.8222
| 24> C 	 -107.017 	 60.3587 	 -73.1088
| 25> C 	 -108.349 	 60.0863 	 -73.3531
| 26> C 	 -108.584 	 58.6523 	 -73.5434
| 27> C 	 -107.387 	 57.9142 	 -73.4642
| 28> H 	 -109.039 	 60.874 	 -73.4053
| 29> C 	 -109.963 	 58.1042 	 -73.963
| 30> H 	 -110.091 	 57.3011 	 -73.2395
| 31> H 	 -109.862 	 57.6339 	 -74.9524
| 32> C 	 -111.14 	 59.1345 	 -73.9482
| 33> H 	 -110.834 	 59.8488 	 -74.5966
| 34> H 	 -111.078 	 59.4843 	 -72.9098
| 35> C 	 -112.465 	 58.5502 	 -74.1603
| 36> H 	 -112.616 	 57.5341 	 -73.7177
| 37> H 	 -112.56 	 58.4738 	 -75.2152
| 38> H 	 -113.289 	 59.0963 	 -73.7475
| 39> H 	 -105.588 	 53.3132 	 -73.771
| 40> H 	 -106.623 	 61.3633 	 -72.9945
| 41> *
| 42>
| 43>                          ****END OF INPUT****

CARTESIAN COORDINATES (ANGSTROEM)
---------------------------------
  S    -105.898000   55.626200  -72.771400
  C    -106.031000   54.253500  -73.877500
  C    -106.963000   54.482700  -74.833000
  C    -107.620000   55.758100  -74.770900
  C    -107.149000   56.501700  -73.717300
  H    -108.422000   56.108400  -75.284500
  C    -107.366000   53.478000  -75.892800
  H    -106.828000   52.578600  -75.875200
  H    -107.133000   53.870400  -76.875600
  C    -108.873000   53.057900  -75.760300
  H    -108.964000   52.533700  -74.776300
  H    -109.543000   53.867700  -75.793900
  C    -109.113000   52.177300  -76.917600
  H    -109.064000   52.745000  -77.908000
  H    -108.426000   51.339300  -77.200500
  H    -110.018000   51.556900  -76.774100
  S    -106.033000   58.887100  -72.822200
  C    -107.017000   60.358700  -73.108800
  C    -108.349000   60.086300  -73.353100
  C    -108.584000   58.652300  -73.543400
  C    -107.387000   57.914200  -73.464200
  H    -109.039000   60.874000  -73.405300
  C    -109.963000   58.104200  -73.963000
  H    -110.091000   57.301100  -73.239500
  H    -109.862000   57.633900  -74.952400
  C    -111.140000   59.134500  -73.948200
  H    -110.834000   59.848800  -74.596600
  H    -111.078000   59.484300  -72.909800
  C    -112.465000   58.550200  -74.160300
  H    -112.616000   57.534100  -73.717700
  H    -112.560000   58.473800  -75.215200
  H    -113.289000   59.096300  -73.747500
  H    -105.588000   53.313200  -73.771000
  H    -106.623000   61.363300  -72.994500

 Total Charge           Charge          ....    0
 Multiplicity           Mult            ....    1
 Number of Electrons    NEL             ....  134
 Basis Dimension        Dim             ....  322

ORBITAL ENERGIES
----------------

  NO   OCC          E(Eh)            E(eV)
   0   2.0000     -88.965736     -2420.8807
   1   2.0000     -88.963115     -2420.8094
   2   2.0000     -10.331384      -281.1313
   3   2.0000     -10.329424      -281.0779
   4   2.0000     -10.320279      -280.8291
   5   2.0000     -10.311123      -280.5799
   6   2.0000     -10.306372      -280.4506
   7   2.0000     -10.297378      -280.2059
   8   2.0000     -10.296584      -280.1843
   9   2.0000     -10.295914      -280.1661
  10   2.0000     -10.287210      -279.9292
  11   2.0000     -10.286975      -279.9228
  12   2.0000     -10.285633      -279.8863
  13   2.0000     -10.283775      -279.8357
  14   2.0000     -10.281997      -279.7874
  15   2.0000     -10.276154      -279.6284
  16   2.0000      -8.079264      -219.8480
  17   2.0000      -8.077080      -219.7885
  18   2.0000      -6.037988      -164.3020
  19   2.0000      -6.035794      -164.2423
  20   2.0000      -6.034216      -164.1994
  21   2.0000      -6.031834      -164.1345
  22   2.0000      -6.029598      -164.0737
  23   2.0000      -6.027544      -164.0178
  24   2.0000      -0.999477       -27.1971
  25   2.0000      -0.974848       -26.5269
  26   2.0000      -0.917412       -24.9640
  27   2.0000      -0.914618       -24.8880
  28   2.0000      -0.871496       -23.7146
  29   2.0000      -0.856045       -23.2942
  30   2.0000      -0.844276       -22.9739
  31   2.0000      -0.818406       -22.2700
  32   2.0000      -0.780857       -21.2482
  33   2.0000      -0.767125       -20.8745
  34   2.0000      -0.714229       -19.4352
  35   2.0000      -0.705590       -19.2001
  36   2.0000      -0.698019       -18.9941
  37   2.0000      -0.656631       -17.8678
  38   2.0000      -0.645525       -17.5656
  39   2.0000      -0.624243       -16.9865
  40   2.0000      -0.592857       -16.1325
  41   2.0000      -0.586877       -15.9697
  42   2.0000      -0.572707       -15.5841
  43   2.0000      -0.561385       -15.2761
  44   2.0000      -0.526263       -14.3203
  45   2.0000      -0.524409       -14.2699
  46   2.0000      -0.523157       -14.2358
  47   2.0000      -0.516561       -14.0563
  48   2.0000      -0.510228       -13.8840
  49   2.0000      -0.498078       -13.5534
  50   2.0000      -0.493871       -13.4389
  51   2.0000      -0.485305       -13.2058
  52   2.0000      -0.476595       -12.9688
  53   2.0000      -0.463371       -12.6090
  54   2.0000      -0.457769       -12.4565
  55   2.0000      -0.452292       -12.3075
  56   2.0000      -0.449621       -12.2348
  57   2.0000      -0.435280       -11.8446
  58   2.0000      -0.434496       -11.8233
  59   2.0000      -0.426474       -11.6049
  60   2.0000      -0.420397       -11.4396
  61   2.0000      -0.411901       -11.2084
  62   2.0000      -0.402974       -10.9655
  63   2.0000      -0.355726        -9.6798
  64   2.0000      -0.332484        -9.0473
  65   2.0000      -0.324993        -8.8435
  66   2.0000      -0.281886        -7.6705
  67   0.0000       0.022333         0.6077
  68   0.0000       0.068883         1.8744
  69   0.0000       0.100113         2.7242
  70   0.0000       0.128262         3.4902
  71   0.0000       0.134890         3.6706

MULLIKEN ATOMIC CHARGES
-----------------------
   0 S :    0.082871
   1 C :   -0.090563
   2 C :   -0.048117
   3 C :    0.054865
   4 C :   -0.131447
   5 H :   -0.046108
   6 C :    0.060405
   7 H :   -0.004020
   8 H :    0.026612
   9 C :   -0.041563
  10 H :    0.042077
  11 H :    0.028370
  12 C :   -0.084604
  13 H :    0.036366
  14 H :    0.023791
  15 H :    0.033594
  16 S :    0.094338
  17 C :   -0.082621
  18 C :   -0.021975
  19 C :   -0.064588
  20 C :   -0.131164
  21 H :    0.005662
  22 C :    0.009285
  23 H :    0.037807
  24 H :    0.049235
  25 C :   -0.056739
  26 H :    0.021564
  27 H :    0.031245
  28 C :    0.007287
  29 H :    0.030694
  30 H :    0.021029
  31 H :    0.031036
  32 H :    0.020200
  33 H :    0.055177
Sum of atomic charges:   -0.0000000

LOEWDIN ATOMIC CHARGES
----------------------
   0 S :    0.362846
   1 C :   -0.184701
   2 C :   -0.055722
   3 C :   -0.050869
   4 C :   -0.159535
   5 H :    0.011401
   6 C :   -0.023540
   7 H :    0.019888
   8 H :    0.028968
   9 C :   -0.033756
  10 H :    0.033924
  11 H :    0.018201
  12 C :   -0.084109
  13 H :    0.033881
  14 H :    0.026743
  15 H :    0.026799
  16 S :    0.367019
  17 C :   -0.164711
  18 C :   -0.065945
  19 C :   -0.050250
  20 C :   -0.187554
  21 H :    0.023656
  22 C :   -0.031104
  23 H :    0.033830
  24 H :    0.027304
  25 C :   -0.034697
  26 H :    0.011428
  27 H :    0.029343
  28 C :   -0.060273
  29 H :    0.033984
  30 H :    0.023620
  31 H :    0.026761
  32 H :    0.019412
  33 H :    0.027756

  Mayer bond orders larger than 0.100000
B(  0-S ,  1-C ) :   1.0964 B(  0-S ,  4-C ) :   1.1269 B(  1-C ,  2-C ) :   1.6680
B(  1-C , 32-H ) :   0.9705 B(  2-C ,  3-C ) :   1.1872 B(  2-C ,  6-C ) :   1.0235
B(  3-C ,  4-C ) :   1.5969 B(  3-C ,  5-H ) :   1.0073 B(  4-C , 20-C ) :   1.0813
B(  6-C ,  7-H ) :   0.9452 B(  6-C ,  8-H ) :   0.9416 B(  6-C ,  9-C ) :   1.0519
B(  9-C , 10-H ) :   0.9542 B(  9-C , 11-H ) :   0.9535 B(  9-C , 12-C ) :   1.0862
B( 12-C , 13-H ) :   0.9700 B( 12-C , 14-H ) :   0.9705 B( 12-C , 15-H ) :   0.9692
B( 16-S , 17-C ) :   1.1308 B( 16-S , 20-C ) :   1.1132 B( 17-C , 18-C ) :   1.6382
B( 17-C , 33-H ) :   0.9638 B( 18-C , 19-C ) :   1.2064 B( 18-C , 21-H ) :   0.9944
B( 19-C , 20-C ) :   1.6114 B( 19-C , 22-C ) :   1.0194 B( 22-C , 23-H ) :   0.9268
B( 22-C , 24-H ) :   0.9320 B( 22-C , 25-C ) :   1.0822 B( 25-C , 26-H ) :   0.9521
B( 25-C , 27-H ) :   0.9509 B( 25-C , 28-C ) :   1.0858 B( 28-C , 29-H ) :   0.9701
B( 28-C , 30-H ) :   0.9707 B( 28-C , 31-H ) :   0.9706

Dispersion correction           -0.013399176
FINAL SINGLE POINT ENERGY     -1339.848862438717

DIPOLE MOMENT
-------------
                                X             Y             Z
Electronic contribution:     25.89194      10.94539      15.37797
Nuclear contribution   :    -26.63761     -11.03129     -15.79803
                        -----------------------------------------
Total Dipole Moment    :     -0.74567      -0.08590      -0.42005
                        -----------------------------------------
Magnitude (a.u.)       :      0.86014
Magnitude (Debye)      :      2.18631

Rotational constants in cm-1:     0.015974     0.009099     0.006107
Rotational constants in MHz :   478.900699   272.790978   183.079850

                             ****ORCA TERMINATED NORMALLY****
TOTAL RUN TIME: 0 days 0 hours 0 minutes 21 seconds 214 msec
