                         Program Version 4.2.1 -  RELEASE  -
|  1> ! wB97X-D3 SP def2-SVP
|  2> %pal
|  3> nprocs 24
|  4> end
|  5>
|  6> * xyz 0 1
|  7> S 	 -41.3312 	 18.5284 	 -101.672
|  8> C 	 -41.3722 	 19.8013 	 -100.466
|  9> C 	 -42.6259 	 20.1622 	 -100.141
| 10> C 	 -43.6053 	 19.3925 	 -100.759
| 11> C 	 -43.0761 	 18.6185 	 -101.793
| 12> H 	 -44.645 	 19.5427 	 -100.698
| 13> C 	 -43.0052 	 21.2827 	 -99.2549
| 14> H 	 -43.7164 	 21.865 	 -99.8966
| 15> H 	 -42.1761 	 21.9235 	 -99.1228
| 16> C 	 -43.7374 	 20.9735 	 -98.0033
| 17> H 	 -43.0645 	 20.5097 	 -97.269
| 18> H 	 -44.1329 	 21.9291 	 -97.5297
| 19> C 	 -44.9428 	 20.0665 	 -98.0734
| 20> H 	 -45.6751 	 20.2227 	 -98.8427
| 21> H 	 -44.5126 	 19.0778 	 -98.234
| 22> H 	 -45.4025 	 20.0395 	 -97.0726
| 23> S 	 -43.2078 	 18.1937 	 -104.492
| 24> C 	 -44.4842 	 17.2066 	 -105.181
| 25> C 	 -45.3865 	 16.8591 	 -104.218
| 26> C 	 -45.1147 	 17.3442 	 -102.888
| 27> C 	 -43.8358 	 17.9674 	 -102.81
| 28> H 	 -46.2349 	 16.2897 	 -104.607
| 29> C 	 -45.9383 	 16.9292 	 -101.709
| 30> H 	 -46.8184 	 17.5499 	 -101.561
| 31> H 	 -45.2575 	 17.043 	 -100.892
| 32> C 	 -46.4483 	 15.4985 	 -101.649
| 33> H 	 -46.9455 	 15.3034 	 -102.584
| 34> H 	 -47.1549 	 15.3661 	 -100.799
| 35> C 	 -45.3998 	 14.5121 	 -101.461
| 36> H 	 -44.9267 	 14.3632 	 -102.447
| 37> H 	 -45.6286 	 13.5669 	 -100.961
| 38> H 	 -44.6326 	 14.8774 	 -100.699
| 39> H 	 -40.5436 	 20.169 	 -99.9633
| 40> H 	 -44.6545 	 16.9039 	 -106.235
| 41> *
| 42>
| 43>                          ****END OF INPUT****

CARTESIAN COORDINATES (ANGSTROEM)
---------------------------------
  S    -41.331200   18.528400  -101.672000
  C    -41.372200   19.801300  -100.466000
  C    -42.625900   20.162200  -100.141000
  C    -43.605300   19.392500  -100.759000
  C    -43.076100   18.618500  -101.793000
  H    -44.645000   19.542700  -100.698000
  C    -43.005200   21.282700  -99.254900
  H    -43.716400   21.865000  -99.896600
  H    -42.176100   21.923500  -99.122800
  C    -43.737400   20.973500  -98.003300
  H    -43.064500   20.509700  -97.269000
  H    -44.132900   21.929100  -97.529700
  C    -44.942800   20.066500  -98.073400
  H    -45.675100   20.222700  -98.842700
  H    -44.512600   19.077800  -98.234000
  H    -45.402500   20.039500  -97.072600
  S    -43.207800   18.193700  -104.492000
  C    -44.484200   17.206600  -105.181000
  C    -45.386500   16.859100  -104.218000
  C    -45.114700   17.344200  -102.888000
  C    -43.835800   17.967400  -102.810000
  H    -46.234900   16.289700  -104.607000
  C    -45.938300   16.929200  -101.709000
  H    -46.818400   17.549900  -101.561000
  H    -45.257500   17.043000  -100.892000
  C    -46.448300   15.498500  -101.649000
  H    -46.945500   15.303400  -102.584000
  H    -47.154900   15.366100  -100.799000
  C    -45.399800   14.512100  -101.461000
  H    -44.926700   14.363200  -102.447000
  H    -45.628600   13.566900  -100.961000
  H    -44.632600   14.877400  -100.699000
  H    -40.543600   20.169000  -99.963300
  H    -44.654500   16.903900  -106.235000

 Total Charge           Charge          ....    0
 Multiplicity           Mult            ....    1
 Number of Electrons    NEL             ....  134
 Basis Dimension        Dim             ....  322

ORBITAL ENERGIES
----------------

  NO   OCC          E(Eh)            E(eV)
   0   2.0000     -88.968598     -2420.9586
   1   2.0000     -88.963496     -2420.8198
   2   2.0000     -10.334430      -281.2141
   3   2.0000     -10.330888      -281.1177
   4   2.0000     -10.317718      -280.7594
   5   2.0000     -10.310284      -280.5571
   6   2.0000     -10.304839      -280.4089
   7   2.0000     -10.293075      -280.0888
   8   2.0000     -10.291148      -280.0364
   9   2.0000     -10.288908      -279.9754
  10   2.0000     -10.287894      -279.9478
  11   2.0000     -10.286643      -279.9138
  12   2.0000     -10.285344      -279.8784
  13   2.0000     -10.279393      -279.7165
  14   2.0000     -10.276822      -279.6466
  15   2.0000     -10.271997      -279.5152
  16   2.0000      -8.083227      -219.9558
  17   2.0000      -8.077294      -219.7943
  18   2.0000      -6.041712      -164.4033
  19   2.0000      -6.037842      -164.2980
  20   2.0000      -6.035969      -164.2471
  21   2.0000      -6.033923      -164.1914
  22   2.0000      -6.031897      -164.1363
  23   2.0000      -6.027951      -164.0289
  24   2.0000      -1.010581       -27.4993
  25   2.0000      -0.983213       -26.7546
  26   2.0000      -0.924770       -25.1643
  27   2.0000      -0.919272       -25.0147
  28   2.0000      -0.876761       -23.8579
  29   2.0000      -0.855079       -23.2679
  30   2.0000      -0.845208       -22.9993
  31   2.0000      -0.820508       -22.3272
  32   2.0000      -0.790534       -21.5115
  33   2.0000      -0.773784       -21.0557
  34   2.0000      -0.713983       -19.4285
  35   2.0000      -0.699814       -19.0429
  36   2.0000      -0.692140       -18.8341
  37   2.0000      -0.654537       -17.8109
  38   2.0000      -0.640429       -17.4270
  39   2.0000      -0.622579       -16.9412
  40   2.0000      -0.599090       -16.3021
  41   2.0000      -0.578354       -15.7378
  42   2.0000      -0.560574       -15.2540
  43   2.0000      -0.555335       -15.1114
  44   2.0000      -0.549845       -14.9620
  45   2.0000      -0.545639       -14.8476
  46   2.0000      -0.525757       -14.3066
  47   2.0000      -0.516726       -14.0608
  48   2.0000      -0.507865       -13.8197
  49   2.0000      -0.496385       -13.5073
  50   2.0000      -0.492708       -13.4073
  51   2.0000      -0.486599       -13.2410
  52   2.0000      -0.470923       -12.8145
  53   2.0000      -0.461839       -12.5673
  54   2.0000      -0.458709       -12.4821
  55   2.0000      -0.447263       -12.1707
  56   2.0000      -0.442532       -12.0419
  57   2.0000      -0.441435       -12.0120
  58   2.0000      -0.430915       -11.7258
  59   2.0000      -0.426776       -11.6132
  60   2.0000      -0.409871       -11.1532
  61   2.0000      -0.409008       -11.1297
  62   2.0000      -0.407569       -11.0905
  63   2.0000      -0.354783        -9.6541
  64   2.0000      -0.334211        -9.0944
  65   2.0000      -0.327806        -8.9201
  66   2.0000      -0.284420        -7.7395
  67   0.0000       0.018931         0.5151
  68   0.0000       0.074564         2.0290
  69   0.0000       0.114097         3.1047
  70   0.0000       0.118267         3.2182
  71   0.0000       0.128431         3.4948

MULLIKEN ATOMIC CHARGES
-----------------------
   0 S :    0.124431
   1 C :   -0.095815
   2 C :   -0.080815
   3 C :    0.026204
   4 C :   -0.143699
   5 H :   -0.007777
   6 C :    0.109531
   7 H :    0.031514
   8 H :    0.005800
   9 C :   -0.090373
  10 H :    0.027747
  11 H :    0.034459
  12 C :   -0.055205
  13 H :    0.033408
  14 H :    0.035246
  15 H :    0.038989
  16 S :    0.086620
  17 C :   -0.093683
  18 C :   -0.065062
  19 C :   -0.017579
  20 C :   -0.152147
  21 H :    0.025267
  22 C :    0.076806
  23 H :    0.036196
  24 H :    0.011987
  25 C :   -0.061919
  26 H :    0.022331
  27 H :    0.029168
  28 C :   -0.071510
  29 H :    0.043705
  30 H :    0.032958
  31 H :    0.024323
  32 H :    0.012171
  33 H :    0.066721
Sum of atomic charges:    0.0000000

LOEWDIN ATOMIC CHARGES
----------------------
   0 S :    0.406288
   1 C :   -0.183888
   2 C :   -0.065534
   3 C :   -0.052042
   4 C :   -0.191121
   5 H :    0.023457
   6 C :   -0.032111
   7 H :    0.040890
   8 H :    0.025634
   9 C :   -0.044835
  10 H :    0.026351
  11 H :    0.029395
  12 C :   -0.067156
  13 H :    0.017656
  14 H :    0.026540
  15 H :    0.032801
  16 S :    0.377924
  17 C :   -0.190950
  18 C :   -0.083363
  19 C :   -0.054549
  20 C :   -0.173346
  21 H :    0.034224
  22 C :   -0.031777
  23 H :    0.033918
  24 H :    0.025576
  25 C :   -0.046964
  26 H :    0.019314
  27 H :    0.029996
  28 C :   -0.075540
  29 H :    0.030518
  30 H :    0.025910
  31 H :    0.030593
  32 H :    0.014532
  33 H :    0.041658

  Mayer bond orders larger than 0.100000
B(  0-S ,  1-C ) :   1.1132 B(  0-S ,  4-C ) :   1.1562 B(  1-C ,  2-C ) :   1.6282
B(  1-C , 32-H ) :   0.9727 B(  2-C ,  3-C ) :   1.2497 B(  2-C ,  6-C ) :   1.0156
B(  3-C ,  4-C ) :   1.5311 B(  3-C ,  5-H ) :   0.9967 B(  4-C , 20-C ) :   1.0934
B(  6-C ,  7-H ) :   0.9326 B(  6-C ,  8-H ) :   0.9352 B(  6-C ,  9-C ) :   1.0814
B(  9-C , 10-H ) :   0.9488 B(  9-C , 11-H ) :   0.9543 B(  9-C , 12-C ) :   1.0961
B( 12-C , 13-H ) :   0.9709 B( 12-C , 14-H ) :   0.9630 B( 12-C , 15-H ) :   0.9672
B( 16-S , 17-C ) :   1.1335 B( 16-S , 20-C ) :   1.1272 B( 17-C , 18-C ) :   1.6540
B( 17-C , 20-C ) :   0.1006 B( 17-C , 33-H ) :   0.9586 B( 18-C , 19-C ) :   1.2076
B( 18-C , 21-H ) :   0.9825 B( 19-C , 20-C ) :   1.5639 B( 19-C , 22-C ) :   1.0468
B( 22-C , 23-H ) :   0.9206 B( 22-C , 24-H ) :   0.9380 B( 22-C , 25-C ) :   1.0876
B( 25-C , 26-H ) :   0.9484 B( 25-C , 27-H ) :   0.9491 B( 25-C , 28-C ) :   1.0870
B( 28-C , 29-H ) :   0.9724 B( 28-C , 30-H ) :   0.9738 B( 28-C , 31-H ) :   0.9689

Dispersion correction           -0.014780332
FINAL SINGLE POINT ENERGY     -1339.862473226058

DIPOLE MOMENT
-------------
                                X             Y             Z
Electronic contribution:     16.93410       3.17325     -19.69281
Nuclear contribution   :    -17.45035      -3.08830      20.12303
                        -----------------------------------------
Total Dipole Moment    :     -0.51625       0.08495       0.43022
                        -----------------------------------------
Magnitude (a.u.)       :      0.67736
Magnitude (Debye)      :      1.72172

Rotational constants in cm-1:     0.018613     0.009514     0.007327
Rotational constants in MHz :   558.015670   285.221367   219.665746

                             ****ORCA TERMINATED NORMALLY****
TOTAL RUN TIME: 0 days 0 hours 0 minutes 22 seconds 653 msec
