                         Program Version 4.2.1 -  RELEASE  -
|  1> ! wB97X-D3 SP def2-SVP
|  2> %pal
|  3> nprocs 24
|  4> end
|  5>
|  6> * xyz 0 1
|  7> S 	 -34.7472 	 -3.45037 	 5.64756
|  8> C 	 -36.2997 	 -3.53885 	 6.35262
|  9> C 	 -37.2853 	 -3.8577 	 5.43366
| 10> C 	 -36.7225 	 -4.0588 	 4.11503
| 11> C 	 -35.4163 	 -3.68871 	 4.06583
| 12> H 	 -37.1595 	 -4.51602 	 3.23455
| 13> C 	 -38.8048 	 -3.95838 	 5.67349
| 14> H 	 -38.9282 	 -4.06545 	 6.76624
| 15> H 	 -39.1361 	 -4.90333 	 5.20268
| 16> C 	 -39.6107 	 -2.83087 	 5.09014
| 17> H 	 -39.3465 	 -2.57701 	 4.03741
| 18> H 	 -40.6553 	 -3.0482 	 5.00646
| 19> C 	 -39.3616 	 -1.56512 	 5.89966
| 20> H 	 -40.1247 	 -0.865953 	 5.65939
| 21> H 	 -39.3954 	 -1.66561 	 6.97456
| 22> H 	 -38.4145 	 -1.15792 	 5.68
| 23> S 	 -33.4448 	 -5.24448 	 3.1208
| 24> C 	 -32.963 	 -5.25949 	 1.463
| 25> C 	 -33.6276 	 -4.2151 	 0.861723
| 26> C 	 -34.5586 	 -3.49479 	 1.63713
| 27> C 	 -34.5828 	 -3.96916 	 2.93801
| 28> H 	 -33.3362 	 -4.1901 	 -0.167304
| 29> C 	 -35.3806 	 -2.29608 	 1.0814
| 30> H 	 -34.61 	 -1.7672 	 0.519939
| 31> H 	 -35.4141 	 -1.53345 	 1.8842
| 32> C 	 -36.6594 	 -2.5397 	 0.331962
| 33> H 	 -37.3869 	 -3.03671 	 1.02598
| 34> H 	 -36.514 	 -3.18199 	 -0.483051
| 35> C 	 -37.3338 	 -1.26419 	 -0.118687
| 36> H 	 -36.7172 	 -0.848876 	 -0.870208
| 37> H 	 -37.4879 	 -0.538426 	 0.66956
| 38> H 	 -38.077 	 -1.63665 	 -0.690091
| 39> H 	 -36.4875 	 -3.50008 	 7.35773
| 40> H 	 -32.2317 	 -5.95311 	 1.14792
| 41> *
| 42>
| 43>                          ****END OF INPUT****

CARTESIAN COORDINATES (ANGSTROEM)
---------------------------------
  S    -34.747200   -3.450370    5.647560
  C    -36.299700   -3.538850    6.352620
  C    -37.285300   -3.857700    5.433660
  C    -36.722500   -4.058800    4.115030
  C    -35.416300   -3.688710    4.065830
  H    -37.159500   -4.516020    3.234550
  C    -38.804800   -3.958380    5.673490
  H    -38.928200   -4.065450    6.766240
  H    -39.136100   -4.903330    5.202680
  C    -39.610700   -2.830870    5.090140
  H    -39.346500   -2.577010    4.037410
  H    -40.655300   -3.048200    5.006460
  C    -39.361600   -1.565120    5.899660
  H    -40.124700   -0.865953    5.659390
  H    -39.395400   -1.665610    6.974560
  H    -38.414500   -1.157920    5.680000
  S    -33.444800   -5.244480    3.120800
  C    -32.963000   -5.259490    1.463000
  C    -33.627600   -4.215100    0.861723
  C    -34.558600   -3.494790    1.637130
  C    -34.582800   -3.969160    2.938010
  H    -33.336200   -4.190100   -0.167304
  C    -35.380600   -2.296080    1.081400
  H    -34.610000   -1.767200    0.519939
  H    -35.414100   -1.533450    1.884200
  C    -36.659400   -2.539700    0.331962
  H    -37.386900   -3.036710    1.025980
  H    -36.514000   -3.181990   -0.483051
  C    -37.333800   -1.264190   -0.118687
  H    -36.717200   -0.848876   -0.870208
  H    -37.487900   -0.538426    0.669560
  H    -38.077000   -1.636650   -0.690091
  H    -36.487500   -3.500080    7.357730
  H    -32.231700   -5.953110    1.147920

 Total Charge           Charge          ....    0
 Multiplicity           Mult            ....    1
 Number of Electrons    NEL             ....  134
 Basis Dimension        Dim             ....  322

ORBITAL ENERGIES
----------------

  NO   OCC          E(Eh)            E(eV)
   0   2.0000     -88.965650     -2420.8784
   1   2.0000     -88.955207     -2420.5942
   2   2.0000     -10.319622      -280.8112
   3   2.0000     -10.318167      -280.7716
   4   2.0000     -10.309122      -280.5255
   5   2.0000     -10.306275      -280.4480
   6   2.0000     -10.302573      -280.3473
   7   2.0000     -10.301807      -280.3264
   8   2.0000     -10.294602      -280.1304
   9   2.0000     -10.291607      -280.0489
  10   2.0000     -10.289798      -279.9996
  11   2.0000     -10.287772      -279.9445
  12   2.0000     -10.283804      -279.8365
  13   2.0000     -10.282264      -279.7946
  14   2.0000     -10.264091      -279.3001
  15   2.0000     -10.263853      -279.2936
  16   2.0000      -8.081525      -219.9095
  17   2.0000      -8.071525      -219.6374
  18   2.0000      -6.039971      -164.3560
  19   2.0000      -6.035994      -164.2478
  20   2.0000      -6.032160      -164.1434
  21   2.0000      -6.029758      -164.0781
  22   2.0000      -6.025604      -163.9650
  23   2.0000      -6.022665      -163.8850
  24   2.0000      -1.015764       -27.6404
  25   2.0000      -0.990075       -26.9413
  26   2.0000      -0.915110       -24.9014
  27   2.0000      -0.913486       -24.8572
  28   2.0000      -0.876736       -23.8572
  29   2.0000      -0.855737       -23.2858
  30   2.0000      -0.847907       -23.0727
  31   2.0000      -0.815614       -22.1940
  32   2.0000      -0.784653       -21.3515
  33   2.0000      -0.777688       -21.1620
  34   2.0000      -0.710395       -19.3308
  35   2.0000      -0.702162       -19.1068
  36   2.0000      -0.697599       -18.9826
  37   2.0000      -0.661828       -18.0093
  38   2.0000      -0.647659       -17.6237
  39   2.0000      -0.618317       -16.8253
  40   2.0000      -0.598914       -16.2973
  41   2.0000      -0.569015       -15.4837
  42   2.0000      -0.565482       -15.3875
  43   2.0000      -0.555971       -15.1287
  44   2.0000      -0.544988       -14.8299
  45   2.0000      -0.539702       -14.6860
  46   2.0000      -0.522830       -14.2269
  47   2.0000      -0.516101       -14.0438
  48   2.0000      -0.508706       -13.8426
  49   2.0000      -0.499837       -13.6012
  50   2.0000      -0.490322       -13.3423
  51   2.0000      -0.482706       -13.1351
  52   2.0000      -0.472639       -12.8611
  53   2.0000      -0.467669       -12.7259
  54   2.0000      -0.457804       -12.4575
  55   2.0000      -0.452933       -12.3249
  56   2.0000      -0.443292       -12.0626
  57   2.0000      -0.439106       -11.9487
  58   2.0000      -0.429538       -11.6883
  59   2.0000      -0.420649       -11.4465
  60   2.0000      -0.416264       -11.3271
  61   2.0000      -0.414358       -11.2753
  62   2.0000      -0.403017       -10.9666
  63   2.0000      -0.346170        -9.4198
  64   2.0000      -0.328059        -8.9270
  65   2.0000      -0.324538        -8.8311
  66   2.0000      -0.299328        -8.1451
  67   0.0000       0.039260         1.0683
  68   0.0000       0.070400         1.9157
  69   0.0000       0.116272         3.1639
  70   0.0000       0.127700         3.4749
  71   0.0000       0.129974         3.5368

MULLIKEN ATOMIC CHARGES
-----------------------
   0 S :    0.116264
   1 C :   -0.073087
   2 C :   -0.104608
   3 C :    0.018386
   4 C :   -0.147069
   5 H :    0.029813
   6 C :    0.072698
   7 H :    0.023219
   8 H :    0.028946
   9 C :   -0.054613
  10 H :    0.030426
  11 H :    0.024024
  12 C :   -0.030093
  13 H :    0.020064
  14 H :    0.016330
  15 H :    0.033006
  16 S :    0.095060
  17 C :   -0.108432
  18 C :   -0.039917
  19 C :   -0.010169
  20 C :   -0.174521
  21 H :    0.008902
  22 C :    0.057110
  23 H :    0.009687
  24 H :    0.018521
  25 C :   -0.052500
  26 H :    0.025403
  27 H :    0.014509
  28 C :    0.043034
  29 H :    0.002560
  30 H :    0.043752
  31 H :    0.002275
  32 H :    0.010247
  33 H :    0.050772
Sum of atomic charges:   -0.0000000

LOEWDIN ATOMIC CHARGES
----------------------
   0 S :    0.427732
   1 C :   -0.196563
   2 C :   -0.057130
   3 C :   -0.050908
   4 C :   -0.206334
   5 H :    0.034975
   6 C :   -0.030858
   7 H :    0.029630
   8 H :    0.032632
   9 C :   -0.041506
  10 H :    0.030468
  11 H :    0.020427
  12 C :   -0.058454
  13 H :    0.021952
  14 H :    0.020375
  15 H :    0.021989
  16 S :    0.422221
  17 C :   -0.189508
  18 C :   -0.077438
  19 C :   -0.063781
  20 C :   -0.206965
  21 H :    0.028568
  22 C :   -0.039500
  23 H :    0.031013
  24 H :    0.034137
  25 C :   -0.033710
  26 H :    0.026099
  27 H :    0.018654
  28 C :   -0.049337
  29 H :    0.021263
  30 H :    0.030055
  31 H :    0.016888
  32 H :    0.010062
  33 H :    0.022853

  Mayer bond orders larger than 0.100000
B(  0-S ,  1-C ) :   1.1431 B(  0-S ,  4-C ) :   1.1462 B(  1-C ,  2-C ) :   1.6188
B(  1-C , 32-H ) :   0.9779 B(  2-C ,  3-C ) :   1.2179 B(  2-C ,  6-C ) :   1.0229
B(  3-C ,  4-C ) :   1.5997 B(  3-C ,  5-H ) :   0.9883 B(  4-C , 20-C ) :   1.0275
B(  6-C ,  7-H ) :   0.9453 B(  6-C ,  8-H ) :   0.9357 B(  6-C ,  9-C ) :   1.0754
B(  9-C , 10-H ) :   0.9520 B(  9-C , 11-H ) :   0.9578 B(  9-C , 12-C ) :   1.0703
B( 12-C , 13-H ) :   0.9719 B( 12-C , 14-H ) :   0.9765 B( 12-C , 15-H ) :   0.9770
B( 16-S , 17-C ) :   1.1680 B( 16-S , 20-C ) :   1.1786 B( 17-C , 18-C ) :   1.5694
B( 17-C , 20-C ) :   0.1061 B( 17-C , 33-H ) :   0.9812 B( 18-C , 19-C ) :   1.2431
B( 18-C , 21-H ) :   1.0030 B( 19-C , 20-C ) :   1.5766 B( 19-C , 22-C ) :   1.0189
B( 22-C , 23-H ) :   0.9321 B( 22-C , 24-H ) :   0.9326 B( 22-C , 25-C ) :   1.0670
B( 25-C , 26-H ) :   0.9491 B( 25-C , 27-H ) :   0.9501 B( 25-C , 28-C ) :   1.0910
B( 28-C , 29-H ) :   0.9661 B( 28-C , 30-H ) :   0.9748 B( 28-C , 31-H ) :   0.9642

Dispersion correction           -0.014458365
FINAL SINGLE POINT ENERGY     -1339.858272103126

DIPOLE MOMENT
-------------
                                X             Y             Z
Electronic contribution:     24.48716     -13.86723       8.86844
Nuclear contribution   :    -24.98430      13.91078      -9.23387
                        -----------------------------------------
Total Dipole Moment    :     -0.49714       0.04355      -0.36543
                        -----------------------------------------
Magnitude (a.u.)       :      0.61853
Magnitude (Debye)      :      1.57219

Rotational constants in cm-1:     0.017117     0.010093     0.007002
Rotational constants in MHz :   513.165721   302.571714   209.899857

                             ****ORCA TERMINATED NORMALLY****
TOTAL RUN TIME: 0 days 0 hours 0 minutes 20 seconds 891 msec
