                         Program Version 4.2.1 -  RELEASE  -
|  1> ! wB97X-D3 SP def2-SVP
|  2> %pal
|  3> nprocs 24
|  4> end
|  5>
|  6> * xyz 0 1
|  7> S 	 -101.652 	 -0.227906 	 -104.235
|  8> C 	 -100.095 	 -0.371072 	 -105.054
|  9> C 	 -99.0803 	 0.193345 	 -104.277
| 10> C 	 -99.537 	 0.854079 	 -103.13
| 11> C 	 -100.914 	 0.616956 	 -102.877
| 12> H 	 -98.9019 	 1.39253 	 -102.432
| 13> C 	 -97.6131 	 0.145379 	 -104.707
| 14> H 	 -97.2846 	 1.12942 	 -104.799
| 15> H 	 -97.6827 	 -0.204257 	 -105.712
| 16> C 	 -96.5868 	 -0.670222 	 -103.989
| 17> H 	 -96.5733 	 -0.548086 	 -102.903
| 18> H 	 -96.8115 	 -1.67103 	 -104.22
| 19> C 	 -95.1956 	 -0.243763 	 -104.401
| 20> H 	 -94.4223 	 -1.04576 	 -104.224
| 21> H 	 -95.1852 	 0.0370347 	 -105.403
| 22> H 	 -94.9703 	 0.731132 	 -103.921
| 23> S 	 -102.822 	 2.51621 	 -101.962
| 24> C 	 -103.244 	 2.55514 	 -100.232
| 25> C 	 -102.495 	 1.58785 	 -99.5961
| 26> C 	 -101.687 	 0.735653 	 -100.437
| 27> C 	 -101.724 	 1.12786 	 -101.753
| 28> H 	 -102.654 	 1.52328 	 -98.4869
| 29> C 	 -100.937 	 -0.362313 	 -99.6592
| 30> H 	 -100.531 	 0.147415 	 -98.8806
| 31> H 	 -100.17 	 -0.789832 	 -100.327
| 32> C 	 -101.786 	 -1.38528 	 -99.0329
| 33> H 	 -102.563 	 -1.81396 	 -99.6673
| 34> H 	 -102.27 	 -0.807098 	 -98.2988
| 35> C 	 -100.875 	 -2.51196 	 -98.4443
| 36> H 	 -100.013 	 -2.27209 	 -97.7499
| 37> H 	 -100.523 	 -3.21325 	 -99.2494
| 38> H 	 -101.521 	 -3.13412 	 -97.84
| 39> H 	 -99.8746 	 -0.841896 	 -105.963
| 40> H 	 -103.981 	 3.21633 	 -99.7499
| 41> *
| 42>
| 43>                          ****END OF INPUT****

CARTESIAN COORDINATES (ANGSTROEM)
---------------------------------
  S    -101.652000   -0.227906  -104.235000
  C    -100.095000   -0.371072  -105.054000
  C    -99.080300    0.193345  -104.277000
  C    -99.537000    0.854079  -103.130000
  C    -100.914000    0.616956  -102.877000
  H    -98.901900    1.392530  -102.432000
  C    -97.613100    0.145379  -104.707000
  H    -97.284600    1.129420  -104.799000
  H    -97.682700   -0.204257  -105.712000
  C    -96.586800   -0.670222  -103.989000
  H    -96.573300   -0.548086  -102.903000
  H    -96.811500   -1.671030  -104.220000
  C    -95.195600   -0.243763  -104.401000
  H    -94.422300   -1.045760  -104.224000
  H    -95.185200    0.037035  -105.403000
  H    -94.970300    0.731132  -103.921000
  S    -102.822000    2.516210  -101.962000
  C    -103.244000    2.555140  -100.232000
  C    -102.495000    1.587850  -99.596100
  C    -101.687000    0.735653  -100.437000
  C    -101.724000    1.127860  -101.753000
  H    -102.654000    1.523280  -98.486900
  C    -100.937000   -0.362313  -99.659200
  H    -100.531000    0.147415  -98.880600
  H    -100.170000   -0.789832  -100.327000
  C    -101.786000   -1.385280  -99.032900
  H    -102.563000   -1.813960  -99.667300
  H    -102.270000   -0.807098  -98.298800
  C    -100.875000   -2.511960  -98.444300
  H    -100.013000   -2.272090  -97.749900
  H    -100.523000   -3.213250  -99.249400
  H    -101.521000   -3.134120  -97.840000
  H    -99.874600   -0.841896  -105.963000
  H    -103.981000    3.216330  -99.749900

 Total Charge           Charge          ....    0
 Multiplicity           Mult            ....    1
 Number of Electrons    NEL             ....  134
 Basis Dimension        Dim             ....  322

ORBITAL ENERGIES
----------------

  NO   OCC          E(Eh)            E(eV)
   0   2.0000     -88.969635     -2420.9869
   1   2.0000     -88.961979     -2420.7785
   2   2.0000     -10.334485      -281.2156
   3   2.0000     -10.329514      -281.0804
   4   2.0000     -10.322551      -280.8909
   5   2.0000     -10.312816      -280.6260
   6   2.0000     -10.303783      -280.3802
   7   2.0000     -10.298601      -280.2392
   8   2.0000     -10.296702      -280.1875
   9   2.0000     -10.296088      -280.1708
  10   2.0000     -10.286203      -279.9018
  11   2.0000     -10.281486      -279.7735
  12   2.0000     -10.281450      -279.7725
  13   2.0000     -10.280131      -279.7366
  14   2.0000     -10.278556      -279.6937
  15   2.0000     -10.277819      -279.6737
  16   2.0000      -8.083484      -219.9628
  17   2.0000      -8.075860      -219.7553
  18   2.0000      -6.041929      -164.4092
  19   2.0000      -6.038007      -164.3025
  20   2.0000      -6.034560      -164.2087
  21   2.0000      -6.034469      -164.2063
  22   2.0000      -6.030478      -164.0976
  23   2.0000      -6.026451      -163.9881
  24   2.0000      -0.998893       -27.1813
  25   2.0000      -0.979430       -26.6516
  26   2.0000      -0.920809       -25.0565
  27   2.0000      -0.918020       -24.9806
  28   2.0000      -0.867855       -23.6155
  29   2.0000      -0.849424       -23.1140
  30   2.0000      -0.840962       -22.8837
  31   2.0000      -0.812997       -22.1228
  32   2.0000      -0.781813       -21.2742
  33   2.0000      -0.772707       -21.0264
  34   2.0000      -0.710077       -19.3222
  35   2.0000      -0.702414       -19.1137
  36   2.0000      -0.696355       -18.9488
  37   2.0000      -0.655785       -17.8448
  38   2.0000      -0.640635       -17.4326
  39   2.0000      -0.618458       -16.8291
  40   2.0000      -0.594325       -16.1724
  41   2.0000      -0.577255       -15.7079
  42   2.0000      -0.575870       -15.6702
  43   2.0000      -0.564742       -15.3674
  44   2.0000      -0.528863       -14.3911
  45   2.0000      -0.521109       -14.1801
  46   2.0000      -0.515358       -14.0236
  47   2.0000      -0.509956       -13.8766
  48   2.0000      -0.503806       -13.7092
  49   2.0000      -0.498861       -13.5747
  50   2.0000      -0.494922       -13.4675
  51   2.0000      -0.478008       -13.0073
  52   2.0000      -0.470567       -12.8048
  53   2.0000      -0.462187       -12.5768
  54   2.0000      -0.461341       -12.5537
  55   2.0000      -0.448635       -12.2080
  56   2.0000      -0.442150       -12.0315
  57   2.0000      -0.439545       -11.9606
  58   2.0000      -0.432564       -11.7707
  59   2.0000      -0.422552       -11.4982
  60   2.0000      -0.421961       -11.4821
  61   2.0000      -0.416989       -11.3468
  62   2.0000      -0.408767       -11.1231
  63   2.0000      -0.336935        -9.1685
  64   2.0000      -0.328141        -8.9292
  65   2.0000      -0.325141        -8.8475
  66   2.0000      -0.305310        -8.3079
  67   0.0000       0.035852         0.9756
  68   0.0000       0.059275         1.6130
  69   0.0000       0.119950         3.2640
  70   0.0000       0.123281         3.3546
  71   0.0000       0.130035         3.5384

MULLIKEN ATOMIC CHARGES
-----------------------
   0 S :    0.121435
   1 C :   -0.093969
   2 C :   -0.116403
   3 C :    0.061698
   4 C :   -0.192446
   5 H :    0.017037
   6 C :    0.087254
   7 H :    0.006441
   8 H :   -0.003622
   9 C :   -0.019840
  10 H :    0.028821
  11 H :    0.015756
  12 C :   -0.051730
  13 H :    0.050920
  14 H :    0.007573
  15 H :    0.030824
  16 S :    0.095782
  17 C :   -0.107459
  18 C :   -0.075921
  19 C :   -0.013542
  20 C :   -0.178159
  21 H :    0.041465
  22 C :    0.146721
  23 H :   -0.002796
  24 H :    0.024586
  25 C :   -0.060035
  26 H :    0.038388
  27 H :    0.007233
  28 C :   -0.075195
  29 H :    0.044474
  30 H :    0.045977
  31 H :    0.023433
  32 H :    0.024549
  33 H :    0.070748
Sum of atomic charges:    0.0000000

LOEWDIN ATOMIC CHARGES
----------------------
   0 S :    0.409651
   1 C :   -0.190900
   2 C :   -0.061509
   3 C :   -0.053375
   4 C :   -0.192275
   5 H :    0.034115
   6 C :   -0.026793
   7 H :    0.021210
   8 H :    0.027390
   9 C :   -0.037433
  10 H :    0.025184
  11 H :    0.018009
  12 C :   -0.062404
  13 H :    0.035709
  14 H :    0.011808
  15 H :    0.030500
  16 S :    0.374426
  17 C :   -0.177949
  18 C :   -0.084769
  19 C :   -0.048534
  20 C :   -0.202521
  21 H :    0.036899
  22 C :   -0.020330
  23 H :    0.020411
  24 H :    0.028444
  25 C :   -0.032563
  26 H :    0.029778
  27 H :    0.015800
  28 C :   -0.073349
  29 H :    0.032945
  30 H :    0.033440
  31 H :    0.022163
  32 H :    0.017672
  33 H :    0.039148

  Mayer bond orders larger than 0.100000
B(  0-S ,  1-C ) :   1.1447 B(  0-S ,  4-C ) :   1.1709 B(  1-C ,  2-C ) :   1.5911
B(  1-C ,  4-C ) :   0.1097 B(  1-C , 32-H ) :   0.9693 B(  2-C ,  3-C ) :   1.2751
B(  2-C ,  6-C ) :   1.0148 B(  3-C ,  4-C ) :   1.5436 B(  3-C ,  5-H ) :   0.9936
B(  4-C , 20-C ) :   1.0201 B(  6-C ,  7-H ) :   0.9396 B(  6-C ,  8-H ) :   0.9256
B(  6-C ,  9-C ) :   1.0687 B(  9-C , 10-H ) :   0.9599 B(  9-C , 11-H ) :   0.9516
B(  9-C , 12-C ) :   1.0762 B( 12-C , 13-H ) :   0.9724 B( 12-C , 14-H ) :   0.9729
B( 12-C , 15-H ) :   0.9729 B( 16-S , 17-C ) :   1.1372 B( 16-S , 20-C ) :   1.1220
B( 17-C , 18-C ) :   1.6464 B( 17-C , 33-H ) :   0.9646 B( 18-C , 19-C ) :   1.2036
B( 18-C , 21-H ) :   0.9749 B( 19-C , 20-C ) :   1.6397 B( 19-C , 22-C ) :   1.0286
B( 22-C , 23-H ) :   0.9233 B( 22-C , 24-H ) :   0.9371 B( 22-C , 25-C ) :   1.0662
B( 25-C , 26-H ) :   0.9546 B( 25-C , 27-H ) :   0.9533 B( 25-C , 28-C ) :   1.0830
B( 28-C , 29-H ) :   0.9741 B( 28-C , 30-H ) :   0.9745 B( 28-C , 31-H ) :   0.9740

Dispersion correction           -0.013218233
FINAL SINGLE POINT ENERGY     -1339.858044647098

DIPOLE MOMENT
-------------
                                X             Y             Z
Electronic contribution:    -22.95333      13.72426      -9.43421
Nuclear contribution   :     23.44262     -13.93669       9.83923
                        -----------------------------------------
Total Dipole Moment    :      0.48929      -0.21242       0.40503
                        -----------------------------------------
Magnitude (a.u.)       :      0.66976
Magnitude (Debye)      :      1.70238

Rotational constants in cm-1:     0.017007     0.007863     0.006393
Rotational constants in MHz :   509.848729   235.718885   191.669274

                             ****ORCA TERMINATED NORMALLY****
TOTAL RUN TIME: 0 days 0 hours 0 minutes 20 seconds 701 msec
