                         Program Version 4.2.1 -  RELEASE  -
|  1> ! wB97X-D3 SP def2-SVP
|  2> %pal
|  3> nprocs 24
|  4> end
|  5>
|  6> * xyz 0 1
|  7> S 	 -132.912 	 5.40384 	 -11.0713
|  8> C 	 -133.117 	 6.54749 	 -9.81274
|  9> C 	 -133.7 	 7.71322 	 -10.2522
| 10> C 	 -134.18 	 7.64255 	 -11.52
| 11> C 	 -133.836 	 6.46877 	 -12.1904
| 12> H 	 -134.752 	 8.40067 	 -12.0288
| 13> C 	 -134.079 	 8.84438 	 -9.2891
| 14> H 	 -133.904 	 8.3674 	 -8.32509
| 15> H 	 -135.135 	 9.03325 	 -9.39873
| 16> C 	 -133.156 	 10.0957 	 -9.27958
| 17> H 	 -133.262 	 10.7251 	 -8.44607
| 18> H 	 -132.197 	 9.74517 	 -9.38892
| 19> C 	 -133.394 	 11.0511 	 -10.5042
| 20> H 	 -133.173 	 10.4683 	 -11.4173
| 21> H 	 -134.49 	 11.3671 	 -10.6147
| 22> H 	 -132.728 	 11.8954 	 -10.6576
| 23> S 	 -135.309 	 4.94418 	 -13.8453
| 24> C 	 -135.077 	 5.07173 	 -15.5649
| 25> C 	 -134.058 	 5.91983 	 -15.893
| 26> C 	 -133.433 	 6.49509 	 -14.7704
| 27> C 	 -134.084 	 6.0996 	 -13.5877
| 28> H 	 -133.715 	 6.08095 	 -16.8928
| 29> C 	 -132.182 	 7.38012 	 -14.8204
| 30> H 	 -131.271 	 6.7749 	 -14.8038
| 31> H 	 -132.072 	 7.9531 	 -13.8844
| 32> C 	 -132.219 	 8.49107 	 -15.8767
| 33> H 	 -133.024 	 9.21735 	 -15.5971
| 34> H 	 -132.51 	 8.19742 	 -16.9038
| 35> C 	 -130.94 	 9.26483 	 -16.0212
| 36> H 	 -130.683 	 9.92426 	 -15.1585
| 37> H 	 -130.971 	 9.97196 	 -16.8702
| 38> H 	 -130.066 	 8.52397 	 -16.0095
| 39> H 	 -132.761 	 6.42512 	 -8.79832
| 40> H 	 -135.637 	 4.54605 	 -16.3292
| 41> *
| 42>
| 43>                          ****END OF INPUT****

CARTESIAN COORDINATES (ANGSTROEM)
---------------------------------
  S    -132.912000    5.403840  -11.071300
  C    -133.117000    6.547490   -9.812740
  C    -133.700000    7.713220  -10.252200
  C    -134.180000    7.642550  -11.520000
  C    -133.836000    6.468770  -12.190400
  H    -134.752000    8.400670  -12.028800
  C    -134.079000    8.844380   -9.289100
  H    -133.904000    8.367400   -8.325090
  H    -135.135000    9.033250   -9.398730
  C    -133.156000   10.095700   -9.279580
  H    -133.262000   10.725100   -8.446070
  H    -132.197000    9.745170   -9.388920
  C    -133.394000   11.051100  -10.504200
  H    -133.173000   10.468300  -11.417300
  H    -134.490000   11.367100  -10.614700
  H    -132.728000   11.895400  -10.657600
  S    -135.309000    4.944180  -13.845300
  C    -135.077000    5.071730  -15.564900
  C    -134.058000    5.919830  -15.893000
  C    -133.433000    6.495090  -14.770400
  C    -134.084000    6.099600  -13.587700
  H    -133.715000    6.080950  -16.892800
  C    -132.182000    7.380120  -14.820400
  H    -131.271000    6.774900  -14.803800
  H    -132.072000    7.953100  -13.884400
  C    -132.219000    8.491070  -15.876700
  H    -133.024000    9.217350  -15.597100
  H    -132.510000    8.197420  -16.903800
  C    -130.940000    9.264830  -16.021200
  H    -130.683000    9.924260  -15.158500
  H    -130.971000    9.971960  -16.870200
  H    -130.066000    8.523970  -16.009500
  H    -132.761000    6.425120   -8.798320
  H    -135.637000    4.546050  -16.329200

 Total Charge           Charge          ....    0
 Multiplicity           Mult            ....    1
 Number of Electrons    NEL             ....  134
 Basis Dimension        Dim             ....  322

ORBITAL ENERGIES
----------------

  NO   OCC          E(Eh)            E(eV)
   0   2.0000     -88.967420     -2420.9266
   1   2.0000     -88.967282     -2420.9228
   2   2.0000     -10.329359      -281.0761
   3   2.0000     -10.321378      -280.8590
   4   2.0000     -10.313656      -280.6488
   5   2.0000     -10.310813      -280.5715
   6   2.0000     -10.303356      -280.3686
   7   2.0000     -10.294361      -280.1238
   8   2.0000     -10.291475      -280.0453
   9   2.0000     -10.290797      -280.0268
  10   2.0000     -10.289260      -279.9850
  11   2.0000     -10.288722      -279.9704
  12   2.0000     -10.288368      -279.9607
  13   2.0000     -10.285242      -279.8757
  14   2.0000     -10.282064      -279.7892
  15   2.0000     -10.281296      -279.7683
  16   2.0000      -8.082948      -219.9482
  17   2.0000      -8.081973      -219.9217
  18   2.0000      -6.041246      -164.3906
  19   2.0000      -6.040275      -164.3643
  20   2.0000      -6.037284      -164.2829
  21   2.0000      -6.036421      -164.2594
  22   2.0000      -6.033917      -164.1912
  23   2.0000      -6.033052      -164.1677
  24   2.0000      -1.010567       -27.4989
  25   2.0000      -0.991321       -26.9752
  26   2.0000      -0.909407       -24.7462
  27   2.0000      -0.906479       -24.6665
  28   2.0000      -0.868934       -23.6449
  29   2.0000      -0.853001       -23.2113
  30   2.0000      -0.850827       -23.1522
  31   2.0000      -0.815911       -22.2021
  32   2.0000      -0.780814       -21.2470
  33   2.0000      -0.765593       -20.8328
  34   2.0000      -0.704590       -19.1729
  35   2.0000      -0.701289       -19.0830
  36   2.0000      -0.695121       -18.9152
  37   2.0000      -0.657528       -17.8922
  38   2.0000      -0.643411       -17.5081
  39   2.0000      -0.620533       -16.8856
  40   2.0000      -0.601840       -16.3769
  41   2.0000      -0.576754       -15.6943
  42   2.0000      -0.559619       -15.2280
  43   2.0000      -0.545014       -14.8306
  44   2.0000      -0.536861       -14.6087
  45   2.0000      -0.530666       -14.4402
  46   2.0000      -0.517777       -14.0894
  47   2.0000      -0.510162       -13.8822
  48   2.0000      -0.503304       -13.6956
  49   2.0000      -0.493038       -13.4162
  50   2.0000      -0.487939       -13.2775
  51   2.0000      -0.481112       -13.0917
  52   2.0000      -0.467364       -12.7176
  53   2.0000      -0.464897       -12.6505
  54   2.0000      -0.459616       -12.5068
  55   2.0000      -0.453518       -12.3409
  56   2.0000      -0.441394       -12.0110
  57   2.0000      -0.435856       -11.8602
  58   2.0000      -0.433925       -11.8077
  59   2.0000      -0.429346       -11.6831
  60   2.0000      -0.425954       -11.5908
  61   2.0000      -0.415522       -11.3069
  62   2.0000      -0.404469       -11.0061
  63   2.0000      -0.343443        -9.3456
  64   2.0000      -0.336101        -9.1458
  65   2.0000      -0.319779        -8.7016
  66   2.0000      -0.303060        -8.2467
  67   0.0000       0.040307         1.0968
  68   0.0000       0.055345         1.5060
  69   0.0000       0.119990         3.2651
  70   0.0000       0.124893         3.3985
  71   0.0000       0.131412         3.5759

MULLIKEN ATOMIC CHARGES
-----------------------
   0 S :    0.122657
   1 C :   -0.116749
   2 C :   -0.089755
   3 C :    0.061070
   4 C :   -0.192049
   5 H :    0.010721
   6 C :    0.055061
   7 H :    0.011989
   8 H :    0.034120
   9 C :    0.015871
  10 H :    0.029643
  11 H :    0.009838
  12 C :   -0.111286
  13 H :    0.020067
  14 H :    0.038504
  15 H :    0.037466
  16 S :    0.135122
  17 C :   -0.083483
  18 C :   -0.033449
  19 C :   -0.002431
  20 C :   -0.206349
  21 H :    0.008194
  22 C :    0.087529
  23 H :    0.039572
  24 H :    0.025954
  25 C :   -0.107783
  26 H :    0.035199
  27 H :    0.029919
  28 C :   -0.068686
  29 H :    0.027843
  30 H :    0.042708
  31 H :    0.034859
  32 H :    0.046355
  33 H :    0.051759
Sum of atomic charges:    0.0000000

LOEWDIN ATOMIC CHARGES
----------------------
   0 S :    0.407428
   1 C :   -0.203080
   2 C :   -0.077876
   3 C :   -0.054706
   4 C :   -0.188841
   5 H :    0.034022
   6 C :   -0.020014
   7 H :    0.030893
   8 H :    0.028158
   9 C :   -0.023535
  10 H :    0.018784
  11 H :    0.016328
  12 C :   -0.080796
  13 H :    0.022035
  14 H :    0.028946
  15 H :    0.023611
  16 S :    0.442603
  17 C :   -0.189490
  18 C :   -0.068908
  19 C :   -0.050333
  20 C :   -0.225937
  21 H :    0.028628
  22 C :   -0.033068
  23 H :    0.033510
  24 H :    0.036996
  25 C :   -0.053030
  26 H :    0.031124
  27 H :    0.020780
  28 C :   -0.076250
  29 H :    0.024270
  30 H :    0.030188
  31 H :    0.030940
  32 H :    0.027308
  33 H :    0.029314

  Mayer bond orders larger than 0.100000
B(  0-S ,  1-C ) :   1.1665 B(  0-S ,  4-C ) :   1.1566 B(  1-C ,  2-C ) :   1.5820
B(  1-C ,  4-C ) :   0.1127 B(  1-C , 32-H ) :   0.9600 B(  2-C ,  3-C ) :   1.2847
B(  2-C ,  6-C ) :   1.0089 B(  3-C ,  4-C ) :   1.5527 B(  3-C ,  5-H ) :   0.9986
B(  4-C , 20-C ) :   1.0076 B(  6-C ,  7-H ) :   0.9386 B(  6-C ,  8-H ) :   0.9535
B(  6-C ,  9-C ) :   1.0614 B(  9-C , 10-H ) :   0.9626 B(  9-C , 11-H ) :   0.9507
B(  9-C , 12-C ) :   1.0699 B( 12-C , 13-H ) :   0.9747 B( 12-C , 14-H ) :   0.9776
B( 12-C , 15-H ) :   0.9756 B( 16-S , 17-C ) :   1.1619 B( 16-S , 20-C ) :   1.1824
B( 17-C , 18-C ) :   1.5921 B( 17-C , 20-C ) :   0.1010 B( 17-C , 33-H ) :   0.9659
B( 18-C , 19-C ) :   1.2722 B( 18-C , 21-H ) :   0.9921 B( 19-C , 20-C ) :   1.5672
B( 19-C , 22-C ) :   1.0377 B( 22-C , 23-H ) :   0.9357 B( 22-C , 24-H ) :   0.9304
B( 22-C , 25-C ) :   1.0483 B( 25-C , 26-H ) :   0.9515 B( 25-C , 27-H ) :   0.9586
B( 25-C , 28-C ) :   1.0877 B( 28-C , 29-H ) :   0.9722 B( 28-C , 30-H ) :   0.9726
B( 28-C , 31-H ) :   0.9721

Dispersion correction           -0.014208687
FINAL SINGLE POINT ENERGY     -1339.877456128505

DIPOLE MOMENT
-------------
                                X             Y             Z
Electronic contribution:    -10.52644     -27.70894       2.24177
Nuclear contribution   :     10.68823      28.16138      -2.32399
                        -----------------------------------------
Total Dipole Moment    :      0.16179       0.45244      -0.08221
                        -----------------------------------------
Magnitude (a.u.)       :      0.48748
Magnitude (Debye)      :      1.23908

Rotational constants in cm-1:     0.016037     0.009472     0.006932
Rotational constants in MHz :   480.781031   283.969567   207.828946

                             ****ORCA TERMINATED NORMALLY****
TOTAL RUN TIME: 0 days 0 hours 0 minutes 21 seconds 513 msec
