                         Program Version 4.2.1 -  RELEASE  -
|  1> ! wB97X-D3 SP def2-SVP
|  2> %pal
|  3> nprocs 24
|  4> end
|  5>
|  6> * xyz 0 1
|  7> S 	 -45.8752 	 18.5623 	 31.6135
|  8> C 	 -44.9872 	 17.5292 	 30.4741
|  9> C 	 -43.8331 	 18.1175 	 29.9697
| 10> C 	 -43.7674 	 19.4731 	 30.4059
| 11> C 	 -44.776 	 19.8947 	 31.2268
| 12> H 	 -43.0088 	 20.1763 	 30.0375
| 13> C 	 -42.7717 	 17.4113 	 29.1007
| 14> H 	 -42.3983 	 16.4919 	 29.5393
| 15> H 	 -42.0129 	 18.0776 	 29.1143
| 16> C 	 -43.1709 	 17.1574 	 27.6169
| 17> H 	 -42.3303 	 16.5896 	 27.1165
| 18> H 	 -44.0604 	 16.5433 	 27.4463
| 19> C 	 -43.4083 	 18.4549 	 26.8639
| 20> H 	 -42.522 	 19.0628 	 26.5755
| 21> H 	 -43.952 	 18.4135 	 25.939
| 22> H 	 -44.1016 	 19.0964 	 27.4059
| 23> S 	 -46.7649 	 21.5553 	 32.2542
| 24> C 	 -46.3823 	 23.2798 	 32.5758
| 25> C 	 -45.0278 	 23.481 	 32.5284
| 26> C 	 -44.2353 	 22.3282 	 32.1606
| 27> C 	 -45.0455 	 21.1799 	 31.9075
| 28> H 	 -44.6843 	 24.4542 	 32.8096
| 29> C 	 -42.6942 	 22.4405 	 32.1252
| 30> H 	 -42.2539 	 21.4848 	 31.7235
| 31> H 	 -42.3138 	 22.4041 	 33.1707
| 32> C 	 -42.0488 	 23.7173 	 31.4947
| 33> H 	 -40.942 	 23.7633 	 31.7606
| 34> H 	 -42.5255 	 24.671 	 31.933
| 35> C 	 -42.1266 	 23.6188 	 29.9872
| 36> H 	 -41.4392 	 22.8787 	 29.5466
| 37> H 	 -41.7959 	 24.598 	 29.659
| 38> H 	 -43.1266 	 23.3951 	 29.6358
| 39> H 	 -45.2794 	 16.4551 	 30.3696
| 40> H 	 -47.1104 	 23.9993 	 32.871
| 41> *
| 42>
| 43>                          ****END OF INPUT****

CARTESIAN COORDINATES (ANGSTROEM)
---------------------------------
  S    -45.875200   18.562300   31.613500
  C    -44.987200   17.529200   30.474100
  C    -43.833100   18.117500   29.969700
  C    -43.767400   19.473100   30.405900
  C    -44.776000   19.894700   31.226800
  H    -43.008800   20.176300   30.037500
  C    -42.771700   17.411300   29.100700
  H    -42.398300   16.491900   29.539300
  H    -42.012900   18.077600   29.114300
  C    -43.170900   17.157400   27.616900
  H    -42.330300   16.589600   27.116500
  H    -44.060400   16.543300   27.446300
  C    -43.408300   18.454900   26.863900
  H    -42.522000   19.062800   26.575500
  H    -43.952000   18.413500   25.939000
  H    -44.101600   19.096400   27.405900
  S    -46.764900   21.555300   32.254200
  C    -46.382300   23.279800   32.575800
  C    -45.027800   23.481000   32.528400
  C    -44.235300   22.328200   32.160600
  C    -45.045500   21.179900   31.907500
  H    -44.684300   24.454200   32.809600
  C    -42.694200   22.440500   32.125200
  H    -42.253900   21.484800   31.723500
  H    -42.313800   22.404100   33.170700
  C    -42.048800   23.717300   31.494700
  H    -40.942000   23.763300   31.760600
  H    -42.525500   24.671000   31.933000
  C    -42.126600   23.618800   29.987200
  H    -41.439200   22.878700   29.546600
  H    -41.795900   24.598000   29.659000
  H    -43.126600   23.395100   29.635800
  H    -45.279400   16.455100   30.369600
  H    -47.110400   23.999300   32.871000

 Total Charge           Charge          ....    0
 Multiplicity           Mult            ....    1
 Number of Electrons    NEL             ....  134
 Basis Dimension        Dim             ....  322

ORBITAL ENERGIES
----------------

  NO   OCC          E(Eh)            E(eV)
   0   2.0000     -88.965681     -2420.8793
   1   2.0000     -88.964998     -2420.8607
   2   2.0000     -10.339187      -281.3436
   3   2.0000     -10.334139      -281.2062
   4   2.0000     -10.320947      -280.8473
   5   2.0000     -10.319467      -280.8070
   6   2.0000     -10.316238      -280.7191
   7   2.0000     -10.305648      -280.4310
   8   2.0000     -10.302006      -280.3318
   9   2.0000     -10.301516      -280.3185
  10   2.0000     -10.296706      -280.1876
  11   2.0000     -10.296292      -280.1763
  12   2.0000     -10.294407      -280.1251
  13   2.0000     -10.291655      -280.0502
  14   2.0000     -10.275804      -279.6188
  15   2.0000     -10.272578      -279.5311
  16   2.0000      -8.079994      -219.8678
  17   2.0000      -8.078515      -219.8276
  18   2.0000      -6.038543      -164.3171
  19   2.0000      -6.037235      -164.2815
  20   2.0000      -6.034664      -164.2115
  21   2.0000      -6.033259      -164.1733
  22   2.0000      -6.030634      -164.1019
  23   2.0000      -6.029039      -164.0585
  24   2.0000      -0.999718       -27.2037
  25   2.0000      -0.975384       -26.5415
  26   2.0000      -0.910829       -24.7849
  27   2.0000      -0.903792       -24.5934
  28   2.0000      -0.865671       -23.5561
  29   2.0000      -0.849052       -23.1039
  30   2.0000      -0.840319       -22.8662
  31   2.0000      -0.815385       -22.1877
  32   2.0000      -0.785229       -21.3672
  33   2.0000      -0.771436       -20.9918
  34   2.0000      -0.706400       -19.2221
  35   2.0000      -0.701478       -19.0882
  36   2.0000      -0.690647       -18.7935
  37   2.0000      -0.655800       -17.8452
  38   2.0000      -0.636287       -17.3142
  39   2.0000      -0.619652       -16.8616
  40   2.0000      -0.596582       -16.2338
  41   2.0000      -0.569394       -15.4940
  42   2.0000      -0.553087       -15.0503
  43   2.0000      -0.550388       -14.9768
  44   2.0000      -0.539394       -14.6777
  45   2.0000      -0.531933       -14.4746
  46   2.0000      -0.519013       -14.1231
  47   2.0000      -0.514518       -14.0008
  48   2.0000      -0.500850       -13.6288
  49   2.0000      -0.494267       -13.4497
  50   2.0000      -0.487268       -13.2592
  51   2.0000      -0.474219       -12.9042
  52   2.0000      -0.466188       -12.6856
  53   2.0000      -0.463930       -12.6242
  54   2.0000      -0.460871       -12.5409
  55   2.0000      -0.446783       -12.1576
  56   2.0000      -0.442867       -12.0510
  57   2.0000      -0.439297       -11.9539
  58   2.0000      -0.427478       -11.6323
  59   2.0000      -0.424855       -11.5609
  60   2.0000      -0.420627       -11.4458
  61   2.0000      -0.415697       -11.3117
  62   2.0000      -0.412013       -11.2115
  63   2.0000      -0.357587        -9.7304
  64   2.0000      -0.337303        -9.1785
  65   2.0000      -0.326381        -8.8813
  66   2.0000      -0.282842        -7.6965
  67   0.0000       0.017056         0.4641
  68   0.0000       0.074724         2.0333
  69   0.0000       0.088361         2.4044
  70   0.0000       0.118345         3.2203
  71   0.0000       0.129804         3.5321

MULLIKEN ATOMIC CHARGES
-----------------------
   0 S :    0.086307
   1 C :   -0.138968
   2 C :   -0.120598
   3 C :   -0.008167
   4 C :   -0.102100
   5 H :    0.015556
   6 C :    0.157010
   7 H :    0.035912
   8 H :   -0.017802
   9 C :   -0.067349
  10 H :    0.037332
  11 H :    0.036339
  12 C :   -0.079436
  13 H :    0.032056
  14 H :    0.020169
  15 H :    0.032952
  16 S :    0.074037
  17 C :   -0.084250
  18 C :   -0.023494
  19 C :   -0.040610
  20 C :   -0.110604
  21 H :    0.012979
  22 C :    0.027645
  23 H :    0.019771
  24 H :    0.045648
  25 C :   -0.120090
  26 H :    0.041406
  27 H :    0.047871
  28 C :   -0.032088
  29 H :    0.032203
  30 H :    0.027839
  31 H :    0.042513
  32 H :    0.065196
  33 H :    0.054816
Sum of atomic charges:    0.0000000

LOEWDIN ATOMIC CHARGES
----------------------
   0 S :    0.381210
   1 C :   -0.187324
   2 C :   -0.062196
   3 C :   -0.072915
   4 C :   -0.176331
   5 H :    0.032185
   6 C :   -0.014353
   7 H :    0.034979
   8 H :    0.014748
   9 C :   -0.039209
  10 H :    0.030272
  11 H :    0.026562
  12 C :   -0.080608
  13 H :    0.026625
  14 H :    0.024290
  15 H :    0.027680
  16 S :    0.362906
  17 C :   -0.161075
  18 C :   -0.068671
  19 C :   -0.054469
  20 C :   -0.184307
  21 H :    0.027980
  22 C :   -0.044222
  23 H :    0.032010
  24 H :    0.038495
  25 C :   -0.048684
  26 H :    0.033460
  27 H :    0.030545
  28 C :   -0.066979
  29 H :    0.026674
  30 H :    0.025195
  31 H :    0.025243
  32 H :    0.033436
  33 H :    0.026850

  Mayer bond orders larger than 0.100000
B(  0-S ,  1-C ) :   1.1382 B(  0-S ,  4-C ) :   1.1365 B(  1-C ,  2-C ) :   1.6191
B(  1-C , 32-H ) :   0.9639 B(  2-C ,  3-C ) :   1.2413 B(  2-C ,  6-C ) :   1.0047
B(  3-C ,  4-C ) :   1.6082 B(  3-C ,  5-H ) :   0.9781 B(  4-C , 20-C ) :   1.0407
B(  6-C ,  7-H ) :   0.9418 B(  6-C ,  8-H ) :   0.9297 B(  6-C ,  9-C ) :   1.0655
B(  9-C , 10-H ) :   0.9570 B(  9-C , 11-H ) :   0.9617 B(  9-C , 12-C ) :   1.0697
B( 12-C , 13-H ) :   0.9758 B( 12-C , 14-H ) :   0.9716 B( 12-C , 15-H ) :   0.9726
B( 16-S , 17-C ) :   1.1313 B( 16-S , 20-C ) :   1.1249 B( 17-C , 18-C ) :   1.6375
B( 17-C , 33-H ) :   0.9700 B( 18-C , 19-C ) :   1.2174 B( 18-C , 21-H ) :   0.9901
B( 19-C , 20-C ) :   1.5926 B( 19-C , 22-C ) :   1.0299 B( 22-C , 23-H ) :   0.9415
B( 22-C , 24-H ) :   0.9344 B( 22-C , 25-C ) :   1.0641 B( 25-C , 26-H ) :   0.9530
B( 25-C , 27-H ) :   0.9531 B( 25-C , 28-C ) :   1.0718 B( 28-C , 29-H ) :   0.9724
B( 28-C , 30-H ) :   0.9726 B( 28-C , 31-H ) :   0.9778

Dispersion correction           -0.014327929
FINAL SINGLE POINT ENERGY     -1339.874866707542

DIPOLE MOMENT
-------------
                                X             Y             Z
Electronic contribution:    -22.13823      -3.92218      17.94553
Nuclear contribution   :     22.79064       4.14647     -18.16862
                        -----------------------------------------
Total Dipole Moment    :      0.65241       0.22428      -0.22309
                        -----------------------------------------
Magnitude (a.u.)       :      0.72506
Magnitude (Debye)      :      1.84295

Rotational constants in cm-1:     0.018008     0.009057     0.006696
Rotational constants in MHz :   539.859773   271.535445   200.738234

                             ****ORCA TERMINATED NORMALLY****
TOTAL RUN TIME: 0 days 0 hours 0 minutes 21 seconds 539 msec
