                         Program Version 4.2.1 -  RELEASE  -
|  1> ! wB97X-D3 SP def2-SVP
|  2> %pal
|  3> nprocs 24
|  4> end
|  5>
|  6> * xyz 0 1
|  7> S 	 -133.072 	 8.45098 	 -1.26126
|  8> C 	 -131.894 	 8.62799 	 0.0416925
|  9> C 	 -130.638 	 8.2792 	 -0.386736
| 10> C 	 -130.596 	 7.73896 	 -1.68221
| 11> C 	 -131.775 	 7.79074 	 -2.30128
| 12> H 	 -129.671 	 7.4283 	 -2.22912
| 13> C 	 -129.33 	 8.62386 	 0.308462
| 14> H 	 -129.423 	 8.36811 	 1.33927
| 15> H 	 -129.301 	 9.68275 	 0.317219
| 16> C 	 -127.991 	 8.07707 	 -0.349028
| 17> H 	 -128.135 	 7.04111 	 -0.443784
| 18> H 	 -127.868 	 8.40415 	 -1.3546
| 19> C 	 -126.622 	 8.43655 	 0.281997
| 20> H 	 -126.654 	 8.18242 	 1.34699
| 21> H 	 -125.828 	 7.82841 	 -0.17113
| 22> H 	 -126.401 	 9.53366 	 0.0774376
| 23> S 	 -133.064 	 8.25232 	 -4.64049
| 24> C 	 -132.983 	 7.11819 	 -6.03712
| 25> C 	 -131.934 	 6.20768 	 -5.7448
| 26> C 	 -131.403 	 6.20795 	 -4.43038
| 27> C 	 -131.973 	 7.25514 	 -3.6401
| 28> H 	 -131.69 	 5.44112 	 -6.57032
| 29> C 	 -130.311 	 5.16928 	 -3.9585
| 30> H 	 -129.429 	 5.54409 	 -3.41574
| 31> H 	 -129.858 	 4.61646 	 -4.80017
| 32> C 	 -131.02 	 3.98675 	 -3.31334
| 33> H 	 -131.856 	 3.8087 	 -4.00343
| 34> H 	 -131.513 	 4.20453 	 -2.37341
| 35> C 	 -130.108 	 2.82171 	 -2.88187
| 36> H 	 -129.513 	 3.02252 	 -1.9808
| 37> H 	 -129.387 	 2.36753 	 -3.55514
| 38> H 	 -130.688 	 1.96899 	 -2.52078
| 39> H 	 -131.972 	 9.34387 	 0.908784
| 40> H 	 -133.393 	 7.20357 	 -7.06442
| 41> *
| 42>
| 43>                          ****END OF INPUT****

CARTESIAN COORDINATES (ANGSTROEM)
---------------------------------
  S    -133.072000    8.450980   -1.261260
  C    -131.894000    8.627990    0.041693
  C    -130.638000    8.279200   -0.386736
  C    -130.596000    7.738960   -1.682210
  C    -131.775000    7.790740   -2.301280
  H    -129.671000    7.428300   -2.229120
  C    -129.330000    8.623860    0.308462
  H    -129.423000    8.368110    1.339270
  H    -129.301000    9.682750    0.317219
  C    -127.991000    8.077070   -0.349028
  H    -128.135000    7.041110   -0.443784
  H    -127.868000    8.404150   -1.354600
  C    -126.622000    8.436550    0.281997
  H    -126.654000    8.182420    1.346990
  H    -125.828000    7.828410   -0.171130
  H    -126.401000    9.533660    0.077438
  S    -133.064000    8.252320   -4.640490
  C    -132.983000    7.118190   -6.037120
  C    -131.934000    6.207680   -5.744800
  C    -131.403000    6.207950   -4.430380
  C    -131.973000    7.255140   -3.640100
  H    -131.690000    5.441120   -6.570320
  C    -130.311000    5.169280   -3.958500
  H    -129.429000    5.544090   -3.415740
  H    -129.858000    4.616460   -4.800170
  C    -131.020000    3.986750   -3.313340
  H    -131.856000    3.808700   -4.003430
  H    -131.513000    4.204530   -2.373410
  C    -130.108000    2.821710   -2.881870
  H    -129.513000    3.022520   -1.980800
  H    -129.387000    2.367530   -3.555140
  H    -130.688000    1.968990   -2.520780
  H    -131.972000    9.343870    0.908784
  H    -133.393000    7.203570   -7.064420

 Total Charge           Charge          ....    0
 Multiplicity           Mult            ....    1
 Number of Electrons    NEL             ....  134
 Basis Dimension        Dim             ....  322

ORBITAL ENERGIES
----------------

  NO   OCC          E(Eh)            E(eV)
   0   2.0000     -88.969866     -2420.9931
   1   2.0000     -88.967861     -2420.9386
   2   2.0000     -10.337681      -281.3026
   3   2.0000     -10.328978      -281.0658
   4   2.0000     -10.327697      -281.0309
   5   2.0000     -10.317695      -280.7588
   6   2.0000     -10.315431      -280.6971
   7   2.0000     -10.306670      -280.4587
   8   2.0000     -10.301266      -280.3117
   9   2.0000     -10.299538      -280.2647
  10   2.0000     -10.291699      -280.0514
  11   2.0000     -10.290802      -280.0270
  12   2.0000     -10.288528      -279.9651
  13   2.0000     -10.287916      -279.9484
  14   2.0000     -10.285935      -279.8945
  15   2.0000     -10.278804      -279.7005
  16   2.0000      -8.083473      -219.9625
  17   2.0000      -8.080997      -219.8951
  18   2.0000      -6.042277      -164.4187
  19   2.0000      -6.039614      -164.3462
  20   2.0000      -6.038259      -164.3094
  21   2.0000      -6.035595      -164.2369
  22   2.0000      -6.033847      -164.1893
  23   2.0000      -6.031847      -164.1349
  24   2.0000      -1.005877       -27.3713
  25   2.0000      -0.976930       -26.5836
  26   2.0000      -0.908501       -24.7216
  27   2.0000      -0.905331       -24.6353
  28   2.0000      -0.870420       -23.6853
  29   2.0000      -0.851919       -23.1819
  30   2.0000      -0.841477       -22.8977
  31   2.0000      -0.814485       -22.1633
  32   2.0000      -0.782748       -21.2996
  33   2.0000      -0.772216       -21.0131
  34   2.0000      -0.716482       -19.4965
  35   2.0000      -0.698408       -19.0047
  36   2.0000      -0.691967       -18.8294
  37   2.0000      -0.655407       -17.8345
  38   2.0000      -0.635923       -17.3043
  39   2.0000      -0.620632       -16.8883
  40   2.0000      -0.593126       -16.1398
  41   2.0000      -0.571635       -15.5550
  42   2.0000      -0.561882       -15.2896
  43   2.0000      -0.556288       -15.1374
  44   2.0000      -0.522543       -14.2191
  45   2.0000      -0.521588       -14.1931
  46   2.0000      -0.513981       -13.9861
  47   2.0000      -0.509173       -13.8553
  48   2.0000      -0.498805       -13.5732
  49   2.0000      -0.497014       -13.5244
  50   2.0000      -0.492573       -13.4036
  51   2.0000      -0.486291       -13.2326
  52   2.0000      -0.471875       -12.8404
  53   2.0000      -0.466768       -12.7014
  54   2.0000      -0.455513       -12.3951
  55   2.0000      -0.451912       -12.2972
  56   2.0000      -0.442318       -12.0361
  57   2.0000      -0.435254       -11.8439
  58   2.0000      -0.427641       -11.6367
  59   2.0000      -0.426480       -11.6051
  60   2.0000      -0.421159       -11.4603
  61   2.0000      -0.420658       -11.4467
  62   2.0000      -0.407162       -11.0794
  63   2.0000      -0.353105        -9.6085
  64   2.0000      -0.334236        -9.0950
  65   2.0000      -0.331750        -9.0274
  66   2.0000      -0.287139        -7.8135
  67   0.0000       0.014807         0.4029
  68   0.0000       0.070675         1.9232
  69   0.0000       0.096301         2.6205
  70   0.0000       0.122755         3.3403
  71   0.0000       0.131972         3.5911

MULLIKEN ATOMIC CHARGES
-----------------------
   0 S :    0.114203
   1 C :   -0.137396
   2 C :   -0.096121
   3 C :   -0.042979
   4 C :   -0.074390
   5 H :    0.030322
   6 C :    0.093930
   7 H :    0.021506
   8 H :    0.026548
   9 C :   -0.107774
  10 H :    0.022506
  11 H :    0.029873
  12 C :   -0.044651
  13 H :    0.037387
  14 H :    0.039567
  15 H :    0.050395
  16 S :    0.085880
  17 C :   -0.106207
  18 C :   -0.084889
  19 C :   -0.017974
  20 C :   -0.168622
  21 H :    0.050960
  22 C :    0.056468
  23 H :    0.032293
  24 H :    0.017986
  25 C :   -0.064518
  26 H :    0.032627
  27 H :    0.032186
  28 C :   -0.054644
  29 H :    0.026946
  30 H :    0.023859
  31 H :    0.029148
  32 H :    0.067746
  33 H :    0.077827
Sum of atomic charges:    0.0000000

LOEWDIN ATOMIC CHARGES
----------------------
   0 S :    0.384499
   1 C :   -0.212627
   2 C :   -0.058232
   3 C :   -0.070391
   4 C :   -0.182287
   5 H :    0.043158
   6 C :   -0.025272
   7 H :    0.028233
   8 H :    0.029287
   9 C :   -0.043192
  10 H :    0.015284
  11 H :    0.020461
  12 C :   -0.063801
  13 H :    0.024558
  14 H :    0.030812
  15 H :    0.034849
  16 S :    0.381138
  17 C :   -0.194365
  18 C :   -0.080568
  19 C :   -0.059133
  20 C :   -0.172375
  21 H :    0.043904
  22 C :   -0.031606
  23 H :    0.024860
  24 H :    0.034732
  25 C :   -0.043349
  26 H :    0.029043
  27 H :    0.026231
  28 C :   -0.077822
  29 H :    0.028969
  30 H :    0.018786
  31 H :    0.031056
  32 H :    0.042186
  33 H :    0.042972

  Mayer bond orders larger than 0.100000
B(  0-S ,  1-C ) :   1.1105 B(  0-S ,  4-C ) :   1.1266 B(  1-C ,  2-C ) :   1.6521
B(  1-C , 32-H ) :   0.9556 B(  2-C ,  3-C ) :   1.2450 B(  2-C ,  6-C ) :   0.9989
B(  3-C ,  4-C ) :   1.5889 B(  3-C ,  5-H ) :   0.9818 B(  4-C , 20-C ) :   1.0542
B(  6-C ,  7-H ) :   0.9329 B(  6-C ,  8-H ) :   0.9352 B(  6-C ,  9-C ) :   1.0736
B(  9-C , 10-H ) :   0.9560 B(  9-C , 11-H ) :   0.9466 B(  9-C , 12-C ) :   1.0800
B( 12-C , 13-H ) :   0.9763 B( 12-C , 14-H ) :   0.9714 B( 12-C , 15-H ) :   0.9764
B( 16-S , 17-C ) :   1.1383 B( 16-S , 20-C ) :   1.1559 B( 17-C , 18-C ) :   1.5967
B( 17-C , 20-C ) :   0.1204 B( 17-C , 33-H ) :   0.9625 B( 18-C , 19-C ) :   1.2818
B( 18-C , 21-H ) :   0.9655 B( 19-C , 20-C ) :   1.5401 B( 19-C , 22-C ) :   1.0279
B( 22-C , 23-H ) :   0.9494 B( 22-C , 24-H ) :   0.9370 B( 22-C , 25-C ) :   1.0479
B( 25-C , 26-H ) :   0.9568 B( 25-C , 27-H ) :   0.9539 B( 25-C , 28-C ) :   1.0701
B( 28-C , 29-H ) :   0.9720 B( 28-C , 30-H ) :   0.9767 B( 28-C , 31-H ) :   0.9718

Dispersion correction           -0.013776931
FINAL SINGLE POINT ENERGY     -1339.846477847802

DIPOLE MOMENT
-------------
                                X             Y             Z
Electronic contribution:    -25.97140      14.81223      -8.61872
Nuclear contribution   :     26.78091     -15.01732       8.64170
                        -----------------------------------------
Total Dipole Moment    :      0.80951      -0.20509       0.02298
                        -----------------------------------------
Magnitude (a.u.)       :      0.83540
Magnitude (Debye)      :      2.12341

Rotational constants in cm-1:     0.015471     0.009338     0.006976
Rotational constants in MHz :   463.812075   279.943949   209.124897

                             ****ORCA TERMINATED NORMALLY****
TOTAL RUN TIME: 0 days 0 hours 0 minutes 21 seconds 329 msec
