                         Program Version 4.2.1 -  RELEASE  -
|  1> ! wB97X-D3 SP def2-SVP
|  2> %pal
|  3> nprocs 24
|  4> end
|  5>
|  6> * xyz 0 1
|  7> S 	 -61.0786 	 5.45611 	 -21.7416
|  8> C 	 -62.6842 	 5.88286 	 -22.319
|  9> C 	 -63.3251 	 4.78957 	 -22.884
| 10> C 	 -62.572 	 3.56518 	 -22.7412
| 11> C 	 -61.3757 	 3.73224 	 -22.0228
| 12> H 	 -62.8108 	 2.54803 	 -23.01
| 13> C 	 -64.6729 	 4.92562 	 -23.5507
| 14> H 	 -64.796 	 4.10786 	 -24.3398
| 15> H 	 -64.6724 	 5.87852 	 -24.0467
| 16> C 	 -65.7744 	 4.73672 	 -22.5016
| 17> H 	 -65.9243 	 3.72481 	 -22.1809
| 18> H 	 -65.5898 	 5.37791 	 -21.629
| 19> C 	 -67.1303 	 5.19208 	 -23.1157
| 20> H 	 -67.1094 	 6.18482 	 -23.6169
| 21> H 	 -67.5119 	 4.58458 	 -23.9843
| 22> H 	 -67.9462 	 5.45447 	 -22.4419
| 23> S 	 -60.6351 	 1.11379 	 -22.3121
| 24> C 	 -59.3901 	 0.450584 	 -21.2432
| 25> C 	 -59.0329 	 1.27238 	 -20.2053
| 26> C 	 -59.789 	 2.49469 	 -20.274
| 27> C 	 -60.458 	 2.6482 	 -21.5323
| 28> H 	 -58.305 	 0.895551 	 -19.448
| 29> C 	 -59.6407 	 3.55489 	 -19.2231
| 30> H 	 -59.512 	 3.04299 	 -18.3162
| 31> H 	 -60.583 	 4.19291 	 -19.2563
| 32> C 	 -58.3948 	 4.48459 	 -19.1622
| 33> H 	 -58.3667 	 5.07498 	 -20.0621
| 34> H 	 -57.5431 	 3.85956 	 -19.1238
| 35> C 	 -58.3343 	 5.36787 	 -17.9033
| 36> H 	 -58.6743 	 4.87724 	 -17.0113
| 37> H 	 -58.8553 	 6.31753 	 -17.957
| 38> H 	 -57.2272 	 5.68882 	 -17.8702
| 39> H 	 -63.1493 	 6.86128 	 -22.266
| 40> H 	 -59.0609 	 -0.534082 	 -21.2187
| 41> *
| 42>
| 43>                          ****END OF INPUT****

CARTESIAN COORDINATES (ANGSTROEM)
---------------------------------
  S    -61.078600    5.456110  -21.741600
  C    -62.684200    5.882860  -22.319000
  C    -63.325100    4.789570  -22.884000
  C    -62.572000    3.565180  -22.741200
  C    -61.375700    3.732240  -22.022800
  H    -62.810800    2.548030  -23.010000
  C    -64.672900    4.925620  -23.550700
  H    -64.796000    4.107860  -24.339800
  H    -64.672400    5.878520  -24.046700
  C    -65.774400    4.736720  -22.501600
  H    -65.924300    3.724810  -22.180900
  H    -65.589800    5.377910  -21.629000
  C    -67.130300    5.192080  -23.115700
  H    -67.109400    6.184820  -23.616900
  H    -67.511900    4.584580  -23.984300
  H    -67.946200    5.454470  -22.441900
  S    -60.635100    1.113790  -22.312100
  C    -59.390100    0.450584  -21.243200
  C    -59.032900    1.272380  -20.205300
  C    -59.789000    2.494690  -20.274000
  C    -60.458000    2.648200  -21.532300
  H    -58.305000    0.895551  -19.448000
  C    -59.640700    3.554890  -19.223100
  H    -59.512000    3.042990  -18.316200
  H    -60.583000    4.192910  -19.256300
  C    -58.394800    4.484590  -19.162200
  H    -58.366700    5.074980  -20.062100
  H    -57.543100    3.859560  -19.123800
  C    -58.334300    5.367870  -17.903300
  H    -58.674300    4.877240  -17.011300
  H    -58.855300    6.317530  -17.957000
  H    -57.227200    5.688820  -17.870200
  H    -63.149300    6.861280  -22.266000
  H    -59.060900   -0.534082  -21.218700

 Total Charge           Charge          ....    0
 Multiplicity           Mult            ....    1
 Number of Electrons    NEL             ....  134
 Basis Dimension        Dim             ....  322

ORBITAL ENERGIES
----------------

  NO   OCC          E(Eh)            E(eV)
   0   2.0000     -88.969496     -2420.9831
   1   2.0000     -88.969337     -2420.9788
   2   2.0000     -10.337772      -281.3051
   3   2.0000     -10.333843      -281.1982
   4   2.0000     -10.313952      -280.6569
   5   2.0000     -10.313946      -280.6567
   6   2.0000     -10.310330      -280.5583
   7   2.0000     -10.304192      -280.3913
   8   2.0000     -10.299751      -280.2705
   9   2.0000     -10.297785      -280.2170
  10   2.0000     -10.297023      -280.1963
  11   2.0000     -10.290852      -280.0283
  12   2.0000     -10.285631      -279.8862
  13   2.0000     -10.281317      -279.7689
  14   2.0000     -10.280776      -279.7541
  15   2.0000     -10.280582      -279.7488
  16   2.0000      -8.084061      -219.9785
  17   2.0000      -8.082761      -219.9431
  18   2.0000      -6.042597      -164.4274
  19   2.0000      -6.041377      -164.3942
  20   2.0000      -6.038830      -164.3249
  21   2.0000      -6.037430      -164.2868
  22   2.0000      -6.034596      -164.2097
  23   2.0000      -6.033525      -164.1806
  24   2.0000      -1.002507       -27.2796
  25   2.0000      -0.981353       -26.7040
  26   2.0000      -0.911400       -24.8005
  27   2.0000      -0.906715       -24.6730
  28   2.0000      -0.868580       -23.6353
  29   2.0000      -0.850723       -23.1493
  30   2.0000      -0.841534       -22.8993
  31   2.0000      -0.815871       -22.2010
  32   2.0000      -0.778158       -21.1748
  33   2.0000      -0.765219       -20.8227
  34   2.0000      -0.707710       -19.2578
  35   2.0000      -0.702051       -19.1038
  36   2.0000      -0.691256       -18.8100
  37   2.0000      -0.666843       -18.1457
  38   2.0000      -0.635250       -17.2860
  39   2.0000      -0.613461       -16.6931
  40   2.0000      -0.592179       -16.1140
  41   2.0000      -0.574422       -15.6308
  42   2.0000      -0.570210       -15.5162
  43   2.0000      -0.557047       -15.1580
  44   2.0000      -0.522755       -14.2249
  45   2.0000      -0.520195       -14.1552
  46   2.0000      -0.514623       -14.0036
  47   2.0000      -0.511771       -13.9260
  48   2.0000      -0.505068       -13.7436
  49   2.0000      -0.496276       -13.5044
  50   2.0000      -0.490585       -13.3495
  51   2.0000      -0.476290       -12.9605
  52   2.0000      -0.472128       -12.8473
  53   2.0000      -0.465561       -12.6686
  54   2.0000      -0.459628       -12.5071
  55   2.0000      -0.450092       -12.2476
  56   2.0000      -0.440176       -11.9778
  57   2.0000      -0.432011       -11.7556
  58   2.0000      -0.429413       -11.6849
  59   2.0000      -0.425845       -11.5878
  60   2.0000      -0.419276       -11.4091
  61   2.0000      -0.417764       -11.3679
  62   2.0000      -0.416935       -11.3454
  63   2.0000      -0.355494        -9.6735
  64   2.0000      -0.330581        -8.9956
  65   2.0000      -0.326983        -8.8977
  66   2.0000      -0.282804        -7.6955
  67   0.0000       0.017859         0.4860
  68   0.0000       0.078148         2.1265
  69   0.0000       0.100294         2.7291
  70   0.0000       0.109962         2.9922
  71   0.0000       0.130976         3.5640

MULLIKEN ATOMIC CHARGES
-----------------------
   0 S :    0.102919
   1 C :   -0.120730
   2 C :   -0.088182
   3 C :    0.023896
   4 C :   -0.156276
   5 H :    0.013927
   6 C :    0.046215
   7 H :    0.040847
   8 H :    0.029773
   9 C :   -0.034175
  10 H :    0.039072
  11 H :    0.034535
  12 C :   -0.086435
  13 H :    0.011718
  14 H :    0.035208
  15 H :    0.032966
  16 S :    0.083093
  17 C :   -0.047981
  18 C :   -0.045333
  19 C :   -0.058167
  20 C :   -0.103281
  21 H :    0.043196
  22 C :    0.036042
  23 H :    0.000247
  24 H :    0.044769
  25 C :   -0.027975
  26 H :    0.022808
  27 H :    0.011641
  28 C :   -0.068043
  29 H :    0.030720
  30 H :    0.035235
  31 H :    0.042549
  32 H :    0.048014
  33 H :    0.027191
Sum of atomic charges:   -0.0000000

LOEWDIN ATOMIC CHARGES
----------------------
   0 S :    0.403536
   1 C :   -0.203770
   2 C :   -0.057506
   3 C :   -0.074741
   4 C :   -0.179172
   5 H :    0.022047
   6 C :   -0.029875
   7 H :    0.040399
   8 H :    0.029201
   9 C :   -0.031700
  10 H :    0.027214
  11 H :    0.028001
  12 C :   -0.088476
  13 H :    0.023899
  14 H :    0.029032
  15 H :    0.024880
  16 S :    0.408946
  17 C :   -0.166046
  18 C :   -0.070689
  19 C :   -0.049226
  20 C :   -0.202930
  21 H :    0.044969
  22 C :   -0.046427
  23 H :    0.022204
  24 H :    0.031178
  25 C :   -0.031079
  26 H :    0.017668
  27 H :    0.016217
  28 C :   -0.067180
  29 H :    0.020621
  30 H :    0.024291
  31 H :    0.039663
  32 H :    0.029649
  33 H :    0.015201

  Mayer bond orders larger than 0.100000
B(  0-S ,  1-C ) :   1.1272 B(  0-S ,  4-C ) :   1.1484 B(  1-C ,  2-C ) :   1.6157
B(  1-C , 32-H ) :   0.9666 B(  2-C ,  3-C ) :   1.2421 B(  2-C ,  6-C ) :   1.0236
B(  3-C ,  4-C ) :   1.5764 B(  3-C ,  5-H ) :   0.9794 B(  4-C , 20-C ) :   1.0545
B(  6-C ,  7-H ) :   0.9416 B(  6-C ,  8-H ) :   0.9477 B(  6-C ,  9-C ) :   1.0576
B(  9-C , 10-H ) :   0.9565 B(  9-C , 11-H ) :   0.9601 B(  9-C , 12-C ) :   1.0683
B( 12-C , 13-H ) :   0.9726 B( 12-C , 14-H ) :   0.9740 B( 12-C , 15-H ) :   0.9760
B( 16-S , 17-C ) :   1.1477 B( 16-S , 20-C ) :   1.1387 B( 17-C , 18-C ) :   1.6382
B( 17-C , 33-H ) :   0.9689 B( 18-C , 19-C ) :   1.2200 B( 18-C , 21-H ) :   0.9820
B( 19-C , 20-C ) :   1.5382 B( 19-C , 22-C ) :   1.0788 B( 22-C , 23-H ) :   0.9183
B( 22-C , 24-H ) :   0.9287 B( 22-C , 25-C ) :   1.0670 B( 25-C , 26-H ) :   0.9519
B( 25-C , 27-H ) :   0.9570 B( 25-C , 28-C ) :   1.0747 B( 28-C , 29-H ) :   0.9751
B( 28-C , 30-H ) :   0.9768 B( 28-C , 31-H ) :   0.9758

Dispersion correction           -0.013688685
FINAL SINGLE POINT ENERGY     -1339.859404752156

DIPOLE MOMENT
-------------
                                X             Y             Z
Electronic contribution:     10.59189     -10.82424      -8.15519
Nuclear contribution   :    -10.79716      10.80811       8.45299
                        -----------------------------------------
Total Dipole Moment    :     -0.20527      -0.01613       0.29779
                        -----------------------------------------
Magnitude (a.u.)       :      0.36205
Magnitude (Debye)      :      0.92025

Rotational constants in cm-1:     0.020157     0.007698     0.006061
Rotational constants in MHz :   604.305548   230.768492   181.714455

                             ****ORCA TERMINATED NORMALLY****
TOTAL RUN TIME: 0 days 0 hours 0 minutes 20 seconds 887 msec
