                         Program Version 4.2.1 -  RELEASE  -
|  1> ! wB97X-D3 SP def2-SVP
|  2> %pal
|  3> nprocs 24
|  4> end
|  5>
|  6> * xyz 0 1
|  7> S 	 -43.1369 	 22.3455 	 22.475
|  8> C 	 -43.8418 	 21.0456 	 23.2554
|  9> C 	 -43.2664 	 20.7493 	 24.4991
| 10> C 	 -42.4242 	 21.8252 	 24.8979
| 11> C 	 -42.2148 	 22.7623 	 23.8591
| 12> H 	 -41.8211 	 21.9083 	 25.8433
| 13> C 	 -43.644 	 19.5942 	 25.3506
| 14> H 	 -43.6716 	 18.7504 	 24.6329
| 15> H 	 -44.6775 	 19.9524 	 25.6745
| 16> C 	 -42.7482 	 19.3844 	 26.6008
| 17> H 	 -41.7169 	 19.2218 	 26.3199
| 18> H 	 -42.7786 	 20.2375 	 27.2627
| 19> C 	 -43.2637 	 18.1823 	 27.4532
| 20> H 	 -43.1543 	 17.2625 	 26.8928
| 21> H 	 -42.7135 	 18.106 	 28.3621
| 22> H 	 -44.3289 	 18.4041 	 27.6435
| 23> S 	 -41.9067 	 25.3428 	 24.7884
| 24> C 	 -40.4944 	 26.3046 	 24.5449
| 25> C 	 -39.7524 	 25.6609 	 23.5327
| 26> C 	 -40.1724 	 24.3215 	 23.1898
| 27> C 	 -41.341 	 23.9189 	 23.9309
| 28> H 	 -38.9021 	 26.1833 	 23.0892
| 29> C 	 -39.2952 	 23.5114 	 22.3394
| 30> H 	 -38.9162 	 24.2587 	 21.6964
| 31> H 	 -40.0085 	 22.9991 	 21.667
| 32> C 	 -38.1024 	 22.7416 	 22.9671
| 33> H 	 -37.3945 	 23.4333 	 23.5217
| 34> H 	 -37.5583 	 22.228 	 22.2125
| 35> C 	 -38.6174 	 21.7538 	 23.9578
| 36> H 	 -38.9575 	 22.2758 	 24.8614
| 37> H 	 -37.8389 	 21.1058 	 24.3033
| 38> H 	 -39.356 	 21.1425 	 23.4812
| 39> H 	 -44.713 	 20.4677 	 22.9016
| 40> H 	 -40.2949 	 27.3112 	 24.8273
| 41> *
| 42>
| 43>                          ****END OF INPUT****

CARTESIAN COORDINATES (ANGSTROEM)
---------------------------------
  S    -43.136900   22.345500   22.475000
  C    -43.841800   21.045600   23.255400
  C    -43.266400   20.749300   24.499100
  C    -42.424200   21.825200   24.897900
  C    -42.214800   22.762300   23.859100
  H    -41.821100   21.908300   25.843300
  C    -43.644000   19.594200   25.350600
  H    -43.671600   18.750400   24.632900
  H    -44.677500   19.952400   25.674500
  C    -42.748200   19.384400   26.600800
  H    -41.716900   19.221800   26.319900
  H    -42.778600   20.237500   27.262700
  C    -43.263700   18.182300   27.453200
  H    -43.154300   17.262500   26.892800
  H    -42.713500   18.106000   28.362100
  H    -44.328900   18.404100   27.643500
  S    -41.906700   25.342800   24.788400
  C    -40.494400   26.304600   24.544900
  C    -39.752400   25.660900   23.532700
  C    -40.172400   24.321500   23.189800
  C    -41.341000   23.918900   23.930900
  H    -38.902100   26.183300   23.089200
  C    -39.295200   23.511400   22.339400
  H    -38.916200   24.258700   21.696400
  H    -40.008500   22.999100   21.667000
  C    -38.102400   22.741600   22.967100
  H    -37.394500   23.433300   23.521700
  H    -37.558300   22.228000   22.212500
  C    -38.617400   21.753800   23.957800
  H    -38.957500   22.275800   24.861400
  H    -37.838900   21.105800   24.303300
  H    -39.356000   21.142500   23.481200
  H    -44.713000   20.467700   22.901600
  H    -40.294900   27.311200   24.827300

 Total Charge           Charge          ....    0
 Multiplicity           Mult            ....    1
 Number of Electrons    NEL             ....  134
 Basis Dimension        Dim             ....  322

ORBITAL ENERGIES
----------------

  NO   OCC          E(Eh)            E(eV)
   0   2.0000     -88.970478     -2421.0098
   1   2.0000     -88.961546     -2420.7667
   2   2.0000     -10.327654      -281.0297
   3   2.0000     -10.324493      -280.9437
   4   2.0000     -10.313462      -280.6436
   5   2.0000     -10.307991      -280.4947
   6   2.0000     -10.302293      -280.3396
   7   2.0000     -10.299953      -280.2760
   8   2.0000     -10.298525      -280.2371
   9   2.0000     -10.297688      -280.2143
  10   2.0000     -10.292375      -280.0698
  11   2.0000     -10.289717      -279.9974
  12   2.0000     -10.284805      -279.8638
  13   2.0000     -10.280958      -279.7591
  14   2.0000     -10.278130      -279.6821
  15   2.0000     -10.261829      -279.2386
  16   2.0000      -8.086442      -220.0433
  17   2.0000      -8.076134      -219.7628
  18   2.0000      -6.044597      -164.4818
  19   2.0000      -6.040625      -164.3738
  20   2.0000      -6.037668      -164.2933
  21   2.0000      -6.034582      -164.2093
  22   2.0000      -6.030440      -164.0966
  23   2.0000      -6.027155      -164.0072
  24   2.0000      -1.009496       -27.4698
  25   2.0000      -0.983727       -26.7686
  26   2.0000      -0.914113       -24.8743
  27   2.0000      -0.912155       -24.8210
  28   2.0000      -0.867570       -23.6078
  29   2.0000      -0.852796       -23.2057
  30   2.0000      -0.849448       -23.1147
  31   2.0000      -0.809613       -22.0307
  32   2.0000      -0.779377       -21.2079
  33   2.0000      -0.765874       -20.8405
  34   2.0000      -0.713729       -19.4215
  35   2.0000      -0.696835       -18.9618
  36   2.0000      -0.684503       -18.6263
  37   2.0000      -0.655327       -17.8323
  38   2.0000      -0.634315       -17.2606
  39   2.0000      -0.612203       -16.6589
  40   2.0000      -0.585905       -15.9433
  41   2.0000      -0.576630       -15.6909
  42   2.0000      -0.568604       -15.4725
  43   2.0000      -0.553050       -15.0493
  44   2.0000      -0.544872       -14.8267
  45   2.0000      -0.528491       -14.3810
  46   2.0000      -0.520141       -14.1538
  47   2.0000      -0.515093       -14.0164
  48   2.0000      -0.505571       -13.7573
  49   2.0000      -0.492112       -13.3911
  50   2.0000      -0.489034       -13.3073
  51   2.0000      -0.476622       -12.9696
  52   2.0000      -0.469423       -12.7736
  53   2.0000      -0.459778       -12.5112
  54   2.0000      -0.457458       -12.4481
  55   2.0000      -0.449085       -12.2202
  56   2.0000      -0.437910       -11.9161
  57   2.0000      -0.436622       -11.8811
  58   2.0000      -0.431743       -11.7483
  59   2.0000      -0.429396       -11.6845
  60   2.0000      -0.422488       -11.4965
  61   2.0000      -0.414249       -11.2723
  62   2.0000      -0.406049       -11.0492
  63   2.0000      -0.335506        -9.1296
  64   2.0000      -0.326104        -8.8737
  65   2.0000      -0.319046        -8.6817
  66   2.0000      -0.293008        -7.9732
  67   0.0000       0.036206         0.9852
  68   0.0000       0.056225         1.5300
  69   0.0000       0.110941         3.0188
  70   0.0000       0.116954         3.1825
  71   0.0000       0.137848         3.7510

MULLIKEN ATOMIC CHARGES
-----------------------
   0 S :    0.164546
   1 C :   -0.141981
   2 C :   -0.106260
   3 C :    0.002606
   4 C :   -0.172501
   5 H :    0.039570
   6 C :    0.034737
   7 H :    0.045371
   8 H :    0.057632
   9 C :   -0.102328
  10 H :    0.035059
  11 H :    0.036111
  12 C :   -0.019915
  13 H :    0.030987
  14 H :    0.031803
  15 H :    0.031119
  16 S :    0.113746
  17 C :   -0.079450
  18 C :   -0.070548
  19 C :   -0.076019
  20 C :   -0.171950
  21 H :    0.021811
  22 C :    0.089194
  23 H :    0.000844
  24 H :    0.019314
  25 C :   -0.023630
  26 H :    0.031552
  27 H :    0.024200
  28 C :   -0.038189
  29 H :    0.041313
  30 H :    0.016607
  31 H :    0.030237
  32 H :    0.051912
  33 H :    0.052499
Sum of atomic charges:    0.0000000

LOEWDIN ATOMIC CHARGES
----------------------
   0 S :    0.470971
   1 C :   -0.237439
   2 C :   -0.070344
   3 C :   -0.061696
   4 C :   -0.228705
   5 H :    0.041474
   6 C :   -0.040464
   7 H :    0.037903
   8 H :    0.049624
   9 C :   -0.038002
  10 H :    0.022443
  11 H :    0.023703
  12 C :   -0.057159
  13 H :    0.022898
  14 H :    0.021614
  15 H :    0.027853
  16 S :    0.426103
  17 C :   -0.202295
  18 C :   -0.075870
  19 C :   -0.060971
  20 C :   -0.208592
  21 H :    0.028565
  22 C :   -0.043377
  23 H :    0.027225
  24 H :    0.032525
  25 C :   -0.029718
  26 H :    0.031466
  27 H :    0.020364
  28 C :   -0.063182
  29 H :    0.028685
  30 H :    0.019775
  31 H :    0.022788
  32 H :    0.033360
  33 H :    0.028473

  Mayer bond orders larger than 0.100000
B(  0-S ,  1-C ) :   1.1862 B(  0-S ,  4-C ) :   1.1798 B(  1-C ,  2-C ) :   1.5480
B(  1-C ,  4-C ) :   0.1026 B(  1-C , 32-H ) :   0.9670 B(  2-C ,  3-C ) :   1.3037
B(  2-C ,  6-C ) :   1.0017 B(  3-C ,  4-C ) :   1.5056 B(  3-C ,  5-H ) :   0.9790
B(  4-C , 20-C ) :   1.0569 B(  6-C ,  7-H ) :   0.9419 B(  6-C ,  8-H ) :   0.9318
B(  6-C ,  9-C ) :   1.0888 B(  9-C , 10-H ) :   0.9587 B(  9-C , 11-H ) :   0.9449
B(  9-C , 12-C ) :   1.0852 B( 12-C , 13-H ) :   0.9773 B( 12-C , 14-H ) :   0.9747
B( 12-C , 15-H ) :   0.9752 B( 16-S , 17-C ) :   1.1732 B( 16-S , 20-C ) :   1.1704
B( 17-C , 18-C ) :   1.5600 B( 17-C , 20-C ) :   0.1136 B( 17-C , 33-H ) :   0.9718
B( 18-C , 19-C ) :   1.2872 B( 18-C , 21-H ) :   0.9837 B( 19-C , 20-C ) :   1.4987
B( 19-C , 22-C ) :   1.0520 B( 22-C , 23-H ) :   0.9165 B( 22-C , 24-H ) :   0.9232
B( 22-C , 25-C ) :   1.0639 B( 25-C , 26-H ) :   0.9525 B( 25-C , 27-H ) :   0.9519
B( 25-C , 28-C ) :   1.0927 B( 28-C , 29-H ) :   0.9714 B( 28-C , 30-H ) :   0.9690
B( 28-C , 31-H ) :   0.9740

Dispersion correction           -0.015118567
FINAL SINGLE POINT ENERGY     -1339.864348075637

DIPOLE MOMENT
-------------
                                X             Y             Z
Electronic contribution:     -9.91079      20.05192      -9.47585
Nuclear contribution   :     10.12736     -20.44391       9.55782
                        -----------------------------------------
Total Dipole Moment    :      0.21657      -0.39200       0.08197
                        -----------------------------------------
Magnitude (a.u.)       :      0.45528
Magnitude (Debye)      :      1.15724

Rotational constants in cm-1:     0.019948     0.008048     0.007531
Rotational constants in MHz :   598.037372   241.263064   225.786102

                             ****ORCA TERMINATED NORMALLY****
TOTAL RUN TIME: 0 days 0 hours 0 minutes 20 seconds 988 msec
