                         Program Version 4.2.1 -  RELEASE  -
|  1> ! wB97X-D3 SP def2-SVP
|  2> %pal
|  3> nprocs 24
|  4> end
|  5>
|  6> * xyz 0 1
|  7> S 	 -125.496 	 62.3903 	 -49.0022
|  8> C 	 -124.309 	 61.705 	 -50.0089
|  9> C 	 -123.778 	 62.6699 	 -50.8106
| 10> C 	 -124.48 	 63.893 	 -50.7666
| 11> C 	 -125.47 	 63.9542 	 -49.823
| 12> H 	 -124.351 	 64.7575 	 -51.3119
| 13> C 	 -122.463 	 62.4979 	 -51.5735
| 14> H 	 -121.813 	 61.9253 	 -50.9739
| 15> H 	 -121.883 	 63.4192 	 -51.6617
| 16> C 	 -122.625 	 61.8917 	 -52.9375
| 17> H 	 -121.677 	 61.5564 	 -53.3939
| 18> H 	 -123.117 	 60.9175 	 -52.7799
| 19> C 	 -123.598 	 62.5757 	 -53.8729
| 20> H 	 -123.345 	 63.6451 	 -53.8869
| 21> H 	 -123.545 	 62.1481 	 -54.8663
| 22> H 	 -124.69 	 62.4224 	 -53.5398
| 23> S 	 -127.171 	 65.8539 	 -50.8574
| 24> C 	 -128.406 	 66.5464 	 -49.8603
| 25> C 	 -128.158 	 66.332 	 -48.5317
| 26> C 	 -127.09 	 65.3815 	 -48.3266
| 27> C 	 -126.473 	 64.9967 	 -49.5117
| 28> H 	 -128.778 	 66.9091 	 -47.808
| 29> C 	 -126.695 	 65.0028 	 -46.875
| 30> H 	 -126.631 	 65.8416 	 -46.2438
| 31> H 	 -125.68 	 64.5588 	 -46.8579
| 32> C 	 -127.661 	 64.0326 	 -46.309
| 33> H 	 -127.882 	 63.2274 	 -46.9961
| 34> H 	 -128.566 	 64.5651 	 -46.1464
| 35> C 	 -127.09 	 63.3781 	 -45.0266
| 36> H 	 -126.955 	 63.9781 	 -44.1278
| 37> H 	 -126.091 	 62.8415 	 -45.2698
| 38> H 	 -127.822 	 62.6907 	 -44.6329
| 39> H 	 -123.847 	 60.7419 	 -49.7988
| 40> H 	 -129.083 	 67.1962 	 -50.2797
| 41> *
| 42>
| 43>                          ****END OF INPUT****

CARTESIAN COORDINATES (ANGSTROEM)
---------------------------------
  S    -125.496000   62.390300  -49.002200
  C    -124.309000   61.705000  -50.008900
  C    -123.778000   62.669900  -50.810600
  C    -124.480000   63.893000  -50.766600
  C    -125.470000   63.954200  -49.823000
  H    -124.351000   64.757500  -51.311900
  C    -122.463000   62.497900  -51.573500
  H    -121.813000   61.925300  -50.973900
  H    -121.883000   63.419200  -51.661700
  C    -122.625000   61.891700  -52.937500
  H    -121.677000   61.556400  -53.393900
  H    -123.117000   60.917500  -52.779900
  C    -123.598000   62.575700  -53.872900
  H    -123.345000   63.645100  -53.886900
  H    -123.545000   62.148100  -54.866300
  H    -124.690000   62.422400  -53.539800
  S    -127.171000   65.853900  -50.857400
  C    -128.406000   66.546400  -49.860300
  C    -128.158000   66.332000  -48.531700
  C    -127.090000   65.381500  -48.326600
  C    -126.473000   64.996700  -49.511700
  H    -128.778000   66.909100  -47.808000
  C    -126.695000   65.002800  -46.875000
  H    -126.631000   65.841600  -46.243800
  H    -125.680000   64.558800  -46.857900
  C    -127.661000   64.032600  -46.309000
  H    -127.882000   63.227400  -46.996100
  H    -128.566000   64.565100  -46.146400
  C    -127.090000   63.378100  -45.026600
  H    -126.955000   63.978100  -44.127800
  H    -126.091000   62.841500  -45.269800
  H    -127.822000   62.690700  -44.632900
  H    -123.847000   60.741900  -49.798800
  H    -129.083000   67.196200  -50.279700

 Total Charge           Charge          ....    0
 Multiplicity           Mult            ....    1
 Number of Electrons    NEL             ....  134
 Basis Dimension        Dim             ....  322

ORBITAL ENERGIES
----------------

  NO   OCC          E(Eh)            E(eV)
   0   2.0000     -88.964228     -2420.8397
   1   2.0000     -88.963035     -2420.8072
   2   2.0000     -10.331746      -281.1411
   3   2.0000     -10.331527      -281.1351
   4   2.0000     -10.311937      -280.6021
   5   2.0000     -10.309851      -280.5453
   6   2.0000     -10.308810      -280.5170
   7   2.0000     -10.299285      -280.2578
   8   2.0000     -10.298598      -280.2391
   9   2.0000     -10.285997      -279.8962
  10   2.0000     -10.285676      -279.8875
  11   2.0000     -10.284651      -279.8596
  12   2.0000     -10.280813      -279.7551
  13   2.0000     -10.279671      -279.7241
  14   2.0000     -10.278351      -279.6881
  15   2.0000     -10.276557      -279.6393
  16   2.0000      -8.079806      -219.8627
  17   2.0000      -8.078254      -219.8205
  18   2.0000      -6.038273      -164.3098
  19   2.0000      -6.036741      -164.2681
  20   2.0000      -6.034246      -164.2002
  21   2.0000      -6.032626      -164.1561
  22   2.0000      -6.030520      -164.0988
  23   2.0000      -6.029074      -164.0594
  24   2.0000      -1.012107       -27.5408
  25   2.0000      -0.992459       -27.0062
  26   2.0000      -0.914667       -24.8894
  27   2.0000      -0.913496       -24.8575
  28   2.0000      -0.873653       -23.7733
  29   2.0000      -0.848877       -23.0991
  30   2.0000      -0.842552       -22.9270
  31   2.0000      -0.820306       -22.3217
  32   2.0000      -0.784002       -21.3338
  33   2.0000      -0.773389       -21.0450
  34   2.0000      -0.702856       -19.1257
  35   2.0000      -0.696210       -18.9448
  36   2.0000      -0.693196       -18.8628
  37   2.0000      -0.668596       -18.1934
  38   2.0000      -0.647006       -17.6059
  39   2.0000      -0.617513       -16.8034
  40   2.0000      -0.601474       -16.3670
  41   2.0000      -0.578223       -15.7343
  42   2.0000      -0.570737       -15.5305
  43   2.0000      -0.554205       -15.0807
  44   2.0000      -0.540888       -14.7183
  45   2.0000      -0.522955       -14.2303
  46   2.0000      -0.516623       -14.0580
  47   2.0000      -0.512756       -13.9528
  48   2.0000      -0.509134       -13.8542
  49   2.0000      -0.497736       -13.5441
  50   2.0000      -0.493073       -13.4172
  51   2.0000      -0.477030       -12.9806
  52   2.0000      -0.471093       -12.8191
  53   2.0000      -0.464369       -12.6361
  54   2.0000      -0.460873       -12.5410
  55   2.0000      -0.447066       -12.1653
  56   2.0000      -0.444202       -12.0873
  57   2.0000      -0.437513       -11.9053
  58   2.0000      -0.428266       -11.6537
  59   2.0000      -0.421090       -11.4584
  60   2.0000      -0.418997       -11.4015
  61   2.0000      -0.414731       -11.2854
  62   2.0000      -0.399033       -10.8582
  63   2.0000      -0.359470        -9.7817
  64   2.0000      -0.330699        -8.9988
  65   2.0000      -0.330359        -8.9895
  66   2.0000      -0.291060        -7.9201
  67   0.0000       0.028776         0.7830
  68   0.0000       0.076642         2.0855
  69   0.0000       0.098546         2.6816
  70   0.0000       0.128347         3.4925
  71   0.0000       0.132738         3.6120

MULLIKEN ATOMIC CHARGES
-----------------------
   0 S :    0.096216
   1 C :   -0.113826
   2 C :   -0.085147
   3 C :    0.035311
   4 C :   -0.125867
   5 H :   -0.024809
   6 C :    0.097770
   7 H :    0.006267
   8 H :    0.022672
   9 C :   -0.078494
  10 H :    0.029027
  11 H :    0.011981
  12 C :   -0.068960
  13 H :    0.030126
  14 H :    0.035701
  15 H :    0.058661
  16 S :    0.096723
  17 C :   -0.067974
  18 C :   -0.036723
  19 C :   -0.063032
  20 C :   -0.128717
  21 H :    0.039845
  22 C :    0.087631
  23 H :    0.016105
  24 H :    0.017194
  25 C :   -0.055360
  26 H :    0.032166
  27 H :    0.015474
  28 C :   -0.067701
  29 H :    0.025925
  30 H :    0.048905
  31 H :    0.025792
  32 H :    0.056808
  33 H :    0.030309
Sum of atomic charges:    0.0000000

LOEWDIN ATOMIC CHARGES
----------------------
   0 S :    0.420954
   1 C :   -0.209182
   2 C :   -0.061723
   3 C :   -0.062930
   4 C :   -0.176881
   5 H :    0.017104
   6 C :   -0.028082
   7 H :    0.024803
   8 H :    0.029658
   9 C :   -0.053442
  10 H :    0.024514
  11 H :    0.023822
  12 C :   -0.070724
  13 H :    0.020693
  14 H :    0.026329
  15 H :    0.039354
  16 S :    0.414821
  17 C :   -0.171314
  18 C :   -0.073570
  19 C :   -0.051027
  20 C :   -0.202271
  21 H :    0.041738
  22 C :   -0.028388
  23 H :    0.024786
  24 H :    0.024955
  25 C :   -0.038111
  26 H :    0.023719
  27 H :    0.018429
  28 C :   -0.074040
  29 H :    0.022124
  30 H :    0.036521
  31 H :    0.023558
  32 H :    0.032814
  33 H :    0.010990

  Mayer bond orders larger than 0.100000
B(  0-S ,  1-C ) :   1.1561 B(  0-S ,  4-C ) :   1.1505 B(  1-C ,  2-C ) :   1.6054
B(  1-C , 32-H ) :   0.9636 B(  2-C ,  3-C ) :   1.2350 B(  2-C ,  6-C ) :   1.0064
B(  3-C ,  4-C ) :   1.5728 B(  3-C ,  5-H ) :   1.0161 B(  4-C , 20-C ) :   1.0331
B(  6-C ,  7-H ) :   0.9370 B(  6-C ,  8-H ) :   0.9455 B(  6-C ,  9-C ) :   1.0825
B(  9-C , 10-H ) :   0.9559 B(  9-C , 11-H ) :   0.9498 B(  9-C , 12-C ) :   1.0768
B( 12-C , 13-H ) :   0.9773 B( 12-C , 14-H ) :   0.9712 B( 12-C , 15-H ) :   0.9690
B( 16-S , 17-C ) :   1.1660 B( 16-S , 20-C ) :   1.1389 B( 17-C , 18-C ) :   1.6083
B( 17-C , 33-H ) :   0.9779 B( 18-C , 19-C ) :   1.2224 B( 18-C , 21-H ) :   0.9863
B( 19-C , 20-C ) :   1.5994 B( 19-C , 22-C ) :   1.0365 B( 22-C , 23-H ) :   0.9374
B( 22-C , 24-H ) :   0.9391 B( 22-C , 25-C ) :   1.0627 B( 25-C , 26-H ) :   0.9533
B( 25-C , 27-H ) :   0.9521 B( 25-C , 28-C ) :   1.0838 B( 28-C , 29-H ) :   0.9732
B( 28-C , 30-H ) :   0.9726 B( 28-C , 31-H ) :   0.9732

Dispersion correction           -0.014680828
FINAL SINGLE POINT ENERGY     -1339.875400993590

DIPOLE MOMENT
-------------
                                X             Y             Z
Electronic contribution:     -7.36019       7.25524      -3.07416
Nuclear contribution   :      7.50976      -7.14730       3.24246
                        -----------------------------------------
Total Dipole Moment    :      0.14957       0.10794       0.16830
                        -----------------------------------------
Magnitude (a.u.)       :      0.24970
Magnitude (Debye)      :      0.63468

Rotational constants in cm-1:     0.021667     0.008550     0.006429
Rotational constants in MHz :   649.551062   256.337188   192.743486

                             ****ORCA TERMINATED NORMALLY****
TOTAL RUN TIME: 0 days 0 hours 0 minutes 21 seconds 542 msec
