                         Program Version 4.2.1 -  RELEASE  -
|  1> ! wB97X-D3 SP def2-SVP
|  2> %pal
|  3> nprocs 24
|  4> end
|  5>
|  6> * xyz 0 1
|  7> S 	 -57.0542 	 -2.96444 	 -32.2316
|  8> C 	 -58.6363 	 -2.86336 	 -31.4939
|  9> C 	 -58.5574 	 -2.23321 	 -30.2483
| 10> C 	 -57.2808 	 -1.76143 	 -29.8895
| 11> C 	 -56.3599 	 -1.92173 	 -30.9517
| 12> H 	 -57.1631 	 -1.19989 	 -28.956
| 13> C 	 -59.7744 	 -2.03853 	 -29.4914
| 14> H 	 -59.4755 	 -2.08809 	 -28.4298
| 15> H 	 -60.3414 	 -2.92629 	 -29.6056
| 16> C 	 -60.4538 	 -0.674347 	 -29.8481
| 17> H 	 -59.7773 	 0.193188 	 -29.7614
| 18> H 	 -60.7493 	 -0.590298 	 -30.9225
| 19> C 	 -61.6647 	 -0.537183 	 -28.883
| 20> H 	 -62.2942 	 -1.43273 	 -28.8011
| 21> H 	 -61.1655 	 -0.448695 	 -27.8796
| 22> H 	 -62.3279 	 0.332194 	 -29.096
| 23> S 	 -53.7995 	 -2.17847 	 -31.9999
| 24> C 	 -52.7539 	 -0.742918 	 -32.0908
| 25> C 	 -53.3417 	 0.31961 	 -31.3824
| 26> C 	 -54.6173 	 0.0176197 	 -30.8232
| 27> C 	 -55.0505 	 -1.26867 	 -31.1116
| 28> H 	 -52.8207 	 1.21447 	 -31.3037
| 29> C 	 -55.2838 	 1.05194 	 -29.9042
| 30> H 	 -54.5198 	 1.62755 	 -29.3822
| 31> H 	 -55.693 	 0.487196 	 -29.1121
| 32> C 	 -56.2253 	 1.98165 	 -30.6098
| 33> H 	 -56.4541 	 2.91551 	 -29.9231
| 34> H 	 -57.1509 	 1.47143 	 -30.7126
| 35> C 	 -55.8123 	 2.55656 	 -31.914
| 36> H 	 -55.5022 	 1.76646 	 -32.5954
| 37> H 	 -54.9671 	 3.23556 	 -31.9005
| 38> H 	 -56.6793 	 2.98344 	 -32.411
| 39> H 	 -59.5374 	 -3.24121 	 -31.9887
| 40> H 	 -51.7999 	 -0.628064 	 -32.5849
| 41> *
| 42>
| 43>                          ****END OF INPUT****

CARTESIAN COORDINATES (ANGSTROEM)
---------------------------------
  S    -57.054200   -2.964440  -32.231600
  C    -58.636300   -2.863360  -31.493900
  C    -58.557400   -2.233210  -30.248300
  C    -57.280800   -1.761430  -29.889500
  C    -56.359900   -1.921730  -30.951700
  H    -57.163100   -1.199890  -28.956000
  C    -59.774400   -2.038530  -29.491400
  H    -59.475500   -2.088090  -28.429800
  H    -60.341400   -2.926290  -29.605600
  C    -60.453800   -0.674347  -29.848100
  H    -59.777300    0.193188  -29.761400
  H    -60.749300   -0.590298  -30.922500
  C    -61.664700   -0.537183  -28.883000
  H    -62.294200   -1.432730  -28.801100
  H    -61.165500   -0.448695  -27.879600
  H    -62.327900    0.332194  -29.096000
  S    -53.799500   -2.178470  -31.999900
  C    -52.753900   -0.742918  -32.090800
  C    -53.341700    0.319610  -31.382400
  C    -54.617300    0.017620  -30.823200
  C    -55.050500   -1.268670  -31.111600
  H    -52.820700    1.214470  -31.303700
  C    -55.283800    1.051940  -29.904200
  H    -54.519800    1.627550  -29.382200
  H    -55.693000    0.487196  -29.112100
  C    -56.225300    1.981650  -30.609800
  H    -56.454100    2.915510  -29.923100
  H    -57.150900    1.471430  -30.712600
  C    -55.812300    2.556560  -31.914000
  H    -55.502200    1.766460  -32.595400
  H    -54.967100    3.235560  -31.900500
  H    -56.679300    2.983440  -32.411000
  H    -59.537400   -3.241210  -31.988700
  H    -51.799900   -0.628064  -32.584900

 Total Charge           Charge          ....    0
 Multiplicity           Mult            ....    1
 Number of Electrons    NEL             ....  134
 Basis Dimension        Dim             ....  322

ORBITAL ENERGIES
----------------

  NO   OCC          E(Eh)            E(eV)
   0   2.0000     -88.968061     -2420.9440
   1   2.0000     -88.966750     -2420.9084
   2   2.0000     -10.340132      -281.3693
   3   2.0000     -10.332519      -281.1621
   4   2.0000     -10.321890      -280.8729
   5   2.0000     -10.312819      -280.6261
   6   2.0000     -10.304732      -280.4060
   7   2.0000     -10.299354      -280.2597
   8   2.0000     -10.297798      -280.2173
   9   2.0000     -10.293668      -280.1049
  10   2.0000     -10.291429      -280.0440
  11   2.0000     -10.287753      -279.9440
  12   2.0000     -10.287474      -279.9364
  13   2.0000     -10.286420      -279.9077
  14   2.0000     -10.285537      -279.8837
  15   2.0000     -10.269350      -279.4432
  16   2.0000      -8.082020      -219.9229
  17   2.0000      -8.080411      -219.8792
  18   2.0000      -6.040566      -164.3722
  19   2.0000      -6.039091      -164.3320
  20   2.0000      -6.036616      -164.2647
  21   2.0000      -6.035043      -164.2219
  22   2.0000      -6.032806      -164.1610
  23   2.0000      -6.031089      -164.1143
  24   2.0000      -1.000440       -27.2234
  25   2.0000      -0.979806       -26.6619
  26   2.0000      -0.915849       -24.9215
  27   2.0000      -0.912628       -24.8339
  28   2.0000      -0.863438       -23.4953
  29   2.0000      -0.852125       -23.1875
  30   2.0000      -0.845131       -22.9972
  31   2.0000      -0.815113       -22.1803
  32   2.0000      -0.788040       -21.4437
  33   2.0000      -0.763664       -20.7804
  34   2.0000      -0.709134       -19.2965
  35   2.0000      -0.705378       -19.1943
  36   2.0000      -0.687254       -18.7011
  37   2.0000      -0.666828       -18.1453
  38   2.0000      -0.636545       -17.3213
  39   2.0000      -0.624564       -16.9953
  40   2.0000      -0.590338       -16.0639
  41   2.0000      -0.568364       -15.4660
  42   2.0000      -0.565330       -15.3834
  43   2.0000      -0.551524       -15.0077
  44   2.0000      -0.546199       -14.8628
  45   2.0000      -0.531108       -14.4522
  46   2.0000      -0.521459       -14.1896
  47   2.0000      -0.509500       -13.8642
  48   2.0000      -0.501145       -13.6368
  49   2.0000      -0.497286       -13.5318
  50   2.0000      -0.489364       -13.3163
  51   2.0000      -0.483118       -13.1463
  52   2.0000      -0.472018       -12.8443
  53   2.0000      -0.462154       -12.5759
  54   2.0000      -0.458924       -12.4880
  55   2.0000      -0.454816       -12.3762
  56   2.0000      -0.445244       -12.1157
  57   2.0000      -0.439720       -11.9654
  58   2.0000      -0.428064       -11.6482
  59   2.0000      -0.425656       -11.5827
  60   2.0000      -0.416343       -11.3293
  61   2.0000      -0.413891       -11.2626
  62   2.0000      -0.403399       -10.9770
  63   2.0000      -0.349724        -9.5165
  64   2.0000      -0.333952        -9.0873
  65   2.0000      -0.329915        -8.9774
  66   2.0000      -0.280087        -7.6216
  67   0.0000       0.016443         0.4474
  68   0.0000       0.069829         1.9001
  69   0.0000       0.097621         2.6564
  70   0.0000       0.117523         3.1980
  71   0.0000       0.132130         3.5954

MULLIKEN ATOMIC CHARGES
-----------------------
   0 S :    0.112132
   1 C :   -0.134231
   2 C :   -0.122068
   3 C :    0.036500
   4 C :   -0.118745
   5 H :    0.020325
   6 C :    0.062824
   7 H :    0.016697
   8 H :    0.019533
   9 C :   -0.074526
  10 H :    0.037077
  11 H :    0.033973
  12 C :   -0.054492
  13 H :    0.034244
  14 H :    0.031196
  15 H :    0.045877
  16 S :    0.092521
  17 C :   -0.088503
  18 C :   -0.022184
  19 C :   -0.071585
  20 C :   -0.149439
  21 H :   -0.004266
  22 C :    0.124683
  23 H :    0.016625
  24 H :    0.003428
  25 C :   -0.080689
  26 H :    0.034674
  27 H :    0.023488
  28 C :   -0.038096
  29 H :    0.036877
  30 H :    0.026485
  31 H :    0.033025
  32 H :    0.058289
  33 H :    0.058351
Sum of atomic charges:    0.0000000

LOEWDIN ATOMIC CHARGES
----------------------
   0 S :    0.395451
   1 C :   -0.205926
   2 C :   -0.067714
   3 C :   -0.066709
   4 C :   -0.173334
   5 H :    0.035094
   6 C :   -0.034872
   7 H :    0.032565
   8 H :    0.028775
   9 C :   -0.036723
  10 H :    0.027373
  11 H :    0.026240
  12 C :   -0.074002
  13 H :    0.024512
  14 H :    0.030068
  15 H :    0.027392
  16 S :    0.379191
  17 C :   -0.176625
  18 C :   -0.061721
  19 C :   -0.053542
  20 C :   -0.186633
  21 H :    0.019854
  22 C :   -0.026794
  23 H :    0.031986
  24 H :    0.022600
  25 C :   -0.045243
  26 H :    0.033245
  27 H :    0.019760
  28 C :   -0.068113
  29 H :    0.027703
  30 H :    0.021538
  31 H :    0.031165
  32 H :    0.031798
  33 H :    0.031639

  Mayer bond orders larger than 0.100000
B(  0-S ,  1-C ) :   1.1320 B(  0-S ,  4-C ) :   1.1653 B(  1-C ,  2-C ) :   1.5738
B(  1-C ,  4-C ) :   0.1056 B(  1-C , 32-H ) :   0.9694 B(  2-C ,  3-C ) :   1.2826
B(  2-C ,  6-C ) :   1.0414 B(  3-C ,  4-C ) :   1.5065 B(  3-C ,  5-H ) :   0.9879
B(  4-C , 20-C ) :   1.0621 B(  6-C ,  7-H ) :   0.9368 B(  6-C ,  8-H ) :   0.9367
B(  6-C ,  9-C ) :   1.0380 B(  9-C , 10-H ) :   0.9592 B(  9-C , 11-H ) :   0.9588
B(  9-C , 12-C ) :   1.0630 B( 12-C , 13-H ) :   0.9759 B( 12-C , 14-H ) :   0.9759
B( 12-C , 15-H ) :   0.9748 B( 16-S , 17-C ) :   1.1413 B( 16-S , 20-C ) :   1.1276
B( 17-C , 18-C ) :   1.6094 B( 17-C , 33-H ) :   0.9681 B( 18-C , 19-C ) :   1.2395
B( 18-C , 21-H ) :   0.9977 B( 19-C , 20-C ) :   1.5948 B( 19-C , 22-C ) :   1.0109
B( 22-C , 23-H ) :   0.9330 B( 22-C , 24-H ) :   0.9408 B( 22-C , 25-C ) :   1.0665
B( 25-C , 26-H ) :   0.9523 B( 25-C , 27-H ) :   0.9510 B( 25-C , 28-C ) :   1.1035
B( 28-C , 29-H ) :   0.9597 B( 28-C , 30-H ) :   0.9729 B( 28-C , 31-H ) :   0.9685

Dispersion correction           -0.015063391
FINAL SINGLE POINT ENERGY     -1339.867987818024

DIPOLE MOMENT
-------------
                                X             Y             Z
Electronic contribution:     19.09526     -20.41921     -11.23937
Nuclear contribution   :    -19.44569      20.97530      11.54441
                        -----------------------------------------
Total Dipole Moment    :     -0.35042       0.55610       0.30504
                        -----------------------------------------
Magnitude (a.u.)       :      0.72463
Magnitude (Debye)      :      1.84186

Rotational constants in cm-1:     0.020247     0.009114     0.006899
Rotational constants in MHz :   606.995022   273.235222   206.817075

                             ****ORCA TERMINATED NORMALLY****
TOTAL RUN TIME: 0 days 0 hours 0 minutes 22 seconds 404 msec
