                         Program Version 4.2.1 -  RELEASE  -
|  1> ! wB97X-D3 SP def2-SVP
|  2> %pal
|  3> nprocs 24
|  4> end
|  5>
|  6> * xyz 0 1
|  7> S 	 -57.8947 	 12.0935 	 -96.2567
|  8> C 	 -56.5141 	 12.5087 	 -97.2617
|  9> C 	 -56.2808 	 13.828 	 -97.3025
| 10> C 	 -56.9737 	 14.5272 	 -96.2581
| 11> C 	 -57.7575 	 13.6504 	 -95.5176
| 12> H 	 -56.733 	 15.5301 	 -95.9832
| 13> C 	 -55.21 	 14.4898 	 -98.1202
| 14> H 	 -55.4315 	 15.5339 	 -98.2138
| 15> H 	 -55.4284 	 14.2359 	 -99.1072
| 16> C 	 -53.6713 	 14.28 	 -97.7255
| 17> H 	 -53.6229 	 14.4089 	 -96.6039
| 18> H 	 -53.5146 	 13.2337 	 -97.8061
| 19> C 	 -52.5999 	 15.0973 	 -98.4687
| 20> H 	 -51.5182 	 14.9076 	 -98.4064
| 21> H 	 -52.7995 	 14.8766 	 -99.4909
| 22> H 	 -52.8504 	 16.1652 	 -98.475
| 23> S 	 -60.2505 	 14.3969 	 -94.7773
| 24> C 	 -60.6114 	 14.8892 	 -93.1373
| 25> C 	 -59.5328 	 14.7351 	 -92.3543
| 26> C 	 -58.3819 	 14.2594 	 -93.1044
| 27> C 	 -58.6052 	 14.0425 	 -94.407
| 28> H 	 -59.5021 	 14.8665 	 -91.3136
| 29> C 	 -57.0719 	 13.9142 	 -92.4484
| 30> H 	 -56.693 	 12.8905 	 -92.6696
| 31> H 	 -57.3802 	 13.885 	 -91.3206
| 32> C 	 -55.9826 	 14.9122 	 -92.6979
| 33> H 	 -56.4342 	 15.8969 	 -92.669
| 34> H 	 -55.5705 	 14.6903 	 -93.6924
| 35> C 	 -54.8202 	 15.1025 	 -91.7425
| 36> H 	 -54.4197 	 14.1347 	 -91.3945
| 37> H 	 -55.2086 	 15.6531 	 -90.8817
| 38> H 	 -53.9647 	 15.7096 	 -92.0891
| 39> H 	 -56.0644 	 11.8156 	 -97.8909
| 40> H 	 -61.5156 	 15.282 	 -92.6737
| 41> *
| 42>
| 43>                          ****END OF INPUT****

CARTESIAN COORDINATES (ANGSTROEM)
---------------------------------
  S    -57.894700   12.093500  -96.256700
  C    -56.514100   12.508700  -97.261700
  C    -56.280800   13.828000  -97.302500
  C    -56.973700   14.527200  -96.258100
  C    -57.757500   13.650400  -95.517600
  H    -56.733000   15.530100  -95.983200
  C    -55.210000   14.489800  -98.120200
  H    -55.431500   15.533900  -98.213800
  H    -55.428400   14.235900  -99.107200
  C    -53.671300   14.280000  -97.725500
  H    -53.622900   14.408900  -96.603900
  H    -53.514600   13.233700  -97.806100
  C    -52.599900   15.097300  -98.468700
  H    -51.518200   14.907600  -98.406400
  H    -52.799500   14.876600  -99.490900
  H    -52.850400   16.165200  -98.475000
  S    -60.250500   14.396900  -94.777300
  C    -60.611400   14.889200  -93.137300
  C    -59.532800   14.735100  -92.354300
  C    -58.381900   14.259400  -93.104400
  C    -58.605200   14.042500  -94.407000
  H    -59.502100   14.866500  -91.313600
  C    -57.071900   13.914200  -92.448400
  H    -56.693000   12.890500  -92.669600
  H    -57.380200   13.885000  -91.320600
  C    -55.982600   14.912200  -92.697900
  H    -56.434200   15.896900  -92.669000
  H    -55.570500   14.690300  -93.692400
  C    -54.820200   15.102500  -91.742500
  H    -54.419700   14.134700  -91.394500
  H    -55.208600   15.653100  -90.881700
  H    -53.964700   15.709600  -92.089100
  H    -56.064400   11.815600  -97.890900
  H    -61.515600   15.282000  -92.673700

 Total Charge           Charge          ....    0
 Multiplicity           Mult            ....    1
 Number of Electrons    NEL             ....  134
 Basis Dimension        Dim             ....  322

ORBITAL ENERGIES
----------------

  NO   OCC          E(Eh)            E(eV)
   0   2.0000     -88.968244     -2420.9490
   1   2.0000     -88.958882     -2420.6943
   2   2.0000     -10.328521      -281.0534
   3   2.0000     -10.314812      -280.6803
   4   2.0000     -10.313043      -280.6322
   5   2.0000     -10.307136      -280.4714
   6   2.0000     -10.297642      -280.2131
   7   2.0000     -10.297263      -280.2028
   8   2.0000     -10.295122      -280.1445
   9   2.0000     -10.293648      -280.1044
  10   2.0000     -10.293489      -280.1001
  11   2.0000     -10.289648      -279.9955
  12   2.0000     -10.286541      -279.9110
  13   2.0000     -10.283014      -279.8150
  14   2.0000     -10.276863      -279.6477
  15   2.0000     -10.276136      -279.6279
  16   2.0000      -8.083532      -219.9641
  17   2.0000      -8.074530      -219.7191
  18   2.0000      -6.041886      -164.4081
  19   2.0000      -6.038256      -164.3093
  20   2.0000      -6.034126      -164.1969
  21   2.0000      -6.033198      -164.1717
  22   2.0000      -6.028851      -164.0534
  23   2.0000      -6.025101      -163.9513
  24   2.0000      -1.015124       -27.6229
  25   2.0000      -0.992195       -26.9990
  26   2.0000      -0.909732       -24.7551
  27   2.0000      -0.908940       -24.7335
  28   2.0000      -0.874529       -23.7971
  29   2.0000      -0.853769       -23.2322
  30   2.0000      -0.847166       -23.0526
  31   2.0000      -0.821608       -22.3571
  32   2.0000      -0.787334       -21.4245
  33   2.0000      -0.771317       -20.9886
  34   2.0000      -0.715055       -19.4576
  35   2.0000      -0.708299       -19.2738
  36   2.0000      -0.683739       -18.6055
  37   2.0000      -0.667406       -18.1611
  38   2.0000      -0.648735       -17.6530
  39   2.0000      -0.620547       -16.8860
  40   2.0000      -0.595453       -16.2031
  41   2.0000      -0.574362       -15.6292
  42   2.0000      -0.563123       -15.3234
  43   2.0000      -0.553324       -15.0567
  44   2.0000      -0.527126       -14.3438
  45   2.0000      -0.520198       -14.1553
  46   2.0000      -0.518352       -14.1051
  47   2.0000      -0.514403       -13.9976
  48   2.0000      -0.507270       -13.8035
  49   2.0000      -0.504421       -13.7260
  50   2.0000      -0.498276       -13.5588
  51   2.0000      -0.485277       -13.2051
  52   2.0000      -0.472470       -12.8566
  53   2.0000      -0.464104       -12.6289
  54   2.0000      -0.457142       -12.4395
  55   2.0000      -0.455059       -12.3828
  56   2.0000      -0.452892       -12.3238
  57   2.0000      -0.439401       -11.9567
  58   2.0000      -0.427934       -11.6447
  59   2.0000      -0.423012       -11.5108
  60   2.0000      -0.412772       -11.2321
  61   2.0000      -0.411334       -11.1930
  62   2.0000      -0.400764       -10.9053
  63   2.0000      -0.339344        -9.2340
  64   2.0000      -0.333648        -9.0790
  65   2.0000      -0.322468        -8.7748
  66   2.0000      -0.311572        -8.4783
  67   0.0000       0.042305         1.1512
  68   0.0000       0.060366         1.6427
  69   0.0000       0.106527         2.8988
  70   0.0000       0.123985         3.3738
  71   0.0000       0.131694         3.5836

MULLIKEN ATOMIC CHARGES
-----------------------
   0 S :    0.120828
   1 C :   -0.097796
   2 C :   -0.093982
   3 C :    0.070705
   4 C :   -0.174833
   5 H :    0.012585
   6 C :    0.098412
   7 H :   -0.000359
   8 H :    0.003396
   9 C :   -0.055400
  10 H :    0.033571
  11 H :    0.015856
  12 C :   -0.030493
  13 H :    0.054120
  14 H :    0.008736
  15 H :    0.030869
  16 S :    0.104145
  17 C :   -0.067412
  18 C :   -0.015726
  19 C :   -0.053962
  20 C :   -0.159405
  21 H :   -0.001331
  22 C :    0.045315
  23 H :    0.041820
  24 H :    0.017172
  25 C :   -0.079358
  26 H :    0.021850
  27 H :    0.041104
  28 C :   -0.046189
  29 H :    0.024897
  30 H :    0.023026
  31 H :    0.038673
  32 H :    0.016632
  33 H :    0.052537
Sum of atomic charges:   -0.0000000

LOEWDIN ATOMIC CHARGES
----------------------
   0 S :    0.411950
   1 C :   -0.171694
   2 C :   -0.063680
   3 C :   -0.041574
   4 C :   -0.199815
   5 H :    0.029997
   6 C :   -0.030831
   7 H :    0.026052
   8 H :    0.022667
   9 C :   -0.034879
  10 H :    0.026743
  11 H :    0.016812
  12 C :   -0.076378
  13 H :    0.036646
  14 H :    0.023889
  15 H :    0.029423
  16 S :    0.408695
  17 C :   -0.183759
  18 C :   -0.067604
  19 C :   -0.062550
  20 C :   -0.207924
  21 H :    0.023113
  22 C :   -0.035895
  23 H :    0.033866
  24 H :    0.032944
  25 C :   -0.052762
  26 H :    0.024311
  27 H :    0.025353
  28 C :   -0.068251
  29 H :    0.021652
  30 H :    0.022779
  31 H :    0.030642
  32 H :    0.012588
  33 H :    0.037473

  Mayer bond orders larger than 0.100000
B(  0-S ,  1-C ) :   1.1287 B(  0-S ,  4-C ) :   1.1587 B(  1-C ,  2-C ) :   1.6364
B(  1-C , 32-H ) :   0.9808 B(  2-C ,  3-C ) :   1.2181 B(  2-C ,  6-C ) :   1.0407
B(  3-C ,  4-C ) :   1.5851 B(  3-C ,  5-H ) :   0.9993 B(  4-C , 20-C ) :   0.9962
B(  6-C ,  7-H ) :   0.9331 B(  6-C ,  8-H ) :   0.9214 B(  6-C ,  9-C ) :   1.0371
B(  9-C , 10-H ) :   0.9607 B(  9-C , 11-H ) :   0.9581 B(  9-C , 12-C ) :   1.0644
B( 12-C , 13-H ) :   0.9755 B( 12-C , 14-H ) :   0.9686 B( 12-C , 15-H ) :   0.9750
B( 16-S , 17-C ) :   1.1382 B( 16-S , 20-C ) :   1.1312 B( 17-C , 18-C ) :   1.6413
B( 17-C , 33-H ) :   0.9611 B( 18-C , 19-C ) :   1.2280 B( 18-C , 21-H ) :   0.9928
B( 19-C , 20-C ) :   1.6754 B( 19-C , 22-C ) :   1.0364 B( 22-C , 23-H ) :   0.9339
B( 22-C , 24-H ) :   0.9359 B( 22-C , 25-C ) :   1.0627 B( 25-C , 26-H ) :   0.9585
B( 25-C , 27-H ) :   0.9479 B( 25-C , 28-C ) :   1.0867 B( 28-C , 29-H ) :   0.9725
B( 28-C , 30-H ) :   0.9767 B( 28-C , 31-H ) :   0.9738

Dispersion correction           -0.014496189
FINAL SINGLE POINT ENERGY     -1339.855294662509

DIPOLE MOMENT
-------------
                                X             Y             Z
Electronic contribution:    -29.09757      -9.82881      -2.14456
Nuclear contribution   :     29.63820      10.07467       2.10530
                        -----------------------------------------
Total Dipole Moment    :      0.54063       0.24586      -0.03926
                        -----------------------------------------
Magnitude (a.u.)       :      0.59521
Magnitude (Debye)      :      1.51289

Rotational constants in cm-1:     0.018655     0.008661     0.006733
Rotational constants in MHz :   559.252376   259.662031   201.862058

                             ****ORCA TERMINATED NORMALLY****
TOTAL RUN TIME: 0 days 0 hours 0 minutes 21 seconds 859 msec
