                         Program Version 4.2.1 -  RELEASE  -
|  1> ! wB97X-D3 SP def2-SVP
|  2> %pal
|  3> nprocs 24
|  4> end
|  5>
|  6> * xyz 0 1
|  7> S 	 -110.611 	 29.602 	 -22.01
|  8> C 	 -111.231 	 30.4514 	 -23.4146
|  9> C 	 -112.368 	 31.1487 	 -23.1087
| 10> C 	 -112.854 	 30.8439 	 -21.8044
| 11> C 	 -112.11 	 29.8802 	 -21.1536
| 12> H 	 -113.822 	 31.2043 	 -21.3163
| 13> C 	 -113.105 	 32.0791 	 -23.9401
| 14> H 	 -112.439 	 32.9403 	 -24.1438
| 15> H 	 -113.909 	 32.4673 	 -23.2647
| 16> C 	 -113.74 	 31.4774 	 -25.2021
| 17> H 	 -113.164 	 30.8339 	 -25.8982
| 18> H 	 -114.503 	 30.7271 	 -24.8662
| 19> C 	 -114.527 	 32.4341 	 -26.1213
| 20> H 	 -115.258 	 32.9948 	 -25.4811
| 21> H 	 -113.914 	 33.0669 	 -26.7432
| 22> H 	 -115.111 	 31.8943 	 -26.8014
| 23> S 	 -110.94 	 29.3274 	 -18.7025
| 24> C 	 -112.111 	 28.8827 	 -17.4611
| 25> C 	 -113.394 	 28.6812 	 -17.8724
| 26> C 	 -113.496 	 28.9558 	 -19.2478
| 27> C 	 -112.326 	 29.3279 	 -19.8333
| 28> H 	 -114.196 	 28.312 	 -17.2087
| 29> C 	 -114.877 	 28.8907 	 -19.9104
| 30> H 	 -115.236 	 27.914 	 -19.6167
| 31> H 	 -114.714 	 28.999 	 -20.9572
| 32> C 	 -115.917 	 29.9616 	 -19.3482
| 33> H 	 -115.488 	 30.8656 	 -19.5716
| 34> H 	 -115.946 	 30.0235 	 -18.2766
| 35> C 	 -117.344 	 29.8147 	 -19.8821
| 36> H 	 -117.854 	 28.941 	 -19.4587
| 37> H 	 -117.523 	 29.7525 	 -20.933
| 38> H 	 -117.979 	 30.5989 	 -19.4924
| 39> H 	 -110.689 	 30.576 	 -24.3345
| 40> H 	 -111.796 	 28.9413 	 -16.4516
| 41> *
| 42>
| 43>                          ****END OF INPUT****

CARTESIAN COORDINATES (ANGSTROEM)
---------------------------------
  S    -110.611000   29.602000  -22.010000
  C    -111.231000   30.451400  -23.414600
  C    -112.368000   31.148700  -23.108700
  C    -112.854000   30.843900  -21.804400
  C    -112.110000   29.880200  -21.153600
  H    -113.822000   31.204300  -21.316300
  C    -113.105000   32.079100  -23.940100
  H    -112.439000   32.940300  -24.143800
  H    -113.909000   32.467300  -23.264700
  C    -113.740000   31.477400  -25.202100
  H    -113.164000   30.833900  -25.898200
  H    -114.503000   30.727100  -24.866200
  C    -114.527000   32.434100  -26.121300
  H    -115.258000   32.994800  -25.481100
  H    -113.914000   33.066900  -26.743200
  H    -115.111000   31.894300  -26.801400
  S    -110.940000   29.327400  -18.702500
  C    -112.111000   28.882700  -17.461100
  C    -113.394000   28.681200  -17.872400
  C    -113.496000   28.955800  -19.247800
  C    -112.326000   29.327900  -19.833300
  H    -114.196000   28.312000  -17.208700
  C    -114.877000   28.890700  -19.910400
  H    -115.236000   27.914000  -19.616700
  H    -114.714000   28.999000  -20.957200
  C    -115.917000   29.961600  -19.348200
  H    -115.488000   30.865600  -19.571600
  H    -115.946000   30.023500  -18.276600
  C    -117.344000   29.814700  -19.882100
  H    -117.854000   28.941000  -19.458700
  H    -117.523000   29.752500  -20.933000
  H    -117.979000   30.598900  -19.492400
  H    -110.689000   30.576000  -24.334500
  H    -111.796000   28.941300  -16.451600

 Total Charge           Charge          ....    0
 Multiplicity           Mult            ....    1
 Number of Electrons    NEL             ....  134
 Basis Dimension        Dim             ....  322

ORBITAL ENERGIES
----------------

  NO   OCC          E(Eh)            E(eV)
   0   2.0000     -88.966054     -2420.8894
   1   2.0000     -88.963212     -2420.8121
   2   2.0000     -10.325420      -280.9690
   3   2.0000     -10.322995      -280.9030
   4   2.0000     -10.315864      -280.7089
   5   2.0000     -10.308684      -280.5135
   6   2.0000     -10.298222      -280.2289
   7   2.0000     -10.295362      -280.1510
   8   2.0000     -10.294201      -280.1194
   9   2.0000     -10.294062      -280.1157
  10   2.0000     -10.293669      -280.1050
  11   2.0000     -10.292581      -280.0754
  12   2.0000     -10.292234      -280.0659
  13   2.0000     -10.286555      -279.9114
  14   2.0000     -10.278536      -279.6932
  15   2.0000     -10.276054      -279.6256
  16   2.0000      -8.080549      -219.8829
  17   2.0000      -8.078123      -219.8169
  18   2.0000      -6.039020      -164.3301
  19   2.0000      -6.036666      -164.2660
  20   2.0000      -6.035447      -164.2329
  21   2.0000      -6.032779      -164.1603
  22   2.0000      -6.031006      -164.1120
  23   2.0000      -6.028695      -164.0491
  24   2.0000      -1.009042       -27.4574
  25   2.0000      -0.986853       -26.8536
  26   2.0000      -0.914643       -24.8887
  27   2.0000      -0.905381       -24.6367
  28   2.0000      -0.869943       -23.6723
  29   2.0000      -0.857094       -23.3227
  30   2.0000      -0.849398       -23.1133
  31   2.0000      -0.813697       -22.1418
  32   2.0000      -0.785673       -21.3792
  33   2.0000      -0.772986       -21.0340
  34   2.0000      -0.715812       -19.4782
  35   2.0000      -0.705597       -19.2003
  36   2.0000      -0.696947       -18.9649
  37   2.0000      -0.667305       -18.1583
  38   2.0000      -0.637362       -17.3435
  39   2.0000      -0.614119       -16.7110
  40   2.0000      -0.596229       -16.2242
  41   2.0000      -0.569078       -15.4854
  42   2.0000      -0.565582       -15.3903
  43   2.0000      -0.553124       -15.0513
  44   2.0000      -0.530646       -14.4396
  45   2.0000      -0.523602       -14.2479
  46   2.0000      -0.520208       -14.1556
  47   2.0000      -0.514860       -14.0100
  48   2.0000      -0.505907       -13.7664
  49   2.0000      -0.494552       -13.4575
  50   2.0000      -0.493298       -13.4233
  51   2.0000      -0.484540       -13.1850
  52   2.0000      -0.475421       -12.9369
  53   2.0000      -0.464609       -12.6426
  54   2.0000      -0.461466       -12.5571
  55   2.0000      -0.455025       -12.3819
  56   2.0000      -0.440622       -11.9899
  57   2.0000      -0.438842       -11.9415
  58   2.0000      -0.436683       -11.8828
  59   2.0000      -0.425694       -11.5837
  60   2.0000      -0.423964       -11.5366
  61   2.0000      -0.419453       -11.4139
  62   2.0000      -0.412533       -11.2256
  63   2.0000      -0.352240        -9.5849
  64   2.0000      -0.335662        -9.1338
  65   2.0000      -0.327832        -8.9208
  66   2.0000      -0.284249        -7.7348
  67   0.0000       0.028484         0.7751
  68   0.0000       0.066157         1.8002
  69   0.0000       0.098114         2.6698
  70   0.0000       0.122886         3.3439
  71   0.0000       0.133193         3.6244

MULLIKEN ATOMIC CHARGES
-----------------------
   0 S :    0.094068
   1 C :   -0.109790
   2 C :   -0.087052
   3 C :   -0.008770
   4 C :   -0.160035
   5 H :    0.034575
   6 C :    0.094079
   7 H :    0.041482
   8 H :    0.022689
   9 C :   -0.116001
  10 H :    0.031278
  11 H :    0.026896
  12 C :   -0.019144
  13 H :    0.027822
  14 H :    0.030844
  15 H :    0.014800
  16 S :    0.094333
  17 C :   -0.076124
  18 C :   -0.033950
  19 C :   -0.065659
  20 C :   -0.122981
  21 H :    0.035391
  22 C :    0.088618
  23 H :    0.022194
  24 H :    0.028076
  25 C :   -0.032052
  26 H :   -0.002569
  27 H :    0.017362
  28 C :   -0.033365
  29 H :    0.022501
  30 H :    0.031337
  31 H :    0.026303
  32 H :    0.038760
  33 H :    0.044084
Sum of atomic charges:   -0.0000000

LOEWDIN ATOMIC CHARGES
----------------------
   0 S :    0.395803
   1 C :   -0.192014
   2 C :   -0.068737
   3 C :   -0.076993
   4 C :   -0.186580
   5 H :    0.041707
   6 C :   -0.037360
   7 H :    0.036865
   8 H :    0.037585
   9 C :   -0.048898
  10 H :    0.025839
  11 H :    0.030397
  12 C :   -0.062098
  13 H :    0.028083
  14 H :    0.021015
  15 H :    0.018552
  16 S :    0.373284
  17 C :   -0.157356
  18 C :   -0.071466
  19 C :   -0.055458
  20 C :   -0.188221
  21 H :    0.042166
  22 C :   -0.016347
  23 H :    0.028806
  24 H :    0.024236
  25 C :   -0.030255
  26 H :    0.008650
  27 H :    0.024768
  28 C :   -0.066845
  29 H :    0.027443
  30 H :    0.022214
  31 H :    0.028534
  32 H :    0.025555
  33 H :    0.017127

  Mayer bond orders larger than 0.100000
B(  0-S ,  1-C ) :   1.1237 B(  0-S ,  4-C ) :   1.1519 B(  1-C ,  2-C ) :   1.6136
B(  1-C , 32-H ) :   0.9734 B(  2-C ,  3-C ) :   1.2417 B(  2-C ,  6-C ) :   1.0321
B(  3-C ,  4-C ) :   1.5731 B(  3-C ,  5-H ) :   0.9738 B(  4-C , 20-C ) :   1.0449
B(  6-C ,  7-H ) :   0.9269 B(  6-C ,  8-H ) :   0.9354 B(  6-C ,  9-C ) :   1.0527
B(  9-C , 10-H ) :   0.9609 B(  9-C , 11-H ) :   0.9526 B(  9-C , 12-C ) :   1.0903
B( 12-C , 13-H ) :   0.9737 B( 12-C , 14-H ) :   0.9759 B( 12-C , 15-H ) :   0.9728
B( 16-S , 17-C ) :   1.1480 B( 16-S , 20-C ) :   1.1047 B( 17-C , 18-C ) :   1.6339
B( 17-C , 33-H ) :   0.9693 B( 18-C , 19-C ) :   1.2040 B( 18-C , 21-H ) :   0.9889
B( 19-C , 20-C ) :   1.6592 B( 19-C , 22-C ) :   1.0420 B( 22-C , 23-H ) :   0.9326
B( 22-C , 24-H ) :   0.9339 B( 22-C , 25-C ) :   1.0530 B( 25-C , 26-H ) :   0.9527
B( 25-C , 27-H ) :   0.9501 B( 25-C , 28-C ) :   1.0845 B( 28-C , 29-H ) :   0.9728
B( 28-C , 30-H ) :   0.9778 B( 28-C , 31-H ) :   0.9713

Dispersion correction           -0.013901880
FINAL SINGLE POINT ENERGY     -1339.868378112007

DIPOLE MOMENT
-------------
                                X             Y             Z
Electronic contribution:     28.70823      -9.40919      13.96728
Nuclear contribution   :    -29.45478       9.67446     -13.97741
                        -----------------------------------------
Total Dipole Moment    :     -0.74655       0.26527      -0.01013
                        -----------------------------------------
Magnitude (a.u.)       :      0.79234
Magnitude (Debye)      :      2.01398

Rotational constants in cm-1:     0.017335     0.009053     0.006205
Rotational constants in MHz :   519.687670   271.412873   186.010170

                             ****ORCA TERMINATED NORMALLY****
TOTAL RUN TIME: 0 days 0 hours 0 minutes 21 seconds 521 msec
