                         Program Version 4.2.1 -  RELEASE  -
|  1> ! wB97X-D3 SP def2-SVP
|  2> %pal
|  3> nprocs 24
|  4> end
|  5>
|  6> * xyz 0 1
|  7> S 	 -102.312 	 65.3865 	 -6.24655
|  8> C 	 -102.356 	 65.5928 	 -4.532
|  9> C 	 -103.127 	 64.6238 	 -3.87505
| 10> C 	 -103.681 	 63.7032 	 -4.82013
| 11> C 	 -103.324 	 63.9233 	 -6.09217
| 12> H 	 -104.324 	 62.8316 	 -4.51787
| 13> C 	 -103.567 	 64.5846 	 -2.40823
| 14> H 	 -102.602 	 64.4976 	 -1.9007
| 15> H 	 -104.152 	 63.7702 	 -2.05552
| 16> C 	 -104.283 	 65.9322 	 -2.18223
| 17> H 	 -103.76 	 66.812 	 -2.60676
| 18> H 	 -105.223 	 65.8919 	 -2.72976
| 19> C 	 -104.449 	 66.3485 	 -0.633363
| 20> H 	 -104.952 	 65.5381 	 -0.122358
| 21> H 	 -103.469 	 66.4709 	 -0.178449
| 22> H 	 -104.938 	 67.2735 	 -0.422565
| 23> S 	 -102.166 	 62.6183 	 -8.22587
| 24> C 	 -102.939 	 61.3175 	 -9.06697
| 25> C 	 -104.245 	 61.2762 	 -8.60276
| 26> C 	 -104.617 	 62.2398 	 -7.59773
| 27> C 	 -103.493 	 62.9479 	 -7.1453
| 28> H 	 -104.977 	 60.6732 	 -9.12422
| 29> C 	 -105.99 	 62.2884 	 -6.99235
| 30> H 	 -106.056 	 62.7232 	 -6.00659
| 31> H 	 -106.447 	 61.3237 	 -6.6655
| 32> C 	 -106.987 	 62.7934 	 -7.98239
| 33> H 	 -106.994 	 62.2914 	 -8.94872
| 34> H 	 -106.573 	 63.7277 	 -8.33953
| 35> C 	 -108.326 	 63.11 	 -7.42524
| 36> H 	 -108.225 	 63.6718 	 -6.44654
| 37> H 	 -108.949 	 62.1847 	 -7.38635
| 38> H 	 -108.912 	 63.7209 	 -7.99154
| 39> H 	 -101.94 	 66.463 	 -4.03333
| 40> H 	 -102.495 	 60.843 	 -9.95753
| 41> *
| 42>
| 43>                          ****END OF INPUT****

CARTESIAN COORDINATES (ANGSTROEM)
---------------------------------
  S    -102.312000   65.386500   -6.246550
  C    -102.356000   65.592800   -4.532000
  C    -103.127000   64.623800   -3.875050
  C    -103.681000   63.703200   -4.820130
  C    -103.324000   63.923300   -6.092170
  H    -104.324000   62.831600   -4.517870
  C    -103.567000   64.584600   -2.408230
  H    -102.602000   64.497600   -1.900700
  H    -104.152000   63.770200   -2.055520
  C    -104.283000   65.932200   -2.182230
  H    -103.760000   66.812000   -2.606760
  H    -105.223000   65.891900   -2.729760
  C    -104.449000   66.348500   -0.633363
  H    -104.952000   65.538100   -0.122358
  H    -103.469000   66.470900   -0.178449
  H    -104.938000   67.273500   -0.422565
  S    -102.166000   62.618300   -8.225870
  C    -102.939000   61.317500   -9.066970
  C    -104.245000   61.276200   -8.602760
  C    -104.617000   62.239800   -7.597730
  C    -103.493000   62.947900   -7.145300
  H    -104.977000   60.673200   -9.124220
  C    -105.990000   62.288400   -6.992350
  H    -106.056000   62.723200   -6.006590
  H    -106.447000   61.323700   -6.665500
  C    -106.987000   62.793400   -7.982390
  H    -106.994000   62.291400   -8.948720
  H    -106.573000   63.727700   -8.339530
  C    -108.326000   63.110000   -7.425240
  H    -108.225000   63.671800   -6.446540
  H    -108.949000   62.184700   -7.386350
  H    -108.912000   63.720900   -7.991540
  H    -101.940000   66.463000   -4.033330
  H    -102.495000   60.843000   -9.957530

 Total Charge           Charge          ....    0
 Multiplicity           Mult            ....    1
 Number of Electrons    NEL             ....  134
 Basis Dimension        Dim             ....  322

ORBITAL ENERGIES
----------------

  NO   OCC          E(Eh)            E(eV)
   0   2.0000     -88.970778     -2421.0180
   1   2.0000     -88.959930     -2420.7228
   2   2.0000     -10.327794      -281.0336
   3   2.0000     -10.326640      -281.0021
   4   2.0000     -10.318473      -280.7799
   5   2.0000     -10.317606      -280.7563
   6   2.0000     -10.305563      -280.4286
   7   2.0000     -10.303867      -280.3825
   8   2.0000     -10.296601      -280.1848
   9   2.0000     -10.294596      -280.1302
  10   2.0000     -10.294236      -280.1204
  11   2.0000     -10.294031      -280.1148
  12   2.0000     -10.288004      -279.9508
  13   2.0000     -10.278408      -279.6897
  14   2.0000     -10.274883      -279.5938
  15   2.0000     -10.273490      -279.5559
  16   2.0000      -8.085179      -220.0089
  17   2.0000      -8.075367      -219.7419
  18   2.0000      -6.043746      -164.4587
  19   2.0000      -6.039827      -164.3520
  20   2.0000      -6.035804      -164.2426
  21   2.0000      -6.033862      -164.1897
  22   2.0000      -6.029599      -164.0737
  23   2.0000      -6.026250      -163.9826
  24   2.0000      -1.009229       -27.4625
  25   2.0000      -0.985979       -26.8299
  26   2.0000      -0.919090       -25.0097
  27   2.0000      -0.909140       -24.7389
  28   2.0000      -0.871383       -23.7115
  29   2.0000      -0.850780       -23.1509
  30   2.0000      -0.845059       -22.9952
  31   2.0000      -0.813437       -22.1348
  32   2.0000      -0.783473       -21.3194
  33   2.0000      -0.773045       -21.0356
  34   2.0000      -0.710002       -19.3201
  35   2.0000      -0.703546       -19.1445
  36   2.0000      -0.696395       -18.9499
  37   2.0000      -0.660026       -17.9602
  38   2.0000      -0.640292       -17.4232
  39   2.0000      -0.622368       -16.9355
  40   2.0000      -0.606187       -16.4952
  41   2.0000      -0.575280       -15.6542
  42   2.0000      -0.560596       -15.2546
  43   2.0000      -0.549829       -14.9616
  44   2.0000      -0.531636       -14.4666
  45   2.0000      -0.523901       -14.2561
  46   2.0000      -0.519380       -14.1330
  47   2.0000      -0.514962       -14.0128
  48   2.0000      -0.506358       -13.7787
  49   2.0000      -0.501002       -13.6330
  50   2.0000      -0.498647       -13.5689
  51   2.0000      -0.483860       -13.1665
  52   2.0000      -0.476491       -12.9660
  53   2.0000      -0.464891       -12.6503
  54   2.0000      -0.458373       -12.4730
  55   2.0000      -0.445914       -12.1339
  56   2.0000      -0.443478       -12.0677
  57   2.0000      -0.441090       -12.0027
  58   2.0000      -0.436464       -11.8768
  59   2.0000      -0.426751       -11.6125
  60   2.0000      -0.416496       -11.3334
  61   2.0000      -0.413461       -11.2508
  62   2.0000      -0.392247       -10.6736
  63   2.0000      -0.357514        -9.7285
  64   2.0000      -0.329866        -8.9761
  65   2.0000      -0.324500        -8.8301
  66   2.0000      -0.288414        -7.8481
  67   0.0000       0.027290         0.7426
  68   0.0000       0.071908         1.9567
  69   0.0000       0.108183         2.9438
  70   0.0000       0.121092         3.2951
  71   0.0000       0.137069         3.7298

MULLIKEN ATOMIC CHARGES
-----------------------
   0 S :    0.122362
   1 C :   -0.135638
   2 C :   -0.099769
   3 C :   -0.008285
   4 C :   -0.122973
   5 H :    0.040077
   6 C :    0.108138
   7 H :    0.034217
   8 H :    0.023417
   9 C :   -0.115359
  10 H :    0.035673
  11 H :    0.034432
  12 C :   -0.036665
  13 H :    0.026958
  14 H :    0.025451
  15 H :    0.032449
  16 S :    0.088664
  17 C :   -0.105002
  18 C :   -0.025190
  19 C :   -0.023797
  20 C :   -0.149795
  21 H :    0.019238
  22 C :    0.074942
  23 H :   -0.001843
  24 H :    0.017248
  25 C :   -0.088945
  26 H :    0.022830
  27 H :    0.010813
  28 C :   -0.005661
  29 H :    0.036552
  30 H :    0.029074
  31 H :    0.005167
  32 H :    0.053036
  33 H :    0.078184
Sum of atomic charges:   -0.0000000

LOEWDIN ATOMIC CHARGES
----------------------
   0 S :    0.403163
   1 C :   -0.201706
   2 C :   -0.056278
   3 C :   -0.063506
   4 C :   -0.187552
   5 H :    0.041783
   6 C :   -0.026008
   7 H :    0.035640
   8 H :    0.026689
   9 C :   -0.035847
  10 H :    0.025319
  11 H :    0.025312
  12 C :   -0.068554
  13 H :    0.020284
  14 H :    0.024106
  15 H :    0.021816
  16 S :    0.411925
  17 C :   -0.201616
  18 C :   -0.069945
  19 C :   -0.058946
  20 C :   -0.190972
  21 H :    0.027010
  22 C :   -0.039607
  23 H :    0.025665
  24 H :    0.032905
  25 C :   -0.051714
  26 H :    0.025539
  27 H :    0.022476
  28 C :   -0.062183
  29 H :    0.036158
  30 H :    0.029182
  31 H :    0.012545
  32 H :    0.026627
  33 H :    0.040287

  Mayer bond orders larger than 0.100000
B(  0-S ,  1-C ) :   1.1457 B(  0-S ,  4-C ) :   1.1259 B(  1-C ,  2-C ) :   1.6032
B(  1-C , 32-H ) :   0.9641 B(  2-C ,  3-C ) :   1.2571 B(  2-C ,  6-C ) :   1.0073
B(  3-C ,  4-C ) :   1.5879 B(  3-C ,  5-H ) :   0.9794 B(  4-C , 20-C ) :   1.0604
B(  6-C ,  7-H ) :   0.9346 B(  6-C ,  8-H ) :   0.9522 B(  6-C ,  9-C ) :   1.0470
B(  9-C , 10-H ) :   0.9668 B(  9-C , 11-H ) :   0.9589 B(  9-C , 12-C ) :   1.0594
B( 12-C , 13-H ) :   0.9782 B( 12-C , 14-H ) :   0.9781 B( 12-C , 15-H ) :   0.9785
B( 16-S , 17-C ) :   1.1586 B( 16-S , 20-C ) :   1.1516 B( 17-C , 18-C ) :   1.5740
B( 17-C , 33-H ) :   0.9691 B( 18-C , 19-C ) :   1.2690 B( 18-C , 21-H ) :   0.9845
B( 19-C , 20-C ) :   1.5492 B( 19-C , 22-C ) :   1.0487 B( 22-C , 23-H ) :   0.9326
B( 22-C , 24-H ) :   0.9354 B( 22-C , 25-C ) :   1.0448 B( 25-C , 26-H ) :   0.9534
B( 25-C , 27-H ) :   0.9470 B( 25-C , 28-C ) :   1.0976 B( 28-C , 29-H ) :   0.9685
B( 28-C , 30-H ) :   0.9679 B( 28-C , 31-H ) :   0.9686

Dispersion correction           -0.013630380
FINAL SINGLE POINT ENERGY     -1339.857679857113

DIPOLE MOMENT
-------------
                                X             Y             Z
Electronic contribution:     22.84142      -3.15134     -17.46660
Nuclear contribution   :    -23.35400       3.15826      17.81055
                        -----------------------------------------
Total Dipole Moment    :     -0.51258       0.00692       0.34394
                        -----------------------------------------
Magnitude (a.u.)       :      0.61732
Magnitude (Debye)      :      1.56910

Rotational constants in cm-1:     0.018811     0.008090     0.006220
Rotational constants in MHz :   563.952007   242.530874   186.479402

                             ****ORCA TERMINATED NORMALLY****
TOTAL RUN TIME: 0 days 0 hours 0 minutes 21 seconds 107 msec
