                         Program Version 4.2.1 -  RELEASE  -
|  1> ! wB97X-D3 SP def2-SVP
|  2> %pal
|  3> nprocs 24
|  4> end
|  5>
|  6> * xyz 0 1
|  7> S 	 -124.804 	 62.5231 	 -35.1646
|  8> C 	 -124.518 	 64.1673 	 -34.617
|  9> C 	 -123.427 	 64.718 	 -35.2263
| 10> C 	 -122.598 	 63.6866 	 -35.7707
| 11> C 	 -123.163 	 62.4124 	 -35.7353
| 12> H 	 -121.623 	 63.8039 	 -36.2537
| 13> C 	 -123.084 	 66.2112 	 -35.3272
| 14> H 	 -122.415 	 66.4393 	 -34.4822
| 15> H 	 -123.927 	 66.847 	 -35.1985
| 16> C 	 -122.555 	 66.6081 	 -36.6688
| 17> H 	 -122.172 	 67.6919 	 -36.5903
| 18> H 	 -121.709 	 66.1412 	 -37.0164
| 19> C 	 -123.543 	 66.4164 	 -37.802
| 20> H 	 -123.924 	 65.4318 	 -37.9365
| 21> H 	 -124.364 	 67.1047 	 -37.5952
| 22> H 	 -123.119 	 66.734 	 -38.7881
| 23> S 	 -123.506 	 60.6963 	 -37.8307
| 24> C 	 -122.032 	 59.934 	 -38.4681
| 25> C 	 -121.029 	 59.8251 	 -37.4731
| 26> C 	 -121.294 	 60.7129 	 -36.3626
| 27> C 	 -122.587 	 61.2242 	 -36.3754
| 28> H 	 -120.176 	 59.2284 	 -37.6097
| 29> C 	 -120.238 	 61.0735 	 -35.3903
| 30> H 	 -119.906 	 60.1252 	 -35.0227
| 31> H 	 -120.714 	 61.7031 	 -34.6226
| 32> C 	 -119.068 	 61.7908 	 -36.0726
| 33> H 	 -119.582 	 62.6741 	 -36.5353
| 34> H 	 -118.614 	 61.2303 	 -36.8784
| 35> C 	 -118.089 	 62.3043 	 -35.09
| 36> H 	 -118.338 	 63.27 	 -34.6061
| 37> H 	 -117.274 	 62.5275 	 -35.696
| 38> H 	 -117.698 	 61.5604 	 -34.4749
| 39> H 	 -125.364 	 64.7288 	 -34.1238
| 40> H 	 -122.079 	 59.6674 	 -39.4688
| 41> *
| 42>
| 43>                          ****END OF INPUT****

CARTESIAN COORDINATES (ANGSTROEM)
---------------------------------
  S    -124.804000   62.523100  -35.164600
  C    -124.518000   64.167300  -34.617000
  C    -123.427000   64.718000  -35.226300
  C    -122.598000   63.686600  -35.770700
  C    -123.163000   62.412400  -35.735300
  H    -121.623000   63.803900  -36.253700
  C    -123.084000   66.211200  -35.327200
  H    -122.415000   66.439300  -34.482200
  H    -123.927000   66.847000  -35.198500
  C    -122.555000   66.608100  -36.668800
  H    -122.172000   67.691900  -36.590300
  H    -121.709000   66.141200  -37.016400
  C    -123.543000   66.416400  -37.802000
  H    -123.924000   65.431800  -37.936500
  H    -124.364000   67.104700  -37.595200
  H    -123.119000   66.734000  -38.788100
  S    -123.506000   60.696300  -37.830700
  C    -122.032000   59.934000  -38.468100
  C    -121.029000   59.825100  -37.473100
  C    -121.294000   60.712900  -36.362600
  C    -122.587000   61.224200  -36.375400
  H    -120.176000   59.228400  -37.609700
  C    -120.238000   61.073500  -35.390300
  H    -119.906000   60.125200  -35.022700
  H    -120.714000   61.703100  -34.622600
  C    -119.068000   61.790800  -36.072600
  H    -119.582000   62.674100  -36.535300
  H    -118.614000   61.230300  -36.878400
  C    -118.089000   62.304300  -35.090000
  H    -118.338000   63.270000  -34.606100
  H    -117.274000   62.527500  -35.696000
  H    -117.698000   61.560400  -34.474900
  H    -125.364000   64.728800  -34.123800
  H    -122.079000   59.667400  -39.468800

 Total Charge           Charge          ....    0
 Multiplicity           Mult            ....    1
 Number of Electrons    NEL             ....  134
 Basis Dimension        Dim             ....  322

ORBITAL ENERGIES
----------------

  NO   OCC          E(Eh)            E(eV)
   0   2.0000     -88.962045     -2420.7803
   1   2.0000     -88.960275     -2420.7321
   2   2.0000     -10.328338      -281.0484
   3   2.0000     -10.325453      -280.9699
   4   2.0000     -10.324329      -280.9393
   5   2.0000     -10.313588      -280.6470
   6   2.0000     -10.304620      -280.4030
   7   2.0000     -10.301802      -280.3263
   8   2.0000     -10.301193      -280.3097
   9   2.0000     -10.293126      -280.0902
  10   2.0000     -10.292043      -280.0607
  11   2.0000     -10.286503      -279.9100
  12   2.0000     -10.285654      -279.8869
  13   2.0000     -10.282266      -279.7947
  14   2.0000     -10.272941      -279.5409
  15   2.0000     -10.266837      -279.3748
  16   2.0000      -8.077137      -219.7901
  17   2.0000      -8.074610      -219.7213
  18   2.0000      -6.035629      -164.2378
  19   2.0000      -6.033119      -164.1695
  20   2.0000      -6.031855      -164.1351
  21   2.0000      -6.029370      -164.0675
  22   2.0000      -6.027649      -164.0207
  23   2.0000      -6.025195      -163.9539
  24   2.0000      -1.002818       -27.2881
  25   2.0000      -0.978879       -26.6366
  26   2.0000      -0.920220       -25.0404
  27   2.0000      -0.916979       -24.9523
  28   2.0000      -0.866451       -23.5773
  29   2.0000      -0.859193       -23.3798
  30   2.0000      -0.841386       -22.8953
  31   2.0000      -0.809722       -22.0337
  32   2.0000      -0.786607       -21.4047
  33   2.0000      -0.774567       -21.0770
  34   2.0000      -0.705615       -19.2007
  35   2.0000      -0.699927       -19.0460
  36   2.0000      -0.690154       -18.7800
  37   2.0000      -0.666271       -18.1302
  38   2.0000      -0.638842       -17.3838
  39   2.0000      -0.620874       -16.8948
  40   2.0000      -0.600264       -16.3340
  41   2.0000      -0.578539       -15.7429
  42   2.0000      -0.565809       -15.3965
  43   2.0000      -0.558828       -15.2065
  44   2.0000      -0.536478       -14.5983
  45   2.0000      -0.532141       -14.4803
  46   2.0000      -0.521977       -14.2037
  47   2.0000      -0.517357       -14.0780
  48   2.0000      -0.509536       -13.8652
  49   2.0000      -0.489650       -13.3241
  50   2.0000      -0.487083       -13.2542
  51   2.0000      -0.482519       -13.1300
  52   2.0000      -0.470174       -12.7941
  53   2.0000      -0.467453       -12.7200
  54   2.0000      -0.454496       -12.3675
  55   2.0000      -0.450447       -12.2573
  56   2.0000      -0.441115       -12.0034
  57   2.0000      -0.437953       -11.9173
  58   2.0000      -0.434915       -11.8346
  59   2.0000      -0.423189       -11.5156
  60   2.0000      -0.422369       -11.4933
  61   2.0000      -0.415469       -11.3055
  62   2.0000      -0.409953       -11.1554
  63   2.0000      -0.343891        -9.3577
  64   2.0000      -0.327005        -8.8983
  65   2.0000      -0.324298        -8.8246
  66   2.0000      -0.285177        -7.7601
  67   0.0000       0.032548         0.8857
  68   0.0000       0.052306         1.4233
  69   0.0000       0.104441         2.8420
  70   0.0000       0.116144         3.1604
  71   0.0000       0.125633         3.4186

MULLIKEN ATOMIC CHARGES
-----------------------
   0 S :    0.097971
   1 C :   -0.148398
   2 C :   -0.092260
   3 C :    0.010771
   4 C :   -0.149255
   5 H :    0.009173
   6 C :    0.122080
   7 H :    0.044880
   8 H :    0.008501
   9 C :   -0.085067
  10 H :    0.032264
  11 H :    0.005937
  12 C :   -0.052122
  13 H :    0.048123
  14 H :    0.019642
  15 H :    0.033376
  16 S :    0.068498
  17 C :   -0.093606
  18 C :    0.012893
  19 C :   -0.090571
  20 C :   -0.108851
  21 H :    0.010344
  22 C :    0.100437
  23 H :    0.018280
  24 H :    0.038723
  25 C :   -0.133855
  26 H :    0.024854
  27 H :    0.030224
  28 C :    0.044881
  29 H :    0.044038
  30 H :    0.000852
  31 H :    0.012719
  32 H :    0.067258
  33 H :    0.047268
Sum of atomic charges:   -0.0000000

LOEWDIN ATOMIC CHARGES
----------------------
   0 S :    0.396456
   1 C :   -0.202659
   2 C :   -0.063535
   3 C :   -0.069462
   4 C :   -0.197056
   5 H :    0.028768
   6 C :   -0.025884
   7 H :    0.038314
   8 H :    0.026134
   9 C :   -0.046522
  10 H :    0.035647
  11 H :    0.007305
  12 C :   -0.060044
  13 H :    0.025008
  14 H :    0.022064
  15 H :    0.031336
  16 S :    0.362718
  17 C :   -0.145845
  18 C :   -0.059651
  19 C :   -0.046356
  20 C :   -0.190248
  21 H :    0.023218
  22 C :   -0.030400
  23 H :    0.028254
  24 H :    0.037260
  25 C :   -0.038537
  26 H :    0.028027
  27 H :    0.022041
  28 C :   -0.060834
  29 H :    0.035156
  30 H :    0.023276
  31 H :    0.018528
  32 H :    0.035927
  33 H :    0.011596

  Mayer bond orders larger than 0.100000
B(  0-S ,  1-C ) :   1.1322 B(  0-S ,  4-C ) :   1.1534 B(  1-C ,  2-C ) :   1.6254
B(  1-C , 32-H ) :   0.9618 B(  2-C ,  3-C ) :   1.2271 B(  2-C ,  6-C ) :   1.0071
B(  3-C ,  4-C ) :   1.5688 B(  3-C ,  5-H ) :   0.9908 B(  4-C , 20-C ) :   1.0177
B(  6-C ,  7-H ) :   0.9346 B(  6-C ,  8-H ) :   0.9434 B(  6-C ,  9-C ) :   1.0760
B(  9-C , 10-H ) :   0.9506 B(  9-C , 11-H ) :   0.9540 B(  9-C , 12-C ) :   1.0728
B( 12-C , 13-H ) :   0.9744 B( 12-C , 14-H ) :   0.9757 B( 12-C , 15-H ) :   0.9731
B( 16-S , 17-C ) :   1.1713 B( 16-S , 20-C ) :   1.1000 B( 17-C , 18-C ) :   1.5856
B( 17-C , 33-H ) :   0.9832 B( 18-C , 19-C ) :   1.1950 B( 18-C , 21-H ) :   1.0004
B( 19-C , 20-C ) :   1.6453 B( 19-C , 22-C ) :   1.0618 B( 22-C , 23-H ) :   0.9143
B( 22-C , 24-H ) :   0.9371 B( 22-C , 25-C ) :   1.0630 B( 25-C , 26-H ) :   0.9496
B( 25-C , 27-H ) :   0.9545 B( 25-C , 28-C ) :   1.1009 B( 28-C , 29-H ) :   0.9700
B( 28-C , 30-H ) :   0.9609 B( 28-C , 31-H ) :   0.9639

Dispersion correction           -0.014958479
FINAL SINGLE POINT ENERGY     -1339.845980338593

DIPOLE MOMENT
-------------
                                X             Y             Z
Electronic contribution:    -19.34687     -17.63136      -0.07328
Nuclear contribution   :     20.10283      18.04671      -0.17052
                        -----------------------------------------
Total Dipole Moment    :      0.75597       0.41535      -0.24379
                        -----------------------------------------
Magnitude (a.u.)       :      0.89635
Magnitude (Debye)      :      2.27834

Rotational constants in cm-1:     0.016329     0.009972     0.007952
Rotational constants in MHz :   489.545282   298.944934   238.401717

                             ****ORCA TERMINATED NORMALLY****
TOTAL RUN TIME: 0 days 0 hours 0 minutes 22 seconds 386 msec
