                         Program Version 4.2.1 -  RELEASE  -
|  1> ! wB97X-D3 SP def2-SVP
|  2> %pal
|  3> nprocs 24
|  4> end
|  5>
|  6> * xyz 0 1
|  7> S 	 -126.713 	 63.1615 	 -57.9299
|  8> C 	 -125.465 	 64.2779 	 -57.5161
|  9> C 	 -124.673 	 63.8914 	 -56.4393
| 10> C 	 -125.173 	 62.6932 	 -55.8891
| 11> C 	 -126.326 	 62.2172 	 -56.5255
| 12> H 	 -124.766 	 62.1776 	 -55.0308
| 13> C 	 -123.433 	 64.689 	 -56.047
| 14> H 	 -123.215 	 65.3401 	 -56.8332
| 15> H 	 -122.577 	 63.9868 	 -56.0895
| 16> C 	 -123.425 	 65.2871 	 -54.589
| 17> H 	 -123.358 	 64.5785 	 -53.7588
| 18> H 	 -122.497 	 65.8364 	 -54.4656
| 19> C 	 -124.561 	 66.2022 	 -54.0652
| 20> H 	 -125.527 	 65.7143 	 -54.0621
| 21> H 	 -124.173 	 66.4564 	 -53.0826
| 22> H 	 -124.711 	 67.035 	 -54.6672
| 23> S 	 -127.751 	 60.0792 	 -57.5718
| 24> C 	 -128.557 	 58.981 	 -56.5026
| 25> C 	 -128.469 	 59.3937 	 -55.2068
| 26> C 	 -127.474 	 60.4347 	 -55.0465
| 27> C 	 -127.098 	 61.0227 	 -56.274
| 28> H 	 -129.118 	 58.9062 	 -54.5261
| 29> C 	 -126.985 	 60.8618 	 -53.6978
| 30> H 	 -127.69 	 60.6935 	 -52.8866
| 31> H 	 -126.741 	 61.9852 	 -53.6332
| 32> C 	 -125.733 	 60.1244 	 -53.173
| 33> H 	 -124.882 	 60.2354 	 -53.8343
| 34> H 	 -126.015 	 59.0801 	 -53.055
| 35> C 	 -125.427 	 60.6078 	 -51.7429
| 36> H 	 -126.198 	 60.6003 	 -50.9721
| 37> H 	 -125.158 	 61.66 	 -51.6024
| 38> H 	 -124.582 	 60.0729 	 -51.2561
| 39> H 	 -125.17 	 65.2228 	 -57.9632
| 40> H 	 -129.067 	 58.1003 	 -56.8913
| 41> *
| 42>
| 43>                          ****END OF INPUT****

CARTESIAN COORDINATES (ANGSTROEM)
---------------------------------
  S    -126.713000   63.161500  -57.929900
  C    -125.465000   64.277900  -57.516100
  C    -124.673000   63.891400  -56.439300
  C    -125.173000   62.693200  -55.889100
  C    -126.326000   62.217200  -56.525500
  H    -124.766000   62.177600  -55.030800
  C    -123.433000   64.689000  -56.047000
  H    -123.215000   65.340100  -56.833200
  H    -122.577000   63.986800  -56.089500
  C    -123.425000   65.287100  -54.589000
  H    -123.358000   64.578500  -53.758800
  H    -122.497000   65.836400  -54.465600
  C    -124.561000   66.202200  -54.065200
  H    -125.527000   65.714300  -54.062100
  H    -124.173000   66.456400  -53.082600
  H    -124.711000   67.035000  -54.667200
  S    -127.751000   60.079200  -57.571800
  C    -128.557000   58.981000  -56.502600
  C    -128.469000   59.393700  -55.206800
  C    -127.474000   60.434700  -55.046500
  C    -127.098000   61.022700  -56.274000
  H    -129.118000   58.906200  -54.526100
  C    -126.985000   60.861800  -53.697800
  H    -127.690000   60.693500  -52.886600
  H    -126.741000   61.985200  -53.633200
  C    -125.733000   60.124400  -53.173000
  H    -124.882000   60.235400  -53.834300
  H    -126.015000   59.080100  -53.055000
  C    -125.427000   60.607800  -51.742900
  H    -126.198000   60.600300  -50.972100
  H    -125.158000   61.660000  -51.602400
  H    -124.582000   60.072900  -51.256100
  H    -125.170000   65.222800  -57.963200
  H    -129.067000   58.100300  -56.891300

 Total Charge           Charge          ....    0
 Multiplicity           Mult            ....    1
 Number of Electrons    NEL             ....  134
 Basis Dimension        Dim             ....  322

ORBITAL ENERGIES
----------------

  NO   OCC          E(Eh)            E(eV)
   0   2.0000     -88.970877     -2421.0207
   1   2.0000     -88.963792     -2420.8279
   2   2.0000     -10.330135      -281.0973
   3   2.0000     -10.327547      -281.0268
   4   2.0000     -10.315127      -280.6889
   5   2.0000     -10.308989      -280.5218
   6   2.0000     -10.307661      -280.4857
   7   2.0000     -10.298712      -280.2422
   8   2.0000     -10.297218      -280.2015
   9   2.0000     -10.294389      -280.1246
  10   2.0000     -10.293985      -280.1136
  11   2.0000     -10.293799      -280.1085
  12   2.0000     -10.290607      -280.0217
  13   2.0000     -10.290515      -280.0191
  14   2.0000     -10.280799      -279.7548
  15   2.0000     -10.270274      -279.4684
  16   2.0000      -8.085961      -220.0302
  17   2.0000      -8.079368      -219.8508
  18   2.0000      -6.044339      -164.4748
  19   2.0000      -6.040547      -164.3716
  20   2.0000      -6.037843      -164.2981
  21   2.0000      -6.036717      -164.2674
  22   2.0000      -6.033716      -164.1857
  23   2.0000      -6.030164      -164.0891
  24   2.0000      -1.011548       -27.5256
  25   2.0000      -0.987973       -26.8841
  26   2.0000      -0.910138       -24.7661
  27   2.0000      -0.907278       -24.6883
  28   2.0000      -0.871728       -23.7209
  29   2.0000      -0.853299       -23.2195
  30   2.0000      -0.846823       -23.0432
  31   2.0000      -0.819067       -22.2879
  32   2.0000      -0.787646       -21.4329
  33   2.0000      -0.770778       -20.9739
  34   2.0000      -0.713447       -19.4139
  35   2.0000      -0.700528       -19.0623
  36   2.0000      -0.692227       -18.8365
  37   2.0000      -0.664160       -18.0727
  38   2.0000      -0.635112       -17.2823
  39   2.0000      -0.624301       -16.9881
  40   2.0000      -0.598784       -16.2937
  41   2.0000      -0.571408       -15.5488
  42   2.0000      -0.564728       -15.3670
  43   2.0000      -0.550002       -14.9663
  44   2.0000      -0.541350       -14.7309
  45   2.0000      -0.525808       -14.3080
  46   2.0000      -0.520657       -14.1678
  47   2.0000      -0.512415       -13.9435
  48   2.0000      -0.504546       -13.7294
  49   2.0000      -0.496301       -13.5050
  50   2.0000      -0.490286       -13.3414
  51   2.0000      -0.481746       -13.1090
  52   2.0000      -0.468358       -12.7447
  53   2.0000      -0.466633       -12.6977
  54   2.0000      -0.456116       -12.4116
  55   2.0000      -0.452235       -12.3059
  56   2.0000      -0.445125       -12.1125
  57   2.0000      -0.441741       -12.0204
  58   2.0000      -0.432122       -11.7586
  59   2.0000      -0.425235       -11.5712
  60   2.0000      -0.420321       -11.4375
  61   2.0000      -0.417716       -11.3666
  62   2.0000      -0.415501       -11.3064
  63   2.0000      -0.356618        -9.7041
  64   2.0000      -0.335171        -9.1205
  65   2.0000      -0.326826        -8.8934
  66   2.0000      -0.280511        -7.6331
  67   0.0000       0.026207         0.7131
  68   0.0000       0.075005         2.0410
  69   0.0000       0.115301         3.1375
  70   0.0000       0.117775         3.2048
  71   0.0000       0.126079         3.4308

MULLIKEN ATOMIC CHARGES
-----------------------
   0 S :    0.127833
   1 C :   -0.105584
   2 C :   -0.114592
   3 C :    0.025095
   4 C :   -0.143623
   5 H :   -0.010372
   6 C :    0.126566
   7 H :    0.000070
   8 H :    0.034603
   9 C :   -0.104253
  10 H :    0.025302
  11 H :    0.023224
  12 C :   -0.021245
  13 H :    0.040825
  14 H :    0.033199
  15 H :    0.013045
  16 S :    0.099334
  17 C :   -0.110503
  18 C :   -0.002821
  19 C :   -0.016127
  20 C :   -0.116748
  21 H :    0.013003
  22 C :   -0.011234
  23 H :    0.014590
  24 H :    0.041912
  25 C :   -0.031643
  26 H :    0.041087
  27 H :    0.031118
  28 C :   -0.073874
  29 H :    0.020318
  30 H :    0.015537
  31 H :    0.035504
  32 H :    0.034950
  33 H :    0.065504
Sum of atomic charges:   -0.0000000

LOEWDIN ATOMIC CHARGES
----------------------
   0 S :    0.428537
   1 C :   -0.213388
   2 C :   -0.063130
   3 C :   -0.063520
   4 C :   -0.188772
   5 H :    0.027712
   6 C :   -0.025199
   7 H :    0.021612
   8 H :    0.041679
   9 C :   -0.044416
  10 H :    0.024826
  11 H :    0.023397
  12 C :   -0.056826
  13 H :    0.026593
  14 H :    0.030765
  15 H :    0.011588
  16 S :    0.410595
  17 C :   -0.188638
  18 C :   -0.065288
  19 C :   -0.054410
  20 C :   -0.206620
  21 H :    0.030111
  22 C :   -0.044013
  23 H :    0.028659
  24 H :    0.035917
  25 C :   -0.031693
  26 H :    0.021268
  27 H :    0.027907
  28 C :   -0.082020
  29 H :    0.024686
  30 H :    0.022776
  31 H :    0.029821
  32 H :    0.027579
  33 H :    0.031903

  Mayer bond orders larger than 0.100000
B(  0-S ,  1-C ) :   1.1430 B(  0-S ,  4-C ) :   1.1567 B(  1-C ,  2-C ) :   1.6037
B(  1-C , 32-H ) :   0.9578 B(  2-C ,  3-C ) :   1.2623 B(  2-C ,  6-C ) :   1.0279
B(  3-C ,  4-C ) :   1.5291 B(  3-C ,  5-H ) :   0.9978 B(  4-C , 20-C ) :   1.0817
B(  6-C ,  7-H ) :   0.9377 B(  6-C ,  8-H ) :   0.9341 B(  6-C ,  9-C ) :   1.0507
B(  9-C , 10-H ) :   0.9623 B(  9-C , 11-H ) :   0.9583 B(  9-C , 12-C ) :   1.0723
B( 12-C , 13-H ) :   0.9744 B( 12-C , 14-H ) :   0.9749 B( 12-C , 15-H ) :   0.9779
B( 16-S , 17-C ) :   1.1581 B( 16-S , 20-C ) :   1.1388 B( 17-C , 18-C ) :   1.6052
B( 17-C , 33-H ) :   0.9675 B( 18-C , 19-C ) :   1.2272 B( 18-C , 21-H ) :   1.0017
B( 19-C , 20-C ) :   1.5589 B( 19-C , 22-C ) :   1.0642 B( 22-C , 23-H ) :   0.9375
B( 22-C , 24-H ) :   0.9342 B( 22-C , 25-C ) :   1.0572 B( 25-C , 26-H ) :   0.9529
B( 25-C , 27-H ) :   0.9509 B( 25-C , 28-C ) :   1.0716 B( 28-C , 29-H ) :   0.9722
B( 28-C , 30-H ) :   0.9721 B( 28-C , 31-H ) :   0.9748

Dispersion correction           -0.014330497
FINAL SINGLE POINT ENERGY     -1339.870472392147

DIPOLE MOMENT
-------------
                                X             Y             Z
Electronic contribution:    -15.04819      -9.64498     -27.02417
Nuclear contribution   :     15.33908       9.65960      27.60041
                        -----------------------------------------
Total Dipole Moment    :      0.29089       0.01462       0.57624
                        -----------------------------------------
Magnitude (a.u.)       :      0.64567
Magnitude (Debye)      :      1.64116

Rotational constants in cm-1:     0.017543     0.009880     0.006749
Rotational constants in MHz :   525.929657   296.202049   202.338946

                             ****ORCA TERMINATED NORMALLY****
TOTAL RUN TIME: 0 days 0 hours 0 minutes 21 seconds 931 msec
