                         Program Version 4.2.1 -  RELEASE  -
|  1> ! wB97X-D3 SP def2-SVP
|  2> %pal
|  3> nprocs 24
|  4> end
|  5>
|  6> * xyz 0 1
|  7> S 	 29.9222 	 -32.412 	 -130.356
|  8> C 	 31.4302 	 -32.2059 	 -131.231
|  9> C 	 31.6376 	 -30.9488 	 -131.771
| 10> C 	 30.4731 	 -30.1423 	 -131.497
| 11> C 	 29.561 	 -30.7334 	 -130.652
| 12> H 	 30.1801 	 -29.1161 	 -131.842
| 13> C 	 32.8186 	 -30.4728 	 -132.56
| 14> H 	 32.5848 	 -30.6107 	 -133.664
| 15> H 	 33.6191 	 -31.209 	 -132.459
| 16> C 	 33.3202 	 -29.0776 	 -132.232
| 17> H 	 32.4948 	 -28.4706 	 -132.489
| 18> H 	 33.485 	 -28.9635 	 -131.167
| 19> C 	 34.5505 	 -28.6914 	 -132.958
| 20> H 	 34.745 	 -27.6232 	 -132.613
| 21> H 	 35.4539 	 -29.1263 	 -132.595
| 22> H 	 34.4768 	 -28.8012 	 -134.012
| 23> S 	 26.8481 	 -31.1632 	 -130.348
| 24> C 	 25.8575 	 -29.9584 	 -129.601
| 25> C 	 26.5815 	 -28.7781 	 -129.397
| 26> C 	 27.9522 	 -28.8717 	 -129.799
| 27> C 	 28.3204 	 -30.1244 	 -130.258
| 28> H 	 26.1351 	 -27.9073 	 -128.992
| 29> C 	 28.8522 	 -27.7285 	 -129.475
| 30> H 	 28.4893 	 -26.8304 	 -130.091
| 31> H 	 29.8479 	 -27.8599 	 -129.863
| 32> C 	 29.0354 	 -27.2306 	 -127.994
| 33> H 	 29.3095 	 -28.1034 	 -127.45
| 34> H 	 28.0583 	 -26.9617 	 -127.679
| 35> C 	 30.0009 	 -26.0512 	 -127.905
| 36> H 	 30.1776 	 -25.8571 	 -126.827
| 37> H 	 29.6204 	 -25.2221 	 -128.468
| 38> H 	 30.9675 	 -26.2305 	 -128.174
| 39> H 	 32.1215 	 -33.0372 	 -131.415
| 40> H 	 24.7934 	 -29.9768 	 -129.38
| 41> *
| 42>
| 43>                          ****END OF INPUT****

CARTESIAN COORDINATES (ANGSTROEM)
---------------------------------
  S     29.922200  -32.412000  -130.356000
  C     31.430200  -32.205900  -131.231000
  C     31.637600  -30.948800  -131.771000
  C     30.473100  -30.142300  -131.497000
  C     29.561000  -30.733400  -130.652000
  H     30.180100  -29.116100  -131.842000
  C     32.818600  -30.472800  -132.560000
  H     32.584800  -30.610700  -133.664000
  H     33.619100  -31.209000  -132.459000
  C     33.320200  -29.077600  -132.232000
  H     32.494800  -28.470600  -132.489000
  H     33.485000  -28.963500  -131.167000
  C     34.550500  -28.691400  -132.958000
  H     34.745000  -27.623200  -132.613000
  H     35.453900  -29.126300  -132.595000
  H     34.476800  -28.801200  -134.012000
  S     26.848100  -31.163200  -130.348000
  C     25.857500  -29.958400  -129.601000
  C     26.581500  -28.778100  -129.397000
  C     27.952200  -28.871700  -129.799000
  C     28.320400  -30.124400  -130.258000
  H     26.135100  -27.907300  -128.992000
  C     28.852200  -27.728500  -129.475000
  H     28.489300  -26.830400  -130.091000
  H     29.847900  -27.859900  -129.863000
  C     29.035400  -27.230600  -127.994000
  H     29.309500  -28.103400  -127.450000
  H     28.058300  -26.961700  -127.679000
  C     30.000900  -26.051200  -127.905000
  H     30.177600  -25.857100  -126.827000
  H     29.620400  -25.222100  -128.468000
  H     30.967500  -26.230500  -128.174000
  H     32.121500  -33.037200  -131.415000
  H     24.793400  -29.976800  -129.380000

 Total Charge           Charge          ....    0
 Multiplicity           Mult            ....    1
 Number of Electrons    NEL             ....  134
 Basis Dimension        Dim             ....  322

ORBITAL ENERGIES
----------------

  NO   OCC          E(Eh)            E(eV)
   0   2.0000     -88.968585     -2420.9583
   1   2.0000     -88.964046     -2420.8348
   2   2.0000     -10.328367      -281.0492
   3   2.0000     -10.325328      -280.9665
   4   2.0000     -10.317839      -280.7627
   5   2.0000     -10.314591      -280.6743
   6   2.0000     -10.304120      -280.3894
   7   2.0000     -10.302017      -280.3321
   8   2.0000     -10.296426      -280.1800
   9   2.0000     -10.294497      -280.1275
  10   2.0000     -10.290352      -280.0147
  11   2.0000     -10.290073      -280.0071
  12   2.0000     -10.282631      -279.8046
  13   2.0000     -10.280877      -279.7569
  14   2.0000     -10.277185      -279.6564
  15   2.0000     -10.273176      -279.5473
  16   2.0000      -8.083277      -219.9571
  17   2.0000      -8.078311      -219.8220
  18   2.0000      -6.041772      -164.4050
  19   2.0000      -6.037978      -164.3017
  20   2.0000      -6.036931      -164.2733
  21   2.0000      -6.033864      -164.1898
  22   2.0000      -6.032822      -164.1614
  23   2.0000      -6.029041      -164.0586
  24   2.0000      -1.005927       -27.3727
  25   2.0000      -0.981139       -26.6982
  26   2.0000      -0.921047       -25.0630
  27   2.0000      -0.907021       -24.6813
  28   2.0000      -0.873603       -23.7720
  29   2.0000      -0.857398       -23.3310
  30   2.0000      -0.847720       -23.0676
  31   2.0000      -0.812098       -22.0983
  32   2.0000      -0.783527       -21.3208
  33   2.0000      -0.773210       -21.0401
  34   2.0000      -0.715059       -19.4577
  35   2.0000      -0.703964       -19.1558
  36   2.0000      -0.692396       -18.8411
  37   2.0000      -0.661130       -17.9903
  38   2.0000      -0.642068       -17.4716
  39   2.0000      -0.616582       -16.7781
  40   2.0000      -0.595376       -16.2010
  41   2.0000      -0.578944       -15.7539
  42   2.0000      -0.569477       -15.4963
  43   2.0000      -0.561264       -15.2728
  44   2.0000      -0.530881       -14.4460
  45   2.0000      -0.521549       -14.1921
  46   2.0000      -0.516966       -14.0674
  47   2.0000      -0.510566       -13.8932
  48   2.0000      -0.505382       -13.7521
  49   2.0000      -0.495426       -13.4812
  50   2.0000      -0.490139       -13.3374
  51   2.0000      -0.485346       -13.2069
  52   2.0000      -0.474588       -12.9142
  53   2.0000      -0.470335       -12.7985
  54   2.0000      -0.461894       -12.5688
  55   2.0000      -0.451083       -12.2746
  56   2.0000      -0.444941       -12.1075
  57   2.0000      -0.439378       -11.9561
  58   2.0000      -0.434547       -11.8246
  59   2.0000      -0.429405       -11.6847
  60   2.0000      -0.424466       -11.5503
  61   2.0000      -0.411462       -11.1965
  62   2.0000      -0.408484       -11.1154
  63   2.0000      -0.350992        -9.5510
  64   2.0000      -0.331084        -9.0092
  65   2.0000      -0.327246        -8.9048
  66   2.0000      -0.285391        -7.7659
  67   0.0000       0.026148         0.7115
  68   0.0000       0.075446         2.0530
  69   0.0000       0.106413         2.8956
  70   0.0000       0.118987         3.2378
  71   0.0000       0.129986         3.5371

MULLIKEN ATOMIC CHARGES
-----------------------
   0 S :    0.119424
   1 C :   -0.130816
   2 C :   -0.058420
   3 C :   -0.019833
   4 C :   -0.142008
   5 H :    0.039525
   6 C :    0.053099
   7 H :    0.045943
   8 H :    0.003807
   9 C :   -0.065234
  10 H :    0.022341
  11 H :    0.031878
  12 C :   -0.018398
  13 H :    0.031472
  14 H :    0.022347
  15 H :    0.032017
  16 S :    0.094145
  17 C :   -0.080759
  18 C :   -0.045671
  19 C :    0.003210
  20 C :   -0.154750
  21 H :    0.007241
  22 C :   -0.012135
  23 H :    0.029071
  24 H :    0.002081
  25 C :   -0.026763
  26 H :    0.030160
  27 H :    0.012211
  28 C :   -0.006377
  29 H :    0.032961
  30 H :    0.031631
  31 H :    0.006821
  32 H :    0.048761
  33 H :    0.061019
Sum of atomic charges:   -0.0000000

LOEWDIN ATOMIC CHARGES
----------------------
   0 S :    0.405055
   1 C :   -0.196132
   2 C :   -0.060690
   3 C :   -0.065319
   4 C :   -0.200121
   5 H :    0.039306
   6 C :   -0.040083
   7 H :    0.041793
   8 H :    0.025114
   9 C :   -0.041064
  10 H :    0.019511
  11 H :    0.029427
  12 C :   -0.060274
  13 H :    0.038960
  14 H :    0.022253
  15 H :    0.021403
  16 S :    0.387642
  17 C :   -0.191212
  18 C :   -0.067666
  19 C :   -0.061499
  20 C :   -0.177464
  21 H :    0.023716
  22 C :   -0.043239
  23 H :    0.035653
  24 H :    0.018612
  25 C :   -0.025583
  26 H :    0.023180
  27 H :    0.015234
  28 C :   -0.055888
  29 H :    0.037065
  30 H :    0.026564
  31 H :    0.012552
  32 H :    0.028584
  33 H :    0.034608

  Mayer bond orders larger than 0.100000
B(  0-S ,  1-C ) :   1.1297 B(  0-S ,  4-C ) :   1.1333 B(  1-C ,  2-C ) :   1.6331
B(  1-C , 32-H ) :   0.9611 B(  2-C ,  3-C ) :   1.2036 B(  2-C ,  6-C ) :   1.0330
B(  3-C ,  4-C ) :   1.5978 B(  3-C ,  5-H ) :   0.9775 B(  4-C , 20-C ) :   1.0753
B(  6-C ,  7-H ) :   0.9277 B(  6-C ,  8-H ) :   0.9351 B(  6-C ,  9-C ) :   1.0598
B(  9-C , 10-H ) :   0.9473 B(  9-C , 11-H ) :   0.9546 B(  9-C , 12-C ) :   1.1059
B( 12-C , 13-H ) :   0.9678 B( 12-C , 14-H ) :   0.9703 B( 12-C , 15-H ) :   0.9721
B( 16-S , 17-C ) :   1.1539 B( 16-S , 20-C ) :   1.1149 B( 17-C , 18-C ) :   1.6033
B( 17-C , 33-H ) :   0.9654 B( 18-C , 19-C ) :   1.2335 B( 18-C , 21-H ) :   0.9950
B( 19-C , 20-C ) :   1.5924 B( 19-C , 22-C ) :   1.0632 B( 22-C , 23-H ) :   0.9260
B( 22-C , 24-H ) :   0.9369 B( 22-C , 25-C ) :   1.0543 B( 25-C , 26-H ) :   0.9559
B( 25-C , 27-H ) :   0.9516 B( 25-C , 28-C ) :   1.0875 B( 28-C , 29-H ) :   0.9689
B( 28-C , 30-H ) :   0.9741 B( 28-C , 31-H ) :   0.9732

Dispersion correction           -0.013461908
FINAL SINGLE POINT ENERGY     -1339.874080315566

DIPOLE MOMENT
-------------
                                X             Y             Z
Electronic contribution:    -20.71920     -24.40094       0.47637
Nuclear contribution   :     21.15069      25.00709      -0.53663
                        -----------------------------------------
Total Dipole Moment    :      0.43149       0.60615      -0.06026
                        -----------------------------------------
Magnitude (a.u.)       :      0.74648
Magnitude (Debye)      :      1.89740

Rotational constants in cm-1:     0.016238     0.009121     0.006391
Rotational constants in MHz :   486.792520   273.429594   191.611481

                             ****ORCA TERMINATED NORMALLY****
TOTAL RUN TIME: 0 days 0 hours 0 minutes 20 seconds 138 msec
