                         Program Version 4.2.1 -  RELEASE  -
|  1> ! wB97X-D3 SP def2-SVP
|  2> %pal
|  3> nprocs 24
|  4> end
|  5>
|  6> * xyz 0 1
|  7> S 	 -102.63 	 -0.0802664 	 -107.964
|  8> C 	 -103.558 	 -0.466642 	 -106.498
|  9> C 	 -103.453 	 0.518629 	 -105.566
| 10> C 	 -102.845 	 1.68776 	 -106.124
| 11> C 	 -102.567 	 1.57626 	 -107.456
| 12> H 	 -102.879 	 2.68027 	 -105.673
| 13> C 	 -103.969 	 0.46304 	 -104.127
| 14> H 	 -103.896 	 1.52992 	 -103.857
| 15> H 	 -103.245 	 -0.0776331 	 -103.497
| 16> C 	 -105.507 	 -0.0245176 	 -104.015
| 17> H 	 -106.095 	 0.454586 	 -104.779
| 18> H 	 -105.633 	 -1.13026 	 -104.094
| 19> C 	 -106.082 	 0.356457 	 -102.633
| 20> H 	 -107.174 	 0.132849 	 -102.552
| 21> H 	 -105.496 	 -0.0176891 	 -101.769
| 22> H 	 -106.001 	 1.42862 	 -102.495
| 23> S 	 -102.738 	 2.52309 	 -109.966
| 24> C 	 -101.831 	 3.86164 	 -110.538
| 25> C 	 -101.11 	 4.43058 	 -109.552
| 26> C 	 -101.236 	 3.79717 	 -108.289
| 27> C 	 -102.083 	 2.68034 	 -108.363
| 28> H 	 -100.459 	 5.31468 	 -109.778
| 29> C 	 -100.281 	 4.33063 	 -107.11
| 30> H 	 -100.878 	 4.2891 	 -106.232
| 31> H 	 -100.134 	 5.41057 	 -107.201
| 32> C 	 -98.9689 	 3.39793 	 -106.937
| 33> H 	 -98.403 	 3.40555 	 -107.849
| 34> H 	 -99.2088 	 2.3302 	 -106.84
| 35> C 	 -98.2428 	 3.87736 	 -105.67
| 36> H 	 -97.3583 	 3.24978 	 -105.584
| 37> H 	 -98.9292 	 3.71831 	 -104.856
| 38> H 	 -98.0111 	 4.98788 	 -105.661
| 39> H 	 -104.045 	 -1.41611 	 -106.398
| 40> H 	 -101.866 	 4.22172 	 -111.524
| 41> *
| 42>
| 43>                          ****END OF INPUT****

CARTESIAN COORDINATES (ANGSTROEM)
---------------------------------
  S    -102.630000   -0.080266  -107.964000
  C    -103.558000   -0.466642  -106.498000
  C    -103.453000    0.518629  -105.566000
  C    -102.845000    1.687760  -106.124000
  C    -102.567000    1.576260  -107.456000
  H    -102.879000    2.680270  -105.673000
  C    -103.969000    0.463040  -104.127000
  H    -103.896000    1.529920  -103.857000
  H    -103.245000   -0.077633  -103.497000
  C    -105.507000   -0.024518  -104.015000
  H    -106.095000    0.454586  -104.779000
  H    -105.633000   -1.130260  -104.094000
  C    -106.082000    0.356457  -102.633000
  H    -107.174000    0.132849  -102.552000
  H    -105.496000   -0.017689  -101.769000
  H    -106.001000    1.428620  -102.495000
  S    -102.738000    2.523090  -109.966000
  C    -101.831000    3.861640  -110.538000
  C    -101.110000    4.430580  -109.552000
  C    -101.236000    3.797170  -108.289000
  C    -102.083000    2.680340  -108.363000
  H    -100.459000    5.314680  -109.778000
  C    -100.281000    4.330630  -107.110000
  H    -100.878000    4.289100  -106.232000
  H    -100.134000    5.410570  -107.201000
  C    -98.968900    3.397930  -106.937000
  H    -98.403000    3.405550  -107.849000
  H    -99.208800    2.330200  -106.840000
  C    -98.242800    3.877360  -105.670000
  H    -97.358300    3.249780  -105.584000
  H    -98.929200    3.718310  -104.856000
  H    -98.011100    4.987880  -105.661000
  H    -104.045000   -1.416110  -106.398000
  H    -101.866000    4.221720  -111.524000

 Total Charge           Charge          ....    0
 Multiplicity           Mult            ....    1
 Number of Electrons    NEL             ....  134
 Basis Dimension        Dim             ....  322

ORBITAL ENERGIES
----------------

  NO   OCC          E(Eh)            E(eV)
   0   2.0000     -88.963308     -2420.8147
   1   2.0000     -88.962014     -2420.7795
   2   2.0000     -10.330394      -281.1043
   3   2.0000     -10.329451      -281.0787
   4   2.0000     -10.308662      -280.5130
   5   2.0000     -10.308088      -280.4973
   6   2.0000     -10.304800      -280.4079
   7   2.0000     -10.302565      -280.3471
   8   2.0000     -10.300051      -280.2786
   9   2.0000     -10.299380      -280.2604
  10   2.0000     -10.298227      -280.2290
  11   2.0000     -10.290367      -280.0151
  12   2.0000     -10.289401      -279.9888
  13   2.0000     -10.288949      -279.9765
  14   2.0000     -10.282449      -279.7997
  15   2.0000     -10.281059      -279.7618
  16   2.0000      -8.078160      -219.8179
  17   2.0000      -8.077722      -219.8060
  18   2.0000      -6.036688      -164.2666
  19   2.0000      -6.036089      -164.2503
  20   2.0000      -6.032908      -164.1638
  21   2.0000      -6.031979      -164.1385
  22   2.0000      -6.028677      -164.0486
  23   2.0000      -6.028631      -164.0474
  24   2.0000      -1.008240       -27.4356
  25   2.0000      -0.987775       -26.8787
  26   2.0000      -0.902468       -24.5574
  27   2.0000      -0.895259       -24.3612
  28   2.0000      -0.864907       -23.5353
  29   2.0000      -0.848611       -23.0919
  30   2.0000      -0.844431       -22.9781
  31   2.0000      -0.813491       -22.1362
  32   2.0000      -0.775919       -21.1138
  33   2.0000      -0.768591       -20.9144
  34   2.0000      -0.707666       -19.2566
  35   2.0000      -0.703284       -19.1373
  36   2.0000      -0.690441       -18.7879
  37   2.0000      -0.659174       -17.9370
  38   2.0000      -0.638154       -17.3651
  39   2.0000      -0.615375       -16.7452
  40   2.0000      -0.592986       -16.1360
  41   2.0000      -0.561894       -15.2899
  42   2.0000      -0.558981       -15.2106
  43   2.0000      -0.551024       -14.9941
  44   2.0000      -0.529247       -14.4015
  45   2.0000      -0.523836       -14.2543
  46   2.0000      -0.514555       -14.0018
  47   2.0000      -0.508469       -13.8362
  48   2.0000      -0.499188       -13.5836
  49   2.0000      -0.493951       -13.4411
  50   2.0000      -0.487484       -13.2651
  51   2.0000      -0.478593       -13.0232
  52   2.0000      -0.473922       -12.8961
  53   2.0000      -0.462559       -12.5869
  54   2.0000      -0.454662       -12.3720
  55   2.0000      -0.451733       -12.2923
  56   2.0000      -0.445442       -12.1211
  57   2.0000      -0.437812       -11.9135
  58   2.0000      -0.431865       -11.7516
  59   2.0000      -0.424843       -11.5606
  60   2.0000      -0.422789       -11.5047
  61   2.0000      -0.420546       -11.4436
  62   2.0000      -0.409029       -11.1302
  63   2.0000      -0.348162        -9.4740
  64   2.0000      -0.332075        -9.0362
  65   2.0000      -0.327709        -8.9174
  66   2.0000      -0.291045        -7.9197
  67   0.0000       0.029056         0.7907
  68   0.0000       0.080402         2.1879
  69   0.0000       0.106062         2.8861
  70   0.0000       0.122156         3.3240
  71   0.0000       0.141272         3.8442

MULLIKEN ATOMIC CHARGES
-----------------------
   0 S :    0.104082
   1 C :   -0.137808
   2 C :   -0.077623
   3 C :    0.002427
   4 C :   -0.114270
   5 H :    0.021923
   6 C :    0.061347
   7 H :    0.017663
   8 H :    0.054519
   9 C :   -0.081014
  10 H :    0.041279
  11 H :    0.045984
  12 C :   -0.071636
  13 H :    0.045942
  14 H :    0.035541
  15 H :    0.019756
  16 S :    0.102118
  17 C :   -0.064746
  18 C :   -0.057677
  19 C :   -0.040419
  20 C :   -0.183163
  21 H :    0.032740
  22 C :    0.067710
  23 H :    0.002115
  24 H :    0.026240
  25 C :   -0.066922
  26 H :    0.027666
  27 H :    0.041488
  28 C :   -0.041891
  29 H :    0.041182
  30 H :    0.028617
  31 H :    0.040252
  32 H :    0.040886
  33 H :    0.035692
Sum of atomic charges:   -0.0000000

LOEWDIN ATOMIC CHARGES
----------------------
   0 S :    0.389145
   1 C :   -0.182988
   2 C :   -0.064026
   3 C :   -0.077809
   4 C :   -0.192196
   5 H :    0.031839
   6 C :   -0.028077
   7 H :    0.030026
   8 H :    0.037049
   9 C :   -0.035309
  10 H :    0.026340
  11 H :    0.028114
  12 C :   -0.076004
  13 H :    0.031290
  14 H :    0.027890
  15 H :    0.019801
  16 S :    0.427475
  17 C :   -0.191455
  18 C :   -0.082205
  19 C :   -0.058978
  20 C :   -0.200890
  21 H :    0.039683
  22 C :   -0.023025
  23 H :    0.018324
  24 H :    0.030622
  25 C :   -0.032536
  26 H :    0.019188
  27 H :    0.031768
  28 C :   -0.066630
  29 H :    0.027181
  30 H :    0.022987
  31 H :    0.030941
  32 H :    0.021940
  33 H :    0.020523

  Mayer bond orders larger than 0.100000
B(  0-S ,  1-C ) :   1.1128 B(  0-S ,  4-C ) :   1.1542 B(  1-C ,  2-C ) :   1.6299
B(  1-C , 32-H ) :   0.9798 B(  2-C ,  3-C ) :   1.2248 B(  2-C ,  6-C ) :   1.0088
B(  3-C ,  4-C ) :   1.6164 B(  3-C ,  5-H ) :   0.9867 B(  4-C , 20-C ) :   1.0109
B(  6-C ,  7-H ) :   0.9484 B(  6-C ,  8-H ) :   0.9349 B(  6-C ,  9-C ) :   1.0512
B(  9-C , 10-H ) :   0.9614 B(  9-C , 11-H ) :   0.9558 B(  9-C , 12-C ) :   1.0840
B( 12-C , 13-H ) :   0.9744 B( 12-C , 14-H ) :   0.9741 B( 12-C , 15-H ) :   0.9760
B( 16-S , 17-C ) :   1.1583 B( 16-S , 20-C ) :   1.1664 B( 17-C , 18-C ) :   1.6046
B( 17-C , 33-H ) :   0.9737 B( 18-C , 19-C ) :   1.2625 B( 18-C , 21-H ) :   0.9821
B( 19-C , 20-C ) :   1.5805 B( 19-C , 22-C ) :   1.0215 B( 22-C , 23-H ) :   0.9404
B( 22-C , 24-H ) :   0.9445 B( 22-C , 25-C ) :   1.0411 B( 25-C , 26-H ) :   0.9619
B( 25-C , 27-H ) :   0.9579 B( 25-C , 28-C ) :   1.0710 B( 28-C , 29-H ) :   0.9734
B( 28-C , 30-H ) :   0.9765 B( 28-C , 31-H ) :   0.9755

Dispersion correction           -0.013503471
FINAL SINGLE POINT ENERGY     -1339.868530068616

DIPOLE MOMENT
-------------
                                X             Y             Z
Electronic contribution:     -2.67698      -5.04046     -26.01786
Nuclear contribution   :      2.77037       5.32064      26.52190
                        -----------------------------------------
Total Dipole Moment    :      0.09339       0.28018       0.50404
                        -----------------------------------------
Magnitude (a.u.)       :      0.58419
Magnitude (Debye)      :      1.48490

Rotational constants in cm-1:     0.018410     0.007661     0.006230
Rotational constants in MHz :   551.911026   229.675020   186.774463

                             ****ORCA TERMINATED NORMALLY****
TOTAL RUN TIME: 0 days 0 hours 0 minutes 20 seconds 818 msec
