                         Program Version 4.2.1 -  RELEASE  -
|  1> ! wB97X-D3 SP def2-SVP
|  2> %pal
|  3> nprocs 24
|  4> end
|  5>
|  6> * xyz 0 1
|  7> S 	 -112.564 	 48.156 	 -76.2049
|  8> C 	 -113.538 	 48.3028 	 -77.5965
|  9> C 	 -114.194 	 49.5093 	 -77.6676
| 10> C 	 -113.764 	 50.3601 	 -76.6028
| 11> C 	 -113.051 	 49.6871 	 -75.6248
| 12> H 	 -114.135 	 51.3192 	 -76.4138
| 13> C 	 -115.322 	 49.8422 	 -78.6373
| 14> H 	 -114.922 	 49.6216 	 -79.7397
| 15> H 	 -115.522 	 50.9338 	 -78.7615
| 16> C 	 -116.784 	 49.3733 	 -78.1456
| 17> H 	 -117.54 	 49.782 	 -78.8058
| 18> H 	 -116.854 	 48.2924 	 -78.2505
| 19> C 	 -117.089 	 49.8776 	 -76.7686
| 20> H 	 -116.797 	 49.1518 	 -75.9993
| 21> H 	 -116.694 	 50.7678 	 -76.4452
| 22> H 	 -118.233 	 50.0634 	 -76.7709
| 23> S 	 -112.537 	 48.9276 	 -72.935
| 24> C 	 -112.343 	 50.1116 	 -71.722
| 25> C 	 -112.293 	 51.3616 	 -72.2613
| 26> C 	 -112.536 	 51.4048 	 -73.6929
| 27> C 	 -112.768 	 50.1592 	 -74.2341
| 28> H 	 -112.143 	 52.2141 	 -71.633
| 29> C 	 -112.431 	 52.6079 	 -74.4909
| 30> H 	 -113.422 	 52.8849 	 -74.7095
| 31> H 	 -111.952 	 52.4024 	 -75.5304
| 32> C 	 -111.657 	 53.8331 	 -73.8902
| 33> H 	 -110.684 	 53.5929 	 -73.5195
| 34> H 	 -112.208 	 54.2927 	 -73.0744
| 35> C 	 -111.589 	 54.9481 	 -74.968
| 36> H 	 -111.211 	 55.9139 	 -74.5882
| 37> H 	 -112.641 	 55.1714 	 -75.2111
| 38> H 	 -110.988 	 54.6942 	 -75.8608
| 39> H 	 -113.81 	 47.4904 	 -78.3257
| 40> H 	 -112.039 	 49.9638 	 -70.7321
| 41> *
| 42>
| 43>                          ****END OF INPUT****

CARTESIAN COORDINATES (ANGSTROEM)
---------------------------------
  S    -112.564000   48.156000  -76.204900
  C    -113.538000   48.302800  -77.596500
  C    -114.194000   49.509300  -77.667600
  C    -113.764000   50.360100  -76.602800
  C    -113.051000   49.687100  -75.624800
  H    -114.135000   51.319200  -76.413800
  C    -115.322000   49.842200  -78.637300
  H    -114.922000   49.621600  -79.739700
  H    -115.522000   50.933800  -78.761500
  C    -116.784000   49.373300  -78.145600
  H    -117.540000   49.782000  -78.805800
  H    -116.854000   48.292400  -78.250500
  C    -117.089000   49.877600  -76.768600
  H    -116.797000   49.151800  -75.999300
  H    -116.694000   50.767800  -76.445200
  H    -118.233000   50.063400  -76.770900
  S    -112.537000   48.927600  -72.935000
  C    -112.343000   50.111600  -71.722000
  C    -112.293000   51.361600  -72.261300
  C    -112.536000   51.404800  -73.692900
  C    -112.768000   50.159200  -74.234100
  H    -112.143000   52.214100  -71.633000
  C    -112.431000   52.607900  -74.490900
  H    -113.422000   52.884900  -74.709500
  H    -111.952000   52.402400  -75.530400
  C    -111.657000   53.833100  -73.890200
  H    -110.684000   53.592900  -73.519500
  H    -112.208000   54.292700  -73.074400
  C    -111.589000   54.948100  -74.968000
  H    -111.211000   55.913900  -74.588200
  H    -112.641000   55.171400  -75.211100
  H    -110.988000   54.694200  -75.860800
  H    -113.810000   47.490400  -78.325700
  H    -112.039000   49.963800  -70.732100

 Total Charge           Charge          ....    0
 Multiplicity           Mult            ....    1
 Number of Electrons    NEL             ....  134
 Basis Dimension        Dim             ....  322

ORBITAL ENERGIES
----------------

  NO   OCC          E(Eh)            E(eV)
   0   2.0000     -88.968411     -2420.9535
   1   2.0000     -88.962170     -2420.7837
   2   2.0000     -10.331479      -281.1338
   3   2.0000     -10.331284      -281.1285
   4   2.0000     -10.311145      -280.5805
   5   2.0000     -10.310102      -280.5521
   6   2.0000     -10.308173      -280.4996
   7   2.0000     -10.300874      -280.3010
   8   2.0000     -10.300829      -280.2998
   9   2.0000     -10.292969      -280.0859
  10   2.0000     -10.291981      -280.0590
  11   2.0000     -10.290760      -280.0258
  12   2.0000     -10.290205      -280.0107
  13   2.0000     -10.289793      -279.9995
  14   2.0000     -10.283902      -279.8392
  15   2.0000     -10.275908      -279.6217
  16   2.0000      -8.084472      -219.9897
  17   2.0000      -8.077046      -219.7876
  18   2.0000      -6.042905      -164.4358
  19   2.0000      -6.038726      -164.3221
  20   2.0000      -6.035721      -164.2403
  21   2.0000      -6.035305      -164.2290
  22   2.0000      -6.031504      -164.1256
  23   2.0000      -6.027658      -164.0209
  24   2.0000      -1.012577       -27.5536
  25   2.0000      -0.990437       -26.9512
  26   2.0000      -0.912956       -24.8428
  27   2.0000      -0.906536       -24.6681
  28   2.0000      -0.870450       -23.6861
  29   2.0000      -0.855545       -23.2806
  30   2.0000      -0.845300       -23.0018
  31   2.0000      -0.816959       -22.2306
  32   2.0000      -0.779277       -21.2052
  33   2.0000      -0.769089       -20.9280
  34   2.0000      -0.710457       -19.3325
  35   2.0000      -0.701869       -19.0988
  36   2.0000      -0.698167       -18.9981
  37   2.0000      -0.656704       -17.8698
  38   2.0000      -0.637922       -17.3587
  39   2.0000      -0.616928       -16.7875
  40   2.0000      -0.600108       -16.3298
  41   2.0000      -0.576220       -15.6797
  42   2.0000      -0.573524       -15.6064
  43   2.0000      -0.549886       -14.9632
  44   2.0000      -0.539591       -14.6830
  45   2.0000      -0.525219       -14.2919
  46   2.0000      -0.515649       -14.0315
  47   2.0000      -0.507611       -13.8128
  48   2.0000      -0.506318       -13.7776
  49   2.0000      -0.499031       -13.5793
  50   2.0000      -0.488541       -13.2939
  51   2.0000      -0.480234       -13.0678
  52   2.0000      -0.474013       -12.8985
  53   2.0000      -0.463056       -12.6004
  54   2.0000      -0.461507       -12.5583
  55   2.0000      -0.454587       -12.3699
  56   2.0000      -0.442997       -12.0546
  57   2.0000      -0.437620       -11.9083
  58   2.0000      -0.428013       -11.6468
  59   2.0000      -0.424022       -11.5382
  60   2.0000      -0.422625       -11.5002
  61   2.0000      -0.415446       -11.3049
  62   2.0000      -0.407636       -11.0923
  63   2.0000      -0.356807        -9.7092
  64   2.0000      -0.332301        -9.0424
  65   2.0000      -0.326175        -8.8757
  66   2.0000      -0.286894        -7.8068
  67   0.0000       0.025084         0.6826
  68   0.0000       0.081141         2.2080
  69   0.0000       0.110682         3.0118
  70   0.0000       0.127305         3.4641
  71   0.0000       0.135114         3.6766

MULLIKEN ATOMIC CHARGES
-----------------------
   0 S :    0.130803
   1 C :   -0.123905
   2 C :   -0.080390
   3 C :    0.030990
   4 C :   -0.141650
   5 H :   -0.018141
   6 C :   -0.031254
   7 H :    0.053406
   8 H :    0.029765
   9 C :   -0.041595
  10 H :    0.031783
  11 H :    0.033745
  12 C :   -0.052185
  13 H :    0.051245
  14 H :    0.009521
  15 H :    0.039159
  16 S :    0.087045
  17 C :   -0.039359
  18 C :   -0.044947
  19 C :   -0.020572
  20 C :   -0.133730
  21 H :    0.010630
  22 C :   -0.012805
  23 H :    0.029216
  24 H :    0.054496
  25 C :   -0.052383
  26 H :    0.032743
  27 H :    0.028715
  28 C :   -0.062218
  29 H :    0.031108
  30 H :    0.024354
  31 H :    0.045296
  32 H :    0.062460
  33 H :    0.038653
Sum of atomic charges:   -0.0000000

LOEWDIN ATOMIC CHARGES
----------------------
   0 S :    0.442191
   1 C :   -0.222161
   2 C :   -0.069281
   3 C :   -0.060998
   4 C :   -0.200177
   5 H :    0.016302
   6 C :   -0.052812
   7 H :    0.043704
   8 H :    0.030250
   9 C :   -0.034155
  10 H :    0.023542
  11 H :    0.022983
  12 C :   -0.066066
  13 H :    0.035222
  14 H :    0.010152
  15 H :    0.040325
  16 S :    0.391073
  17 C :   -0.186205
  18 C :   -0.071104
  19 C :   -0.060207
  20 C :   -0.178055
  21 H :    0.027153
  22 C :   -0.040512
  23 H :    0.026796
  24 H :    0.046497
  25 C :   -0.034032
  26 H :    0.019368
  27 H :    0.023586
  28 C :   -0.067246
  29 H :    0.025807
  30 H :    0.025713
  31 H :    0.026739
  32 H :    0.041316
  33 H :    0.024293

  Mayer bond orders larger than 0.100000
B(  0-S ,  1-C ) :   1.1450 B(  0-S ,  4-C ) :   1.1688 B(  1-C ,  2-C ) :   1.6140
B(  1-C , 32-H ) :   0.9568 B(  2-C ,  3-C ) :   1.2571 B(  2-C ,  6-C ) :   1.0269
B(  3-C ,  4-C ) :   1.5398 B(  3-C ,  5-H ) :   1.0001 B(  4-C , 20-C ) :   1.0584
B(  6-C ,  7-H ) :   0.9478 B(  6-C ,  8-H ) :   0.9498 B(  6-C ,  9-C ) :   1.0407
B(  9-C , 10-H ) :   0.9681 B(  9-C , 11-H ) :   0.9602 B(  9-C , 12-C ) :   1.0660
B( 12-C , 13-H ) :   0.9715 B( 12-C , 14-H ) :   0.9767 B( 12-C , 15-H ) :   0.9744
B( 16-S , 17-C ) :   1.1588 B( 16-S , 20-C ) :   1.1142 B( 17-C , 18-C ) :   1.6150
B( 17-C , 33-H ) :   0.9644 B( 18-C , 19-C ) :   1.2348 B( 18-C , 21-H ) :   0.9908
B( 19-C , 20-C ) :   1.6022 B( 19-C , 22-C ) :   1.0526 B( 22-C , 23-H ) :   0.9097
B( 22-C , 24-H ) :   0.9384 B( 22-C , 25-C ) :   1.0717 B( 25-C , 26-H ) :   0.9597
B( 25-C , 27-H ) :   0.9437 B( 25-C , 28-C ) :   1.0840 B( 28-C , 29-H ) :   0.9741
B( 28-C , 30-H ) :   0.9738 B( 28-C , 31-H ) :   0.9767

Dispersion correction           -0.014329654
FINAL SINGLE POINT ENERGY     -1339.859371876171

DIPOLE MOMENT
-------------
                                X             Y             Z
Electronic contribution:     11.20957     -21.40782       9.23378
Nuclear contribution   :    -11.51221      22.03646      -9.29998
                        -----------------------------------------
Total Dipole Moment    :     -0.30264       0.62863      -0.06620
                        -----------------------------------------
Magnitude (a.u.)       :      0.70082
Magnitude (Debye)      :      1.78135

Rotational constants in cm-1:     0.017351     0.008861     0.007099
Rotational constants in MHz :   520.160258   265.661063   212.814590

                             ****ORCA TERMINATED NORMALLY****
TOTAL RUN TIME: 0 days 0 hours 0 minutes 21 seconds 701 msec
