                         Program Version 4.2.1 -  RELEASE  -
|  1> ! wB97X-D3 SP def2-SVP
|  2> %pal
|  3> nprocs 24
|  4> end
|  5>
|  6> * xyz 0 1
|  7> S 	 -2.79499 	 -30.9181 	 -115.914
|  8> C 	 -4.35888 	 -30.6978 	 -116.729
|  9> C 	 -5.42769 	 -30.8781 	 -115.876
| 10> C 	 -5.00109 	 -31.3907 	 -114.635
| 11> C 	 -3.60624 	 -31.4396 	 -114.44
| 12> H 	 -5.65933 	 -31.6929 	 -113.803
| 13> C 	 -6.81807 	 -30.5984 	 -116.238
| 14> H 	 -6.87896 	 -30.32 	 -117.293
| 15> H 	 -7.08854 	 -29.6158 	 -115.734
| 16> C 	 -7.8853 	 -31.6169 	 -115.877
| 17> H 	 -7.4098 	 -32.5635 	 -116.296
| 18> H 	 -7.93166 	 -31.6621 	 -114.867
| 19> C 	 -9.29509 	 -31.2927 	 -116.405
| 20> H 	 -9.35268 	 -31.0243 	 -117.413
| 21> H 	 -9.80973 	 -32.276 	 -116.288
| 22> H 	 -9.76165 	 -30.5516 	 -115.876
| 23> S 	 -1.23515 	 -32.2319 	 -113.299
| 24> C 	 -0.967675 	 -32.2812 	 -111.619
| 25> C 	 -2.13555 	 -31.7885 	 -110.995
| 26> C 	 -3.20672 	 -31.377 	 -111.854
| 27> C 	 -2.85322 	 -31.6227 	 -113.166
| 28> H 	 -2.12381 	 -31.776 	 -109.892
| 29> C 	 -4.48987 	 -30.8458 	 -111.333
| 30> H 	 -4.81553 	 -30.0655 	 -112.089
| 31> H 	 -4.21197 	 -30.3568 	 -110.413
| 32> C 	 -5.51465 	 -31.8386 	 -110.83
| 33> H 	 -5.97568 	 -32.3184 	 -111.723
| 34> H 	 -6.26964 	 -31.2139 	 -110.351
| 35> C 	 -5.0643 	 -32.9171 	 -109.852
| 36> H 	 -4.52998 	 -32.4766 	 -108.98
| 37> H 	 -4.34569 	 -33.6337 	 -110.298
| 38> H 	 -5.91039 	 -33.4655 	 -109.397
| 39> H 	 -4.54081 	 -30.5243 	 -117.776
| 40> H 	 -0.104601 	 -32.6801 	 -111.039
| 41> *
| 42>
| 43>                          ****END OF INPUT****

CARTESIAN COORDINATES (ANGSTROEM)
---------------------------------
  S     -2.794990  -30.918100  -115.914000
  C     -4.358880  -30.697800  -116.729000
  C     -5.427690  -30.878100  -115.876000
  C     -5.001090  -31.390700  -114.635000
  C     -3.606240  -31.439600  -114.440000
  H     -5.659330  -31.692900  -113.803000
  C     -6.818070  -30.598400  -116.238000
  H     -6.878960  -30.320000  -117.293000
  H     -7.088540  -29.615800  -115.734000
  C     -7.885300  -31.616900  -115.877000
  H     -7.409800  -32.563500  -116.296000
  H     -7.931660  -31.662100  -114.867000
  C     -9.295090  -31.292700  -116.405000
  H     -9.352680  -31.024300  -117.413000
  H     -9.809730  -32.276000  -116.288000
  H     -9.761650  -30.551600  -115.876000
  S     -1.235150  -32.231900  -113.299000
  C     -0.967675  -32.281200  -111.619000
  C     -2.135550  -31.788500  -110.995000
  C     -3.206720  -31.377000  -111.854000
  C     -2.853220  -31.622700  -113.166000
  H     -2.123810  -31.776000  -109.892000
  C     -4.489870  -30.845800  -111.333000
  H     -4.815530  -30.065500  -112.089000
  H     -4.211970  -30.356800  -110.413000
  C     -5.514650  -31.838600  -110.830000
  H     -5.975680  -32.318400  -111.723000
  H     -6.269640  -31.213900  -110.351000
  C     -5.064300  -32.917100  -109.852000
  H     -4.529980  -32.476600  -108.980000
  H     -4.345690  -33.633700  -110.298000
  H     -5.910390  -33.465500  -109.397000
  H     -4.540810  -30.524300  -117.776000
  H     -0.104601  -32.680100  -111.039000

 Total Charge           Charge          ....    0
 Multiplicity           Mult            ....    1
 Number of Electrons    NEL             ....  134
 Basis Dimension        Dim             ....  322

ORBITAL ENERGIES
----------------

  NO   OCC          E(Eh)            E(eV)
   0   2.0000     -88.967281     -2420.9228
   1   2.0000     -88.966081     -2420.8901
   2   2.0000     -10.335656      -281.2475
   3   2.0000     -10.328462      -281.0517
   4   2.0000     -10.320386      -280.8320
   5   2.0000     -10.312010      -280.6040
   6   2.0000     -10.302004      -280.3318
   7   2.0000     -10.296596      -280.1846
   8   2.0000     -10.296564      -280.1838
   9   2.0000     -10.295987      -280.1681
  10   2.0000     -10.292818      -280.0818
  11   2.0000     -10.292243      -280.0662
  12   2.0000     -10.290108      -280.0081
  13   2.0000     -10.286043      -279.8975
  14   2.0000     -10.284485      -279.8551
  15   2.0000     -10.273566      -279.5579
  16   2.0000      -8.081742      -219.9154
  17   2.0000      -8.081148      -219.8992
  18   2.0000      -6.040191      -164.3619
  19   2.0000      -6.039740      -164.3497
  20   2.0000      -6.035939      -164.2462
  21   2.0000      -6.035825      -164.2431
  22   2.0000      -6.032689      -164.1578
  23   2.0000      -6.031825      -164.1343
  24   2.0000      -1.008618       -27.4459
  25   2.0000      -0.985687       -26.8219
  26   2.0000      -0.919543       -25.0220
  27   2.0000      -0.917656       -24.9707
  28   2.0000      -0.869157       -23.6510
  29   2.0000      -0.854412       -23.2497
  30   2.0000      -0.842822       -22.9344
  31   2.0000      -0.813364       -22.1328
  32   2.0000      -0.788361       -21.4524
  33   2.0000      -0.778284       -21.1782
  34   2.0000      -0.714578       -19.4446
  35   2.0000      -0.701878       -19.0991
  36   2.0000      -0.689159       -18.7530
  37   2.0000      -0.662568       -18.0294
  38   2.0000      -0.636305       -17.3147
  39   2.0000      -0.618813       -16.8388
  40   2.0000      -0.590084       -16.0570
  41   2.0000      -0.576257       -15.6808
  42   2.0000      -0.566617       -15.4184
  43   2.0000      -0.559363       -15.2210
  44   2.0000      -0.548166       -14.9163
  45   2.0000      -0.529398       -14.4056
  46   2.0000      -0.514344       -13.9960
  47   2.0000      -0.512339       -13.9415
  48   2.0000      -0.501198       -13.6383
  49   2.0000      -0.497956       -13.5501
  50   2.0000      -0.492363       -13.3979
  51   2.0000      -0.488176       -13.2839
  52   2.0000      -0.476790       -12.9741
  53   2.0000      -0.466154       -12.6847
  54   2.0000      -0.463224       -12.6050
  55   2.0000      -0.451843       -12.2953
  56   2.0000      -0.445501       -12.1227
  57   2.0000      -0.437117       -11.8946
  58   2.0000      -0.432201       -11.7608
  59   2.0000      -0.424141       -11.5415
  60   2.0000      -0.420624       -11.4458
  61   2.0000      -0.419533       -11.4161
  62   2.0000      -0.411277       -11.1914
  63   2.0000      -0.350158        -9.5283
  64   2.0000      -0.331281        -9.0146
  65   2.0000      -0.329103        -8.9553
  66   2.0000      -0.285124        -7.7586
  67   0.0000       0.023880         0.6498
  68   0.0000       0.081312         2.2126
  69   0.0000       0.105505         2.8709
  70   0.0000       0.121742         3.3128
  71   0.0000       0.126167         3.4332

MULLIKEN ATOMIC CHARGES
-----------------------
   0 S :    0.103228
   1 C :   -0.115862
   2 C :   -0.072570
   3 C :   -0.013566
   4 C :   -0.101209
   5 H :    0.002232
   6 C :    0.052268
   7 H :    0.005033
   8 H :    0.035374
   9 C :   -0.083714
  10 H :    0.042431
  11 H :    0.013471
  12 C :    0.007213
  13 H :    0.016531
  14 H :    0.042288
  15 H :    0.016646
  16 S :    0.112686
  17 C :   -0.102264
  18 C :   -0.081374
  19 C :   -0.039772
  20 C :   -0.157237
  21 H :    0.021227
  22 C :    0.051290
  23 H :    0.057146
  24 H :    0.009419
  25 C :   -0.051975
  26 H :    0.032337
  27 H :    0.033814
  28 C :   -0.075247
  29 H :    0.023224
  30 H :    0.055812
  31 H :    0.044486
  32 H :    0.039935
  33 H :    0.076700
Sum of atomic charges:   -0.0000000

LOEWDIN ATOMIC CHARGES
----------------------
   0 S :    0.390366
   1 C :   -0.190482
   2 C :   -0.066888
   3 C :   -0.073140
   4 C :   -0.183010
   5 H :    0.030097
   6 C :   -0.040830
   7 H :    0.026203
   8 H :    0.038363
   9 C :   -0.033753
  10 H :    0.034326
  11 H :    0.008520
  12 C :   -0.049277
  13 H :    0.017681
  14 H :    0.039911
  15 H :    0.014868
  16 S :    0.434215
  17 C :   -0.216601
  18 C :   -0.077363
  19 C :   -0.062361
  20 C :   -0.203415
  21 H :    0.029229
  22 C :   -0.042170
  23 H :    0.045910
  24 H :    0.030863
  25 C :   -0.040100
  26 H :    0.020874
  27 H :    0.027606
  28 C :   -0.071387
  29 H :    0.024040
  30 H :    0.032224
  31 H :    0.033106
  32 H :    0.026842
  33 H :    0.045532

  Mayer bond orders larger than 0.100000
B(  0-S ,  1-C ) :   1.1260 B(  0-S ,  4-C ) :   1.1546 B(  1-C ,  2-C ) :   1.6022
B(  1-C ,  4-C ) :   0.1013 B(  1-C , 32-H ) :   0.9629 B(  2-C ,  3-C ) :   1.2508
B(  2-C ,  6-C ) :   1.0485 B(  3-C ,  4-C ) :   1.5544 B(  3-C ,  5-H ) :   0.9886
B(  4-C , 20-C ) :   1.0377 B(  6-C ,  7-H ) :   0.9360 B(  6-C ,  8-H ) :   0.9183
B(  6-C ,  9-C ) :   1.0572 B(  9-C , 10-H ) :   0.9642 B(  9-C , 11-H ) :   0.9457
B(  9-C , 12-C ) :   1.0846 B( 12-C , 13-H ) :   0.9761 B( 12-C , 14-H ) :   0.9738
B( 12-C , 15-H ) :   0.9731 B( 16-S , 17-C ) :   1.1694 B( 16-S , 20-C ) :   1.1596
B( 17-C , 18-C ) :   1.5816 B( 17-C , 33-H ) :   0.9648 B( 18-C , 19-C ) :   1.2570
B( 18-C , 21-H ) :   0.9831 B( 19-C , 20-C ) :   1.5553 B( 19-C , 22-C ) :   1.0492
B( 22-C , 23-H ) :   0.9309 B( 22-C , 24-H ) :   0.9165 B( 22-C , 25-C ) :   1.0722
B( 25-C , 26-H ) :   0.9456 B( 25-C , 27-H ) :   0.9527 B( 25-C , 28-C ) :   1.0883
B( 28-C , 29-H ) :   0.9705 B( 28-C , 30-H ) :   0.9677 B( 28-C , 31-H ) :   0.9701

Dispersion correction           -0.014398302
FINAL SINGLE POINT ENERGY     -1339.874471834824

DIPOLE MOMENT
-------------
                                X             Y             Z
Electronic contribution:     29.61217       1.11912      -8.10775
Nuclear contribution   :    -30.31425      -1.06669       8.53962
                        -----------------------------------------
Total Dipole Moment    :     -0.70209       0.05242       0.43186
                        -----------------------------------------
Magnitude (a.u.)       :      0.82594
Magnitude (Debye)      :      2.09938

Rotational constants in cm-1:     0.018870     0.008935     0.006356
Rotational constants in MHz :   565.693563   267.863982   190.546070

                             ****ORCA TERMINATED NORMALLY****
TOTAL RUN TIME: 0 days 0 hours 0 minutes 22 seconds 135 msec
