                         Program Version 4.2.1 -  RELEASE  -
|  1> ! wB97X-D3 SP def2-SVP
|  2> %pal
|  3> nprocs 24
|  4> end
|  5>
|  6> * xyz 0 1
|  7> S 	 -94.259 	 -9.23205 	 -116.453
|  8> C 	 -95.2043 	 -8.30875 	 -117.621
|  9> C 	 -96.5232 	 -8.72346 	 -117.575
| 10> C 	 -96.7804 	 -9.82361 	 -116.681
| 11> C 	 -95.6703 	 -10.2548 	 -115.975
| 12> H 	 -97.6818 	 -10.3676 	 -116.686
| 13> C 	 -97.6464 	 -8.11693 	 -118.393
| 14> H 	 -97.1618 	 -7.91162 	 -119.367
| 15> H 	 -97.9342 	 -7.10006 	 -117.984
| 16> C 	 -98.9151 	 -8.96861 	 -118.726
| 17> H 	 -98.8302 	 -10.0069 	 -119.156
| 18> H 	 -99.4513 	 -9.07653 	 -117.7
| 19> C 	 -99.8665 	 -8.15936 	 -119.569
| 20> H 	 -100.304 	 -7.20846 	 -119.13
| 21> H 	 -99.4281 	 -7.7855 	 -120.442
| 22> H 	 -100.61 	 -8.80283 	 -120.067
| 23> S 	 -94.5557 	 -11.0846 	 -113.633
| 24> C 	 -94.5412 	 -12.7769 	 -113.218
| 25> C 	 -95.5096 	 -13.4737 	 -113.936
| 26> C 	 -95.9733 	 -12.7218 	 -115.097
| 27> C 	 -95.5421 	 -11.3912 	 -115.055
| 28> H 	 -95.7716 	 -14.5385 	 -113.68
| 29> C 	 -96.8745 	 -13.2929 	 -116.132
| 30> H 	 -97.7683 	 -12.6869 	 -116.141
| 31> H 	 -97.0172 	 -14.301 	 -115.759
| 32> C 	 -96.2904 	 -13.377 	 -117.574
| 33> H 	 -96.2127 	 -12.3596 	 -117.958
| 34> H 	 -97.0194 	 -13.8139 	 -118.208
| 35> C 	 -94.9309 	 -14.1194 	 -117.685
| 36> H 	 -94.1659 	 -13.5551 	 -117.249
| 37> H 	 -94.5831 	 -14.2285 	 -118.693
| 38> H 	 -94.9185 	 -15.11 	 -117.154
| 39> H 	 -95.0109 	 -7.39243 	 -118.185
| 40> H 	 -94.0406 	 -13.2769 	 -112.424
| 41> *
| 42>
| 43>                          ****END OF INPUT****

CARTESIAN COORDINATES (ANGSTROEM)
---------------------------------
  S    -94.259000   -9.232050  -116.453000
  C    -95.204300   -8.308750  -117.621000
  C    -96.523200   -8.723460  -117.575000
  C    -96.780400   -9.823610  -116.681000
  C    -95.670300  -10.254800  -115.975000
  H    -97.681800  -10.367600  -116.686000
  C    -97.646400   -8.116930  -118.393000
  H    -97.161800   -7.911620  -119.367000
  H    -97.934200   -7.100060  -117.984000
  C    -98.915100   -8.968610  -118.726000
  H    -98.830200  -10.006900  -119.156000
  H    -99.451300   -9.076530  -117.700000
  C    -99.866500   -8.159360  -119.569000
  H    -100.304000   -7.208460  -119.130000
  H    -99.428100   -7.785500  -120.442000
  H    -100.610000   -8.802830  -120.067000
  S    -94.555700  -11.084600  -113.633000
  C    -94.541200  -12.776900  -113.218000
  C    -95.509600  -13.473700  -113.936000
  C    -95.973300  -12.721800  -115.097000
  C    -95.542100  -11.391200  -115.055000
  H    -95.771600  -14.538500  -113.680000
  C    -96.874500  -13.292900  -116.132000
  H    -97.768300  -12.686900  -116.141000
  H    -97.017200  -14.301000  -115.759000
  C    -96.290400  -13.377000  -117.574000
  H    -96.212700  -12.359600  -117.958000
  H    -97.019400  -13.813900  -118.208000
  C    -94.930900  -14.119400  -117.685000
  H    -94.165900  -13.555100  -117.249000
  H    -94.583100  -14.228500  -118.693000
  H    -94.918500  -15.110000  -117.154000
  H    -95.010900   -7.392430  -118.185000
  H    -94.040600  -13.276900  -112.424000

 Total Charge           Charge          ....    0
 Multiplicity           Mult            ....    1
 Number of Electrons    NEL             ....  134
 Basis Dimension        Dim             ....  322

ORBITAL ENERGIES
----------------

  NO   OCC          E(Eh)            E(eV)
   0   2.0000     -88.968152     -2420.9465
   1   2.0000     -88.966845     -2420.9109
   2   2.0000     -10.336916      -281.2818
   3   2.0000     -10.327799      -281.0337
   4   2.0000     -10.317121      -280.7431
   5   2.0000     -10.315929      -280.7107
   6   2.0000     -10.306316      -280.4491
   7   2.0000     -10.304838      -280.4089
   8   2.0000     -10.302386      -280.3422
   9   2.0000     -10.302123      -280.3350
  10   2.0000     -10.301077      -280.3065
  11   2.0000     -10.292270      -280.0669
  12   2.0000     -10.289960      -280.0040
  13   2.0000     -10.283202      -279.8201
  14   2.0000     -10.279966      -279.7321
  15   2.0000     -10.270472      -279.4737
  16   2.0000      -8.081436      -219.9071
  17   2.0000      -8.081278      -219.9028
  18   2.0000      -6.040077      -164.3589
  19   2.0000      -6.039982      -164.3563
  20   2.0000      -6.035979      -164.2473
  21   2.0000      -6.035899      -164.2452
  22   2.0000      -6.032137      -164.1428
  23   2.0000      -6.031900      -164.1363
  24   2.0000      -1.001486       -27.2518
  25   2.0000      -0.978971       -26.6391
  26   2.0000      -0.909001       -24.7352
  27   2.0000      -0.907957       -24.7068
  28   2.0000      -0.870122       -23.6772
  29   2.0000      -0.847504       -23.0618
  30   2.0000      -0.843029       -22.9400
  31   2.0000      -0.817225       -22.2378
  32   2.0000      -0.781615       -21.2688
  33   2.0000      -0.769141       -20.9294
  34   2.0000      -0.717146       -19.5145
  35   2.0000      -0.700823       -19.0704
  36   2.0000      -0.688491       -18.7348
  37   2.0000      -0.661687       -18.0054
  38   2.0000      -0.635570       -17.2947
  39   2.0000      -0.620928       -16.8963
  40   2.0000      -0.581321       -15.8185
  41   2.0000      -0.571999       -15.5649
  42   2.0000      -0.563298       -15.3281
  43   2.0000      -0.555025       -15.1030
  44   2.0000      -0.543205       -14.7814
  45   2.0000      -0.523989       -14.2585
  46   2.0000      -0.511725       -13.9247
  47   2.0000      -0.506768       -13.7899
  48   2.0000      -0.504355       -13.7242
  49   2.0000      -0.492039       -13.3891
  50   2.0000      -0.488044       -13.2804
  51   2.0000      -0.480026       -13.0622
  52   2.0000      -0.472612       -12.8604
  53   2.0000      -0.468732       -12.7549
  54   2.0000      -0.460335       -12.5264
  55   2.0000      -0.447936       -12.1890
  56   2.0000      -0.443146       -12.0586
  57   2.0000      -0.440157       -11.9773
  58   2.0000      -0.435892       -11.8612
  59   2.0000      -0.428840       -11.6693
  60   2.0000      -0.418012       -11.3747
  61   2.0000      -0.412666       -11.2292
  62   2.0000      -0.404414       -11.0047
  63   2.0000      -0.347059        -9.4440
  64   2.0000      -0.329070        -8.9544
  65   2.0000      -0.328236        -8.9318
  66   2.0000      -0.290107        -7.8942
  67   0.0000       0.021070         0.5734
  68   0.0000       0.069763         1.8984
  69   0.0000       0.102186         2.7806
  70   0.0000       0.119965         3.2644
  71   0.0000       0.127669         3.4741

MULLIKEN ATOMIC CHARGES
-----------------------
   0 S :    0.108735
   1 C :   -0.105224
   2 C :   -0.102632
   3 C :    0.039485
   4 C :   -0.116344
   5 H :   -0.005781
   6 C :    0.017494
   7 H :    0.028524
   8 H :    0.056040
   9 C :   -0.125568
  10 H :    0.055321
  11 H :    0.049496
  12 C :   -0.026486
  13 H :    0.042007
  14 H :   -0.000238
  15 H :    0.028977
  16 S :    0.111276
  17 C :   -0.073191
  18 C :   -0.064916
  19 C :   -0.068873
  20 C :   -0.162677
  21 H :    0.042786
  22 C :    0.075658
  23 H :    0.041167
  24 H :    0.009498
  25 C :   -0.055676
  26 H :    0.034981
  27 H :    0.019234
  28 C :   -0.035803
  29 H :    0.027674
  30 H :    0.027511
  31 H :    0.031304
  32 H :    0.049495
  33 H :    0.046745
Sum of atomic charges:    0.0000000

LOEWDIN ATOMIC CHARGES
----------------------
   0 S :    0.382762
   1 C :   -0.204642
   2 C :   -0.067247
   3 C :   -0.061796
   4 C :   -0.174215
   5 H :    0.021220
   6 C :   -0.042632
   7 H :    0.031571
   8 H :    0.042802
   9 C :   -0.055092
  10 H :    0.035306
  11 H :    0.033594
  12 C :   -0.076294
  13 H :    0.034910
  14 H :    0.014029
  15 H :    0.031694
  16 S :    0.409481
  17 C :   -0.184290
  18 C :   -0.076943
  19 C :   -0.052708
  20 C :   -0.200522
  21 H :    0.040091
  22 C :   -0.029246
  23 H :    0.032404
  24 H :    0.028767
  25 C :   -0.033475
  26 H :    0.025963
  27 H :    0.017648
  28 C :   -0.063050
  29 H :    0.020963
  30 H :    0.025200
  31 H :    0.029335
  32 H :    0.038370
  33 H :    0.026041

  Mayer bond orders larger than 0.100000
B(  0-S ,  1-C ) :   1.1189 B(  0-S ,  4-C ) :   1.1328 B(  1-C ,  2-C ) :   1.6379
B(  1-C , 32-H ) :   0.9622 B(  2-C ,  3-C ) :   1.2436 B(  2-C ,  6-C ) :   1.0050
B(  3-C ,  4-C ) :   1.5648 B(  3-C ,  5-H ) :   0.9959 B(  4-C , 20-C ) :   1.0548
B(  6-C ,  7-H ) :   0.9461 B(  6-C ,  8-H ) :   0.9379 B(  6-C ,  9-C ) :   1.0587
B(  9-C , 10-H ) :   0.9580 B(  9-C , 11-H ) :   0.9447 B(  9-C , 12-C ) :   1.0854
B( 12-C , 13-H ) :   0.9723 B( 12-C , 14-H ) :   0.9670 B( 12-C , 15-H ) :   0.9691
B( 16-S , 17-C ) :   1.1563 B( 16-S , 20-C ) :   1.1335 B( 17-C , 18-C ) :   1.6189
B( 17-C , 33-H ) :   0.9679 B( 18-C , 19-C ) :   1.2368 B( 18-C , 21-H ) :   0.9727
B( 19-C , 20-C ) :   1.5779 B( 19-C , 22-C ) :   1.0391 B( 22-C , 23-H ) :   0.9353
B( 22-C , 24-H ) :   0.9267 B( 22-C , 25-C ) :   1.0768 B( 25-C , 26-H ) :   0.9512
B( 25-C , 27-H ) :   0.9571 B( 25-C , 28-C ) :   1.0733 B( 28-C , 29-H ) :   0.9714
B( 28-C , 30-H ) :   0.9732 B( 28-C , 31-H ) :   0.9772

Dispersion correction           -0.015000330
FINAL SINGLE POINT ENERGY     -1339.864714047447

DIPOLE MOMENT
-------------
                                X             Y             Z
Electronic contribution:     18.67744       5.18822      20.65000
Nuclear contribution   :    -19.22554      -5.39754     -21.08057
                        -----------------------------------------
Total Dipole Moment    :     -0.54809      -0.20932      -0.43057
                        -----------------------------------------
Magnitude (a.u.)       :      0.72774
Magnitude (Debye)      :      1.84978

Rotational constants in cm-1:     0.020056     0.008560     0.007134
Rotational constants in MHz :   601.270285   256.611971   213.862581

                             ****ORCA TERMINATED NORMALLY****
TOTAL RUN TIME: 0 days 0 hours 0 minutes 22 seconds 207 msec
