                         Program Version 4.2.1 -  RELEASE  -
|  1> ! wB97X-D3 SP def2-SVP
|  2> %pal
|  3> nprocs 24
|  4> end
|  5>
|  6> * xyz 0 1
|  7> S 	 -102.392 	 66.6174 	 -6.83524
|  8> C 	 -102.214 	 66.9007 	 -5.14794
|  9> C 	 -103.101 	 66.1344 	 -4.415
| 10> C 	 -103.971 	 65.3836 	 -5.28112
| 11> C 	 -103.751 	 65.5343 	 -6.65606
| 12> H 	 -104.623 	 64.6784 	 -4.797
| 13> C 	 -103.253 	 66.265 	 -2.88576
| 14> H 	 -103.364 	 67.3358 	 -2.93762
| 15> H 	 -102.286 	 65.9931 	 -2.37912
| 16> C 	 -104.548 	 65.6147 	 -2.21063
| 17> H 	 -105.526 	 66.0416 	 -2.43073
| 18> H 	 -104.661 	 64.5629 	 -2.47302
| 19> C 	 -104.413 	 65.6937 	 -0.710485
| 20> H 	 -103.468 	 65.29 	 -0.375241
| 21> H 	 -104.399 	 66.6953 	 -0.409056
| 22> H 	 -105.258 	 65.2056 	 -0.150292
| 23> S 	 -103.204 	 63.8305 	 -8.81626
| 24> C 	 -104.372 	 62.6744 	 -9.3956
| 25> C 	 -105.543 	 62.9251 	 -8.69691
| 26> C 	 -105.486 	 63.9282 	 -7.74823
| 27> C 	 -104.263 	 64.6043 	 -7.62313
| 28> H 	 -106.433 	 62.3476 	 -8.83094
| 29> C 	 -106.706 	 64.0809 	 -6.87397
| 30> H 	 -106.352 	 64.5711 	 -6.04859
| 31> H 	 -107.053 	 63.109 	 -6.55189
| 32> C 	 -107.862 	 64.919 	 -7.47903
| 33> H 	 -108.647 	 64.8934 	 -6.72359
| 34> H 	 -108.281 	 64.4857 	 -8.40225
| 35> C 	 -107.669 	 66.4273 	 -7.67087
| 36> H 	 -107.067 	 66.7508 	 -8.57441
| 37> H 	 -107.118 	 66.8579 	 -6.89274
| 38> H 	 -108.652 	 66.9487 	 -7.81526
| 39> H 	 -101.522 	 67.6753 	 -4.71683
| 40> H 	 -104.285 	 61.8879 	 -10.0529
| 41> *
| 42>
| 43>                          ****END OF INPUT****

CARTESIAN COORDINATES (ANGSTROEM)
---------------------------------
  S    -102.392000   66.617400   -6.835240
  C    -102.214000   66.900700   -5.147940
  C    -103.101000   66.134400   -4.415000
  C    -103.971000   65.383600   -5.281120
  C    -103.751000   65.534300   -6.656060
  H    -104.623000   64.678400   -4.797000
  C    -103.253000   66.265000   -2.885760
  H    -103.364000   67.335800   -2.937620
  H    -102.286000   65.993100   -2.379120
  C    -104.548000   65.614700   -2.210630
  H    -105.526000   66.041600   -2.430730
  H    -104.661000   64.562900   -2.473020
  C    -104.413000   65.693700   -0.710485
  H    -103.468000   65.290000   -0.375241
  H    -104.399000   66.695300   -0.409056
  H    -105.258000   65.205600   -0.150292
  S    -103.204000   63.830500   -8.816260
  C    -104.372000   62.674400   -9.395600
  C    -105.543000   62.925100   -8.696910
  C    -105.486000   63.928200   -7.748230
  C    -104.263000   64.604300   -7.623130
  H    -106.433000   62.347600   -8.830940
  C    -106.706000   64.080900   -6.873970
  H    -106.352000   64.571100   -6.048590
  H    -107.053000   63.109000   -6.551890
  C    -107.862000   64.919000   -7.479030
  H    -108.647000   64.893400   -6.723590
  H    -108.281000   64.485700   -8.402250
  C    -107.669000   66.427300   -7.670870
  H    -107.067000   66.750800   -8.574410
  H    -107.118000   66.857900   -6.892740
  H    -108.652000   66.948700   -7.815260
  H    -101.522000   67.675300   -4.716830
  H    -104.285000   61.887900  -10.052900

 Total Charge           Charge          ....    0
 Multiplicity           Mult            ....    1
 Number of Electrons    NEL             ....  134
 Basis Dimension        Dim             ....  322

ORBITAL ENERGIES
----------------

  NO   OCC          E(Eh)            E(eV)
   0   2.0000     -88.970397     -2421.0076
   1   2.0000     -88.963627     -2420.8234
   2   2.0000     -10.335216      -281.2355
   3   2.0000     -10.331476      -281.1338
   4   2.0000     -10.317579      -280.7556
   5   2.0000     -10.312146      -280.6078
   6   2.0000     -10.306743      -280.4607
   7   2.0000     -10.304650      -280.4038
   8   2.0000     -10.296522      -280.1826
   9   2.0000     -10.296158      -280.1727
  10   2.0000     -10.293208      -280.0924
  11   2.0000     -10.286032      -279.8972
  12   2.0000     -10.283297      -279.8227
  13   2.0000     -10.281066      -279.7620
  14   2.0000     -10.276584      -279.6401
  15   2.0000     -10.273795      -279.5642
  16   2.0000      -8.085270      -220.0114
  17   2.0000      -8.077880      -219.8103
  18   2.0000      -6.043805      -164.4603
  19   2.0000      -6.039595      -164.3457
  20   2.0000      -6.036456      -164.2603
  21   2.0000      -6.036137      -164.2516
  22   2.0000      -6.032233      -164.1454
  23   2.0000      -6.028774      -164.0513
  24   2.0000      -1.009468       -27.4690
  25   2.0000      -0.987973       -26.8841
  26   2.0000      -0.911212       -24.7953
  27   2.0000      -0.906088       -24.6559
  28   2.0000      -0.877569       -23.8799
  29   2.0000      -0.853874       -23.2351
  30   2.0000      -0.845473       -23.0065
  31   2.0000      -0.815591       -22.1934
  32   2.0000      -0.781372       -21.2622
  33   2.0000      -0.771652       -20.9977
  34   2.0000      -0.719408       -19.5761
  35   2.0000      -0.699437       -19.0327
  36   2.0000      -0.697323       -18.9751
  37   2.0000      -0.661609       -18.0033
  38   2.0000      -0.635983       -17.3060
  39   2.0000      -0.624619       -16.9967
  40   2.0000      -0.596404       -16.2290
  41   2.0000      -0.576529       -15.6882
  42   2.0000      -0.566367       -15.4116
  43   2.0000      -0.549202       -14.9446
  44   2.0000      -0.537103       -14.6153
  45   2.0000      -0.526635       -14.3305
  46   2.0000      -0.522424       -14.2159
  47   2.0000      -0.518699       -14.1145
  48   2.0000      -0.511883       -13.9290
  49   2.0000      -0.496975       -13.5234
  50   2.0000      -0.494910       -13.4672
  51   2.0000      -0.481782       -13.1099
  52   2.0000      -0.471484       -12.8297
  53   2.0000      -0.464307       -12.6344
  54   2.0000      -0.452933       -12.3249
  55   2.0000      -0.450466       -12.2578
  56   2.0000      -0.442708       -12.0467
  57   2.0000      -0.441137       -12.0040
  58   2.0000      -0.432674       -11.7737
  59   2.0000      -0.423900       -11.5349
  60   2.0000      -0.422929       -11.5085
  61   2.0000      -0.416040       -11.3210
  62   2.0000      -0.399684       -10.8759
  63   2.0000      -0.359868        -9.7925
  64   2.0000      -0.330630        -8.9969
  65   2.0000      -0.327095        -8.9007
  66   2.0000      -0.282821        -7.6960
  67   0.0000       0.021394         0.5822
  68   0.0000       0.074600         2.0300
  69   0.0000       0.117792         3.2053
  70   0.0000       0.123535         3.3616
  71   0.0000       0.135980         3.7002

MULLIKEN ATOMIC CHARGES
-----------------------
   0 S :    0.121444
   1 C :   -0.155834
   2 C :   -0.105294
   3 C :    0.002933
   4 C :   -0.118240
   5 H :    0.019002
   6 C :    0.026630
   7 H :    0.047038
   8 H :    0.058497
   9 C :   -0.080272
  10 H :    0.034326
  11 H :    0.037925
  12 C :   -0.033732
  13 H :    0.021508
  14 H :    0.013713
  15 H :    0.040814
  16 S :    0.093800
  17 C :   -0.046605
  18 C :   -0.034572
  19 C :   -0.074749
  20 C :   -0.118871
  21 H :    0.006739
  22 C :    0.137586
  23 H :   -0.035264
  24 H :    0.023512
  25 C :   -0.064208
  26 H :    0.024024
  27 H :    0.029343
  28 C :   -0.064663
  29 H :    0.037226
  30 H :    0.019423
  31 H :    0.039616
  32 H :    0.070415
  33 H :    0.026792
Sum of atomic charges:    0.0000000

LOEWDIN ATOMIC CHARGES
----------------------
   0 S :    0.429822
   1 C :   -0.219865
   2 C :   -0.066858
   3 C :   -0.061895
   4 C :   -0.203491
   5 H :    0.025865
   6 C :   -0.033619
   7 H :    0.040169
   8 H :    0.042139
   9 C :   -0.042515
  10 H :    0.028219
  11 H :    0.021925
  12 C :   -0.062096
  13 H :    0.020748
  14 H :    0.015957
  15 H :    0.032828
  16 S :    0.406747
  17 C :   -0.177135
  18 C :   -0.070456
  19 C :   -0.064998
  20 C :   -0.189418
  21 H :    0.026426
  22 C :   -0.021261
  23 H :    0.012112
  24 H :    0.032198
  25 C :   -0.037049
  26 H :    0.024780
  27 H :    0.023022
  28 C :   -0.071029
  29 H :    0.030348
  30 H :    0.015547
  31 H :    0.032749
  32 H :    0.041628
  33 H :    0.018457

  Mayer bond orders larger than 0.100000
B(  0-S ,  1-C ) :   1.1567 B(  0-S ,  4-C ) :   1.1577 B(  1-C ,  2-C ) :   1.5797
B(  1-C , 32-H ) :   0.9643 B(  2-C ,  3-C ) :   1.3272 B(  2-C ,  6-C ) :   0.9694
B(  3-C ,  4-C ) :   1.4840 B(  3-C ,  5-H ) :   0.9755 B(  4-C , 20-C ) :   1.0872
B(  6-C ,  7-H ) :   0.9472 B(  6-C ,  8-H ) :   0.9476 B(  6-C ,  9-C ) :   1.0618
B(  9-C , 10-H ) :   0.9544 B(  9-C , 11-H ) :   0.9552 B(  9-C , 12-C ) :   1.0898
B( 12-C , 13-H ) :   0.9753 B( 12-C , 14-H ) :   0.9735 B( 12-C , 15-H ) :   0.9720
B( 16-S , 17-C ) :   1.1664 B( 16-S , 20-C ) :   1.1345 B( 17-C , 18-C ) :   1.5409
B( 17-C , 20-C ) :   0.1096 B( 17-C , 33-H ) :   0.9820 B( 18-C , 19-C ) :   1.3171
B( 18-C , 21-H ) :   0.9924 B( 19-C , 20-C ) :   1.5305 B( 19-C , 22-C ) :   1.0391
B( 22-C , 23-H ) :   0.9135 B( 22-C , 24-H ) :   0.9366 B( 22-C , 25-C ) :   1.0804
B( 25-C , 26-H ) :   0.9541 B( 25-C , 27-H ) :   0.9582 B( 25-C , 28-C ) :   1.0743
B( 28-C , 29-H ) :   0.9735 B( 28-C , 30-H ) :   0.9739 B( 28-C , 31-H ) :   0.9751

Dispersion correction           -0.014004548
FINAL SINGLE POINT ENERGY     -1339.857582578676

DIPOLE MOMENT
-------------
                                X             Y             Z
Electronic contribution:     19.34443      -2.89754     -21.41850
Nuclear contribution   :    -19.74473       2.78520      22.17937
                        -----------------------------------------
Total Dipole Moment    :     -0.40030      -0.11234       0.76087
                        -----------------------------------------
Magnitude (a.u.)       :      0.86705
Magnitude (Debye)      :      2.20387

Rotational constants in cm-1:     0.017686     0.008670     0.007014
Rotational constants in MHz :   530.225804   259.910174   210.267943

                             ****ORCA TERMINATED NORMALLY****
TOTAL RUN TIME: 0 days 0 hours 0 minutes 21 seconds 744 msec
