                         Program Version 4.2.1 -  RELEASE  -
|  1> ! wB97X-D3 SP def2-SVP
|  2> %pal
|  3> nprocs 24
|  4> end
|  5>
|  6> * xyz 0 1
|  7> S 	 -126.878 	 63.2161 	 -44.1007
|  8> C 	 -125.27 	 62.9182 	 -43.62
|  9> C 	 -125.146 	 62.9578 	 -42.2419
| 10> C 	 -126.337 	 63.3016 	 -41.5947
| 11> C 	 -127.445 	 63.4614 	 -42.484
| 12> H 	 -126.455 	 63.2998 	 -40.5019
| 13> C 	 -123.877 	 62.5795 	 -41.5324
| 14> H 	 -123.577 	 63.4339 	 -40.8535
| 15> H 	 -123.113 	 62.5185 	 -42.2329
| 16> C 	 -124.026 	 61.2867 	 -40.735
| 17> H 	 -123.031 	 61.0772 	 -40.2849
| 18> H 	 -124.654 	 61.4556 	 -39.8383
| 19> C 	 -124.526 	 60.0697 	 -41.4862
| 20> H 	 -124.822 	 59.2489 	 -40.7799
| 21> H 	 -125.446 	 60.1678 	 -41.9959
| 22> H 	 -123.781 	 59.704 	 -42.1684
| 23> S 	 -129.589 	 62.2326 	 -41.3068
| 24> C 	 -131.056 	 63.1729 	 -40.9391
| 25> C 	 -130.879 	 64.4911 	 -41.3923
| 26> C 	 -129.604 	 64.8079 	 -41.9874
| 27> C 	 -128.849 	 63.6672 	 -42.0391
| 28> H 	 -131.803 	 65.0835 	 -41.3976
| 29> C 	 -129.214 	 66.1626 	 -42.5268
| 30> H 	 -128.263 	 66.0087 	 -43.0088
| 31> H 	 -129.105 	 66.8246 	 -41.7262
| 32> C 	 -130.125 	 66.7239 	 -43.6388
| 33> H 	 -131.084 	 66.9954 	 -43.2769
| 34> H 	 -130.187 	 65.9271 	 -44.366
| 35> C 	 -129.501 	 68.0025 	 -44.1458
| 36> H 	 -129.684 	 68.8528 	 -43.5054
| 37> H 	 -129.972 	 68.14 	 -45.113
| 38> H 	 -128.391 	 67.8566 	 -44.2933
| 39> H 	 -124.436 	 62.6749 	 -44.3067
| 40> H 	 -131.913 	 62.645 	 -40.6235
| 41> *
| 42>
| 43>                          ****END OF INPUT****

CARTESIAN COORDINATES (ANGSTROEM)
---------------------------------
  S    -126.878000   63.216100  -44.100700
  C    -125.270000   62.918200  -43.620000
  C    -125.146000   62.957800  -42.241900
  C    -126.337000   63.301600  -41.594700
  C    -127.445000   63.461400  -42.484000
  H    -126.455000   63.299800  -40.501900
  C    -123.877000   62.579500  -41.532400
  H    -123.577000   63.433900  -40.853500
  H    -123.113000   62.518500  -42.232900
  C    -124.026000   61.286700  -40.735000
  H    -123.031000   61.077200  -40.284900
  H    -124.654000   61.455600  -39.838300
  C    -124.526000   60.069700  -41.486200
  H    -124.822000   59.248900  -40.779900
  H    -125.446000   60.167800  -41.995900
  H    -123.781000   59.704000  -42.168400
  S    -129.589000   62.232600  -41.306800
  C    -131.056000   63.172900  -40.939100
  C    -130.879000   64.491100  -41.392300
  C    -129.604000   64.807900  -41.987400
  C    -128.849000   63.667200  -42.039100
  H    -131.803000   65.083500  -41.397600
  C    -129.214000   66.162600  -42.526800
  H    -128.263000   66.008700  -43.008800
  H    -129.105000   66.824600  -41.726200
  C    -130.125000   66.723900  -43.638800
  H    -131.084000   66.995400  -43.276900
  H    -130.187000   65.927100  -44.366000
  C    -129.501000   68.002500  -44.145800
  H    -129.684000   68.852800  -43.505400
  H    -129.972000   68.140000  -45.113000
  H    -128.391000   67.856600  -44.293300
  H    -124.436000   62.674900  -44.306700
  H    -131.913000   62.645000  -40.623500

 Total Charge           Charge          ....    0
 Multiplicity           Mult            ....    1
 Number of Electrons    NEL             ....  134
 Basis Dimension        Dim             ....  322

ORBITAL ENERGIES
----------------

  NO   OCC          E(Eh)            E(eV)
   0   2.0000     -88.968777     -2420.9635
   1   2.0000     -88.961489     -2420.7652
   2   2.0000     -10.329755      -281.0869
   3   2.0000     -10.327139      -281.0157
   4   2.0000     -10.319214      -280.8001
   5   2.0000     -10.310719      -280.5689
   6   2.0000     -10.303449      -280.3711
   7   2.0000     -10.299352      -280.2596
   8   2.0000     -10.293338      -280.0960
   9   2.0000     -10.292223      -280.0656
  10   2.0000     -10.287374      -279.9337
  11   2.0000     -10.287163      -279.9279
  12   2.0000     -10.283276      -279.8222
  13   2.0000     -10.280281      -279.7407
  14   2.0000     -10.277083      -279.6536
  15   2.0000     -10.270248      -279.4677
  16   2.0000      -8.083893      -219.9739
  17   2.0000      -8.075736      -219.7520
  18   2.0000      -6.042177      -164.4160
  19   2.0000      -6.038105      -164.3052
  20   2.0000      -6.035134      -164.2243
  21   2.0000      -6.034246      -164.2002
  22   2.0000      -6.030335      -164.0938
  23   2.0000      -6.026509      -163.9896
  24   2.0000      -1.004807       -27.3422
  25   2.0000      -0.982190       -26.7268
  26   2.0000      -0.914354       -24.8808
  27   2.0000      -0.912528       -24.8312
  28   2.0000      -0.862484       -23.4694
  29   2.0000      -0.851466       -23.1696
  30   2.0000      -0.846698       -23.0398
  31   2.0000      -0.807996       -21.9867
  32   2.0000      -0.783799       -21.3283
  33   2.0000      -0.772932       -21.0326
  34   2.0000      -0.704725       -19.1766
  35   2.0000      -0.700134       -19.0516
  36   2.0000      -0.687740       -18.7143
  37   2.0000      -0.660238       -17.9660
  38   2.0000      -0.635542       -17.2940
  39   2.0000      -0.618071       -16.8186
  40   2.0000      -0.597254       -16.2521
  41   2.0000      -0.580503       -15.7963
  42   2.0000      -0.562257       -15.2998
  43   2.0000      -0.549335       -14.9482
  44   2.0000      -0.540163       -14.6986
  45   2.0000      -0.530449       -14.4343
  46   2.0000      -0.519327       -14.1316
  47   2.0000      -0.512922       -13.9573
  48   2.0000      -0.504395       -13.7253
  49   2.0000      -0.496233       -13.5032
  50   2.0000      -0.484989       -13.1972
  51   2.0000      -0.472989       -12.8707
  52   2.0000      -0.467826       -12.7302
  53   2.0000      -0.465827       -12.6758
  54   2.0000      -0.459508       -12.5038
  55   2.0000      -0.445881       -12.1331
  56   2.0000      -0.442822       -12.0498
  57   2.0000      -0.432856       -11.7786
  58   2.0000      -0.429543       -11.6885
  59   2.0000      -0.429092       -11.6762
  60   2.0000      -0.419339       -11.4108
  61   2.0000      -0.417059       -11.3488
  62   2.0000      -0.412409       -11.2222
  63   2.0000      -0.335286        -9.1236
  64   2.0000      -0.326740        -8.8910
  65   2.0000      -0.323650        -8.8070
  66   2.0000      -0.305419        -8.3109
  67   0.0000       0.045212         1.2303
  68   0.0000       0.054529         1.4838
  69   0.0000       0.114422         3.1136
  70   0.0000       0.120627         3.2824
  71   0.0000       0.133866         3.6427

MULLIKEN ATOMIC CHARGES
-----------------------
   0 S :    0.133746
   1 C :   -0.141234
   2 C :   -0.114043
   3 C :    0.032595
   4 C :   -0.191839
   5 H :    0.022406
   6 C :    0.119179
   7 H :    0.039056
   8 H :   -0.010482
   9 C :   -0.092284
  10 H :    0.029342
  11 H :    0.030301
  12 C :   -0.035678
  13 H :    0.030877
  14 H :    0.033379
  15 H :    0.028141
  16 S :    0.093721
  17 C :   -0.101205
  18 C :   -0.041606
  19 C :   -0.004629
  20 C :   -0.191320
  21 H :    0.029798
  22 C :    0.111133
  23 H :    0.013366
  24 H :    0.020442
  25 C :   -0.075192
  26 H :    0.021335
  27 H :    0.032522
  28 C :   -0.040177
  29 H :    0.036984
  30 H :    0.033073
  31 H :    0.035446
  32 H :    0.059546
  33 H :    0.053300
Sum of atomic charges:   -0.0000000

LOEWDIN ATOMIC CHARGES
----------------------
   0 S :    0.442944
   1 C :   -0.224057
   2 C :   -0.072425
   3 C :   -0.061965
   4 C :   -0.217819
   5 H :    0.034130
   6 C :   -0.027721
   7 H :    0.040847
   8 H :    0.015406
   9 C :   -0.044825
  10 H :    0.027840
  11 H :    0.024715
  12 C :   -0.067140
  13 H :    0.035439
  14 H :    0.022279
  15 H :    0.022356
  16 S :    0.380608
  17 C :   -0.169352
  18 C :   -0.070251
  19 C :   -0.053325
  20 C :   -0.190142
  21 H :    0.032985
  22 C :   -0.020832
  23 H :    0.027694
  24 H :    0.024658
  25 C :   -0.030856
  26 H :    0.017134
  27 H :    0.025058
  28 C :   -0.062104
  29 H :    0.024778
  30 H :    0.027852
  31 H :    0.030242
  32 H :    0.036272
  33 H :    0.019575

  Mayer bond orders larger than 0.100000
B(  0-S ,  1-C ) :   1.1693 B(  0-S ,  4-C ) :   1.1858 B(  1-C ,  2-C ) :   1.5522
B(  1-C ,  4-C ) :   0.1062 B(  1-C , 32-H ) :   0.9620 B(  2-C ,  3-C ) :   1.3034
B(  2-C ,  6-C ) :   1.0304 B(  3-C ,  4-C ) :   1.5097 B(  3-C ,  5-H ) :   0.9934
B(  4-C , 20-C ) :   0.9961 B(  6-C ,  7-H ) :   0.9351 B(  6-C ,  8-H ) :   0.9351
B(  6-C ,  9-C ) :   1.0704 B(  9-C , 10-H ) :   0.9542 B(  9-C , 11-H ) :   0.9562
B(  9-C , 12-C ) :   1.0782 B( 12-C , 13-H ) :   0.9699 B( 12-C , 14-H ) :   0.9713
B( 12-C , 15-H ) :   0.9762 B( 16-S , 17-C ) :   1.1408 B( 16-S , 20-C ) :   1.1480
B( 17-C , 18-C ) :   1.6208 B( 17-C , 33-H ) :   0.9765 B( 18-C , 19-C ) :   1.1967
B( 18-C , 21-H ) :   0.9853 B( 19-C , 20-C ) :   1.6331 B( 19-C , 22-C ) :   1.0443
B( 22-C , 23-H ) :   0.9255 B( 22-C , 24-H ) :   0.9251 B( 22-C , 25-C ) :   1.0718
B( 25-C , 26-H ) :   0.9498 B( 25-C , 27-H ) :   0.9575 B( 25-C , 28-C ) :   1.0898
B( 28-C , 29-H ) :   0.9742 B( 28-C , 30-H ) :   0.9727 B( 28-C , 31-H ) :   0.9735

Dispersion correction           -0.014593717
FINAL SINGLE POINT ENERGY     -1339.885036568591

DIPOLE MOMENT
-------------
                                X             Y             Z
Electronic contribution:     -8.42980      -7.22714      -1.17798
Nuclear contribution   :      8.49190       7.43110       1.26168
                        -----------------------------------------
Total Dipole Moment    :      0.06210       0.20397       0.08370
                        -----------------------------------------
Magnitude (a.u.)       :      0.22905
Magnitude (Debye)      :      0.58220

Rotational constants in cm-1:     0.021137     0.008329     0.006697
Rotational constants in MHz :   633.679235   249.710323   200.782106

                             ****ORCA TERMINATED NORMALLY****
TOTAL RUN TIME: 0 days 0 hours 0 minutes 21 seconds 455 msec
