                         Program Version 4.2.1 -  RELEASE  -
|  1> ! wB97X-D3 SP def2-SVP
|  2> %pal
|  3> nprocs 24
|  4> end
|  5>
|  6> * xyz 0 1
|  7> S 	 -65.4165 	 16.6044 	 -112.058
|  8> C 	 -67.0791 	 16.3048 	 -111.892
|  9> C 	 -67.758 	 17.5032 	 -111.952
| 10> C 	 -66.9256 	 18.6144 	 -112.351
| 11> C 	 -65.581 	 18.2788 	 -112.446
| 12> H 	 -67.1442 	 19.6171 	 -112.613
| 13> C 	 -69.1713 	 17.7164 	 -111.668
| 14> H 	 -69.3689 	 18.7811 	 -111.555
| 15> H 	 -69.5197 	 17.3599 	 -110.724
| 16> C 	 -70.0529 	 17.199 	 -112.845
| 17> H 	 -69.7906 	 17.7486 	 -113.755
| 18> H 	 -69.6403 	 16.2122 	 -112.966
| 19> C 	 -71.558 	 17.2195 	 -112.624
| 20> H 	 -71.847 	 17.7361 	 -111.66
| 21> H 	 -72.0444 	 17.8281 	 -113.41
| 22> H 	 -72.0752 	 16.2752 	 -112.614
| 23> S 	 -64.2944 	 19.7521 	 -114.462
| 24> C 	 -62.8668 	 20.7629 	 -114.081
| 25> C 	 -62.6146 	 20.6956 	 -112.737
| 26> C 	 -63.5464 	 19.8783 	 -112.008
| 27> C 	 -64.4866 	 19.217 	 -112.798
| 28> H 	 -61.852 	 21.3915 	 -112.317
| 29> C 	 -63.2284 	 19.6554 	 -110.516
| 30> H 	 -62.1465 	 19.6944 	 -110.252
| 31> H 	 -63.5774 	 18.6431 	 -110.317
| 32> C 	 -63.8879 	 20.6954 	 -109.517
| 33> H 	 -63.7079 	 20.4552 	 -108.465
| 34> H 	 -64.9757 	 20.5352 	 -109.573
| 35> C 	 -63.4411 	 22.1397 	 -109.689
| 36> H 	 -62.3565 	 22.2053 	 -109.58
| 37> H 	 -63.8553 	 22.7497 	 -108.937
| 38> H 	 -63.635 	 22.5465 	 -110.642
| 39> H 	 -67.5868 	 15.4041 	 -111.672
| 40> H 	 -62.3836 	 21.4796 	 -114.74
| 41> *
| 42>
| 43>                          ****END OF INPUT****

CARTESIAN COORDINATES (ANGSTROEM)
---------------------------------
  S    -65.416500   16.604400  -112.058000
  C    -67.079100   16.304800  -111.892000
  C    -67.758000   17.503200  -111.952000
  C    -66.925600   18.614400  -112.351000
  C    -65.581000   18.278800  -112.446000
  H    -67.144200   19.617100  -112.613000
  C    -69.171300   17.716400  -111.668000
  H    -69.368900   18.781100  -111.555000
  H    -69.519700   17.359900  -110.724000
  C    -70.052900   17.199000  -112.845000
  H    -69.790600   17.748600  -113.755000
  H    -69.640300   16.212200  -112.966000
  C    -71.558000   17.219500  -112.624000
  H    -71.847000   17.736100  -111.660000
  H    -72.044400   17.828100  -113.410000
  H    -72.075200   16.275200  -112.614000
  S    -64.294400   19.752100  -114.462000
  C    -62.866800   20.762900  -114.081000
  C    -62.614600   20.695600  -112.737000
  C    -63.546400   19.878300  -112.008000
  C    -64.486600   19.217000  -112.798000
  H    -61.852000   21.391500  -112.317000
  C    -63.228400   19.655400  -110.516000
  H    -62.146500   19.694400  -110.252000
  H    -63.577400   18.643100  -110.317000
  C    -63.887900   20.695400  -109.517000
  H    -63.707900   20.455200  -108.465000
  H    -64.975700   20.535200  -109.573000
  C    -63.441100   22.139700  -109.689000
  H    -62.356500   22.205300  -109.580000
  H    -63.855300   22.749700  -108.937000
  H    -63.635000   22.546500  -110.642000
  H    -67.586800   15.404100  -111.672000
  H    -62.383600   21.479600  -114.740000

 Total Charge           Charge          ....    0
 Multiplicity           Mult            ....    1
 Number of Electrons    NEL             ....  134
 Basis Dimension        Dim             ....  322

ORBITAL ENERGIES
----------------

  NO   OCC          E(Eh)            E(eV)
   0   2.0000     -88.968085     -2420.9447
   1   2.0000     -88.965998     -2420.8879
   2   2.0000     -10.334700      -281.2215
   3   2.0000     -10.330108      -281.0965
   4   2.0000     -10.321138      -280.8524
   5   2.0000     -10.311349      -280.5861
   6   2.0000     -10.307840      -280.4906
   7   2.0000     -10.298970      -280.2492
   8   2.0000     -10.296381      -280.1788
   9   2.0000     -10.294571      -280.1295
  10   2.0000     -10.293336      -280.0959
  11   2.0000     -10.285614      -279.8858
  12   2.0000     -10.284601      -279.8582
  13   2.0000     -10.283460      -279.8272
  14   2.0000     -10.281262      -279.7674
  15   2.0000     -10.268510      -279.4204
  16   2.0000      -8.083602      -219.9660
  17   2.0000      -8.079889      -219.8649
  18   2.0000      -6.042065      -164.4129
  19   2.0000      -6.038522      -164.3165
  20   2.0000      -6.037759      -164.2958
  21   2.0000      -6.034573      -164.2091
  22   2.0000      -6.034448      -164.2057
  23   2.0000      -6.030608      -164.1012
  24   2.0000      -1.010369       -27.4935
  25   2.0000      -0.986177       -26.8353
  26   2.0000      -0.915618       -24.9152
  27   2.0000      -0.898290       -24.4437
  28   2.0000      -0.872124       -23.7317
  29   2.0000      -0.850301       -23.1379
  30   2.0000      -0.843782       -22.9605
  31   2.0000      -0.820397       -22.3241
  32   2.0000      -0.781196       -21.2574
  33   2.0000      -0.772051       -21.0086
  34   2.0000      -0.709652       -19.3106
  35   2.0000      -0.703687       -19.1483
  36   2.0000      -0.689173       -18.7533
  37   2.0000      -0.660743       -17.9797
  38   2.0000      -0.650950       -17.7133
  39   2.0000      -0.615538       -16.7496
  40   2.0000      -0.588277       -16.0078
  41   2.0000      -0.579709       -15.7747
  42   2.0000      -0.558984       -15.2107
  43   2.0000      -0.550226       -14.9724
  44   2.0000      -0.544963       -14.8292
  45   2.0000      -0.520816       -14.1721
  46   2.0000      -0.518213       -14.1013
  47   2.0000      -0.513466       -13.9721
  48   2.0000      -0.510173       -13.8825
  49   2.0000      -0.504627       -13.7316
  50   2.0000      -0.485731       -13.2174
  51   2.0000      -0.479716       -13.0537
  52   2.0000      -0.478764       -13.0278
  53   2.0000      -0.470424       -12.8009
  54   2.0000      -0.462786       -12.5930
  55   2.0000      -0.448169       -12.1953
  56   2.0000      -0.440964       -11.9992
  57   2.0000      -0.430365       -11.7108
  58   2.0000      -0.428101       -11.6492
  59   2.0000      -0.424892       -11.5619
  60   2.0000      -0.416813       -11.3421
  61   2.0000      -0.409825       -11.1519
  62   2.0000      -0.409113       -11.1325
  63   2.0000      -0.337378        -9.1805
  64   2.0000      -0.333893        -9.0857
  65   2.0000      -0.322886        -8.7862
  66   2.0000      -0.309443        -8.4204
  67   0.0000       0.041204         1.1212
  68   0.0000       0.055250         1.5034
  69   0.0000       0.112259         3.0547
  70   0.0000       0.119644         3.2557
  71   0.0000       0.126306         3.4370

MULLIKEN ATOMIC CHARGES
-----------------------
   0 S :    0.133697
   1 C :   -0.087608
   2 C :   -0.105191
   3 C :    0.056772
   4 C :   -0.176170
   5 H :    0.000110
   6 C :    0.080439
   7 H :    0.010388
   8 H :    0.019547
   9 C :   -0.076141
  10 H :    0.032547
  11 H :    0.014730
  12 C :   -0.043713
  13 H :    0.031384
  14 H :    0.035505
  15 H :    0.037312
  16 S :    0.099603
  17 C :   -0.097410
  18 C :   -0.047791
  19 C :   -0.010444
  20 C :   -0.173504
  21 H :    0.040922
  22 C :    0.044886
  23 H :    0.037268
  24 H :    0.019793
  25 C :   -0.081680
  26 H :    0.024120
  27 H :    0.028464
  28 C :   -0.017541
  29 H :    0.015479
  30 H :    0.026869
  31 H :    0.027544
  32 H :    0.036694
  33 H :    0.063122
Sum of atomic charges:   -0.0000000

LOEWDIN ATOMIC CHARGES
----------------------
   0 S :    0.446564
   1 C :   -0.206294
   2 C :   -0.064275
   3 C :   -0.050828
   4 C :   -0.212641
   5 H :    0.027367
   6 C :   -0.035026
   7 H :    0.027864
   8 H :    0.024661
   9 C :   -0.038940
  10 H :    0.028361
  11 H :    0.018828
  12 C :   -0.076031
  13 H :    0.030658
  14 H :    0.031677
  15 H :    0.025552
  16 S :    0.389209
  17 C :   -0.174670
  18 C :   -0.077657
  19 C :   -0.055914
  20 C :   -0.198767
  21 H :    0.040353
  22 C :   -0.030412
  23 H :    0.032911
  24 H :    0.025825
  25 C :   -0.041208
  26 H :    0.023590
  27 H :    0.023246
  28 C :   -0.060690
  29 H :    0.024091
  30 H :    0.023522
  31 H :    0.017703
  32 H :    0.027032
  33 H :    0.034341

  Mayer bond orders larger than 0.100000
B(  0-S ,  1-C ) :   1.1596 B(  0-S ,  4-C ) :   1.1675 B(  1-C ,  2-C ) :   1.5762
B(  1-C , 32-H ) :   0.9741 B(  2-C ,  3-C ) :   1.2451 B(  2-C ,  6-C ) :   1.0443
B(  3-C ,  4-C ) :   1.5718 B(  3-C ,  5-H ) :   1.0007 B(  4-C , 20-C ) :   1.0047
B(  6-C ,  7-H ) :   0.9324 B(  6-C ,  8-H ) :   0.9363 B(  6-C ,  9-C ) :   1.0565
B(  9-C , 10-H ) :   0.9606 B(  9-C , 11-H ) :   0.9672 B(  9-C , 12-C ) :   1.0557
B( 12-C , 13-H ) :   0.9767 B( 12-C , 14-H ) :   0.9780 B( 12-C , 15-H ) :   0.9768
B( 16-S , 17-C ) :   1.1413 B( 16-S , 20-C ) :   1.1383 B( 17-C , 18-C ) :   1.6313
B( 17-C , 33-H ) :   0.9642 B( 18-C , 19-C ) :   1.2347 B( 18-C , 21-H ) :   0.9780
B( 19-C , 20-C ) :   1.6115 B( 19-C , 22-C ) :   1.0230 B( 22-C , 23-H ) :   0.9544
B( 22-C , 24-H ) :   0.9355 B( 22-C , 25-C ) :   1.0677 B( 25-C , 26-H ) :   0.9584
B( 25-C , 27-H ) :   0.9567 B( 25-C , 28-C ) :   1.0786 B( 28-C , 29-H ) :   0.9707
B( 28-C , 30-H ) :   0.9710 B( 28-C , 31-H ) :   0.9736

Dispersion correction           -0.014211932
FINAL SINGLE POINT ENERGY     -1339.873589809993

DIPOLE MOMENT
-------------
                                X             Y             Z
Electronic contribution:     14.44186      -7.43229     -13.30754
Nuclear contribution   :    -14.72835       7.74392      13.68079
                        -----------------------------------------
Total Dipole Moment    :     -0.28649       0.31164       0.37325
                        -----------------------------------------
Magnitude (a.u.)       :      0.56437
Magnitude (Debye)      :      1.43451

Rotational constants in cm-1:     0.021569     0.007049     0.006504
Rotational constants in MHz :   646.621419   211.336831   194.993161

                             ****ORCA TERMINATED NORMALLY****
TOTAL RUN TIME: 0 days 0 hours 0 minutes 21 seconds 79 msec
