                         Program Version 4.2.1 -  RELEASE  -
|  1> ! wB97X-D3 SP def2-SVP
|  2> %pal
|  3> nprocs 24
|  4> end
|  5>
|  6> * xyz 0 1
|  7> S 	 29.5183 	 -29.8668 	 -128.497
|  8> C 	 28.0167 	 -29.0253 	 -128.141
|  9> C 	 27.0678 	 -29.15 	 -129.142
| 10> C 	 27.5519 	 -30.0187 	 -130.208
| 11> C 	 28.8437 	 -30.5206 	 -129.96
| 12> H 	 27.0333 	 -30.2776 	 -131.109
| 13> C 	 25.705 	 -28.4993 	 -129.222
| 14> H 	 25.1626 	 -28.6629 	 -130.196
| 15> H 	 25.7373 	 -27.4262 	 -129.066
| 16> C 	 24.6551 	 -28.8944 	 -128.095
| 17> H 	 24.6917 	 -29.9635 	 -127.873
| 18> H 	 24.8975 	 -28.4408 	 -127.089
| 19> C 	 23.2359 	 -28.5626 	 -128.509
| 20> H 	 23.0595 	 -27.5884 	 -128.798
| 21> H 	 22.8929 	 -29.1794 	 -129.293
| 22> H 	 22.5583 	 -28.6449 	 -127.703
| 23> S 	 30.1003 	 -31.1203 	 -132.38
| 24> C 	 31.2771 	 -32.4586 	 -132.366
| 25> C 	 31.0942 	 -33.2563 	 -131.317
| 26> C 	 30.1794 	 -32.6525 	 -130.355
| 27> C 	 29.5887 	 -31.4844 	 -130.759
| 28> H 	 31.502 	 -34.2674 	 -131.301
| 29> C 	 30.1695 	 -33.3751 	 -128.99
| 30> H 	 29.7443 	 -32.6545 	 -128.329
| 31> H 	 31.2489 	 -33.6493 	 -128.856
| 32> C 	 29.3335 	 -34.5827 	 -128.979
| 33> H 	 29.8159 	 -35.4533 	 -129.406
| 34> H 	 28.4841 	 -34.5646 	 -129.758
| 35> C 	 28.6876 	 -35.005 	 -127.527
| 36> H 	 29.2695 	 -34.4954 	 -126.763
| 37> H 	 28.7263 	 -36.1359 	 -127.542
| 38> H 	 27.6493 	 -34.7541 	 -127.496
| 39> H 	 27.8841 	 -28.6037 	 -127.195
| 40> H 	 31.8492 	 -32.7473 	 -133.187
| 41> *
| 42>
| 43>                          ****END OF INPUT****

CARTESIAN COORDINATES (ANGSTROEM)
---------------------------------
  S     29.518300  -29.866800  -128.497000
  C     28.016700  -29.025300  -128.141000
  C     27.067800  -29.150000  -129.142000
  C     27.551900  -30.018700  -130.208000
  C     28.843700  -30.520600  -129.960000
  H     27.033300  -30.277600  -131.109000
  C     25.705000  -28.499300  -129.222000
  H     25.162600  -28.662900  -130.196000
  H     25.737300  -27.426200  -129.066000
  C     24.655100  -28.894400  -128.095000
  H     24.691700  -29.963500  -127.873000
  H     24.897500  -28.440800  -127.089000
  C     23.235900  -28.562600  -128.509000
  H     23.059500  -27.588400  -128.798000
  H     22.892900  -29.179400  -129.293000
  H     22.558300  -28.644900  -127.703000
  S     30.100300  -31.120300  -132.380000
  C     31.277100  -32.458600  -132.366000
  C     31.094200  -33.256300  -131.317000
  C     30.179400  -32.652500  -130.355000
  C     29.588700  -31.484400  -130.759000
  H     31.502000  -34.267400  -131.301000
  C     30.169500  -33.375100  -128.990000
  H     29.744300  -32.654500  -128.329000
  H     31.248900  -33.649300  -128.856000
  C     29.333500  -34.582700  -128.979000
  H     29.815900  -35.453300  -129.406000
  H     28.484100  -34.564600  -129.758000
  C     28.687600  -35.005000  -127.527000
  H     29.269500  -34.495400  -126.763000
  H     28.726300  -36.135900  -127.542000
  H     27.649300  -34.754100  -127.496000
  H     27.884100  -28.603700  -127.195000
  H     31.849200  -32.747300  -133.187000

 Total Charge           Charge          ....    0
 Multiplicity           Mult            ....    1
 Number of Electrons    NEL             ....  134
 Basis Dimension        Dim             ....  322

ORBITAL ENERGIES
----------------

  NO   OCC          E(Eh)            E(eV)
   0   2.0000     -88.968890     -2420.9666
   1   2.0000     -88.959667     -2420.7156
   2   2.0000     -10.331181      -281.1257
   3   2.0000     -10.323438      -280.9150
   4   2.0000     -10.312217      -280.6097
   5   2.0000     -10.311170      -280.5812
   6   2.0000     -10.308419      -280.5064
   7   2.0000     -10.301263      -280.3116
   8   2.0000     -10.299563      -280.2654
   9   2.0000     -10.297795      -280.2172
  10   2.0000     -10.292075      -280.0616
  11   2.0000     -10.290303      -280.0134
  12   2.0000     -10.286816      -279.9185
  13   2.0000     -10.286343      -279.9056
  14   2.0000     -10.283890      -279.8389
  15   2.0000     -10.264806      -279.3196
  16   2.0000      -8.083304      -219.9579
  17   2.0000      -8.074604      -219.7211
  18   2.0000      -6.041750      -164.4044
  19   2.0000      -6.037793      -164.2967
  20   2.0000      -6.034203      -164.1990
  21   2.0000      -6.033385      -164.1767
  22   2.0000      -6.029188      -164.0625
  23   2.0000      -6.024955      -163.9474
  24   2.0000      -1.005936       -27.3729
  25   2.0000      -0.982774       -26.7427
  26   2.0000      -0.907745       -24.7010
  27   2.0000      -0.904662       -24.6171
  28   2.0000      -0.874154       -23.7869
  29   2.0000      -0.852040       -23.1852
  30   2.0000      -0.834862       -22.7177
  31   2.0000      -0.817250       -22.2385
  32   2.0000      -0.783773       -21.3275
  33   2.0000      -0.770303       -20.9610
  34   2.0000      -0.706417       -19.2226
  35   2.0000      -0.702859       -19.1258
  36   2.0000      -0.691526       -18.8174
  37   2.0000      -0.663850       -18.0643
  38   2.0000      -0.646769       -17.5995
  39   2.0000      -0.615081       -16.7372
  40   2.0000      -0.595196       -16.1961
  41   2.0000      -0.574620       -15.6362
  42   2.0000      -0.563714       -15.3394
  43   2.0000      -0.557445       -15.1689
  44   2.0000      -0.528609       -14.3842
  45   2.0000      -0.521936       -14.2026
  46   2.0000      -0.515173       -14.0186
  47   2.0000      -0.513940       -13.9850
  48   2.0000      -0.505701       -13.7608
  49   2.0000      -0.498607       -13.5678
  50   2.0000      -0.485076       -13.1996
  51   2.0000      -0.478939       -13.0326
  52   2.0000      -0.473097       -12.8736
  53   2.0000      -0.465508       -12.6671
  54   2.0000      -0.463733       -12.6188
  55   2.0000      -0.458214       -12.4686
  56   2.0000      -0.447485       -12.1767
  57   2.0000      -0.437550       -11.9064
  58   2.0000      -0.431467       -11.7408
  59   2.0000      -0.427001       -11.6193
  60   2.0000      -0.417878       -11.3710
  61   2.0000      -0.409670       -11.1477
  62   2.0000      -0.390044       -10.6136
  63   2.0000      -0.346062        -9.4168
  64   2.0000      -0.330490        -8.9931
  65   2.0000      -0.321091        -8.7373
  66   2.0000      -0.299711        -8.1555
  67   0.0000       0.034536         0.9398
  68   0.0000       0.068966         1.8767
  69   0.0000       0.108378         2.9491
  70   0.0000       0.108565         2.9542
  71   0.0000       0.130635         3.5548

MULLIKEN ATOMIC CHARGES
-----------------------
   0 S :    0.122937
   1 C :   -0.121579
   2 C :   -0.029580
   3 C :    0.028246
   4 C :   -0.166741
   5 H :    0.008176
   6 C :    0.040452
   7 H :    0.034474
   8 H :    0.039652
   9 C :   -0.110989
  10 H :    0.030883
  11 H :    0.031952
  12 C :    0.005710
  13 H :    0.003153
  14 H :    0.023985
  15 H :    0.015224
  16 S :    0.087991
  17 C :   -0.060432
  18 C :   -0.032013
  19 C :   -0.103595
  20 C :   -0.128757
  21 H :    0.034251
  22 C :    0.140006
  23 H :    0.008540
  24 H :    0.046532
  25 C :   -0.136516
  26 H :    0.014263
  27 H :    0.035656
  28 C :   -0.054687
  29 H :    0.046758
  30 H :    0.040599
  31 H :    0.040871
  32 H :    0.031087
  33 H :    0.033491
Sum of atomic charges:   -0.0000000

LOEWDIN ATOMIC CHARGES
----------------------
   0 S :    0.423378
   1 C :   -0.186448
   2 C :   -0.056688
   3 C :   -0.056150
   4 C :   -0.193281
   5 H :    0.028538
   6 C :   -0.035930
   7 H :    0.036296
   8 H :    0.035045
   9 C :   -0.040487
  10 H :    0.022129
  11 H :    0.024594
  12 C :   -0.059306
  13 H :    0.014893
  14 H :    0.022246
  15 H :    0.025458
  16 S :    0.382143
  17 C :   -0.154188
  18 C :   -0.072270
  19 C :   -0.047807
  20 C :   -0.215133
  21 H :    0.037732
  22 C :   -0.036558
  23 H :    0.016322
  24 H :    0.041926
  25 C :   -0.055569
  26 H :    0.015457
  27 H :    0.031452
  28 C :   -0.061770
  29 H :    0.025537
  30 H :    0.034338
  31 H :    0.022540
  32 H :    0.014035
  33 H :    0.017527

  Mayer bond orders larger than 0.100000
B(  0-S ,  1-C ) :   1.1418 B(  0-S ,  4-C ) :   1.1603 B(  1-C ,  2-C ) :   1.5981
B(  1-C , 32-H ) :   0.9792 B(  2-C ,  3-C ) :   1.2341 B(  2-C ,  6-C ) :   1.0262
B(  3-C ,  4-C ) :   1.5694 B(  3-C ,  5-H ) :   0.9972 B(  4-C , 20-C ) :   1.0278
B(  6-C ,  7-H ) :   0.9545 B(  6-C ,  8-H ) :   0.9374 B(  6-C ,  9-C ) :   1.0385
B(  9-C , 10-H ) :   0.9613 B(  9-C , 11-H ) :   0.9573 B(  9-C , 12-C ) :   1.0916
B( 12-C , 13-H ) :   0.9699 B( 12-C , 14-H ) :   0.9728 B( 12-C , 15-H ) :   0.9671
B( 16-S , 17-C ) :   1.1325 B( 16-S , 20-C ) :   1.1033 B( 17-C , 18-C ) :   1.6748
B( 17-C , 33-H ) :   0.9677 B( 18-C , 19-C ) :   1.1870 B( 18-C , 21-H ) :   0.9854
B( 19-C , 20-C ) :   1.6481 B( 19-C , 22-C ) :   1.0308 B( 22-C , 23-H ) :   0.9230
B( 22-C , 24-H ) :   0.9347 B( 22-C , 25-C ) :   1.0620 B( 25-C , 26-H ) :   0.9584
B( 25-C , 27-H ) :   0.9590 B( 25-C , 28-C ) :   1.0546 B( 28-C , 29-H ) :   0.9812
B( 28-C , 30-H ) :   0.9806 B( 28-C , 31-H ) :   0.9820

Dispersion correction           -0.013580284
FINAL SINGLE POINT ENERGY     -1339.851436082568

DIPOLE MOMENT
-------------
                                X             Y             Z
Electronic contribution:     20.53535       7.37632     -13.11570
Nuclear contribution   :    -20.91601      -7.67535      13.29775
                        -----------------------------------------
Total Dipole Moment    :     -0.38066      -0.29903       0.18205
                        -----------------------------------------
Magnitude (a.u.)       :      0.51717
Magnitude (Debye)      :      1.31453

Rotational constants in cm-1:     0.019027     0.007570     0.006413
Rotational constants in MHz :   570.421962   226.947160   192.267440

                             ****ORCA TERMINATED NORMALLY****
TOTAL RUN TIME: 0 days 0 hours 0 minutes 20 seconds 991 msec
