                         Program Version 4.2.1 -  RELEASE  -
|  1> ! wB97X-D3 SP def2-SVP
|  2> %pal
|  3> nprocs 24
|  4> end
|  5>
|  6> * xyz 0 1
|  7> S 	 -32.5162 	 -31.9799 	 -94.6976
|  8> C 	 -33.1749 	 -30.4239 	 -95.1477
|  9> C 	 -32.1523 	 -29.5096 	 -95.255
| 10> C 	 -30.8378 	 -30.1203 	 -95.1836
| 11> C 	 -30.8461 	 -31.4516 	 -94.836
| 12> H 	 -29.9405 	 -29.6286 	 -95.4219
| 13> C 	 -32.2601 	 -28.0657 	 -95.4808
| 14> H 	 -31.7476 	 -27.6435 	 -94.6224
| 15> H 	 -33.3215 	 -27.9274 	 -95.3261
| 16> C 	 -31.9453 	 -27.4302 	 -96.8365
| 17> H 	 -32.4235 	 -28.031 	 -97.56
| 18> H 	 -32.3555 	 -26.4347 	 -97.0103
| 19> C 	 -30.4926 	 -27.422 	 -97.1206
| 20> H 	 -30.0485 	 -28.3903 	 -97.0175
| 21> H 	 -30.2643 	 -27.0876 	 -98.0892
| 22> H 	 -30.0662 	 -26.8445 	 -96.3475
| 23> S 	 -30.2413 	 -33.9749 	 -95.4635
| 24> C 	 -28.7052 	 -34.7255 	 -95.1214
| 25> C 	 -27.872 	 -33.7156 	 -94.7668
| 26> C 	 -28.4138 	 -32.4259 	 -94.5398
| 27> C 	 -29.7731 	 -32.414 	 -94.8365
| 28> H 	 -26.8239 	 -33.9491 	 -94.5816
| 29> C 	 -27.6058 	 -31.1767 	 -94.0538
| 30> H 	 -28.0421 	 -30.1947 	 -94.3335
| 31> H 	 -26.6284 	 -31.1627 	 -94.6145
| 32> C 	 -27.348 	 -31.331 	 -92.5206
| 33> H 	 -27.2417 	 -32.456 	 -92.3835
| 34> H 	 -28.1774 	 -30.9535 	 -91.9072
| 35> C 	 -26.0367 	 -30.5133 	 -92.0475
| 36> H 	 -26.1208 	 -29.4767 	 -92.2789
| 37> H 	 -25.0578 	 -30.7525 	 -92.4334
| 38> H 	 -26.0324 	 -30.524 	 -90.9679
| 39> H 	 -34.18 	 -30.1335 	 -95.0929
| 40> H 	 -28.2833 	 -35.7281 	 -95.3286
| 41> *
| 42>
| 43>                          ****END OF INPUT****

CARTESIAN COORDINATES (ANGSTROEM)
---------------------------------
  S    -32.516200  -31.979900  -94.697600
  C    -33.174900  -30.423900  -95.147700
  C    -32.152300  -29.509600  -95.255000
  C    -30.837800  -30.120300  -95.183600
  C    -30.846100  -31.451600  -94.836000
  H    -29.940500  -29.628600  -95.421900
  C    -32.260100  -28.065700  -95.480800
  H    -31.747600  -27.643500  -94.622400
  H    -33.321500  -27.927400  -95.326100
  C    -31.945300  -27.430200  -96.836500
  H    -32.423500  -28.031000  -97.560000
  H    -32.355500  -26.434700  -97.010300
  C    -30.492600  -27.422000  -97.120600
  H    -30.048500  -28.390300  -97.017500
  H    -30.264300  -27.087600  -98.089200
  H    -30.066200  -26.844500  -96.347500
  S    -30.241300  -33.974900  -95.463500
  C    -28.705200  -34.725500  -95.121400
  C    -27.872000  -33.715600  -94.766800
  C    -28.413800  -32.425900  -94.539800
  C    -29.773100  -32.414000  -94.836500
  H    -26.823900  -33.949100  -94.581600
  C    -27.605800  -31.176700  -94.053800
  H    -28.042100  -30.194700  -94.333500
  H    -26.628400  -31.162700  -94.614500
  C    -27.348000  -31.331000  -92.520600
  H    -27.241700  -32.456000  -92.383500
  H    -28.177400  -30.953500  -91.907200
  C    -26.036700  -30.513300  -92.047500
  H    -26.120800  -29.476700  -92.278900
  H    -25.057800  -30.752500  -92.433400
  H    -26.032400  -30.524000  -90.967900
  H    -34.180000  -30.133500  -95.092900
  H    -28.283300  -35.728100  -95.328600

 Total Charge           Charge          ....    0
 Multiplicity           Mult            ....    1
 Number of Electrons    NEL             ....  134
 Basis Dimension        Dim             ....  322

ORBITAL ENERGIES
----------------

  NO   OCC          E(Eh)            E(eV)
   0   2.0000     -88.964709     -2420.8528
   1   2.0000     -88.962871     -2420.8028
   2   2.0000     -10.331335      -281.1299
   3   2.0000     -10.328794      -281.0608
   4   2.0000     -10.316134      -280.7163
   5   2.0000     -10.311659      -280.5945
   6   2.0000     -10.306876      -280.4643
   7   2.0000     -10.304768      -280.4070
   8   2.0000     -10.300214      -280.2831
   9   2.0000     -10.299391      -280.2607
  10   2.0000     -10.290702      -280.0242
  11   2.0000     -10.289864      -280.0014
  12   2.0000     -10.285358      -279.8788
  13   2.0000     -10.280008      -279.7332
  14   2.0000     -10.277735      -279.6714
  15   2.0000     -10.263184      -279.2754
  16   2.0000      -8.079335      -219.8499
  17   2.0000      -8.077791      -219.8079
  18   2.0000      -6.038071      -164.3043
  19   2.0000      -6.036474      -164.2608
  20   2.0000      -6.033725      -164.1860
  21   2.0000      -6.032103      -164.1419
  22   2.0000      -6.029958      -164.0835
  23   2.0000      -6.028462      -164.0428
  24   2.0000      -1.012343       -27.5473
  25   2.0000      -0.988087       -26.8872
  26   2.0000      -0.923996       -25.1432
  27   2.0000      -0.897137       -24.4123
  28   2.0000      -0.879768       -23.9397
  29   2.0000      -0.851491       -23.1702
  30   2.0000      -0.840200       -22.8630
  31   2.0000      -0.822913       -22.3926
  32   2.0000      -0.783336       -21.3157
  33   2.0000      -0.775177       -21.0936
  34   2.0000      -0.711498       -19.3608
  35   2.0000      -0.710218       -19.3260
  36   2.0000      -0.696991       -18.9661
  37   2.0000      -0.661439       -17.9987
  38   2.0000      -0.642843       -17.4926
  39   2.0000      -0.622614       -16.9422
  40   2.0000      -0.594195       -16.1689
  41   2.0000      -0.578945       -15.7539
  42   2.0000      -0.556854       -15.1528
  43   2.0000      -0.553529       -15.0623
  44   2.0000      -0.545765       -14.8510
  45   2.0000      -0.527394       -14.3511
  46   2.0000      -0.520402       -14.1609
  47   2.0000      -0.517316       -14.0769
  48   2.0000      -0.507423       -13.8077
  49   2.0000      -0.500087       -13.6081
  50   2.0000      -0.496404       -13.5078
  51   2.0000      -0.485062       -13.1992
  52   2.0000      -0.473669       -12.8892
  53   2.0000      -0.470282       -12.7970
  54   2.0000      -0.461360       -12.5542
  55   2.0000      -0.446460       -12.1488
  56   2.0000      -0.440526       -11.9873
  57   2.0000      -0.438114       -11.9217
  58   2.0000      -0.428544       -11.6613
  59   2.0000      -0.426945       -11.6178
  60   2.0000      -0.420332       -11.4378
  61   2.0000      -0.414063       -11.2672
  62   2.0000      -0.405850       -11.0437
  63   2.0000      -0.361320        -9.8320
  64   2.0000      -0.329106        -8.9554
  65   2.0000      -0.325949        -8.8695
  66   2.0000      -0.290386        -7.9018
  67   0.0000       0.022374         0.6088
  68   0.0000       0.082885         2.2554
  69   0.0000       0.109693         2.9849
  70   0.0000       0.112127         3.0511
  71   0.0000       0.141226         3.8430

MULLIKEN ATOMIC CHARGES
-----------------------
   0 S :    0.099720
   1 C :   -0.085723
   2 C :   -0.127345
   3 C :    0.017902
   4 C :   -0.102481
   5 H :   -0.012019
   6 C :    0.067045
   7 H :    0.034035
   8 H :    0.001176
   9 C :   -0.013953
  10 H :    0.008867
  11 H :    0.029890
  12 C :   -0.004771
  13 H :    0.018924
  14 H :    0.021738
  15 H :    0.009437
  16 S :    0.093354
  17 C :   -0.081734
  18 C :   -0.061912
  19 C :   -0.038189
  20 C :   -0.147669
  21 H :    0.016894
  22 C :    0.051678
  23 H :    0.029662
  24 H :    0.037090
  25 C :   -0.097093
  26 H :    0.052693
  27 H :    0.048987
  28 C :   -0.046719
  29 H :    0.016837
  30 H :    0.032492
  31 H :    0.030145
  32 H :    0.031501
  33 H :    0.069541
Sum of atomic charges:   -0.0000000

LOEWDIN ATOMIC CHARGES
----------------------
   0 S :    0.401594
   1 C :   -0.190614
   2 C :   -0.058700
   3 C :   -0.061197
   4 C :   -0.186414
   5 H :    0.016065
   6 C :   -0.035583
   7 H :    0.033641
   8 H :    0.030627
   9 C :   -0.031370
  10 H :    0.020090
  11 H :    0.027589
  12 C :   -0.055456
  13 H :    0.021599
  14 H :    0.020773
  15 H :    0.019228
  16 S :    0.411048
  17 C :   -0.200838
  18 C :   -0.078521
  19 C :   -0.064604
  20 C :   -0.189757
  21 H :    0.028663
  22 C :   -0.034172
  23 H :    0.027889
  24 H :    0.036496
  25 C :   -0.036081
  26 H :    0.033223
  27 H :    0.030788
  28 C :   -0.071256
  29 H :    0.020434
  30 H :    0.022194
  31 H :    0.025259
  32 H :    0.021034
  33 H :    0.046330

  Mayer bond orders larger than 0.100000
B(  0-S ,  1-C ) :   1.1230 B(  0-S ,  4-C ) :   1.1426 B(  1-C ,  2-C ) :   1.6201
B(  1-C , 32-H ) :   0.9691 B(  2-C ,  3-C ) :   1.2222 B(  2-C ,  6-C ) :   1.0321
B(  3-C ,  4-C ) :   1.5774 B(  3-C ,  5-H ) :   0.9899 B(  4-C , 20-C ) :   1.0618
B(  6-C ,  7-H ) :   0.9354 B(  6-C ,  8-H ) :   0.9240 B(  6-C ,  9-C ) :   1.0688
B(  9-C , 10-H ) :   0.9435 B(  9-C , 11-H ) :   0.9541 B(  9-C , 12-C ) :   1.0966
B( 12-C , 13-H ) :   0.9667 B( 12-C , 14-H ) :   0.9650 B( 12-C , 15-H ) :   0.9745
B( 16-S , 17-C ) :   1.1339 B( 16-S , 20-C ) :   1.1544 B( 17-C , 18-C ) :   1.6161
B( 17-C , 33-H ) :   0.9636 B( 18-C , 19-C ) :   1.2606 B( 18-C , 21-H ) :   0.9781
B( 19-C , 20-C ) :   1.5756 B( 19-C , 22-C ) :   1.0279 B( 22-C , 23-H ) :   0.9422
B( 22-C , 24-H ) :   0.9453 B( 22-C , 25-C ) :   1.0392 B( 25-C , 26-H ) :   0.9660
B( 25-C , 27-H ) :   0.9564 B( 25-C , 28-C ) :   1.0619 B( 28-C , 29-H ) :   0.9742
B( 28-C , 30-H ) :   0.9802 B( 28-C , 31-H ) :   0.9776

Dispersion correction           -0.013863044
FINAL SINGLE POINT ENERGY     -1339.860867816776

DIPOLE MOMENT
-------------
                                X             Y             Z
Electronic contribution:    -15.08210     -23.39719      -2.64589
Nuclear contribution   :     15.50235      23.99408       2.60916
                        -----------------------------------------
Total Dipole Moment    :      0.42026       0.59690      -0.03673
                        -----------------------------------------
Magnitude (a.u.)       :      0.73092
Magnitude (Debye)      :      1.85786

Rotational constants in cm-1:     0.016662     0.009195     0.006881
Rotational constants in MHz :   499.516729   275.660787   206.288583

                             ****ORCA TERMINATED NORMALLY****
TOTAL RUN TIME: 0 days 0 hours 0 minutes 20 seconds 567 msec
