                         Program Version 4.2.1 -  RELEASE  -
|  1> ! wB97X-D3 SP def2-SVP
|  2> %pal
|  3> nprocs 24
|  4> end
|  5>
|  6> * xyz 0 1
|  7> S 	 -58.7803 	 15.1979 	 -85.1545
|  8> C 	 -59.5983 	 15.7518 	 -86.5674
|  9> C 	 -59.0274 	 16.8852 	 -87.0653
| 10> C 	 -57.8245 	 17.2329 	 -86.385
| 11> C 	 -57.4838 	 16.3821 	 -85.3307
| 12> H 	 -57.1815 	 17.9969 	 -86.6988
| 13> C 	 -59.5802 	 17.7404 	 -88.1983
| 14> H 	 -59.0389 	 18.6373 	 -88.1385
| 15> H 	 -60.5789 	 17.9027 	 -87.8697
| 16> C 	 -59.6287 	 17.1261 	 -89.6435
| 17> H 	 -60.1026 	 16.171 	 -89.6134
| 18> H 	 -60.2904 	 17.795 	 -90.2188
| 19> C 	 -58.1926 	 17.0128 	 -90.1852
| 20> H 	 -57.9123 	 17.9732 	 -90.5699
| 21> H 	 -57.4353 	 16.6534 	 -89.4399
| 22> H 	 -58.3668 	 16.3333 	 -91.0197
| 23> S 	 -56.3953 	 16.2591 	 -82.707
| 24> C 	 -54.7429 	 16.5331 	 -82.4548
| 25> C 	 -54.1277 	 16.744 	 -83.6596
| 26> C 	 -54.9481 	 16.6655 	 -84.7755
| 27> C 	 -56.2628 	 16.309 	 -84.5165
| 28> H 	 -53.1156 	 16.8563 	 -83.6675
| 29> C 	 -54.3679 	 17.0928 	 -86.0983
| 30> H 	 -53.8657 	 18.0417 	 -86.0108
| 31> H 	 -55.1635 	 17.2753 	 -86.8298
| 32> C 	 -53.562 	 15.9831 	 -86.8107
| 33> H 	 -54.0737 	 15.0418 	 -86.8206
| 34> H 	 -52.6935 	 15.7698 	 -86.2268
| 35> C 	 -53.1462 	 16.3149 	 -88.2477
| 36> H 	 -52.7043 	 15.4777 	 -88.8524
| 37> H 	 -52.4309 	 17.1232 	 -88.3232
| 38> H 	 -53.9595 	 16.6297 	 -88.8535
| 39> H 	 -60.5561 	 15.3876 	 -86.8729
| 40> H 	 -54.2458 	 16.7124 	 -81.4633
| 41> *
| 42>
| 43>                          ****END OF INPUT****

CARTESIAN COORDINATES (ANGSTROEM)
---------------------------------
  S    -58.780300   15.197900  -85.154500
  C    -59.598300   15.751800  -86.567400
  C    -59.027400   16.885200  -87.065300
  C    -57.824500   17.232900  -86.385000
  C    -57.483800   16.382100  -85.330700
  H    -57.181500   17.996900  -86.698800
  C    -59.580200   17.740400  -88.198300
  H    -59.038900   18.637300  -88.138500
  H    -60.578900   17.902700  -87.869700
  C    -59.628700   17.126100  -89.643500
  H    -60.102600   16.171000  -89.613400
  H    -60.290400   17.795000  -90.218800
  C    -58.192600   17.012800  -90.185200
  H    -57.912300   17.973200  -90.569900
  H    -57.435300   16.653400  -89.439900
  H    -58.366800   16.333300  -91.019700
  S    -56.395300   16.259100  -82.707000
  C    -54.742900   16.533100  -82.454800
  C    -54.127700   16.744000  -83.659600
  C    -54.948100   16.665500  -84.775500
  C    -56.262800   16.309000  -84.516500
  H    -53.115600   16.856300  -83.667500
  C    -54.367900   17.092800  -86.098300
  H    -53.865700   18.041700  -86.010800
  H    -55.163500   17.275300  -86.829800
  C    -53.562000   15.983100  -86.810700
  H    -54.073700   15.041800  -86.820600
  H    -52.693500   15.769800  -86.226800
  C    -53.146200   16.314900  -88.247700
  H    -52.704300   15.477700  -88.852400
  H    -52.430900   17.123200  -88.323200
  H    -53.959500   16.629700  -88.853500
  H    -60.556100   15.387600  -86.872900
  H    -54.245800   16.712400  -81.463300

 Total Charge           Charge          ....    0
 Multiplicity           Mult            ....    1
 Number of Electrons    NEL             ....  134
 Basis Dimension        Dim             ....  322

ORBITAL ENERGIES
----------------

  NO   OCC          E(Eh)            E(eV)
   0   2.0000     -88.963711     -2420.8256
   1   2.0000     -88.963372     -2420.8164
   2   2.0000     -10.334591      -281.2185
   3   2.0000     -10.332917      -281.1730
   4   2.0000     -10.319231      -280.8005
   5   2.0000     -10.307719      -280.4873
   6   2.0000     -10.301265      -280.3117
   7   2.0000     -10.296100      -280.1711
   8   2.0000     -10.291655      -280.0502
   9   2.0000     -10.290421      -280.0166
  10   2.0000     -10.289404      -279.9889
  11   2.0000     -10.284153      -279.8460
  12   2.0000     -10.282014      -279.7878
  13   2.0000     -10.280272      -279.7404
  14   2.0000     -10.279051      -279.7072
  15   2.0000     -10.276196      -279.6295
  16   2.0000      -8.078779      -219.8347
  17   2.0000      -8.078434      -219.8254
  18   2.0000      -6.037325      -164.2840
  19   2.0000      -6.036858      -164.2713
  20   2.0000      -6.033088      -164.1687
  21   2.0000      -6.032829      -164.1616
  22   2.0000      -6.029633      -164.0747
  23   2.0000      -6.029295      -164.0655
  24   2.0000      -1.008296       -27.4371
  25   2.0000      -0.990489       -26.9526
  26   2.0000      -0.910665       -24.7804
  27   2.0000      -0.909928       -24.7604
  28   2.0000      -0.870313       -23.6824
  29   2.0000      -0.854416       -23.2499
  30   2.0000      -0.847062       -23.0497
  31   2.0000      -0.815359       -22.1871
  32   2.0000      -0.784841       -21.3566
  33   2.0000      -0.773837       -21.0572
  34   2.0000      -0.710302       -19.3283
  35   2.0000      -0.705876       -19.2079
  36   2.0000      -0.698203       -18.9991
  37   2.0000      -0.664789       -18.0898
  38   2.0000      -0.642506       -17.4835
  39   2.0000      -0.619881       -16.8678
  40   2.0000      -0.599611       -16.3162
  41   2.0000      -0.576890       -15.6980
  42   2.0000      -0.563711       -15.3394
  43   2.0000      -0.550679       -14.9847
  44   2.0000      -0.543704       -14.7949
  45   2.0000      -0.524377       -14.2690
  46   2.0000      -0.522972       -14.2308
  47   2.0000      -0.513715       -13.9789
  48   2.0000      -0.505335       -13.7509
  49   2.0000      -0.501977       -13.6595
  50   2.0000      -0.491980       -13.3874
  51   2.0000      -0.483543       -13.1579
  52   2.0000      -0.476598       -12.9689
  53   2.0000      -0.469356       -12.7718
  54   2.0000      -0.460446       -12.5294
  55   2.0000      -0.445682       -12.1276
  56   2.0000      -0.441669       -12.0184
  57   2.0000      -0.439041       -11.9469
  58   2.0000      -0.435251       -11.8438
  59   2.0000      -0.422922       -11.5083
  60   2.0000      -0.418474       -11.3872
  61   2.0000      -0.417815       -11.3693
  62   2.0000      -0.410328       -11.1656
  63   2.0000      -0.352892        -9.6027
  64   2.0000      -0.332053        -9.0356
  65   2.0000      -0.329357        -8.9622
  66   2.0000      -0.288956        -7.8629
  67   0.0000       0.025309         0.6887
  68   0.0000       0.069093         1.8801
  69   0.0000       0.113107         3.0778
  70   0.0000       0.123172         3.3517
  71   0.0000       0.126769         3.4496

MULLIKEN ATOMIC CHARGES
-----------------------
   0 S :    0.107938
   1 C :   -0.107589
   2 C :   -0.126501
   3 C :    0.042460
   4 C :   -0.155192
   5 H :   -0.008106
   6 C :    0.098148
   7 H :    0.001934
   8 H :    0.021608
   9 C :   -0.062580
  10 H :    0.021342
  11 H :    0.035648
  12 C :   -0.052591
  13 H :    0.026004
  14 H :    0.058948
  15 H :    0.036044
  16 S :    0.089444
  17 C :   -0.091137
  18 C :   -0.015049
  19 C :   -0.044720
  20 C :   -0.101967
  21 H :   -0.019922
  22 C :    0.061346
  23 H :    0.033047
  24 H :   -0.000818
  25 C :   -0.037236
  26 H :    0.029804
  27 H :    0.013388
  28 C :   -0.050390
  29 H :    0.039424
  30 H :    0.021140
  31 H :    0.016622
  32 H :    0.037306
  33 H :    0.082202
Sum of atomic charges:   -0.0000000

LOEWDIN ATOMIC CHARGES
----------------------
   0 S :    0.412792
   1 C :   -0.200415
   2 C :   -0.066905
   3 C :   -0.061718
   4 C :   -0.185598
   5 H :    0.018170
   6 C :   -0.024585
   7 H :    0.020550
   8 H :    0.028131
   9 C :   -0.031220
  10 H :    0.016843
  11 H :    0.027819
  12 C :   -0.065224
  13 H :    0.021052
  14 H :    0.034534
  15 H :    0.029059
  16 S :    0.405668
  17 C :   -0.197658
  18 C :   -0.073537
  19 C :   -0.052206
  20 C :   -0.185789
  21 H :    0.015372
  22 C :   -0.027993
  23 H :    0.031102
  24 H :    0.026409
  25 C :   -0.033556
  26 H :    0.027635
  27 H :    0.016961
  28 C :   -0.070260
  29 H :    0.034512
  30 H :    0.021280
  31 H :    0.017642
  32 H :    0.023445
  33 H :    0.047687

  Mayer bond orders larger than 0.100000
B(  0-S ,  1-C ) :   1.1463 B(  0-S ,  4-C ) :   1.1626 B(  1-C ,  2-C ) :   1.6050
B(  1-C ,  4-C ) :   0.1014 B(  1-C , 32-H ) :   0.9696 B(  2-C ,  3-C ) :   1.2602
B(  2-C ,  6-C ) :   1.0076 B(  3-C ,  4-C ) :   1.5499 B(  3-C ,  5-H ) :   0.9964
B(  4-C , 20-C ) :   1.0272 B(  6-C ,  7-H ) :   0.9415 B(  6-C ,  8-H ) :   0.9327
B(  6-C ,  9-C ) :   1.0731 B(  9-C , 10-H ) :   0.9622 B(  9-C , 11-H ) :   0.9559
B(  9-C , 12-C ) :   1.0596 B( 12-C , 13-H ) :   0.9767 B( 12-C , 14-H ) :   0.9776
B( 12-C , 15-H ) :   0.9767 B( 16-S , 17-C ) :   1.1866 B( 16-S , 20-C ) :   1.1269
B( 17-C , 18-C ) :   1.5647 B( 17-C , 20-C ) :   0.1009 B( 17-C , 33-H ) :   0.9579
B( 18-C , 19-C ) :   1.2732 B( 18-C , 21-H ) :   1.0116 B( 19-C , 20-C ) :   1.5804
B( 19-C , 22-C ) :   1.0454 B( 22-C , 23-H ) :   0.9393 B( 22-C , 24-H ) :   0.9318
B( 22-C , 25-C ) :   1.0553 B( 25-C , 26-H ) :   0.9536 B( 25-C , 27-H ) :   0.9559
B( 25-C , 28-C ) :   1.0835 B( 28-C , 29-H ) :   0.9741 B( 28-C , 30-H ) :   0.9744
B( 28-C , 31-H ) :   0.9736

Dispersion correction           -0.014219815
FINAL SINGLE POINT ENERGY     -1339.872439316291

DIPOLE MOMENT
-------------
                                X             Y             Z
Electronic contribution:     -8.58408      -6.58380      29.37110
Nuclear contribution   :      8.81483       7.03033     -29.91168
                        -----------------------------------------
Total Dipole Moment    :      0.23076       0.44653      -0.54059
                        -----------------------------------------
Magnitude (a.u.)       :      0.73816
Magnitude (Debye)      :      1.87624

Rotational constants in cm-1:     0.017545     0.009437     0.006653
Rotational constants in MHz :   525.978000   282.901191   199.466353

                             ****ORCA TERMINATED NORMALLY****
TOTAL RUN TIME: 0 days 0 hours 0 minutes 21 seconds 966 msec
