                         Program Version 4.2.1 -  RELEASE  -
|  1> ! wB97X-D3 SP def2-SVP
|  2> %pal
|  3> nprocs 24
|  4> end
|  5>
|  6> * xyz 0 1
|  7> S 	 -117.296 	 32.5945 	 -115.425
|  8> C 	 -115.819 	 32.5762 	 -114.466
|  9> C 	 -115.22 	 33.8127 	 -114.373
| 10> C 	 -115.999 	 34.7544 	 -115.094
| 11> C 	 -117.293 	 34.338 	 -115.477
| 12> H 	 -115.775 	 35.8105 	 -115.284
| 13> C 	 -113.888 	 34.2265 	 -113.786
| 14> H 	 -113.694 	 33.6301 	 -112.892
| 15> H 	 -114.004 	 35.3026 	 -113.403
| 16> C 	 -112.722 	 34.0175 	 -114.833
| 17> H 	 -112.76 	 32.9476 	 -115.214
| 18> H 	 -112.814 	 34.7326 	 -115.638
| 19> C 	 -111.304 	 34.2504 	 -114.197
| 20> H 	 -111.159 	 33.4651 	 -113.477
| 21> H 	 -110.551 	 34.237 	 -114.982
| 22> H 	 -111.272 	 35.2464 	 -113.739
| 23> S 	 -119.594 	 34.3283 	 -116.922
| 24> C 	 -120.364 	 35.7768 	 -117.474
| 25> C 	 -119.796 	 36.8493 	 -116.823
| 26> C 	 -118.612 	 36.5547 	 -116.052
| 27> C 	 -118.323 	 35.1697 	 -116.1
| 28> H 	 -120.392 	 37.7661 	 -117.068
| 29> C 	 -117.877 	 37.6939 	 -115.369
| 30> H 	 -118.099 	 38.5405 	 -115.958
| 31> H 	 -116.8 	 37.6635 	 -115.538
| 32> C 	 -118.221 	 37.8787 	 -113.86
| 33> H 	 -118.208 	 36.8609 	 -113.399
| 34> H 	 -119.24 	 38.2382 	 -113.75
| 35> C 	 -117.301 	 38.9033 	 -113.215
| 36> H 	 -117.348 	 38.9297 	 -112.035
| 37> H 	 -117.477 	 39.9667 	 -113.469
| 38> H 	 -116.279 	 38.7386 	 -113.634
| 39> H 	 -115.315 	 31.6054 	 -114.204
| 40> H 	 -121.246 	 35.8799 	 -117.995
| 41> *
| 42>
| 43>                          ****END OF INPUT****

CARTESIAN COORDINATES (ANGSTROEM)
---------------------------------
  S    -117.296000   32.594500  -115.425000
  C    -115.819000   32.576200  -114.466000
  C    -115.220000   33.812700  -114.373000
  C    -115.999000   34.754400  -115.094000
  C    -117.293000   34.338000  -115.477000
  H    -115.775000   35.810500  -115.284000
  C    -113.888000   34.226500  -113.786000
  H    -113.694000   33.630100  -112.892000
  H    -114.004000   35.302600  -113.403000
  C    -112.722000   34.017500  -114.833000
  H    -112.760000   32.947600  -115.214000
  H    -112.814000   34.732600  -115.638000
  C    -111.304000   34.250400  -114.197000
  H    -111.159000   33.465100  -113.477000
  H    -110.551000   34.237000  -114.982000
  H    -111.272000   35.246400  -113.739000
  S    -119.594000   34.328300  -116.922000
  C    -120.364000   35.776800  -117.474000
  C    -119.796000   36.849300  -116.823000
  C    -118.612000   36.554700  -116.052000
  C    -118.323000   35.169700  -116.100000
  H    -120.392000   37.766100  -117.068000
  C    -117.877000   37.693900  -115.369000
  H    -118.099000   38.540500  -115.958000
  H    -116.800000   37.663500  -115.538000
  C    -118.221000   37.878700  -113.860000
  H    -118.208000   36.860900  -113.399000
  H    -119.240000   38.238200  -113.750000
  C    -117.301000   38.903300  -113.215000
  H    -117.348000   38.929700  -112.035000
  H    -117.477000   39.966700  -113.469000
  H    -116.279000   38.738600  -113.634000
  H    -115.315000   31.605400  -114.204000
  H    -121.246000   35.879900  -117.995000

 Total Charge           Charge          ....    0
 Multiplicity           Mult            ....    1
 Number of Electrons    NEL             ....  134
 Basis Dimension        Dim             ....  322

ORBITAL ENERGIES
----------------

  NO   OCC          E(Eh)            E(eV)
   0   2.0000     -88.967022     -2420.9157
   1   2.0000     -88.964510     -2420.8474
   2   2.0000     -10.334332      -281.2115
   3   2.0000     -10.332637      -281.1653
   4   2.0000     -10.318396      -280.7778
   5   2.0000     -10.311688      -280.5953
   6   2.0000     -10.309291      -280.5301
   7   2.0000     -10.303771      -280.3799
   8   2.0000     -10.302206      -280.3373
   9   2.0000     -10.297447      -280.2078
  10   2.0000     -10.297341      -280.2049
  11   2.0000     -10.293392      -280.0974
  12   2.0000     -10.291805      -280.0543
  13   2.0000     -10.291473      -280.0452
  14   2.0000     -10.290719      -280.0247
  15   2.0000     -10.280651      -279.7507
  16   2.0000      -8.081525      -219.9095
  17   2.0000      -8.080033      -219.8689
  18   2.0000      -6.040139      -164.3605
  19   2.0000      -6.038533      -164.3168
  20   2.0000      -6.036216      -164.2538
  21   2.0000      -6.034373      -164.2036
  22   2.0000      -6.032046      -164.1403
  23   2.0000      -6.030830      -164.1072
  24   2.0000      -1.008580       -27.4449
  25   2.0000      -0.986151       -26.8345
  26   2.0000      -0.909270       -24.7425
  27   2.0000      -0.906052       -24.6549
  28   2.0000      -0.869727       -23.6665
  29   2.0000      -0.850979       -23.1563
  30   2.0000      -0.843934       -22.9646
  31   2.0000      -0.812700       -22.1147
  32   2.0000      -0.779074       -21.1997
  33   2.0000      -0.771606       -20.9965
  34   2.0000      -0.707447       -19.2506
  35   2.0000      -0.697538       -18.9810
  36   2.0000      -0.696915       -18.9640
  37   2.0000      -0.662231       -18.0202
  38   2.0000      -0.632950       -17.2234
  39   2.0000      -0.621584       -16.9142
  40   2.0000      -0.595787       -16.2122
  41   2.0000      -0.566566       -15.4170
  42   2.0000      -0.562134       -15.2964
  43   2.0000      -0.556354       -15.1392
  44   2.0000      -0.523850       -14.2547
  45   2.0000      -0.522322       -14.2131
  46   2.0000      -0.517802       -14.0901
  47   2.0000      -0.511712       -13.9244
  48   2.0000      -0.503868       -13.7109
  49   2.0000      -0.500380       -13.6160
  50   2.0000      -0.493031       -13.4160
  51   2.0000      -0.484193       -13.1755
  52   2.0000      -0.468014       -12.7353
  53   2.0000      -0.462867       -12.5952
  54   2.0000      -0.456221       -12.4144
  55   2.0000      -0.446797       -12.1580
  56   2.0000      -0.441999       -12.0274
  57   2.0000      -0.438410       -11.9297
  58   2.0000      -0.433950       -11.8084
  59   2.0000      -0.430235       -11.7073
  60   2.0000      -0.424443       -11.5497
  61   2.0000      -0.413791       -11.2598
  62   2.0000      -0.408359       -11.1120
  63   2.0000      -0.361670        -9.8415
  64   2.0000      -0.333252        -9.0682
  65   2.0000      -0.325000        -8.8437
  66   2.0000      -0.280156        -7.6234
  67   0.0000       0.014735         0.4010
  68   0.0000       0.087324         2.3762
  69   0.0000       0.096036         2.6133
  70   0.0000       0.115557         3.1445
  71   0.0000       0.132738         3.6120

MULLIKEN ATOMIC CHARGES
-----------------------
   0 S :    0.100158
   1 C :   -0.139861
   2 C :   -0.057293
   3 C :   -0.022260
   4 C :   -0.108781
   5 H :    0.001001
   6 C :    0.044378
   7 H :    0.024996
   8 H :    0.044317
   9 C :   -0.102734
  10 H :    0.046301
  11 H :    0.033689
  12 C :   -0.034679
  13 H :    0.033645
  14 H :    0.037488
  15 H :    0.032576
  16 S :    0.089149
  17 C :   -0.058837
  18 C :   -0.074698
  19 C :   -0.043364
  20 C :   -0.124926
  21 H :    0.036751
  22 C :    0.057593
  23 H :    0.004614
  24 H :    0.016707
  25 C :   -0.039454
  26 H :    0.051507
  27 H :    0.028150
  28 C :   -0.086032
  29 H :    0.055923
  30 H :    0.033231
  31 H :    0.026909
  32 H :    0.065730
  33 H :    0.028105
Sum of atomic charges:   -0.0000000

LOEWDIN ATOMIC CHARGES
----------------------
   0 S :    0.398693
   1 C :   -0.200500
   2 C :   -0.068286
   3 C :   -0.065783
   4 C :   -0.195575
   5 H :    0.026286
   6 C :   -0.035233
   7 H :    0.028982
   8 H :    0.040157
   9 C :   -0.035345
  10 H :    0.032585
  11 H :    0.020798
  12 C :   -0.063577
  13 H :    0.021317
  14 H :    0.025959
  15 H :    0.025754
  16 S :    0.416970
  17 C :   -0.187051
  18 C :   -0.076515
  19 C :   -0.058903
  20 C :   -0.193372
  21 H :    0.042853
  22 C :   -0.032990
  23 H :    0.025989
  24 H :    0.024866
  25 C :   -0.040128
  26 H :    0.035084
  27 H :    0.025478
  28 C :   -0.082605
  29 H :    0.040333
  30 H :    0.025973
  31 H :    0.024079
  32 H :    0.037135
  33 H :    0.016571

  Mayer bond orders larger than 0.100000
B(  0-S ,  1-C ) :   1.1394 B(  0-S ,  4-C ) :   1.1453 B(  1-C ,  2-C ) :   1.5950
B(  1-C ,  4-C ) :   0.1002 B(  1-C , 32-H ) :   0.9606 B(  2-C ,  3-C ) :   1.2591
B(  2-C ,  6-C ) :   1.0269 B(  3-C ,  4-C ) :   1.5477 B(  3-C ,  5-H ) :   0.9884
B(  4-C , 20-C ) :   1.1053 B(  6-C ,  7-H ) :   0.9418 B(  6-C ,  8-H ) :   0.9404
B(  6-C ,  9-C ) :   1.0481 B(  9-C , 10-H ) :   0.9596 B(  9-C , 11-H ) :   0.9601
B(  9-C , 12-C ) :   1.0770 B( 12-C , 13-H ) :   0.9789 B( 12-C , 14-H ) :   0.9761
B( 12-C , 15-H ) :   0.9745 B( 16-S , 17-C ) :   1.1504 B( 16-S , 20-C ) :   1.1530
B( 17-C , 18-C ) :   1.6280 B( 17-C , 33-H ) :   0.9744 B( 18-C , 19-C ) :   1.2447
B( 18-C , 21-H ) :   0.9815 B( 19-C , 20-C ) :   1.5429 B( 19-C , 22-C ) :   1.0391
B( 22-C , 23-H ) :   0.9227 B( 22-C , 24-H ) :   0.9398 B( 22-C , 25-C ) :   1.0500
B( 25-C , 26-H ) :   0.9598 B( 25-C , 27-H ) :   0.9517 B( 25-C , 28-C ) :   1.0694
B( 28-C , 29-H ) :   0.9724 B( 28-C , 30-H ) :   0.9739 B( 28-C , 31-H ) :   0.9743

Dispersion correction           -0.013752156
FINAL SINGLE POINT ENERGY     -1339.864622717933

DIPOLE MOMENT
-------------
                                X             Y             Z
Electronic contribution:    -22.21890     -17.67529     -13.14619
Nuclear contribution   :     22.57727      18.25545      13.27089
                        -----------------------------------------
Total Dipole Moment    :      0.35837       0.58016       0.12469
                        -----------------------------------------
Magnitude (a.u.)       :      0.69322
Magnitude (Debye)      :      1.76203

Rotational constants in cm-1:     0.017777     0.008579     0.006315
Rotational constants in MHz :   532.949690   257.190719   189.332159

                             ****ORCA TERMINATED NORMALLY****
TOTAL RUN TIME: 0 days 0 hours 0 minutes 21 seconds 287 msec
