                         Program Version 4.2.1 -  RELEASE  -
|  1> ! wB97X-D3 SP def2-SVP
|  2> %pal
|  3> nprocs 24
|  4> end
|  5>
|  6> * xyz 0 1
|  7> S 	 -31.5893 	 14.0853 	 -2.05442
|  8> C 	 -31.5755 	 12.4193 	 -2.47333
|  9> C 	 -30.5975 	 11.7534 	 -1.79258
| 10> C 	 -29.851 	 12.6437 	 -0.917003
| 11> C 	 -30.3197 	 13.9095 	 -0.909655
| 12> H 	 -29.0193 	 12.3361 	 -0.315382
| 13> C 	 -30.4907 	 10.2377 	 -1.7768
| 14> H 	 -31.4239 	 10.0022 	 -1.13894
| 15> H 	 -29.5607 	 9.96523 	 -1.17872
| 16> C 	 -30.394 	 9.45908 	 -3.06705
| 17> H 	 -31.2486 	 9.5889 	 -3.7947
| 18> H 	 -29.577 	 9.9481 	 -3.62031
| 19> C 	 -29.9727 	 8.02999 	 -2.81183
| 20> H 	 -29.8638 	 7.40239 	 -3.68905
| 21> H 	 -29.0171 	 7.90554 	 -2.329
| 22> H 	 -30.6917 	 7.47454 	 -2.2216
| 23> S 	 -28.4114 	 15.8436 	 -0.52023
| 24> C 	 -28.7198 	 17.0118 	 0.762956
| 25> C 	 -29.7775 	 16.6931 	 1.53146
| 26> C 	 -30.3958 	 15.5108 	 1.08415
| 27> C 	 -29.8894 	 15.0616 	 -0.132592
| 28> H 	 -29.9895 	 17.3423 	 2.39636
| 29> C 	 -31.7706 	 15.0914 	 1.71625
| 30> H 	 -31.9987 	 14.1381 	 1.39439
| 31> H 	 -32.5852 	 15.7517 	 1.40563
| 32> C 	 -31.6272 	 15.1574 	 3.24541
| 33> H 	 -31.4612 	 16.1347 	 3.7023
| 34> H 	 -30.7105 	 14.6936 	 3.58972
| 35> C 	 -32.9031 	 14.5345 	 4.09596
| 36> H 	 -33.1912 	 13.5753 	 3.65263
| 37> H 	 -33.7786 	 15.1651 	 3.99572
| 38> H 	 -32.4392 	 14.4949 	 5.09617
| 39> H 	 -32.2302 	 11.9152 	 -3.19024
| 40> H 	 -28.1633 	 17.8815 	 0.847648
| 41> *
| 42>
| 43>                          ****END OF INPUT****

CARTESIAN COORDINATES (ANGSTROEM)
---------------------------------
  S    -31.589300   14.085300   -2.054420
  C    -31.575500   12.419300   -2.473330
  C    -30.597500   11.753400   -1.792580
  C    -29.851000   12.643700   -0.917003
  C    -30.319700   13.909500   -0.909655
  H    -29.019300   12.336100   -0.315382
  C    -30.490700   10.237700   -1.776800
  H    -31.423900   10.002200   -1.138940
  H    -29.560700    9.965230   -1.178720
  C    -30.394000    9.459080   -3.067050
  H    -31.248600    9.588900   -3.794700
  H    -29.577000    9.948100   -3.620310
  C    -29.972700    8.029990   -2.811830
  H    -29.863800    7.402390   -3.689050
  H    -29.017100    7.905540   -2.329000
  H    -30.691700    7.474540   -2.221600
  S    -28.411400   15.843600   -0.520230
  C    -28.719800   17.011800    0.762956
  C    -29.777500   16.693100    1.531460
  C    -30.395800   15.510800    1.084150
  C    -29.889400   15.061600   -0.132592
  H    -29.989500   17.342300    2.396360
  C    -31.770600   15.091400    1.716250
  H    -31.998700   14.138100    1.394390
  H    -32.585200   15.751700    1.405630
  C    -31.627200   15.157400    3.245410
  H    -31.461200   16.134700    3.702300
  H    -30.710500   14.693600    3.589720
  C    -32.903100   14.534500    4.095960
  H    -33.191200   13.575300    3.652630
  H    -33.778600   15.165100    3.995720
  H    -32.439200   14.494900    5.096170
  H    -32.230200   11.915200   -3.190240
  H    -28.163300   17.881500    0.847648

 Total Charge           Charge          ....    0
 Multiplicity           Mult            ....    1
 Number of Electrons    NEL             ....  134
 Basis Dimension        Dim             ....  322

ORBITAL ENERGIES
----------------

  NO   OCC          E(Eh)            E(eV)
   0   2.0000     -88.963873     -2420.8301
   1   2.0000     -88.960739     -2420.7448
   2   2.0000     -10.321137      -280.8524
   3   2.0000     -10.320705      -280.8407
   4   2.0000     -10.307956      -280.4938
   5   2.0000     -10.306622      -280.4574
   6   2.0000     -10.301625      -280.3215
   7   2.0000     -10.301481      -280.3175
   8   2.0000     -10.297416      -280.2069
   9   2.0000     -10.293132      -280.0904
  10   2.0000     -10.290320      -280.0138
  11   2.0000     -10.289612      -279.9946
  12   2.0000     -10.288102      -279.9535
  13   2.0000     -10.287708      -279.9428
  14   2.0000     -10.284415      -279.8531
  15   2.0000     -10.276371      -279.6343
  16   2.0000      -8.079301      -219.8490
  17   2.0000      -8.076667      -219.7773
  18   2.0000      -6.037634      -164.2924
  19   2.0000      -6.035106      -164.2236
  20   2.0000      -6.033815      -164.1884
  21   2.0000      -6.030901      -164.1092
  22   2.0000      -6.030114      -164.0878
  23   2.0000      -6.027529      -164.0174
  24   2.0000      -1.013414       -27.5764
  25   2.0000      -0.991294       -26.9745
  26   2.0000      -0.914377       -24.8815
  27   2.0000      -0.897784       -24.4299
  28   2.0000      -0.874707       -23.8020
  29   2.0000      -0.849319       -23.1112
  30   2.0000      -0.839477       -22.8433
  31   2.0000      -0.818654       -22.2767
  32   2.0000      -0.781158       -21.2564
  33   2.0000      -0.769163       -20.9300
  34   2.0000      -0.706030       -19.2120
  35   2.0000      -0.703479       -19.1426
  36   2.0000      -0.700820       -19.0703
  37   2.0000      -0.653602       -17.7854
  38   2.0000      -0.642248       -17.4765
  39   2.0000      -0.614171       -16.7124
  40   2.0000      -0.598340       -16.2817
  41   2.0000      -0.576326       -15.6826
  42   2.0000      -0.561976       -15.2921
  43   2.0000      -0.555060       -15.1040
  44   2.0000      -0.531233       -14.4556
  45   2.0000      -0.527073       -14.3424
  46   2.0000      -0.515286       -14.0216
  47   2.0000      -0.510484       -13.8910
  48   2.0000      -0.504917       -13.7395
  49   2.0000      -0.496964       -13.5231
  50   2.0000      -0.484727       -13.1901
  51   2.0000      -0.476120       -12.9559
  52   2.0000      -0.472609       -12.8603
  53   2.0000      -0.465330       -12.6623
  54   2.0000      -0.458994       -12.4899
  55   2.0000      -0.453521       -12.3409
  56   2.0000      -0.448313       -12.1992
  57   2.0000      -0.447343       -12.1728
  58   2.0000      -0.434823       -11.8321
  59   2.0000      -0.419878       -11.4254
  60   2.0000      -0.419289       -11.4094
  61   2.0000      -0.411622       -11.2008
  62   2.0000      -0.398523       -10.8444
  63   2.0000      -0.339245        -9.2313
  64   2.0000      -0.333413        -9.0726
  65   2.0000      -0.318437        -8.6651
  66   2.0000      -0.308676        -8.3995
  67   0.0000       0.048889         1.3303
  68   0.0000       0.061277         1.6674
  69   0.0000       0.115325         3.1381
  70   0.0000       0.127737         3.4759
  71   0.0000       0.132358         3.6017

MULLIKEN ATOMIC CHARGES
-----------------------
   0 S :    0.119717
   1 C :   -0.124469
   2 C :   -0.096302
   3 C :    0.055202
   4 C :   -0.183286
   5 H :    0.002104
   6 C :    0.000806
   7 H :    0.062445
   8 H :    0.030078
   9 C :   -0.068831
  10 H :    0.038321
  11 H :    0.030475
  12 C :   -0.033040
  13 H :    0.024661
  14 H :    0.026932
  15 H :    0.023223
  16 S :    0.116798
  17 C :   -0.071175
  18 C :   -0.030053
  19 C :   -0.032721
  20 C :   -0.167289
  21 H :    0.034333
  22 C :    0.157652
  23 H :    0.005152
  24 H :    0.043931
  25 C :   -0.162612
  26 H :    0.025460
  27 H :    0.024760
  28 C :   -0.051665
  29 H :    0.035069
  30 H :    0.038483
  31 H :    0.050098
  32 H :    0.049296
  33 H :    0.026449
Sum of atomic charges:   -0.0000000

LOEWDIN ATOMIC CHARGES
----------------------
   0 S :    0.429679
   1 C :   -0.213368
   2 C :   -0.071113
   3 C :   -0.060977
   4 C :   -0.208127
   5 H :    0.029125
   6 C :   -0.043344
   7 H :    0.045790
   8 H :    0.036284
   9 C :   -0.052263
  10 H :    0.028637
  11 H :    0.030608
  12 C :   -0.066979
  13 H :    0.027060
  14 H :    0.025459
  15 H :    0.023800
  16 S :    0.414103
  17 C :   -0.163034
  18 C :   -0.072300
  19 C :   -0.051213
  20 C :   -0.217866
  21 H :    0.041569
  22 C :   -0.016854
  23 H :    0.016927
  24 H :    0.036068
  25 C :   -0.045146
  26 H :    0.019029
  27 H :    0.020464
  28 C :   -0.064136
  29 H :    0.023097
  30 H :    0.021981
  31 H :    0.033084
  32 H :    0.031543
  33 H :    0.012414

  Mayer bond orders larger than 0.100000
B(  0-S ,  1-C ) :   1.1409 B(  0-S ,  4-C ) :   1.1630 B(  1-C ,  2-C ) :   1.6205
B(  1-C , 32-H ) :   0.9710 B(  2-C ,  3-C ) :   1.2309 B(  2-C ,  6-C ) :   1.0089
B(  3-C ,  4-C ) :   1.6068 B(  3-C ,  5-H ) :   1.0057 B(  4-C , 20-C ) :   0.9838
B(  6-C ,  7-H ) :   0.9363 B(  6-C ,  8-H ) :   0.9462 B(  6-C ,  9-C ) :   1.0564
B(  9-C , 10-H ) :   0.9512 B(  9-C , 11-H ) :   0.9530 B(  9-C , 12-C ) :   1.0897
B( 12-C , 13-H ) :   0.9716 B( 12-C , 14-H ) :   0.9714 B( 12-C , 15-H ) :   0.9738
B( 16-S , 17-C ) :   1.1515 B( 16-S , 20-C ) :   1.1575 B( 17-C , 18-C ) :   1.6359
B( 17-C , 33-H ) :   0.9725 B( 18-C , 19-C ) :   1.2192 B( 18-C , 21-H ) :   0.9875
B( 19-C , 20-C ) :   1.6079 B( 19-C , 22-C ) :   1.0406 B( 22-C , 23-H ) :   0.9282
B( 22-C , 24-H ) :   0.9447 B( 22-C , 25-C ) :   1.0451 B( 25-C , 26-H ) :   0.9539
B( 25-C , 27-H ) :   0.9660 B( 25-C , 28-C ) :   1.0632 B( 28-C , 29-H ) :   0.9804
B( 28-C , 30-H ) :   0.9791 B( 28-C , 31-H ) :   0.9780

Dispersion correction           -0.013563287
FINAL SINGLE POINT ENERGY     -1339.866789844204

DIPOLE MOMENT
-------------
                                X             Y             Z
Electronic contribution:      8.00211      19.93112     -10.49125
Nuclear contribution   :     -8.06485     -20.24037      10.79424
                        -----------------------------------------
Total Dipole Moment    :     -0.06274      -0.30925       0.30299
                        -----------------------------------------
Magnitude (a.u.)       :      0.43747
Magnitude (Debye)      :      1.11195

Rotational constants in cm-1:     0.019841     0.007068     0.006036
Rotational constants in MHz :   594.805719   211.886217   180.946638

                             ****ORCA TERMINATED NORMALLY****
TOTAL RUN TIME: 0 days 0 hours 0 minutes 20 seconds 710 msec
