                         Program Version 4.2.1 -  RELEASE  -
|  1> ! wB97X-D3 SP def2-SVP
|  2> %pal
|  3> nprocs 24
|  4> end
|  5>
|  6> * xyz 0 1
|  7> S 	 50.1976 	 -35.8509 	 -121.617
|  8> C 	 49.9935 	 -34.7606 	 -122.998
|  9> C 	 49.1395 	 -33.758 	 -122.733
| 10> C 	 48.7296 	 -33.8151 	 -121.316
| 11> C 	 49.0635 	 -34.9259 	 -120.603
| 12> H 	 48.1463 	 -33.1513 	 -120.768
| 13> C 	 48.8543 	 -32.6274 	 -123.748
| 14> H 	 49.6251 	 -32.3897 	 -124.447
| 15> H 	 48.7153 	 -31.7131 	 -123.103
| 16> C 	 47.6032 	 -32.9273 	 -124.595
| 17> H 	 47.4667 	 -32.2292 	 -125.429
| 18> H 	 47.7337 	 -33.9215 	 -124.991
| 19> C 	 46.3024 	 -33.0317 	 -123.741
| 20> H 	 45.4341 	 -32.9729 	 -124.397
| 21> H 	 46.3026 	 -33.9689 	 -123.142
| 22> H 	 46.1282 	 -32.2011 	 -123.029
| 23> S 	 49.9713 	 -35.0189 	 -118.142
| 24> C 	 49.0182 	 -35.5811 	 -116.854
| 25> C 	 47.7422 	 -35.787 	 -117.227
| 26> C 	 47.4548 	 -35.5875 	 -118.574
| 27> C 	 48.606 	 -35.2435 	 -119.247
| 28> H 	 47.076 	 -36.2063 	 -116.466
| 29> C 	 46.118 	 -35.7177 	 -119.177
| 30> H 	 45.5203 	 -36.5046 	 -118.783
| 31> H 	 46.2211 	 -36.0378 	 -120.305
| 32> C 	 45.0812 	 -34.5474 	 -118.988
| 33> H 	 44.6386 	 -34.5574 	 -118.026
| 34> H 	 44.2203 	 -34.7157 	 -119.688
| 35> C 	 45.6724 	 -33.2486 	 -119.376
| 36> H 	 45.9161 	 -33.0356 	 -120.387
| 37> H 	 46.6388 	 -33.1542 	 -118.878
| 38> H 	 45.0369 	 -32.4695 	 -119.14
| 39> H 	 50.556 	 -34.8794 	 -123.987
| 40> H 	 49.2619 	 -35.6739 	 -115.862
| 41> *
| 42>
| 43>                          ****END OF INPUT****

CARTESIAN COORDINATES (ANGSTROEM)
---------------------------------
  S     50.197600  -35.850900  -121.617000
  C     49.993500  -34.760600  -122.998000
  C     49.139500  -33.758000  -122.733000
  C     48.729600  -33.815100  -121.316000
  C     49.063500  -34.925900  -120.603000
  H     48.146300  -33.151300  -120.768000
  C     48.854300  -32.627400  -123.748000
  H     49.625100  -32.389700  -124.447000
  H     48.715300  -31.713100  -123.103000
  C     47.603200  -32.927300  -124.595000
  H     47.466700  -32.229200  -125.429000
  H     47.733700  -33.921500  -124.991000
  C     46.302400  -33.031700  -123.741000
  H     45.434100  -32.972900  -124.397000
  H     46.302600  -33.968900  -123.142000
  H     46.128200  -32.201100  -123.029000
  S     49.971300  -35.018900  -118.142000
  C     49.018200  -35.581100  -116.854000
  C     47.742200  -35.787000  -117.227000
  C     47.454800  -35.587500  -118.574000
  C     48.606000  -35.243500  -119.247000
  H     47.076000  -36.206300  -116.466000
  C     46.118000  -35.717700  -119.177000
  H     45.520300  -36.504600  -118.783000
  H     46.221100  -36.037800  -120.305000
  C     45.081200  -34.547400  -118.988000
  H     44.638600  -34.557400  -118.026000
  H     44.220300  -34.715700  -119.688000
  C     45.672400  -33.248600  -119.376000
  H     45.916100  -33.035600  -120.387000
  H     46.638800  -33.154200  -118.878000
  H     45.036900  -32.469500  -119.140000
  H     50.556000  -34.879400  -123.987000
  H     49.261900  -35.673900  -115.862000

 Total Charge           Charge          ....    0
 Multiplicity           Mult            ....    1
 Number of Electrons    NEL             ....  134
 Basis Dimension        Dim             ....  322

ORBITAL ENERGIES
----------------

  NO   OCC          E(Eh)            E(eV)
   0   2.0000     -88.963581     -2420.8221
   1   2.0000     -88.960039     -2420.7257
   2   2.0000     -10.329004      -281.0665
   3   2.0000     -10.328836      -281.0619
   4   2.0000     -10.319149      -280.7983
   5   2.0000     -10.304611      -280.4027
   6   2.0000     -10.304563      -280.4014
   7   2.0000     -10.303604      -280.3753
   8   2.0000     -10.297474      -280.2085
   9   2.0000     -10.294752      -280.1344
  10   2.0000     -10.291246      -280.0390
  11   2.0000     -10.287866      -279.9471
  12   2.0000     -10.287139      -279.9273
  13   2.0000     -10.285587      -279.8850
  14   2.0000     -10.279547      -279.7207
  15   2.0000     -10.259753      -279.1821
  16   2.0000      -8.079316      -219.8494
  17   2.0000      -8.074314      -219.7132
  18   2.0000      -6.037662      -164.2931
  19   2.0000      -6.033669      -164.1845
  20   2.0000      -6.033094      -164.1688
  21   2.0000      -6.030169      -164.0893
  22   2.0000      -6.028856      -164.0535
  23   2.0000      -6.024800      -163.9432
  24   2.0000      -1.013705       -27.5843
  25   2.0000      -0.986481       -26.8435
  26   2.0000      -0.915111       -24.9014
  27   2.0000      -0.908340       -24.7172
  28   2.0000      -0.873190       -23.7607
  29   2.0000      -0.859598       -23.3909
  30   2.0000      -0.834905       -22.7189
  31   2.0000      -0.819505       -22.2999
  32   2.0000      -0.786740       -21.4083
  33   2.0000      -0.776620       -21.1329
  34   2.0000      -0.711137       -19.3510
  35   2.0000      -0.697752       -18.9868
  36   2.0000      -0.696755       -18.9597
  37   2.0000      -0.662757       -18.0345
  38   2.0000      -0.643771       -17.5179
  39   2.0000      -0.613702       -16.6997
  40   2.0000      -0.598748       -16.2928
  41   2.0000      -0.575546       -15.6614
  42   2.0000      -0.559928       -15.2364
  43   2.0000      -0.550022       -14.9668
  44   2.0000      -0.542071       -14.7505
  45   2.0000      -0.537123       -14.6159
  46   2.0000      -0.522384       -14.2148
  47   2.0000      -0.511858       -13.9284
  48   2.0000      -0.500723       -13.6254
  49   2.0000      -0.498991       -13.5782
  50   2.0000      -0.497900       -13.5485
  51   2.0000      -0.479617       -13.0511
  52   2.0000      -0.476504       -12.9663
  53   2.0000      -0.465268       -12.6606
  54   2.0000      -0.457359       -12.4454
  55   2.0000      -0.445803       -12.1309
  56   2.0000      -0.438240       -11.9251
  57   2.0000      -0.430839       -11.7237
  58   2.0000      -0.428917       -11.6714
  59   2.0000      -0.425107       -11.5677
  60   2.0000      -0.422940       -11.5088
  61   2.0000      -0.410959       -11.1828
  62   2.0000      -0.408839       -11.1251
  63   2.0000      -0.338498        -9.2110
  64   2.0000      -0.332805        -9.0561
  65   2.0000      -0.324264        -8.8237
  66   2.0000      -0.309836        -8.4311
  67   0.0000       0.037479         1.0198
  68   0.0000       0.065079         1.7709
  69   0.0000       0.119747         3.2585
  70   0.0000       0.121455         3.3050
  71   0.0000       0.126803         3.4505

MULLIKEN ATOMIC CHARGES
-----------------------
   0 S :    0.097483
   1 C :   -0.149497
   2 C :   -0.066141
   3 C :    0.079181
   4 C :   -0.150072
   5 H :   -0.036371
   6 C :    0.059797
   7 H :    0.024898
   8 H :    0.036623
   9 C :   -0.060037
  10 H :    0.036195
  11 H :    0.025750
  12 C :   -0.094049
  13 H :    0.031801
  14 H :    0.056760
  15 H :    0.031747
  16 S :    0.111427
  17 C :   -0.020528
  18 C :   -0.076289
  19 C :    0.038486
  20 C :   -0.221727
  21 H :    0.018080
  22 C :    0.025090
  23 H :    0.012842
  24 H :    0.052818
  25 C :   -0.059842
  26 H :    0.025099
  27 H :    0.031534
  28 C :   -0.018345
  29 H :    0.015164
  30 H :    0.040109
  31 H :    0.008769
  32 H :    0.078415
  33 H :    0.014829
Sum of atomic charges:    0.0000000

LOEWDIN ATOMIC CHARGES
----------------------
   0 S :    0.368470
   1 C :   -0.188547
   2 C :   -0.069817
   3 C :   -0.050470
   4 C :   -0.199883
   5 H :    0.015721
   6 C :   -0.027750
   7 H :    0.026201
   8 H :    0.034974
   9 C :   -0.038894
  10 H :    0.023408
  11 H :    0.024348
  12 C :   -0.074006
  13 H :    0.025329
  14 H :    0.030816
  15 H :    0.021035
  16 S :    0.427534
  17 C :   -0.182741
  18 C :   -0.076796
  19 C :   -0.058459
  20 C :   -0.180867
  21 H :    0.034812
  22 C :   -0.038706
  23 H :    0.026945
  24 H :    0.047362
  25 C :   -0.031161
  26 H :    0.019316
  27 H :    0.032657
  28 C :   -0.067161
  29 H :    0.020829
  30 H :    0.025887
  31 H :    0.017416
  32 H :    0.047378
  33 H :    0.014823

  Mayer bond orders larger than 0.100000
B(  0-S ,  1-C ) :   1.1277 B(  0-S ,  4-C ) :   1.1072 B(  1-C ,  2-C ) :   1.6673
B(  1-C , 32-H ) :   0.9525 B(  2-C ,  3-C ) :   1.1768 B(  2-C ,  6-C ) :   1.0053
B(  3-C ,  4-C ) :   1.6436 B(  3-C ,  5-H ) :   0.9970 B(  4-C , 20-C ) :   1.0124
B(  6-C ,  7-H ) :   0.9511 B(  6-C ,  8-H ) :   0.9485 B(  6-C ,  9-C ) :   1.0660
B(  9-C , 10-H ) :   0.9612 B(  9-C , 11-H ) :   0.9540 B(  9-C , 12-C ) :   1.0712
B( 12-C , 13-H ) :   0.9733 B( 12-C , 14-H ) :   0.9737 B( 12-C , 15-H ) :   0.9766
B( 16-S , 17-C ) :   1.1525 B( 16-S , 20-C ) :   1.1669 B( 17-C , 18-C ) :   1.6336
B( 17-C , 33-H ) :   0.9715 B( 18-C , 19-C ) :   1.2191 B( 18-C , 21-H ) :   0.9889
B( 19-C , 20-C ) :   1.5848 B( 19-C , 22-C ) :   1.0676 B( 22-C , 23-H ) :   0.9294
B( 22-C , 24-H ) :   0.9369 B( 22-C , 25-C ) :   1.0652 B( 25-C , 26-H ) :   0.9560
B( 25-C , 27-H ) :   0.9514 B( 25-C , 28-C ) :   1.0905 B( 28-C , 29-H ) :   0.9673
B( 28-C , 30-H ) :   0.9661 B( 28-C , 31-H ) :   0.9598

Dispersion correction           -0.016185780
FINAL SINGLE POINT ENERGY     -1339.856113144140

DIPOLE MOMENT
-------------
                                X             Y             Z
Electronic contribution:     23.26297     -12.37380      11.17093
Nuclear contribution   :    -23.84045      12.68388     -11.24799
                        -----------------------------------------
Total Dipole Moment    :     -0.57748       0.31008      -0.07706
                        -----------------------------------------
Magnitude (a.u.)       :      0.65998
Magnitude (Debye)      :      1.67753

Rotational constants in cm-1:     0.019491     0.010179     0.007436
Rotational constants in MHz :   584.311382   305.161481   222.925508

                             ****ORCA TERMINATED NORMALLY****
TOTAL RUN TIME: 0 days 0 hours 0 minutes 23 seconds 301 msec
