                         Program Version 4.2.1 -  RELEASE  -
|  1> ! wB97X-D3 SP def2-SVP
|  2> %pal
|  3> nprocs 24
|  4> end
|  5>
|  6> * xyz 0 1
|  7> S 	 -64.3477 	 5.26291 	 -69.2513
|  8> C 	 -64.9425 	 6.66444 	 -70.0646
|  9> C 	 -66.3208 	 6.53801 	 -70.4164
| 10> C 	 -66.8285 	 5.24729 	 -70.0851
| 11> C 	 -65.9172 	 4.49729 	 -69.3876
| 12> H 	 -67.8569 	 4.9384 	 -70.1216
| 13> C 	 -67.2119 	 7.52684 	 -71.1283
| 14> H 	 -67.8957 	 6.96215 	 -71.793
| 15> H 	 -66.6079 	 8.29742 	 -71.7326
| 16> C 	 -68.1501 	 8.43034 	 -70.2399
| 17> H 	 -67.4329 	 9.02502 	 -69.6379
| 18> H 	 -68.6213 	 9.12221 	 -70.9397
| 19> C 	 -69.2812 	 7.77471 	 -69.3145
| 20> H 	 -69.6063 	 8.39923 	 -68.4997
| 21> H 	 -70.1494 	 7.43349 	 -69.9313
| 22> H 	 -69.0035 	 6.92215 	 -68.7191
| 23> S 	 -67.3401 	 3.07751 	 -67.5416
| 24> C 	 -66.9903 	 1.43011 	 -67.2638
| 25> C 	 -66.073 	 0.963072 	 -68.1862
| 26> C 	 -65.572 	 1.94412 	 -69.056
| 27> C 	 -66.0862 	 3.20659 	 -68.7932
| 28> H 	 -65.8434 	 -0.107326 	 -68.1737
| 29> C 	 -64.6383 	 1.75623 	 -70.1977
| 30> H 	 -64.0958 	 0.852149 	 -69.8917
| 31> H 	 -64.0525 	 2.67588 	 -70.2133
| 32> C 	 -65.2023 	 1.51211 	 -71.5618
| 33> H 	 -65.8677 	 2.40511 	 -71.789
| 34> H 	 -65.8411 	 0.637657 	 -71.5031
| 35> C 	 -64.1311 	 1.15661 	 -72.5523
| 36> H 	 -64.3967 	 1.09209 	 -73.6402
| 37> H 	 -63.6906 	 0.256287 	 -72.1319
| 38> H 	 -63.377 	 1.98369 	 -72.5236
| 39> H 	 -64.3779 	 7.55573 	 -70.2128
| 40> H 	 -67.3105 	 0.752136 	 -66.3784
| 41> *
| 42>
| 43>                          ****END OF INPUT****

CARTESIAN COORDINATES (ANGSTROEM)
---------------------------------
  S    -64.347700    5.262910  -69.251300
  C    -64.942500    6.664440  -70.064600
  C    -66.320800    6.538010  -70.416400
  C    -66.828500    5.247290  -70.085100
  C    -65.917200    4.497290  -69.387600
  H    -67.856900    4.938400  -70.121600
  C    -67.211900    7.526840  -71.128300
  H    -67.895700    6.962150  -71.793000
  H    -66.607900    8.297420  -71.732600
  C    -68.150100    8.430340  -70.239900
  H    -67.432900    9.025020  -69.637900
  H    -68.621300    9.122210  -70.939700
  C    -69.281200    7.774710  -69.314500
  H    -69.606300    8.399230  -68.499700
  H    -70.149400    7.433490  -69.931300
  H    -69.003500    6.922150  -68.719100
  S    -67.340100    3.077510  -67.541600
  C    -66.990300    1.430110  -67.263800
  C    -66.073000    0.963072  -68.186200
  C    -65.572000    1.944120  -69.056000
  C    -66.086200    3.206590  -68.793200
  H    -65.843400   -0.107326  -68.173700
  C    -64.638300    1.756230  -70.197700
  H    -64.095800    0.852149  -69.891700
  H    -64.052500    2.675880  -70.213300
  C    -65.202300    1.512110  -71.561800
  H    -65.867700    2.405110  -71.789000
  H    -65.841100    0.637657  -71.503100
  C    -64.131100    1.156610  -72.552300
  H    -64.396700    1.092090  -73.640200
  H    -63.690600    0.256287  -72.131900
  H    -63.377000    1.983690  -72.523600
  H    -64.377900    7.555730  -70.212800
  H    -67.310500    0.752136  -66.378400

 Total Charge           Charge          ....    0
 Multiplicity           Mult            ....    1
 Number of Electrons    NEL             ....  134
 Basis Dimension        Dim             ....  322

ORBITAL ENERGIES
----------------

  NO   OCC          E(Eh)            E(eV)
   0   2.0000     -88.971257     -2421.0310
   1   2.0000     -88.964364     -2420.8434
   2   2.0000     -10.326851      -281.0079
   3   2.0000     -10.321041      -280.8498
   4   2.0000     -10.320972      -280.8479
   5   2.0000     -10.316560      -280.7279
   6   2.0000     -10.306564      -280.4559
   7   2.0000     -10.303804      -280.3808
   8   2.0000     -10.298470      -280.2356
   9   2.0000     -10.297395      -280.2064
  10   2.0000     -10.293246      -280.0935
  11   2.0000     -10.291511      -280.0462
  12   2.0000     -10.283086      -279.8170
  13   2.0000     -10.282361      -279.7973
  14   2.0000     -10.280809      -279.7550
  15   2.0000     -10.279906      -279.7305
  16   2.0000      -8.085882      -220.0280
  17   2.0000      -8.079448      -219.8530
  18   2.0000      -6.044262      -164.4727
  19   2.0000      -6.040375      -164.3670
  20   2.0000      -6.037792      -164.2967
  21   2.0000      -6.036815      -164.2701
  22   2.0000      -6.033822      -164.1886
  23   2.0000      -6.030455      -164.0970
  24   2.0000      -1.011321       -27.5194
  25   2.0000      -0.986943       -26.8561
  26   2.0000      -0.918761       -25.0008
  27   2.0000      -0.901896       -24.5418
  28   2.0000      -0.869570       -23.6622
  29   2.0000      -0.855854       -23.2890
  30   2.0000      -0.846567       -23.0363
  31   2.0000      -0.811365       -22.0784
  32   2.0000      -0.784072       -21.3357
  33   2.0000      -0.768038       -20.8994
  34   2.0000      -0.704452       -19.1691
  35   2.0000      -0.702832       -19.1250
  36   2.0000      -0.686416       -18.6783
  37   2.0000      -0.661144       -17.9906
  38   2.0000      -0.644154       -17.5283
  39   2.0000      -0.613272       -16.6880
  40   2.0000      -0.590177       -16.0595
  41   2.0000      -0.576278       -15.6813
  42   2.0000      -0.568089       -15.4585
  43   2.0000      -0.548244       -14.9185
  44   2.0000      -0.527845       -14.3634
  45   2.0000      -0.519772       -14.1437
  46   2.0000      -0.516198       -14.0465
  47   2.0000      -0.513899       -13.9839
  48   2.0000      -0.508931       -13.8487
  49   2.0000      -0.493976       -13.4418
  50   2.0000      -0.491354       -13.3704
  51   2.0000      -0.477130       -12.9834
  52   2.0000      -0.472802       -12.8656
  53   2.0000      -0.465516       -12.6673
  54   2.0000      -0.460995       -12.5443
  55   2.0000      -0.447422       -12.1750
  56   2.0000      -0.444586       -12.0978
  57   2.0000      -0.433560       -11.7978
  58   2.0000      -0.428067       -11.6483
  59   2.0000      -0.425444       -11.5769
  60   2.0000      -0.419906       -11.4262
  61   2.0000      -0.413905       -11.2629
  62   2.0000      -0.413547       -11.2532
  63   2.0000      -0.343500        -9.3471
  64   2.0000      -0.331906        -9.0316
  65   2.0000      -0.329939        -8.9781
  66   2.0000      -0.291396        -7.9293
  67   0.0000       0.034661         0.9432
  68   0.0000       0.057598         1.5673
  69   0.0000       0.105162         2.8616
  70   0.0000       0.114991         3.1291
  71   0.0000       0.132389         3.6025

MULLIKEN ATOMIC CHARGES
-----------------------
   0 S :    0.131421
   1 C :   -0.111434
   2 C :   -0.072429
   3 C :    0.048775
   4 C :   -0.181460
   5 H :    0.015330
   6 C :    0.015042
   7 H :    0.034190
   8 H :    0.041109
   9 C :   -0.070548
  10 H :    0.028951
  11 H :    0.037086
  12 C :   -0.069275
  13 H :    0.034227
  14 H :    0.040620
  15 H :    0.028558
  16 S :    0.112144
  17 C :   -0.118612
  18 C :   -0.069304
  19 C :   -0.003651
  20 C :   -0.180361
  21 H :    0.019547
  22 C :    0.069947
  23 H :    0.010794
  24 H :    0.016313
  25 C :   -0.052756
  26 H :    0.037011
  27 H :    0.014736
  28 C :   -0.036911
  29 H :    0.050139
  30 H :    0.026040
  31 H :    0.026256
  32 H :    0.038449
  33 H :    0.090057
Sum of atomic charges:   -0.0000000

LOEWDIN ATOMIC CHARGES
----------------------
   0 S :    0.432267
   1 C :   -0.206051
   2 C :   -0.060339
   3 C :   -0.059425
   4 C :   -0.195613
   5 H :    0.032087
   6 C :   -0.039752
   7 H :    0.031558
   8 H :    0.040780
   9 C :   -0.037870
  10 H :    0.023807
  11 H :    0.025049
  12 C :   -0.079603
  13 H :    0.029361
  14 H :    0.030294
  15 H :    0.023623
  16 S :    0.416525
  17 C :   -0.215239
  18 C :   -0.084614
  19 C :   -0.055615
  20 C :   -0.199887
  21 H :    0.033618
  22 C :   -0.035201
  23 H :    0.029146
  24 H :    0.022647
  25 C :   -0.046000
  26 H :    0.029957
  27 H :    0.019716
  28 C :   -0.067884
  29 H :    0.033439
  30 H :    0.025836
  31 H :    0.026755
  32 H :    0.021434
  33 H :    0.055192

  Mayer bond orders larger than 0.100000
B(  0-S ,  1-C ) :   1.1524 B(  0-S ,  4-C ) :   1.1617 B(  1-C ,  2-C ) :   1.5840
B(  1-C ,  4-C ) :   0.1039 B(  1-C , 32-H ) :   0.9727 B(  2-C ,  3-C ) :   1.2408
B(  2-C ,  6-C ) :   1.0278 B(  3-C ,  4-C ) :   1.5816 B(  3-C ,  5-H ) :   0.9902
B(  4-C , 20-C ) :   1.0237 B(  6-C ,  7-H ) :   0.9437 B(  6-C ,  8-H ) :   0.9442
B(  6-C ,  9-C ) :   1.0631 B(  9-C , 10-H ) :   0.9597 B(  9-C , 11-H ) :   0.9605
B(  9-C , 12-C ) :   1.0598 B( 12-C , 13-H ) :   0.9746 B( 12-C , 14-H ) :   0.9778
B( 12-C , 15-H ) :   0.9739 B( 16-S , 17-C ) :   1.1768 B( 16-S , 20-C ) :   1.1398
B( 17-C , 18-C ) :   1.5864 B( 17-C , 20-C ) :   0.1060 B( 17-C , 33-H ) :   0.9508
B( 18-C , 19-C ) :   1.2638 B( 18-C , 21-H ) :   0.9898 B( 19-C , 20-C ) :   1.5626
B( 19-C , 22-C ) :   1.0465 B( 22-C , 23-H ) :   0.9216 B( 22-C , 24-H ) :   0.9121
B( 22-C , 25-C ) :   1.0857 B( 25-C , 26-H ) :   0.9478 B( 25-C , 27-H ) :   0.9515
B( 25-C , 28-C ) :   1.0730 B( 28-C , 29-H ) :   0.9730 B( 28-C , 30-H ) :   0.9710
B( 28-C , 31-H ) :   0.9737

Dispersion correction           -0.014703353
FINAL SINGLE POINT ENERGY     -1339.874701216908

DIPOLE MOMENT
-------------
                                X             Y             Z
Electronic contribution:      4.81951      -3.39351      15.04186
Nuclear contribution   :     -4.96837       3.38957     -15.23526
                        -----------------------------------------
Total Dipole Moment    :     -0.14886      -0.00395      -0.19341
                        -----------------------------------------
Magnitude (a.u.)       :      0.24409
Magnitude (Debye)      :      0.62043

Rotational constants in cm-1:     0.018574     0.009032     0.007274
Rotational constants in MHz :   556.837065   270.762418   218.061627

                             ****ORCA TERMINATED NORMALLY****
TOTAL RUN TIME: 0 days 0 hours 0 minutes 21 seconds 578 msec
