                         Program Version 4.2.1 -  RELEASE  -
|  1> ! wB97X-D3 SP def2-SVP
|  2> %pal
|  3> nprocs 24
|  4> end
|  5>
|  6> * xyz 0 1
|  7> S 	 -82.906 	 -33.4 	 -54.6874
|  8> C 	 -81.2384 	 -33.5144 	 -54.2909
|  9> C 	 -80.7867 	 -32.3942 	 -53.7085
| 10> C 	 -81.8097 	 -31.4608 	 -53.4158
| 11> C 	 -83.0124 	 -31.8848 	 -53.8661
| 12> H 	 -81.7597 	 -30.4839 	 -52.9458
| 13> C 	 -79.2942 	 -32.0821 	 -53.394
| 14> H 	 -78.9894 	 -32.6651 	 -52.5389
| 15> H 	 -79.2049 	 -30.9903 	 -53.0654
| 16> C 	 -78.1985 	 -32.245 	 -54.5046
| 17> H 	 -77.2149 	 -31.9428 	 -54.0635
| 18> H 	 -78.1333 	 -33.329 	 -54.7236
| 19> C 	 -78.3681 	 -31.4816 	 -55.8282
| 20> H 	 -78.2399 	 -30.4371 	 -55.6606
| 21> H 	 -77.6003 	 -31.8488 	 -56.5097
| 22> H 	 -79.3528 	 -31.674 	 -56.2379
| 23> S 	 -85.1476 	 -30.8002 	 -55.1483
| 24> C 	 -86.1486 	 -29.6326 	 -54.3568
| 25> C 	 -85.762 	 -29.4767 	 -53.037
| 26> C 	 -84.6266 	 -30.2818 	 -52.618
| 27> C 	 -84.2221 	 -31.1245 	 -53.6821
| 28> H 	 -86.3758 	 -28.8017 	 -52.4412
| 29> C 	 -84.0646 	 -30.2965 	 -51.2079
| 30> H 	 -84.1328 	 -29.2048 	 -50.9779
| 31> H 	 -83.0445 	 -30.5403 	 -51.2155
| 32> C 	 -84.7769 	 -31.2188 	 -50.2265
| 33> H 	 -85.8367 	 -30.9388 	 -50.1059
| 34> H 	 -84.304 	 -31.1271 	 -49.2425
| 35> C 	 -84.757 	 -32.7178 	 -50.6757
| 36> H 	 -83.7854 	 -33.1802 	 -51.0535
| 37> H 	 -85.5105 	 -32.8938 	 -51.459
| 38> H 	 -85.1446 	 -33.3039 	 -49.8197
| 39> H 	 -80.5767 	 -34.3016 	 -54.5318
| 40> H 	 -86.8328 	 -29.0275 	 -54.9062
| 41> *
| 42>
| 43>                          ****END OF INPUT****

CARTESIAN COORDINATES (ANGSTROEM)
---------------------------------
  S    -82.906000  -33.400000  -54.687400
  C    -81.238400  -33.514400  -54.290900
  C    -80.786700  -32.394200  -53.708500
  C    -81.809700  -31.460800  -53.415800
  C    -83.012400  -31.884800  -53.866100
  H    -81.759700  -30.483900  -52.945800
  C    -79.294200  -32.082100  -53.394000
  H    -78.989400  -32.665100  -52.538900
  H    -79.204900  -30.990300  -53.065400
  C    -78.198500  -32.245000  -54.504600
  H    -77.214900  -31.942800  -54.063500
  H    -78.133300  -33.329000  -54.723600
  C    -78.368100  -31.481600  -55.828200
  H    -78.239900  -30.437100  -55.660600
  H    -77.600300  -31.848800  -56.509700
  H    -79.352800  -31.674000  -56.237900
  S    -85.147600  -30.800200  -55.148300
  C    -86.148600  -29.632600  -54.356800
  C    -85.762000  -29.476700  -53.037000
  C    -84.626600  -30.281800  -52.618000
  C    -84.222100  -31.124500  -53.682100
  H    -86.375800  -28.801700  -52.441200
  C    -84.064600  -30.296500  -51.207900
  H    -84.132800  -29.204800  -50.977900
  H    -83.044500  -30.540300  -51.215500
  C    -84.776900  -31.218800  -50.226500
  H    -85.836700  -30.938800  -50.105900
  H    -84.304000  -31.127100  -49.242500
  C    -84.757000  -32.717800  -50.675700
  H    -83.785400  -33.180200  -51.053500
  H    -85.510500  -32.893800  -51.459000
  H    -85.144600  -33.303900  -49.819700
  H    -80.576700  -34.301600  -54.531800
  H    -86.832800  -29.027500  -54.906200

 Total Charge           Charge          ....    0
 Multiplicity           Mult            ....    1
 Number of Electrons    NEL             ....  134
 Basis Dimension        Dim             ....  322

ORBITAL ENERGIES
----------------

  NO   OCC          E(Eh)            E(eV)
   0   2.0000     -88.967066     -2420.9169
   1   2.0000     -88.962471     -2420.7919
   2   2.0000     -10.326875      -281.0086
   3   2.0000     -10.321316      -280.8573
   4   2.0000     -10.315274      -280.6929
   5   2.0000     -10.309362      -280.5320
   6   2.0000     -10.304009      -280.3863
   7   2.0000     -10.298434      -280.2346
   8   2.0000     -10.298060      -280.2244
   9   2.0000     -10.296751      -280.1888
  10   2.0000     -10.292723      -280.0792
  11   2.0000     -10.290664      -280.0232
  12   2.0000     -10.290509      -280.0190
  13   2.0000     -10.286418      -279.9077
  14   2.0000     -10.279965      -279.7321
  15   2.0000     -10.272537      -279.5299
  16   2.0000      -8.082822      -219.9448
  17   2.0000      -8.077680      -219.8049
  18   2.0000      -6.041287      -164.3918
  19   2.0000      -6.037304      -164.2834
  20   2.0000      -6.036110      -164.2509
  21   2.0000      -6.033445      -164.1784
  22   2.0000      -6.031986      -164.1387
  23   2.0000      -6.028648      -164.0478
  24   2.0000      -1.015628       -27.6366
  25   2.0000      -0.986021       -26.8310
  26   2.0000      -0.907880       -24.7047
  27   2.0000      -0.902471       -24.5575
  28   2.0000      -0.872905       -23.7530
  29   2.0000      -0.852832       -23.2067
  30   2.0000      -0.840381       -22.8679
  31   2.0000      -0.812704       -22.1148
  32   2.0000      -0.783823       -21.3289
  33   2.0000      -0.774793       -21.0832
  34   2.0000      -0.706702       -19.2304
  35   2.0000      -0.698032       -18.9944
  36   2.0000      -0.689869       -18.7723
  37   2.0000      -0.659647       -17.9499
  38   2.0000      -0.641446       -17.4546
  39   2.0000      -0.612420       -16.6648
  40   2.0000      -0.594879       -16.1875
  41   2.0000      -0.571379       -15.5480
  42   2.0000      -0.550715       -14.9857
  43   2.0000      -0.546054       -14.8589
  44   2.0000      -0.544646       -14.8206
  45   2.0000      -0.536813       -14.6074
  46   2.0000      -0.517153       -14.0724
  47   2.0000      -0.506710       -13.7883
  48   2.0000      -0.502569       -13.6756
  49   2.0000      -0.500366       -13.6156
  50   2.0000      -0.486324       -13.2335
  51   2.0000      -0.480179       -13.0663
  52   2.0000      -0.472945       -12.8695
  53   2.0000      -0.463950       -12.6247
  54   2.0000      -0.460853       -12.5404
  55   2.0000      -0.444713       -12.1013
  56   2.0000      -0.439294       -11.9538
  57   2.0000      -0.438024       -11.9193
  58   2.0000      -0.434309       -11.8182
  59   2.0000      -0.422335       -11.4923
  60   2.0000      -0.418280       -11.3820
  61   2.0000      -0.413130       -11.2418
  62   2.0000      -0.409524       -11.1437
  63   2.0000      -0.355180        -9.6649
  64   2.0000      -0.334341        -9.0979
  65   2.0000      -0.329102        -8.9553
  66   2.0000      -0.288571        -7.8524
  67   0.0000       0.030717         0.8359
  68   0.0000       0.074927         2.0389
  69   0.0000       0.112030         3.0485
  70   0.0000       0.121055         3.2941
  71   0.0000       0.138616         3.7719

MULLIKEN ATOMIC CHARGES
-----------------------
   0 S :    0.123351
   1 C :   -0.105980
   2 C :   -0.061870
   3 C :   -0.006007
   4 C :   -0.139842
   5 H :    0.022100
   6 C :    0.050472
   7 H :    0.039052
   8 H :    0.026332
   9 C :   -0.118174
  10 H :    0.033648
  11 H :    0.025664
  12 C :   -0.025720
  13 H :    0.026889
  14 H :    0.037123
  15 H :    0.040877
  16 S :    0.090642
  17 C :   -0.086853
  18 C :   -0.045624
  19 C :   -0.071164
  20 C :   -0.138369
  21 H :    0.020905
  22 C :    0.095537
  23 H :    0.031522
  24 H :    0.002473
  25 C :   -0.045707
  26 H :    0.029422
  27 H :    0.035363
  28 C :   -0.101541
  29 H :    0.056342
  30 H :    0.045331
  31 H :    0.035032
  32 H :    0.024803
  33 H :    0.053972
Sum of atomic charges:   -0.0000000

LOEWDIN ATOMIC CHARGES
----------------------
   0 S :    0.423872
   1 C :   -0.201393
   2 C :   -0.066965
   3 C :   -0.064988
   4 C :   -0.201956
   5 H :    0.035102
   6 C :   -0.035182
   7 H :    0.030963
   8 H :    0.032929
   9 C :   -0.046303
  10 H :    0.028311
  11 H :    0.018708
  12 C :   -0.061190
  13 H :    0.020376
  14 H :    0.030066
  15 H :    0.026563
  16 S :    0.404936
  17 C :   -0.188702
  18 C :   -0.073525
  19 C :   -0.053515
  20 C :   -0.191183
  21 H :    0.031565
  22 C :   -0.033529
  23 H :    0.038175
  24 H :    0.019721
  25 C :   -0.035667
  26 H :    0.027176
  27 H :    0.025426
  28 C :   -0.078162
  29 H :    0.034240
  30 H :    0.028059
  31 H :    0.028284
  32 H :    0.022506
  33 H :    0.025282

  Mayer bond orders larger than 0.100000
B(  0-S ,  1-C ) :   1.1247 B(  0-S ,  4-C ) :   1.1485 B(  1-C ,  2-C ) :   1.6420
B(  1-C , 32-H ) :   0.9742 B(  2-C ,  3-C ) :   1.2299 B(  2-C ,  6-C ) :   0.9942
B(  3-C ,  4-C ) :   1.5951 B(  3-C ,  5-H ) :   0.9927 B(  4-C , 20-C ) :   1.0304
B(  6-C ,  7-H ) :   0.9401 B(  6-C ,  8-H ) :   0.9506 B(  6-C ,  9-C ) :   1.0736
B(  9-C , 10-H ) :   0.9559 B(  9-C , 11-H ) :   0.9568 B(  9-C , 12-C ) :   1.0772
B( 12-C , 13-H ) :   0.9765 B( 12-C , 14-H ) :   0.9732 B( 12-C , 15-H ) :   0.9750
B( 16-S , 17-C ) :   1.1604 B( 16-S , 20-C ) :   1.1521 B( 17-C , 18-C ) :   1.6029
B( 17-C , 33-H ) :   0.9730 B( 18-C , 19-C ) :   1.2326 B( 18-C , 21-H ) :   0.9909
B( 19-C , 20-C ) :   1.5728 B( 19-C , 22-C ) :   1.0354 B( 22-C , 23-H ) :   0.9309
B( 22-C , 24-H ) :   0.9302 B( 22-C , 25-C ) :   1.0766 B( 25-C , 26-H ) :   0.9541
B( 25-C , 27-H ) :   0.9579 B( 25-C , 28-C ) :   1.0667 B( 28-C , 29-H ) :   0.9760
B( 28-C , 30-H ) :   0.9735 B( 28-C , 31-H ) :   0.9731

Dispersion correction           -0.015357991
FINAL SINGLE POINT ENERGY     -1339.889441819201

DIPOLE MOMENT
-------------
                                X             Y             Z
Electronic contribution:    -15.80879      -1.61286     -12.43407
Nuclear contribution   :     16.13510       1.93063      12.82260
                        -----------------------------------------
Total Dipole Moment    :      0.32632       0.31777       0.38853
                        -----------------------------------------
Magnitude (a.u.)       :      0.59868
Magnitude (Debye)      :      1.52171

Rotational constants in cm-1:     0.021193     0.008406     0.007466
Rotational constants in MHz :   635.364174   252.015387   223.819386

                             ****ORCA TERMINATED NORMALLY****
TOTAL RUN TIME: 0 days 0 hours 0 minutes 22 seconds 330 msec
