                         Program Version 4.2.1 -  RELEASE  -
|  1> ! wB97X-D3 SP def2-SVP
|  2> %pal
|  3> nprocs 24
|  4> end
|  5>
|  6> * xyz 0 1
|  7> S 	 -41.2245 	 -1.68277 	 12.6987
|  8> C 	 -41.4022 	 -2.10896 	 14.4022
|  9> C 	 -42.5354 	 -1.4714 	 14.8945
| 10> C 	 -43.2778 	 -0.729221 	 13.8946
| 11> C 	 -42.7756 	 -0.789794 	 12.6194
| 12> H 	 -44.1238 	 -0.0959727 	 14.0802
| 13> C 	 -42.8319 	 -1.49456 	 16.3106
| 14> H 	 -43.042 	 -2.54907 	 16.4884
| 15> H 	 -43.8259 	 -1.10079 	 16.4126
| 16> C 	 -41.8671 	 -0.880373 	 17.3439
| 17> H 	 -42.2908 	 -1.18844 	 18.3227
| 18> H 	 -40.9101 	 -1.30752 	 17.4069
| 19> C 	 -41.6271 	 0.674379 	 17.1595
| 20> H 	 -41.143 	 1.03962 	 18.0669
| 21> H 	 -41.0894 	 0.969937 	 16.2146
| 22> H 	 -42.5986 	 1.16942 	 17.1004
| 23> S 	 -44.2464 	 -0.942981 	 10.121
| 24> C 	 -44.2497 	 0.473534 	 9.0824
| 25> C 	 -43.6011 	 1.48909 	 9.74227
| 26> C 	 -43.1134 	 1.24854 	 11.0311
| 27> C 	 -43.24 	 -0.0854575 	 11.4224
| 28> H 	 -43.5909 	 2.45769 	 9.24262
| 29> C 	 -42.3394 	 2.25936 	 11.7648
| 30> H 	 -42.1733 	 3.16662 	 11.1881
| 31> H 	 -41.4136 	 1.75009 	 12.0514
| 32> C 	 -42.9763 	 2.86478 	 13.0654
| 33> H 	 -43.3175 	 2.01428 	 13.6974
| 34> H 	 -43.8 	 3.52655 	 12.8385
| 35> C 	 -41.9573 	 3.68818 	 13.844
| 36> H 	 -42.2243 	 4.7348 	 13.8264
| 37> H 	 -40.9539 	 3.48212 	 13.4978
| 38> H 	 -41.9553 	 3.5535 	 14.9066
| 39> H 	 -40.6721 	 -2.67548 	 14.9655
| 40> H 	 -44.7406 	 0.571189 	 8.10198
| 41> *
| 42>
| 43>                          ****END OF INPUT****

CARTESIAN COORDINATES (ANGSTROEM)
---------------------------------
  S    -41.224500   -1.682770   12.698700
  C    -41.402200   -2.108960   14.402200
  C    -42.535400   -1.471400   14.894500
  C    -43.277800   -0.729221   13.894600
  C    -42.775600   -0.789794   12.619400
  H    -44.123800   -0.095973   14.080200
  C    -42.831900   -1.494560   16.310600
  H    -43.042000   -2.549070   16.488400
  H    -43.825900   -1.100790   16.412600
  C    -41.867100   -0.880373   17.343900
  H    -42.290800   -1.188440   18.322700
  H    -40.910100   -1.307520   17.406900
  C    -41.627100    0.674379   17.159500
  H    -41.143000    1.039620   18.066900
  H    -41.089400    0.969937   16.214600
  H    -42.598600    1.169420   17.100400
  S    -44.246400   -0.942981   10.121000
  C    -44.249700    0.473534    9.082400
  C    -43.601100    1.489090    9.742270
  C    -43.113400    1.248540   11.031100
  C    -43.240000   -0.085457   11.422400
  H    -43.590900    2.457690    9.242620
  C    -42.339400    2.259360   11.764800
  H    -42.173300    3.166620   11.188100
  H    -41.413600    1.750090   12.051400
  C    -42.976300    2.864780   13.065400
  H    -43.317500    2.014280   13.697400
  H    -43.800000    3.526550   12.838500
  C    -41.957300    3.688180   13.844000
  H    -42.224300    4.734800   13.826400
  H    -40.953900    3.482120   13.497800
  H    -41.955300    3.553500   14.906600
  H    -40.672100   -2.675480   14.965500
  H    -44.740600    0.571189    8.101980

 Total Charge           Charge          ....    0
 Multiplicity           Mult            ....    1
 Number of Electrons    NEL             ....  134
 Basis Dimension        Dim             ....  322

ORBITAL ENERGIES
----------------

  NO   OCC          E(Eh)            E(eV)
   0   2.0000     -88.963195     -2420.8116
   1   2.0000     -88.962859     -2420.8025
   2   2.0000     -10.334183      -281.2074
   3   2.0000     -10.333766      -281.1961
   4   2.0000     -10.321955      -280.8747
   5   2.0000     -10.317944      -280.7655
   6   2.0000     -10.302604      -280.3481
   7   2.0000     -10.299953      -280.2760
   8   2.0000     -10.297660      -280.2136
   9   2.0000     -10.292770      -280.0805
  10   2.0000     -10.289375      -279.9881
  11   2.0000     -10.289114      -279.9810
  12   2.0000     -10.286109      -279.8993
  13   2.0000     -10.285513      -279.8830
  14   2.0000     -10.285230      -279.8753
  15   2.0000     -10.270477      -279.4739
  16   2.0000      -8.077033      -219.7872
  17   2.0000      -8.076058      -219.7607
  18   2.0000      -6.035667      -164.2388
  19   2.0000      -6.034675      -164.2119
  20   2.0000      -6.031515      -164.1259
  21   2.0000      -6.030689      -164.1034
  22   2.0000      -6.027824      -164.0254
  23   2.0000      -6.026861      -163.9992
  24   2.0000      -0.998773       -27.1780
  25   2.0000      -0.980639       -26.6845
  26   2.0000      -0.913016       -24.8444
  27   2.0000      -0.908656       -24.7258
  28   2.0000      -0.866276       -23.5726
  29   2.0000      -0.852143       -23.1880
  30   2.0000      -0.843789       -22.9607
  31   2.0000      -0.815213       -22.1831
  32   2.0000      -0.781650       -21.2698
  33   2.0000      -0.770023       -20.9534
  34   2.0000      -0.713153       -19.4059
  35   2.0000      -0.708795       -19.2873
  36   2.0000      -0.692642       -18.8478
  37   2.0000      -0.657801       -17.8997
  38   2.0000      -0.645190       -17.5565
  39   2.0000      -0.610956       -16.6250
  40   2.0000      -0.595487       -16.2040
  41   2.0000      -0.573850       -15.6152
  42   2.0000      -0.570035       -15.5114
  43   2.0000      -0.554699       -15.0941
  44   2.0000      -0.536755       -14.6059
  45   2.0000      -0.528761       -14.3883
  46   2.0000      -0.520622       -14.1668
  47   2.0000      -0.512197       -13.9376
  48   2.0000      -0.508102       -13.8262
  49   2.0000      -0.498299       -13.5594
  50   2.0000      -0.491703       -13.3799
  51   2.0000      -0.480961       -13.0876
  52   2.0000      -0.469048       -12.7634
  53   2.0000      -0.462369       -12.5817
  54   2.0000      -0.461078       -12.5466
  55   2.0000      -0.444822       -12.1042
  56   2.0000      -0.440291       -11.9809
  57   2.0000      -0.436302       -11.8724
  58   2.0000      -0.433810       -11.8046
  59   2.0000      -0.425762       -11.5856
  60   2.0000      -0.418368       -11.3844
  61   2.0000      -0.410078       -11.1588
  62   2.0000      -0.407649       -11.0927
  63   2.0000      -0.333773        -9.0824
  64   2.0000      -0.327877        -8.9220
  65   2.0000      -0.317919        -8.6510
  66   2.0000      -0.310228        -8.4417
  67   0.0000       0.033883         0.9220
  68   0.0000       0.044399         1.2082
  69   0.0000       0.113553         3.0899
  70   0.0000       0.118139         3.2147
  71   0.0000       0.130038         3.5385

MULLIKEN ATOMIC CHARGES
-----------------------
   0 S :    0.097314
   1 C :   -0.119274
   2 C :   -0.118359
   3 C :    0.072816
   4 C :   -0.176149
   5 H :    0.017986
   6 C :    0.069314
   7 H :    0.033618
   8 H :    0.002671
   9 C :   -0.032108
  10 H :    0.027843
  11 H :    0.013980
  12 C :   -0.077972
  13 H :    0.040906
  14 H :    0.062599
  15 H :    0.025534
  16 S :    0.090202
  17 C :   -0.098235
  18 C :   -0.053233
  19 C :    0.037127
  20 C :   -0.191331
  21 H :    0.017098
  22 C :    0.053229
  23 H :    0.022439
  24 H :    0.039550
  25 C :   -0.084408
  26 H :    0.023207
  27 H :    0.028715
  28 C :   -0.027996
  29 H :    0.025146
  30 H :    0.029676
  31 H :    0.019852
  32 H :    0.055838
  33 H :    0.072406
Sum of atomic charges:    0.0000000

LOEWDIN ATOMIC CHARGES
----------------------
   0 S :    0.384500
   1 C :   -0.183204
   2 C :   -0.070940
   3 C :   -0.052890
   4 C :   -0.188715
   5 H :    0.029160
   6 C :   -0.046124
   7 H :    0.041104
   8 H :    0.027725
   9 C :   -0.033395
  10 H :    0.030797
  11 H :    0.014415
  12 C :   -0.069032
  13 H :    0.028293
  14 H :    0.036323
  15 H :    0.021427
  16 S :    0.364643
  17 C :   -0.179318
  18 C :   -0.082766
  19 C :   -0.050597
  20 C :   -0.177521
  21 H :    0.031425
  22 C :   -0.030851
  23 H :    0.031383
  24 H :    0.037065
  25 C :   -0.036854
  26 H :    0.022215
  27 H :    0.021901
  28 C :   -0.069085
  29 H :    0.026565
  30 H :    0.024511
  31 H :    0.025070
  32 H :    0.031482
  33 H :    0.041287

  Mayer bond orders larger than 0.100000
B(  0-S ,  1-C ) :   1.1403 B(  0-S ,  4-C ) :   1.1363 B(  1-C ,  2-C ) :   1.5811
B(  1-C , 32-H ) :   0.9775 B(  2-C ,  3-C ) :   1.2344 B(  2-C ,  6-C ) :   1.0343
B(  3-C ,  4-C ) :   1.5840 B(  3-C ,  5-H ) :   0.9864 B(  4-C , 20-C ) :   1.0474
B(  6-C ,  7-H ) :   0.9235 B(  6-C ,  8-H ) :   0.9336 B(  6-C ,  9-C ) :   1.0708
B(  9-C , 10-H ) :   0.9529 B(  9-C , 11-H ) :   0.9567 B(  9-C , 12-C ) :   1.0600
B( 12-C , 13-H ) :   0.9750 B( 12-C , 14-H ) :   0.9746 B( 12-C , 15-H ) :   0.9791
B( 16-S , 17-C ) :   1.1602 B( 16-S , 20-C ) :   1.1165 B( 17-C , 18-C ) :   1.5999
B( 17-C , 20-C ) :   0.1073 B( 17-C , 33-H ) :   0.9629 B( 18-C , 19-C ) :   1.2600
B( 18-C , 21-H ) :   0.9853 B( 19-C , 20-C ) :   1.5643 B( 19-C , 22-C ) :   1.0614
B( 22-C , 23-H ) :   0.9371 B( 22-C , 24-H ) :   0.9224 B( 22-C , 25-C ) :   1.0677
B( 25-C , 26-H ) :   0.9561 B( 25-C , 27-H ) :   0.9606 B( 25-C , 28-C ) :   1.0735
B( 28-C , 29-H ) :   0.9752 B( 28-C , 30-H ) :   0.9753 B( 28-C , 31-H ) :   0.9716

Dispersion correction           -0.015597619
FINAL SINGLE POINT ENERGY     -1339.867984062468

DIPOLE MOMENT
-------------
                                X             Y             Z
Electronic contribution:     -4.29067     -18.03429     -23.91069
Nuclear contribution   :      4.27163      18.57557      24.49612
                        -----------------------------------------
Total Dipole Moment    :     -0.01904       0.54128       0.58543
                        -----------------------------------------
Magnitude (a.u.)       :      0.79754
Magnitude (Debye)      :      2.02719

Rotational constants in cm-1:     0.019806     0.009300     0.007153
Rotational constants in MHz :   593.781470   278.798329   214.439607

                             ****ORCA TERMINATED NORMALLY****
TOTAL RUN TIME: 0 days 0 hours 0 minutes 22 seconds 628 msec
