                         Program Version 4.2.1 -  RELEASE  -
|  1> ! wB97X-D3 SP def2-SVP
|  2> %pal
|  3> nprocs 24
|  4> end
|  5>
|  6> * xyz 0 1
|  7> S 	 -72.6795 	 4.17732 	 -103.762
|  8> C 	 -72.8949 	 5.43462 	 -102.627
|  9> C 	 -72.9273 	 6.68415 	 -103.278
| 10> C 	 -72.7246 	 6.53436 	 -104.684
| 11> C 	 -72.5343 	 5.21829 	 -105.032
| 12> H 	 -72.6284 	 7.23827 	 -105.473
| 13> C 	 -73.1925 	 7.97375 	 -102.669
| 14> H 	 -73.3178 	 7.82022 	 -101.617
| 15> H 	 -74.2276 	 8.20552 	 -102.984
| 16> C 	 -71.981 	 8.99171 	 -102.777
| 17> H 	 -71.7415 	 9.17394 	 -103.827
| 18> H 	 -72.3043 	 9.90326 	 -102.355
| 19> C 	 -70.7501 	 8.42513 	 -101.962
| 20> H 	 -69.7828 	 8.7166 	 -102.307
| 21> H 	 -70.81 	 8.55847 	 -100.871
| 22> H 	 -70.6601 	 7.32527 	 -102.099
| 23> S 	 -73.6447 	 3.69283 	 -106.986
| 24> C 	 -72.9526 	 3.76038 	 -108.585
| 25> C 	 -71.8006 	 4.44309 	 -108.624
| 26> C 	 -71.3762 	 4.92681 	 -107.361
| 27> C 	 -72.3322 	 4.71418 	 -106.362
| 28> H 	 -71.2347 	 4.534 	 -109.566
| 29> C 	 -70.1476 	 5.82356 	 -107.223
| 30> H 	 -70.4124 	 6.85083 	 -107.176
| 31> H 	 -69.6263 	 5.77372 	 -108.185
| 32> C 	 -69.1325 	 5.37727 	 -106.133
| 33> H 	 -68.7395 	 4.35862 	 -106.331
| 34> H 	 -69.7185 	 5.1637 	 -105.292
| 35> C 	 -68.0425 	 6.38476 	 -105.812
| 36> H 	 -68.5171 	 7.26125 	 -105.552
| 37> H 	 -67.3104 	 6.51609 	 -106.593
| 38> H 	 -67.5643 	 6.00885 	 -104.963
| 39> H 	 -73.089 	 5.30185 	 -101.572
| 40> H 	 -73.5245 	 3.44263 	 -109.514
| 41> *
| 42>
| 43>                          ****END OF INPUT****

CARTESIAN COORDINATES (ANGSTROEM)
---------------------------------
  S    -72.679500    4.177320  -103.762000
  C    -72.894900    5.434620  -102.627000
  C    -72.927300    6.684150  -103.278000
  C    -72.724600    6.534360  -104.684000
  C    -72.534300    5.218290  -105.032000
  H    -72.628400    7.238270  -105.473000
  C    -73.192500    7.973750  -102.669000
  H    -73.317800    7.820220  -101.617000
  H    -74.227600    8.205520  -102.984000
  C    -71.981000    8.991710  -102.777000
  H    -71.741500    9.173940  -103.827000
  H    -72.304300    9.903260  -102.355000
  C    -70.750100    8.425130  -101.962000
  H    -69.782800    8.716600  -102.307000
  H    -70.810000    8.558470  -100.871000
  H    -70.660100    7.325270  -102.099000
  S    -73.644700    3.692830  -106.986000
  C    -72.952600    3.760380  -108.585000
  C    -71.800600    4.443090  -108.624000
  C    -71.376200    4.926810  -107.361000
  C    -72.332200    4.714180  -106.362000
  H    -71.234700    4.534000  -109.566000
  C    -70.147600    5.823560  -107.223000
  H    -70.412400    6.850830  -107.176000
  H    -69.626300    5.773720  -108.185000
  C    -69.132500    5.377270  -106.133000
  H    -68.739500    4.358620  -106.331000
  H    -69.718500    5.163700  -105.292000
  C    -68.042500    6.384760  -105.812000
  H    -68.517100    7.261250  -105.552000
  H    -67.310400    6.516090  -106.593000
  H    -67.564300    6.008850  -104.963000
  H    -73.089000    5.301850  -101.572000
  H    -73.524500    3.442630  -109.514000

 Total Charge           Charge          ....    0
 Multiplicity           Mult            ....    1
 Number of Electrons    NEL             ....  134
 Basis Dimension        Dim             ....  322

ORBITAL ENERGIES
----------------

  NO   OCC          E(Eh)            E(eV)
   0   2.0000     -88.964648     -2420.8512
   1   2.0000     -88.961831     -2420.7745
   2   2.0000     -10.324384      -280.9408
   3   2.0000     -10.316353      -280.7222
   4   2.0000     -10.315459      -280.6979
   5   2.0000     -10.309052      -280.5236
   6   2.0000     -10.302949      -280.3575
   7   2.0000     -10.298423      -280.2343
   8   2.0000     -10.294909      -280.1387
   9   2.0000     -10.289510      -279.9918
  10   2.0000     -10.288420      -279.9622
  11   2.0000     -10.287432      -279.9353
  12   2.0000     -10.286065      -279.8981
  13   2.0000     -10.280167      -279.7376
  14   2.0000     -10.276714      -279.6436
  15   2.0000     -10.263451      -279.2827
  16   2.0000      -8.082013      -219.9227
  17   2.0000      -8.076743      -219.7794
  18   2.0000      -6.040205      -164.3623
  19   2.0000      -6.035944      -164.2464
  20   2.0000      -6.035242      -164.2273
  21   2.0000      -6.033156      -164.1705
  22   2.0000      -6.031243      -164.1185
  23   2.0000      -6.027482      -164.0161
  24   2.0000      -1.019494       -27.7419
  25   2.0000      -0.989192       -26.9173
  26   2.0000      -0.916185       -24.9307
  27   2.0000      -0.905593       -24.6424
  28   2.0000      -0.869815       -23.6689
  29   2.0000      -0.853210       -23.2170
  30   2.0000      -0.847065       -23.0498
  31   2.0000      -0.815609       -22.1939
  32   2.0000      -0.784799       -21.3555
  33   2.0000      -0.771589       -20.9960
  34   2.0000      -0.718170       -19.5424
  35   2.0000      -0.706008       -19.2114
  36   2.0000      -0.689500       -18.7623
  37   2.0000      -0.656901       -17.8752
  38   2.0000      -0.645463       -17.5640
  39   2.0000      -0.622061       -16.9271
  40   2.0000      -0.595744       -16.2110
  41   2.0000      -0.566390       -15.4123
  42   2.0000      -0.560091       -15.2409
  43   2.0000      -0.552291       -15.0286
  44   2.0000      -0.538171       -14.6444
  45   2.0000      -0.527435       -14.3522
  46   2.0000      -0.513577       -13.9751
  47   2.0000      -0.511640       -13.9224
  48   2.0000      -0.503287       -13.6951
  49   2.0000      -0.501252       -13.6398
  50   2.0000      -0.496355       -13.5065
  51   2.0000      -0.481184       -13.0937
  52   2.0000      -0.469684       -12.7807
  53   2.0000      -0.466644       -12.6980
  54   2.0000      -0.454606       -12.3705
  55   2.0000      -0.452179       -12.3044
  56   2.0000      -0.447014       -12.1639
  57   2.0000      -0.441925       -12.0254
  58   2.0000      -0.436561       -11.8794
  59   2.0000      -0.432195       -11.7606
  60   2.0000      -0.421754       -11.4765
  61   2.0000      -0.412603       -11.2275
  62   2.0000      -0.406871       -11.0715
  63   2.0000      -0.342805        -9.3282
  64   2.0000      -0.329069        -8.9544
  65   2.0000      -0.328903        -8.9499
  66   2.0000      -0.295601        -8.0437
  67   0.0000       0.040185         1.0935
  68   0.0000       0.066020         1.7965
  69   0.0000       0.116885         3.1806
  70   0.0000       0.124250         3.3810
  71   0.0000       0.127068         3.4577

MULLIKEN ATOMIC CHARGES
-----------------------
   0 S :    0.137170
   1 C :   -0.111441
   2 C :   -0.121289
   3 C :    0.056002
   4 C :   -0.182507
   5 H :   -0.006692
   6 C :    0.073564
   7 H :   -0.003587
   8 H :    0.048350
   9 C :   -0.030926
  10 H :    0.035985
  11 H :    0.026538
  12 C :   -0.074772
  13 H :    0.025771
  14 H :    0.038179
  15 H :    0.037502
  16 S :    0.099207
  17 C :   -0.105633
  18 C :   -0.048063
  19 C :   -0.017420
  20 C :   -0.177683
  21 H :    0.028996
  22 C :    0.084246
  23 H :    0.022364
  24 H :    0.003882
  25 C :   -0.091608
  26 H :    0.021396
  27 H :    0.015578
  28 C :    0.038961
  29 H :    0.008805
  30 H :    0.030430
  31 H :    0.016328
  32 H :    0.043515
  33 H :    0.078851
Sum of atomic charges:    0.0000000

LOEWDIN ATOMIC CHARGES
----------------------
   0 S :    0.471742
   1 C :   -0.223672
   2 C :   -0.059412
   3 C :   -0.061539
   4 C :   -0.235734
   5 H :    0.026415
   6 C :   -0.040580
   7 H :    0.024342
   8 H :    0.042324
   9 C :   -0.022132
  10 H :    0.022870
  11 H :    0.018870
  12 C :   -0.072002
  13 H :    0.021904
  14 H :    0.028042
  15 H :    0.031759
  16 S :    0.392771
  17 C :   -0.194427
  18 C :   -0.080716
  19 C :   -0.054185
  20 C :   -0.190731
  21 H :    0.038412
  22 C :   -0.029232
  23 H :    0.024128
  24 H :    0.027528
  25 C :   -0.036395
  26 H :    0.026879
  27 H :    0.015013
  28 C :   -0.047747
  29 H :    0.015853
  30 H :    0.024613
  31 H :    0.024019
  32 H :    0.026535
  33 H :    0.044480

  Mayer bond orders larger than 0.100000
B(  0-S ,  1-C ) :   1.1545 B(  0-S ,  4-C ) :   1.2014 B(  1-C ,  2-C ) :   1.5590
B(  1-C , 32-H ) :   0.9705 B(  2-C ,  3-C ) :   1.2398 B(  2-C ,  6-C ) :   1.0437
B(  3-C ,  4-C ) :   1.5507 B(  3-C ,  5-H ) :   1.0051 B(  4-C , 20-C ) :   1.0108
B(  6-C ,  7-H ) :   0.9304 B(  6-C ,  8-H ) :   0.9338 B(  6-C ,  9-C ) :   1.0482
B(  9-C , 10-H ) :   0.9661 B(  9-C , 11-H ) :   0.9620 B(  9-C , 12-C ) :   1.0533
B( 12-C , 13-H ) :   0.9758 B( 12-C , 14-H ) :   0.9766 B( 12-C , 15-H ) :   0.9767
B( 16-S , 17-C ) :   1.1459 B( 16-S , 20-C ) :   1.1432 B( 17-C , 18-C ) :   1.6393
B( 17-C , 33-H ) :   0.9535 B( 18-C , 19-C ) :   1.2384 B( 18-C , 21-H ) :   0.9845
B( 19-C , 20-C ) :   1.5959 B( 19-C , 22-C ) :   1.0408 B( 22-C , 23-H ) :   0.9396
B( 22-C , 24-H ) :   0.9285 B( 22-C , 25-C ) :   1.0501 B( 25-C , 26-H ) :   0.9499
B( 25-C , 27-H ) :   0.9608 B( 25-C , 28-C ) :   1.0865 B( 28-C , 29-H ) :   0.9707
B( 28-C , 30-H ) :   0.9755 B( 28-C , 31-H ) :   0.9680

Dispersion correction           -0.015312194
FINAL SINGLE POINT ENERGY     -1339.870530865677

DIPOLE MOMENT
-------------
                                X             Y             Z
Electronic contribution:    -18.75169     -20.22118      -7.42095
Nuclear contribution   :     18.96561      20.77837       7.39963
                        -----------------------------------------
Total Dipole Moment    :      0.21391       0.55719      -0.02132
                        -----------------------------------------
Magnitude (a.u.)       :      0.59722
Magnitude (Debye)      :      1.51802

Rotational constants in cm-1:     0.018753     0.009980     0.007640
Rotational constants in MHz :   562.191193   299.178581   229.042768

                             ****ORCA TERMINATED NORMALLY****
TOTAL RUN TIME: 0 days 0 hours 0 minutes 22 seconds 694 msec
