                         Program Version 4.2.1 -  RELEASE  -
|  1> ! wB97X-D3 SP def2-SVP
|  2> %pal
|  3> nprocs 24
|  4> end
|  5>
|  6> * xyz 0 1
|  7> S 	 -0.777081 	 -23.1297 	 -108.631
|  8> C 	 -1.94835 	 -22.3153 	 -109.725
|  9> C 	 -3.20159 	 -22.8681 	 -109.511
| 10> C 	 -3.18977 	 -23.8704 	 -108.511
| 11> C 	 -1.98787 	 -24.1213 	 -107.924
| 12> H 	 -3.96209 	 -24.3716 	 -108.05
| 13> C 	 -4.45352 	 -22.328 	 -110.147
| 14> H 	 -4.42316 	 -22.4594 	 -111.22
| 15> H 	 -4.34 	 -21.34 	 -109.898
| 16> C 	 -5.7679 	 -22.7691 	 -109.575
| 17> H 	 -5.78883 	 -22.6647 	 -108.482
| 18> H 	 -6.52477 	 -22.0821 	 -109.891
| 19> C 	 -6.25935 	 -24.2145 	 -109.904
| 20> H 	 -7.16241 	 -24.4194 	 -109.32
| 21> H 	 -6.55717 	 -24.1922 	 -110.924
| 22> H 	 -5.51733 	 -25.024 	 -109.837
| 23> S 	 -0.128823 	 -25.9317 	 -106.765
| 24> C 	 -0.597256 	 -26.7731 	 -105.321
| 25> C 	 -1.7289 	 -26.2253 	 -104.776
| 26> C 	 -2.2826 	 -25.1505 	 -105.529
| 27> C 	 -1.62247 	 -24.978 	 -106.78
| 28> H 	 -2.14226 	 -26.5846 	 -103.839
| 29> C 	 -3.58218 	 -24.3937 	 -105.082
| 30> H 	 -3.87526 	 -23.6249 	 -105.831
| 31> H 	 -3.31999 	 -23.9 	 -104.23
| 32> C 	 -4.78094 	 -25.2235 	 -104.75
| 33> H 	 -4.50265 	 -26.0469 	 -104.104
| 34> H 	 -5.22585 	 -25.7654 	 -105.581
| 35> C 	 -5.81546 	 -24.3029 	 -104.054
| 36> H 	 -6.20016 	 -23.6189 	 -104.839
| 37> H 	 -5.49795 	 -23.5659 	 -103.336
| 38> H 	 -6.69748 	 -24.8172 	 -103.692
| 39> H 	 -1.68108 	 -21.5727 	 -110.402
| 40> H 	 -0.0809565 	 -27.5741 	 -104.858
| 41> *
| 42>
| 43>                          ****END OF INPUT****

CARTESIAN COORDINATES (ANGSTROEM)
---------------------------------
  S     -0.777081  -23.129700  -108.631000
  C     -1.948350  -22.315300  -109.725000
  C     -3.201590  -22.868100  -109.511000
  C     -3.189770  -23.870400  -108.511000
  C     -1.987870  -24.121300  -107.924000
  H     -3.962090  -24.371600  -108.050000
  C     -4.453520  -22.328000  -110.147000
  H     -4.423160  -22.459400  -111.220000
  H     -4.340000  -21.340000  -109.898000
  C     -5.767900  -22.769100  -109.575000
  H     -5.788830  -22.664700  -108.482000
  H     -6.524770  -22.082100  -109.891000
  C     -6.259350  -24.214500  -109.904000
  H     -7.162410  -24.419400  -109.320000
  H     -6.557170  -24.192200  -110.924000
  H     -5.517330  -25.024000  -109.837000
  S     -0.128823  -25.931700  -106.765000
  C     -0.597256  -26.773100  -105.321000
  C     -1.728900  -26.225300  -104.776000
  C     -2.282600  -25.150500  -105.529000
  C     -1.622470  -24.978000  -106.780000
  H     -2.142260  -26.584600  -103.839000
  C     -3.582180  -24.393700  -105.082000
  H     -3.875260  -23.624900  -105.831000
  H     -3.319990  -23.900000  -104.230000
  C     -4.780940  -25.223500  -104.750000
  H     -4.502650  -26.046900  -104.104000
  H     -5.225850  -25.765400  -105.581000
  C     -5.815460  -24.302900  -104.054000
  H     -6.200160  -23.618900  -104.839000
  H     -5.497950  -23.565900  -103.336000
  H     -6.697480  -24.817200  -103.692000
  H     -1.681080  -21.572700  -110.402000
  H     -0.080957  -27.574100  -104.858000

 Total Charge           Charge          ....    0
 Multiplicity           Mult            ....    1
 Number of Electrons    NEL             ....  134
 Basis Dimension        Dim             ....  322

ORBITAL ENERGIES
----------------

  NO   OCC          E(Eh)            E(eV)
   0   2.0000     -88.967717     -2420.9347
   1   2.0000     -88.960069     -2420.7266
   2   2.0000     -10.333633      -281.1925
   3   2.0000     -10.325922      -280.9826
   4   2.0000     -10.315592      -280.7015
   5   2.0000     -10.311211      -280.5823
   6   2.0000     -10.309450      -280.5344
   7   2.0000     -10.301887      -280.3286
   8   2.0000     -10.293578      -280.1025
   9   2.0000     -10.288289      -279.9586
  10   2.0000     -10.287282      -279.9312
  11   2.0000     -10.286501      -279.9099
  12   2.0000     -10.282992      -279.8144
  13   2.0000     -10.282708      -279.8067
  14   2.0000     -10.280245      -279.7397
  15   2.0000     -10.277697      -279.6704
  16   2.0000      -8.082176      -219.9272
  17   2.0000      -8.074947      -219.7305
  18   2.0000      -6.040729      -164.3766
  19   2.0000      -6.036681      -164.2664
  20   2.0000      -6.033392      -164.1769
  21   2.0000      -6.032938      -164.1646
  22   2.0000      -6.029368      -164.0674
  23   2.0000      -6.025832      -163.9712
  24   2.0000      -1.005821       -27.3698
  25   2.0000      -0.984588       -26.7920
  26   2.0000      -0.918899       -25.0045
  27   2.0000      -0.914593       -24.8873
  28   2.0000      -0.869299       -23.6548
  29   2.0000      -0.848813       -23.0974
  30   2.0000      -0.839811       -22.8524
  31   2.0000      -0.821650       -22.3582
  32   2.0000      -0.789084       -21.4721
  33   2.0000      -0.775684       -21.1074
  34   2.0000      -0.713627       -19.4188
  35   2.0000      -0.706740       -19.2314
  36   2.0000      -0.696798       -18.9608
  37   2.0000      -0.655388       -17.8340
  38   2.0000      -0.649986       -17.6870
  39   2.0000      -0.624504       -16.9936
  40   2.0000      -0.601293       -16.3620
  41   2.0000      -0.575008       -15.6468
  42   2.0000      -0.566901       -15.4262
  43   2.0000      -0.555087       -15.1047
  44   2.0000      -0.535238       -14.5646
  45   2.0000      -0.528965       -14.3939
  46   2.0000      -0.521038       -14.1782
  47   2.0000      -0.514718       -14.0062
  48   2.0000      -0.509892       -13.8749
  49   2.0000      -0.503556       -13.7024
  50   2.0000      -0.493382       -13.4256
  51   2.0000      -0.485895       -13.2219
  52   2.0000      -0.473519       -12.8851
  53   2.0000      -0.468861       -12.7584
  54   2.0000      -0.456525       -12.4227
  55   2.0000      -0.454792       -12.3755
  56   2.0000      -0.448177       -12.1955
  57   2.0000      -0.440544       -11.9878
  58   2.0000      -0.431145       -11.7320
  59   2.0000      -0.428824       -11.6689
  60   2.0000      -0.416249       -11.3267
  61   2.0000      -0.415577       -11.3084
  62   2.0000      -0.410986       -11.1835
  63   2.0000      -0.347204        -9.4479
  64   2.0000      -0.332585        -9.0501
  65   2.0000      -0.329424        -8.9641
  66   2.0000      -0.289536        -7.8787
  67   0.0000       0.027453         0.7470
  68   0.0000       0.071610         1.9486
  69   0.0000       0.108253         2.9457
  70   0.0000       0.118819         3.2332
  71   0.0000       0.131912         3.5895

MULLIKEN ATOMIC CHARGES
-----------------------
   0 S :    0.089144
   1 C :   -0.116558
   2 C :   -0.094361
   3 C :    0.049475
   4 C :   -0.138038
   5 H :   -0.034966
   6 C :    0.147107
   7 H :    0.036904
   8 H :    0.015489
   9 C :   -0.099699
  10 H :    0.020323
  11 H :    0.022912
  12 C :   -0.049788
  13 H :    0.037059
  14 H :    0.017760
  15 H :    0.046055
  16 S :    0.113255
  17 C :   -0.066873
  18 C :   -0.043496
  19 C :   -0.024141
  20 C :   -0.160889
  21 H :    0.019458
  22 C :    0.092715
  23 H :    0.028329
  24 H :    0.004502
  25 C :   -0.056514
  26 H :    0.019108
  27 H :    0.028843
  28 C :   -0.056093
  29 H :    0.018051
  30 H :    0.028875
  31 H :    0.035512
  32 H :    0.024466
  33 H :    0.046075
Sum of atomic charges:   -0.0000000

LOEWDIN ATOMIC CHARGES
----------------------
   0 S :    0.396699
   1 C :   -0.176488
   2 C :   -0.050901
   3 C :   -0.070294
   4 C :   -0.190336
   5 H :    0.017297
   6 C :   -0.027462
   7 H :    0.034483
   8 H :    0.030265
   9 C :   -0.041687
  10 H :    0.021952
  11 H :    0.025617
  12 C :   -0.066166
  13 H :    0.029420
  14 H :    0.019664
  15 H :    0.027105
  16 S :    0.405558
  17 C :   -0.180843
  18 C :   -0.074869
  19 C :   -0.047297
  20 C :   -0.198544
  21 H :    0.030756
  22 C :   -0.023728
  23 H :    0.033490
  24 H :    0.020419
  25 C :   -0.038350
  26 H :    0.018844
  27 H :    0.025517
  28 C :   -0.069684
  29 H :    0.028532
  30 H :    0.024343
  31 H :    0.025255
  32 H :    0.015089
  33 H :    0.026343

  Mayer bond orders larger than 0.100000
B(  0-S ,  1-C ) :   1.1303 B(  0-S ,  4-C ) :   1.1658 B(  1-C ,  2-C ) :   1.6032
B(  1-C ,  4-C ) :   0.1046 B(  1-C , 32-H ) :   0.9901 B(  2-C ,  3-C ) :   1.2284
B(  2-C ,  6-C ) :   0.9840 B(  3-C ,  4-C ) :   1.5827 B(  3-C ,  5-H ) :   1.0092
B(  4-C , 20-C ) :   1.0301 B(  6-C ,  7-H ) :   0.9314 B(  6-C ,  8-H ) :   0.9245
B(  6-C ,  9-C ) :   1.1104 B(  9-C , 10-H ) :   0.9516 B(  9-C , 11-H ) :   0.9496
B(  9-C , 12-C ) :   1.0675 B( 12-C , 13-H ) :   0.9746 B( 12-C , 14-H ) :   0.9731
B( 12-C , 15-H ) :   0.9792 B( 16-S , 17-C ) :   1.1554 B( 16-S , 20-C ) :   1.1424
B( 17-C , 18-C ) :   1.5999 B( 17-C , 20-C ) :   0.1036 B( 17-C , 33-H ) :   0.9722
B( 18-C , 19-C ) :   1.2573 B( 18-C , 21-H ) :   0.9882 B( 19-C , 20-C ) :   1.5595
B( 19-C , 22-C ) :   1.0242 B( 22-C , 23-H ) :   0.9410 B( 22-C , 24-H ) :   0.9253
B( 22-C , 25-C ) :   1.0680 B( 25-C , 26-H ) :   0.9517 B( 25-C , 27-H ) :   0.9532
B( 25-C , 28-C ) :   1.0711 B( 28-C , 29-H ) :   0.9722 B( 28-C , 30-H ) :   0.9769
B( 28-C , 31-H ) :   0.9740

Dispersion correction           -0.014356284
FINAL SINGLE POINT ENERGY     -1339.867975739613

DIPOLE MOMENT
-------------
                                X             Y             Z
Electronic contribution:     31.79622      -3.60864      -3.68362
Nuclear contribution   :    -32.58833       3.75641       3.91365
                        -----------------------------------------
Total Dipole Moment    :     -0.79212       0.14776       0.23003
                        -----------------------------------------
Magnitude (a.u.)       :      0.83797
Magnitude (Debye)      :      2.12995

Rotational constants in cm-1:     0.015570     0.010562     0.007011
Rotational constants in MHz :   466.774572   316.629507   210.192353

                             ****ORCA TERMINATED NORMALLY****
TOTAL RUN TIME: 0 days 0 hours 0 minutes 22 seconds 225 msec
