                         Program Version 4.2.1 -  RELEASE  -
|  1> ! wB97X-D3 SP def2-SVP
|  2> %pal
|  3> nprocs 24
|  4> end
|  5>
|  6> * xyz 0 1
|  7> S 	 -36.2678 	 -48.7244 	 -78.626
|  8> C 	 -34.8356 	 -49.0487 	 -79.5014
|  9> C 	 -33.731 	 -49.1379 	 -78.6829
| 10> C 	 -34.0342 	 -48.9429 	 -77.3155
| 11> C 	 -35.422 	 -48.6319 	 -77.1168
| 12> H 	 -33.3114 	 -48.9058 	 -76.5415
| 13> C 	 -32.3148 	 -49.3645 	 -79.1673
| 14> H 	 -31.7275 	 -48.7486 	 -78.4831
| 15> H 	 -32.0812 	 -48.8784 	 -80.1774
| 16> C 	 -31.7506 	 -50.7672 	 -79.2988
| 17> H 	 -31.8066 	 -51.2344 	 -78.2726
| 18> H 	 -32.5195 	 -51.3053 	 -79.8508
| 19> C 	 -30.3909 	 -50.9186 	 -80.0006
| 20> H 	 -29.5422 	 -50.473 	 -79.4847
| 21> H 	 -30.203 	 -51.9098 	 -80.2065
| 22> H 	 -30.5055 	 -50.4831 	 -80.9908
| 23> S 	 -37.6437 	 -48.9707 	 -75.6097
| 24> C 	 -37.9608 	 -47.9783 	 -74.2242
| 25> C 	 -36.8666 	 -47.1957 	 -74.0318
| 26> C 	 -35.7957 	 -47.2445 	 -74.9977
| 27> C 	 -36.1282 	 -48.214 	 -75.9701
| 28> H 	 -36.7444 	 -46.5458 	 -73.2259
| 29> C 	 -34.5348 	 -46.4567 	 -74.9525
| 30> H 	 -33.7467 	 -47.0572 	 -75.3712
| 31> H 	 -34.2194 	 -46.4141 	 -73.8504
| 32> C 	 -34.6862 	 -45.1175 	 -75.5243
| 33> H 	 -35.5997 	 -44.666 	 -75.1678
| 34> H 	 -34.8516 	 -45.2809 	 -76.677
| 35> C 	 -33.5323 	 -44.1725 	 -75.205
| 36> H 	 -33.4418 	 -44.0819 	 -74.0723
| 37> H 	 -33.7644 	 -43.2196 	 -75.5814
| 38> H 	 -32.6167 	 -44.5746 	 -75.6384
| 39> H 	 -34.7853 	 -49.118 	 -80.6209
| 40> H 	 -38.8547 	 -47.8235 	 -73.6697
| 41> *
| 42>
| 43>                          ****END OF INPUT****

CARTESIAN COORDINATES (ANGSTROEM)
---------------------------------
  S    -36.267800  -48.724400  -78.626000
  C    -34.835600  -49.048700  -79.501400
  C    -33.731000  -49.137900  -78.682900
  C    -34.034200  -48.942900  -77.315500
  C    -35.422000  -48.631900  -77.116800
  H    -33.311400  -48.905800  -76.541500
  C    -32.314800  -49.364500  -79.167300
  H    -31.727500  -48.748600  -78.483100
  H    -32.081200  -48.878400  -80.177400
  C    -31.750600  -50.767200  -79.298800
  H    -31.806600  -51.234400  -78.272600
  H    -32.519500  -51.305300  -79.850800
  C    -30.390900  -50.918600  -80.000600
  H    -29.542200  -50.473000  -79.484700
  H    -30.203000  -51.909800  -80.206500
  H    -30.505500  -50.483100  -80.990800
  S    -37.643700  -48.970700  -75.609700
  C    -37.960800  -47.978300  -74.224200
  C    -36.866600  -47.195700  -74.031800
  C    -35.795700  -47.244500  -74.997700
  C    -36.128200  -48.214000  -75.970100
  H    -36.744400  -46.545800  -73.225900
  C    -34.534800  -46.456700  -74.952500
  H    -33.746700  -47.057200  -75.371200
  H    -34.219400  -46.414100  -73.850400
  C    -34.686200  -45.117500  -75.524300
  H    -35.599700  -44.666000  -75.167800
  H    -34.851600  -45.280900  -76.677000
  C    -33.532300  -44.172500  -75.205000
  H    -33.441800  -44.081900  -74.072300
  H    -33.764400  -43.219600  -75.581400
  H    -32.616700  -44.574600  -75.638400
  H    -34.785300  -49.118000  -80.620900
  H    -38.854700  -47.823500  -73.669700

 Total Charge           Charge          ....    0
 Multiplicity           Mult            ....    1
 Number of Electrons    NEL             ....  134
 Basis Dimension        Dim             ....  322

ORBITAL ENERGIES
----------------

  NO   OCC          E(Eh)            E(eV)
   0   2.0000     -88.969236     -2420.9760
   1   2.0000     -88.963685     -2420.8249
   2   2.0000     -10.329803      -281.0882
   3   2.0000     -10.322537      -280.8905
   4   2.0000     -10.314311      -280.6667
   5   2.0000     -10.311589      -280.5926
   6   2.0000     -10.300360      -280.2871
   7   2.0000     -10.300316      -280.2859
   8   2.0000     -10.298575      -280.2385
   9   2.0000     -10.293850      -280.1099
  10   2.0000     -10.289200      -279.9834
  11   2.0000     -10.288697      -279.9697
  12   2.0000     -10.286060      -279.8979
  13   2.0000     -10.285974      -279.8956
  14   2.0000     -10.278867      -279.7022
  15   2.0000     -10.276075      -279.6262
  16   2.0000      -8.084821      -219.9992
  17   2.0000      -8.078969      -219.8399
  18   2.0000      -6.043139      -164.4422
  19   2.0000      -6.039026      -164.3302
  20   2.0000      -6.037528      -164.2895
  21   2.0000      -6.035901      -164.2452
  22   2.0000      -6.033267      -164.1736
  23   2.0000      -6.029763      -164.0782
  24   2.0000      -1.013158       -27.5694
  25   2.0000      -0.988379       -26.8951
  26   2.0000      -0.920743       -25.0547
  27   2.0000      -0.912684       -24.8354
  28   2.0000      -0.876102       -23.8399
  29   2.0000      -0.856132       -23.2965
  30   2.0000      -0.848101       -23.0780
  31   2.0000      -0.813785       -22.1442
  32   2.0000      -0.786928       -21.4134
  33   2.0000      -0.773441       -21.0464
  34   2.0000      -0.709514       -19.3069
  35   2.0000      -0.699485       -19.0340
  36   2.0000      -0.692871       -18.8540
  37   2.0000      -0.664848       -18.0914
  38   2.0000      -0.640366       -17.4252
  39   2.0000      -0.622887       -16.9496
  40   2.0000      -0.602593       -16.3974
  41   2.0000      -0.569189       -15.4884
  42   2.0000      -0.563241       -15.3266
  43   2.0000      -0.556985       -15.1563
  44   2.0000      -0.536839       -14.6081
  45   2.0000      -0.526988       -14.3401
  46   2.0000      -0.520957       -14.1760
  47   2.0000      -0.511876       -13.9288
  48   2.0000      -0.511291       -13.9129
  49   2.0000      -0.504672       -13.7328
  50   2.0000      -0.497701       -13.5431
  51   2.0000      -0.480985       -13.0883
  52   2.0000      -0.474517       -12.9123
  53   2.0000      -0.463570       -12.6144
  54   2.0000      -0.457347       -12.4450
  55   2.0000      -0.454194       -12.3593
  56   2.0000      -0.446061       -12.1379
  57   2.0000      -0.440861       -11.9964
  58   2.0000      -0.436774       -11.8852
  59   2.0000      -0.426668       -11.6102
  60   2.0000      -0.418219       -11.3803
  61   2.0000      -0.408010       -11.1025
  62   2.0000      -0.406869       -11.0715
  63   2.0000      -0.347758        -9.4630
  64   2.0000      -0.335547        -9.1307
  65   2.0000      -0.327991        -8.9251
  66   2.0000      -0.286999        -7.8097
  67   0.0000       0.024534         0.6676
  68   0.0000       0.074428         2.0253
  69   0.0000       0.113781         3.0961
  70   0.0000       0.117796         3.2054
  71   0.0000       0.137695         3.7469

MULLIKEN ATOMIC CHARGES
-----------------------
   0 S :    0.133941
   1 C :   -0.132549
   2 C :   -0.081939
   3 C :    0.058685
   4 C :   -0.177236
   5 H :    0.004727
   6 C :    0.022726
   7 H :    0.014819
   8 H :    0.020917
   9 C :   -0.076726
  10 H :    0.027541
  11 H :    0.019962
  12 C :    0.006618
  13 H :    0.040255
  14 H :    0.018433
  15 H :    0.020130
  16 S :    0.109332
  17 C :   -0.061010
  18 C :   -0.015027
  19 C :   -0.052376
  20 C :   -0.162658
  21 H :   -0.015353
  22 C :    0.084522
  23 H :   -0.001496
  24 H :    0.023126
  25 C :   -0.103354
  26 H :    0.021678
  27 H :    0.047587
  28 C :   -0.003680
  29 H :    0.033577
  30 H :    0.027571
  31 H :    0.032063
  32 H :    0.064880
  33 H :    0.050314
Sum of atomic charges:   -0.0000000

LOEWDIN ATOMIC CHARGES
----------------------
   0 S :    0.446408
   1 C :   -0.217702
   2 C :   -0.070412
   3 C :   -0.053243
   4 C :   -0.202684
   5 H :    0.022965
   6 C :   -0.043025
   7 H :    0.025100
   8 H :    0.032918
   9 C :   -0.046380
  10 H :    0.025923
  11 H :    0.023750
  12 C :   -0.055649
  13 H :    0.028195
  14 H :    0.019478
  15 H :    0.027691
  16 S :    0.419444
  17 C :   -0.195432
  18 C :   -0.062663
  19 C :   -0.051315
  20 C :   -0.212073
  21 H :    0.015940
  22 C :   -0.040957
  23 H :    0.024826
  24 H :    0.036481
  25 C :   -0.048274
  26 H :    0.021261
  27 H :    0.039099
  28 C :   -0.058348
  29 H :    0.032014
  30 H :    0.019420
  31 H :    0.025312
  32 H :    0.039628
  33 H :    0.032304

  Mayer bond orders larger than 0.100000
B(  0-S ,  1-C ) :   1.1615 B(  0-S ,  4-C ) :   1.1868 B(  1-C ,  2-C ) :   1.5732
B(  1-C ,  4-C ) :   0.1070 B(  1-C , 32-H ) :   0.9622 B(  2-C ,  3-C ) :   1.2949
B(  2-C ,  6-C ) :   1.0195 B(  3-C ,  4-C ) :   1.4909 B(  3-C ,  5-H ) :   0.9960
B(  4-C , 20-C ) :   1.0753 B(  6-C ,  7-H ) :   0.9362 B(  6-C ,  8-H ) :   0.9423
B(  6-C ,  9-C ) :   1.0638 B(  9-C , 10-H ) :   0.9506 B(  9-C , 11-H ) :   0.9520
B(  9-C , 12-C ) :   1.0834 B( 12-C , 13-H ) :   0.9769 B( 12-C , 14-H ) :   0.9710
B( 12-C , 15-H ) :   0.9672 B( 16-S , 17-C ) :   1.1352 B( 16-S , 20-C ) :   1.1609
B( 17-C , 18-C ) :   1.5899 B( 17-C , 33-H ) :   0.9735 B( 18-C , 19-C ) :   1.2741
B( 18-C , 21-H ) :   0.9886 B( 19-C , 20-C ) :   1.5400 B( 19-C , 22-C ) :   1.0477
B( 22-C , 23-H ) :   0.9200 B( 22-C , 24-H ) :   0.9268 B( 22-C , 25-C ) :   1.0666
B( 25-C , 26-H ) :   0.9557 B( 25-C , 27-H ) :   0.9438 B( 25-C , 28-C ) :   1.0837
B( 28-C , 29-H ) :   0.9716 B( 28-C , 30-H ) :   0.9731 B( 28-C , 31-H ) :   0.9724

Dispersion correction           -0.013761794
FINAL SINGLE POINT ENERGY     -1339.878061029492

DIPOLE MOMENT
-------------
                                X             Y             Z
Electronic contribution:    -27.35114      -7.20734       2.75801
Nuclear contribution   :     27.90325       7.51762      -2.74720
                        -----------------------------------------
Total Dipole Moment    :      0.55211       0.31028       0.01081
                        -----------------------------------------
Magnitude (a.u.)       :      0.63342
Magnitude (Debye)      :      1.61002

Rotational constants in cm-1:     0.019081     0.007913     0.006329
Rotational constants in MHz :   572.021112   237.222850   189.730361

                             ****ORCA TERMINATED NORMALLY****
TOTAL RUN TIME: 0 days 0 hours 0 minutes 21 seconds 235 msec
