                         Program Version 4.2.1 -  RELEASE  -
|  1> ! wB97X-D3 SP def2-SVP
|  2> %pal
|  3> nprocs 24
|  4> end
|  5>
|  6> * xyz 0 1
|  7> S 	 -124.375 	 34.4874 	 -109.372
|  8> C 	 -124.522 	 33.6177 	 -110.852
|  9> C 	 -125.696 	 33.7855 	 -111.581
| 10> C 	 -126.474 	 34.7211 	 -110.892
| 11> C 	 -125.977 	 35.1996 	 -109.689
| 12> H 	 -127.347 	 35.1836 	 -111.178
| 13> C 	 -126.109 	 33.0165 	 -112.828
| 14> H 	 -125.58 	 32.08 	 -112.781
| 15> H 	 -125.742 	 33.6187 	 -113.669
| 16> C 	 -127.625 	 32.7329 	 -112.998
| 17> H 	 -127.736 	 32.0255 	 -112.205
| 18> H 	 -128.286 	 33.6104 	 -112.86
| 19> C 	 -128.165 	 32.2209 	 -114.34
| 20> H 	 -127.623 	 31.3576 	 -114.593
| 21> H 	 -129.226 	 32.0037 	 -114.318
| 22> H 	 -128.005 	 33.0058 	 -115.163
| 23> S 	 -127.33 	 35.2825 	 -107.173
| 24> C 	 -128.216 	 36.7897 	 -106.822
| 25> C 	 -128.019 	 37.7546 	 -107.77
| 26> C 	 -127.215 	 37.3314 	 -108.862
| 27> C 	 -126.74 	 36.0014 	 -108.741
| 28> H 	 -128.499 	 38.7384 	 -107.634
| 29> C 	 -126.845 	 38.2103 	 -110.043
| 30> H 	 -127.484 	 37.8189 	 -110.845
| 31> H 	 -125.944 	 37.7983 	 -110.479
| 32> C 	 -126.805 	 39.7397 	 -109.786
| 33> H 	 -126.002 	 40.017 	 -109.035
| 34> H 	 -127.824 	 40.0459 	 -109.476
| 35> C 	 -126.454 	 40.4679 	 -111.044
| 36> H 	 -125.412 	 40.4423 	 -111.324
| 37> H 	 -126.463 	 41.4817 	 -110.759
| 38> H 	 -127.108 	 40.2039 	 -111.894
| 39> H 	 -123.897 	 32.7603 	 -111.039
| 40> H 	 -128.654 	 37.0348 	 -105.892
| 41> *
| 42>
| 43>                          ****END OF INPUT****

CARTESIAN COORDINATES (ANGSTROEM)
---------------------------------
  S    -124.375000   34.487400  -109.372000
  C    -124.522000   33.617700  -110.852000
  C    -125.696000   33.785500  -111.581000
  C    -126.474000   34.721100  -110.892000
  C    -125.977000   35.199600  -109.689000
  H    -127.347000   35.183600  -111.178000
  C    -126.109000   33.016500  -112.828000
  H    -125.580000   32.080000  -112.781000
  H    -125.742000   33.618700  -113.669000
  C    -127.625000   32.732900  -112.998000
  H    -127.736000   32.025500  -112.205000
  H    -128.286000   33.610400  -112.860000
  C    -128.165000   32.220900  -114.340000
  H    -127.623000   31.357600  -114.593000
  H    -129.226000   32.003700  -114.318000
  H    -128.005000   33.005800  -115.163000
  S    -127.330000   35.282500  -107.173000
  C    -128.216000   36.789700  -106.822000
  C    -128.019000   37.754600  -107.770000
  C    -127.215000   37.331400  -108.862000
  C    -126.740000   36.001400  -108.741000
  H    -128.499000   38.738400  -107.634000
  C    -126.845000   38.210300  -110.043000
  H    -127.484000   37.818900  -110.845000
  H    -125.944000   37.798300  -110.479000
  C    -126.805000   39.739700  -109.786000
  H    -126.002000   40.017000  -109.035000
  H    -127.824000   40.045900  -109.476000
  C    -126.454000   40.467900  -111.044000
  H    -125.412000   40.442300  -111.324000
  H    -126.463000   41.481700  -110.759000
  H    -127.108000   40.203900  -111.894000
  H    -123.897000   32.760300  -111.039000
  H    -128.654000   37.034800  -105.892000

 Total Charge           Charge          ....    0
 Multiplicity           Mult            ....    1
 Number of Electrons    NEL             ....  134
 Basis Dimension        Dim             ....  322

ORBITAL ENERGIES
----------------

  NO   OCC          E(Eh)            E(eV)
   0   2.0000     -88.968709     -2420.9616
   1   2.0000     -88.962671     -2420.7973
   2   2.0000     -10.327064      -281.0137
   3   2.0000     -10.326134      -280.9884
   4   2.0000     -10.314001      -280.6582
   5   2.0000     -10.311078      -280.5787
   6   2.0000     -10.303679      -280.3774
   7   2.0000     -10.301408      -280.3156
   8   2.0000     -10.298240      -280.2294
   9   2.0000     -10.295973      -280.1677
  10   2.0000     -10.292000      -280.0596
  11   2.0000     -10.288733      -279.9707
  12   2.0000     -10.287753      -279.9440
  13   2.0000     -10.286278      -279.9039
  14   2.0000     -10.282748      -279.8078
  15   2.0000     -10.271755      -279.5087
  16   2.0000      -8.083284      -219.9573
  17   2.0000      -8.075712      -219.7513
  18   2.0000      -6.041542      -164.3987
  19   2.0000      -6.037913      -164.3000
  20   2.0000      -6.034299      -164.2016
  21   2.0000      -6.034234      -164.1998
  22   2.0000      -6.030549      -164.0996
  23   2.0000      -6.026398      -163.9866
  24   2.0000      -1.000535       -27.2259
  25   2.0000      -0.975763       -26.5519
  26   2.0000      -0.910905       -24.7870
  27   2.0000      -0.908254       -24.7148
  28   2.0000      -0.868728       -23.6393
  29   2.0000      -0.855366       -23.2757
  30   2.0000      -0.848657       -23.0931
  31   2.0000      -0.815833       -22.2000
  32   2.0000      -0.785585       -21.3769
  33   2.0000      -0.767804       -20.8930
  34   2.0000      -0.708229       -19.2719
  35   2.0000      -0.702715       -19.1219
  36   2.0000      -0.689739       -18.7687
  37   2.0000      -0.648415       -17.6443
  38   2.0000      -0.644689       -17.5429
  39   2.0000      -0.618531       -16.8311
  40   2.0000      -0.593467       -16.1491
  41   2.0000      -0.576483       -15.6869
  42   2.0000      -0.568938       -15.4816
  43   2.0000      -0.563637       -15.3374
  44   2.0000      -0.536602       -14.6017
  45   2.0000      -0.525247       -14.2927
  46   2.0000      -0.516031       -14.0419
  47   2.0000      -0.503636       -13.7046
  48   2.0000      -0.503006       -13.6875
  49   2.0000      -0.493927       -13.4404
  50   2.0000      -0.490503       -13.3473
  51   2.0000      -0.476598       -12.9689
  52   2.0000      -0.470967       -12.8157
  53   2.0000      -0.468287       -12.7427
  54   2.0000      -0.454386       -12.3645
  55   2.0000      -0.451132       -12.2759
  56   2.0000      -0.445399       -12.1199
  57   2.0000      -0.440777       -11.9941
  58   2.0000      -0.436938       -11.8897
  59   2.0000      -0.424981       -11.5643
  60   2.0000      -0.421415       -11.4673
  61   2.0000      -0.416900       -11.3444
  62   2.0000      -0.404635       -11.0107
  63   2.0000      -0.340638        -9.2692
  64   2.0000      -0.329834        -8.9752
  65   2.0000      -0.320823        -8.7300
  66   2.0000      -0.294099        -8.0028
  67   0.0000       0.029065         0.7909
  68   0.0000       0.059951         1.6314
  69   0.0000       0.118817         3.2332
  70   0.0000       0.124935         3.3997
  71   0.0000       0.128804         3.5049

MULLIKEN ATOMIC CHARGES
-----------------------
   0 S :    0.126251
   1 C :   -0.122289
   2 C :   -0.084851
   3 C :    0.062938
   4 C :   -0.207530
   5 H :   -0.028652
   6 C :    0.112834
   7 H :    0.021059
   8 H :    0.039363
   9 C :   -0.120032
  10 H :    0.032799
  11 H :    0.041167
  12 C :   -0.036954
  13 H :    0.018409
  14 H :    0.042441
  15 H :    0.037907
  16 S :    0.092521
  17 C :   -0.070175
  18 C :   -0.062544
  19 C :   -0.029150
  20 C :   -0.162865
  21 H :    0.029266
  22 C :    0.074782
  23 H :    0.023292
  24 H :    0.014645
  25 C :   -0.084534
  26 H :    0.051838
  27 H :    0.039784
  28 C :   -0.013896
  29 H :    0.022874
  30 H :    0.012883
  31 H :    0.041264
  32 H :    0.042865
  33 H :    0.042289
Sum of atomic charges:   -0.0000000

LOEWDIN ATOMIC CHARGES
----------------------
   0 S :    0.410399
   1 C :   -0.200593
   2 C :   -0.064996
   3 C :   -0.042459
   4 C :   -0.196367
   5 H :    0.015654
   6 C :   -0.024454
   7 H :    0.030049
   8 H :    0.034211
   9 C :   -0.045757
  10 H :    0.023688
  11 H :    0.027502
  12 C :   -0.061096
  13 H :    0.014145
  14 H :    0.029464
  15 H :    0.033324
  16 S :    0.360167
  17 C :   -0.165542
  18 C :   -0.080657
  19 C :   -0.046490
  20 C :   -0.191202
  21 H :    0.037379
  22 C :   -0.045344
  23 H :    0.036791
  24 H :    0.030774
  25 C :   -0.038610
  26 H :    0.039503
  27 H :    0.026348
  28 C :   -0.067550
  29 H :    0.025914
  30 H :    0.023159
  31 H :    0.029314
  32 H :    0.021051
  33 H :    0.022281

  Mayer bond orders larger than 0.100000
B(  0-S ,  1-C ) :   1.1710 B(  0-S ,  4-C ) :   1.1328 B(  1-C ,  2-C ) :   1.5964
B(  1-C , 32-H ) :   0.9559 B(  2-C ,  3-C ) :   1.2581 B(  2-C ,  6-C ) :   1.0107
B(  3-C ,  4-C ) :   1.5716 B(  3-C ,  5-H ) :   1.0018 B(  4-C , 20-C ) :   1.0627
B(  6-C ,  7-H ) :   0.9409 B(  6-C ,  8-H ) :   0.9294 B(  6-C ,  9-C ) :   1.0583
B(  9-C , 10-H ) :   0.9610 B(  9-C , 11-H ) :   0.9561 B(  9-C , 12-C ) :   1.0861
B( 12-C , 13-H ) :   0.9750 B( 12-C , 14-H ) :   0.9738 B( 12-C , 15-H ) :   0.9737
B( 16-S , 17-C ) :   1.1479 B( 16-S , 20-C ) :   1.1112 B( 17-C , 18-C ) :   1.6326
B( 17-C , 20-C ) :   0.1021 B( 17-C , 33-H ) :   0.9621 B( 18-C , 19-C ) :   1.2388
B( 18-C , 21-H ) :   0.9821 B( 19-C , 20-C ) :   1.5925 B( 19-C , 22-C ) :   1.0365
B( 22-C , 23-H ) :   0.9185 B( 22-C , 24-H ) :   0.9224 B( 22-C , 25-C ) :   1.0593
B( 25-C , 26-H ) :   0.9543 B( 25-C , 27-H ) :   0.9459 B( 25-C , 28-C ) :   1.1016
B( 28-C , 29-H ) :   0.9681 B( 28-C , 30-H ) :   0.9658 B( 28-C , 31-H ) :   0.9725

Dispersion correction           -0.013538978
FINAL SINGLE POINT ENERGY     -1339.858458935840

DIPOLE MOMENT
-------------
                                X             Y             Z
Electronic contribution:      8.02195      -7.64122      23.83228
Nuclear contribution   :     -8.26839       7.88333     -24.38694
                        -----------------------------------------
Total Dipole Moment    :     -0.24644       0.24212      -0.55466
                        -----------------------------------------
Magnitude (a.u.)       :      0.65345
Magnitude (Debye)      :      1.66094

Rotational constants in cm-1:     0.016023     0.007765     0.006761
Rotational constants in MHz :   480.371929   232.787157   202.700226

                             ****ORCA TERMINATED NORMALLY****
TOTAL RUN TIME: 0 days 0 hours 0 minutes 20 seconds 904 msec
