                         Program Version 4.2.1 -  RELEASE  -
|  1> ! wB97X-D3 SP def2-SVP
|  2> %pal
|  3> nprocs 24
|  4> end
|  5>
|  6> * xyz 0 1
|  7> S 	 -144.063 	 7.66865 	 -4.41603
|  8> C 	 -143.409 	 9.21398 	 -3.96405
|  9> C 	 -142.358 	 9.11779 	 -3.02782
| 10> C 	 -141.888 	 7.78482 	 -2.94834
| 11> C 	 -142.713 	 6.8688 	 -3.59711
| 12> H 	 -141.115 	 7.37283 	 -2.30454
| 13> C 	 -141.744 	 10.175 	 -2.21001
| 14> H 	 -142.292 	 11.1565 	 -2.4043
| 15> H 	 -140.742 	 10.3551 	 -2.54181
| 16> C 	 -141.882 	 9.94984 	 -0.700176
| 17> H 	 -143.032 	 9.87877 	 -0.545573
| 18> H 	 -141.54 	 8.92494 	 -0.586344
| 19> C 	 -141.231 	 10.9674 	 0.232289
| 20> H 	 -140.208 	 11.0848 	 0.00387992
| 21> H 	 -141.685 	 11.9703 	 0.132066
| 22> H 	 -141.27 	 10.6355 	 1.22753
| 23> S 	 -144.154 	 4.57518 	 -3.77949
| 24> C 	 -143.311 	 3.04538 	 -3.84603
| 25> C 	 -141.946 	 3.18439 	 -3.92348
| 26> C 	 -141.477 	 4.52471 	 -3.76363
| 27> C 	 -142.599 	 5.37424 	 -3.7101
| 28> H 	 -141.278 	 2.3154 	 -3.85619
| 29> C 	 -140.013 	 4.88976 	 -3.80744
| 30> H 	 -139.481 	 4.07381 	 -3.37745
| 31> H 	 -139.811 	 5.62438 	 -3.04138
| 32> C 	 -139.365 	 5.32821 	 -5.15795
| 33> H 	 -139.53 	 4.55471 	 -5.86773
| 34> H 	 -138.26 	 5.40207 	 -5.14791
| 35> C 	 -139.834 	 6.76053 	 -5.65814
| 36> H 	 -140.923 	 6.99394 	 -5.65719
| 37> H 	 -139.501 	 7.01666 	 -6.65911
| 38> H 	 -139.388 	 7.51908 	 -5.00435
| 39> H 	 -143.797 	 10.158 	 -4.13956
| 40> H 	 -143.721 	 2.10077 	 -4.04303
| 41> *
| 42>
| 43>                          ****END OF INPUT****

CARTESIAN COORDINATES (ANGSTROEM)
---------------------------------
  S    -144.063000    7.668650   -4.416030
  C    -143.409000    9.213980   -3.964050
  C    -142.358000    9.117790   -3.027820
  C    -141.888000    7.784820   -2.948340
  C    -142.713000    6.868800   -3.597110
  H    -141.115000    7.372830   -2.304540
  C    -141.744000   10.175000   -2.210010
  H    -142.292000   11.156500   -2.404300
  H    -140.742000   10.355100   -2.541810
  C    -141.882000    9.949840   -0.700176
  H    -143.032000    9.878770   -0.545573
  H    -141.540000    8.924940   -0.586344
  C    -141.231000   10.967400    0.232289
  H    -140.208000   11.084800    0.003880
  H    -141.685000   11.970300    0.132066
  H    -141.270000   10.635500    1.227530
  S    -144.154000    4.575180   -3.779490
  C    -143.311000    3.045380   -3.846030
  C    -141.946000    3.184390   -3.923480
  C    -141.477000    4.524710   -3.763630
  C    -142.599000    5.374240   -3.710100
  H    -141.278000    2.315400   -3.856190
  C    -140.013000    4.889760   -3.807440
  H    -139.481000    4.073810   -3.377450
  H    -139.811000    5.624380   -3.041380
  C    -139.365000    5.328210   -5.157950
  H    -139.530000    4.554710   -5.867730
  H    -138.260000    5.402070   -5.147910
  C    -139.834000    6.760530   -5.658140
  H    -140.923000    6.993940   -5.657190
  H    -139.501000    7.016660   -6.659110
  H    -139.388000    7.519080   -5.004350
  H    -143.797000   10.158000   -4.139560
  H    -143.721000    2.100770   -4.043030

 Total Charge           Charge          ....    0
 Multiplicity           Mult            ....    1
 Number of Electrons    NEL             ....  134
 Basis Dimension        Dim             ....  322

ORBITAL ENERGIES
----------------

  NO   OCC          E(Eh)            E(eV)
   0   2.0000     -88.971305     -2421.0323
   1   2.0000     -88.971151     -2421.0281
   2   2.0000     -10.333376      -281.1854
   3   2.0000     -10.333147      -281.1792
   4   2.0000     -10.310850      -280.5725
   5   2.0000     -10.309272      -280.5296
   6   2.0000     -10.306330      -280.4495
   7   2.0000     -10.300253      -280.2841
   8   2.0000     -10.293684      -280.1054
   9   2.0000     -10.293285      -280.0945
  10   2.0000     -10.292674      -280.0779
  11   2.0000     -10.292493      -280.0730
  12   2.0000     -10.292366      -280.0695
  13   2.0000     -10.290639      -280.0225
  14   2.0000     -10.276198      -279.6296
  15   2.0000     -10.274485      -279.5830
  16   2.0000      -8.085845      -220.0270
  17   2.0000      -8.085367      -220.0140
  18   2.0000      -6.044333      -164.4747
  19   2.0000      -6.043907      -164.4631
  20   2.0000      -6.040520      -164.3709
  21   2.0000      -6.040020      -164.3573
  22   2.0000      -6.036474      -164.2608
  23   2.0000      -6.036097      -164.2506
  24   2.0000      -1.005513       -27.3614
  25   2.0000      -0.983865       -26.7723
  26   2.0000      -0.915210       -24.9041
  27   2.0000      -0.902883       -24.5687
  28   2.0000      -0.865486       -23.5511
  29   2.0000      -0.851056       -23.1584
  30   2.0000      -0.845093       -22.9961
  31   2.0000      -0.815372       -22.1874
  32   2.0000      -0.785118       -21.3641
  33   2.0000      -0.774265       -21.0688
  34   2.0000      -0.709635       -19.3101
  35   2.0000      -0.700281       -19.0556
  36   2.0000      -0.694172       -18.8894
  37   2.0000      -0.661284       -17.9945
  38   2.0000      -0.640854       -17.4385
  39   2.0000      -0.622457       -16.9379
  40   2.0000      -0.596712       -16.2374
  41   2.0000      -0.566570       -15.4172
  42   2.0000      -0.557754       -15.1773
  43   2.0000      -0.544103       -14.8058
  44   2.0000      -0.538996       -14.6668
  45   2.0000      -0.523920       -14.2566
  46   2.0000      -0.518584       -14.1114
  47   2.0000      -0.505298       -13.7498
  48   2.0000      -0.501142       -13.6368
  49   2.0000      -0.496231       -13.5031
  50   2.0000      -0.490164       -13.3380
  51   2.0000      -0.479598       -13.0505
  52   2.0000      -0.469610       -12.7787
  53   2.0000      -0.464844       -12.6490
  54   2.0000      -0.459438       -12.5019
  55   2.0000      -0.452828       -12.3221
  56   2.0000      -0.448198       -12.1961
  57   2.0000      -0.436951       -11.8901
  58   2.0000      -0.434541       -11.8245
  59   2.0000      -0.427086       -11.6216
  60   2.0000      -0.420376       -11.4390
  61   2.0000      -0.419104       -11.4044
  62   2.0000      -0.408509       -11.1161
  63   2.0000      -0.351501        -9.5648
  64   2.0000      -0.338864        -9.2210
  65   2.0000      -0.330765        -9.0006
  66   2.0000      -0.281125        -7.6498
  67   0.0000       0.023312         0.6344
  68   0.0000       0.067911         1.8480
  69   0.0000       0.099098         2.6966
  70   0.0000       0.117293         3.1917
  71   0.0000       0.137881         3.7519

MULLIKEN ATOMIC CHARGES
-----------------------
   0 S :    0.110811
   1 C :   -0.063972
   2 C :   -0.106730
   3 C :    0.000150
   4 C :   -0.143892
   5 H :    0.022766
   6 C :    0.067448
   7 H :    0.013680
   8 H :    0.028140
   9 C :   -0.128991
  10 H :    0.041552
  11 H :    0.021790
  12 C :    0.021794
  13 H :    0.015357
  14 H :    0.035315
  15 H :    0.030364
  16 S :    0.106792
  17 C :   -0.055065
  18 C :   -0.050124
  19 C :   -0.066570
  20 C :   -0.137932
  21 H :    0.026249
  22 C :    0.101560
  23 H :    0.004839
  24 H :    0.005246
  25 C :   -0.034276
  26 H :    0.020596
  27 H :    0.032533
  28 C :   -0.072632
  29 H :    0.055700
  30 H :    0.026479
  31 H :    0.024071
  32 H :    0.010841
  33 H :    0.036110
Sum of atomic charges:    0.0000000

LOEWDIN ATOMIC CHARGES
----------------------
   0 S :    0.402324
   1 C :   -0.196347
   2 C :   -0.056829
   3 C :   -0.068416
   4 C :   -0.182019
   5 H :    0.030794
   6 C :   -0.039603
   7 H :    0.031302
   8 H :    0.025816
   9 C :   -0.044103
  10 H :    0.036189
  11 H :    0.018089
  12 C :   -0.057383
  13 H :    0.020794
  14 H :    0.032029
  15 H :    0.025008
  16 S :    0.408536
  17 C :   -0.186084
  18 C :   -0.065941
  19 C :   -0.060505
  20 C :   -0.186094
  21 H :    0.034577
  22 C :   -0.032798
  23 H :    0.029355
  24 H :    0.027345
  25 C :   -0.030696
  26 H :    0.017701
  27 H :    0.030346
  28 C :   -0.072929
  29 H :    0.031868
  30 H :    0.022728
  31 H :    0.023161
  32 H :    0.011979
  33 H :    0.019807

  Mayer bond orders larger than 0.100000
B(  0-S ,  1-C ) :   1.1354 B(  0-S ,  4-C ) :   1.1462 B(  1-C ,  2-C ) :   1.6051
B(  1-C ,  4-C ) :   0.1053 B(  1-C , 32-H ) :   0.9678 B(  2-C ,  3-C ) :   1.2339
B(  2-C ,  6-C ) :   1.0449 B(  3-C ,  4-C ) :   1.5915 B(  3-C ,  5-H ) :   0.9825
B(  4-C , 20-C ) :   1.0238 B(  6-C ,  7-H ) :   0.9352 B(  6-C ,  8-H ) :   0.9324
B(  6-C ,  9-C ) :   1.0495 B(  9-C , 10-H ) :   0.9527 B(  9-C , 11-H ) :   0.9594
B(  9-C , 12-C ) :   1.0804 B( 12-C , 13-H ) :   0.9702 B( 12-C , 14-H ) :   0.9722
B( 12-C , 15-H ) :   0.9717 B( 16-S , 17-C ) :   1.1344 B( 16-S , 20-C ) :   1.1561
B( 17-C , 18-C ) :   1.6392 B( 17-C , 33-H ) :   0.9669 B( 18-C , 19-C ) :   1.2489
B( 18-C , 21-H ) :   0.9756 B( 19-C , 20-C ) :   1.5830 B( 19-C , 22-C ) :   1.0466
B( 22-C , 23-H ) :   0.9179 B( 22-C , 24-H ) :   0.9302 B( 22-C , 25-C ) :   1.0638
B( 25-C , 26-H ) :   0.9585 B( 25-C , 27-H ) :   0.9552 B( 25-C , 28-C ) :   1.0658
B( 28-C , 29-H ) :   0.9782 B( 28-C , 30-H ) :   0.9745 B( 28-C , 31-H ) :   0.9744

Dispersion correction           -0.015238376
FINAL SINGLE POINT ENERGY     -1339.871896462060

DIPOLE MOMENT
-------------
                                X             Y             Z
Electronic contribution:    -21.24098     -14.09119      -7.96696
Nuclear contribution   :     21.83214      14.18715       8.25173
                        -----------------------------------------
Total Dipole Moment    :      0.59116       0.09597       0.28477
                        -----------------------------------------
Magnitude (a.u.)       :      0.66315
Magnitude (Debye)      :      1.68560

Rotational constants in cm-1:     0.019437     0.008576     0.007455
Rotational constants in MHz :   582.693053   257.106786   223.498817

                             ****ORCA TERMINATED NORMALLY****
TOTAL RUN TIME: 0 days 0 hours 0 minutes 21 seconds 152 msec
