                         Program Version 4.2.1 -  RELEASE  -
|  1> ! wB97X-D3 SP def2-SVP
|  2> %pal
|  3> nprocs 24
|  4> end
|  5>
|  6> * xyz 0 1
|  7> S 	 -81.3883 	 -42.1359 	 -74.7945
|  8> C 	 -81.6606 	 -43.1937 	 -76.0928
|  9> C 	 -82.9112 	 -43.1404 	 -76.641
| 10> C 	 -83.7452 	 -42.1863 	 -75.9039
| 11> C 	 -83.0422 	 -41.4526 	 -74.9305
| 12> H 	 -84.786 	 -41.9766 	 -76.1183
| 13> C 	 -83.3734 	 -44.0213 	 -77.7991
| 14> H 	 -83.2055 	 -45.0561 	 -77.6337
| 15> H 	 -82.6645 	 -43.7752 	 -78.5805
| 16> C 	 -84.8228 	 -43.7503 	 -78.3988
| 17> H 	 -84.9588 	 -44.5871 	 -79.0944
| 18> H 	 -85.5238 	 -43.848 	 -77.5771
| 19> C 	 -84.8184 	 -42.4349 	 -79.2239
| 20> H 	 -85.7843 	 -42.0105 	 -79.3166
| 21> H 	 -84.2385 	 -41.6625 	 -78.7275
| 22> H 	 -84.3241 	 -42.5535 	 -80.1785
| 23> S 	 -84.5833 	 -39.2038 	 -75.0717
| 24> C 	 -84.9875 	 -38.4012 	 -73.6196
| 25> C 	 -84.2948 	 -38.8365 	 -72.5269
| 26> C 	 -83.4668 	 -39.9648 	 -72.8404
| 27> C 	 -83.5271 	 -40.3069 	 -74.1713
| 28> H 	 -84.297 	 -38.1515 	 -71.62
| 29> C 	 -82.4377 	 -40.5254 	 -71.9143
| 30> H 	 -82.1674 	 -41.5184 	 -72.2472
| 31> H 	 -83.0326 	 -40.7543 	 -71.0357
| 32> C 	 -81.3139 	 -39.6223 	 -71.4208
| 33> H 	 -80.8528 	 -40.1212 	 -70.5578
| 34> H 	 -81.6528 	 -38.697 	 -70.9492
| 35> C 	 -80.3643 	 -39.195 	 -72.5081
| 36> H 	 -80.9099 	 -38.7102 	 -73.3375
| 37> H 	 -79.7922 	 -40.0743 	 -72.813
| 38> H 	 -79.5936 	 -38.4387 	 -72.2538
| 39> H 	 -80.9382 	 -43.8759 	 -76.4175
| 40> H 	 -85.6518 	 -37.5511 	 -73.5151
| 41> *
| 42>
| 43>                          ****END OF INPUT****

CARTESIAN COORDINATES (ANGSTROEM)
---------------------------------
  S    -81.388300  -42.135900  -74.794500
  C    -81.660600  -43.193700  -76.092800
  C    -82.911200  -43.140400  -76.641000
  C    -83.745200  -42.186300  -75.903900
  C    -83.042200  -41.452600  -74.930500
  H    -84.786000  -41.976600  -76.118300
  C    -83.373400  -44.021300  -77.799100
  H    -83.205500  -45.056100  -77.633700
  H    -82.664500  -43.775200  -78.580500
  C    -84.822800  -43.750300  -78.398800
  H    -84.958800  -44.587100  -79.094400
  H    -85.523800  -43.848000  -77.577100
  C    -84.818400  -42.434900  -79.223900
  H    -85.784300  -42.010500  -79.316600
  H    -84.238500  -41.662500  -78.727500
  H    -84.324100  -42.553500  -80.178500
  S    -84.583300  -39.203800  -75.071700
  C    -84.987500  -38.401200  -73.619600
  C    -84.294800  -38.836500  -72.526900
  C    -83.466800  -39.964800  -72.840400
  C    -83.527100  -40.306900  -74.171300
  H    -84.297000  -38.151500  -71.620000
  C    -82.437700  -40.525400  -71.914300
  H    -82.167400  -41.518400  -72.247200
  H    -83.032600  -40.754300  -71.035700
  C    -81.313900  -39.622300  -71.420800
  H    -80.852800  -40.121200  -70.557800
  H    -81.652800  -38.697000  -70.949200
  C    -80.364300  -39.195000  -72.508100
  H    -80.909900  -38.710200  -73.337500
  H    -79.792200  -40.074300  -72.813000
  H    -79.593600  -38.438700  -72.253800
  H    -80.938200  -43.875900  -76.417500
  H    -85.651800  -37.551100  -73.515100

 Total Charge           Charge          ....    0
 Multiplicity           Mult            ....    1
 Number of Electrons    NEL             ....  134
 Basis Dimension        Dim             ....  322

ORBITAL ENERGIES
----------------

  NO   OCC          E(Eh)            E(eV)
   0   2.0000     -88.965689     -2420.8795
   1   2.0000     -88.965413     -2420.8720
   2   2.0000     -10.333608      -281.1918
   3   2.0000     -10.325075      -280.9596
   4   2.0000     -10.312523      -280.6180
   5   2.0000     -10.302866      -280.3552
   6   2.0000     -10.301395      -280.3152
   7   2.0000     -10.300361      -280.2871
   8   2.0000     -10.298913      -280.2477
   9   2.0000     -10.295517      -280.1553
  10   2.0000     -10.293677      -280.1052
  11   2.0000     -10.290658      -280.0231
  12   2.0000     -10.285226      -279.8752
  13   2.0000     -10.284992      -279.8689
  14   2.0000     -10.274283      -279.5775
  15   2.0000     -10.271880      -279.5121
  16   2.0000      -8.080831      -219.8906
  17   2.0000      -8.079875      -219.8646
  18   2.0000      -6.039287      -164.3373
  19   2.0000      -6.038344      -164.3117
  20   2.0000      -6.035318      -164.2294
  21   2.0000      -6.034419      -164.2049
  22   2.0000      -6.031588      -164.1279
  23   2.0000      -6.030703      -164.1038
  24   2.0000      -1.006616       -27.3914
  25   2.0000      -0.984703       -26.7951
  26   2.0000      -0.912855       -24.8400
  27   2.0000      -0.904181       -24.6040
  28   2.0000      -0.871690       -23.7199
  29   2.0000      -0.851126       -23.1603
  30   2.0000      -0.841217       -22.8907
  31   2.0000      -0.814142       -22.1539
  32   2.0000      -0.785114       -21.3640
  33   2.0000      -0.772527       -21.0215
  34   2.0000      -0.712550       -19.3895
  35   2.0000      -0.701648       -19.0928
  36   2.0000      -0.688909       -18.7462
  37   2.0000      -0.659977       -17.9589
  38   2.0000      -0.635831       -17.3018
  39   2.0000      -0.616650       -16.7799
  40   2.0000      -0.595646       -16.2084
  41   2.0000      -0.567761       -15.4496
  42   2.0000      -0.552791       -15.0422
  43   2.0000      -0.551694       -15.0124
  44   2.0000      -0.540955       -14.7201
  45   2.0000      -0.531204       -14.4548
  46   2.0000      -0.519912       -14.1475
  47   2.0000      -0.511242       -13.9116
  48   2.0000      -0.502028       -13.6609
  49   2.0000      -0.491555       -13.3759
  50   2.0000      -0.487354       -13.2616
  51   2.0000      -0.482949       -13.1417
  52   2.0000      -0.469995       -12.7892
  53   2.0000      -0.464443       -12.6381
  54   2.0000      -0.460455       -12.5296
  55   2.0000      -0.449078       -12.2200
  56   2.0000      -0.442233       -12.0338
  57   2.0000      -0.441172       -12.0049
  58   2.0000      -0.433164       -11.7870
  59   2.0000      -0.426384       -11.6025
  60   2.0000      -0.419099       -11.4043
  61   2.0000      -0.413433       -11.2501
  62   2.0000      -0.406508       -11.0616
  63   2.0000      -0.350880        -9.5479
  64   2.0000      -0.331117        -9.0101
  65   2.0000      -0.326018        -8.8714
  66   2.0000      -0.286729        -7.8023
  67   0.0000       0.028835         0.7846
  68   0.0000       0.077826         2.1178
  69   0.0000       0.106067         2.8862
  70   0.0000       0.115815         3.1515
  71   0.0000       0.132901         3.6164

MULLIKEN ATOMIC CHARGES
-----------------------
   0 S :    0.107301
   1 C :   -0.096577
   2 C :   -0.079408
   3 C :    0.002639
   4 C :   -0.145493
   5 H :    0.018885
   6 C :    0.033984
   7 H :    0.030647
   8 H :    0.025253
   9 C :   -0.072045
  10 H :    0.034732
  11 H :    0.041667
  12 C :   -0.037879
  13 H :    0.030668
  14 H :    0.030331
  15 H :    0.033481
  16 S :    0.111915
  17 C :   -0.088184
  18 C :   -0.067319
  19 C :   -0.055862
  20 C :   -0.142494
  21 H :    0.047471
  22 C :    0.075278
  23 H :    0.016493
  24 H :    0.017128
  25 C :   -0.034203
  26 H :    0.028348
  27 H :    0.015829
  28 C :   -0.067059
  29 H :    0.048153
  30 H :    0.031143
  31 H :    0.031218
  32 H :    0.022508
  33 H :    0.051451
Sum of atomic charges:   -0.0000000

LOEWDIN ATOMIC CHARGES
----------------------
   0 S :    0.417042
   1 C :   -0.204150
   2 C :   -0.062724
   3 C :   -0.065886
   4 C :   -0.183364
   5 H :    0.025936
   6 C :   -0.032740
   7 H :    0.025655
   8 H :    0.033238
   9 C :   -0.034988
  10 H :    0.029187
  11 H :    0.022139
  12 C :   -0.064211
  13 H :    0.022414
  14 H :    0.025949
  15 H :    0.028381
  16 S :    0.416825
  17 C :   -0.194389
  18 C :   -0.084628
  19 C :   -0.056985
  20 C :   -0.190899
  21 H :    0.045926
  22 C :   -0.037489
  23 H :    0.020342
  24 H :    0.036492
  25 C :   -0.041052
  26 H :    0.028229
  27 H :    0.022859
  28 C :   -0.075188
  29 H :    0.031850
  30 H :    0.022261
  31 H :    0.027540
  32 H :    0.016726
  33 H :    0.029701

  Mayer bond orders larger than 0.100000
B(  0-S ,  1-C ) :   1.1484 B(  0-S ,  4-C ) :   1.1346 B(  1-C ,  2-C ) :   1.6280
B(  1-C , 32-H ) :   0.9745 B(  2-C ,  3-C ) :   1.2393 B(  2-C ,  6-C ) :   0.9947
B(  3-C ,  4-C ) :   1.5683 B(  3-C ,  5-H ) :   0.9838 B(  4-C , 20-C ) :   1.0587
B(  6-C ,  7-H ) :   0.9452 B(  6-C ,  8-H ) :   0.9389 B(  6-C ,  9-C ) :   1.0781
B(  9-C , 10-H ) :   0.9570 B(  9-C , 11-H ) :   0.9593 B(  9-C , 12-C ) :   1.0629
B( 12-C , 13-H ) :   0.9758 B( 12-C , 14-H ) :   0.9806 B( 12-C , 15-H ) :   0.9720
B( 16-S , 17-C ) :   1.1636 B( 16-S , 20-C ) :   1.1223 B( 17-C , 18-C ) :   1.6364
B( 17-C , 33-H ) :   0.9606 B( 18-C , 19-C ) :   1.2198 B( 18-C , 21-H ) :   0.9766
B( 19-C , 20-C ) :   1.5915 B( 19-C , 22-C ) :   1.0563 B( 22-C , 23-H ) :   0.9298
B( 22-C , 24-H ) :   0.9104 B( 22-C , 25-C ) :   1.0718 B( 25-C , 26-H ) :   0.9511
B( 25-C , 27-H ) :   0.9507 B( 25-C , 28-C ) :   1.0746 B( 28-C , 29-H ) :   0.9737
B( 28-C , 30-H ) :   0.9739 B( 28-C , 31-H ) :   0.9728

Dispersion correction           -0.015254243
FINAL SINGLE POINT ENERGY     -1339.881523627720

DIPOLE MOMENT
-------------
                                X             Y             Z
Electronic contribution:     -1.89571       3.59946       3.60965
Nuclear contribution   :      1.84524      -3.66205      -3.63121
                        -----------------------------------------
Total Dipole Moment    :     -0.05046      -0.06258      -0.02155
                        -----------------------------------------
Magnitude (a.u.)       :      0.08323
Magnitude (Debye)      :      0.21156

Rotational constants in cm-1:     0.022647     0.008869     0.006833
Rotational constants in MHz :   678.931003   265.896464   204.861273

                             ****ORCA TERMINATED NORMALLY****
TOTAL RUN TIME: 0 days 0 hours 0 minutes 22 seconds 857 msec
