                         Program Version 4.2.1 -  RELEASE  -
|  1> ! wB97X-D3 SP def2-SVP
|  2> %pal
|  3> nprocs 24
|  4> end
|  5>
|  6> * xyz 0 1
|  7> S 	 -42.1673 	 13.2762 	 26.8206
|  8> C 	 -43.564 	 12.245 	 26.9199
|  9> C 	 -44.6201 	 12.9475 	 27.4444
| 10> C 	 -44.2488 	 14.216 	 27.9888
| 11> C 	 -42.9769 	 14.5936 	 27.7029
| 12> H 	 -44.8442 	 14.8376 	 28.59
| 13> C 	 -46.0301 	 12.3398 	 27.6767
| 14> H 	 -46.5179 	 12.7757 	 28.5438
| 15> H 	 -45.8274 	 11.3619 	 28.0719
| 16> C 	 -46.9761 	 12.1795 	 26.4439
| 17> H 	 -47.0273 	 13.0829 	 25.96
| 18> H 	 -46.5788 	 11.3863 	 25.7321
| 19> C 	 -48.4394 	 11.824 	 26.7802
| 20> H 	 -49.1181 	 12.0304 	 25.9466
| 21> H 	 -48.4401 	 10.8535 	 27.2276
| 22> H 	 -48.8969 	 12.3572 	 27.5967
| 23> S 	 -40.3976 	 15.5304 	 27.7968
| 24> C 	 -40.0286 	 17.2006 	 28.248
| 25> C 	 -41.2289 	 17.7842 	 28.5991
| 26> C 	 -42.4181 	 17.0965 	 28.2294
| 27> C 	 -42.1784 	 15.7728 	 27.9751
| 28> H 	 -41.2094 	 18.8871 	 28.8944
| 29> C 	 -43.7981 	 17.833 	 28.4485
| 30> H 	 -43.8478 	 18.1 	 29.4731
| 31> H 	 -44.7224 	 17.2681 	 28.3334
| 32> C 	 -44.0587 	 19.0607 	 27.6548
| 33> H 	 -43.2219 	 19.72 	 27.6528
| 34> H 	 -45.0108 	 19.5622 	 27.9522
| 35> C 	 -44.2021 	 18.646 	 26.2049
| 36> H 	 -43.4345 	 17.9276 	 25.9882
| 37> H 	 -43.877 	 19.4822 	 25.5605
| 38> H 	 -45.1836 	 18.2564 	 26.002
| 39> H 	 -43.6966 	 11.2827 	 26.4794
| 40> H 	 -38.9781 	 17.5165 	 28.4185
| 41> *
| 42>
| 43>                          ****END OF INPUT****

CARTESIAN COORDINATES (ANGSTROEM)
---------------------------------
  S    -42.167300   13.276200   26.820600
  C    -43.564000   12.245000   26.919900
  C    -44.620100   12.947500   27.444400
  C    -44.248800   14.216000   27.988800
  C    -42.976900   14.593600   27.702900
  H    -44.844200   14.837600   28.590000
  C    -46.030100   12.339800   27.676700
  H    -46.517900   12.775700   28.543800
  H    -45.827400   11.361900   28.071900
  C    -46.976100   12.179500   26.443900
  H    -47.027300   13.082900   25.960000
  H    -46.578800   11.386300   25.732100
  C    -48.439400   11.824000   26.780200
  H    -49.118100   12.030400   25.946600
  H    -48.440100   10.853500   27.227600
  H    -48.896900   12.357200   27.596700
  S    -40.397600   15.530400   27.796800
  C    -40.028600   17.200600   28.248000
  C    -41.228900   17.784200   28.599100
  C    -42.418100   17.096500   28.229400
  C    -42.178400   15.772800   27.975100
  H    -41.209400   18.887100   28.894400
  C    -43.798100   17.833000   28.448500
  H    -43.847800   18.100000   29.473100
  H    -44.722400   17.268100   28.333400
  C    -44.058700   19.060700   27.654800
  H    -43.221900   19.720000   27.652800
  H    -45.010800   19.562200   27.952200
  C    -44.202100   18.646000   26.204900
  H    -43.434500   17.927600   25.988200
  H    -43.877000   19.482200   25.560500
  H    -45.183600   18.256400   26.002000
  H    -43.696600   11.282700   26.479400
  H    -38.978100   17.516500   28.418500

 Total Charge           Charge          ....    0
 Multiplicity           Mult            ....    1
 Number of Electrons    NEL             ....  134
 Basis Dimension        Dim             ....  322

ORBITAL ENERGIES
----------------

  NO   OCC          E(Eh)            E(eV)
   0   2.0000     -88.963290     -2420.8142
   1   2.0000     -88.961869     -2420.7755
   2   2.0000     -10.336409      -281.2680
   3   2.0000     -10.331880      -281.1448
   4   2.0000     -10.326722      -281.0044
   5   2.0000     -10.312828      -280.6263
   6   2.0000     -10.311733      -280.5965
   7   2.0000     -10.303069      -280.3608
   8   2.0000     -10.302642      -280.3491
   9   2.0000     -10.292755      -280.0801
  10   2.0000     -10.291810      -280.0544
  11   2.0000     -10.291311      -280.0408
  12   2.0000     -10.288180      -279.9556
  13   2.0000     -10.280013      -279.7334
  14   2.0000     -10.275769      -279.6179
  15   2.0000     -10.265372      -279.3350
  16   2.0000      -8.077992      -219.8133
  17   2.0000      -8.076118      -219.7623
  18   2.0000      -6.036654      -164.2657
  19   2.0000      -6.034817      -164.2157
  20   2.0000      -6.032504      -164.1528
  21   2.0000      -6.030724      -164.1043
  22   2.0000      -6.028553      -164.0453
  23   2.0000      -6.026627      -163.9928
  24   2.0000      -1.008747       -27.4494
  25   2.0000      -0.984875       -26.7998
  26   2.0000      -0.919462       -25.0198
  27   2.0000      -0.905351       -24.6358
  28   2.0000      -0.872861       -23.7518
  29   2.0000      -0.853662       -23.2293
  30   2.0000      -0.841308       -22.8932
  31   2.0000      -0.818442       -22.2709
  32   2.0000      -0.784409       -21.3448
  33   2.0000      -0.774783       -21.0829
  34   2.0000      -0.707717       -19.2580
  35   2.0000      -0.706539       -19.2259
  36   2.0000      -0.690576       -18.7915
  37   2.0000      -0.661321       -17.9954
  38   2.0000      -0.644416       -17.5355
  39   2.0000      -0.623481       -16.9658
  40   2.0000      -0.609352       -16.5813
  41   2.0000      -0.561051       -15.2670
  42   2.0000      -0.558809       -15.2060
  43   2.0000      -0.557820       -15.1791
  44   2.0000      -0.551679       -15.0119
  45   2.0000      -0.529218       -14.4008
  46   2.0000      -0.522747       -14.2247
  47   2.0000      -0.513431       -13.9712
  48   2.0000      -0.506295       -13.7770
  49   2.0000      -0.499486       -13.5917
  50   2.0000      -0.495198       -13.4750
  51   2.0000      -0.478586       -13.0230
  52   2.0000      -0.472386       -12.8543
  53   2.0000      -0.465956       -12.6793
  54   2.0000      -0.455562       -12.3965
  55   2.0000      -0.445581       -12.1249
  56   2.0000      -0.441115       -12.0034
  57   2.0000      -0.437520       -11.9055
  58   2.0000      -0.425989       -11.5918
  59   2.0000      -0.423938       -11.5359
  60   2.0000      -0.419046       -11.4028
  61   2.0000      -0.413558       -11.2535
  62   2.0000      -0.403996       -10.9933
  63   2.0000      -0.365324        -9.9410
  64   2.0000      -0.335639        -9.1332
  65   2.0000      -0.327857        -8.9214
  66   2.0000      -0.286994        -7.8095
  67   0.0000       0.015862         0.4316
  68   0.0000       0.081363         2.2140
  69   0.0000       0.091767         2.4971
  70   0.0000       0.116621         3.1734
  71   0.0000       0.135808         3.6955

MULLIKEN ATOMIC CHARGES
-----------------------
   0 S :    0.086915
   1 C :   -0.086443
   2 C :   -0.088552
   3 C :    0.016944
   4 C :   -0.092963
   5 H :   -0.010916
   6 C :    0.044774
   7 H :    0.014452
   8 H :    0.018522
   9 C :   -0.046864
  10 H :    0.016171
  11 H :    0.042455
  12 C :   -0.045563
  13 H :    0.046203
  14 H :    0.020719
  15 H :    0.011983
  16 S :    0.059761
  17 C :   -0.096991
  18 C :   -0.054667
  19 C :   -0.065651
  20 C :   -0.099165
  21 H :    0.050700
  22 C :    0.073901
  23 H :    0.023254
  24 H :    0.012277
  25 C :   -0.073688
  26 H :    0.014317
  27 H :    0.039315
  28 C :   -0.049165
  29 H :    0.031538
  30 H :    0.027019
  31 H :    0.030725
  32 H :    0.042932
  33 H :    0.085751
Sum of atomic charges:   -0.0000000

LOEWDIN ATOMIC CHARGES
----------------------
   0 S :    0.391442
   1 C :   -0.190913
   2 C :   -0.060758
   3 C :   -0.060153
   4 C :   -0.170525
   5 H :    0.022661
   6 C :   -0.034121
   7 H :    0.027752
   8 H :    0.028190
   9 C :   -0.033642
  10 H :    0.011516
  11 H :    0.033049
  12 C :   -0.070100
  13 H :    0.032515
  14 H :    0.022683
  15 H :    0.021569
  16 S :    0.363902
  17 C :   -0.179222
  18 C :   -0.080683
  19 C :   -0.060670
  20 C :   -0.167587
  21 H :    0.041138
  22 C :   -0.029086
  23 H :    0.027124
  24 H :    0.028602
  25 C :   -0.042994
  26 H :    0.015700
  27 H :    0.032095
  28 C :   -0.063164
  29 H :    0.024949
  30 H :    0.028074
  31 H :    0.020751
  32 H :    0.027774
  33 H :    0.042130

  Mayer bond orders larger than 0.100000
B(  0-S ,  1-C ) :   1.1316 B(  0-S ,  4-C ) :   1.1268 B(  1-C ,  2-C ) :   1.6327
B(  1-C , 32-H ) :   0.9695 B(  2-C ,  3-C ) :   1.2195 B(  2-C ,  6-C ) :   1.0123
B(  3-C ,  4-C ) :   1.6018 B(  3-C ,  5-H ) :   1.0057 B(  4-C , 20-C ) :   1.0734
B(  6-C ,  7-H ) :   0.9506 B(  6-C ,  8-H ) :   0.9426 B(  6-C ,  9-C ) :   1.0498
B(  9-C , 10-H ) :   0.9618 B(  9-C , 11-H ) :   0.9563 B(  9-C , 12-C ) :   1.0818
B( 12-C , 13-H ) :   0.9753 B( 12-C , 14-H ) :   0.9744 B( 12-C , 15-H ) :   0.9721
B( 16-S , 17-C ) :   1.1366 B( 16-S , 20-C ) :   1.1223 B( 17-C , 18-C ) :   1.6224
B( 17-C , 20-C ) :   0.1017 B( 17-C , 33-H ) :   0.9655 B( 18-C , 19-C ) :   1.2208
B( 18-C , 21-H ) :   0.9681 B( 19-C , 20-C ) :   1.6161 B( 19-C , 22-C ) :   1.0162
B( 22-C , 23-H ) :   0.9364 B( 22-C , 24-H ) :   0.9450 B( 22-C , 25-C ) :   1.0826
B( 25-C , 26-H ) :   0.9566 B( 25-C , 27-H ) :   0.9536 B( 25-C , 28-C ) :   1.0760
B( 28-C , 29-H ) :   0.9751 B( 28-C , 30-H ) :   0.9739 B( 28-C , 31-H ) :   0.9754

Dispersion correction           -0.013589488
FINAL SINGLE POINT ENERGY     -1339.853427746983

DIPOLE MOMENT
-------------
                                X             Y             Z
Electronic contribution:     28.31507      -5.12344       2.70480
Nuclear contribution   :    -28.90648       5.40928      -2.47027
                        -----------------------------------------
Total Dipole Moment    :     -0.59141       0.28584       0.23453
                        -----------------------------------------
Magnitude (a.u.)       :      0.69748
Magnitude (Debye)      :      1.77285

Rotational constants in cm-1:     0.020257     0.007916     0.006088
Rotational constants in MHz :   607.287606   237.326143   182.512365

                             ****ORCA TERMINATED NORMALLY****
TOTAL RUN TIME: 0 days 0 hours 0 minutes 19 seconds 987 msec
