                         Program Version 4.2.1 -  RELEASE  -
|  1> ! wB97X-D3 SP def2-SVP
|  2> %pal
|  3> nprocs 24
|  4> end
|  5>
|  6> * xyz 0 1
|  7> S 	 -117.361 	 61.0513 	 -82.442
|  8> C 	 -118.315 	 62.0015 	 -81.2464
|  9> C 	 -117.494 	 62.875 	 -80.5492
| 10> C 	 -116.126 	 62.5551 	 -80.6947
| 11> C 	 -115.912 	 61.5305 	 -81.5598
| 12> H 	 -115.38 	 63.0843 	 -80.2075
| 13> C 	 -117.949 	 63.9867 	 -79.6653
| 14> H 	 -118.708 	 64.5096 	 -80.3012
| 15> H 	 -117.1 	 64.6693 	 -79.5134
| 16> C 	 -118.597 	 63.6636 	 -78.2857
| 17> H 	 -118.815 	 64.655 	 -77.7967
| 18> H 	 -119.477 	 63.0683 	 -78.5405
| 19> C 	 -117.763 	 62.9697 	 -77.2324
| 20> H 	 -118.323 	 62.9319 	 -76.2726
| 21> H 	 -117.621 	 61.9246 	 -77.5095
| 22> H 	 -116.805 	 63.4809 	 -77.0754
| 23> S 	 -113.236 	 62.205 	 -81.7986
| 24> C 	 -111.985 	 60.975 	 -82.1016
| 25> C 	 -112.566 	 59.7846 	 -82.4151
| 26> C 	 -114.002 	 59.8756 	 -82.3217
| 27> C 	 -114.531 	 61.0312 	 -81.7841
| 28> H 	 -112.014 	 58.8566 	 -82.598
| 29> C 	 -114.762 	 58.6565 	 -82.5726
| 30> H 	 -114.248 	 58.042 	 -83.2804
| 31> H 	 -115.752 	 58.8683 	 -82.8831
| 32> C 	 -114.778 	 57.6612 	 -81.3476
| 33> H 	 -115.132 	 58.2865 	 -80.4764
| 34> H 	 -113.798 	 57.2825 	 -81.0826
| 35> C 	 -115.663 	 56.4294 	 -81.6074
| 36> H 	 -115.263 	 55.9894 	 -82.5208
| 37> H 	 -116.729 	 56.6219 	 -81.7974
| 38> H 	 -115.656 	 55.7043 	 -80.8417
| 39> H 	 -119.299 	 62.2574 	 -81.4503
| 40> H 	 -110.878 	 61.1797 	 -82.0155
| 41> *
| 42>
| 43>                          ****END OF INPUT****

CARTESIAN COORDINATES (ANGSTROEM)
---------------------------------
  S    -117.361000   61.051300  -82.442000
  C    -118.315000   62.001500  -81.246400
  C    -117.494000   62.875000  -80.549200
  C    -116.126000   62.555100  -80.694700
  C    -115.912000   61.530500  -81.559800
  H    -115.380000   63.084300  -80.207500
  C    -117.949000   63.986700  -79.665300
  H    -118.708000   64.509600  -80.301200
  H    -117.100000   64.669300  -79.513400
  C    -118.597000   63.663600  -78.285700
  H    -118.815000   64.655000  -77.796700
  H    -119.477000   63.068300  -78.540500
  C    -117.763000   62.969700  -77.232400
  H    -118.323000   62.931900  -76.272600
  H    -117.621000   61.924600  -77.509500
  H    -116.805000   63.480900  -77.075400
  S    -113.236000   62.205000  -81.798600
  C    -111.985000   60.975000  -82.101600
  C    -112.566000   59.784600  -82.415100
  C    -114.002000   59.875600  -82.321700
  C    -114.531000   61.031200  -81.784100
  H    -112.014000   58.856600  -82.598000
  C    -114.762000   58.656500  -82.572600
  H    -114.248000   58.042000  -83.280400
  H    -115.752000   58.868300  -82.883100
  C    -114.778000   57.661200  -81.347600
  H    -115.132000   58.286500  -80.476400
  H    -113.798000   57.282500  -81.082600
  C    -115.663000   56.429400  -81.607400
  H    -115.263000   55.989400  -82.520800
  H    -116.729000   56.621900  -81.797400
  H    -115.656000   55.704300  -80.841700
  H    -119.299000   62.257400  -81.450300
  H    -110.878000   61.179700  -82.015500

 Total Charge           Charge          ....    0
 Multiplicity           Mult            ....    1
 Number of Electrons    NEL             ....  134
 Basis Dimension        Dim             ....  322

ORBITAL ENERGIES
----------------

  NO   OCC          E(Eh)            E(eV)
   0   2.0000     -88.972453     -2421.0635
   1   2.0000     -88.960235     -2420.7311
   2   2.0000     -10.335422      -281.2411
   3   2.0000     -10.326570      -281.0002
   4   2.0000     -10.324128      -280.9338
   5   2.0000     -10.310873      -280.5731
   6   2.0000     -10.301048      -280.3058
   7   2.0000     -10.296875      -280.1922
   8   2.0000     -10.296579      -280.1842
   9   2.0000     -10.295808      -280.1632
  10   2.0000     -10.292676      -280.0779
  11   2.0000     -10.287452      -279.9358
  12   2.0000     -10.285661      -279.8871
  13   2.0000     -10.278803      -279.7004
  14   2.0000     -10.278171      -279.6833
  15   2.0000     -10.272279      -279.5229
  16   2.0000      -8.085743      -220.0242
  17   2.0000      -8.074788      -219.7262
  18   2.0000      -6.044390      -164.4762
  19   2.0000      -6.040776      -164.3779
  20   2.0000      -6.036116      -164.2511
  21   2.0000      -6.033583      -164.1821
  22   2.0000      -6.029347      -164.0669
  23   2.0000      -6.025233      -163.9549
  24   2.0000      -1.008092       -27.4316
  25   2.0000      -0.986060       -26.8321
  26   2.0000      -0.911305       -24.7979
  27   2.0000      -0.907250       -24.6875
  28   2.0000      -0.871115       -23.7042
  29   2.0000      -0.855468       -23.2785
  30   2.0000      -0.844380       -22.9767
  31   2.0000      -0.819364       -22.2960
  32   2.0000      -0.782502       -21.2930
  33   2.0000      -0.767621       -20.8880
  34   2.0000      -0.707869       -19.2621
  35   2.0000      -0.696590       -18.9552
  36   2.0000      -0.690936       -18.8013
  37   2.0000      -0.668142       -18.1811
  38   2.0000      -0.642022       -17.4703
  39   2.0000      -0.612265       -16.6606
  40   2.0000      -0.595925       -16.2160
  41   2.0000      -0.578806       -15.7501
  42   2.0000      -0.563540       -15.3347
  43   2.0000      -0.549560       -14.9543
  44   2.0000      -0.543414       -14.7871
  45   2.0000      -0.521531       -14.1916
  46   2.0000      -0.518740       -14.1156
  47   2.0000      -0.515651       -14.0316
  48   2.0000      -0.505767       -13.7626
  49   2.0000      -0.493855       -13.4385
  50   2.0000      -0.487809       -13.2740
  51   2.0000      -0.483978       -13.1697
  52   2.0000      -0.476590       -12.9687
  53   2.0000      -0.464206       -12.6317
  54   2.0000      -0.461795       -12.5661
  55   2.0000      -0.449459       -12.2304
  56   2.0000      -0.441362       -12.0101
  57   2.0000      -0.438313       -11.9271
  58   2.0000      -0.434184       -11.8148
  59   2.0000      -0.422143       -11.4871
  60   2.0000      -0.417331       -11.3562
  61   2.0000      -0.410716       -11.1762
  62   2.0000      -0.408426       -11.1138
  63   2.0000      -0.357461        -9.7270
  64   2.0000      -0.333899        -9.0859
  65   2.0000      -0.322955        -8.7881
  66   2.0000      -0.288765        -7.8577
  67   0.0000       0.017127         0.4661
  68   0.0000       0.076686         2.0867
  69   0.0000       0.091175         2.4810
  70   0.0000       0.112242         3.0542
  71   0.0000       0.126737         3.4487

MULLIKEN ATOMIC CHARGES
-----------------------
   0 S :    0.097865
   1 C :   -0.087329
   2 C :   -0.087988
   3 C :    0.005565
   4 C :   -0.069819
   5 H :   -0.012563
   6 C :    0.039213
   7 H :    0.039425
   8 H :    0.021368
   9 C :   -0.073712
  10 H :    0.039587
  11 H :    0.032173
  12 C :   -0.057908
  13 H :    0.040727
  14 H :    0.039794
  15 H :    0.032925
  16 S :    0.066672
  17 C :   -0.103419
  18 C :   -0.020532
  19 C :   -0.082674
  20 C :   -0.107805
  21 H :    0.031057
  22 C :    0.074281
  23 H :    0.005492
  24 H :    0.008848
  25 C :   -0.090838
  26 H :    0.036049
  27 H :    0.022452
  28 C :   -0.022463
  29 H :    0.016428
  30 H :    0.033295
  31 H :    0.026013
  32 H :    0.027961
  33 H :    0.079860
Sum of atomic charges:    0.0000000

LOEWDIN ATOMIC CHARGES
----------------------
   0 S :    0.387817
   1 C :   -0.183311
   2 C :   -0.051381
   3 C :   -0.060280
   4 C :   -0.171157
   5 H :    0.016980
   6 C :   -0.038559
   7 H :    0.040419
   8 H :    0.029203
   9 C :   -0.040556
  10 H :    0.032231
  11 H :    0.024519
  12 C :   -0.070804
  13 H :    0.032704
  14 H :    0.026078
  15 H :    0.025342
  16 S :    0.385569
  17 C :   -0.175025
  18 C :   -0.070551
  19 C :   -0.063628
  20 C :   -0.190356
  21 H :    0.037752
  22 C :   -0.032783
  23 H :    0.025665
  24 H :    0.012462
  25 C :   -0.032313
  26 H :    0.025881
  27 H :    0.019308
  28 C :   -0.064959
  29 H :    0.023530
  30 H :    0.027387
  31 H :    0.019495
  32 H :    0.010081
  33 H :    0.043240

  Mayer bond orders larger than 0.100000
B(  0-S ,  1-C ) :   1.1081 B(  0-S ,  4-C ) :   1.1408 B(  1-C ,  2-C ) :   1.6215
B(  1-C , 32-H ) :   0.9643 B(  2-C ,  3-C ) :   1.2298 B(  2-C ,  6-C ) :   1.0250
B(  3-C ,  4-C ) :   1.5384 B(  3-C ,  5-H ) :   1.0125 B(  4-C , 20-C ) :   1.0700
B(  6-C ,  7-H ) :   0.9327 B(  6-C ,  8-H ) :   0.9405 B(  6-C ,  9-C ) :   1.0748
B(  9-C , 10-H ) :   0.9547 B(  9-C , 11-H ) :   0.9544 B(  9-C , 12-C ) :   1.0864
B( 12-C , 13-H ) :   0.9718 B( 12-C , 14-H ) :   0.9733 B( 12-C , 15-H ) :   0.9730
B( 16-S , 17-C ) :   1.1432 B( 16-S , 20-C ) :   1.1104 B( 17-C , 18-C ) :   1.6179
B( 17-C , 33-H ) :   0.9602 B( 18-C , 19-C ) :   1.2109 B( 18-C , 21-H ) :   0.9904
B( 19-C , 20-C ) :   1.5916 B( 19-C , 22-C ) :   1.0979 B( 22-C , 23-H ) :   0.9215
B( 22-C , 24-H ) :   0.9324 B( 22-C , 25-C ) :   1.0508 B( 25-C , 26-H ) :   0.9581
B( 25-C , 27-H ) :   0.9572 B( 25-C , 28-C ) :   1.0767 B( 28-C , 29-H ) :   0.9714
B( 28-C , 30-H ) :   0.9760 B( 28-C , 31-H ) :   0.9747

Dispersion correction           -0.014062000
FINAL SINGLE POINT ENERGY     -1339.866486559593

DIPOLE MOMENT
-------------
                                X             Y             Z
Electronic contribution:      8.53764       8.43929     -14.45680
Nuclear contribution   :     -8.54426      -8.47361      14.69820
                        -----------------------------------------
Total Dipole Moment    :     -0.00662      -0.03431       0.24140
                        -----------------------------------------
Magnitude (a.u.)       :      0.24391
Magnitude (Debye)      :      0.61998

Rotational constants in cm-1:     0.018781     0.008348     0.007034
Rotational constants in MHz :   563.051420   250.259262   210.866212

                             ****ORCA TERMINATED NORMALLY****
TOTAL RUN TIME: 0 days 0 hours 0 minutes 21 seconds 347 msec
