                         Program Version 4.2.1 -  RELEASE  -
|  1> ! wB97X-D3 SP def2-SVP
|  2> %pal
|  3> nprocs 24
|  4> end
|  5>
|  6> * xyz 0 1
|  7> S 	 -110.157 	 53.2577 	 -90.1832
|  8> C 	 -108.488 	 52.8 	 -89.7526
|  9> C 	 -107.805 	 53.8319 	 -89.1616
| 10> C 	 -108.617 	 55.0373 	 -88.9697
| 11> C 	 -109.891 	 54.8876 	 -89.515
| 12> H 	 -108.457 	 55.9806 	 -88.4062
| 13> C 	 -106.423 	 53.8013 	 -88.6148
| 14> H 	 -105.804 	 54.6256 	 -88.8995
| 15> H 	 -105.868 	 52.9561 	 -88.9493
| 16> C 	 -106.353 	 53.4546 	 -87.0882
| 17> H 	 -106.993 	 54.0005 	 -86.4803
| 18> H 	 -106.701 	 52.4441 	 -86.9001
| 19> C 	 -104.996 	 53.6402 	 -86.4006
| 20> H 	 -105.089 	 53.5207 	 -85.3618
| 21> H 	 -104.339 	 52.8968 	 -86.859
| 22> H 	 -104.501 	 54.6256 	 -86.6357
| 23> S 	 -112.227 	 55.5687 	 -88.236
| 24> C 	 -113.041 	 57.0385 	 -88.7481
| 25> C 	 -112.263 	 57.7781 	 -89.6822
| 26> C 	 -111.048 	 57.1195 	 -90.0636
| 27> C 	 -110.981 	 55.851 	 -89.4387
| 28> H 	 -112.341 	 58.8958 	 -89.6743
| 29> C 	 -109.926 	 57.7405 	 -90.894
| 30> H 	 -109.52 	 57.0136 	 -91.6329
| 31> H 	 -109.117 	 57.8976 	 -90.1914
| 32> C 	 -110.321 	 59.0149 	 -91.7102
| 33> H 	 -110.757 	 59.7113 	 -90.9998
| 34> H 	 -111.096 	 58.7438 	 -92.428
| 35> C 	 -109.189 	 59.7899 	 -92.4489
| 36> H 	 -109.545 	 60.8448 	 -92.729
| 37> H 	 -109.026 	 59.3038 	 -93.3959
| 38> H 	 -108.288 	 59.7939 	 -91.8166
| 39> H 	 -108.099 	 51.7775 	 -89.7699
| 40> H 	 -113.821 	 57.5442 	 -88.1234
| 41> *
| 42>
| 43>                          ****END OF INPUT****

CARTESIAN COORDINATES (ANGSTROEM)
---------------------------------
  S    -110.157000   53.257700  -90.183200
  C    -108.488000   52.800000  -89.752600
  C    -107.805000   53.831900  -89.161600
  C    -108.617000   55.037300  -88.969700
  C    -109.891000   54.887600  -89.515000
  H    -108.457000   55.980600  -88.406200
  C    -106.423000   53.801300  -88.614800
  H    -105.804000   54.625600  -88.899500
  H    -105.868000   52.956100  -88.949300
  C    -106.353000   53.454600  -87.088200
  H    -106.993000   54.000500  -86.480300
  H    -106.701000   52.444100  -86.900100
  C    -104.996000   53.640200  -86.400600
  H    -105.089000   53.520700  -85.361800
  H    -104.339000   52.896800  -86.859000
  H    -104.501000   54.625600  -86.635700
  S    -112.227000   55.568700  -88.236000
  C    -113.041000   57.038500  -88.748100
  C    -112.263000   57.778100  -89.682200
  C    -111.048000   57.119500  -90.063600
  C    -110.981000   55.851000  -89.438700
  H    -112.341000   58.895800  -89.674300
  C    -109.926000   57.740500  -90.894000
  H    -109.520000   57.013600  -91.632900
  H    -109.117000   57.897600  -90.191400
  C    -110.321000   59.014900  -91.710200
  H    -110.757000   59.711300  -90.999800
  H    -111.096000   58.743800  -92.428000
  C    -109.189000   59.789900  -92.448900
  H    -109.545000   60.844800  -92.729000
  H    -109.026000   59.303800  -93.395900
  H    -108.288000   59.793900  -91.816600
  H    -108.099000   51.777500  -89.769900
  H    -113.821000   57.544200  -88.123400

 Total Charge           Charge          ....    0
 Multiplicity           Mult            ....    1
 Number of Electrons    NEL             ....  134
 Basis Dimension        Dim             ....  322

ORBITAL ENERGIES
----------------

  NO   OCC          E(Eh)            E(eV)
   0   2.0000     -88.972501     -2421.0648
   1   2.0000     -88.965015     -2420.8611
   2   2.0000     -10.329456      -281.0788
   3   2.0000     -10.325864      -280.9810
   4   2.0000     -10.325236      -280.9640
   5   2.0000     -10.317046      -280.7411
   6   2.0000     -10.310407      -280.5605
   7   2.0000     -10.305686      -280.4320
   8   2.0000     -10.301172      -280.3091
   9   2.0000     -10.300991      -280.3042
  10   2.0000     -10.297993      -280.2226
  11   2.0000     -10.289315      -279.9865
  12   2.0000     -10.288285      -279.9585
  13   2.0000     -10.287163      -279.9279
  14   2.0000     -10.279662      -279.7238
  15   2.0000     -10.277932      -279.6767
  16   2.0000      -8.086614      -220.0480
  17   2.0000      -8.078743      -219.8338
  18   2.0000      -6.045017      -164.4933
  19   2.0000      -6.041243      -164.3906
  20   2.0000      -6.037483      -164.2883
  21   2.0000      -6.037397      -164.2859
  22   2.0000      -6.033449      -164.1785
  23   2.0000      -6.029354      -164.0671
  24   2.0000      -0.999174       -27.1889
  25   2.0000      -0.975433       -26.5429
  26   2.0000      -0.910684       -24.7810
  27   2.0000      -0.903252       -24.5787
  28   2.0000      -0.866206       -23.5707
  29   2.0000      -0.849913       -23.1273
  30   2.0000      -0.844685       -22.9850
  31   2.0000      -0.809412       -22.0252
  32   2.0000      -0.783333       -21.3156
  33   2.0000      -0.768773       -20.9194
  34   2.0000      -0.703618       -19.1464
  35   2.0000      -0.700721       -19.0676
  36   2.0000      -0.694261       -18.8918
  37   2.0000      -0.645209       -17.5570
  38   2.0000      -0.644991       -17.5511
  39   2.0000      -0.614283       -16.7155
  40   2.0000      -0.593872       -16.1601
  41   2.0000      -0.568501       -15.4697
  42   2.0000      -0.563294       -15.3280
  43   2.0000      -0.555950       -15.1282
  44   2.0000      -0.531021       -14.4498
  45   2.0000      -0.521004       -14.1772
  46   2.0000      -0.514270       -13.9940
  47   2.0000      -0.507293       -13.8041
  48   2.0000      -0.505193       -13.7470
  49   2.0000      -0.499589       -13.5945
  50   2.0000      -0.486342       -13.2340
  51   2.0000      -0.472674       -12.8621
  52   2.0000      -0.470062       -12.7910
  53   2.0000      -0.462692       -12.5905
  54   2.0000      -0.458256       -12.4698
  55   2.0000      -0.451803       -12.2942
  56   2.0000      -0.445569       -12.1245
  57   2.0000      -0.437573       -11.9070
  58   2.0000      -0.435329       -11.8459
  59   2.0000      -0.428988       -11.6733
  60   2.0000      -0.423080       -11.5126
  61   2.0000      -0.413131       -11.2419
  62   2.0000      -0.410251       -11.1635
  63   2.0000      -0.336423        -9.1545
  64   2.0000      -0.328662        -8.9434
  65   2.0000      -0.323524        -8.8035
  66   2.0000      -0.300964        -8.1897
  67   0.0000       0.031264         0.8507
  68   0.0000       0.054385         1.4799
  69   0.0000       0.101595         2.7645
  70   0.0000       0.116651         3.1742
  71   0.0000       0.123297         3.3551

MULLIKEN ATOMIC CHARGES
-----------------------
   0 S :    0.102631
   1 C :   -0.120027
   2 C :   -0.065633
   3 C :    0.030455
   4 C :   -0.189074
   5 H :    0.037994
   6 C :    0.091475
   7 H :    0.026202
   8 H :    0.003231
   9 C :   -0.069806
  10 H :    0.003385
  11 H :    0.018329
  12 C :   -0.046447
  13 H :    0.035478
  14 H :    0.023716
  15 H :    0.034169
  16 S :    0.134761
  17 C :   -0.111027
  18 C :   -0.071003
  19 C :   -0.040661
  20 C :   -0.189206
  21 H :    0.050258
  22 C :    0.074906
  23 H :    0.045525
  24 H :    0.028462
  25 C :   -0.110664
  26 H :    0.025429
  27 H :    0.040606
  28 C :   -0.048335
  29 H :    0.046373
  30 H :    0.033651
  31 H :    0.041142
  32 H :    0.054968
  33 H :    0.078736
Sum of atomic charges:   -0.0000000

LOEWDIN ATOMIC CHARGES
----------------------
   0 S :    0.375251
   1 C :   -0.189435
   2 C :   -0.058780
   3 C :   -0.061414
   4 C :   -0.188143
   5 H :    0.041775
   6 C :   -0.031108
   7 H :    0.029015
   8 H :    0.028096
   9 C :   -0.034209
  10 H :    0.008407
  11 H :    0.023822
  12 C :   -0.061475
  13 H :    0.021398
  14 H :    0.022042
  15 H :    0.029060
  16 S :    0.421495
  17 C :   -0.198472
  18 C :   -0.087566
  19 C :   -0.046189
  20 C :   -0.214724
  21 H :    0.041080
  22 C :   -0.034003
  23 H :    0.040151
  24 H :    0.030561
  25 C :   -0.044371
  26 H :    0.017307
  27 H :    0.027736
  28 C :   -0.066488
  29 H :    0.037679
  30 H :    0.022385
  31 H :    0.027095
  32 H :    0.033819
  33 H :    0.038205

  Mayer bond orders larger than 0.100000
B(  0-S ,  1-C ) :   1.1141 B(  0-S ,  4-C ) :   1.1346 B(  1-C ,  2-C ) :   1.6622
B(  1-C , 32-H ) :   0.9622 B(  2-C ,  3-C ) :   1.1765 B(  2-C ,  6-C ) :   1.0506
B(  3-C ,  4-C ) :   1.6282 B(  3-C ,  5-H ) :   0.9820 B(  4-C , 20-C ) :   1.0295
B(  6-C ,  7-H ) :   0.9443 B(  6-C ,  8-H ) :   0.9350 B(  6-C ,  9-C ) :   1.0368
B(  9-C , 10-H ) :   0.9625 B(  9-C , 11-H ) :   0.9546 B(  9-C , 12-C ) :   1.0835
B( 12-C , 13-H ) :   0.9743 B( 12-C , 14-H ) :   0.9761 B( 12-C , 15-H ) :   0.9752
B( 16-S , 17-C ) :   1.1700 B( 16-S , 20-C ) :   1.1677 B( 17-C , 18-C ) :   1.5888
B( 17-C , 20-C ) :   0.1098 B( 17-C , 33-H ) :   0.9553 B( 18-C , 19-C ) :   1.2915
B( 18-C , 21-H ) :   0.9615 B( 19-C , 20-C ) :   1.5651 B( 19-C , 22-C ) :   1.0357
B( 22-C , 23-H ) :   0.9303 B( 22-C , 24-H ) :   0.9263 B( 22-C , 25-C ) :   1.0711
B( 25-C , 26-H ) :   0.9519 B( 25-C , 27-H ) :   0.9598 B( 25-C , 28-C ) :   1.0778
B( 28-C , 29-H ) :   0.9746 B( 28-C , 30-H ) :   0.9770 B( 28-C , 31-H ) :   0.9756

Dispersion correction           -0.013585259
FINAL SINGLE POINT ENERGY     -1339.861056733235

DIPOLE MOMENT
-------------
                                X             Y             Z
Electronic contribution:    -22.69737     -12.25111       0.47428
Nuclear contribution   :     23.27080      12.70073      -0.16076
                        -----------------------------------------
Total Dipole Moment    :      0.57343       0.44961       0.31352
                        -----------------------------------------
Magnitude (a.u.)       :      0.79327
Magnitude (Debye)      :      2.01632

Rotational constants in cm-1:     0.017063     0.007560     0.006398
Rotational constants in MHz :   511.548886   226.647003   191.804890

                             ****ORCA TERMINATED NORMALLY****
TOTAL RUN TIME: 0 days 0 hours 0 minutes 19 seconds 567 msec
