                         Program Version 4.2.1 -  RELEASE  -
|  1> ! wB97X-D3 SP def2-SVP
|  2> %pal
|  3> nprocs 24
|  4> end
|  5>
|  6> * xyz 0 1
|  7> S 	 -108.05 	 55.7565 	 -89.8701
|  8> C 	 -109.222 	 56.9005 	 -89.2867
|  9> C 	 -108.743 	 58.1929 	 -89.0959
| 10> C 	 -107.337 	 58.2563 	 -89.4763
| 11> C 	 -106.863 	 57.0274 	 -89.9048
| 12> H 	 -106.768 	 59.189 	 -89.6034
| 13> C 	 -109.491 	 59.4889 	 -88.7359
| 14> H 	 -110.565 	 59.3845 	 -88.6286
| 15> H 	 -109.151 	 60.304 	 -89.3465
| 16> C 	 -109.069 	 59.9179 	 -87.2901
| 17> H 	 -108.038 	 59.9239 	 -87.3016
| 18> H 	 -109.307 	 60.9381 	 -87.1606
| 19> C 	 -109.599 	 58.9568 	 -86.1482
| 20> H 	 -109.51 	 57.8496 	 -86.2785
| 21> H 	 -108.986 	 59.2763 	 -85.2076
| 22> H 	 -110.616 	 59.2704 	 -85.8139
| 23> S 	 -105.27 	 56.485 	 -92.1027
| 24> C 	 -103.538 	 56.5479 	 -91.885
| 25> C 	 -103.186 	 56.7468 	 -90.5786
| 26> C 	 -104.365 	 56.794 	 -89.7063
| 27> C 	 -105.562 	 56.6895 	 -90.3939
| 28> H 	 -102.207 	 57.0747 	 -90.3488
| 29> C 	 -104.316 	 57.1639 	 -88.2214
| 30> H 	 -105.175 	 56.6817 	 -87.7134
| 31> H 	 -104.319 	 58.2624 	 -88.1299
| 32> C 	 -103.141 	 56.5588 	 -87.4192
| 33> H 	 -102.313 	 56.7354 	 -88.1043
| 34> H 	 -103.249 	 55.4615 	 -87.3707
| 35> C 	 -103.041 	 57.0867 	 -86.0119
| 36> H 	 -102.197 	 56.6108 	 -85.4872
| 37> H 	 -103.919 	 56.8712 	 -85.4107
| 38> H 	 -102.922 	 58.1727 	 -86.0049
| 39> H 	 -110.268 	 56.7461 	 -89.1485
| 40> H 	 -102.905 	 56.5457 	 -92.654
| 41> *
| 42>
| 43>                          ****END OF INPUT****

CARTESIAN COORDINATES (ANGSTROEM)
---------------------------------
  S    -108.050000   55.756500  -89.870100
  C    -109.222000   56.900500  -89.286700
  C    -108.743000   58.192900  -89.095900
  C    -107.337000   58.256300  -89.476300
  C    -106.863000   57.027400  -89.904800
  H    -106.768000   59.189000  -89.603400
  C    -109.491000   59.488900  -88.735900
  H    -110.565000   59.384500  -88.628600
  H    -109.151000   60.304000  -89.346500
  C    -109.069000   59.917900  -87.290100
  H    -108.038000   59.923900  -87.301600
  H    -109.307000   60.938100  -87.160600
  C    -109.599000   58.956800  -86.148200
  H    -109.510000   57.849600  -86.278500
  H    -108.986000   59.276300  -85.207600
  H    -110.616000   59.270400  -85.813900
  S    -105.270000   56.485000  -92.102700
  C    -103.538000   56.547900  -91.885000
  C    -103.186000   56.746800  -90.578600
  C    -104.365000   56.794000  -89.706300
  C    -105.562000   56.689500  -90.393900
  H    -102.207000   57.074700  -90.348800
  C    -104.316000   57.163900  -88.221400
  H    -105.175000   56.681700  -87.713400
  H    -104.319000   58.262400  -88.129900
  C    -103.141000   56.558800  -87.419200
  H    -102.313000   56.735400  -88.104300
  H    -103.249000   55.461500  -87.370700
  C    -103.041000   57.086700  -86.011900
  H    -102.197000   56.610800  -85.487200
  H    -103.919000   56.871200  -85.410700
  H    -102.922000   58.172700  -86.004900
  H    -110.268000   56.746100  -89.148500
  H    -102.905000   56.545700  -92.654000

 Total Charge           Charge          ....    0
 Multiplicity           Mult            ....    1
 Number of Electrons    NEL             ....  134
 Basis Dimension        Dim             ....  322

ORBITAL ENERGIES
----------------

  NO   OCC          E(Eh)            E(eV)
   0   2.0000     -88.968069     -2420.9442
   1   2.0000     -88.962534     -2420.7936
   2   2.0000     -10.325257      -280.9645
   3   2.0000     -10.318627      -280.7841
   4   2.0000     -10.310690      -280.5681
   5   2.0000     -10.310084      -280.5517
   6   2.0000     -10.305073      -280.4153
   7   2.0000     -10.304829      -280.4087
   8   2.0000     -10.298936      -280.2483
   9   2.0000     -10.295120      -280.1445
  10   2.0000     -10.294449      -280.1262
  11   2.0000     -10.292318      -280.0682
  12   2.0000     -10.289755      -279.9985
  13   2.0000     -10.282367      -279.7974
  14   2.0000     -10.281646      -279.7778
  15   2.0000     -10.277985      -279.6782
  16   2.0000      -8.083100      -219.9523
  17   2.0000      -8.077742      -219.8065
  18   2.0000      -6.041563      -164.3993
  19   2.0000      -6.037605      -164.2916
  20   2.0000      -6.036232      -164.2542
  21   2.0000      -6.033867      -164.1899
  22   2.0000      -6.032201      -164.1445
  23   2.0000      -6.028465      -164.0429
  24   2.0000      -1.007254       -27.4088
  25   2.0000      -0.981804       -26.7163
  26   2.0000      -0.909568       -24.7506
  27   2.0000      -0.907189       -24.6859
  28   2.0000      -0.871590       -23.7172
  29   2.0000      -0.847551       -23.0630
  30   2.0000      -0.841738       -22.9048
  31   2.0000      -0.812058       -22.0972
  32   2.0000      -0.781358       -21.2618
  33   2.0000      -0.771260       -20.9871
  34   2.0000      -0.709242       -19.2995
  35   2.0000      -0.699718       -19.0403
  36   2.0000      -0.694680       -18.9032
  37   2.0000      -0.656023       -17.8513
  38   2.0000      -0.641119       -17.4457
  39   2.0000      -0.621382       -16.9087
  40   2.0000      -0.599488       -16.3129
  41   2.0000      -0.569999       -15.5105
  42   2.0000      -0.567497       -15.4424
  43   2.0000      -0.550682       -14.9848
  44   2.0000      -0.542183       -14.7535
  45   2.0000      -0.522308       -14.2127
  46   2.0000      -0.515784       -14.0352
  47   2.0000      -0.510188       -13.8829
  48   2.0000      -0.498981       -13.5780
  49   2.0000      -0.496920       -13.5219
  50   2.0000      -0.489653       -13.3241
  51   2.0000      -0.475175       -12.9302
  52   2.0000      -0.472415       -12.8551
  53   2.0000      -0.464718       -12.6456
  54   2.0000      -0.456964       -12.4346
  55   2.0000      -0.456610       -12.4250
  56   2.0000      -0.452299       -12.3077
  57   2.0000      -0.436319       -11.8728
  58   2.0000      -0.429059       -11.6753
  59   2.0000      -0.427713       -11.6387
  60   2.0000      -0.420204       -11.4343
  61   2.0000      -0.413167       -11.2428
  62   2.0000      -0.400535       -10.8991
  63   2.0000      -0.338712        -9.2168
  64   2.0000      -0.328576        -8.9410
  65   2.0000      -0.324063        -8.8182
  66   2.0000      -0.303570        -8.2606
  67   0.0000       0.039929         1.0865
  68   0.0000       0.063193         1.7196
  69   0.0000       0.112303         3.0559
  70   0.0000       0.119826         3.2606
  71   0.0000       0.124254         3.3811

MULLIKEN ATOMIC CHARGES
-----------------------
   0 S :    0.129019
   1 C :   -0.096508
   2 C :   -0.116035
   3 C :    0.040174
   4 C :   -0.198529
   5 H :    0.028443
   6 C :    0.088420
   7 H :    0.024741
   8 H :    0.030763
   9 C :   -0.044516
  10 H :    0.002608
  11 H :    0.015396
  12 C :   -0.107522
  13 H :    0.066510
  14 H :    0.038774
  15 H :    0.037094
  16 S :    0.106123
  17 C :   -0.039777
  18 C :   -0.022682
  19 C :   -0.050665
  20 C :   -0.138538
  21 H :    0.021512
  22 C :    0.045743
  23 H :    0.040449
  24 H :    0.040678
  25 C :   -0.098904
  26 H :    0.015869
  27 H :    0.033725
  28 C :   -0.021599
  29 H :    0.038281
  30 H :    0.029234
  31 H :    0.026458
  32 H :    0.028962
  33 H :    0.006299
Sum of atomic charges:    0.0000000

LOEWDIN ATOMIC CHARGES
----------------------
   0 S :    0.419956
   1 C :   -0.204485
   2 C :   -0.056687
   3 C :   -0.054979
   4 C :   -0.197173
   5 H :    0.036586
   6 C :   -0.022433
   7 H :    0.028113
   8 H :    0.031320
   9 C :   -0.031555
  10 H :    0.008392
  11 H :    0.018496
  12 C :   -0.081579
  13 H :    0.033836
  14 H :    0.037213
  15 H :    0.025716
  16 S :    0.406026
  17 C :   -0.154338
  18 C :   -0.069753
  19 C :   -0.048243
  20 C :   -0.220194
  21 H :    0.026762
  22 C :   -0.035373
  23 H :    0.035819
  24 H :    0.031591
  25 C :   -0.047518
  26 H :    0.016679
  27 H :    0.027899
  28 C :   -0.064517
  29 H :    0.031190
  30 H :    0.026560
  31 H :    0.024089
  32 H :    0.021201
  33 H :    0.001386

  Mayer bond orders larger than 0.100000
B(  0-S ,  1-C ) :   1.1335 B(  0-S ,  4-C ) :   1.1546 B(  1-C ,  2-C ) :   1.6446
B(  1-C , 32-H ) :   0.9632 B(  2-C ,  3-C ) :   1.2103 B(  2-C ,  6-C ) :   1.0357
B(  3-C ,  4-C ) :   1.6101 B(  3-C ,  5-H ) :   0.9848 B(  4-C , 20-C ) :   1.0185
B(  6-C ,  7-H ) :   0.9472 B(  6-C ,  8-H ) :   0.9403 B(  6-C ,  9-C ) :   1.0644
B(  9-C , 10-H ) :   0.9612 B(  9-C , 11-H ) :   0.9554 B(  9-C , 12-C ) :   1.0598
B( 12-C , 13-H ) :   0.9749 B( 12-C , 14-H ) :   0.9745 B( 12-C , 15-H ) :   0.9769
B( 16-S , 17-C ) :   1.1622 B( 16-S , 20-C ) :   1.1319 B( 17-C , 18-C ) :   1.6269
B( 17-C , 33-H ) :   0.9799 B( 18-C , 19-C ) :   1.2106 B( 18-C , 21-H ) :   0.9895
B( 19-C , 20-C ) :   1.6223 B( 19-C , 22-C ) :   1.0493 B( 22-C , 23-H ) :   0.9343
B( 22-C , 24-H ) :   0.9375 B( 22-C , 25-C ) :   1.0528 B( 25-C , 26-H ) :   0.9571
B( 25-C , 27-H ) :   0.9564 B( 25-C , 28-C ) :   1.0870 B( 28-C , 29-H ) :   0.9715
B( 28-C , 30-H ) :   0.9704 B( 28-C , 31-H ) :   0.9734

Dispersion correction           -0.014247445
FINAL SINGLE POINT ENERGY     -1339.865323890907

DIPOLE MOMENT
-------------
                                X             Y             Z
Electronic contribution:     -1.68782     -13.26118     -26.23213
Nuclear contribution   :      1.84269      13.91481      26.58409
                        -----------------------------------------
Total Dipole Moment    :      0.15487       0.65363       0.35196
                        -----------------------------------------
Magnitude (a.u.)       :      0.75835
Magnitude (Debye)      :      1.92757

Rotational constants in cm-1:     0.016921     0.009269     0.006897
Rotational constants in MHz :   507.263941   277.891588   206.774139

                             ****ORCA TERMINATED NORMALLY****
TOTAL RUN TIME: 0 days 0 hours 0 minutes 21 seconds 701 msec
