                         Program Version 4.2.1 -  RELEASE  -
|  1> ! wB97X-D3 SP def2-SVP
|  2> %pal
|  3> nprocs 24
|  4> end
|  5>
|  6> * xyz 0 1
|  7> S 	 -100.47 	 67.5034 	 -8.81951
|  8> C 	 -99.771 	 66.162 	 -7.94536
|  9> C 	 -100.673 	 65.0816 	 -8.02864
| 10> C 	 -101.832 	 65.2948 	 -8.84056
| 11> C 	 -101.767 	 66.5106 	 -9.49482
| 12> H 	 -102.622 	 64.5981 	 -9.08058
| 13> C 	 -100.541 	 63.7007 	 -7.38971
| 14> H 	 -99.9398 	 63.8854 	 -6.45668
| 15> H 	 -99.8941 	 63.2475 	 -7.97953
| 16> C 	 -101.796 	 62.819 	 -7.15867
| 17> H 	 -102.552 	 63.4676 	 -6.65519
| 18> H 	 -102.35 	 62.4389 	 -8.03168
| 19> C 	 -101.405 	 61.5115 	 -6.37058
| 20> H 	 -100.505 	 61.0313 	 -6.85464
| 21> H 	 -101.161 	 61.8264 	 -5.40283
| 22> H 	 -102.377 	 60.9188 	 -6.26879
| 23> S 	 -102.242 	 68.0111 	 -11.8056
| 24> C 	 -103.878 	 68.3276 	 -12.3262
| 25> C 	 -104.802 	 67.589 	 -11.7044
| 26> C 	 -104.195 	 66.881 	 -10.6057
| 27> C 	 -102.843 	 67.0415 	 -10.4398
| 28> H 	 -105.898 	 67.5638 	 -11.9353
| 29> C 	 -105.021 	 66.0256 	 -9.69681
| 30> H 	 -104.391 	 65.7176 	 -8.83437
| 31> H 	 -105.377 	 65.2384 	 -10.2991
| 32> C 	 -106.338 	 66.5294 	 -9.09934
| 33> H 	 -106.762 	 65.6911 	 -8.48153
| 34> H 	 -107.051 	 66.6644 	 -9.90892
| 35> C 	 -106.25 	 67.7055 	 -8.08875
| 36> H 	 -107.18 	 68.2034 	 -7.86132
| 37> H 	 -105.556 	 68.4952 	 -8.42565
| 38> H 	 -106.062 	 67.3144 	 -7.06878
| 39> H 	 -98.9462 	 66.1865 	 -7.34936
| 40> H 	 -104.019 	 68.7566 	 -13.2981
| 41> *
| 42>
| 43>                          ****END OF INPUT****

CARTESIAN COORDINATES (ANGSTROEM)
---------------------------------
  S    -100.470000   67.503400   -8.819510
  C    -99.771000   66.162000   -7.945360
  C    -100.673000   65.081600   -8.028640
  C    -101.832000   65.294800   -8.840560
  C    -101.767000   66.510600   -9.494820
  H    -102.622000   64.598100   -9.080580
  C    -100.541000   63.700700   -7.389710
  H    -99.939800   63.885400   -6.456680
  H    -99.894100   63.247500   -7.979530
  C    -101.796000   62.819000   -7.158670
  H    -102.552000   63.467600   -6.655190
  H    -102.350000   62.438900   -8.031680
  C    -101.405000   61.511500   -6.370580
  H    -100.505000   61.031300   -6.854640
  H    -101.161000   61.826400   -5.402830
  H    -102.377000   60.918800   -6.268790
  S    -102.242000   68.011100  -11.805600
  C    -103.878000   68.327600  -12.326200
  C    -104.802000   67.589000  -11.704400
  C    -104.195000   66.881000  -10.605700
  C    -102.843000   67.041500  -10.439800
  H    -105.898000   67.563800  -11.935300
  C    -105.021000   66.025600   -9.696810
  H    -104.391000   65.717600   -8.834370
  H    -105.377000   65.238400  -10.299100
  C    -106.338000   66.529400   -9.099340
  H    -106.762000   65.691100   -8.481530
  H    -107.051000   66.664400   -9.908920
  C    -106.250000   67.705500   -8.088750
  H    -107.180000   68.203400   -7.861320
  H    -105.556000   68.495200   -8.425650
  H    -106.062000   67.314400   -7.068780
  H    -98.946200   66.186500   -7.349360
  H    -104.019000   68.756600  -13.298100

 Total Charge           Charge          ....    0
 Multiplicity           Mult            ....    1
 Number of Electrons    NEL             ....  134
 Basis Dimension        Dim             ....  322

ORBITAL ENERGIES
----------------

  NO   OCC          E(Eh)            E(eV)
   0   2.0000     -88.968638     -2420.9597
   1   2.0000     -88.958992     -2420.6972
   2   2.0000     -10.337382      -281.2945
   3   2.0000     -10.331824      -281.1432
   4   2.0000     -10.312937      -280.6293
   5   2.0000     -10.311746      -280.5969
   6   2.0000     -10.305203      -280.4188
   7   2.0000     -10.302423      -280.3432
   8   2.0000     -10.297489      -280.2089
   9   2.0000     -10.297168      -280.2002
  10   2.0000     -10.291892      -280.0566
  11   2.0000     -10.290702      -280.0242
  12   2.0000     -10.289529      -279.9923
  13   2.0000     -10.286277      -279.9038
  14   2.0000     -10.285813      -279.8912
  15   2.0000     -10.276585      -279.6401
  16   2.0000      -8.082663      -219.9404
  17   2.0000      -8.074018      -219.7052
  18   2.0000      -6.041288      -164.3918
  19   2.0000      -6.037236      -164.2815
  20   2.0000      -6.033358      -164.1760
  21   2.0000      -6.032540      -164.1538
  22   2.0000      -6.028601      -164.0466
  23   2.0000      -6.024629      -163.9385
  24   2.0000      -1.003999       -27.3202
  25   2.0000      -0.985651       -26.8209
  26   2.0000      -0.908734       -24.7279
  27   2.0000      -0.907579       -24.6965
  28   2.0000      -0.867599       -23.6086
  29   2.0000      -0.848726       -23.0950
  30   2.0000      -0.842381       -22.9224
  31   2.0000      -0.820701       -22.3324
  32   2.0000      -0.782471       -21.2921
  33   2.0000      -0.772586       -21.0231
  34   2.0000      -0.711195       -19.3526
  35   2.0000      -0.697966       -18.9926
  36   2.0000      -0.693349       -18.8670
  37   2.0000      -0.657406       -17.8889
  38   2.0000      -0.643368       -17.5069
  39   2.0000      -0.618848       -16.8397
  40   2.0000      -0.594472       -16.1764
  41   2.0000      -0.571053       -15.5391
  42   2.0000      -0.565028       -15.3752
  43   2.0000      -0.561207       -15.2712
  44   2.0000      -0.543967       -14.8021
  45   2.0000      -0.531788       -14.4707
  46   2.0000      -0.516870       -14.0648
  47   2.0000      -0.509954       -13.8765
  48   2.0000      -0.500824       -13.6281
  49   2.0000      -0.492694       -13.4069
  50   2.0000      -0.491240       -13.3673
  51   2.0000      -0.482172       -13.1206
  52   2.0000      -0.467312       -12.7162
  53   2.0000      -0.460955       -12.5432
  54   2.0000      -0.458395       -12.4736
  55   2.0000      -0.448451       -12.2030
  56   2.0000      -0.443705       -12.0738
  57   2.0000      -0.442512       -12.0414
  58   2.0000      -0.434230       -11.8160
  59   2.0000      -0.426476       -11.6050
  60   2.0000      -0.415405       -11.3037
  61   2.0000      -0.410184       -11.1617
  62   2.0000      -0.403227       -10.9724
  63   2.0000      -0.355097        -9.6627
  64   2.0000      -0.328783        -8.9466
  65   2.0000      -0.327801        -8.9199
  66   2.0000      -0.292272        -7.9531
  67   0.0000       0.027626         0.7517
  68   0.0000       0.075081         2.0431
  69   0.0000       0.109945         2.9917
  70   0.0000       0.115374         3.1395
  71   0.0000       0.135722         3.6932

MULLIKEN ATOMIC CHARGES
-----------------------
   0 S :    0.114588
   1 C :   -0.078842
   2 C :   -0.095607
   3 C :   -0.022505
   4 C :   -0.082688
   5 H :    0.028055
   6 C :    0.097498
   7 H :    0.022771
   8 H :    0.003080
   9 C :   -0.121909
  10 H :    0.036961
  11 H :    0.040907
  12 C :   -0.044542
  13 H :    0.054122
  14 H :    0.020677
  15 H :    0.049873
  16 S :    0.074227
  17 C :   -0.063717
  18 C :   -0.037166
  19 C :   -0.068044
  20 C :   -0.159430
  21 H :    0.042193
  22 C :    0.062651
  23 H :    0.032339
  24 H :    0.023305
  25 C :   -0.095007
  26 H :    0.031966
  27 H :    0.020465
  28 C :   -0.054527
  29 H :    0.021028
  30 H :    0.052753
  31 H :    0.030491
  32 H :    0.008639
  33 H :    0.055395
Sum of atomic charges:   -0.0000000

LOEWDIN ATOMIC CHARGES
----------------------
   0 S :    0.408952
   1 C :   -0.195652
   2 C :   -0.049005
   3 C :   -0.073637
   4 C :   -0.180618
   5 H :    0.032770
   6 C :   -0.031027
   7 H :    0.037526
   8 H :    0.012361
   9 C :   -0.046742
  10 H :    0.026489
  11 H :    0.024004
  12 C :   -0.063302
  13 H :    0.036376
  14 H :    0.013796
  15 H :    0.038312
  16 S :    0.381986
  17 C :   -0.171617
  18 C :   -0.076238
  19 C :   -0.061409
  20 C :   -0.184037
  21 H :    0.044584
  22 C :   -0.037212
  23 H :    0.034894
  24 H :    0.031682
  25 C :   -0.044342
  26 H :    0.032559
  27 H :    0.014955
  28 C :   -0.076684
  29 H :    0.024268
  30 H :    0.030798
  31 H :    0.030383
  32 H :    0.009841
  33 H :    0.024984

  Mayer bond orders larger than 0.100000
B(  0-S ,  1-C ) :   1.1247 B(  0-S ,  4-C ) :   1.1708 B(  1-C ,  2-C ) :   1.5857
B(  1-C ,  4-C ) :   0.1044 B(  1-C , 32-H ) :   0.9891 B(  2-C ,  3-C ) :   1.2533
B(  2-C ,  6-C ) :   0.9993 B(  3-C ,  4-C ) :   1.5511 B(  3-C ,  5-H ) :   0.9894
B(  4-C , 20-C ) :   1.0039 B(  6-C ,  7-H ) :   0.9397 B(  6-C ,  8-H ) :   0.9276
B(  6-C ,  9-C ) :   1.0645 B(  9-C , 10-H ) :   0.9611 B(  9-C , 11-H ) :   0.9501
B(  9-C , 12-C ) :   1.0651 B( 12-C , 13-H ) :   0.9741 B( 12-C , 14-H ) :   0.9783
B( 12-C , 15-H ) :   0.9739 B( 16-S , 17-C ) :   1.1546 B( 16-S , 20-C ) :   1.1180
B( 17-C , 18-C ) :   1.6337 B( 17-C , 33-H ) :   0.9601 B( 18-C , 19-C ) :   1.2126
B( 18-C , 21-H ) :   0.9850 B( 19-C , 20-C ) :   1.6467 B( 19-C , 22-C ) :   1.0448
B( 22-C , 23-H ) :   0.9357 B( 22-C , 24-H ) :   0.9178 B( 22-C , 25-C ) :   1.0871
B( 25-C , 26-H ) :   0.9559 B( 25-C , 27-H ) :   0.9542 B( 25-C , 28-C ) :   1.0667
B( 28-C , 29-H ) :   0.9728 B( 28-C , 30-H ) :   0.9788 B( 28-C , 31-H ) :   0.9749

Dispersion correction           -0.013843232
FINAL SINGLE POINT ENERGY     -1339.845718583983

DIPOLE MOMENT
-------------
                                X             Y             Z
Electronic contribution:     14.93837      19.33894     -16.71212
Nuclear contribution   :    -15.41950     -19.98135      16.96983
                        -----------------------------------------
Total Dipole Moment    :     -0.48113      -0.64240       0.25770
                        -----------------------------------------
Magnitude (a.u.)       :      0.84296
Magnitude (Debye)      :      2.14263

Rotational constants in cm-1:     0.017503     0.008656     0.006672
Rotational constants in MHz :   524.724876   259.485535   200.012684

                             ****ORCA TERMINATED NORMALLY****
TOTAL RUN TIME: 0 days 0 hours 0 minutes 21 seconds 435 msec
