                         Program Version 4.2.1 -  RELEASE  -
|  1> ! wB97X-D3 SP def2-SVP
|  2> %pal
|  3> nprocs 24
|  4> end
|  5>
|  6> * xyz 0 1
|  7> S 	 -100.9 	 0.120052 	 -106.654
|  8> C 	 -101.923 	 0.26634 	 -105.218
|  9> C 	 -102.332 	 1.59778 	 -105.112
| 10> C 	 -101.849 	 2.45842 	 -106.157
| 11> C 	 -101.122 	 1.79549 	 -107.077
| 12> H 	 -101.983 	 3.56737 	 -106.22
| 13> C 	 -103.298 	 2.09574 	 -104.03
| 14> H 	 -103.64 	 1.21897 	 -103.454
| 15> H 	 -104.26 	 2.38525 	 -104.45
| 16> C 	 -102.788 	 3.18909 	 -103.121
| 17> H 	 -101.727 	 3.03323 	 -102.842
| 18> H 	 -102.913 	 4.13624 	 -103.489
| 19> C 	 -103.487 	 2.96832 	 -101.747
| 20> H 	 -103.036 	 2.13463 	 -101.206
| 21> H 	 -103.338 	 3.90942 	 -101.154
| 22> H 	 -104.558 	 2.77908 	 -101.734
| 23> S 	 -100.868 	 1.34322 	 -109.689
| 24> C 	 -99.9972 	 2.40097 	 -110.75
| 25> C 	 -99.4036 	 3.44742 	 -110.018
| 26> C 	 -99.8323 	 3.53295 	 -108.671
| 27> C 	 -100.534 	 2.34984 	 -108.309
| 28> H 	 -98.9023 	 4.3489 	 -110.45
| 29> C 	 -99.4979 	 4.67843 	 -107.74
| 30> H 	 -100.451 	 5.13821 	 -107.472
| 31> H 	 -98.9653 	 5.43097 	 -108.293
| 32> C 	 -98.6642 	 4.31447 	 -106.505
| 33> H 	 -97.6222 	 3.99874 	 -106.743
| 34> H 	 -99.148 	 3.47864 	 -106.026
| 35> C 	 -98.3699 	 5.51339 	 -105.581
| 36> H 	 -97.785 	 5.38911 	 -104.64
| 37> H 	 -99.2613 	 6.04655 	 -105.27
| 38> H 	 -97.7056 	 6.20525 	 -106.115
| 39> H 	 -102.14 	 -0.5091 	 -104.508
| 40> H 	 -99.9697 	 2.292 	 -111.827
| 41> *
| 42>
| 43>                          ****END OF INPUT****

CARTESIAN COORDINATES (ANGSTROEM)
---------------------------------
  S    -100.900000    0.120052  -106.654000
  C    -101.923000    0.266340  -105.218000
  C    -102.332000    1.597780  -105.112000
  C    -101.849000    2.458420  -106.157000
  C    -101.122000    1.795490  -107.077000
  H    -101.983000    3.567370  -106.220000
  C    -103.298000    2.095740  -104.030000
  H    -103.640000    1.218970  -103.454000
  H    -104.260000    2.385250  -104.450000
  C    -102.788000    3.189090  -103.121000
  H    -101.727000    3.033230  -102.842000
  H    -102.913000    4.136240  -103.489000
  C    -103.487000    2.968320  -101.747000
  H    -103.036000    2.134630  -101.206000
  H    -103.338000    3.909420  -101.154000
  H    -104.558000    2.779080  -101.734000
  S    -100.868000    1.343220  -109.689000
  C    -99.997200    2.400970  -110.750000
  C    -99.403600    3.447420  -110.018000
  C    -99.832300    3.532950  -108.671000
  C    -100.534000    2.349840  -108.309000
  H    -98.902300    4.348900  -110.450000
  C    -99.497900    4.678430  -107.740000
  H    -100.451000    5.138210  -107.472000
  H    -98.965300    5.430970  -108.293000
  C    -98.664200    4.314470  -106.505000
  H    -97.622200    3.998740  -106.743000
  H    -99.148000    3.478640  -106.026000
  C    -98.369900    5.513390  -105.581000
  H    -97.785000    5.389110  -104.640000
  H    -99.261300    6.046550  -105.270000
  H    -97.705600    6.205250  -106.115000
  H    -102.140000   -0.509100  -104.508000
  H    -99.969700    2.292000  -111.827000

 Total Charge           Charge          ....    0
 Multiplicity           Mult            ....    1
 Number of Electrons    NEL             ....  134
 Basis Dimension        Dim             ....  322

ORBITAL ENERGIES
----------------

  NO   OCC          E(Eh)            E(eV)
   0   2.0000     -88.968835     -2420.9651
   1   2.0000     -88.965351     -2420.8703
   2   2.0000     -10.329054      -281.0679
   3   2.0000     -10.328392      -281.0498
   4   2.0000     -10.320067      -280.8233
   5   2.0000     -10.315354      -280.6950
   6   2.0000     -10.307502      -280.4814
   7   2.0000     -10.303506      -280.3726
   8   2.0000     -10.299495      -280.2635
   9   2.0000     -10.294833      -280.1366
  10   2.0000     -10.293216      -280.0926
  11   2.0000     -10.289910      -280.0027
  12   2.0000     -10.287016      -279.9239
  13   2.0000     -10.282780      -279.8087
  14   2.0000     -10.281344      -279.7696
  15   2.0000     -10.280003      -279.7331
  16   2.0000      -8.083783      -219.9709
  17   2.0000      -8.079882      -219.8648
  18   2.0000      -6.042181      -164.4161
  19   2.0000      -6.038539      -164.3170
  20   2.0000      -6.037997      -164.3023
  21   2.0000      -6.034904      -164.2181
  22   2.0000      -6.034366      -164.2035
  23   2.0000      -6.030531      -164.0991
  24   2.0000      -1.008464       -27.4417
  25   2.0000      -0.983490       -26.7621
  26   2.0000      -0.913004       -24.8441
  27   2.0000      -0.909908       -24.7599
  28   2.0000      -0.867706       -23.6115
  29   2.0000      -0.852641       -23.2015
  30   2.0000      -0.843512       -22.9531
  31   2.0000      -0.812414       -22.1069
  32   2.0000      -0.781191       -21.2573
  33   2.0000      -0.767569       -20.8866
  34   2.0000      -0.710051       -19.3215
  35   2.0000      -0.703524       -19.1439
  36   2.0000      -0.689492       -18.7620
  37   2.0000      -0.664306       -18.0767
  38   2.0000      -0.642730       -17.4896
  39   2.0000      -0.617680       -16.8079
  40   2.0000      -0.596796       -16.2396
  41   2.0000      -0.574219       -15.6253
  42   2.0000      -0.567272       -15.4363
  43   2.0000      -0.555773       -15.1234
  44   2.0000      -0.526199       -14.3186
  45   2.0000      -0.519458       -14.1352
  46   2.0000      -0.514431       -13.9984
  47   2.0000      -0.511463       -13.9176
  48   2.0000      -0.504757       -13.7351
  49   2.0000      -0.498944       -13.5769
  50   2.0000      -0.488904       -13.3038
  51   2.0000      -0.484890       -13.1945
  52   2.0000      -0.472277       -12.8513
  53   2.0000      -0.463143       -12.6028
  54   2.0000      -0.459501       -12.5037
  55   2.0000      -0.453263       -12.3339
  56   2.0000      -0.445490       -12.1224
  57   2.0000      -0.441924       -12.0254
  58   2.0000      -0.430958       -11.7270
  59   2.0000      -0.425280       -11.5724
  60   2.0000      -0.419415       -11.4129
  61   2.0000      -0.415468       -11.3055
  62   2.0000      -0.407030       -11.0758
  63   2.0000      -0.349584        -9.5127
  64   2.0000      -0.334246        -9.0953
  65   2.0000      -0.328379        -8.9356
  66   2.0000      -0.288499        -7.8504
  67   0.0000       0.029595         0.8053
  68   0.0000       0.069738         1.8977
  69   0.0000       0.113267         3.0822
  70   0.0000       0.119176         3.2429
  71   0.0000       0.130082         3.5397

MULLIKEN ATOMIC CHARGES
-----------------------
   0 S :    0.106589
   1 C :   -0.123495
   2 C :   -0.084484
   3 C :    0.007582
   4 C :   -0.123552
   5 H :    0.028739
   6 C :    0.051171
   7 H :    0.007395
   8 H :    0.034191
   9 C :   -0.025766
  10 H :    0.040337
  11 H :    0.018790
  12 C :   -0.102906
  13 H :    0.039955
  14 H :    0.034601
  15 H :    0.032743
  16 S :    0.120008
  17 C :   -0.097743
  18 C :   -0.037873
  19 C :   -0.050579
  20 C :   -0.173602
  21 H :    0.032393
  22 C :    0.087961
  23 H :    0.033418
  24 H :   -0.000216
  25 C :   -0.065325
  26 H :    0.034852
  27 H :    0.045524
  28 C :   -0.067277
  29 H :    0.039290
  30 H :    0.022183
  31 H :    0.023937
  32 H :    0.047161
  33 H :    0.064001
Sum of atomic charges:   -0.0000000

LOEWDIN ATOMIC CHARGES
----------------------
   0 S :    0.396501
   1 C :   -0.198249
   2 C :   -0.056283
   3 C :   -0.077895
   4 C :   -0.196796
   5 H :    0.040330
   6 C :   -0.035541
   7 H :    0.029056
   8 H :    0.033535
   9 C :   -0.032853
  10 H :    0.034152
  11 H :    0.010075
  12 C :   -0.067376
  13 H :    0.025651
  14 H :    0.028119
  15 H :    0.019651
  16 S :    0.436134
  17 C :   -0.197379
  18 C :   -0.077127
  19 C :   -0.055039
  20 C :   -0.200557
  21 H :    0.037387
  22 C :   -0.028273
  23 H :    0.032765
  24 H :    0.025695
  25 C :   -0.039021
  26 H :    0.032697
  27 H :    0.022733
  28 C :   -0.075236
  29 H :    0.032389
  30 H :    0.017674
  31 H :    0.024616
  32 H :    0.028392
  33 H :    0.030072

  Mayer bond orders larger than 0.100000
B(  0-S ,  1-C ) :   1.1129 B(  0-S ,  4-C ) :   1.1535 B(  1-C ,  2-C ) :   1.6217
B(  1-C , 32-H ) :   0.9727 B(  2-C ,  3-C ) :   1.2157 B(  2-C ,  6-C ) :   1.0287
B(  3-C ,  4-C ) :   1.5958 B(  3-C ,  5-H ) :   0.9912 B(  4-C , 20-C ) :   1.0182
B(  6-C ,  7-H ) :   0.9465 B(  6-C ,  8-H ) :   0.9347 B(  6-C ,  9-C ) :   1.0496
B(  9-C , 10-H ) :   0.9611 B(  9-C , 11-H ) :   0.9589 B(  9-C , 12-C ) :   1.0717
B( 12-C , 13-H ) :   0.9802 B( 12-C , 14-H ) :   0.9755 B( 12-C , 15-H ) :   0.9768
B( 16-S , 17-C ) :   1.1774 B( 16-S , 20-C ) :   1.1796 B( 17-C , 18-C ) :   1.5471
B( 17-C , 20-C ) :   0.1174 B( 17-C , 33-H ) :   0.9718 B( 18-C , 19-C ) :   1.3159
B( 18-C , 21-H ) :   0.9692 B( 19-C , 20-C ) :   1.5281 B( 19-C , 22-C ) :   1.0440
B( 22-C , 23-H ) :   0.9283 B( 22-C , 24-H ) :   0.9255 B( 22-C , 25-C ) :   1.0602
B( 25-C , 26-H ) :   0.9556 B( 25-C , 27-H ) :   0.9599 B( 25-C , 28-C ) :   1.0703
B( 28-C , 29-H ) :   0.9754 B( 28-C , 30-H ) :   0.9762 B( 28-C , 31-H ) :   0.9753

Dispersion correction           -0.014160873
FINAL SINGLE POINT ENERGY     -1339.878959174777

DIPOLE MOMENT
-------------
                                X             Y             Z
Electronic contribution:      0.60440     -19.99902     -24.57910
Nuclear contribution   :     -0.71703      20.58957      24.89367
                        -----------------------------------------
Total Dipole Moment    :     -0.11263       0.59055       0.31457
                        -----------------------------------------
Magnitude (a.u.)       :      0.67852
Magnitude (Debye)      :      1.72465

Rotational constants in cm-1:     0.018720     0.008906     0.006670
Rotational constants in MHz :   561.208495   266.984992   199.964004

                             ****ORCA TERMINATED NORMALLY****
TOTAL RUN TIME: 0 days 0 hours 0 minutes 20 seconds 601 msec
