                         Program Version 4.2.1 -  RELEASE  -
|  1> ! wB97X-D3 SP def2-SVP
|  2> %pal
|  3> nprocs 24
|  4> end
|  5>
|  6> * xyz 0 1
|  7> S 	 -83.8466 	 -1.01185 	 -64.6606
|  8> C 	 -84.6174 	 0.164519 	 -65.8126
|  9> C 	 -85.9703 	 -0.0394134 	 -65.8138
| 10> C 	 -86.4159 	 -1.22091 	 -65.0945
| 11> C 	 -85.3331 	 -1.90486 	 -64.454
| 12> H 	 -87.4677 	 -1.50467 	 -65.0059
| 13> C 	 -87.0002 	 0.884736 	 -66.5182
| 14> H 	 -87.5282 	 0.23475 	 -67.1288
| 15> H 	 -86.3623 	 1.3898 	 -67.2566
| 16> C 	 -87.7854 	 1.87356 	 -65.6539
| 17> H 	 -88.4869 	 2.41831 	 -66.289
| 18> H 	 -88.3565 	 1.38079 	 -64.8277
| 19> C 	 -86.8997 	 2.94371 	 -65.0622
| 20> H 	 -85.9919 	 3.28769 	 -65.6708
| 21> H 	 -87.4035 	 3.87051 	 -64.7985
| 22> H 	 -86.5624 	 2.50721 	 -64.095
| 23> S 	 -84.6189 	 -4.46011 	 -64.2107
| 24> C 	 -85.0827 	 -5.32733 	 -62.7762
| 25> C 	 -86.1151 	 -4.68053 	 -62.1231
| 26> C 	 -86.2989 	 -3.3526 	 -62.5776
| 27> C 	 -85.4368 	 -3.07508 	 -63.6184
| 28> H 	 -86.6413 	 -5.22649 	 -61.344
| 29> C 	 -87.2401 	 -2.21522 	 -61.8955
| 30> H 	 -88.0737 	 -2.68881 	 -61.3234
| 31> H 	 -87.6956 	 -1.62089 	 -62.7646
| 32> C 	 -86.4269 	 -1.29317 	 -60.9378
| 33> H 	 -87.1821 	 -0.555987 	 -60.5589
| 34> H 	 -85.6148 	 -0.806084 	 -61.4446
| 35> C 	 -85.8448 	 -2.05606 	 -59.6921
| 36> H 	 -85.0922 	 -2.83525 	 -59.9308
| 37> H 	 -86.6023 	 -2.66049 	 -59.169
| 38> H 	 -85.2385 	 -1.36267 	 -59.1084
| 39> H 	 -84.2008 	 1.03682 	 -66.1625
| 40> H 	 -84.6297 	 -6.32404 	 -62.5063
| 41> *
| 42>
| 43>                          ****END OF INPUT****

CARTESIAN COORDINATES (ANGSTROEM)
---------------------------------
  S    -83.846600   -1.011850  -64.660600
  C    -84.617400    0.164519  -65.812600
  C    -85.970300   -0.039413  -65.813800
  C    -86.415900   -1.220910  -65.094500
  C    -85.333100   -1.904860  -64.454000
  H    -87.467700   -1.504670  -65.005900
  C    -87.000200    0.884736  -66.518200
  H    -87.528200    0.234750  -67.128800
  H    -86.362300    1.389800  -67.256600
  C    -87.785400    1.873560  -65.653900
  H    -88.486900    2.418310  -66.289000
  H    -88.356500    1.380790  -64.827700
  C    -86.899700    2.943710  -65.062200
  H    -85.991900    3.287690  -65.670800
  H    -87.403500    3.870510  -64.798500
  H    -86.562400    2.507210  -64.095000
  S    -84.618900   -4.460110  -64.210700
  C    -85.082700   -5.327330  -62.776200
  C    -86.115100   -4.680530  -62.123100
  C    -86.298900   -3.352600  -62.577600
  C    -85.436800   -3.075080  -63.618400
  H    -86.641300   -5.226490  -61.344000
  C    -87.240100   -2.215220  -61.895500
  H    -88.073700   -2.688810  -61.323400
  H    -87.695600   -1.620890  -62.764600
  C    -86.426900   -1.293170  -60.937800
  H    -87.182100   -0.555987  -60.558900
  H    -85.614800   -0.806084  -61.444600
  C    -85.844800   -2.056060  -59.692100
  H    -85.092200   -2.835250  -59.930800
  H    -86.602300   -2.660490  -59.169000
  H    -85.238500   -1.362670  -59.108400
  H    -84.200800    1.036820  -66.162500
  H    -84.629700   -6.324040  -62.506300

 Total Charge           Charge          ....    0
 Multiplicity           Mult            ....    1
 Number of Electrons    NEL             ....  134
 Basis Dimension        Dim             ....  322

ORBITAL ENERGIES
----------------

  NO   OCC          E(Eh)            E(eV)
   0   2.0000     -88.967101     -2420.9179
   1   2.0000     -88.963722     -2420.8260
   2   2.0000     -10.333528      -281.1896
   3   2.0000     -10.318804      -280.7889
   4   2.0000     -10.318754      -280.7876
   5   2.0000     -10.311668      -280.5947
   6   2.0000     -10.309386      -280.5327
   7   2.0000     -10.307356      -280.4774
   8   2.0000     -10.302771      -280.3526
   9   2.0000     -10.300052      -280.2787
  10   2.0000     -10.295516      -280.1552
  11   2.0000     -10.294083      -280.1162
  12   2.0000     -10.291351      -280.0419
  13   2.0000     -10.290657      -280.0230
  14   2.0000     -10.282523      -279.8017
  15   2.0000     -10.278624      -279.6956
  16   2.0000      -8.080645      -219.8855
  17   2.0000      -8.079673      -219.8591
  18   2.0000      -6.039285      -164.3373
  19   2.0000      -6.037964      -164.3014
  20   2.0000      -6.035294      -164.2287
  21   2.0000      -6.034184      -164.1985
  22   2.0000      -6.031346      -164.1213
  23   2.0000      -6.030399      -164.0955
  24   2.0000      -1.009092       -27.4588
  25   2.0000      -0.978102       -26.6155
  26   2.0000      -0.912611       -24.8334
  27   2.0000      -0.894285       -24.3347
  28   2.0000      -0.870650       -23.6916
  29   2.0000      -0.843123       -22.9425
  30   2.0000      -0.841333       -22.8938
  31   2.0000      -0.806794       -21.9540
  32   2.0000      -0.782840       -21.3021
  33   2.0000      -0.772890       -21.0314
  34   2.0000      -0.707956       -19.2645
  35   2.0000      -0.696639       -18.9565
  36   2.0000      -0.686279       -18.6746
  37   2.0000      -0.660033       -17.9604
  38   2.0000      -0.635873       -17.3030
  39   2.0000      -0.614544       -16.7226
  40   2.0000      -0.588362       -16.0101
  41   2.0000      -0.569502       -15.4970
  42   2.0000      -0.555232       -15.1086
  43   2.0000      -0.547806       -14.9066
  44   2.0000      -0.545286       -14.8380
  45   2.0000      -0.532246       -14.4832
  46   2.0000      -0.516917       -14.0660
  47   2.0000      -0.511820       -13.9273
  48   2.0000      -0.499254       -13.5854
  49   2.0000      -0.491307       -13.3691
  50   2.0000      -0.484241       -13.1769
  51   2.0000      -0.474865       -12.9217
  52   2.0000      -0.471632       -12.8338
  53   2.0000      -0.460371       -12.5273
  54   2.0000      -0.457489       -12.4489
  55   2.0000      -0.445387       -12.1196
  56   2.0000      -0.441154       -12.0044
  57   2.0000      -0.435490       -11.8503
  58   2.0000      -0.433202       -11.7880
  59   2.0000      -0.428326       -11.6553
  60   2.0000      -0.421764       -11.4768
  61   2.0000      -0.409833       -11.1521
  62   2.0000      -0.406122       -11.0511
  63   2.0000      -0.336543        -9.1578
  64   2.0000      -0.334022        -9.0892
  65   2.0000      -0.325848        -8.8668
  66   2.0000      -0.297273        -8.0892
  67   0.0000       0.025158         0.6846
  68   0.0000       0.066753         1.8165
  69   0.0000       0.106846         2.9074
  70   0.0000       0.111904         3.0451
  71   0.0000       0.129935         3.5357

MULLIKEN ATOMIC CHARGES
-----------------------
   0 S :    0.102979
   1 C :   -0.078180
   2 C :   -0.143481
   3 C :    0.041187
   4 C :   -0.161985
   5 H :    0.025981
   6 C :    0.095396
   7 H :    0.012727
   8 H :    0.009719
   9 C :   -0.033625
  10 H :    0.032456
  11 H :    0.040940
  12 C :   -0.096501
  13 H :    0.040004
  14 H :    0.033287
  15 H :    0.041395
  16 S :    0.124859
  17 C :   -0.120710
  18 C :   -0.055936
  19 C :   -0.001196
  20 C :   -0.184733
  21 H :    0.021052
  22 C :    0.039408
  23 H :    0.031665
  24 H :    0.036692
  25 C :   -0.055410
  26 H :    0.042051
  27 H :    0.038910
  28 C :   -0.077728
  29 H :    0.036586
  30 H :    0.029801
  31 H :    0.038369
  32 H :    0.018193
  33 H :    0.075827
Sum of atomic charges:   -0.0000000

LOEWDIN ATOMIC CHARGES
----------------------
   0 S :    0.386258
   1 C :   -0.174587
   2 C :   -0.056996
   3 C :   -0.065824
   4 C :   -0.196913
   5 H :    0.030991
   6 C :   -0.025561
   7 H :    0.021221
   8 H :    0.031416
   9 C :   -0.041706
  10 H :    0.026076
  11 H :    0.031455
  12 C :   -0.076211
  13 H :    0.030797
  14 H :    0.024019
  15 H :    0.031139
  16 S :    0.430496
  17 C :   -0.195906
  18 C :   -0.075110
  19 C :   -0.054423
  20 C :   -0.220500
  21 H :    0.033213
  22 C :   -0.029982
  23 H :    0.029780
  24 H :    0.035015
  25 C :   -0.036607
  26 H :    0.030144
  27 H :    0.023299
  28 C :   -0.076362
  29 H :    0.028712
  30 H :    0.024031
  31 H :    0.028028
  32 H :    0.012066
  33 H :    0.038534

  Mayer bond orders larger than 0.100000
B(  0-S ,  1-C ) :   1.1068 B(  0-S ,  4-C ) :   1.1647 B(  1-C ,  2-C ) :   1.6418
B(  1-C , 32-H ) :   0.9730 B(  2-C ,  3-C ) :   1.2364 B(  2-C ,  6-C ) :   0.9976
B(  3-C ,  4-C ) :   1.5472 B(  3-C ,  5-H ) :   0.9854 B(  4-C , 20-C ) :   1.0315
B(  6-C ,  7-H ) :   0.9412 B(  6-C ,  8-H ) :   0.9426 B(  6-C ,  9-C ) :   1.0656
B(  9-C , 10-H ) :   0.9570 B(  9-C , 11-H ) :   0.9591 B(  9-C , 12-C ) :   1.0619
B( 12-C , 13-H ) :   0.9761 B( 12-C , 14-H ) :   0.9756 B( 12-C , 15-H ) :   0.9772
B( 16-S , 17-C ) :   1.1596 B( 16-S , 20-C ) :   1.1770 B( 17-C , 18-C ) :   1.5930
B( 17-C , 20-C ) :   0.1054 B( 17-C , 33-H ) :   0.9643 B( 18-C , 19-C ) :   1.2429
B( 18-C , 21-H ) :   0.9959 B( 19-C , 20-C ) :   1.5800 B( 19-C , 22-C ) :   1.0168
B( 22-C , 23-H ) :   0.9441 B( 22-C , 24-H ) :   0.9364 B( 22-C , 25-C ) :   1.0681
B( 25-C , 26-H ) :   0.9566 B( 25-C , 27-H ) :   0.9578 B( 25-C , 28-C ) :   1.0686
B( 28-C , 29-H ) :   0.9726 B( 28-C , 30-H ) :   0.9762 B( 28-C , 31-H ) :   0.9741

Dispersion correction           -0.015462742
FINAL SINGLE POINT ENERGY     -1339.860946844116

DIPOLE MOMENT
-------------
                                X             Y             Z
Electronic contribution:     14.83538     -18.99036      -9.47536
Nuclear contribution   :    -15.41438      19.29213       9.67856
                        -----------------------------------------
Total Dipole Moment    :     -0.57900       0.30177       0.20320
                        -----------------------------------------
Magnitude (a.u.)       :      0.68381
Magnitude (Debye)      :      1.73811

Rotational constants in cm-1:     0.020587     0.008876     0.007324
Rotational constants in MHz :   617.180689   266.094228   219.566054

                             ****ORCA TERMINATED NORMALLY****
TOTAL RUN TIME: 0 days 0 hours 0 minutes 22 seconds 233 msec
