                         Program Version 4.2.1 -  RELEASE  -
|  1> ! wB97X-D3 SP def2-SVP
|  2> %pal
|  3> nprocs 24
|  4> end
|  5>
|  6> * xyz 0 1
|  7> S 	 -135.287 	 68.0705 	 -62.9107
|  8> C 	 -137.016 	 68.0095 	 -63.0876
|  9> C 	 -137.681 	 67.4493 	 -62.0252
| 10> C 	 -136.743 	 67.1137 	 -60.988
| 11> C 	 -135.424 	 67.4931 	 -61.2571
| 12> H 	 -136.968 	 66.6976 	 -60.0167
| 13> C 	 -139.179 	 67.2824 	 -61.8748
| 14> H 	 -139.303 	 66.3122 	 -61.3848
| 15> H 	 -139.527 	 67.1377 	 -62.8575
| 16> C 	 -139.945 	 68.4919 	 -61.2358
| 17> H 	 -139.505 	 69.3703 	 -61.7211
| 18> H 	 -140.972 	 68.3392 	 -61.5245
| 19> C 	 -139.827 	 68.6837 	 -59.7132
| 20> H 	 -140.552 	 69.4345 	 -59.3462
| 21> H 	 -139.921 	 67.7052 	 -59.2137
| 22> H 	 -138.889 	 69.0229 	 -59.3692
| 23> S 	 -133.247 	 66.0041 	 -60.767
| 24> C 	 -132.151 	 66.4618 	 -59.515
| 25> C 	 -132.656 	 67.5483 	 -58.7642
| 26> C 	 -133.845 	 68.0952 	 -59.3392
| 27> C 	 -134.266 	 67.2943 	 -60.3788
| 28> H 	 -131.976 	 67.9314 	 -58.0407
| 29> C 	 -134.582 	 69.3627 	 -58.76
| 30> H 	 -135.533 	 69.606 	 -59.2612
| 31> H 	 -133.978 	 70.2691 	 -58.8891
| 32> C 	 -134.881 	 69.2152 	 -57.3099
| 33> H 	 -135.459 	 70.1533 	 -57.1483
| 34> H 	 -133.914 	 69.3086 	 -56.8561
| 35> C 	 -135.52 	 67.9572 	 -56.849
| 36> H 	 -134.699 	 67.1335 	 -56.8191
| 37> H 	 -136.383 	 67.7117 	 -57.4916
| 38> H 	 -135.984 	 68.1362 	 -55.8684
| 39> H 	 -137.498 	 68.5198 	 -63.8823
| 40> H 	 -131.103 	 66.1638 	 -59.3352
| 41> *
| 42>
| 43>                          ****END OF INPUT****

CARTESIAN COORDINATES (ANGSTROEM)
---------------------------------
  S    -135.287000   68.070500  -62.910700
  C    -137.016000   68.009500  -63.087600
  C    -137.681000   67.449300  -62.025200
  C    -136.743000   67.113700  -60.988000
  C    -135.424000   67.493100  -61.257100
  H    -136.968000   66.697600  -60.016700
  C    -139.179000   67.282400  -61.874800
  H    -139.303000   66.312200  -61.384800
  H    -139.527000   67.137700  -62.857500
  C    -139.945000   68.491900  -61.235800
  H    -139.505000   69.370300  -61.721100
  H    -140.972000   68.339200  -61.524500
  C    -139.827000   68.683700  -59.713200
  H    -140.552000   69.434500  -59.346200
  H    -139.921000   67.705200  -59.213700
  H    -138.889000   69.022900  -59.369200
  S    -133.247000   66.004100  -60.767000
  C    -132.151000   66.461800  -59.515000
  C    -132.656000   67.548300  -58.764200
  C    -133.845000   68.095200  -59.339200
  C    -134.266000   67.294300  -60.378800
  H    -131.976000   67.931400  -58.040700
  C    -134.582000   69.362700  -58.760000
  H    -135.533000   69.606000  -59.261200
  H    -133.978000   70.269100  -58.889100
  C    -134.881000   69.215200  -57.309900
  H    -135.459000   70.153300  -57.148300
  H    -133.914000   69.308600  -56.856100
  C    -135.520000   67.957200  -56.849000
  H    -134.699000   67.133500  -56.819100
  H    -136.383000   67.711700  -57.491600
  H    -135.984000   68.136200  -55.868400
  H    -137.498000   68.519800  -63.882300
  H    -131.103000   66.163800  -59.335200

 Total Charge           Charge          ....    0
 Multiplicity           Mult            ....    1
 Number of Electrons    NEL             ....  134
 Basis Dimension        Dim             ....  322

ORBITAL ENERGIES
----------------

  NO   OCC          E(Eh)            E(eV)
   0   2.0000     -88.968124     -2420.9457
   1   2.0000     -88.964445     -2420.8456
   2   2.0000     -10.325445      -280.9696
   3   2.0000     -10.317665      -280.7579
   4   2.0000     -10.316893      -280.7369
   5   2.0000     -10.307849      -280.4908
   6   2.0000     -10.304795      -280.4077
   7   2.0000     -10.298322      -280.2316
   8   2.0000     -10.293433      -280.0986
   9   2.0000     -10.292822      -280.0819
  10   2.0000     -10.291471      -280.0452
  11   2.0000     -10.290820      -280.0274
  12   2.0000     -10.290327      -280.0140
  13   2.0000     -10.281389      -279.7708
  14   2.0000     -10.278755      -279.6991
  15   2.0000     -10.276556      -279.6393
  16   2.0000      -8.084111      -219.9798
  17   2.0000      -8.079305      -219.8491
  18   2.0000      -6.042386      -164.4217
  19   2.0000      -6.038414      -164.3136
  20   2.0000      -6.037735      -164.2951
  21   2.0000      -6.035059      -164.2223
  22   2.0000      -6.033838      -164.1891
  23   2.0000      -6.030119      -164.0879
  24   2.0000      -1.009769       -27.4772
  25   2.0000      -0.984662       -26.7940
  26   2.0000      -0.917589       -24.9689
  27   2.0000      -0.907982       -24.7074
  28   2.0000      -0.865946       -23.5636
  29   2.0000      -0.847491       -23.0614
  30   2.0000      -0.845927       -23.0189
  31   2.0000      -0.812227       -22.1018
  32   2.0000      -0.787928       -21.4406
  33   2.0000      -0.776379       -21.1263
  34   2.0000      -0.705397       -19.1948
  35   2.0000      -0.698243       -19.0001
  36   2.0000      -0.682149       -18.5622
  37   2.0000      -0.654147       -17.8003
  38   2.0000      -0.643288       -17.5048
  39   2.0000      -0.615605       -16.7515
  40   2.0000      -0.598555       -16.2875
  41   2.0000      -0.573232       -15.5984
  42   2.0000      -0.553593       -15.0640
  43   2.0000      -0.544899       -14.8275
  44   2.0000      -0.542841       -14.7715
  45   2.0000      -0.539683       -14.6855
  46   2.0000      -0.516407       -14.0521
  47   2.0000      -0.515676       -14.0323
  48   2.0000      -0.501017       -13.6334
  49   2.0000      -0.490655       -13.3514
  50   2.0000      -0.486663       -13.2428
  51   2.0000      -0.479738       -13.0543
  52   2.0000      -0.470730       -12.8092
  53   2.0000      -0.467116       -12.7109
  54   2.0000      -0.460617       -12.5340
  55   2.0000      -0.442812       -12.0495
  56   2.0000      -0.440406       -11.9841
  57   2.0000      -0.439562       -11.9611
  58   2.0000      -0.437364       -11.9013
  59   2.0000      -0.427613       -11.6360
  60   2.0000      -0.420977       -11.4554
  61   2.0000      -0.412552       -11.2261
  62   2.0000      -0.408551       -11.1172
  63   2.0000      -0.337442        -9.1823
  64   2.0000      -0.328242        -8.9319
  65   2.0000      -0.323076        -8.7913
  66   2.0000      -0.304624        -8.2892
  67   0.0000       0.044517         1.2114
  68   0.0000       0.058455         1.5906
  69   0.0000       0.119455         3.2505
  70   0.0000       0.120779         3.2866
  71   0.0000       0.124330         3.3832

MULLIKEN ATOMIC CHARGES
-----------------------
   0 S :    0.118805
   1 C :   -0.120957
   2 C :   -0.098005
   3 C :    0.041859
   4 C :   -0.178488
   5 H :    0.006400
   6 C :    0.085780
   7 H :    0.027771
   8 H :    0.007060
   9 C :   -0.046989
  10 H :    0.028991
  11 H :    0.035608
  12 C :   -0.040136
  13 H :    0.042701
  14 H :    0.025809
  15 H :    0.018344
  16 S :    0.147516
  17 C :   -0.117892
  18 C :   -0.058000
  19 C :   -0.009402
  20 C :   -0.206767
  21 H :    0.014979
  22 C :    0.088660
  23 H :    0.025178
  24 H :    0.032372
  25 C :   -0.108084
  26 H :    0.030322
  27 H :    0.020334
  28 C :   -0.036182
  29 H :    0.062230
  30 H :    0.023828
  31 H :    0.036148
  32 H :    0.035094
  33 H :    0.065114
Sum of atomic charges:    0.0000000

LOEWDIN ATOMIC CHARGES
----------------------
   0 S :    0.405648
   1 C :   -0.195195
   2 C :   -0.065267
   3 C :   -0.057970
   4 C :   -0.198431
   5 H :    0.027491
   6 C :   -0.028726
   7 H :    0.032217
   8 H :    0.025510
   9 C :   -0.031625
  10 H :    0.027881
  11 H :    0.024425
  12 C :   -0.067622
  13 H :    0.032960
  14 H :    0.026225
  15 H :    0.016670
  16 S :    0.452839
  17 C :   -0.206829
  18 C :   -0.074187
  19 C :   -0.051150
  20 C :   -0.229225
  21 H :    0.026016
  22 C :   -0.026611
  23 H :    0.027549
  24 H :    0.033886
  25 C :   -0.055232
  26 H :    0.029485
  27 H :    0.017965
  28 C :   -0.072034
  29 H :    0.044219
  30 H :    0.023579
  31 H :    0.029846
  32 H :    0.018668
  33 H :    0.037024

  Mayer bond orders larger than 0.100000
B(  0-S ,  1-C ) :   1.1479 B(  0-S ,  4-C ) :   1.1527 B(  1-C ,  2-C ) :   1.6195
B(  1-C , 32-H ) :   0.9675 B(  2-C ,  3-C ) :   1.2305 B(  2-C ,  6-C ) :   1.0203
B(  3-C ,  4-C ) :   1.5927 B(  3-C ,  5-H ) :   0.9933 B(  4-C , 20-C ) :   0.9999
B(  6-C ,  7-H ) :   0.9400 B(  6-C ,  8-H ) :   0.9315 B(  6-C ,  9-C ) :   1.0634
B(  9-C , 10-H ) :   0.9538 B(  9-C , 11-H ) :   0.9589 B(  9-C , 12-C ) :   1.0794
B( 12-C , 13-H ) :   0.9724 B( 12-C , 14-H ) :   0.9749 B( 12-C , 15-H ) :   0.9742
B( 16-S , 17-C ) :   1.1658 B( 16-S , 20-C ) :   1.1804 B( 17-C , 18-C ) :   1.6111
B( 17-C , 33-H ) :   0.9622 B( 18-C , 19-C ) :   1.2396 B( 18-C , 21-H ) :   0.9878
B( 19-C , 20-C ) :   1.5998 B( 19-C , 22-C ) :   1.0219 B( 22-C , 23-H ) :   0.9382
B( 22-C , 24-H ) :   0.9388 B( 22-C , 25-C ) :   1.0758 B( 25-C , 26-H ) :   0.9533
B( 25-C , 27-H ) :   0.9506 B( 25-C , 28-C ) :   1.0894 B( 28-C , 29-H ) :   0.9609
B( 28-C , 30-H ) :   0.9729 B( 28-C , 31-H ) :   0.9678

Dispersion correction           -0.015620936
FINAL SINGLE POINT ENERGY     -1339.875875444098

DIPOLE MOMENT
-------------
                                X             Y             Z
Electronic contribution:     19.80162      -9.41772     -18.12779
Nuclear contribution   :    -20.12620       9.75989      18.46892
                        -----------------------------------------
Total Dipole Moment    :     -0.32457       0.34217       0.34113
                        -----------------------------------------
Magnitude (a.u.)       :      0.58207
Magnitude (Debye)      :      1.47950

Rotational constants in cm-1:     0.018607     0.009978     0.007373
Rotational constants in MHz :   557.832153   299.120001   221.034801

                             ****ORCA TERMINATED NORMALLY****
TOTAL RUN TIME: 0 days 0 hours 0 minutes 22 seconds 642 msec
