                         Program Version 4.2.1 -  RELEASE  -
|  1> ! wB97X-D3 SP def2-SVP
|  2> %pal
|  3> nprocs 24
|  4> end
|  5>
|  6> * xyz 0 1
|  7> S 	 -63.9115 	 15.8924 	 -88.2744
|  8> C 	 -65.0782 	 17.1184 	 -87.8371
|  9> C 	 -66.0958 	 16.6662 	 -86.9375
| 10> C 	 -65.7403 	 15.339 	 -86.5161
| 11> C 	 -64.622 	 14.8173 	 -87.045
| 12> H 	 -66.3562 	 14.761 	 -85.8435
| 13> C 	 -67.3739 	 17.3479 	 -86.5702
| 14> H 	 -67.5327 	 18.2098 	 -87.2503
| 15> H 	 -67.2058 	 17.7226 	 -85.5394
| 16> C 	 -68.6469 	 16.5205 	 -86.6019
| 17> H 	 -68.4738 	 15.6602 	 -86.075
| 18> H 	 -69.4614 	 17.1251 	 -86.1567
| 19> C 	 -69.056 	 16.0489 	 -87.9802
| 20> H 	 -70.006 	 15.5114 	 -88.0749
| 21> H 	 -69.1584 	 17.0162 	 -88.507
| 22> H 	 -68.1779 	 15.5711 	 -88.3985
| 23> S 	 -64.4763 	 12.2562 	 -88.1632
| 24> C 	 -63.4979 	 11.0845 	 -87.383
| 25> C 	 -62.8116 	 11.518 	 -86.3104
| 26> C 	 -63.2011 	 12.8346 	 -85.9159
| 27> C 	 -64.0923 	 13.4392 	 -86.8498
| 28> H 	 -62.097 	 10.8401 	 -85.8434
| 29> C 	 -62.5677 	 13.5426 	 -84.769
| 30> H 	 -62.3826 	 12.8309 	 -83.9268
| 31> H 	 -63.3042 	 14.2728 	 -84.3018
| 32> C 	 -61.3031 	 14.2089 	 -85.1681
| 33> H 	 -61.6799 	 14.7869 	 -86.0342
| 34> H 	 -60.5718 	 13.531 	 -85.4689
| 35> C 	 -60.7501 	 15.0794 	 -84.099
| 36> H 	 -60.2775 	 14.5467 	 -83.2843
| 37> H 	 -61.4597 	 15.801 	 -83.6713
| 38> H 	 -59.9809 	 15.7206 	 -84.4675
| 39> H 	 -65.0956 	 18.1336 	 -88.2629
| 40> H 	 -63.3761 	 10.1064 	 -87.6772
| 41> *
| 42>
| 43>                          ****END OF INPUT****

CARTESIAN COORDINATES (ANGSTROEM)
---------------------------------
  S    -63.911500   15.892400  -88.274400
  C    -65.078200   17.118400  -87.837100
  C    -66.095800   16.666200  -86.937500
  C    -65.740300   15.339000  -86.516100
  C    -64.622000   14.817300  -87.045000
  H    -66.356200   14.761000  -85.843500
  C    -67.373900   17.347900  -86.570200
  H    -67.532700   18.209800  -87.250300
  H    -67.205800   17.722600  -85.539400
  C    -68.646900   16.520500  -86.601900
  H    -68.473800   15.660200  -86.075000
  H    -69.461400   17.125100  -86.156700
  C    -69.056000   16.048900  -87.980200
  H    -70.006000   15.511400  -88.074900
  H    -69.158400   17.016200  -88.507000
  H    -68.177900   15.571100  -88.398500
  S    -64.476300   12.256200  -88.163200
  C    -63.497900   11.084500  -87.383000
  C    -62.811600   11.518000  -86.310400
  C    -63.201100   12.834600  -85.915900
  C    -64.092300   13.439200  -86.849800
  H    -62.097000   10.840100  -85.843400
  C    -62.567700   13.542600  -84.769000
  H    -62.382600   12.830900  -83.926800
  H    -63.304200   14.272800  -84.301800
  C    -61.303100   14.208900  -85.168100
  H    -61.679900   14.786900  -86.034200
  H    -60.571800   13.531000  -85.468900
  C    -60.750100   15.079400  -84.099000
  H    -60.277500   14.546700  -83.284300
  H    -61.459700   15.801000  -83.671300
  H    -59.980900   15.720600  -84.467500
  H    -65.095600   18.133600  -88.262900
  H    -63.376100   10.106400  -87.677200

 Total Charge           Charge          ....    0
 Multiplicity           Mult            ....    1
 Number of Electrons    NEL             ....  134
 Basis Dimension        Dim             ....  322

ORBITAL ENERGIES
----------------

  NO   OCC          E(Eh)            E(eV)
   0   2.0000     -88.969631     -2420.9867
   1   2.0000     -88.963756     -2420.8269
   2   2.0000     -10.331532      -281.1353
   3   2.0000     -10.329467      -281.0791
   4   2.0000     -10.321616      -280.8655
   5   2.0000     -10.306951      -280.4664
   6   2.0000     -10.306535      -280.4551
   7   2.0000     -10.304822      -280.4085
   8   2.0000     -10.297135      -280.1993
   9   2.0000     -10.292577      -280.0753
  10   2.0000     -10.288352      -279.9603
  11   2.0000     -10.287843      -279.9464
  12   2.0000     -10.279870      -279.7295
  13   2.0000     -10.273977      -279.5691
  14   2.0000     -10.272460      -279.5279
  15   2.0000     -10.267691      -279.3981
  16   2.0000      -8.083646      -219.9672
  17   2.0000      -8.078391      -219.8242
  18   2.0000      -6.042146      -164.4151
  19   2.0000      -6.038373      -164.3125
  20   2.0000      -6.036840      -164.2708
  21   2.0000      -6.034330      -164.2025
  22   2.0000      -6.032967      -164.1654
  23   2.0000      -6.029177      -164.0623
  24   2.0000      -1.001471       -27.2514
  25   2.0000      -0.982899       -26.7460
  26   2.0000      -0.920312       -25.0430
  27   2.0000      -0.919631       -25.0244
  28   2.0000      -0.865628       -23.5549
  29   2.0000      -0.851761       -23.1776
  30   2.0000      -0.849613       -23.1192
  31   2.0000      -0.817660       -22.2497
  32   2.0000      -0.783387       -21.3170
  33   2.0000      -0.768510       -20.9122
  34   2.0000      -0.708185       -19.2707
  35   2.0000      -0.694837       -18.9075
  36   2.0000      -0.688873       -18.7452
  37   2.0000      -0.656446       -17.8628
  38   2.0000      -0.639448       -17.4003
  39   2.0000      -0.627684       -17.0802
  40   2.0000      -0.599614       -16.3163
  41   2.0000      -0.574350       -15.6289
  42   2.0000      -0.568424       -15.4676
  43   2.0000      -0.560869       -15.2620
  44   2.0000      -0.545524       -14.8445
  45   2.0000      -0.519869       -14.1464
  46   2.0000      -0.515538       -14.0285
  47   2.0000      -0.509974       -13.8771
  48   2.0000      -0.508291       -13.8313
  49   2.0000      -0.491331       -13.3698
  50   2.0000      -0.486888       -13.2489
  51   2.0000      -0.476467       -12.9653
  52   2.0000      -0.473118       -12.8742
  53   2.0000      -0.460044       -12.5184
  54   2.0000      -0.459696       -12.5090
  55   2.0000      -0.449704       -12.2371
  56   2.0000      -0.446427       -12.1479
  57   2.0000      -0.442417       -12.0388
  58   2.0000      -0.432930       -11.7806
  59   2.0000      -0.426851       -11.6152
  60   2.0000      -0.421510       -11.4699
  61   2.0000      -0.413436       -11.2502
  62   2.0000      -0.406802       -11.0696
  63   2.0000      -0.341428        -9.2907
  64   2.0000      -0.330174        -8.9845
  65   2.0000      -0.320646        -8.7252
  66   2.0000      -0.301740        -8.2108
  67   0.0000       0.044099         1.2000
  68   0.0000       0.048460         1.3187
  69   0.0000       0.110708         3.0125
  70   0.0000       0.118405         3.2220
  71   0.0000       0.127458         3.4683

MULLIKEN ATOMIC CHARGES
-----------------------
   0 S :    0.124569
   1 C :   -0.129601
   2 C :   -0.120468
   3 C :    0.045381
   4 C :   -0.157227
   5 H :    0.011434
   6 C :    0.064637
   7 H :    0.020795
   8 H :    0.048744
   9 C :   -0.056641
  10 H :    0.007793
  11 H :    0.036492
  12 C :   -0.051686
  13 H :    0.051204
  14 H :    0.013247
  15 H :    0.042749
  16 S :    0.105875
  17 C :   -0.040744
  18 C :   -0.047787
  19 C :   -0.012469
  20 C :   -0.190711
  21 H :    0.021650
  22 C :    0.025759
  23 H :    0.016698
  24 H :    0.033694
  25 C :   -0.029869
  26 H :    0.024264
  27 H :    0.013936
  28 C :   -0.012960
  29 H :    0.022865
  30 H :    0.024171
  31 H :    0.019548
  32 H :    0.055730
  33 H :    0.018928
Sum of atomic charges:   -0.0000000

LOEWDIN ATOMIC CHARGES
----------------------
   0 S :    0.397776
   1 C :   -0.199598
   2 C :   -0.065887
   3 C :   -0.056829
   4 C :   -0.195267
   5 H :    0.031715
   6 C :   -0.033600
   7 H :    0.031096
   8 H :    0.041977
   9 C :   -0.037766
  10 H :    0.006954
  11 H :    0.030361
  12 C :   -0.064380
  13 H :    0.030137
  14 H :    0.024261
  15 H :    0.028257
  16 S :    0.395348
  17 C :   -0.176506
  18 C :   -0.076462
  19 C :   -0.042695
  20 C :   -0.191967
  21 H :    0.036060
  22 C :   -0.041340
  23 H :    0.026961
  24 H :    0.037020
  25 C :   -0.038377
  26 H :    0.029649
  27 H :    0.018480
  28 C :   -0.064027
  29 H :    0.023601
  30 H :    0.027341
  31 H :    0.024153
  32 H :    0.029725
  33 H :    0.013830

  Mayer bond orders larger than 0.100000
B(  0-S ,  1-C ) :   1.1516 B(  0-S ,  4-C ) :   1.1268 B(  1-C ,  2-C ) :   1.6049
B(  1-C , 32-H ) :   0.9606 B(  2-C ,  3-C ) :   1.2213 B(  2-C ,  6-C ) :   1.0244
B(  3-C ,  4-C ) :   1.6330 B(  3-C ,  5-H ) :   0.9910 B(  4-C , 20-C ) :   1.0066
B(  6-C ,  7-H ) :   0.9431 B(  6-C ,  8-H ) :   0.9259 B(  6-C ,  9-C ) :   1.0832
B(  9-C , 10-H ) :   0.9510 B(  9-C , 11-H ) :   0.9526 B(  9-C , 12-C ) :   1.0689
B( 12-C , 13-H ) :   0.9741 B( 12-C , 14-H ) :   0.9739 B( 12-C , 15-H ) :   0.9747
B( 16-S , 17-C ) :   1.1584 B( 16-S , 20-C ) :   1.1337 B( 17-C , 18-C ) :   1.6391
B( 17-C , 33-H ) :   0.9668 B( 18-C , 19-C ) :   1.2275 B( 18-C , 21-H ) :   0.9889
B( 19-C , 20-C ) :   1.5946 B( 19-C , 22-C ) :   1.0629 B( 22-C , 23-H ) :   0.9247
B( 22-C , 24-H ) :   0.9319 B( 22-C , 25-C ) :   1.0677 B( 25-C , 26-H ) :   0.9472
B( 25-C , 27-H ) :   0.9490 B( 25-C , 28-C ) :   1.1004 B( 28-C , 29-H ) :   0.9693
B( 28-C , 30-H ) :   0.9698 B( 28-C , 31-H ) :   0.9683

Dispersion correction           -0.014522979
FINAL SINGLE POINT ENERGY     -1339.871211754279

DIPOLE MOMENT
-------------
                                X             Y             Z
Electronic contribution:      4.62895      -9.40981     -13.44793
Nuclear contribution   :     -4.72627       9.49136      13.83719
                        -----------------------------------------
Total Dipole Moment    :     -0.09732       0.08154       0.38926
                        -----------------------------------------
Magnitude (a.u.)       :      0.40945
Magnitude (Debye)      :      1.04073

Rotational constants in cm-1:     0.019335     0.008593     0.007167
Rotational constants in MHz :   579.662926   257.611920   214.851787

                             ****ORCA TERMINATED NORMALLY****
TOTAL RUN TIME: 0 days 0 hours 0 minutes 21 seconds 605 msec
