                         Program Version 4.2.1 -  RELEASE  -
|  1> ! wB97X-D3 SP def2-SVP
|  2> %pal
|  3> nprocs 24
|  4> end
|  5>
|  6> * xyz 0 1
|  7> S 	 -121.001 	 54.0299 	 -33.2408
|  8> C 	 -119.844 	 52.7392 	 -33.3742
|  9> C 	 -119.279 	 52.5746 	 -34.6119
| 10> C 	 -119.695 	 53.6171 	 -35.4993
| 11> C 	 -120.803 	 54.188 	 -34.9703
| 12> H 	 -119.371 	 53.7946 	 -36.5391
| 13> C 	 -118.213 	 51.4789 	 -34.8929
| 14> H 	 -117.837 	 50.8967 	 -34.0228
| 15> H 	 -117.295 	 52.0688 	 -35.1916
| 16> C 	 -118.524 	 50.5204 	 -36.0294
| 17> H 	 -118.481 	 51.0494 	 -36.9594
| 18> H 	 -117.653 	 49.8979 	 -36.1057
| 19> C 	 -119.79 	 49.6664 	 -35.8821
| 20> H 	 -120.604 	 50.18 	 -36.2922
| 21> H 	 -119.748 	 48.753 	 -36.547
| 22> H 	 -119.995 	 49.276 	 -34.8481
| 23> S 	 -121.824 	 56.7109 	 -35.0608
| 24> C 	 -122.907 	 57.1398 	 -36.3554
| 25> C 	 -123.202 	 56.0934 	 -37.2082
| 26> C 	 -122.489 	 54.8917 	 -36.8265
| 27> C 	 -121.69 	 55.0924 	 -35.7019
| 28> H 	 -123.931 	 56.2493 	 -37.9616
| 29> C 	 -122.696 	 53.5785 	 -37.5799
| 30> H 	 -121.878 	 52.9224 	 -37.1777
| 31> H 	 -122.545 	 53.7939 	 -38.6155
| 32> C 	 -124.122 	 52.9893 	 -37.4243
| 33> H 	 -124.817 	 53.6866 	 -37.7903
| 34> H 	 -124.488 	 52.7908 	 -36.4237
| 35> C 	 -124.208 	 51.6299 	 -38.2188
| 36> H 	 -125.178 	 51.227 	 -38.1052
| 37> H 	 -123.457 	 50.9037 	 -37.9057
| 38> H 	 -124.124 	 51.7643 	 -39.3026
| 39> H 	 -119.689 	 51.9711 	 -32.5812
| 40> H 	 -123.519 	 57.994 	 -36.3377
| 41> *
| 42>
| 43>                          ****END OF INPUT****

CARTESIAN COORDINATES (ANGSTROEM)
---------------------------------
  S    -121.001000   54.029900  -33.240800
  C    -119.844000   52.739200  -33.374200
  C    -119.279000   52.574600  -34.611900
  C    -119.695000   53.617100  -35.499300
  C    -120.803000   54.188000  -34.970300
  H    -119.371000   53.794600  -36.539100
  C    -118.213000   51.478900  -34.892900
  H    -117.837000   50.896700  -34.022800
  H    -117.295000   52.068800  -35.191600
  C    -118.524000   50.520400  -36.029400
  H    -118.481000   51.049400  -36.959400
  H    -117.653000   49.897900  -36.105700
  C    -119.790000   49.666400  -35.882100
  H    -120.604000   50.180000  -36.292200
  H    -119.748000   48.753000  -36.547000
  H    -119.995000   49.276000  -34.848100
  S    -121.824000   56.710900  -35.060800
  C    -122.907000   57.139800  -36.355400
  C    -123.202000   56.093400  -37.208200
  C    -122.489000   54.891700  -36.826500
  C    -121.690000   55.092400  -35.701900
  H    -123.931000   56.249300  -37.961600
  C    -122.696000   53.578500  -37.579900
  H    -121.878000   52.922400  -37.177700
  H    -122.545000   53.793900  -38.615500
  C    -124.122000   52.989300  -37.424300
  H    -124.817000   53.686600  -37.790300
  H    -124.488000   52.790800  -36.423700
  C    -124.208000   51.629900  -38.218800
  H    -125.178000   51.227000  -38.105200
  H    -123.457000   50.903700  -37.905700
  H    -124.124000   51.764300  -39.302600
  H    -119.689000   51.971100  -32.581200
  H    -123.519000   57.994000  -36.337700

 Total Charge           Charge          ....    0
 Multiplicity           Mult            ....    1
 Number of Electrons    NEL             ....  134
 Basis Dimension        Dim             ....  322

ORBITAL ENERGIES
----------------

  NO   OCC          E(Eh)            E(eV)
   0   2.0000     -88.966641     -2420.9054
   1   2.0000     -88.962415     -2420.7904
   2   2.0000     -10.325095      -280.9601
   3   2.0000     -10.321081      -280.8509
   4   2.0000     -10.309644      -280.5397
   5   2.0000     -10.308684      -280.5135
   6   2.0000     -10.303850      -280.3820
   7   2.0000     -10.301673      -280.3228
   8   2.0000     -10.299857      -280.2734
   9   2.0000     -10.296198      -280.1738
  10   2.0000     -10.292748      -280.0799
  11   2.0000     -10.291682      -280.0509
  12   2.0000     -10.285156      -279.8733
  13   2.0000     -10.282541      -279.8022
  14   2.0000     -10.280175      -279.7378
  15   2.0000     -10.275759      -279.6176
  16   2.0000      -8.082039      -219.9235
  17   2.0000      -8.077634      -219.8036
  18   2.0000      -6.040338      -164.3659
  19   2.0000      -6.036931      -164.2733
  20   2.0000      -6.036100      -164.2506
  21   2.0000      -6.032490      -164.1524
  22   2.0000      -6.032140      -164.1429
  23   2.0000      -6.028361      -164.0401
  24   2.0000      -1.010518       -27.4976
  25   2.0000      -0.983742       -26.7690
  26   2.0000      -0.909276       -24.7426
  27   2.0000      -0.903252       -24.5787
  28   2.0000      -0.866903       -23.5896
  29   2.0000      -0.853374       -23.2215
  30   2.0000      -0.844631       -22.9836
  31   2.0000      -0.813540       -22.1375
  32   2.0000      -0.783576       -21.3222
  33   2.0000      -0.769559       -20.9408
  34   2.0000      -0.709636       -19.3102
  35   2.0000      -0.700263       -19.0551
  36   2.0000      -0.688345       -18.7308
  37   2.0000      -0.660624       -17.9765
  38   2.0000      -0.637202       -17.3391
  39   2.0000      -0.621222       -16.9043
  40   2.0000      -0.590233       -16.0611
  41   2.0000      -0.567074       -15.4309
  42   2.0000      -0.558694       -15.2028
  43   2.0000      -0.549552       -14.9541
  44   2.0000      -0.541429       -14.7330
  45   2.0000      -0.523907       -14.2562
  46   2.0000      -0.512379       -13.9426
  47   2.0000      -0.509217       -13.8565
  48   2.0000      -0.501306       -13.6412
  49   2.0000      -0.490313       -13.3421
  50   2.0000      -0.486441       -13.2367
  51   2.0000      -0.480557       -13.0766
  52   2.0000      -0.466513       -12.6945
  53   2.0000      -0.464705       -12.6453
  54   2.0000      -0.461227       -12.5506
  55   2.0000      -0.456709       -12.4277
  56   2.0000      -0.445844       -12.1320
  57   2.0000      -0.441603       -12.0166
  58   2.0000      -0.435645       -11.8545
  59   2.0000      -0.425447       -11.5770
  60   2.0000      -0.423005       -11.5106
  61   2.0000      -0.415036       -11.2937
  62   2.0000      -0.413306       -11.2466
  63   2.0000      -0.340962        -9.2781
  64   2.0000      -0.331684        -9.0256
  65   2.0000      -0.327389        -8.9087
  66   2.0000      -0.292205        -7.9513
  67   0.0000       0.033635         0.9153
  68   0.0000       0.069463         1.8902
  69   0.0000       0.104998         2.8571
  70   0.0000       0.121524         3.3068
  71   0.0000       0.124162         3.3786

MULLIKEN ATOMIC CHARGES
-----------------------
   0 S :    0.118564
   1 C :   -0.124764
   2 C :   -0.074245
   3 C :    0.035637
   4 C :   -0.169811
   5 H :    0.036274
   6 C :    0.019731
   7 H :    0.030124
   8 H :    0.038777
   9 C :   -0.048315
  10 H :    0.015022
  11 H :    0.017504
  12 C :   -0.046253
  13 H :    0.027432
  14 H :    0.030530
  15 H :    0.042377
  16 S :    0.098528
  17 C :   -0.070042
  18 C :   -0.040286
  19 C :   -0.034912
  20 C :   -0.173222
  21 H :    0.009784
  22 C :    0.081479
  23 H :    0.034458
  24 H :    0.022263
  25 C :   -0.059945
  26 H :    0.012574
  27 H :    0.032744
  28 C :   -0.042366
  29 H :    0.022159
  30 H :    0.038363
  31 H :    0.024253
  32 H :    0.054894
  33 H :    0.040691
Sum of atomic charges:    0.0000000

LOEWDIN ATOMIC CHARGES
----------------------
   0 S :    0.399866
   1 C :   -0.208612
   2 C :   -0.061476
   3 C :   -0.057688
   4 C :   -0.184412
   5 H :    0.040701
   6 C :   -0.035248
   7 H :    0.031745
   8 H :    0.040598
   9 C :   -0.046947
  10 H :    0.020291
  11 H :    0.022748
  12 C :   -0.068476
  13 H :    0.018088
  14 H :    0.033171
  15 H :    0.032178
  16 S :    0.401724
  17 C :   -0.181066
  18 C :   -0.065829
  19 C :   -0.054126
  20 C :   -0.205357
  21 H :    0.026442
  22 C :   -0.029051
  23 H :    0.034120
  24 H :    0.028497
  25 C :   -0.029467
  26 H :    0.015670
  27 H :    0.026399
  28 C :   -0.062881
  29 H :    0.019356
  30 H :    0.026172
  31 H :    0.023644
  32 H :    0.031108
  33 H :    0.018118

  Mayer bond orders larger than 0.100000
B(  0-S ,  1-C ) :   1.1100 B(  0-S ,  4-C ) :   1.1496 B(  1-C ,  2-C ) :   1.6722
B(  1-C , 32-H ) :   0.9565 B(  2-C ,  3-C ) :   1.1831 B(  2-C ,  6-C ) :   1.0101
B(  3-C ,  4-C ) :   1.6185 B(  3-C ,  5-H ) :   0.9860 B(  4-C , 20-C ) :   1.0126
B(  6-C ,  7-H ) :   0.9509 B(  6-C ,  8-H ) :   0.9376 B(  6-C ,  9-C ) :   1.0849
B(  9-C , 10-H ) :   0.9530 B(  9-C , 11-H ) :   0.9532 B(  9-C , 12-C ) :   1.0673
B( 12-C , 13-H ) :   0.9751 B( 12-C , 14-H ) :   0.9721 B( 12-C , 15-H ) :   0.9763
B( 16-S , 17-C ) :   1.1495 B( 16-S , 20-C ) :   1.1412 B( 17-C , 18-C ) :   1.6387
B( 17-C , 33-H ) :   0.9664 B( 18-C , 19-C ) :   1.2078 B( 18-C , 21-H ) :   0.9954
B( 19-C , 20-C ) :   1.6271 B( 19-C , 22-C ) :   1.0402 B( 22-C , 23-H ) :   0.9330
B( 22-C , 24-H ) :   0.9307 B( 22-C , 25-C ) :   1.0651 B( 25-C , 26-H ) :   0.9534
B( 25-C , 27-H ) :   0.9585 B( 25-C , 28-C ) :   1.0836 B( 28-C , 29-H ) :   0.9746
B( 28-C , 30-H ) :   0.9776 B( 28-C , 31-H ) :   0.9753

Dispersion correction           -0.014595062
FINAL SINGLE POINT ENERGY     -1339.868910381563

DIPOLE MOMENT
-------------
                                X             Y             Z
Electronic contribution:      1.08258      26.11389      16.45410
Nuclear contribution   :     -1.15764     -26.60705     -16.93119
                        -----------------------------------------
Total Dipole Moment    :     -0.07506      -0.49316      -0.47708
                        -----------------------------------------
Magnitude (a.u.)       :      0.69025
Magnitude (Debye)      :      1.75448

Rotational constants in cm-1:     0.016648     0.010239     0.007187
Rotational constants in MHz :   499.103142   306.949105   215.472331

                             ****ORCA TERMINATED NORMALLY****
TOTAL RUN TIME: 0 days 0 hours 0 minutes 22 seconds 171 msec
