                         Program Version 4.2.1 -  RELEASE  -
|  1> ! wB97X-D3 SP def2-SVP
|  2> %pal
|  3> nprocs 24
|  4> end
|  5>
|  6> * xyz 0 1
|  7> S 	 -65.9758 	 7.40782 	 -100.952
|  8> C 	 -64.857 	 7.85032 	 -99.7713
|  9> C 	 -65.5226 	 8.5518 	 -98.7293
| 10> C 	 -66.9297 	 8.40826 	 -98.7145
| 11> C 	 -67.3012 	 7.60839 	 -99.7819
| 12> H 	 -67.681 	 8.88738 	 -98.0612
| 13> C 	 -64.8572 	 9.33644 	 -97.6392
| 14> H 	 -63.7864 	 9.27792 	 -97.7441
| 15> H 	 -64.9632 	 9.00723 	 -96.6358
| 16> C 	 -65.1765 	 10.8436 	 -97.5829
| 17> H 	 -66.2984 	 10.9683 	 -97.4783
| 18> H 	 -64.8558 	 11.3944 	 -96.7334
| 19> C 	 -64.8002 	 11.681 	 -98.759
| 20> H 	 -65.2159 	 11.3114 	 -99.7704
| 21> H 	 -65.131 	 12.6556 	 -98.4984
| 22> H 	 -63.7024 	 11.7416 	 -98.9174
| 23> S 	 -69.1012 	 7.4818 	 -101.88
| 24> C 	 -70.7581 	 7.45048 	 -101.617
| 25> C 	 -71.0382 	 7.51073 	 -100.249
| 26> C 	 -69.8943 	 7.34337 	 -99.4209
| 27> C 	 -68.739 	 7.52335 	 -100.146
| 28> H 	 -72.0913 	 7.33689 	 -99.9579
| 29> C 	 -70.021 	 7.22262 	 -97.9526
| 30> H 	 -70.3923 	 8.26123 	 -97.6388
| 31> H 	 -69.0303 	 7.07836 	 -97.533
| 32> C 	 -70.9729 	 6.19291 	 -97.2981
| 33> H 	 -70.6223 	 5.25239 	 -97.7152
| 34> H 	 -71.904 	 6.35433 	 -97.7339
| 35> C 	 -70.8197 	 6.10269 	 -95.7207
| 36> H 	 -71.3506 	 5.24993 	 -95.3639
| 37> H 	 -71.2001 	 6.92748 	 -95.2218
| 38> H 	 -69.8086 	 6.0618 	 -95.3109
| 39> H 	 -63.7952 	 7.79616 	 -99.8544
| 40> H 	 -71.5896 	 7.44387 	 -102.356
| 41> *
| 42>
| 43>                          ****END OF INPUT****

CARTESIAN COORDINATES (ANGSTROEM)
---------------------------------
  S    -65.975800    7.407820  -100.952000
  C    -64.857000    7.850320  -99.771300
  C    -65.522600    8.551800  -98.729300
  C    -66.929700    8.408260  -98.714500
  C    -67.301200    7.608390  -99.781900
  H    -67.681000    8.887380  -98.061200
  C    -64.857200    9.336440  -97.639200
  H    -63.786400    9.277920  -97.744100
  H    -64.963200    9.007230  -96.635800
  C    -65.176500   10.843600  -97.582900
  H    -66.298400   10.968300  -97.478300
  H    -64.855800   11.394400  -96.733400
  C    -64.800200   11.681000  -98.759000
  H    -65.215900   11.311400  -99.770400
  H    -65.131000   12.655600  -98.498400
  H    -63.702400   11.741600  -98.917400
  S    -69.101200    7.481800  -101.880000
  C    -70.758100    7.450480  -101.617000
  C    -71.038200    7.510730  -100.249000
  C    -69.894300    7.343370  -99.420900
  C    -68.739000    7.523350  -100.146000
  H    -72.091300    7.336890  -99.957900
  C    -70.021000    7.222620  -97.952600
  H    -70.392300    8.261230  -97.638800
  H    -69.030300    7.078360  -97.533000
  C    -70.972900    6.192910  -97.298100
  H    -70.622300    5.252390  -97.715200
  H    -71.904000    6.354330  -97.733900
  C    -70.819700    6.102690  -95.720700
  H    -71.350600    5.249930  -95.363900
  H    -71.200100    6.927480  -95.221800
  H    -69.808600    6.061800  -95.310900
  H    -63.795200    7.796160  -99.854400
  H    -71.589600    7.443870  -102.356000

 Total Charge           Charge          ....    0
 Multiplicity           Mult            ....    1
 Number of Electrons    NEL             ....  134
 Basis Dimension        Dim             ....  322

ORBITAL ENERGIES
----------------

  NO   OCC          E(Eh)            E(eV)
   0   2.0000     -88.971927     -2421.0492
   1   2.0000     -88.963334     -2420.8154
   2   2.0000     -10.332589      -281.1640
   3   2.0000     -10.326100      -280.9875
   4   2.0000     -10.315411      -280.6966
   5   2.0000     -10.314720      -280.6778
   6   2.0000     -10.304269      -280.3934
   7   2.0000     -10.299273      -280.2575
   8   2.0000     -10.296719      -280.1880
   9   2.0000     -10.292191      -280.0648
  10   2.0000     -10.290160      -280.0095
  11   2.0000     -10.288164      -279.9552
  12   2.0000     -10.283988      -279.8415
  13   2.0000     -10.283717      -279.8342
  14   2.0000     -10.277932      -279.6767
  15   2.0000     -10.274919      -279.5948
  16   2.0000      -8.087141      -220.0623
  17   2.0000      -8.079167      -219.8453
  18   2.0000      -6.045672      -164.5111
  19   2.0000      -6.041857      -164.4073
  20   2.0000      -6.037607      -164.2916
  21   2.0000      -6.037567      -164.2905
  22   2.0000      -6.033536      -164.1809
  23   2.0000      -6.029937      -164.0829
  24   2.0000      -1.012250       -27.5447
  25   2.0000      -0.991709       -26.9858
  26   2.0000      -0.912573       -24.8324
  27   2.0000      -0.909742       -24.7553
  28   2.0000      -0.871252       -23.7080
  29   2.0000      -0.855844       -23.2887
  30   2.0000      -0.850390       -23.1403
  31   2.0000      -0.812465       -22.1083
  32   2.0000      -0.785933       -21.3863
  33   2.0000      -0.772757       -21.0278
  34   2.0000      -0.715702       -19.4753
  35   2.0000      -0.697198       -18.9717
  36   2.0000      -0.690756       -18.7964
  37   2.0000      -0.655253       -17.8303
  38   2.0000      -0.639140       -17.3919
  39   2.0000      -0.625292       -17.0150
  40   2.0000      -0.595579       -16.2065
  41   2.0000      -0.565844       -15.3974
  42   2.0000      -0.562475       -15.3057
  43   2.0000      -0.553984       -15.0747
  44   2.0000      -0.537555       -14.6276
  45   2.0000      -0.523595       -14.2478
  46   2.0000      -0.517089       -14.0707
  47   2.0000      -0.513925       -13.9846
  48   2.0000      -0.505630       -13.7589
  49   2.0000      -0.497984       -13.5508
  50   2.0000      -0.493379       -13.4255
  51   2.0000      -0.485912       -13.2223
  52   2.0000      -0.477065       -12.9816
  53   2.0000      -0.466663       -12.6985
  54   2.0000      -0.455633       -12.3984
  55   2.0000      -0.453664       -12.3448
  56   2.0000      -0.445714       -12.1285
  57   2.0000      -0.433085       -11.7848
  58   2.0000      -0.430632       -11.7181
  59   2.0000      -0.428515       -11.6605
  60   2.0000      -0.423342       -11.5197
  61   2.0000      -0.415622       -11.3096
  62   2.0000      -0.402286       -10.9468
  63   2.0000      -0.361660        -9.8413
  64   2.0000      -0.330305        -8.9881
  65   2.0000      -0.325407        -8.8548
  66   2.0000      -0.278562        -7.5801
  67   0.0000       0.021069         0.5733
  68   0.0000       0.076167         2.0726
  69   0.0000       0.094473         2.5707
  70   0.0000       0.115039         3.1304
  71   0.0000       0.135356         3.6832

MULLIKEN ATOMIC CHARGES
-----------------------
   0 S :    0.114900
   1 C :   -0.078352
   2 C :   -0.088394
   3 C :   -0.025127
   4 C :   -0.087356
   5 H :    0.051115
   6 C :    0.109784
   7 H :   -0.003518
   8 H :    0.022103
   9 C :   -0.101552
  10 H :    0.019545
  11 H :    0.016878
  12 C :   -0.062575
  13 H :    0.052654
  14 H :    0.025751
  15 H :    0.025189
  16 S :    0.100603
  17 C :   -0.099697
  18 C :   -0.057654
  19 C :   -0.046464
  20 C :   -0.154182
  21 H :    0.030610
  22 C :   -0.012976
  23 H :    0.044908
  24 H :    0.021005
  25 C :   -0.030160
  26 H :    0.025927
  27 H :    0.013926
  28 C :   -0.014929
  29 H :    0.032683
  30 H :    0.013408
  31 H :    0.030184
  32 H :    0.041977
  33 H :    0.069787
Sum of atomic charges:   -0.0000000

LOEWDIN ATOMIC CHARGES
----------------------
   0 S :    0.423414
   1 C :   -0.210984
   2 C :   -0.058215
   3 C :   -0.057242
   4 C :   -0.180213
   5 H :    0.044195
   6 C :   -0.036298
   7 H :    0.024137
   8 H :    0.027595
   9 C :   -0.046838
  10 H :    0.024589
  11 H :    0.021384
  12 C :   -0.070096
  13 H :    0.034678
  14 H :    0.022142
  15 H :    0.021949
  16 S :    0.417565
  17 C :   -0.213707
  18 C :   -0.086215
  19 C :   -0.068681
  20 C :   -0.184928
  21 H :    0.032128
  22 C :   -0.041543
  23 H :    0.038550
  24 H :    0.024700
  25 C :   -0.026651
  26 H :    0.026768
  27 H :    0.013023
  28 C :   -0.055817
  29 H :    0.026768
  30 H :    0.015755
  31 H :    0.031380
  32 H :    0.025923
  33 H :    0.040787

  Mayer bond orders larger than 0.100000
B(  0-S ,  1-C ) :   1.1526 B(  0-S ,  4-C ) :   1.1596 B(  1-C ,  2-C ) :   1.5580
B(  1-C , 32-H ) :   0.9736 B(  2-C ,  3-C ) :   1.2563 B(  2-C ,  6-C ) :   1.0418
B(  3-C ,  4-C ) :   1.5189 B(  3-C ,  5-H ) :   0.9912 B(  4-C , 20-C ) :   1.0593
B(  6-C ,  7-H ) :   0.9347 B(  6-C ,  8-H ) :   0.9425 B(  6-C ,  9-C ) :   1.0641
B(  9-C , 10-H ) :   0.9526 B(  9-C , 11-H ) :   0.9542 B(  9-C , 12-C ) :   1.0850
B( 12-C , 13-H ) :   0.9728 B( 12-C , 14-H ) :   0.9713 B( 12-C , 15-H ) :   0.9730
B( 16-S , 17-C ) :   1.1801 B( 16-S , 20-C ) :   1.1256 B( 17-C , 18-C ) :   1.6086
B( 17-C , 33-H ) :   0.9608 B( 18-C , 19-C ) :   1.2402 B( 18-C , 21-H ) :   0.9763
B( 19-C , 20-C ) :   1.5980 B( 19-C , 22-C ) :   1.0622 B( 22-C , 23-H ) :   0.9322
B( 22-C , 24-H ) :   0.9328 B( 22-C , 25-C ) :   1.0534 B( 25-C , 26-H ) :   0.9570
B( 25-C , 27-H ) :   0.9584 B( 25-C , 28-C ) :   1.0697 B( 28-C , 29-H ) :   0.9770
B( 28-C , 30-H ) :   0.9766 B( 28-C , 31-H ) :   0.9747

Dispersion correction           -0.013846078
FINAL SINGLE POINT ENERGY     -1339.846153161917

DIPOLE MOMENT
-------------
                                X             Y             Z
Electronic contribution:      1.64312      -8.72927     -24.77335
Nuclear contribution   :     -1.76132       8.95145      25.38979
                        -----------------------------------------
Total Dipole Moment    :     -0.11821       0.22217       0.61644
                        -----------------------------------------
Magnitude (a.u.)       :      0.66584
Magnitude (Debye)      :      1.69242

Rotational constants in cm-1:     0.016869     0.008876     0.006819
Rotational constants in MHz :   505.705656   266.084934   204.423921

                             ****ORCA TERMINATED NORMALLY****
TOTAL RUN TIME: 0 days 0 hours 0 minutes 20 seconds 228 msec
