                         Program Version 4.2.1 -  RELEASE  -
|  1> ! wB97X-D3 SP def2-SVP
|  2> %pal
|  3> nprocs 24
|  4> end
|  5>
|  6> * xyz 0 1
|  7> S 	 -54.0858 	 -1.78785 	 -25.7288
|  8> C 	 -53.5948 	 -0.622466 	 -24.5805
|  9> C 	 -53.2732 	 0.535296 	 -25.2532
| 10> C 	 -53.3061 	 0.465545 	 -26.6639
| 11> C 	 -53.8023 	 -0.723085 	 -27.0863
| 12> H 	 -52.9879 	 1.16806 	 -27.3694
| 13> C 	 -52.883 	 1.8423 	 -24.5074
| 14> H 	 -51.8449 	 2.11814 	 -24.7535
| 15> H 	 -52.9319 	 1.58311 	 -23.4721
| 16> C 	 -53.8458 	 3.08846 	 -24.6593
| 17> H 	 -54.0461 	 3.28471 	 -25.728
| 18> H 	 -54.7407 	 2.88364 	 -24.0095
| 19> C 	 -53.2888 	 4.3452 	 -24.0015
| 20> H 	 -53.8514 	 5.26262 	 -24.1743
| 21> H 	 -53.0651 	 4.21755 	 -22.9142
| 22> H 	 -52.319 	 4.72259 	 -24.3905
| 23> S 	 -53.2216 	 -2.36427 	 -29.2462
| 24> C 	 -53.9406 	 -1.8688 	 -30.8041
| 25> C 	 -55.0121 	 -1.05081 	 -30.5448
| 26> C 	 -55.1093 	 -0.539374 	 -29.224
| 27> C 	 -54.142 	 -1.11068 	 -28.4149
| 28> H 	 -55.779 	 -0.945011 	 -31.3409
| 29> C 	 -56.1969 	 0.42262 	 -28.864
| 30> H 	 -56.7694 	 0.549642 	 -29.8296
| 31> H 	 -55.662 	 1.30115 	 -28.5152
| 32> C 	 -57.1261 	 -0.0493965 	 -27.736
| 33> H 	 -57.6582 	 0.878168 	 -27.4069
| 34> H 	 -56.4588 	 -0.30259 	 -26.9465
| 35> C 	 -58.0343 	 -1.22729 	 -28.0344
| 36> H 	 -58.7376 	 -0.985787 	 -28.7858
| 37> H 	 -58.4844 	 -1.47291 	 -27.0925
| 38> H 	 -57.5517 	 -2.10406 	 -28.4361
| 39> H 	 -53.7041 	 -0.632523 	 -23.4905
| 40> H 	 -53.8358 	 -2.4205 	 -31.7216
| 41> *
| 42>
| 43>                          ****END OF INPUT****

CARTESIAN COORDINATES (ANGSTROEM)
---------------------------------
  S    -54.085800   -1.787850  -25.728800
  C    -53.594800   -0.622466  -24.580500
  C    -53.273200    0.535296  -25.253200
  C    -53.306100    0.465545  -26.663900
  C    -53.802300   -0.723085  -27.086300
  H    -52.987900    1.168060  -27.369400
  C    -52.883000    1.842300  -24.507400
  H    -51.844900    2.118140  -24.753500
  H    -52.931900    1.583110  -23.472100
  C    -53.845800    3.088460  -24.659300
  H    -54.046100    3.284710  -25.728000
  H    -54.740700    2.883640  -24.009500
  C    -53.288800    4.345200  -24.001500
  H    -53.851400    5.262620  -24.174300
  H    -53.065100    4.217550  -22.914200
  H    -52.319000    4.722590  -24.390500
  S    -53.221600   -2.364270  -29.246200
  C    -53.940600   -1.868800  -30.804100
  C    -55.012100   -1.050810  -30.544800
  C    -55.109300   -0.539374  -29.224000
  C    -54.142000   -1.110680  -28.414900
  H    -55.779000   -0.945011  -31.340900
  C    -56.196900    0.422620  -28.864000
  H    -56.769400    0.549642  -29.829600
  H    -55.662000    1.301150  -28.515200
  C    -57.126100   -0.049396  -27.736000
  H    -57.658200    0.878168  -27.406900
  H    -56.458800   -0.302590  -26.946500
  C    -58.034300   -1.227290  -28.034400
  H    -58.737600   -0.985787  -28.785800
  H    -58.484400   -1.472910  -27.092500
  H    -57.551700   -2.104060  -28.436100
  H    -53.704100   -0.632523  -23.490500
  H    -53.835800   -2.420500  -31.721600

 Total Charge           Charge          ....    0
 Multiplicity           Mult            ....    1
 Number of Electrons    NEL             ....  134
 Basis Dimension        Dim             ....  322

ORBITAL ENERGIES
----------------

  NO   OCC          E(Eh)            E(eV)
   0   2.0000     -88.965026     -2420.8614
   1   2.0000     -88.964965     -2420.8598
   2   2.0000     -10.323923      -280.9282
   3   2.0000     -10.322698      -280.8949
   4   2.0000     -10.317863      -280.7633
   5   2.0000     -10.312970      -280.6302
   6   2.0000     -10.299835      -280.2728
   7   2.0000     -10.299631      -280.2672
   8   2.0000     -10.297347      -280.2051
   9   2.0000     -10.294395      -280.1247
  10   2.0000     -10.293897      -280.1112
  11   2.0000     -10.291268      -280.0396
  12   2.0000     -10.287840      -279.9463
  13   2.0000     -10.282334      -279.7965
  14   2.0000     -10.279839      -279.7286
  15   2.0000     -10.267048      -279.3806
  16   2.0000      -8.080400      -219.8789
  17   2.0000      -8.079068      -219.8426
  18   2.0000      -6.038902      -164.3269
  19   2.0000      -6.037685      -164.2938
  20   2.0000      -6.034671      -164.2118
  21   2.0000      -6.033797      -164.1880
  22   2.0000      -6.031245      -164.1185
  23   2.0000      -6.029607      -164.0739
  24   2.0000      -1.013980       -27.5918
  25   2.0000      -0.987303       -26.8659
  26   2.0000      -0.909876       -24.7590
  27   2.0000      -0.903832       -24.5945
  28   2.0000      -0.875525       -23.8242
  29   2.0000      -0.852767       -23.2050
  30   2.0000      -0.847543       -23.0628
  31   2.0000      -0.818423       -22.2704
  32   2.0000      -0.784370       -21.3438
  33   2.0000      -0.769523       -20.9398
  34   2.0000      -0.715223       -19.4622
  35   2.0000      -0.695059       -18.9135
  36   2.0000      -0.688316       -18.7300
  37   2.0000      -0.659713       -17.9517
  38   2.0000      -0.648993       -17.6600
  39   2.0000      -0.620720       -16.8907
  40   2.0000      -0.587940       -15.9987
  41   2.0000      -0.566093       -15.4042
  42   2.0000      -0.562900       -15.3173
  43   2.0000      -0.557735       -15.1767
  44   2.0000      -0.544335       -14.8121
  45   2.0000      -0.524352       -14.2683
  46   2.0000      -0.520562       -14.1652
  47   2.0000      -0.511961       -13.9312
  48   2.0000      -0.507584       -13.8121
  49   2.0000      -0.501335       -13.6420
  50   2.0000      -0.493045       -13.4164
  51   2.0000      -0.482295       -13.1239
  52   2.0000      -0.470521       -12.8035
  53   2.0000      -0.468656       -12.7528
  54   2.0000      -0.459634       -12.5073
  55   2.0000      -0.448273       -12.1981
  56   2.0000      -0.436435       -11.8760
  57   2.0000      -0.434830       -11.8323
  58   2.0000      -0.428992       -11.6735
  59   2.0000      -0.423965       -11.5367
  60   2.0000      -0.418211       -11.3801
  61   2.0000      -0.415716       -11.3122
  62   2.0000      -0.411898       -11.2083
  63   2.0000      -0.344508        -9.3745
  64   2.0000      -0.330662        -8.9978
  65   2.0000      -0.325939        -8.8692
  66   2.0000      -0.300153        -8.1676
  67   0.0000       0.032601         0.8871
  68   0.0000       0.058887         1.6024
  69   0.0000       0.107332         2.9206
  70   0.0000       0.127230         3.4621
  71   0.0000       0.130298         3.5456

MULLIKEN ATOMIC CHARGES
-----------------------
   0 S :    0.112643
   1 C :   -0.103717
   2 C :   -0.111515
   3 C :    0.077656
   4 C :   -0.189238
   5 H :   -0.005028
   6 C :    0.063281
   7 H :    0.038701
   8 H :    0.000092
   9 C :   -0.071953
  10 H :    0.040727
  11 H :    0.044227
  12 C :   -0.077930
  13 H :    0.035739
  14 H :    0.035287
  15 H :    0.016255
  16 S :    0.107415
  17 C :   -0.088926
  18 C :   -0.067126
  19 C :   -0.029863
  20 C :   -0.180698
  21 H :    0.033735
  22 C :    0.097013
  23 H :    0.023943
  24 H :    0.027918
  25 C :   -0.074420
  26 H :    0.032591
  27 H :    0.023096
  28 C :   -0.004980
  29 H :    0.015610
  30 H :    0.035077
  31 H :    0.030321
  32 H :    0.057051
  33 H :    0.057012
Sum of atomic charges:   -0.0000000

LOEWDIN ATOMIC CHARGES
----------------------
   0 S :    0.422406
   1 C :   -0.217021
   2 C :   -0.064521
   3 C :   -0.054887
   4 C :   -0.190543
   5 H :    0.027503
   6 C :   -0.029450
   7 H :    0.030736
   8 H :    0.021037
   9 C :   -0.042344
  10 H :    0.025145
  11 H :    0.035234
  12 C :   -0.082133
  13 H :    0.027785
  14 H :    0.028500
  15 H :    0.022170
  16 S :    0.386572
  17 C :   -0.174909
  18 C :   -0.075820
  19 C :   -0.054199
  20 C :   -0.205575
  21 H :    0.036035
  22 C :   -0.031852
  23 H :    0.033384
  24 H :    0.036041
  25 C :   -0.038925
  26 H :    0.029692
  27 H :    0.017235
  28 C :   -0.057927
  29 H :    0.018363
  30 H :    0.029604
  31 H :    0.027109
  32 H :    0.037427
  33 H :    0.028130

  Mayer bond orders larger than 0.100000
B(  0-S ,  1-C ) :   1.1355 B(  0-S ,  4-C ) :   1.1595 B(  1-C ,  2-C ) :   1.6249
B(  1-C , 32-H ) :   0.9616 B(  2-C ,  3-C ) :   1.2201 B(  2-C ,  6-C ) :   1.0239
B(  3-C ,  4-C ) :   1.5938 B(  3-C ,  5-H ) :   1.0110 B(  4-C , 20-C ) :   1.0227
B(  6-C ,  7-H ) :   0.9471 B(  6-C ,  8-H ) :   0.9404 B(  6-C ,  9-C ) :   1.0548
B(  9-C , 10-H ) :   0.9589 B(  9-C , 11-H ) :   0.9567 B(  9-C , 12-C ) :   1.0786
B( 12-C , 13-H ) :   0.9733 B( 12-C , 14-H ) :   0.9746 B( 12-C , 15-H ) :   0.9714
B( 16-S , 17-C ) :   1.1407 B( 16-S , 20-C ) :   1.1388 B( 17-C , 18-C ) :   1.6291
B( 17-C , 20-C ) :   0.1071 B( 17-C , 33-H ) :   0.9646 B( 18-C , 19-C ) :   1.2425
B( 18-C , 21-H ) :   0.9734 B( 19-C , 20-C ) :   1.5774 B( 19-C , 22-C ) :   1.0366
B( 22-C , 23-H ) :   0.9367 B( 22-C , 24-H ) :   0.9122 B( 22-C , 25-C ) :   1.0838
B( 25-C , 26-H ) :   0.9525 B( 25-C , 27-H ) :   0.9531 B( 25-C , 28-C ) :   1.0752
B( 28-C , 29-H ) :   0.9739 B( 28-C , 30-H ) :   0.9720 B( 28-C , 31-H ) :   0.9734

Dispersion correction           -0.015192175
FINAL SINGLE POINT ENERGY     -1339.873996760065

DIPOLE MOMENT
-------------
                                X             Y             Z
Electronic contribution:     11.11812     -22.33334      -8.91682
Nuclear contribution   :    -11.45406      22.86555       8.93983
                        -----------------------------------------
Total Dipole Moment    :     -0.33595       0.53221       0.02302
                        -----------------------------------------
Magnitude (a.u.)       :      0.62979
Magnitude (Debye)      :      1.60080

Rotational constants in cm-1:     0.020236     0.008292     0.007551
Rotational constants in MHz :   606.662943   248.584647   226.375358

                             ****ORCA TERMINATED NORMALLY****
TOTAL RUN TIME: 0 days 0 hours 0 minutes 22 seconds 190 msec
