                         Program Version 4.2.1 -  RELEASE  -
|  1> ! wB97X-D3 SP def2-SVP
|  2> %pal
|  3> nprocs 24
|  4> end
|  5>
|  6> * xyz 0 1
|  7> S 	 -122.946 	 48.8245 	 -36.3181
|  8> C 	 -123.907 	 47.5669 	 -35.6326
|  9> C 	 -124.481 	 47.8753 	 -34.4032
| 10> C 	 -123.884 	 49.0853 	 -33.8726
| 11> C 	 -123.032 	 49.6607 	 -34.8023
| 12> H 	 -124.005 	 49.5382 	 -32.9388
| 13> C 	 -125.178 	 46.9463 	 -33.4353
| 14> H 	 -125.536 	 46.1928 	 -34.0356
| 15> H 	 -126.036 	 47.4683 	 -33.0028
| 16> C 	 -124.365 	 46.5202 	 -32.1865
| 17> H 	 -123.82 	 47.3718 	 -31.7289
| 18> H 	 -125.142 	 46.2138 	 -31.4369
| 19> C 	 -123.435 	 45.3499 	 -32.4326
| 20> H 	 -122.499 	 45.4475 	 -31.9193
| 21> H 	 -123.853 	 44.2874 	 -32.3103
| 22> H 	 -123.172 	 45.2269 	 -33.5296
| 23> S 	 -122.399 	 52.2664 	 -35.5818
| 24> C 	 -121.217 	 53.1815 	 -34.5659
| 25> C 	 -120.977 	 52.5463 	 -33.3498
| 26> C 	 -121.527 	 51.205 	 -33.3065
| 27> C 	 -122.181 	 50.8285 	 -34.5167
| 28> H 	 -120.428 	 53.1249 	 -32.6378
| 29> C 	 -121.19 	 50.2875 	 -32.134
| 30> H 	 -121.733 	 49.3308 	 -32.2483
| 31> H 	 -121.544 	 50.7916 	 -31.2371
| 32> C 	 -119.649 	 49.9236 	 -32.0025
| 33> H 	 -119.265 	 49.6328 	 -33.0087
| 34> H 	 -119.386 	 49.1383 	 -31.3308
| 35> C 	 -118.786 	 51.1084 	 -31.4783
| 36> H 	 -119.222 	 51.7326 	 -30.7127
| 37> H 	 -118.699 	 51.7532 	 -32.3462
| 38> H 	 -117.824 	 50.7824 	 -31.1753
| 39> H 	 -123.865 	 46.5397 	 -35.9373
| 40> H 	 -120.955 	 54.2057 	 -34.7187
| 41> *
| 42>
| 43>                          ****END OF INPUT****

CARTESIAN COORDINATES (ANGSTROEM)
---------------------------------
  S    -122.946000   48.824500  -36.318100
  C    -123.907000   47.566900  -35.632600
  C    -124.481000   47.875300  -34.403200
  C    -123.884000   49.085300  -33.872600
  C    -123.032000   49.660700  -34.802300
  H    -124.005000   49.538200  -32.938800
  C    -125.178000   46.946300  -33.435300
  H    -125.536000   46.192800  -34.035600
  H    -126.036000   47.468300  -33.002800
  C    -124.365000   46.520200  -32.186500
  H    -123.820000   47.371800  -31.728900
  H    -125.142000   46.213800  -31.436900
  C    -123.435000   45.349900  -32.432600
  H    -122.499000   45.447500  -31.919300
  H    -123.853000   44.287400  -32.310300
  H    -123.172000   45.226900  -33.529600
  S    -122.399000   52.266400  -35.581800
  C    -121.217000   53.181500  -34.565900
  C    -120.977000   52.546300  -33.349800
  C    -121.527000   51.205000  -33.306500
  C    -122.181000   50.828500  -34.516700
  H    -120.428000   53.124900  -32.637800
  C    -121.190000   50.287500  -32.134000
  H    -121.733000   49.330800  -32.248300
  H    -121.544000   50.791600  -31.237100
  C    -119.649000   49.923600  -32.002500
  H    -119.265000   49.632800  -33.008700
  H    -119.386000   49.138300  -31.330800
  C    -118.786000   51.108400  -31.478300
  H    -119.222000   51.732600  -30.712700
  H    -118.699000   51.753200  -32.346200
  H    -117.824000   50.782400  -31.175300
  H    -123.865000   46.539700  -35.937300
  H    -120.955000   54.205700  -34.718700

 Total Charge           Charge          ....    0
 Multiplicity           Mult            ....    1
 Number of Electrons    NEL             ....  134
 Basis Dimension        Dim             ....  322

ORBITAL ENERGIES
----------------

  NO   OCC          E(Eh)            E(eV)
   0   2.0000     -88.969805     -2420.9915
   1   2.0000     -88.965028     -2420.8615
   2   2.0000     -10.335116      -281.2328
   3   2.0000     -10.328253      -281.0461
   4   2.0000     -10.320151      -280.8256
   5   2.0000     -10.313240      -280.6375
   6   2.0000     -10.312316      -280.6124
   7   2.0000     -10.302985      -280.3585
   8   2.0000     -10.298368      -280.2328
   9   2.0000     -10.298344      -280.2322
  10   2.0000     -10.297335      -280.2047
  11   2.0000     -10.292368      -280.0696
  12   2.0000     -10.289531      -279.9924
  13   2.0000     -10.288654      -279.9685
  14   2.0000     -10.284670      -279.8601
  15   2.0000     -10.270434      -279.4727
  16   2.0000      -8.085338      -220.0132
  17   2.0000      -8.078175      -219.8183
  18   2.0000      -6.043727      -164.4582
  19   2.0000      -6.039924      -164.3547
  20   2.0000      -6.036797      -164.2696
  21   2.0000      -6.035976      -164.2473
  22   2.0000      -6.033123      -164.1696
  23   2.0000      -6.028686      -164.0489
  24   2.0000      -1.004359       -27.3300
  25   2.0000      -0.973993       -26.5037
  26   2.0000      -0.914372       -24.8813
  27   2.0000      -0.898767       -24.4567
  28   2.0000      -0.866811       -23.5871
  29   2.0000      -0.852616       -23.2009
  30   2.0000      -0.840601       -22.8739
  31   2.0000      -0.814144       -22.1540
  32   2.0000      -0.785158       -21.3652
  33   2.0000      -0.770031       -20.9536
  34   2.0000      -0.710937       -19.3456
  35   2.0000      -0.699188       -19.0259
  36   2.0000      -0.689528       -18.7630
  37   2.0000      -0.659886       -17.9564
  38   2.0000      -0.643440       -17.5089
  39   2.0000      -0.622695       -16.9444
  40   2.0000      -0.586975       -15.9724
  41   2.0000      -0.569935       -15.5087
  42   2.0000      -0.551144       -14.9974
  43   2.0000      -0.547563       -14.9000
  44   2.0000      -0.543179       -14.7806
  45   2.0000      -0.535873       -14.5818
  46   2.0000      -0.531391       -14.4599
  47   2.0000      -0.513568       -13.9749
  48   2.0000      -0.493994       -13.4423
  49   2.0000      -0.493467       -13.4279
  50   2.0000      -0.487462       -13.2645
  51   2.0000      -0.483916       -13.1680
  52   2.0000      -0.468270       -12.7423
  53   2.0000      -0.460778       -12.5384
  54   2.0000      -0.459063       -12.4917
  55   2.0000      -0.450242       -12.2517
  56   2.0000      -0.441643       -12.0177
  57   2.0000      -0.439547       -11.9607
  58   2.0000      -0.436892       -11.8884
  59   2.0000      -0.431471       -11.7409
  60   2.0000      -0.421200       -11.4614
  61   2.0000      -0.409844       -11.1524
  62   2.0000      -0.406414       -11.0591
  63   2.0000      -0.344945        -9.3864
  64   2.0000      -0.332090        -9.0366
  65   2.0000      -0.328082        -8.9276
  66   2.0000      -0.287516        -7.8237
  67   0.0000       0.025302         0.6885
  68   0.0000       0.059931         1.6308
  69   0.0000       0.096183         2.6173
  70   0.0000       0.116249         3.1633
  71   0.0000       0.121009         3.2928

MULLIKEN ATOMIC CHARGES
-----------------------
   0 S :    0.133798
   1 C :   -0.114094
   2 C :   -0.080756
   3 C :    0.022220
   4 C :   -0.163652
   5 H :    0.001603
   6 C :    0.088196
   7 H :    0.001721
   8 H :    0.028915
   9 C :   -0.075401
  10 H :    0.039228
  11 H :    0.040706
  12 C :   -0.074450
  13 H :    0.037383
  14 H :    0.041309
  15 H :    0.022946
  16 S :    0.077573
  17 C :   -0.084842
  18 C :   -0.039803
  19 C :   -0.053561
  20 C :   -0.116104
  21 H :    0.023279
  22 C :    0.053460
  23 H :    0.032840
  24 H :    0.032799
  25 C :   -0.068482
  26 H :    0.041873
  27 H :    0.026637
  28 C :   -0.057477
  29 H :    0.025272
  30 H :    0.031767
  31 H :    0.026606
  32 H :    0.048166
  33 H :    0.050326
Sum of atomic charges:    0.0000000

LOEWDIN ATOMIC CHARGES
----------------------
   0 S :    0.423461
   1 C :   -0.205877
   2 C :   -0.056445
   3 C :   -0.046971
   4 C :   -0.200062
   5 H :    0.022631
   6 C :   -0.026208
   7 H :    0.017171
   8 H :    0.037008
   9 C :   -0.043214
  10 H :    0.029157
  11 H :    0.032622
  12 C :   -0.082393
  13 H :    0.023787
  14 H :    0.035107
  15 H :    0.028507
  16 S :    0.355792
  17 C :   -0.164222
  18 C :   -0.065223
  19 C :   -0.055267
  20 C :   -0.180328
  21 H :    0.032106
  22 C :   -0.033106
  23 H :    0.030837
  24 H :    0.030096
  25 C :   -0.032528
  26 H :    0.032051
  27 H :    0.018022
  28 C :   -0.067810
  29 H :    0.019144
  30 H :    0.023828
  31 H :    0.020100
  32 H :    0.024759
  33 H :    0.023471

  Mayer bond orders larger than 0.100000
B(  0-S ,  1-C ) :   1.1420 B(  0-S ,  4-C ) :   1.1460 B(  1-C ,  2-C ) :   1.6296
B(  1-C , 32-H ) :   0.9617 B(  2-C ,  3-C ) :   1.1874 B(  2-C ,  6-C ) :   1.0474
B(  3-C ,  4-C ) :   1.5998 B(  3-C ,  5-H ) :   1.0031 B(  4-C , 20-C ) :   1.0216
B(  6-C ,  7-H ) :   0.9444 B(  6-C ,  8-H ) :   0.9295 B(  6-C ,  9-C ) :   1.0665
B(  9-C , 10-H ) :   0.9564 B(  9-C , 11-H ) :   0.9565 B(  9-C , 12-C ) :   1.0613
B( 12-C , 13-H ) :   0.9768 B( 12-C , 14-H ) :   0.9734 B( 12-C , 15-H ) :   0.9779
B( 16-S , 17-C ) :   1.1306 B( 16-S , 20-C ) :   1.1295 B( 17-C , 18-C ) :   1.6464
B( 17-C , 20-C ) :   0.1003 B( 17-C , 33-H ) :   0.9660 B( 18-C , 19-C ) :   1.2044
B( 18-C , 21-H ) :   0.9864 B( 19-C , 20-C ) :   1.6063 B( 19-C , 22-C ) :   1.0455
B( 22-C , 23-H ) :   0.9368 B( 22-C , 24-H ) :   0.9382 B( 22-C , 25-C ) :   1.0538
B( 25-C , 26-H ) :   0.9585 B( 25-C , 27-H ) :   0.9662 B( 25-C , 28-C ) :   1.0699
B( 28-C , 29-H ) :   0.9772 B( 28-C , 30-H ) :   0.9727 B( 28-C , 31-H ) :   0.9725

Dispersion correction           -0.014999261
FINAL SINGLE POINT ENERGY     -1339.849103891173

DIPOLE MOMENT
-------------
                                X             Y             Z
Electronic contribution:     -6.68721      14.17502     -23.78283
Nuclear contribution   :      6.76935     -14.46512      24.56312
                        -----------------------------------------
Total Dipole Moment    :      0.08213      -0.29011       0.78030
                        -----------------------------------------
Magnitude (a.u.)       :      0.83652
Magnitude (Debye)      :      2.12627

Rotational constants in cm-1:     0.018189     0.009463     0.006967
Rotational constants in MHz :   545.284409   283.700314   208.869470

                             ****ORCA TERMINATED NORMALLY****
TOTAL RUN TIME: 0 days 0 hours 0 minutes 22 seconds 185 msec
