                         Program Version 4.2.1 -  RELEASE  -
|  1> ! wB97X-D3 SP def2-SVP
|  2> %pal
|  3> nprocs 24
|  4> end
|  5>
|  6> * xyz 0 1
|  7> S 	 -102.012 	 36.9933 	 -90.8478
|  8> C 	 -101.039 	 35.5686 	 -90.6073
|  9> C 	 -99.7412 	 35.9141 	 -90.8734
| 10> C 	 -99.4832 	 37.2952 	 -91.2
| 11> C 	 -100.654 	 37.9631 	 -91.2682
| 12> H 	 -98.5118 	 37.6945 	 -91.3895
| 13> C 	 -98.6891 	 34.8404 	 -90.8381
| 14> H 	 -98.5339 	 34.5155 	 -91.841
| 15> H 	 -99.1451 	 33.9615 	 -90.453
| 16> C 	 -97.3641 	 35.1366 	 -90.191
| 17> H 	 -96.8692 	 35.8993 	 -90.6998
| 18> H 	 -97.5551 	 35.5575 	 -89.1845
| 19> C 	 -96.6498 	 33.8235 	 -89.9808
| 20> H 	 -95.6561 	 33.9689 	 -89.5058
| 21> H 	 -97.2805 	 33.1906 	 -89.345
| 22> H 	 -96.3964 	 33.277 	 -90.8715
| 23> S 	 -101.931 	 39.6516 	 -93.0165
| 24> C 	 -101.657 	 41.3901 	 -92.9534
| 25> C 	 -100.743 	 41.7011 	 -91.9575
| 26> C 	 -100.278 	 40.5314 	 -91.2566
| 27> C 	 -100.941 	 39.361 	 -91.6455
| 28> H 	 -100.573 	 42.7878 	 -91.8453
| 29> C 	 -99.2564 	 40.6068 	 -90.1144
| 30> H 	 -98.51 	 41.2887 	 -90.497
| 31> H 	 -98.701 	 39.6333 	 -90.1449
| 32> C 	 -99.8254 	 40.8163 	 -88.6433
| 33> H 	 -100.371 	 39.9096 	 -88.5035
| 34> H 	 -100.413 	 41.6788 	 -88.4644
| 35> C 	 -98.6836 	 40.8794 	 -87.6115
| 36> H 	 -97.7543 	 40.4245 	 -88.0025
| 37> H 	 -98.9564 	 40.6106 	 -86.6639
| 38> H 	 -98.4969 	 41.983 	 -87.5643
| 39> H 	 -101.354 	 34.5785 	 -90.3369
| 40> H 	 -102.325 	 42.0999 	 -93.4326
| 41> *
| 42>
| 43>                          ****END OF INPUT****

CARTESIAN COORDINATES (ANGSTROEM)
---------------------------------
  S    -102.012000   36.993300  -90.847800
  C    -101.039000   35.568600  -90.607300
  C    -99.741200   35.914100  -90.873400
  C    -99.483200   37.295200  -91.200000
  C    -100.654000   37.963100  -91.268200
  H    -98.511800   37.694500  -91.389500
  C    -98.689100   34.840400  -90.838100
  H    -98.533900   34.515500  -91.841000
  H    -99.145100   33.961500  -90.453000
  C    -97.364100   35.136600  -90.191000
  H    -96.869200   35.899300  -90.699800
  H    -97.555100   35.557500  -89.184500
  C    -96.649800   33.823500  -89.980800
  H    -95.656100   33.968900  -89.505800
  H    -97.280500   33.190600  -89.345000
  H    -96.396400   33.277000  -90.871500
  S    -101.931000   39.651600  -93.016500
  C    -101.657000   41.390100  -92.953400
  C    -100.743000   41.701100  -91.957500
  C    -100.278000   40.531400  -91.256600
  C    -100.941000   39.361000  -91.645500
  H    -100.573000   42.787800  -91.845300
  C    -99.256400   40.606800  -90.114400
  H    -98.510000   41.288700  -90.497000
  H    -98.701000   39.633300  -90.144900
  C    -99.825400   40.816300  -88.643300
  H    -100.371000   39.909600  -88.503500
  H    -100.413000   41.678800  -88.464400
  C    -98.683600   40.879400  -87.611500
  H    -97.754300   40.424500  -88.002500
  H    -98.956400   40.610600  -86.663900
  H    -98.496900   41.983000  -87.564300
  H    -101.354000   34.578500  -90.336900
  H    -102.325000   42.099900  -93.432600

 Total Charge           Charge          ....    0
 Multiplicity           Mult            ....    1
 Number of Electrons    NEL             ....  134
 Basis Dimension        Dim             ....  322

ORBITAL ENERGIES
----------------

  NO   OCC          E(Eh)            E(eV)
   0   2.0000     -88.963348     -2420.8158
   1   2.0000     -88.962705     -2420.7983
   2   2.0000     -10.328356      -281.0488
   3   2.0000     -10.324711      -280.9497
   4   2.0000     -10.316298      -280.7207
   5   2.0000     -10.308852      -280.5181
   6   2.0000     -10.306010      -280.4408
   7   2.0000     -10.298792      -280.2444
   8   2.0000     -10.296886      -280.1925
   9   2.0000     -10.295438      -280.1531
  10   2.0000     -10.293385      -280.0972
  11   2.0000     -10.283246      -279.8213
  12   2.0000     -10.281392      -279.7709
  13   2.0000     -10.279826      -279.7283
  14   2.0000     -10.278586      -279.6945
  15   2.0000     -10.272553      -279.5304
  16   2.0000      -8.078555      -219.8287
  17   2.0000      -8.078250      -219.8204
  18   2.0000      -6.037008      -164.2753
  19   2.0000      -6.036782      -164.2692
  20   2.0000      -6.032865      -164.1626
  21   2.0000      -6.032550      -164.1540
  22   2.0000      -6.029464      -164.0700
  23   2.0000      -6.029016      -164.0579
  24   2.0000      -1.012458       -27.5504
  25   2.0000      -0.986789       -26.8519
  26   2.0000      -0.921231       -25.0680
  27   2.0000      -0.900349       -24.4997
  28   2.0000      -0.872800       -23.7501
  29   2.0000      -0.852404       -23.1951
  30   2.0000      -0.846326       -23.0297
  31   2.0000      -0.822960       -22.3939
  32   2.0000      -0.779411       -21.2088
  33   2.0000      -0.766486       -20.8571
  34   2.0000      -0.716413       -19.4946
  35   2.0000      -0.700765       -19.0688
  36   2.0000      -0.690665       -18.7939
  37   2.0000      -0.658014       -17.9055
  38   2.0000      -0.644859       -17.5475
  39   2.0000      -0.628331       -17.0978
  40   2.0000      -0.590829       -16.0773
  41   2.0000      -0.575206       -15.6521
  42   2.0000      -0.568870       -15.4797
  43   2.0000      -0.562512       -15.3067
  44   2.0000      -0.532614       -14.4932
  45   2.0000      -0.526815       -14.3354
  46   2.0000      -0.519047       -14.1240
  47   2.0000      -0.515463       -14.0265
  48   2.0000      -0.508167       -13.8279
  49   2.0000      -0.498757       -13.5719
  50   2.0000      -0.487648       -13.2696
  51   2.0000      -0.481675       -13.1070
  52   2.0000      -0.475286       -12.9332
  53   2.0000      -0.460426       -12.5288
  54   2.0000      -0.457892       -12.4599
  55   2.0000      -0.450526       -12.2594
  56   2.0000      -0.443139       -12.0584
  57   2.0000      -0.441055       -12.0017
  58   2.0000      -0.432753       -11.7758
  59   2.0000      -0.422957       -11.5092
  60   2.0000      -0.421231       -11.4623
  61   2.0000      -0.412698       -11.2301
  62   2.0000      -0.409686       -11.1481
  63   2.0000      -0.348310        -9.4780
  64   2.0000      -0.329121        -8.9558
  65   2.0000      -0.326980        -8.8976
  66   2.0000      -0.298079        -8.1111
  67   0.0000       0.034119         0.9284
  68   0.0000       0.075622         2.0578
  69   0.0000       0.118440         3.2229
  70   0.0000       0.125424         3.4130
  71   0.0000       0.131159         3.5690

MULLIKEN ATOMIC CHARGES
-----------------------
   0 S :    0.106099
   1 C :   -0.111936
   2 C :   -0.112407
   3 C :    0.053887
   4 C :   -0.152408
   5 H :    0.013198
   6 C :    0.088511
   7 H :    0.021631
   8 H :   -0.018602
   9 C :   -0.050744
  10 H :    0.019026
  11 H :    0.028471
  12 C :   -0.046058
  13 H :    0.033103
  14 H :    0.034550
  15 H :    0.024544
  16 S :    0.109864
  17 C :   -0.116136
  18 C :   -0.045226
  19 C :   -0.062016
  20 C :   -0.122159
  21 H :    0.035593
  22 C :    0.049349
  23 H :    0.020105
  24 H :    0.010409
  25 C :   -0.030314
  26 H :    0.031467
  27 H :    0.028858
  28 C :   -0.027406
  29 H :    0.033974
  30 H :    0.020865
  31 H :    0.023282
  32 H :    0.042210
  33 H :    0.066415
Sum of atomic charges:   -0.0000000

LOEWDIN ATOMIC CHARGES
----------------------
   0 S :    0.419264
   1 C :   -0.204818
   2 C :   -0.055775
   3 C :   -0.064735
   4 C :   -0.190615
   5 H :    0.029622
   6 C :   -0.033330
   7 H :    0.030140
   8 H :    0.021624
   9 C :   -0.038411
  10 H :    0.013297
  11 H :    0.029606
  12 C :   -0.061105
  13 H :    0.028837
  14 H :    0.028480
  15 H :    0.020830
  16 S :    0.417809
  17 C :   -0.190117
  18 C :   -0.072747
  19 C :   -0.060893
  20 C :   -0.217311
  21 H :    0.040957
  22 C :   -0.035700
  23 H :    0.025003
  24 H :    0.032577
  25 C :   -0.025396
  26 H :    0.023342
  27 H :    0.019670
  28 C :   -0.058811
  29 H :    0.027113
  30 H :    0.011436
  31 H :    0.030884
  32 H :    0.028685
  33 H :    0.030589

  Mayer bond orders larger than 0.100000
B(  0-S ,  1-C ) :   1.1122 B(  0-S ,  4-C ) :   1.1769 B(  1-C ,  2-C ) :   1.6273
B(  1-C , 32-H ) :   0.9745 B(  2-C ,  3-C ) :   1.2175 B(  2-C ,  6-C ) :   1.0284
B(  3-C ,  4-C ) :   1.5852 B(  3-C ,  5-H ) :   0.9978 B(  4-C , 20-C ) :   0.9765
B(  6-C ,  7-H ) :   0.9210 B(  6-C ,  8-H ) :   0.9366 B(  6-C ,  9-C ) :   1.0604
B(  9-C , 10-H ) :   0.9497 B(  9-C , 11-H ) :   0.9573 B(  9-C , 12-C ) :   1.0875
B( 12-C , 13-H ) :   0.9721 B( 12-C , 14-H ) :   0.9745 B( 12-C , 15-H ) :   0.9744
B( 16-S , 17-C ) :   1.1575 B( 16-S , 20-C ) :   1.1685 B( 17-C , 18-C ) :   1.6104
B( 17-C , 20-C ) :   0.1046 B( 17-C , 33-H ) :   0.9635 B( 18-C , 19-C ) :   1.2349
B( 18-C , 21-H ) :   0.9896 B( 19-C , 20-C ) :   1.5795 B( 19-C , 22-C ) :   1.0471
B( 22-C , 23-H ) :   0.9357 B( 22-C , 24-H ) :   0.9287 B( 22-C , 25-C ) :   1.0482
B( 25-C , 26-H ) :   0.9566 B( 25-C , 27-H ) :   0.9687 B( 25-C , 28-C ) :   1.0721
B( 28-C , 29-H ) :   0.9760 B( 28-C , 30-H ) :   0.9756 B( 28-C , 31-H ) :   0.9806

Dispersion correction           -0.013748912
FINAL SINGLE POINT ENERGY     -1339.870419629293

DIPOLE MOMENT
-------------
                                X             Y             Z
Electronic contribution:    -23.72103       5.31969     -16.65984
Nuclear contribution   :     24.24702      -5.31643      16.90845
                        -----------------------------------------
Total Dipole Moment    :      0.52599       0.00326       0.24861
                        -----------------------------------------
Magnitude (a.u.)       :      0.58180
Magnitude (Debye)      :      1.47881

Rotational constants in cm-1:     0.017763     0.008562     0.006712
Rotational constants in MHz :   532.521284   256.683828   201.231768

                             ****ORCA TERMINATED NORMALLY****
TOTAL RUN TIME: 0 days 0 hours 0 minutes 21 seconds 433 msec
