                         Program Version 4.2.1 -  RELEASE  -
|  1> ! wB97X-D3 SP def2-SVP
|  2> %pal
|  3> nprocs 24
|  4> end
|  5>
|  6> * xyz 0 1
|  7> S 	 -53.9133 	 6.77609 	 23.5307
|  8> C 	 -53.2367 	 7.71122 	 22.2215
|  9> C 	 -54.2836 	 8.33002 	 21.5151
| 10> C 	 -55.4895 	 8.28391 	 22.2247
| 11> C 	 -55.4054 	 7.66689 	 23.3931
| 12> H 	 -56.4551 	 8.73927 	 21.9425
| 13> C 	 -54.163 	 8.9661 	 20.1459
| 14> H 	 -53.2824 	 8.51413 	 19.6515
| 15> H 	 -54.0488 	 10.0145 	 20.4495
| 16> C 	 -55.3282 	 8.88924 	 19.0951
| 17> H 	 -55.4094 	 7.86394 	 18.6483
| 18> H 	 -56.23 	 9.14462 	 19.7031
| 19> C 	 -55.2708 	 9.84904 	 17.9094
| 20> H 	 -54.1849 	 10.1358 	 17.6342
| 21> H 	 -55.7595 	 9.44273 	 17.0281
| 22> H 	 -55.836 	 10.7075 	 18.2206
| 23> S 	 -57.4708 	 8.78289 	 24.6618
| 24> C 	 -58.6365 	 7.79063 	 25.5795
| 25> C 	 -58.2737 	 6.48811 	 25.472
| 26> C 	 -57.1851 	 6.12879 	 24.6255
| 27> C 	 -56.5234 	 7.31145 	 24.212
| 28> H 	 -58.9641 	 5.86724 	 26.0252
| 29> C 	 -56.9375 	 4.68034 	 24.2715
| 30> H 	 -57.1599 	 3.99044 	 25.1462
| 31> H 	 -55.8521 	 4.41981 	 24.0747
| 32> C 	 -57.6461 	 4.26256 	 22.9994
| 33> H 	 -57.2568 	 3.28362 	 22.6415
| 34> H 	 -57.3486 	 4.93196 	 22.1577
| 35> C 	 -59.1892 	 4.22192 	 23.1906
| 36> H 	 -59.3947 	 3.65982 	 24.0967
| 37> H 	 -59.766 	 3.87567 	 22.3596
| 38> H 	 -59.6556 	 5.22553 	 23.2704
| 39> H 	 -52.1767 	 7.66934 	 21.9189
| 40> H 	 -59.4438 	 8.02819 	 26.2533
| 41> *
| 42>
| 43>                          ****END OF INPUT****

CARTESIAN COORDINATES (ANGSTROEM)
---------------------------------
  S    -53.913300    6.776090   23.530700
  C    -53.236700    7.711220   22.221500
  C    -54.283600    8.330020   21.515100
  C    -55.489500    8.283910   22.224700
  C    -55.405400    7.666890   23.393100
  H    -56.455100    8.739270   21.942500
  C    -54.163000    8.966100   20.145900
  H    -53.282400    8.514130   19.651500
  H    -54.048800   10.014500   20.449500
  C    -55.328200    8.889240   19.095100
  H    -55.409400    7.863940   18.648300
  H    -56.230000    9.144620   19.703100
  C    -55.270800    9.849040   17.909400
  H    -54.184900   10.135800   17.634200
  H    -55.759500    9.442730   17.028100
  H    -55.836000   10.707500   18.220600
  S    -57.470800    8.782890   24.661800
  C    -58.636500    7.790630   25.579500
  C    -58.273700    6.488110   25.472000
  C    -57.185100    6.128790   24.625500
  C    -56.523400    7.311450   24.212000
  H    -58.964100    5.867240   26.025200
  C    -56.937500    4.680340   24.271500
  H    -57.159900    3.990440   25.146200
  H    -55.852100    4.419810   24.074700
  C    -57.646100    4.262560   22.999400
  H    -57.256800    3.283620   22.641500
  H    -57.348600    4.931960   22.157700
  C    -59.189200    4.221920   23.190600
  H    -59.394700    3.659820   24.096700
  H    -59.766000    3.875670   22.359600
  H    -59.655600    5.225530   23.270400
  H    -52.176700    7.669340   21.918900
  H    -59.443800    8.028190   26.253300

 Total Charge           Charge          ....    0
 Multiplicity           Mult            ....    1
 Number of Electrons    NEL             ....  134
 Basis Dimension        Dim             ....  322

ORBITAL ENERGIES
----------------

  NO   OCC          E(Eh)            E(eV)
   0   2.0000     -88.965320     -2420.8694
   1   2.0000     -88.963624     -2420.8233
   2   2.0000     -10.333809      -281.1972
   3   2.0000     -10.320433      -280.8333
   4   2.0000     -10.317941      -280.7654
   5   2.0000     -10.311888      -280.6007
   6   2.0000     -10.309254      -280.5291
   7   2.0000     -10.303536      -280.3735
   8   2.0000     -10.300454      -280.2896
   9   2.0000     -10.297174      -280.2003
  10   2.0000     -10.296503      -280.1821
  11   2.0000     -10.290570      -280.0206
  12   2.0000     -10.288753      -279.9712
  13   2.0000     -10.287363      -279.9334
  14   2.0000     -10.284906      -279.8665
  15   2.0000     -10.273838      -279.5653
  16   2.0000      -8.080324      -219.8768
  17   2.0000      -8.076854      -219.7824
  18   2.0000      -6.038781      -164.3236
  19   2.0000      -6.035616      -164.2375
  20   2.0000      -6.035099      -164.2234
  21   2.0000      -6.031563      -164.1272
  22   2.0000      -6.030809      -164.1067
  23   2.0000      -6.027442      -164.0150
  24   2.0000      -1.013566       -27.5805
  25   2.0000      -0.980635       -26.6844
  26   2.0000      -0.908798       -24.7297
  27   2.0000      -0.906578       -24.6692
  28   2.0000      -0.875620       -23.8268
  29   2.0000      -0.854678       -23.2570
  30   2.0000      -0.837464       -22.7886
  31   2.0000      -0.817148       -22.2357
  32   2.0000      -0.783875       -21.3303
  33   2.0000      -0.770260       -20.9598
  34   2.0000      -0.713231       -19.4080
  35   2.0000      -0.691857       -18.8264
  36   2.0000      -0.685963       -18.6660
  37   2.0000      -0.659611       -17.9489
  38   2.0000      -0.634209       -17.2577
  39   2.0000      -0.622910       -16.9502
  40   2.0000      -0.591182       -16.0869
  41   2.0000      -0.572899       -15.5894
  42   2.0000      -0.562561       -15.3081
  43   2.0000      -0.551271       -15.0008
  44   2.0000      -0.541096       -14.7240
  45   2.0000      -0.524706       -14.2780
  46   2.0000      -0.521933       -14.2025
  47   2.0000      -0.513646       -13.9770
  48   2.0000      -0.502111       -13.6631
  49   2.0000      -0.496003       -13.4969
  50   2.0000      -0.483332       -13.1521
  51   2.0000      -0.478619       -13.0239
  52   2.0000      -0.470869       -12.8130
  53   2.0000      -0.470382       -12.7998
  54   2.0000      -0.461034       -12.5454
  55   2.0000      -0.448655       -12.2085
  56   2.0000      -0.440314       -11.9815
  57   2.0000      -0.430509       -11.7147
  58   2.0000      -0.426375       -11.6022
  59   2.0000      -0.421990       -11.4829
  60   2.0000      -0.417544       -11.3619
  61   2.0000      -0.410126       -11.1601
  62   2.0000      -0.408713       -11.1216
  63   2.0000      -0.351824        -9.5736
  64   2.0000      -0.330896        -9.0041
  65   2.0000      -0.326709        -8.8902
  66   2.0000      -0.286328        -7.7914
  67   0.0000       0.025926         0.7055
  68   0.0000       0.065257         1.7757
  69   0.0000       0.097585         2.6554
  70   0.0000       0.117041         3.1848
  71   0.0000       0.133204         3.6247

MULLIKEN ATOMIC CHARGES
-----------------------
   0 S :    0.107650
   1 C :   -0.137925
   2 C :   -0.064111
   3 C :   -0.009817
   4 C :   -0.107505
   5 H :    0.031775
   6 C :    0.048266
   7 H :    0.030665
   8 H :    0.047930
   9 C :   -0.114259
  10 H :    0.044212
  11 H :    0.034491
  12 C :   -0.054259
  13 H :    0.045764
  14 H :    0.039168
  15 H :    0.032239
  16 S :    0.074949
  17 C :   -0.081719
  18 C :   -0.055939
  19 C :    0.022636
  20 C :   -0.183687
  21 H :    0.011518
  22 C :    0.013888
  23 H :    0.042217
  24 H :    0.031989
  25 C :   -0.066520
  26 H :    0.031644
  27 H :    0.036175
  28 C :   -0.053691
  29 H :    0.027114
  30 H :    0.025662
  31 H :    0.041861
  32 H :    0.058711
  33 H :    0.048908
Sum of atomic charges:   -0.0000000

LOEWDIN ATOMIC CHARGES
----------------------
   0 S :    0.413109
   1 C :   -0.202699
   2 C :   -0.060776
   3 C :   -0.069904
   4 C :   -0.203266
   5 H :    0.035229
   6 C :   -0.037861
   7 H :    0.031077
   8 H :    0.039699
   9 C :   -0.048366
  10 H :    0.028776
  11 H :    0.024790
  12 C :   -0.069319
  13 H :    0.035106
  14 H :    0.028198
  15 H :    0.024375
  16 S :    0.369759
  17 C :   -0.187517
  18 C :   -0.069667
  19 C :   -0.061887
  20 C :   -0.159986
  21 H :    0.029371
  22 C :   -0.044515
  23 H :    0.037514
  24 H :    0.033403
  25 C :   -0.041531
  26 H :    0.025611
  27 H :    0.030350
  28 C :   -0.073360
  29 H :    0.022361
  30 H :    0.022189
  31 H :    0.032299
  32 H :    0.033105
  33 H :    0.034332

  Mayer bond orders larger than 0.100000
B(  0-S ,  1-C ) :   1.1429 B(  0-S ,  4-C ) :   1.1438 B(  1-C ,  2-C ) :   1.5862
B(  1-C , 32-H ) :   0.9722 B(  2-C ,  3-C ) :   1.2496 B(  2-C ,  6-C ) :   1.0059
B(  3-C ,  4-C ) :   1.5781 B(  3-C ,  5-H ) :   0.9831 B(  4-C , 20-C ) :   1.0348
B(  6-C ,  7-H ) :   0.9428 B(  6-C ,  8-H ) :   0.9390 B(  6-C ,  9-C ) :   1.0673
B(  9-C , 10-H ) :   0.9624 B(  9-C , 11-H ) :   0.9573 B(  9-C , 12-C ) :   1.0709
B( 12-C , 13-H ) :   0.9759 B( 12-C , 14-H ) :   0.9761 B( 12-C , 15-H ) :   0.9785
B( 16-S , 17-C ) :   1.1061 B( 16-S , 20-C ) :   1.1365 B( 17-C , 18-C ) :   1.6857
B( 17-C , 20-C ) :   0.1017 B( 17-C , 33-H ) :   0.9629 B( 18-C , 19-C ) :   1.1965
B( 18-C , 21-H ) :   0.9791 B( 19-C , 20-C ) :   1.5885 B( 19-C , 22-C ) :   1.0376
B( 22-C , 23-H ) :   0.9402 B( 22-C , 24-H ) :   0.9347 B( 22-C , 25-C ) :   1.0740
B( 25-C , 26-H ) :   0.9570 B( 25-C , 27-H ) :   0.9525 B( 25-C , 28-C ) :   1.0708
B( 28-C , 29-H ) :   0.9757 B( 28-C , 30-H ) :   0.9729 B( 28-C , 31-H ) :   0.9694

Dispersion correction           -0.014454590
FINAL SINGLE POINT ENERGY     -1339.851804682076

DIPOLE MOMENT
-------------
                                X             Y             Z
Electronic contribution:      7.16381       5.67512      19.91219
Nuclear contribution   :     -7.36386      -5.90976     -20.46136
                        -----------------------------------------
Total Dipole Moment    :     -0.20005      -0.23464      -0.54917
                        -----------------------------------------
Magnitude (a.u.)       :      0.62981
Magnitude (Debye)      :      1.60086

Rotational constants in cm-1:     0.018761     0.007731     0.007700
Rotational constants in MHz :   562.443854   231.767238   230.845512

                             ****ORCA TERMINATED NORMALLY****
TOTAL RUN TIME: 0 days 0 hours 0 minutes 23 seconds 454 msec
