                         Program Version 4.2.1 -  RELEASE  -
|  1> ! wB97X-D3 SP def2-SVP
|  2> %pal
|  3> nprocs 24
|  4> end
|  5>
|  6> * xyz 0 1
|  7> S 	 -37.9128 	 8.01189 	 -0.162358
|  8> C 	 -38.7066 	 6.62472 	 -0.906691
|  9> C 	 -38.2625 	 5.42279 	 -0.326451
| 10> C 	 -37.1864 	 5.66452 	 0.598629
| 11> C 	 -36.8172 	 7.00211 	 0.769805
| 12> H 	 -36.6711 	 4.94156 	 1.11529
| 13> C 	 -38.8927 	 4.04874 	 -0.528527
| 14> H 	 -39.6887 	 4.23325 	 -1.24813
| 15> H 	 -39.4986 	 3.8131 	 0.369241
| 16> C 	 -37.9441 	 2.94605 	 -1.09821
| 17> H 	 -37.1666 	 2.7027 	 -0.314316
| 18> H 	 -38.4471 	 2.01971 	 -1.00586
| 19> C 	 -37.3651 	 3.09478 	 -2.48546
| 20> H 	 -36.7296 	 2.23317 	 -2.74743
| 21> H 	 -38.1169 	 3.23643 	 -3.22726
| 22> H 	 -36.7398 	 4.04866 	 -2.47
| 23> S 	 -34.3745 	 8.22555 	 1.21116
| 24> C 	 -34.1257 	 8.86843 	 2.83594
| 25> C 	 -35.0955 	 8.45276 	 3.70882
| 26> C 	 -36.0855 	 7.59071 	 3.13901
| 27> C 	 -35.9591 	 7.55788 	 1.77782
| 28> H 	 -34.9872 	 8.80619 	 4.67554
| 29> C 	 -37.2322 	 6.94146 	 3.88259
| 30> H 	 -37.8718 	 6.33028 	 3.25159
| 31> H 	 -37.8808 	 7.69221 	 4.22473
| 32> C 	 -36.6446 	 6.0395 	 5.07301
| 33> H 	 -37.3492 	 5.96663 	 5.87053
| 34> H 	 -35.7862 	 6.5812 	 5.45635
| 35> C 	 -36.2662 	 4.57443 	 4.65393
| 36> H 	 -35.4795 	 4.61218 	 3.90092
| 37> H 	 -37.0728 	 4.10277 	 4.13817
| 38> H 	 -36.0277 	 3.95603 	 5.48593
| 39> H 	 -39.624 	 6.77016 	 -1.504
| 40> H 	 -33.2585 	 9.41345 	 3.08142
| 41> *
| 42>
| 43>                          ****END OF INPUT****

CARTESIAN COORDINATES (ANGSTROEM)
---------------------------------
  S    -37.912800    8.011890   -0.162358
  C    -38.706600    6.624720   -0.906691
  C    -38.262500    5.422790   -0.326451
  C    -37.186400    5.664520    0.598629
  C    -36.817200    7.002110    0.769805
  H    -36.671100    4.941560    1.115290
  C    -38.892700    4.048740   -0.528527
  H    -39.688700    4.233250   -1.248130
  H    -39.498600    3.813100    0.369241
  C    -37.944100    2.946050   -1.098210
  H    -37.166600    2.702700   -0.314316
  H    -38.447100    2.019710   -1.005860
  C    -37.365100    3.094780   -2.485460
  H    -36.729600    2.233170   -2.747430
  H    -38.116900    3.236430   -3.227260
  H    -36.739800    4.048660   -2.470000
  S    -34.374500    8.225550    1.211160
  C    -34.125700    8.868430    2.835940
  C    -35.095500    8.452760    3.708820
  C    -36.085500    7.590710    3.139010
  C    -35.959100    7.557880    1.777820
  H    -34.987200    8.806190    4.675540
  C    -37.232200    6.941460    3.882590
  H    -37.871800    6.330280    3.251590
  H    -37.880800    7.692210    4.224730
  C    -36.644600    6.039500    5.073010
  H    -37.349200    5.966630    5.870530
  H    -35.786200    6.581200    5.456350
  C    -36.266200    4.574430    4.653930
  H    -35.479500    4.612180    3.900920
  H    -37.072800    4.102770    4.138170
  H    -36.027700    3.956030    5.485930
  H    -39.624000    6.770160   -1.504000
  H    -33.258500    9.413450    3.081420

 Total Charge           Charge          ....    0
 Multiplicity           Mult            ....    1
 Number of Electrons    NEL             ....  134
 Basis Dimension        Dim             ....  322

ORBITAL ENERGIES
----------------

  NO   OCC          E(Eh)            E(eV)
   0   2.0000     -88.962884     -2420.8031
   1   2.0000     -88.959707     -2420.7167
   2   2.0000     -10.325746      -280.9778
   3   2.0000     -10.323767      -280.9240
   4   2.0000     -10.319514      -280.8082
   5   2.0000     -10.314714      -280.6776
   6   2.0000     -10.306000      -280.4405
   7   2.0000     -10.305295      -280.4213
   8   2.0000     -10.298794      -280.2444
   9   2.0000     -10.291016      -280.0328
  10   2.0000     -10.290095      -280.0077
  11   2.0000     -10.289946      -280.0037
  12   2.0000     -10.289488      -279.9912
  13   2.0000     -10.288920      -279.9757
  14   2.0000     -10.281156      -279.7645
  15   2.0000     -10.275314      -279.6055
  16   2.0000      -8.077383      -219.7968
  17   2.0000      -8.073909      -219.7022
  18   2.0000      -6.035844      -164.2437
  19   2.0000      -6.032370      -164.1491
  20   2.0000      -6.031825      -164.1343
  21   2.0000      -6.028704      -164.0494
  22   2.0000      -6.028290      -164.0381
  23   2.0000      -6.024531      -163.9358
  24   2.0000      -1.001154       -27.2428
  25   2.0000      -0.977581       -26.6013
  26   2.0000      -0.906970       -24.6799
  27   2.0000      -0.901017       -24.5179
  28   2.0000      -0.869101       -23.6494
  29   2.0000      -0.846470       -23.0336
  30   2.0000      -0.843489       -22.9525
  31   2.0000      -0.813998       -22.1500
  32   2.0000      -0.786029       -21.3889
  33   2.0000      -0.772901       -21.0317
  34   2.0000      -0.711667       -19.3654
  35   2.0000      -0.705030       -19.1849
  36   2.0000      -0.693247       -18.8642
  37   2.0000      -0.658327       -17.9140
  38   2.0000      -0.644198       -17.5295
  39   2.0000      -0.619773       -16.8649
  40   2.0000      -0.602022       -16.3818
  41   2.0000      -0.563998       -15.3472
  42   2.0000      -0.556340       -15.1388
  43   2.0000      -0.552681       -15.0392
  44   2.0000      -0.535979       -14.5847
  45   2.0000      -0.530836       -14.4448
  46   2.0000      -0.520633       -14.1671
  47   2.0000      -0.514126       -13.9901
  48   2.0000      -0.498568       -13.5667
  49   2.0000      -0.492078       -13.3901
  50   2.0000      -0.485067       -13.1994
  51   2.0000      -0.478593       -13.0232
  52   2.0000      -0.474830       -12.9208
  53   2.0000      -0.470351       -12.7989
  54   2.0000      -0.456078       -12.4105
  55   2.0000      -0.448522       -12.2049
  56   2.0000      -0.445081       -12.1113
  57   2.0000      -0.439101       -11.9485
  58   2.0000      -0.432309       -11.7637
  59   2.0000      -0.428960       -11.6726
  60   2.0000      -0.419206       -11.4072
  61   2.0000      -0.416657       -11.3378
  62   2.0000      -0.405857       -11.0439
  63   2.0000      -0.332716        -9.0537
  64   2.0000      -0.327343        -8.9075
  65   2.0000      -0.325518        -8.8578
  66   2.0000      -0.303710        -8.2644
  67   0.0000       0.037913         1.0317
  68   0.0000       0.055266         1.5039
  69   0.0000       0.107610         2.9282
  70   0.0000       0.115142         3.1332
  71   0.0000       0.131716         3.5842

MULLIKEN ATOMIC CHARGES
-----------------------
   0 S :    0.105420
   1 C :   -0.133228
   2 C :   -0.113671
   3 C :    0.073375
   4 C :   -0.158384
   5 H :   -0.027401
   6 C :    0.071181
   7 H :    0.004011
   8 H :    0.048391
   9 C :   -0.074725
  10 H :    0.025651
  11 H :    0.009481
  12 C :   -0.039662
  13 H :    0.046212
  14 H :    0.027542
  15 H :    0.051265
  16 S :    0.090077
  17 C :   -0.073696
  18 C :   -0.016850
  19 C :    0.004226
  20 C :   -0.200015
  21 H :   -0.005099
  22 C :    0.104345
  23 H :    0.020968
  24 H :    0.026146
  25 C :   -0.085463
  26 H :    0.020905
  27 H :    0.029575
  28 C :   -0.026857
  29 H :    0.033458
  30 H :    0.016712
  31 H :    0.036793
  32 H :    0.066508
  33 H :    0.042809
Sum of atomic charges:    0.0000000

LOEWDIN ATOMIC CHARGES
----------------------
   0 S :    0.403006
   1 C :   -0.201415
   2 C :   -0.066096
   3 C :   -0.048822
   4 C :   -0.199192
   5 H :    0.014046
   6 C :   -0.034751
   7 H :    0.026863
   8 H :    0.041356
   9 C :   -0.050846
  10 H :    0.028091
  11 H :    0.017570
  12 C :   -0.063869
  13 H :    0.033831
  14 H :    0.020293
  15 H :    0.037956
  16 S :    0.364299
  17 C :   -0.159816
  18 C :   -0.066129
  19 C :   -0.043354
  20 C :   -0.185370
  21 H :    0.020861
  22 C :   -0.019077
  23 H :    0.029433
  24 H :    0.027946
  25 C :   -0.027913
  26 H :    0.016913
  27 H :    0.021075
  28 C :   -0.059629
  29 H :    0.025981
  30 H :    0.019654
  31 H :    0.024178
  32 H :    0.033295
  33 H :    0.019631

  Mayer bond orders larger than 0.100000
B(  0-S ,  1-C ) :   1.1523 B(  0-S ,  4-C ) :   1.1571 B(  1-C ,  2-C ) :   1.5872
B(  1-C , 32-H ) :   0.9620 B(  2-C ,  3-C ) :   1.2396 B(  2-C ,  6-C ) :   1.0222
B(  3-C ,  4-C ) :   1.5636 B(  3-C ,  5-H ) :   1.0151 B(  4-C , 20-C ) :   1.0350
B(  6-C ,  7-H ) :   0.9363 B(  6-C ,  8-H ) :   0.9409 B(  6-C ,  9-C ) :   1.0609
B(  9-C , 10-H ) :   0.9535 B(  9-C , 11-H ) :   0.9499 B(  9-C , 12-C ) :   1.0745
B( 12-C , 13-H ) :   0.9712 B( 12-C , 14-H ) :   0.9738 B( 12-C , 15-H ) :   0.9737
B( 16-S , 17-C ) :   1.1376 B( 16-S , 20-C ) :   1.1211 B( 17-C , 18-C ) :   1.6499
B( 17-C , 33-H ) :   0.9727 B( 18-C , 19-C ) :   1.1737 B( 18-C , 21-H ) :   0.9998
B( 19-C , 20-C ) :   1.6355 B( 19-C , 22-C ) :   1.0459 B( 22-C , 23-H ) :   0.9373
B( 22-C , 24-H ) :   0.9332 B( 22-C , 25-C ) :   1.0478 B( 25-C , 26-H ) :   0.9595
B( 25-C , 27-H ) :   0.9651 B( 25-C , 28-C ) :   1.0705 B( 28-C , 29-H ) :   0.9772
B( 28-C , 30-H ) :   0.9742 B( 28-C , 31-H ) :   0.9756

Dispersion correction           -0.015081456
FINAL SINGLE POINT ENERGY     -1339.871877298676

DIPOLE MOMENT
-------------
                                X             Y             Z
Electronic contribution:      6.60405      23.79079      -5.47280
Nuclear contribution   :     -6.96886     -24.31892       5.97121
                        -----------------------------------------
Total Dipole Moment    :     -0.36481      -0.52812       0.49841
                        -----------------------------------------
Magnitude (a.u.)       :      0.81266
Magnitude (Debye)      :      2.06561

Rotational constants in cm-1:     0.018734     0.008693     0.007287
Rotational constants in MHz :   561.619901   260.600870   218.470916

                             ****ORCA TERMINATED NORMALLY****
TOTAL RUN TIME: 0 days 0 hours 0 minutes 21 seconds 914 msec
