                         Program Version 4.2.1 -  RELEASE  -
|  1> ! wB97X-D3 SP def2-SVP
|  2> %pal
|  3> nprocs 24
|  4> end
|  5>
|  6> * xyz 0 1
|  7> S 	 -44.5981 	 -3.48295 	 -10.3611
|  8> C 	 -46.1528 	 -3.15437 	 -9.62926
|  9> C 	 -47.0134 	 -2.43889 	 -10.3869
| 10> C 	 -46.4882 	 -2.21515 	 -11.6692
| 11> C 	 -45.2374 	 -2.78214 	 -11.8537
| 12> H 	 -47.0788 	 -1.61954 	 -12.3573
| 13> C 	 -48.3412 	 -1.87549 	 -9.95201
| 14> H 	 -48.7236 	 -1.11771 	 -10.6122
| 15> H 	 -48.1388 	 -1.29892 	 -9.06667
| 16> C 	 -49.4133 	 -2.882 	 -9.72347
| 17> H 	 -49.1135 	 -3.73144 	 -9.04706
| 18> H 	 -50.3013 	 -2.38817 	 -9.2675
| 19> C 	 -50.1847 	 -3.50218 	 -10.928
| 20> H 	 -49.5791 	 -3.9997 	 -11.6103
| 21> H 	 -50.9377 	 -4.20664 	 -10.7236
| 22> H 	 -50.6321 	 -2.70175 	 -11.5158
| 23> S 	 -42.6834 	 -2.61495 	 -12.9112
| 24> C 	 -42.4299 	 -2.7886 	 -14.6499
| 25> C 	 -43.647 	 -2.94535 	 -15.2735
| 26> C 	 -44.8447 	 -2.79917 	 -14.4648
| 27> C 	 -44.5094 	 -2.7013 	 -13.1035
| 28> H 	 -43.6083 	 -2.9444 	 -16.3554
| 29> C 	 -46.1824 	 -2.86038 	 -15.0848
| 30> H 	 -46.8794 	 -3.19822 	 -14.376
| 31> H 	 -46.257 	 -3.57471 	 -15.9057
| 32> C 	 -46.8245 	 -1.53041 	 -15.4869
| 33> H 	 -46.6503 	 -0.857098 	 -14.6245
| 34> H 	 -47.9 	 -1.67573 	 -15.8267
| 35> C 	 -45.9703 	 -0.799205 	 -16.6412
| 36> H 	 -46.456 	 0.151816 	 -17.032
| 37> H 	 -45.9469 	 -1.45107 	 -17.5035
| 38> H 	 -44.9415 	 -0.54735 	 -16.3355
| 39> H 	 -46.275 	 -3.33178 	 -8.60292
| 40> H 	 -41.4704 	 -2.95269 	 -15.1337
| 41> *
| 42>
| 43>                          ****END OF INPUT****

CARTESIAN COORDINATES (ANGSTROEM)
---------------------------------
  S    -44.598100   -3.482950  -10.361100
  C    -46.152800   -3.154370   -9.629260
  C    -47.013400   -2.438890  -10.386900
  C    -46.488200   -2.215150  -11.669200
  C    -45.237400   -2.782140  -11.853700
  H    -47.078800   -1.619540  -12.357300
  C    -48.341200   -1.875490   -9.952010
  H    -48.723600   -1.117710  -10.612200
  H    -48.138800   -1.298920   -9.066670
  C    -49.413300   -2.882000   -9.723470
  H    -49.113500   -3.731440   -9.047060
  H    -50.301300   -2.388170   -9.267500
  C    -50.184700   -3.502180  -10.928000
  H    -49.579100   -3.999700  -11.610300
  H    -50.937700   -4.206640  -10.723600
  H    -50.632100   -2.701750  -11.515800
  S    -42.683400   -2.614950  -12.911200
  C    -42.429900   -2.788600  -14.649900
  C    -43.647000   -2.945350  -15.273500
  C    -44.844700   -2.799170  -14.464800
  C    -44.509400   -2.701300  -13.103500
  H    -43.608300   -2.944400  -16.355400
  C    -46.182400   -2.860380  -15.084800
  H    -46.879400   -3.198220  -14.376000
  H    -46.257000   -3.574710  -15.905700
  C    -46.824500   -1.530410  -15.486900
  H    -46.650300   -0.857098  -14.624500
  H    -47.900000   -1.675730  -15.826700
  C    -45.970300   -0.799205  -16.641200
  H    -46.456000    0.151816  -17.032000
  H    -45.946900   -1.451070  -17.503500
  H    -44.941500   -0.547350  -16.335500
  H    -46.275000   -3.331780   -8.602920
  H    -41.470400   -2.952690  -15.133700

 Total Charge           Charge          ....    0
 Multiplicity           Mult            ....    1
 Number of Electrons    NEL             ....  134
 Basis Dimension        Dim             ....  322

ORBITAL ENERGIES
----------------

  NO   OCC          E(Eh)            E(eV)
   0   2.0000     -88.972697     -2421.0702
   1   2.0000     -88.961228     -2420.7581
   2   2.0000     -10.337128      -281.2876
   3   2.0000     -10.333103      -281.1780
   4   2.0000     -10.319030      -280.7951
   5   2.0000     -10.309687      -280.5409
   6   2.0000     -10.307756      -280.4883
   7   2.0000     -10.300118      -280.2805
   8   2.0000     -10.294769      -280.1349
   9   2.0000     -10.293988      -280.1136
  10   2.0000     -10.292940      -280.0851
  11   2.0000     -10.292640      -280.0770
  12   2.0000     -10.291676      -280.0507
  13   2.0000     -10.285997      -279.8962
  14   2.0000     -10.282480      -279.8005
  15   2.0000     -10.268877      -279.4303
  16   2.0000      -8.087029      -220.0592
  17   2.0000      -8.074869      -219.7284
  18   2.0000      -6.045606      -164.5093
  19   2.0000      -6.041787      -164.4054
  20   2.0000      -6.037546      -164.2900
  21   2.0000      -6.033565      -164.1817
  22   2.0000      -6.029612      -164.0741
  23   2.0000      -6.025419      -163.9600
  24   2.0000      -1.006598       -27.3909
  25   2.0000      -0.978936       -26.6382
  26   2.0000      -0.917686       -24.9715
  27   2.0000      -0.909236       -24.7416
  28   2.0000      -0.869383       -23.6571
  29   2.0000      -0.855084       -23.2680
  30   2.0000      -0.836024       -22.7494
  31   2.0000      -0.814941       -22.1757
  32   2.0000      -0.790389       -21.5076
  33   2.0000      -0.777247       -21.1500
  34   2.0000      -0.712722       -19.3942
  35   2.0000      -0.703335       -19.1387
  36   2.0000      -0.687653       -18.7120
  37   2.0000      -0.662896       -18.0383
  38   2.0000      -0.639647       -17.4057
  39   2.0000      -0.623379       -16.9630
  40   2.0000      -0.599632       -16.3168
  41   2.0000      -0.576378       -15.6840
  42   2.0000      -0.558662       -15.2020
  43   2.0000      -0.554708       -15.0944
  44   2.0000      -0.543344       -14.7851
  45   2.0000      -0.532978       -14.5031
  46   2.0000      -0.511924       -13.9302
  47   2.0000      -0.506802       -13.7908
  48   2.0000      -0.502351       -13.6697
  49   2.0000      -0.495592       -13.4858
  50   2.0000      -0.490644       -13.3511
  51   2.0000      -0.483871       -13.1668
  52   2.0000      -0.473484       -12.8842
  53   2.0000      -0.469100       -12.7649
  54   2.0000      -0.458210       -12.4685
  55   2.0000      -0.454389       -12.3645
  56   2.0000      -0.450393       -12.2558
  57   2.0000      -0.441464       -12.0129
  58   2.0000      -0.428517       -11.6605
  59   2.0000      -0.424754       -11.5581
  60   2.0000      -0.417632       -11.3643
  61   2.0000      -0.408825       -11.1247
  62   2.0000      -0.404598       -11.0097
  63   2.0000      -0.355805        -9.6819
  64   2.0000      -0.339137        -9.2284
  65   2.0000      -0.328015        -8.9257
  66   2.0000      -0.284290        -7.7359
  67   0.0000       0.017220         0.4686
  68   0.0000       0.069599         1.8939
  69   0.0000       0.100268         2.7284
  70   0.0000       0.121945         3.3183
  71   0.0000       0.131237         3.5711

MULLIKEN ATOMIC CHARGES
-----------------------
   0 S :    0.123701
   1 C :   -0.118913
   2 C :   -0.064791
   3 C :   -0.010160
   4 C :   -0.095191
   5 H :    0.001345
   6 C :    0.131853
   7 H :    0.006230
   8 H :    0.029058
   9 C :   -0.111742
  10 H :    0.040833
  11 H :    0.032942
  12 C :   -0.018117
  13 H :    0.009022
  14 H :    0.026471
  15 H :    0.013427
  16 S :    0.060907
  17 C :   -0.090890
  18 C :   -0.035898
  19 C :   -0.044315
  20 C :   -0.141068
  21 H :    0.022057
  22 C :    0.097079
  23 H :    0.005221
  24 H :    0.027654
  25 C :   -0.105573
  26 H :    0.045544
  27 H :    0.054896
  28 C :   -0.096474
  29 H :    0.040501
  30 H :    0.021114
  31 H :    0.052850
  32 H :    0.024161
  33 H :    0.066265
Sum of atomic charges:   -0.0000000

LOEWDIN ATOMIC CHARGES
----------------------
   0 S :    0.405646
   1 C :   -0.181857
   2 C :   -0.062664
   3 C :   -0.058667
   4 C :   -0.187732
   5 H :    0.030247
   6 C :   -0.029500
   7 H :    0.029538
   8 H :    0.037342
   9 C :   -0.044501
  10 H :    0.028405
  11 H :    0.030543
  12 C :   -0.061728
  13 H :    0.012227
  14 H :    0.023447
  15 H :    0.022862
  16 S :    0.347514
  17 C :   -0.180533
  18 C :   -0.070735
  19 C :   -0.053764
  20 C :   -0.154549
  21 H :    0.029529
  22 C :   -0.037178
  23 H :    0.025906
  24 H :    0.032119
  25 C :   -0.036142
  26 H :    0.026051
  27 H :    0.034791
  28 C :   -0.079217
  29 H :    0.030270
  30 H :    0.015396
  31 H :    0.027959
  32 H :    0.013953
  33 H :    0.035025

  Mayer bond orders larger than 0.100000
B(  0-S ,  1-C ) :   1.1334 B(  0-S ,  4-C ) :   1.1422 B(  1-C ,  2-C ) :   1.6193
B(  1-C , 32-H ) :   0.9681 B(  2-C ,  3-C ) :   1.2710 B(  2-C ,  6-C ) :   1.0100
B(  3-C ,  4-C ) :   1.5221 B(  3-C ,  5-H ) :   0.9973 B(  4-C , 20-C ) :   1.0948
B(  6-C ,  7-H ) :   0.9359 B(  6-C ,  8-H ) :   0.9272 B(  6-C ,  9-C ) :   1.0825
B(  9-C , 10-H ) :   0.9592 B(  9-C , 11-H ) :   0.9553 B(  9-C , 12-C ) :   1.0692
B( 12-C , 13-H ) :   0.9749 B( 12-C , 14-H ) :   0.9746 B( 12-C , 15-H ) :   0.9725
B( 16-S , 17-C ) :   1.1273 B( 16-S , 20-C ) :   1.1125 B( 17-C , 18-C ) :   1.6504
B( 17-C , 33-H ) :   0.9641 B( 18-C , 19-C ) :   1.2104 B( 18-C , 21-H ) :   0.9809
B( 19-C , 20-C ) :   1.5906 B( 19-C , 22-C ) :   1.0620 B( 22-C , 23-H ) :   0.9143
B( 22-C , 24-H ) :   0.9352 B( 22-C , 25-C ) :   1.0667 B( 25-C , 26-H ) :   0.9503
B( 25-C , 27-H ) :   0.9570 B( 25-C , 28-C ) :   1.0645 B( 28-C , 29-H ) :   0.9761
B( 28-C , 30-H ) :   0.9777 B( 28-C , 31-H ) :   0.9740

Dispersion correction           -0.014617266
FINAL SINGLE POINT ENERGY     -1339.866133149958

DIPOLE MOMENT
-------------
                                X             Y             Z
Electronic contribution:     26.96068      -5.57624       9.95641
Nuclear contribution   :    -27.61231       5.71329     -10.15165
                        -----------------------------------------
Total Dipole Moment    :     -0.65162       0.13705      -0.19523
                        -----------------------------------------
Magnitude (a.u.)       :      0.69391
Magnitude (Debye)      :      1.76378

Rotational constants in cm-1:     0.018883     0.009187     0.006589
Rotational constants in MHz :   566.090855   275.424784   197.545540

                             ****ORCA TERMINATED NORMALLY****
TOTAL RUN TIME: 0 days 0 hours 0 minutes 22 seconds 128 msec
