                         Program Version 4.2.1 -  RELEASE  -
|  1> ! wB97X-D3 SP def2-SVP
|  2> %pal
|  3> nprocs 24
|  4> end
|  5>
|  6> * xyz 0 1
|  7> S 	 -97.3591 	 47.1314 	 -93.4554
|  8> C 	 -97.6544 	 45.4916 	 -93.0048
|  9> C 	 -97.9551 	 44.6762 	 -94.08
| 10> C 	 -98.1481 	 45.4271 	 -95.248
| 11> C 	 -97.9211 	 46.7613 	 -95.1053
| 12> H 	 -98.2487 	 44.9799 	 -96.235
| 13> C 	 -98.0761 	 43.1717 	 -94.1198
| 14> H 	 -97.0778 	 42.8451 	 -93.8767
| 15> H 	 -98.1995 	 42.8037 	 -95.1617
| 16> C 	 -99.2624 	 42.5512 	 -93.3078
| 17> H 	 -99.2231 	 42.9523 	 -92.313
| 18> H 	 -100.151 	 42.8109 	 -93.8713
| 19> C 	 -99.258 	 41.0063 	 -93.3734
| 20> H 	 -99.4207 	 40.5297 	 -94.3631
| 21> H 	 -98.3241 	 40.6941 	 -92.9719
| 22> H 	 -100.087 	 40.6417 	 -92.7526
| 23> S 	 -96.4967 	 48.8049 	 -96.1387
| 24> C 	 -97.0497 	 49.568 	 -97.5888
| 25> C 	 -98.1371 	 48.9273 	 -98.1434
| 26> C 	 -98.6267 	 47.9237 	 -97.3108
| 27> C 	 -97.9028 	 47.752 	 -96.1666
| 28> H 	 -98.5695 	 49.3362 	 -99.0653
| 29> C 	 -99.9532 	 47.2402 	 -97.7155
| 30> H 	 -99.7668 	 46.255 	 -97.311
| 31> H 	 -100.133 	 47.2073 	 -98.8432
| 32> C 	 -101.13 	 47.8707 	 -96.9827
| 33> H 	 -101.14 	 48.8999 	 -97.1523
| 34> H 	 -101.014 	 47.7728 	 -95.9378
| 35> C 	 -102.545 	 47.3452 	 -97.1502
| 36> H 	 -103.229 	 48.1268 	 -96.805
| 37> H 	 -102.713 	 46.4104 	 -96.6385
| 38> H 	 -102.698 	 47.0616 	 -98.2016
| 39> H 	 -97.3275 	 44.9086 	 -92.0867
| 40> H 	 -96.6337 	 50.4811 	 -98.0206
| 41> *
| 42>
| 43>                          ****END OF INPUT****

CARTESIAN COORDINATES (ANGSTROEM)
---------------------------------
  S    -97.359100   47.131400  -93.455400
  C    -97.654400   45.491600  -93.004800
  C    -97.955100   44.676200  -94.080000
  C    -98.148100   45.427100  -95.248000
  C    -97.921100   46.761300  -95.105300
  H    -98.248700   44.979900  -96.235000
  C    -98.076100   43.171700  -94.119800
  H    -97.077800   42.845100  -93.876700
  H    -98.199500   42.803700  -95.161700
  C    -99.262400   42.551200  -93.307800
  H    -99.223100   42.952300  -92.313000
  H    -100.151000   42.810900  -93.871300
  C    -99.258000   41.006300  -93.373400
  H    -99.420700   40.529700  -94.363100
  H    -98.324100   40.694100  -92.971900
  H    -100.087000   40.641700  -92.752600
  S    -96.496700   48.804900  -96.138700
  C    -97.049700   49.568000  -97.588800
  C    -98.137100   48.927300  -98.143400
  C    -98.626700   47.923700  -97.310800
  C    -97.902800   47.752000  -96.166600
  H    -98.569500   49.336200  -99.065300
  C    -99.953200   47.240200  -97.715500
  H    -99.766800   46.255000  -97.311000
  H    -100.133000   47.207300  -98.843200
  C    -101.130000   47.870700  -96.982700
  H    -101.140000   48.899900  -97.152300
  H    -101.014000   47.772800  -95.937800
  C    -102.545000   47.345200  -97.150200
  H    -103.229000   48.126800  -96.805000
  H    -102.713000   46.410400  -96.638500
  H    -102.698000   47.061600  -98.201600
  H    -97.327500   44.908600  -92.086700
  H    -96.633700   50.481100  -98.020600

 Total Charge           Charge          ....    0
 Multiplicity           Mult            ....    1
 Number of Electrons    NEL             ....  134
 Basis Dimension        Dim             ....  322

ORBITAL ENERGIES
----------------

  NO   OCC          E(Eh)            E(eV)
   0   2.0000     -88.971344     -2421.0334
   1   2.0000     -88.965307     -2420.8691
   2   2.0000     -10.328389      -281.0497
   3   2.0000     -10.323472      -280.9160
   4   2.0000     -10.314047      -280.6595
   5   2.0000     -10.313454      -280.6433
   6   2.0000     -10.299339      -280.2593
   7   2.0000     -10.295593      -280.1573
   8   2.0000     -10.295314      -280.1497
   9   2.0000     -10.293122      -280.0901
  10   2.0000     -10.290012      -280.0055
  11   2.0000     -10.288964      -279.9770
  12   2.0000     -10.287348      -279.9330
  13   2.0000     -10.280487      -279.7463
  14   2.0000     -10.273060      -279.5442
  15   2.0000     -10.269242      -279.4403
  16   2.0000      -8.085561      -220.0193
  17   2.0000      -8.080496      -219.8815
  18   2.0000      -6.044195      -164.4709
  19   2.0000      -6.040235      -164.3632
  20   2.0000      -6.038914      -164.3272
  21   2.0000      -6.036132      -164.2515
  22   2.0000      -6.034971      -164.2199
  23   2.0000      -6.031296      -164.1199
  24   2.0000      -1.012787       -27.5593
  25   2.0000      -0.989796       -26.9337
  26   2.0000      -0.910504       -24.7761
  27   2.0000      -0.908616       -24.7247
  28   2.0000      -0.870595       -23.6901
  29   2.0000      -0.858208       -23.3530
  30   2.0000      -0.851006       -23.1570
  31   2.0000      -0.813556       -22.1380
  32   2.0000      -0.782331       -21.2883
  33   2.0000      -0.770437       -20.9647
  34   2.0000      -0.706310       -19.2197
  35   2.0000      -0.702843       -19.1253
  36   2.0000      -0.691242       -18.8096
  37   2.0000      -0.666940       -18.1484
  38   2.0000      -0.632109       -17.2006
  39   2.0000      -0.619967       -16.8702
  40   2.0000      -0.591483       -16.0951
  41   2.0000      -0.576282       -15.6814
  42   2.0000      -0.566811       -15.4237
  43   2.0000      -0.557939       -15.1823
  44   2.0000      -0.530448       -14.4342
  45   2.0000      -0.526339       -14.3224
  46   2.0000      -0.519159       -14.1270
  47   2.0000      -0.509028       -13.8513
  48   2.0000      -0.503948       -13.7131
  49   2.0000      -0.494186       -13.4475
  50   2.0000      -0.489098       -13.3090
  51   2.0000      -0.485897       -13.2219
  52   2.0000      -0.473296       -12.8790
  53   2.0000      -0.465033       -12.6542
  54   2.0000      -0.459185       -12.4951
  55   2.0000      -0.455397       -12.3920
  56   2.0000      -0.443800       -12.0764
  57   2.0000      -0.438963       -11.9448
  58   2.0000      -0.434189       -11.8149
  59   2.0000      -0.427123       -11.6226
  60   2.0000      -0.415799       -11.3145
  61   2.0000      -0.410948       -11.1825
  62   2.0000      -0.410109       -11.1596
  63   2.0000      -0.353469        -9.6184
  64   2.0000      -0.336416        -9.1543
  65   2.0000      -0.331687        -9.0257
  66   2.0000      -0.285436        -7.7671
  67   0.0000       0.024003         0.6532
  68   0.0000       0.072604         1.9756
  69   0.0000       0.101277         2.7559
  70   0.0000       0.128874         3.5068
  71   0.0000       0.134473         3.6592

MULLIKEN ATOMIC CHARGES
-----------------------
   0 S :    0.118813
   1 C :   -0.121197
   2 C :   -0.106974
   3 C :    0.001714
   4 C :   -0.135632
   5 H :    0.028487
   6 C :    0.040180
   7 H :    0.028328
   8 H :    0.014982
   9 C :   -0.056615
  10 H :    0.034982
  11 H :    0.032602
  12 C :   -0.047450
  13 H :    0.038425
  14 H :    0.022385
  15 H :    0.037810
  16 S :    0.102445
  17 C :   -0.092755
  18 C :   -0.049632
  19 C :   -0.057284
  20 C :   -0.142647
  21 H :    0.023394
  22 C :    0.098979
  23 H :   -0.003347
  24 H :    0.039661
  25 C :   -0.053571
  26 H :    0.006728
  27 H :    0.020294
  28 C :   -0.026286
  29 H :    0.043394
  30 H :    0.026255
  31 H :    0.014545
  32 H :    0.062954
  33 H :    0.056034
Sum of atomic charges:   -0.0000000

LOEWDIN ATOMIC CHARGES
----------------------
   0 S :    0.405468
   1 C :   -0.225397
   2 C :   -0.065982
   3 C :   -0.067308
   4 C :   -0.183481
   5 H :    0.034137
   6 C :   -0.036113
   7 H :    0.027441
   8 H :    0.030988
   9 C :   -0.029284
  10 H :    0.021740
  11 H :    0.027987
  12 C :   -0.065492
  13 H :    0.029362
  14 H :    0.017419
  15 H :    0.029479
  16 S :    0.409074
  17 C :   -0.188895
  18 C :   -0.075050
  19 C :   -0.058194
  20 C :   -0.194153
  21 H :    0.036567
  22 C :   -0.025892
  23 H :    0.023727
  24 H :    0.036817
  25 C :   -0.043085
  26 H :    0.015412
  27 H :    0.025611
  28 C :   -0.061320
  29 H :    0.032929
  30 H :    0.021504
  31 H :    0.020336
  32 H :    0.043475
  33 H :    0.030175

  Mayer bond orders larger than 0.100000
B(  0-S ,  1-C ) :   1.1322 B(  0-S ,  4-C ) :   1.1396 B(  1-C ,  2-C ) :   1.6260
B(  1-C , 32-H ) :   0.9490 B(  2-C ,  3-C ) :   1.2732 B(  2-C ,  6-C ) :   1.0092
B(  3-C ,  4-C ) :   1.5781 B(  3-C ,  5-H ) :   0.9799 B(  4-C , 20-C ) :   1.0441
B(  6-C ,  7-H ) :   0.9349 B(  6-C ,  8-H ) :   0.9468 B(  6-C ,  9-C ) :   1.0580
B(  9-C , 10-H ) :   0.9617 B(  9-C , 11-H ) :   0.9566 B(  9-C , 12-C ) :   1.0793
B( 12-C , 13-H ) :   0.9751 B( 12-C , 14-H ) :   0.9774 B( 12-C , 15-H ) :   0.9744
B( 16-S , 17-C ) :   1.1617 B( 16-S , 20-C ) :   1.1371 B( 17-C , 18-C ) :   1.6055
B( 17-C , 20-C ) :   0.1043 B( 17-C , 33-H ) :   0.9647 B( 18-C , 19-C ) :   1.2480
B( 18-C , 21-H ) :   0.9921 B( 19-C , 20-C ) :   1.6172 B( 19-C , 22-C ) :   1.0251
B( 22-C , 23-H ) :   0.9190 B( 22-C , 24-H ) :   0.9389 B( 22-C , 25-C ) :   1.0791
B( 25-C , 26-H ) :   0.9557 B( 25-C , 27-H ) :   0.9501 B( 25-C , 28-C ) :   1.0856
B( 28-C , 29-H ) :   0.9729 B( 28-C , 30-H ) :   0.9762 B( 28-C , 31-H ) :   0.9734

Dispersion correction           -0.013617454
FINAL SINGLE POINT ENERGY     -1339.867364682355

DIPOLE MOMENT
-------------
                                X             Y             Z
Electronic contribution:     21.13639      21.08793       3.19042
Nuclear contribution   :    -21.37763     -21.53925      -3.48510
                        -----------------------------------------
Total Dipole Moment    :     -0.24124      -0.45132      -0.29468
                        -----------------------------------------
Magnitude (a.u.)       :      0.59053
Magnitude (Debye)      :      1.50100

Rotational constants in cm-1:     0.018280     0.008301     0.006391
Rotational constants in MHz :   548.024110   248.865487   191.584681

                             ****ORCA TERMINATED NORMALLY****
TOTAL RUN TIME: 0 days 0 hours 0 minutes 20 seconds 149 msec
