                         Program Version 4.2.1 -  RELEASE  -
|  1> ! wB97X-D3 SP def2-SVP
|  2> %pal
|  3> nprocs 24
|  4> end
|  5>
|  6> * xyz 0 1
|  7> S 	 -76.0236 	 -43.1121 	 -93.8473
|  8> C 	 -74.9697 	 -42.0061 	 -94.5627
|  9> C 	 -75.4705 	 -41.42 	 -95.7194
| 10> C 	 -76.6974 	 -42.0732 	 -96.0897
| 11> C 	 -77.0984 	 -43.0637 	 -95.2656
| 12> H 	 -77.2685 	 -41.9134 	 -96.9421
| 13> C 	 -74.7825 	 -40.3354 	 -96.5266
| 14> H 	 -73.7824 	 -40.8052 	 -96.712
| 15> H 	 -74.7754 	 -39.4565 	 -95.918
| 16> C 	 -75.4204 	 -39.8649 	 -97.7901
| 17> H 	 -75.2299 	 -40.4601 	 -98.723
| 18> H 	 -76.5091 	 -39.7238 	 -97.6946
| 19> C 	 -74.7796 	 -38.6368 	 -98.3291
| 20> H 	 -73.806 	 -38.777 	 -98.5881
| 21> H 	 -75.384 	 -38.3296 	 -99.219
| 22> H 	 -74.9859 	 -37.9161 	 -97.5026
| 23> S 	 -78.4139 	 -45.2542 	 -94.2797
| 24> C 	 -80.0252 	 -45.6254 	 -94.6698
| 25> C 	 -80.577 	 -44.5925 	 -95.3773
| 26> C 	 -79.6999 	 -43.4531 	 -95.6992
| 27> C 	 -78.3927 	 -43.7572 	 -95.2557
| 28> H 	 -81.5445 	 -44.7813 	 -95.6874
| 29> C 	 -80.2083 	 -42.2753 	 -96.4101
| 30> H 	 -81.2085 	 -42.3695 	 -96.7984
| 31> H 	 -79.6873 	 -42.1793 	 -97.3684
| 32> C 	 -80.2278 	 -40.9869 	 -95.5056
| 33> H 	 -80.3004 	 -40.1214 	 -96.0654
| 34> H 	 -79.3116 	 -40.904 	 -94.9371
| 35> C 	 -81.3304 	 -41.2463 	 -94.4905
| 36> H 	 -81.5833 	 -40.3808 	 -93.913
| 37> H 	 -81.2263 	 -42.0066 	 -93.7458
| 38> H 	 -82.2898 	 -41.5065 	 -94.9639
| 39> H 	 -74.0424 	 -41.8283 	 -94.1522
| 40> H 	 -80.6168 	 -46.4663 	 -94.2899
| 41> *
| 42>
| 43>                          ****END OF INPUT****

CARTESIAN COORDINATES (ANGSTROEM)
---------------------------------
  S    -76.023600  -43.112100  -93.847300
  C    -74.969700  -42.006100  -94.562700
  C    -75.470500  -41.420000  -95.719400
  C    -76.697400  -42.073200  -96.089700
  C    -77.098400  -43.063700  -95.265600
  H    -77.268500  -41.913400  -96.942100
  C    -74.782500  -40.335400  -96.526600
  H    -73.782400  -40.805200  -96.712000
  H    -74.775400  -39.456500  -95.918000
  C    -75.420400  -39.864900  -97.790100
  H    -75.229900  -40.460100  -98.723000
  H    -76.509100  -39.723800  -97.694600
  C    -74.779600  -38.636800  -98.329100
  H    -73.806000  -38.777000  -98.588100
  H    -75.384000  -38.329600  -99.219000
  H    -74.985900  -37.916100  -97.502600
  S    -78.413900  -45.254200  -94.279700
  C    -80.025200  -45.625400  -94.669800
  C    -80.577000  -44.592500  -95.377300
  C    -79.699900  -43.453100  -95.699200
  C    -78.392700  -43.757200  -95.255700
  H    -81.544500  -44.781300  -95.687400
  C    -80.208300  -42.275300  -96.410100
  H    -81.208500  -42.369500  -96.798400
  H    -79.687300  -42.179300  -97.368400
  C    -80.227800  -40.986900  -95.505600
  H    -80.300400  -40.121400  -96.065400
  H    -79.311600  -40.904000  -94.937100
  C    -81.330400  -41.246300  -94.490500
  H    -81.583300  -40.380800  -93.913000
  H    -81.226300  -42.006600  -93.745800
  H    -82.289800  -41.506500  -94.963900
  H    -74.042400  -41.828300  -94.152200
  H    -80.616800  -46.466300  -94.289900

 Total Charge           Charge          ....    0
 Multiplicity           Mult            ....    1
 Number of Electrons    NEL             ....  134
 Basis Dimension        Dim             ....  322

ORBITAL ENERGIES
----------------

  NO   OCC          E(Eh)            E(eV)
   0   2.0000     -88.961980     -2420.7785
   1   2.0000     -88.959269     -2420.7048
   2   2.0000     -10.332511      -281.1619
   3   2.0000     -10.325102      -280.9603
   4   2.0000     -10.311947      -280.6023
   5   2.0000     -10.310663      -280.5674
   6   2.0000     -10.303584      -280.3748
   7   2.0000     -10.301370      -280.3145
   8   2.0000     -10.293798      -280.1085
   9   2.0000     -10.290815      -280.0273
  10   2.0000     -10.286484      -279.9095
  11   2.0000     -10.285243      -279.8757
  12   2.0000     -10.284754      -279.8624
  13   2.0000     -10.282795      -279.8091
  14   2.0000     -10.275132      -279.6006
  15   2.0000     -10.268480      -279.4195
  16   2.0000      -8.077605      -219.8028
  17   2.0000      -8.074702      -219.7238
  18   2.0000      -6.036101      -164.2507
  19   2.0000      -6.033221      -164.1723
  20   2.0000      -6.032000      -164.1391
  21   2.0000      -6.029030      -164.0583
  22   2.0000      -6.028323      -164.0390
  23   2.0000      -6.025495      -163.9620
  24   2.0000      -1.007163       -27.4063
  25   2.0000      -0.985227       -26.8094
  26   2.0000      -0.925612       -25.1872
  27   2.0000      -0.914620       -24.8881
  28   2.0000      -0.874343       -23.7921
  29   2.0000      -0.857027       -23.3209
  30   2.0000      -0.844845       -22.9894
  31   2.0000      -0.820701       -22.3324
  32   2.0000      -0.783038       -21.3075
  33   2.0000      -0.771521       -20.9942
  34   2.0000      -0.717654       -19.5284
  35   2.0000      -0.700298       -19.0561
  36   2.0000      -0.685160       -18.6442
  37   2.0000      -0.663285       -18.0489
  38   2.0000      -0.644523       -17.5384
  39   2.0000      -0.622836       -16.9482
  40   2.0000      -0.599311       -16.3081
  41   2.0000      -0.592766       -16.1300
  42   2.0000      -0.568891       -15.4803
  43   2.0000      -0.556502       -15.1432
  44   2.0000      -0.547148       -14.8887
  45   2.0000      -0.529709       -14.4141
  46   2.0000      -0.520942       -14.1756
  47   2.0000      -0.508789       -13.8449
  48   2.0000      -0.505932       -13.7671
  49   2.0000      -0.501451       -13.6452
  50   2.0000      -0.491116       -13.3640
  51   2.0000      -0.485648       -13.2152
  52   2.0000      -0.479405       -13.0453
  53   2.0000      -0.474326       -12.9071
  54   2.0000      -0.456931       -12.4337
  55   2.0000      -0.450603       -12.2615
  56   2.0000      -0.435392       -11.8476
  57   2.0000      -0.432515       -11.7693
  58   2.0000      -0.429810       -11.6957
  59   2.0000      -0.425236       -11.5713
  60   2.0000      -0.422580       -11.4990
  61   2.0000      -0.413264       -11.2455
  62   2.0000      -0.401877       -10.9356
  63   2.0000      -0.356964        -9.7135
  64   2.0000      -0.329662        -8.9706
  65   2.0000      -0.323330        -8.7982
  66   2.0000      -0.283434        -7.7126
  67   0.0000       0.024179         0.6579
  68   0.0000       0.082841         2.2542
  69   0.0000       0.105468         2.8699
  70   0.0000       0.123237         3.3535
  71   0.0000       0.136634         3.7180

MULLIKEN ATOMIC CHARGES
-----------------------
   0 S :    0.103109
   1 C :   -0.093229
   2 C :   -0.087420
   3 C :   -0.013667
   4 C :   -0.065068
   5 H :   -0.019776
   6 C :    0.105497
   7 H :    0.051203
   8 H :    0.026079
   9 C :   -0.135869
  10 H :    0.027696
  11 H :    0.035296
  12 C :   -0.015397
  13 H :    0.022677
  14 H :    0.036249
  15 H :    0.022782
  16 S :    0.082050
  17 C :   -0.081290
  18 C :   -0.028751
  19 C :   -0.024266
  20 C :   -0.160407
  21 H :   -0.012917
  22 C :    0.031179
  23 H :    0.010971
  24 H :    0.033352
  25 C :   -0.000258
  26 H :    0.012780
  27 H :    0.040685
  28 C :   -0.051133
  29 H :    0.017986
  30 H :    0.040028
  31 H :    0.010028
  32 H :    0.013803
  33 H :    0.065999
Sum of atomic charges:   -0.0000000

LOEWDIN ATOMIC CHARGES
----------------------
   0 S :    0.412276
   1 C :   -0.199820
   2 C :   -0.059238
   3 C :   -0.061322
   4 C :   -0.184912
   5 H :    0.019845
   6 C :   -0.035471
   7 H :    0.047357
   8 H :    0.031684
   9 C :   -0.057680
  10 H :    0.029298
  11 H :    0.024567
  12 C :   -0.050055
  13 H :    0.010199
  14 H :    0.033540
  15 H :    0.023326
  16 S :    0.401824
  17 C :   -0.202697
  18 C :   -0.069643
  19 C :   -0.047892
  20 C :   -0.179431
  21 H :    0.015997
  22 C :   -0.038224
  23 H :    0.028938
  24 H :    0.030615
  25 C :   -0.020846
  26 H :    0.014587
  27 H :    0.029364
  28 C :   -0.065966
  29 H :    0.021610
  30 H :    0.027411
  31 H :    0.021724
  32 H :    0.010107
  33 H :    0.038930

  Mayer bond orders larger than 0.100000
B(  0-S ,  1-C ) :   1.1606 B(  0-S ,  4-C ) :   1.1322 B(  1-C ,  2-C ) :   1.5942
B(  1-C , 32-H ) :   0.9859 B(  2-C ,  3-C ) :   1.2349 B(  2-C ,  6-C ) :   1.0009
B(  3-C ,  4-C ) :   1.5876 B(  3-C ,  5-H ) :   1.0169 B(  4-C , 20-C ) :   1.0596
B(  6-C ,  7-H ) :   0.9330 B(  6-C ,  8-H ) :   0.9322 B(  6-C ,  9-C ) :   1.0991
B(  9-C , 10-H ) :   0.9498 B(  9-C , 11-H ) :   0.9485 B(  9-C , 12-C ) :   1.0782
B( 12-C , 13-H ) :   0.9776 B( 12-C , 14-H ) :   0.9726 B( 12-C , 15-H ) :   0.9741
B( 16-S , 17-C ) :   1.1516 B( 16-S , 20-C ) :   1.1408 B( 17-C , 18-C ) :   1.6305
B( 17-C , 33-H ) :   0.9630 B( 18-C , 19-C ) :   1.2105 B( 18-C , 21-H ) :   0.9979
B( 19-C , 20-C ) :   1.5616 B( 19-C , 22-C ) :   1.0552 B( 22-C , 23-H ) :   0.9366
B( 22-C , 24-H ) :   0.9296 B( 22-C , 25-C ) :   1.0587 B( 25-C , 26-H ) :   0.9583
B( 25-C , 27-H ) :   0.9595 B( 25-C , 28-C ) :   1.0629 B( 28-C , 29-H ) :   0.9711
B( 28-C , 30-H ) :   0.9758 B( 28-C , 31-H ) :   0.9751

Dispersion correction           -0.014533321
FINAL SINGLE POINT ENERGY     -1339.846937407003

DIPOLE MOMENT
-------------
                                X             Y             Z
Electronic contribution:      4.67123     -24.04742      14.44062
Nuclear contribution   :     -4.89476      24.60464     -14.86477
                        -----------------------------------------
Total Dipole Moment    :     -0.22353       0.55722      -0.42415
                        -----------------------------------------
Magnitude (a.u.)       :      0.73509
Magnitude (Debye)      :      1.86846

Rotational constants in cm-1:     0.019991     0.008763     0.006870
Rotational constants in MHz :   599.327458   262.699410   205.945004

                             ****ORCA TERMINATED NORMALLY****
TOTAL RUN TIME: 0 days 0 hours 0 minutes 22 seconds 217 msec
