                         Program Version 4.2.1 -  RELEASE  -
|  1> ! wB97X-D3 SP def2-SVP
|  2> %pal
|  3> nprocs 24
|  4> end
|  5>
|  6> * xyz 0 1
|  7> S 	 -122.624 	 66.1351 	 -43.122
|  8> C 	 -123.564 	 67.457 	 -42.4772
|  9> C 	 -122.995 	 68.0223 	 -41.3308
| 10> C 	 -121.68 	 67.5999 	 -41.1356
| 11> C 	 -121.261 	 66.6962 	 -42.1202
| 12> H 	 -120.951 	 67.8995 	 -40.3129
| 13> C 	 -123.757 	 69.0743 	 -40.5193
| 14> H 	 -123.511 	 68.7751 	 -39.494
| 15> H 	 -124.866 	 69.0133 	 -40.696
| 16> C 	 -123.194 	 70.5063 	 -40.7833
| 17> H 	 -122.123 	 70.4378 	 -40.9109
| 18> H 	 -123.471 	 70.8284 	 -41.7841
| 19> C 	 -123.687 	 71.5262 	 -39.7147
| 20> H 	 -123.249 	 72.5041 	 -39.8429
| 21> H 	 -124.728 	 71.6094 	 -39.8292
| 22> H 	 -123.366 	 70.9898 	 -38.8194
| 23> S 	 -119.616 	 64.3235 	 -42.379
| 24> C 	 -117.882 	 64.5297 	 -42.3627
| 25> C 	 -117.553 	 65.8815 	 -42.3591
| 26> C 	 -118.716 	 66.7396 	 -42.3139
| 27> C 	 -119.908 	 66.0847 	 -42.1548
| 28> H 	 -116.498 	 66.2283 	 -42.3663
| 29> C 	 -118.577 	 68.2723 	 -42.3223
| 30> H 	 -117.544 	 68.5004 	 -42.2293
| 31> H 	 -119.047 	 68.6886 	 -41.422
| 32> C 	 -119.17 	 69.0085 	 -43.5533
| 33> H 	 -119.88 	 68.3366 	 -44.0715
| 34> H 	 -118.365 	 69.2352 	 -44.3445
| 35> C 	 -119.911 	 70.2943 	 -43.0992
| 36> H 	 -119.32 	 70.9378 	 -42.397
| 37> H 	 -120.837 	 70.0285 	 -42.5469
| 38> H 	 -120.171 	 70.9557 	 -43.8827
| 39> H 	 -124.662 	 67.586 	 -42.7754
| 40> H 	 -117.105 	 63.8331 	 -42.3652
| 41> *
| 42>
| 43>                          ****END OF INPUT****

CARTESIAN COORDINATES (ANGSTROEM)
---------------------------------
  S    -122.624000   66.135100  -43.122000
  C    -123.564000   67.457000  -42.477200
  C    -122.995000   68.022300  -41.330800
  C    -121.680000   67.599900  -41.135600
  C    -121.261000   66.696200  -42.120200
  H    -120.951000   67.899500  -40.312900
  C    -123.757000   69.074300  -40.519300
  H    -123.511000   68.775100  -39.494000
  H    -124.866000   69.013300  -40.696000
  C    -123.194000   70.506300  -40.783300
  H    -122.123000   70.437800  -40.910900
  H    -123.471000   70.828400  -41.784100
  C    -123.687000   71.526200  -39.714700
  H    -123.249000   72.504100  -39.842900
  H    -124.728000   71.609400  -39.829200
  H    -123.366000   70.989800  -38.819400
  S    -119.616000   64.323500  -42.379000
  C    -117.882000   64.529700  -42.362700
  C    -117.553000   65.881500  -42.359100
  C    -118.716000   66.739600  -42.313900
  C    -119.908000   66.084700  -42.154800
  H    -116.498000   66.228300  -42.366300
  C    -118.577000   68.272300  -42.322300
  H    -117.544000   68.500400  -42.229300
  H    -119.047000   68.688600  -41.422000
  C    -119.170000   69.008500  -43.553300
  H    -119.880000   68.336600  -44.071500
  H    -118.365000   69.235200  -44.344500
  C    -119.911000   70.294300  -43.099200
  H    -119.320000   70.937800  -42.397000
  H    -120.837000   70.028500  -42.546900
  H    -120.171000   70.955700  -43.882700
  H    -124.662000   67.586000  -42.775400
  H    -117.105000   63.833100  -42.365200

 Total Charge           Charge          ....    0
 Multiplicity           Mult            ....    1
 Number of Electrons    NEL             ....  134
 Basis Dimension        Dim             ....  322

ORBITAL ENERGIES
----------------

  NO   OCC          E(Eh)            E(eV)
   0   2.0000     -88.972357     -2421.0609
   1   2.0000     -88.967009     -2420.9154
   2   2.0000     -10.337849      -281.3072
   3   2.0000     -10.328975      -281.0657
   4   2.0000     -10.320020      -280.8220
   5   2.0000     -10.316534      -280.7272
   6   2.0000     -10.304707      -280.4053
   7   2.0000     -10.304277      -280.3936
   8   2.0000     -10.302272      -280.3391
   9   2.0000     -10.301721      -280.3241
  10   2.0000     -10.297724      -280.2153
  11   2.0000     -10.291318      -280.0410
  12   2.0000     -10.288125      -279.9541
  13   2.0000     -10.287074      -279.9255
  14   2.0000     -10.277632      -279.6686
  15   2.0000     -10.276265      -279.6314
  16   2.0000      -8.086424      -220.0428
  17   2.0000      -8.080806      -219.8899
  18   2.0000      -6.044823      -164.4880
  19   2.0000      -6.041240      -164.3905
  20   2.0000      -6.039528      -164.3439
  21   2.0000      -6.037127      -164.2786
  22   2.0000      -6.035491      -164.2341
  23   2.0000      -6.031341      -164.1211
  24   2.0000      -1.003020       -27.2936
  25   2.0000      -0.982313       -26.7301
  26   2.0000      -0.909296       -24.7432
  27   2.0000      -0.900520       -24.5044
  28   2.0000      -0.864144       -23.5145
  29   2.0000      -0.853395       -23.2221
  30   2.0000      -0.841172       -22.8895
  31   2.0000      -0.813498       -22.1364
  32   2.0000      -0.778945       -21.1962
  33   2.0000      -0.767015       -20.8715
  34   2.0000      -0.709111       -19.2959
  35   2.0000      -0.698417       -19.0049
  36   2.0000      -0.689126       -18.7521
  37   2.0000      -0.658704       -17.9242
  38   2.0000      -0.637362       -17.3435
  39   2.0000      -0.618393       -16.8273
  40   2.0000      -0.590394       -16.0654
  41   2.0000      -0.569689       -15.5020
  42   2.0000      -0.560448       -15.2506
  43   2.0000      -0.556282       -15.1372
  44   2.0000      -0.526598       -14.3295
  45   2.0000      -0.515130       -14.0174
  46   2.0000      -0.510479       -13.8908
  47   2.0000      -0.508531       -13.8378
  48   2.0000      -0.503288       -13.6952
  49   2.0000      -0.499005       -13.5786
  50   2.0000      -0.487856       -13.2752
  51   2.0000      -0.481195       -13.0940
  52   2.0000      -0.473586       -12.8869
  53   2.0000      -0.469444       -12.7742
  54   2.0000      -0.458930       -12.4881
  55   2.0000      -0.448378       -12.2010
  56   2.0000      -0.443265       -12.0618
  57   2.0000      -0.437135       -11.8950
  58   2.0000      -0.432358       -11.7651
  59   2.0000      -0.428616       -11.6632
  60   2.0000      -0.418126       -11.3778
  61   2.0000      -0.415123       -11.2961
  62   2.0000      -0.408396       -11.1130
  63   2.0000      -0.349055        -9.4983
  64   2.0000      -0.334593        -9.1048
  65   2.0000      -0.329338        -8.9618
  66   2.0000      -0.289248        -7.8708
  67   0.0000       0.023183         0.6308
  68   0.0000       0.062099         1.6898
  69   0.0000       0.101074         2.7504
  70   0.0000       0.122047         3.3211
  71   0.0000       0.131508         3.5785

MULLIKEN ATOMIC CHARGES
-----------------------
   0 S :    0.122266
   1 C :   -0.147517
   2 C :   -0.086750
   3 C :   -0.018422
   4 C :   -0.162539
   5 H :    0.054600
   6 C :    0.052477
   7 H :    0.027884
   8 H :    0.038737
   9 C :   -0.101220
  10 H :    0.026625
  11 H :    0.017293
  12 C :    0.004986
  13 H :    0.038529
  14 H :    0.027538
  15 H :    0.031390
  16 S :    0.098591
  17 C :   -0.056215
  18 C :   -0.045058
  19 C :   -0.076881
  20 C :   -0.144705
  21 H :    0.032323
  22 C :    0.104069
  23 H :    0.004328
  24 H :    0.020941
  25 C :   -0.084645
  26 H :    0.048713
  27 H :    0.041094
  28 C :   -0.071273
  29 H :    0.028743
  30 H :    0.043046
  31 H :    0.023747
  32 H :    0.074639
  33 H :    0.032665
Sum of atomic charges:    0.0000000

LOEWDIN ATOMIC CHARGES
----------------------
   0 S :    0.400020
   1 C :   -0.212863
   2 C :   -0.067824
   3 C :   -0.068305
   4 C :   -0.178290
   5 H :    0.048478
   6 C :   -0.027112
   7 H :    0.030073
   8 H :    0.035133
   9 C :   -0.041522
  10 H :    0.016844
  11 H :    0.019026
  12 C :   -0.053867
  13 H :    0.026807
  14 H :    0.020065
  15 H :    0.028325
  16 S :    0.382621
  17 C :   -0.176558
  18 C :   -0.075390
  19 C :   -0.057270
  20 C :   -0.189655
  21 H :    0.036995
  22 C :   -0.028085
  23 H :    0.023449
  24 H :    0.028679
  25 C :   -0.042107
  26 H :    0.028325
  27 H :    0.030578
  28 C :   -0.070362
  29 H :    0.025043
  30 H :    0.027988
  31 H :    0.018425
  32 H :    0.040329
  33 H :    0.022007

  Mayer bond orders larger than 0.100000
B(  0-S ,  1-C ) :   1.1435 B(  0-S ,  4-C ) :   1.1516 B(  1-C ,  2-C ) :   1.5910
B(  1-C ,  4-C ) :   0.1048 B(  1-C , 32-H ) :   0.9567 B(  2-C ,  3-C ) :   1.2596
B(  2-C ,  6-C ) :   1.0211 B(  3-C ,  4-C ) :   1.5497 B(  3-C ,  5-H ) :   0.9814
B(  4-C , 20-C ) :   1.0599 B(  6-C ,  7-H ) :   0.9375 B(  6-C ,  8-H ) :   0.9434
B(  6-C ,  9-C ) :   1.0575 B(  9-C , 10-H ) :   0.9509 B(  9-C , 11-H ) :   0.9539
B(  9-C , 12-C ) :   1.0612 B( 12-C , 13-H ) :   0.9745 B( 12-C , 14-H ) :   0.9767
B( 12-C , 15-H ) :   0.9793 B( 16-S , 17-C ) :   1.1515 B( 16-S , 20-C ) :   1.1014
B( 17-C , 18-C ) :   1.6214 B( 17-C , 33-H ) :   0.9707 B( 18-C , 19-C ) :   1.2432
B( 18-C , 21-H ) :   0.9802 B( 19-C , 20-C ) :   1.6220 B( 19-C , 22-C ) :   1.0364
B( 22-C , 23-H ) :   0.9258 B( 22-C , 24-H ) :   0.9489 B( 22-C , 25-C ) :   1.0289
B( 25-C , 26-H ) :   0.9660 B( 25-C , 27-H ) :   0.9577 B( 25-C , 28-C ) :   1.0725
B( 28-C , 29-H ) :   0.9762 B( 28-C , 30-H ) :   0.9682 B( 28-C , 31-H ) :   0.9692

Dispersion correction           -0.016078950
FINAL SINGLE POINT ENERGY     -1339.872210947536

DIPOLE MOMENT
-------------
                                X             Y             Z
Electronic contribution:      2.75846     -31.23320      -6.77329
Nuclear contribution   :     -2.68190      31.83473       7.00608
                        -----------------------------------------
Total Dipole Moment    :      0.07655       0.60153       0.23278
                        -----------------------------------------
Magnitude (a.u.)       :      0.64953
Magnitude (Debye)      :      1.65097

Rotational constants in cm-1:     0.021627     0.008819     0.007180
Rotational constants in MHz :   648.370507   264.385161   215.263025

                             ****ORCA TERMINATED NORMALLY****
TOTAL RUN TIME: 0 days 0 hours 0 minutes 21 seconds 879 msec
