                         Program Version 4.2.1 -  RELEASE  -
|  1> ! wB97X-D3 SP def2-SVP
|  2> %pal
|  3> nprocs 24
|  4> end
|  5>
|  6> * xyz 0 1
|  7> S 	 -80.241 	 -25.4441 	 -53.6982
|  8> C 	 -79.6649 	 -25.322 	 -52.0207
|  9> C 	 -80.6819 	 -25.6082 	 -51.136
| 10> C 	 -81.8954 	 -26.0319 	 -51.7425
| 11> C 	 -81.8152 	 -26.0244 	 -53.104
| 12> H 	 -82.7994 	 -26.2953 	 -51.2153
| 13> C 	 -80.4388 	 -25.6275 	 -49.6111
| 14> H 	 -81.1252 	 -25.0701 	 -49.0467
| 15> H 	 -79.5281 	 -25.0318 	 -49.5292
| 16> C 	 -80.0625 	 -26.9918 	 -49.0051
| 17> H 	 -80.9823 	 -27.5701 	 -48.887
| 18> H 	 -79.4383 	 -27.4623 	 -49.8008
| 19> C 	 -79.2664 	 -27.019 	 -47.6688
| 20> H 	 -79.7986 	 -26.5531 	 -46.8531
| 21> H 	 -79.0935 	 -27.9977 	 -47.3401
| 22> H 	 -78.3171 	 -26.5112 	 -47.6688
| 23> S 	 -83.0041 	 -25.2909 	 -55.4861
| 24> C 	 -84.2768 	 -26.2577 	 -56.0647
| 25> C 	 -84.5235 	 -27.3484 	 -55.2317
| 26> C 	 -83.602 	 -27.4484 	 -54.1783
| 27> C 	 -82.7967 	 -26.3371 	 -54.1206
| 28> H 	 -85.3069 	 -28.0422 	 -55.4735
| 29> C 	 -83.7224 	 -28.6168 	 -53.2205
| 30> H 	 -84.738 	 -29.031 	 -53.0979
| 31> H 	 -83.4369 	 -28.3281 	 -52.2058
| 32> C 	 -82.98 	 -29.8508 	 -53.7339
| 33> H 	 -83.3298 	 -30.371 	 -54.6476
| 34> H 	 -83.2542 	 -30.5912 	 -52.9053
| 35> C 	 -81.456 	 -29.7359 	 -53.9217
| 36> H 	 -80.949 	 -29.4508 	 -52.951
| 37> H 	 -81.3253 	 -28.8199 	 -54.4896
| 38> H 	 -80.905 	 -30.5883 	 -54.3313
| 39> H 	 -78.6511 	 -24.9095 	 -51.7793
| 40> H 	 -84.969 	 -26.0444 	 -56.9132
| 41> *
| 42>
| 43>                          ****END OF INPUT****

CARTESIAN COORDINATES (ANGSTROEM)
---------------------------------
  S    -80.241000  -25.444100  -53.698200
  C    -79.664900  -25.322000  -52.020700
  C    -80.681900  -25.608200  -51.136000
  C    -81.895400  -26.031900  -51.742500
  C    -81.815200  -26.024400  -53.104000
  H    -82.799400  -26.295300  -51.215300
  C    -80.438800  -25.627500  -49.611100
  H    -81.125200  -25.070100  -49.046700
  H    -79.528100  -25.031800  -49.529200
  C    -80.062500  -26.991800  -49.005100
  H    -80.982300  -27.570100  -48.887000
  H    -79.438300  -27.462300  -49.800800
  C    -79.266400  -27.019000  -47.668800
  H    -79.798600  -26.553100  -46.853100
  H    -79.093500  -27.997700  -47.340100
  H    -78.317100  -26.511200  -47.668800
  S    -83.004100  -25.290900  -55.486100
  C    -84.276800  -26.257700  -56.064700
  C    -84.523500  -27.348400  -55.231700
  C    -83.602000  -27.448400  -54.178300
  C    -82.796700  -26.337100  -54.120600
  H    -85.306900  -28.042200  -55.473500
  C    -83.722400  -28.616800  -53.220500
  H    -84.738000  -29.031000  -53.097900
  H    -83.436900  -28.328100  -52.205800
  C    -82.980000  -29.850800  -53.733900
  H    -83.329800  -30.371000  -54.647600
  H    -83.254200  -30.591200  -52.905300
  C    -81.456000  -29.735900  -53.921700
  H    -80.949000  -29.450800  -52.951000
  H    -81.325300  -28.819900  -54.489600
  H    -80.905000  -30.588300  -54.331300
  H    -78.651100  -24.909500  -51.779300
  H    -84.969000  -26.044400  -56.913200

 Total Charge           Charge          ....    0
 Multiplicity           Mult            ....    1
 Number of Electrons    NEL             ....  134
 Basis Dimension        Dim             ....  322

ORBITAL ENERGIES
----------------

  NO   OCC          E(Eh)            E(eV)
   0   2.0000     -88.970914     -2421.0216
   1   2.0000     -88.964560     -2420.8488
   2   2.0000     -10.330424      -281.1051
   3   2.0000     -10.322066      -280.8777
   4   2.0000     -10.319075      -280.7963
   5   2.0000     -10.316135      -280.7163
   6   2.0000     -10.303594      -280.3750
   7   2.0000     -10.298516      -280.2369
   8   2.0000     -10.296758      -280.1890
   9   2.0000     -10.293938      -280.1123
  10   2.0000     -10.290915      -280.0300
  11   2.0000     -10.290640      -280.0225
  12   2.0000     -10.288670      -279.9690
  13   2.0000     -10.287228      -279.9297
  14   2.0000     -10.273890      -279.5668
  15   2.0000     -10.271789      -279.5096
  16   2.0000      -8.086535      -220.0458
  17   2.0000      -8.078678      -219.8320
  18   2.0000      -6.044901      -164.4901
  19   2.0000      -6.040892      -164.3810
  20   2.0000      -6.037417      -164.2865
  21   2.0000      -6.037206      -164.2807
  22   2.0000      -6.033378      -164.1766
  23   2.0000      -6.029348      -164.0669
  24   2.0000      -1.014194       -27.5976
  25   2.0000      -0.985977       -26.8298
  26   2.0000      -0.910858       -24.7857
  27   2.0000      -0.906471       -24.6663
  28   2.0000      -0.867714       -23.6117
  29   2.0000      -0.851906       -23.1816
  30   2.0000      -0.844085       -22.9687
  31   2.0000      -0.815205       -22.1829
  32   2.0000      -0.787226       -21.4215
  33   2.0000      -0.774179       -21.0665
  34   2.0000      -0.706848       -19.2343
  35   2.0000      -0.696059       -18.9407
  36   2.0000      -0.687860       -18.7176
  37   2.0000      -0.661482       -17.9998
  38   2.0000      -0.641124       -17.4459
  39   2.0000      -0.624255       -16.9868
  40   2.0000      -0.600499       -16.3404
  41   2.0000      -0.571115       -15.5408
  42   2.0000      -0.553526       -15.0622
  43   2.0000      -0.549076       -14.9411
  44   2.0000      -0.532701       -14.4955
  45   2.0000      -0.519689       -14.1415
  46   2.0000      -0.515255       -14.0208
  47   2.0000      -0.511986       -13.9319
  48   2.0000      -0.504682       -13.7331
  49   2.0000      -0.500432       -13.6175
  50   2.0000      -0.497294       -13.5321
  51   2.0000      -0.480964       -13.0877
  52   2.0000      -0.473146       -12.8749
  53   2.0000      -0.470034       -12.7903
  54   2.0000      -0.455570       -12.3967
  55   2.0000      -0.450609       -12.2617
  56   2.0000      -0.441909       -12.0250
  57   2.0000      -0.437966       -11.9177
  58   2.0000      -0.430831       -11.7235
  59   2.0000      -0.419520       -11.4157
  60   2.0000      -0.418818       -11.3966
  61   2.0000      -0.417382       -11.3575
  62   2.0000      -0.398651       -10.8478
  63   2.0000      -0.350230        -9.5302
  64   2.0000      -0.335750        -9.1362
  65   2.0000      -0.334359        -9.0984
  66   2.0000      -0.289585        -7.8800
  67   0.0000       0.029082         0.7914
  68   0.0000       0.071027         1.9327
  69   0.0000       0.104825         2.8524
  70   0.0000       0.119422         3.2496
  71   0.0000       0.134268         3.6536

MULLIKEN ATOMIC CHARGES
-----------------------
   0 S :    0.086964
   1 C :   -0.144453
   2 C :   -0.098449
   3 C :    0.038384
   4 C :   -0.144488
   5 H :    0.018157
   6 C :    0.092510
   7 H :    0.016224
   8 H :   -0.001284
   9 C :   -0.079253
  10 H :    0.028802
  11 H :    0.037411
  12 C :   -0.019597
  13 H :    0.019927
  14 H :    0.023150
  15 H :    0.025604
  16 S :    0.140497
  17 C :   -0.102165
  18 C :   -0.041429
  19 C :   -0.025256
  20 C :   -0.163470
  21 H :    0.012019
  22 C :    0.095688
  23 H :    0.030229
  24 H :    0.013797
  25 C :   -0.123257
  26 H :    0.038185
  27 H :    0.029279
  28 C :   -0.052017
  29 H :    0.027075
  30 H :    0.034564
  31 H :    0.046921
  32 H :    0.070547
  33 H :    0.069186
Sum of atomic charges:   -0.0000000

LOEWDIN ATOMIC CHARGES
----------------------
   0 S :    0.373103
   1 C :   -0.195791
   2 C :   -0.059243
   3 C :   -0.066278
   4 C :   -0.165407
   5 H :    0.033796
   6 C :   -0.031070
   7 H :    0.019078
   8 H :    0.028700
   9 C :   -0.038955
  10 H :    0.021902
  11 H :    0.030764
  12 C :   -0.062446
  13 H :    0.023674
  14 H :    0.022030
  15 H :    0.023727
  16 S :    0.440970
  17 C :   -0.210696
  18 C :   -0.067366
  19 C :   -0.059273
  20 C :   -0.216953
  21 H :    0.028564
  22 C :   -0.028335
  23 H :    0.039505
  24 H :    0.027915
  25 C :   -0.048469
  26 H :    0.026696
  27 H :    0.026547
  28 C :   -0.077486
  29 H :    0.029052
  30 H :    0.025631
  31 H :    0.027733
  32 H :    0.038076
  33 H :    0.040303

  Mayer bond orders larger than 0.100000
B(  0-S ,  1-C ) :   1.1174 B(  0-S ,  4-C ) :   1.1403 B(  1-C ,  2-C ) :   1.6339
B(  1-C , 32-H ) :   0.9608 B(  2-C ,  3-C ) :   1.2178 B(  2-C ,  6-C ) :   1.0309
B(  3-C ,  4-C ) :   1.5996 B(  3-C ,  5-H ) :   0.9951 B(  4-C , 20-C ) :   1.0441
B(  6-C ,  7-H ) :   0.9401 B(  6-C ,  8-H ) :   0.9352 B(  6-C ,  9-C ) :   1.0505
B(  9-C , 10-H ) :   0.9568 B(  9-C , 11-H ) :   0.9558 B(  9-C , 12-C ) :   1.0856
B( 12-C , 13-H ) :   0.9739 B( 12-C , 14-H ) :   0.9737 B( 12-C , 15-H ) :   0.9740
B( 16-S , 17-C ) :   1.1673 B( 16-S , 20-C ) :   1.1528 B( 17-C , 18-C ) :   1.5909
B( 17-C , 33-H ) :   0.9604 B( 18-C , 19-C ) :   1.2625 B( 18-C , 21-H ) :   0.9917
B( 19-C , 20-C ) :   1.5641 B( 19-C , 22-C ) :   1.0411 B( 22-C , 23-H ) :   0.9375
B( 22-C , 24-H ) :   0.9327 B( 22-C , 25-C ) :   1.0611 B( 25-C , 26-H ) :   0.9603
B( 25-C , 27-H ) :   0.9557 B( 25-C , 28-C ) :   1.0668 B( 28-C , 29-H ) :   0.9717
B( 28-C , 30-H ) :   0.9711 B( 28-C , 31-H ) :   0.9764

Dispersion correction           -0.015013417
FINAL SINGLE POINT ENERGY     -1339.881538070161

DIPOLE MOMENT
-------------
                                X             Y             Z
Electronic contribution:     -4.95885      17.67861     -22.28155
Nuclear contribution   :      4.70076     -17.97839      22.75151
                        -----------------------------------------
Total Dipole Moment    :     -0.25808      -0.29978       0.46996
                        -----------------------------------------
Magnitude (a.u.)       :      0.61427
Magnitude (Debye)      :      1.56136

Rotational constants in cm-1:     0.021753     0.008392     0.006948
Rotational constants in MHz :   652.124989   251.579342   208.306159

                             ****ORCA TERMINATED NORMALLY****
TOTAL RUN TIME: 0 days 0 hours 0 minutes 20 seconds 994 msec
