                         Program Version 4.2.1 -  RELEASE  -
|  1> ! wB97X-D3 SP def2-SVP
|  2> %pal
|  3> nprocs 24
|  4> end
|  5>
|  6> * xyz 0 1
|  7> S 	 -62.1773 	 -58.9364 	 -79.5199
|  8> C 	 -61.1772 	 -58.6507 	 -78.2069
|  9> C 	 -60.0641 	 -57.915 	 -78.5681
| 10> C 	 -59.9285 	 -57.8461 	 -79.9785
| 11> C 	 -60.9305 	 -58.4662 	 -80.6649
| 12> H 	 -59.1293 	 -57.3262 	 -80.52
| 13> C 	 -58.9692 	 -57.4726 	 -77.6685
| 14> H 	 -58.1589 	 -58.1247 	 -77.5563
| 15> H 	 -59.291 	 -57.4755 	 -76.6192
| 16> C 	 -58.3797 	 -56.0569 	 -77.9506
| 17> H 	 -57.6282 	 -56.2574 	 -78.7127
| 18> H 	 -59.113 	 -55.3 	 -78.243
| 19> C 	 -57.6632 	 -55.566 	 -76.7129
| 20> H 	 -56.8954 	 -56.3884 	 -76.4678
| 21> H 	 -57.0525 	 -54.6989 	 -76.919
| 22> H 	 -58.25 	 -55.2895 	 -75.882
| 23> S 	 -61.1148 	 -60.6116 	 -82.3278
| 24> C 	 -61.6858 	 -60.3159 	 -83.9818
| 25> C 	 -61.5281 	 -59.0193 	 -84.3179
| 26> C 	 -61.3778 	 -58.1456 	 -83.1972
| 27> C 	 -60.9835 	 -58.8191 	 -82.0543
| 28> H 	 -61.6963 	 -58.8139 	 -85.4211
| 29> C 	 -61.7587 	 -56.7001 	 -83.315
| 30> H 	 -62.1994 	 -56.4129 	 -82.3381
| 31> H 	 -62.5048 	 -56.4675 	 -84.1002
| 32> C 	 -60.6345 	 -55.7308 	 -83.5008
| 33> H 	 -60.1563 	 -55.9011 	 -84.427
| 34> H 	 -59.8563 	 -55.9443 	 -82.7958
| 35> C 	 -61.1229 	 -54.2751 	 -83.4117
| 36> H 	 -60.3353 	 -53.5265 	 -83.1144
| 37> H 	 -61.8665 	 -54.1739 	 -82.5704
| 38> H 	 -61.7069 	 -53.9641 	 -84.2531
| 39> H 	 -61.4663 	 -58.9194 	 -77.1901
| 40> H 	 -61.7553 	 -61.0783 	 -84.7626
| 41> *
| 42>
| 43>                          ****END OF INPUT****

CARTESIAN COORDINATES (ANGSTROEM)
---------------------------------
  S    -62.177300  -58.936400  -79.519900
  C    -61.177200  -58.650700  -78.206900
  C    -60.064100  -57.915000  -78.568100
  C    -59.928500  -57.846100  -79.978500
  C    -60.930500  -58.466200  -80.664900
  H    -59.129300  -57.326200  -80.520000
  C    -58.969200  -57.472600  -77.668500
  H    -58.158900  -58.124700  -77.556300
  H    -59.291000  -57.475500  -76.619200
  C    -58.379700  -56.056900  -77.950600
  H    -57.628200  -56.257400  -78.712700
  H    -59.113000  -55.300000  -78.243000
  C    -57.663200  -55.566000  -76.712900
  H    -56.895400  -56.388400  -76.467800
  H    -57.052500  -54.698900  -76.919000
  H    -58.250000  -55.289500  -75.882000
  S    -61.114800  -60.611600  -82.327800
  C    -61.685800  -60.315900  -83.981800
  C    -61.528100  -59.019300  -84.317900
  C    -61.377800  -58.145600  -83.197200
  C    -60.983500  -58.819100  -82.054300
  H    -61.696300  -58.813900  -85.421100
  C    -61.758700  -56.700100  -83.315000
  H    -62.199400  -56.412900  -82.338100
  H    -62.504800  -56.467500  -84.100200
  C    -60.634500  -55.730800  -83.500800
  H    -60.156300  -55.901100  -84.427000
  H    -59.856300  -55.944300  -82.795800
  C    -61.122900  -54.275100  -83.411700
  H    -60.335300  -53.526500  -83.114400
  H    -61.866500  -54.173900  -82.570400
  H    -61.706900  -53.964100  -84.253100
  H    -61.466300  -58.919400  -77.190100
  H    -61.755300  -61.078300  -84.762600

 Total Charge           Charge          ....    0
 Multiplicity           Mult            ....    1
 Number of Electrons    NEL             ....  134
 Basis Dimension        Dim             ....  322

ORBITAL ENERGIES
----------------

  NO   OCC          E(Eh)            E(eV)
   0   2.0000     -88.960939     -2420.7502
   1   2.0000     -88.960006     -2420.7248
   2   2.0000     -10.328189      -281.0443
   3   2.0000     -10.321547      -280.8636
   4   2.0000     -10.315813      -280.7075
   5   2.0000     -10.308818      -280.5172
   6   2.0000     -10.308393      -280.5056
   7   2.0000     -10.295152      -280.1453
   8   2.0000     -10.294975      -280.1405
   9   2.0000     -10.291414      -280.0436
  10   2.0000     -10.291021      -280.0329
  11   2.0000     -10.286519      -279.9104
  12   2.0000     -10.283300      -279.8228
  13   2.0000     -10.282602      -279.8038
  14   2.0000     -10.277968      -279.6777
  15   2.0000     -10.277788      -279.6728
  16   2.0000      -8.077330      -219.7953
  17   2.0000      -8.073778      -219.6987
  18   2.0000      -6.035690      -164.2395
  19   2.0000      -6.032506      -164.1528
  20   2.0000      -6.031625      -164.1289
  21   2.0000      -6.028567      -164.0457
  22   2.0000      -6.028090      -164.0327
  23   2.0000      -6.024180      -163.9263
  24   2.0000      -1.011673       -27.5290
  25   2.0000      -0.986205       -26.8360
  26   2.0000      -0.915374       -24.9086
  27   2.0000      -0.914223       -24.8773
  28   2.0000      -0.875187       -23.8151
  29   2.0000      -0.853042       -23.2125
  30   2.0000      -0.845478       -23.0066
  31   2.0000      -0.817219       -22.2377
  32   2.0000      -0.778860       -21.1939
  33   2.0000      -0.768002       -20.8984
  34   2.0000      -0.712652       -19.3923
  35   2.0000      -0.700933       -19.0734
  36   2.0000      -0.689794       -18.7702
  37   2.0000      -0.654676       -17.8146
  38   2.0000      -0.649050       -17.6615
  39   2.0000      -0.623235       -16.9591
  40   2.0000      -0.597992       -16.2722
  41   2.0000      -0.580428       -15.7942
  42   2.0000      -0.570069       -15.5124
  43   2.0000      -0.560124       -15.2418
  44   2.0000      -0.525930       -14.3113
  45   2.0000      -0.519933       -14.1481
  46   2.0000      -0.511296       -13.9131
  47   2.0000      -0.509080       -13.8528
  48   2.0000      -0.507259       -13.8032
  49   2.0000      -0.500829       -13.6282
  50   2.0000      -0.493643       -13.4327
  51   2.0000      -0.478659       -13.0250
  52   2.0000      -0.473544       -12.8858
  53   2.0000      -0.471034       -12.8175
  54   2.0000      -0.454676       -12.3724
  55   2.0000      -0.445836       -12.1318
  56   2.0000      -0.444103       -12.0847
  57   2.0000      -0.431724       -11.7478
  58   2.0000      -0.430231       -11.7072
  59   2.0000      -0.425619       -11.5817
  60   2.0000      -0.419953       -11.4275
  61   2.0000      -0.418020       -11.3749
  62   2.0000      -0.411683       -11.2025
  63   2.0000      -0.340188        -9.2570
  64   2.0000      -0.329734        -8.9725
  65   2.0000      -0.320568        -8.7231
  66   2.0000      -0.301022        -8.1912
  67   0.0000       0.029922         0.8142
  68   0.0000       0.061576         1.6756
  69   0.0000       0.111118         3.0237
  70   0.0000       0.118554         3.2260
  71   0.0000       0.121928         3.3178

MULLIKEN ATOMIC CHARGES
-----------------------
   0 S :    0.136275
   1 C :   -0.130290
   2 C :   -0.039819
   3 C :    0.025015
   4 C :   -0.164826
   5 H :    0.023403
   6 C :    0.056629
   7 H :    0.020251
   8 H :    0.003030
   9 C :   -0.090805
  10 H :    0.036342
  11 H :    0.041222
  12 C :   -0.055015
  13 H :    0.029128
  14 H :    0.025040
  15 H :    0.035533
  16 S :    0.078166
  17 C :   -0.093383
  18 C :   -0.053184
  19 C :   -0.014796
  20 C :   -0.159721
  21 H :    0.043972
  22 C :    0.040243
  23 H :    0.027862
  24 H :    0.031370
  25 C :   -0.026647
  26 H :    0.010973
  27 H :    0.011765
  28 C :   -0.060601
  29 H :    0.047418
  30 H :    0.021376
  31 H :    0.030300
  32 H :    0.051293
  33 H :    0.062482
Sum of atomic charges:   -0.0000000

LOEWDIN ATOMIC CHARGES
----------------------
   0 S :    0.434051
   1 C :   -0.209782
   2 C :   -0.074211
   3 C :   -0.052937
   4 C :   -0.207697
   5 H :    0.034699
   6 C :   -0.035072
   7 H :    0.024484
   8 H :    0.027404
   9 C :   -0.038405
  10 H :    0.025315
  11 H :    0.025818
  12 C :   -0.065563
  13 H :    0.032957
  14 H :    0.023370
  15 H :    0.018402
  16 S :    0.361658
  17 C :   -0.173562
  18 C :   -0.081071
  19 C :   -0.043448
  20 C :   -0.180150
  21 H :    0.044267
  22 C :   -0.032938
  23 H :    0.034903
  24 H :    0.034323
  25 C :   -0.038329
  26 H :    0.016931
  27 H :    0.019582
  28 C :   -0.071533
  29 H :    0.034821
  30 H :    0.027957
  31 H :    0.021457
  32 H :    0.030218
  33 H :    0.032079

  Mayer bond orders larger than 0.100000
B(  0-S ,  1-C ) :   1.1714 B(  0-S ,  4-C ) :   1.1489 B(  1-C ,  2-C ) :   1.5760
B(  1-C , 32-H ) :   0.9697 B(  2-C ,  3-C ) :   1.2383 B(  2-C ,  6-C ) :   1.0372
B(  3-C ,  4-C ) :   1.5796 B(  3-C ,  5-H ) :   0.9944 B(  4-C , 20-C ) :   1.0380
B(  6-C ,  7-H ) :   0.9336 B(  6-C ,  8-H ) :   0.9421 B(  6-C ,  9-C ) :   1.0481
B(  9-C , 10-H ) :   0.9504 B(  9-C , 11-H ) :   0.9634 B(  9-C , 12-C ) :   1.0975
B( 12-C , 13-H ) :   0.9695 B( 12-C , 14-H ) :   0.9709 B( 12-C , 15-H ) :   0.9759
B( 16-S , 17-C ) :   1.1358 B( 16-S , 20-C ) :   1.1074 B( 17-C , 18-C ) :   1.6898
B( 17-C , 33-H ) :   0.9536 B( 18-C , 19-C ) :   1.1846 B( 18-C , 21-H ) :   0.9733
B( 19-C , 20-C ) :   1.6381 B( 19-C , 22-C ) :   1.0467 B( 22-C , 23-H ) :   0.9211
B( 22-C , 24-H ) :   0.9427 B( 22-C , 25-C ) :   1.0751 B( 25-C , 26-H ) :   0.9486
B( 25-C , 27-H ) :   0.9516 B( 25-C , 28-C ) :   1.0761 B( 28-C , 29-H ) :   0.9742
B( 28-C , 30-H ) :   0.9729 B( 28-C , 31-H ) :   0.9744

Dispersion correction           -0.013704466
FINAL SINGLE POINT ENERGY     -1339.859011432327

DIPOLE MOMENT
-------------
                                X             Y             Z
Electronic contribution:    -12.78403     -25.90272      -4.68114
Nuclear contribution   :     13.01274      26.39793       4.60325
                        -----------------------------------------
Total Dipole Moment    :      0.22871       0.49521      -0.07789
                        -----------------------------------------
Magnitude (a.u.)       :      0.55101
Magnitude (Debye)      :      1.40055

Rotational constants in cm-1:     0.017700     0.008708     0.006601
Rotational constants in MHz :   530.629521   261.062890   197.901245

                             ****ORCA TERMINATED NORMALLY****
TOTAL RUN TIME: 0 days 0 hours 0 minutes 20 seconds 331 msec
