                         Program Version 4.2.1 -  RELEASE  -
|  1> ! wB97X-D3 SP def2-SVP
|  2> %pal
|  3> nprocs 24
|  4> end
|  5>
|  6> * xyz 0 1
|  7> S 	 -53.9503 	 22.637 	 -95.4508
|  8> C 	 -53.0105 	 22.4594 	 -93.9723
|  9> C 	 -51.8074 	 21.8563 	 -94.2458
| 10> C 	 -51.6981 	 21.4648 	 -95.5981
| 11> C 	 -52.8617 	 21.6713 	 -96.3091
| 12> H 	 -50.8377 	 21.0145 	 -96.1075
| 13> C 	 -50.7525 	 21.6225 	 -93.2426
| 14> H 	 -50.953 	 21.8888 	 -92.1781
| 15> H 	 -49.7771 	 22.1923 	 -93.5738
| 16> C 	 -50.2715 	 20.1843 	 -93.251
| 17> H 	 -49.8913 	 19.8764 	 -94.2624
| 18> H 	 -49.5121 	 20.1086 	 -92.4493
| 19> C 	 -51.4423 	 19.2067 	 -92.9105
| 20> H 	 -52.1862 	 19.1071 	 -93.68
| 21> H 	 -50.9451 	 18.2366 	 -92.8739
| 22> H 	 -51.8888 	 19.3707 	 -91.897
| 23> S 	 -53.6882 	 19.7302 	 -98.0029
| 24> C 	 -53.3567 	 19.85 	 -99.7596
| 25> C 	 -52.8074 	 21.093 	 -100.028
| 26> C 	 -52.7035 	 22.0064 	 -98.878
| 27> C 	 -53.0207 	 21.3621 	 -97.695
| 28> H 	 -52.4695 	 21.3039 	 -101.007
| 29> C 	 -52.0075 	 23.3643 	 -98.9119
| 30> H 	 -51.9768 	 23.8206 	 -97.9084
| 31> H 	 -52.8277 	 23.9283 	 -99.4604
| 32> C 	 -50.6952 	 23.4348 	 -99.7518
| 33> H 	 -50.9416 	 22.9786 	 -100.747
| 34> H 	 -49.9227 	 22.9063 	 -99.2811
| 35> C 	 -50.2093 	 24.8989 	 -99.9763
| 36> H 	 -49.2789 	 24.7879 	 -100.549
| 37> H 	 -50.0934 	 25.4859 	 -99.037
| 38> H 	 -50.9858 	 25.3729 	 -100.585
| 39> H 	 -53.3978 	 22.7079 	 -92.9439
| 40> H 	 -53.3141 	 19.0434 	 -100.485
| 41> *
| 42>
| 43>                          ****END OF INPUT****

CARTESIAN COORDINATES (ANGSTROEM)
---------------------------------
  S    -53.950300   22.637000  -95.450800
  C    -53.010500   22.459400  -93.972300
  C    -51.807400   21.856300  -94.245800
  C    -51.698100   21.464800  -95.598100
  C    -52.861700   21.671300  -96.309100
  H    -50.837700   21.014500  -96.107500
  C    -50.752500   21.622500  -93.242600
  H    -50.953000   21.888800  -92.178100
  H    -49.777100   22.192300  -93.573800
  C    -50.271500   20.184300  -93.251000
  H    -49.891300   19.876400  -94.262400
  H    -49.512100   20.108600  -92.449300
  C    -51.442300   19.206700  -92.910500
  H    -52.186200   19.107100  -93.680000
  H    -50.945100   18.236600  -92.873900
  H    -51.888800   19.370700  -91.897000
  S    -53.688200   19.730200  -98.002900
  C    -53.356700   19.850000  -99.759600
  C    -52.807400   21.093000  -100.028000
  C    -52.703500   22.006400  -98.878000
  C    -53.020700   21.362100  -97.695000
  H    -52.469500   21.303900  -101.007000
  C    -52.007500   23.364300  -98.911900
  H    -51.976800   23.820600  -97.908400
  H    -52.827700   23.928300  -99.460400
  C    -50.695200   23.434800  -99.751800
  H    -50.941600   22.978600  -100.747000
  H    -49.922700   22.906300  -99.281100
  C    -50.209300   24.898900  -99.976300
  H    -49.278900   24.787900  -100.549000
  H    -50.093400   25.485900  -99.037000
  H    -50.985800   25.372900  -100.585000
  H    -53.397800   22.707900  -92.943900
  H    -53.314100   19.043400  -100.485000

 Total Charge           Charge          ....    0
 Multiplicity           Mult            ....    1
 Number of Electrons    NEL             ....  134
 Basis Dimension        Dim             ....  322

ORBITAL ENERGIES
----------------

  NO   OCC          E(Eh)            E(eV)
   0   2.0000     -88.965032     -2420.8616
   1   2.0000     -88.959635     -2420.7147
   2   2.0000     -10.324129      -280.9338
   3   2.0000     -10.322010      -280.8762
   4   2.0000     -10.321503      -280.8624
   5   2.0000     -10.315992      -280.7124
   6   2.0000     -10.309217      -280.5281
   7   2.0000     -10.298876      -280.2467
   8   2.0000     -10.298367      -280.2328
   9   2.0000     -10.297320      -280.2043
  10   2.0000     -10.297259      -280.2027
  11   2.0000     -10.293774      -280.1078
  12   2.0000     -10.291922      -280.0574
  13   2.0000     -10.290942      -280.0308
  14   2.0000     -10.284687      -279.8606
  15   2.0000     -10.273717      -279.5620
  16   2.0000      -8.080789      -219.8894
  17   2.0000      -8.073401      -219.6884
  18   2.0000      -6.039108      -164.3325
  19   2.0000      -6.035194      -164.2260
  20   2.0000      -6.032166      -164.1436
  21   2.0000      -6.031632      -164.1291
  22   2.0000      -6.028034      -164.0311
  23   2.0000      -6.023942      -163.9198
  24   2.0000      -1.012541       -27.5526
  25   2.0000      -0.978105       -26.6156
  26   2.0000      -0.917586       -24.9688
  27   2.0000      -0.902554       -24.5597
  28   2.0000      -0.870162       -23.6783
  29   2.0000      -0.844703       -22.9855
  30   2.0000      -0.843975       -22.9657
  31   2.0000      -0.812639       -22.1130
  32   2.0000      -0.781215       -21.2579
  33   2.0000      -0.767453       -20.8834
  34   2.0000      -0.708328       -19.2746
  35   2.0000      -0.698774       -19.0146
  36   2.0000      -0.685196       -18.6451
  37   2.0000      -0.657638       -17.8952
  38   2.0000      -0.637760       -17.3543
  39   2.0000      -0.624530       -16.9943
  40   2.0000      -0.589417       -16.0389
  41   2.0000      -0.568683       -15.4746
  42   2.0000      -0.564081       -15.3494
  43   2.0000      -0.543305       -14.7841
  44   2.0000      -0.542229       -14.7548
  45   2.0000      -0.529106       -14.3977
  46   2.0000      -0.521208       -14.1828
  47   2.0000      -0.512391       -13.9429
  48   2.0000      -0.505676       -13.7601
  49   2.0000      -0.494450       -13.4547
  50   2.0000      -0.486463       -13.2373
  51   2.0000      -0.478325       -13.0159
  52   2.0000      -0.469515       -12.7762
  53   2.0000      -0.463431       -12.6106
  54   2.0000      -0.457392       -12.4463
  55   2.0000      -0.449460       -12.2304
  56   2.0000      -0.441976       -12.0268
  57   2.0000      -0.436887       -11.8883
  58   2.0000      -0.430170       -11.7055
  59   2.0000      -0.427034       -11.6202
  60   2.0000      -0.419960       -11.4277
  61   2.0000      -0.411433       -11.1957
  62   2.0000      -0.406224       -11.0539
  63   2.0000      -0.332580        -9.0500
  64   2.0000      -0.324760        -8.8372
  65   2.0000      -0.319780        -8.7016
  66   2.0000      -0.311616        -8.4795
  67   0.0000       0.044748         1.2177
  68   0.0000       0.052140         1.4188
  69   0.0000       0.109960         2.9922
  70   0.0000       0.118555         3.2260
  71   0.0000       0.126134         3.4323

MULLIKEN ATOMIC CHARGES
-----------------------
   0 S :    0.124531
   1 C :   -0.154281
   2 C :   -0.036487
   3 C :    0.023088
   4 C :   -0.173122
   5 H :    0.024425
   6 C :    0.041357
   7 H :    0.030265
   8 H :    0.050079
   9 C :   -0.119294
  10 H :    0.041436
  11 H :    0.036283
  12 C :   -0.059621
  13 H :    0.046029
  14 H :    0.026338
  15 H :    0.033788
  16 S :    0.085439
  17 C :   -0.080703
  18 C :   -0.050432
  19 C :    0.015725
  20 C :   -0.203817
  21 H :    0.008027
  22 C :    0.032474
  23 H :    0.037405
  24 H :    0.038194
  25 C :   -0.079256
  26 H :    0.036007
  27 H :    0.030444
  28 C :   -0.057812
  29 H :    0.044173
  30 H :    0.047275
  31 H :    0.031836
  32 H :    0.067242
  33 H :    0.062964
Sum of atomic charges:   -0.0000000

LOEWDIN ATOMIC CHARGES
----------------------
   0 S :    0.429441
   1 C :   -0.202522
   2 C :   -0.068805
   3 C :   -0.057709
   4 C :   -0.223518
   5 H :    0.036773
   6 C :   -0.044453
   7 H :    0.032384
   8 H :    0.045259
   9 C :   -0.044731
  10 H :    0.026326
  11 H :    0.026319
  12 C :   -0.071173
  13 H :    0.023916
  14 H :    0.025768
  15 H :    0.026846
  16 S :    0.366172
  17 C :   -0.174661
  18 C :   -0.067222
  19 C :   -0.052206
  20 C :   -0.190928
  21 H :    0.020714
  22 C :   -0.039179
  23 H :    0.031260
  24 H :    0.041894
  25 C :   -0.034649
  26 H :    0.029183
  27 H :    0.015602
  28 C :   -0.065354
  29 H :    0.029813
  30 H :    0.030208
  31 H :    0.024804
  32 H :    0.040211
  33 H :    0.034215

  Mayer bond orders larger than 0.100000
B(  0-S ,  1-C ) :   1.1361 B(  0-S ,  4-C ) :   1.1759 B(  1-C ,  2-C ) :   1.5936
B(  1-C , 32-H ) :   0.9641 B(  2-C ,  3-C ) :   1.2306 B(  2-C ,  6-C ) :   1.0350
B(  3-C ,  4-C ) :   1.5665 B(  3-C ,  5-H ) :   0.9944 B(  4-C , 20-C ) :   1.0124
B(  6-C ,  7-H ) :   0.9494 B(  6-C ,  8-H ) :   0.9318 B(  6-C ,  9-C ) :   1.0677
B(  9-C , 10-H ) :   0.9512 B(  9-C , 11-H ) :   0.9581 B(  9-C , 12-C ) :   1.0726
B( 12-C , 13-H ) :   0.9724 B( 12-C , 14-H ) :   0.9745 B( 12-C , 15-H ) :   0.9758
B( 16-S , 17-C ) :   1.1263 B( 16-S , 20-C ) :   1.1236 B( 17-C , 18-C ) :   1.6665
B( 17-C , 33-H ) :   0.9645 B( 18-C , 19-C ) :   1.1783 B( 18-C , 21-H ) :   0.9877
B( 19-C , 20-C ) :   1.6410 B( 19-C , 22-C ) :   1.0367 B( 22-C , 23-H ) :   0.9406
B( 22-C , 24-H ) :   0.9278 B( 22-C , 25-C ) :   1.0568 B( 25-C , 26-H ) :   0.9510
B( 25-C , 27-H ) :   0.9613 B( 25-C , 28-C ) :   1.0780 B( 28-C , 29-H ) :   0.9750
B( 28-C , 30-H ) :   0.9762 B( 28-C , 31-H ) :   0.9776

Dispersion correction           -0.014604409
FINAL SINGLE POINT ENERGY     -1339.871652256129

DIPOLE MOMENT
-------------
                                X             Y             Z
Electronic contribution:    -19.02429      -4.64130      -2.14526
Nuclear contribution   :     19.73324       4.78370       2.07675
                        -----------------------------------------
Total Dipole Moment    :      0.70895       0.14240      -0.06851
                        -----------------------------------------
Magnitude (a.u.)       :      0.72635
Magnitude (Debye)      :      1.84623

Rotational constants in cm-1:     0.018008     0.008658     0.007419
Rotational constants in MHz :   539.855658   259.547757   222.416813

                             ****ORCA TERMINATED NORMALLY****
TOTAL RUN TIME: 0 days 0 hours 0 minutes 21 seconds 774 msec
