                         Program Version 4.2.1 -  RELEASE  -
|  1> ! wB97X-D3 SP def2-SVP
|  2> %pal
|  3> nprocs 24
|  4> end
|  5>
|  6> * xyz 0 1
|  7> S 	 -35.3372 	 16.6658 	 14.4451
|  8> C 	 -36.1582 	 18.1965 	 14.8281
|  9> C 	 -35.5799 	 19.2818 	 14.141
| 10> C 	 -34.5652 	 18.847 	 13.2701
| 11> C 	 -34.2431 	 17.5212 	 13.324
| 12> H 	 -34.124 	 19.5686 	 12.5963
| 13> C 	 -36.1214 	 20.7273 	 14.1754
| 14> H 	 -35.7301 	 21.348 	 13.3492
| 15> H 	 -35.8502 	 21.1019 	 15.1664
| 16> C 	 -37.5719 	 20.9778 	 14.1065
| 17> H 	 -38.0665 	 20.5716 	 13.1833
| 18> H 	 -38.0232 	 20.4251 	 14.9105
| 19> C 	 -37.9944 	 22.4072 	 14.4511
| 20> H 	 -37.5275 	 23.0564 	 13.7066
| 21> H 	 -39.0539 	 22.5939 	 14.3322
| 22> H 	 -37.6149 	 22.7422 	 15.3826
| 23> S 	 -32.2567 	 15.49 	 13.1366
| 24> C 	 -31.5976 	 15.2227 	 11.6097
| 25> C 	 -32.071 	 16.0658 	 10.6385
| 26> C 	 -33.1783 	 16.8149 	 11.1076
| 27> C 	 -33.3886 	 16.683 	 12.4547
| 28> H 	 -31.6162 	 15.9976 	 9.63594
| 29> C 	 -33.9234 	 17.7232 	 10.1523
| 30> H 	 -33.0916 	 18.3222 	 9.73583
| 31> H 	 -34.5382 	 18.4953 	 10.6074
| 32> C 	 -34.7537 	 16.9235 	 9.05392
| 33> H 	 -35.4977 	 16.2695 	 9.56299
| 34> H 	 -34.2072 	 16.2753 	 8.32646
| 35> C 	 -35.4922 	 17.9253 	 8.20556
| 36> H 	 -36.2628 	 17.538 	 7.54036
| 37> H 	 -34.6761 	 18.2583 	 7.58042
| 38> H 	 -35.8287 	 18.8322 	 8.73366
| 39> H 	 -37.0355 	 18.2613 	 15.5104
| 40> H 	 -30.7414 	 14.6089 	 11.3966
| 41> *
| 42>
| 43>                          ****END OF INPUT****

CARTESIAN COORDINATES (ANGSTROEM)
---------------------------------
  S    -35.337200   16.665800   14.445100
  C    -36.158200   18.196500   14.828100
  C    -35.579900   19.281800   14.141000
  C    -34.565200   18.847000   13.270100
  C    -34.243100   17.521200   13.324000
  H    -34.124000   19.568600   12.596300
  C    -36.121400   20.727300   14.175400
  H    -35.730100   21.348000   13.349200
  H    -35.850200   21.101900   15.166400
  C    -37.571900   20.977800   14.106500
  H    -38.066500   20.571600   13.183300
  H    -38.023200   20.425100   14.910500
  C    -37.994400   22.407200   14.451100
  H    -37.527500   23.056400   13.706600
  H    -39.053900   22.593900   14.332200
  H    -37.614900   22.742200   15.382600
  S    -32.256700   15.490000   13.136600
  C    -31.597600   15.222700   11.609700
  C    -32.071000   16.065800   10.638500
  C    -33.178300   16.814900   11.107600
  C    -33.388600   16.683000   12.454700
  H    -31.616200   15.997600    9.635940
  C    -33.923400   17.723200   10.152300
  H    -33.091600   18.322200    9.735830
  H    -34.538200   18.495300   10.607400
  C    -34.753700   16.923500    9.053920
  H    -35.497700   16.269500    9.562990
  H    -34.207200   16.275300    8.326460
  C    -35.492200   17.925300    8.205560
  H    -36.262800   17.538000    7.540360
  H    -34.676100   18.258300    7.580420
  H    -35.828700   18.832200    8.733660
  H    -37.035500   18.261300   15.510400
  H    -30.741400   14.608900   11.396600

 Total Charge           Charge          ....    0
 Multiplicity           Mult            ....    1
 Number of Electrons    NEL             ....  134
 Basis Dimension        Dim             ....  322

ORBITAL ENERGIES
----------------

  NO   OCC          E(Eh)            E(eV)
   0   2.0000     -88.965742     -2420.8809
   1   2.0000     -88.965164     -2420.8652
   2   2.0000     -10.332072      -281.1500
   3   2.0000     -10.324744      -280.9506
   4   2.0000     -10.321585      -280.8646
   5   2.0000     -10.309973      -280.5486
   6   2.0000     -10.304571      -280.4016
   7   2.0000     -10.300545      -280.2921
   8   2.0000     -10.297273      -280.2031
   9   2.0000     -10.295453      -280.1535
  10   2.0000     -10.293669      -280.1050
  11   2.0000     -10.293399      -280.0976
  12   2.0000     -10.290344      -280.0145
  13   2.0000     -10.284113      -279.8449
  14   2.0000     -10.277598      -279.6677
  15   2.0000     -10.273188      -279.5477
  16   2.0000      -8.080770      -219.8889
  17   2.0000      -8.079541      -219.8555
  18   2.0000      -6.039127      -164.3330
  19   2.0000      -6.038093      -164.3049
  20   2.0000      -6.035237      -164.2272
  21   2.0000      -6.034157      -164.1978
  22   2.0000      -6.031563      -164.1272
  23   2.0000      -6.030342      -164.0939
  24   2.0000      -1.007548       -27.4168
  25   2.0000      -0.984241       -26.7826
  26   2.0000      -0.920253       -25.0414
  27   2.0000      -0.908061       -24.7096
  28   2.0000      -0.867429       -23.6039
  29   2.0000      -0.857956       -23.3462
  30   2.0000      -0.846404       -23.0318
  31   2.0000      -0.813777       -22.1440
  32   2.0000      -0.784974       -21.3602
  33   2.0000      -0.770104       -20.9556
  34   2.0000      -0.702866       -19.1259
  35   2.0000      -0.698473       -19.0064
  36   2.0000      -0.692718       -18.8498
  37   2.0000      -0.657012       -17.8782
  38   2.0000      -0.636665       -17.3245
  39   2.0000      -0.625684       -17.0257
  40   2.0000      -0.599255       -16.3065
  41   2.0000      -0.582182       -15.8420
  42   2.0000      -0.566228       -15.4078
  43   2.0000      -0.559497       -15.2247
  44   2.0000      -0.529221       -14.4008
  45   2.0000      -0.527057       -14.3419
  46   2.0000      -0.519150       -14.1268
  47   2.0000      -0.507749       -13.8166
  48   2.0000      -0.502583       -13.6760
  49   2.0000      -0.497615       -13.5408
  50   2.0000      -0.489428       -13.3180
  51   2.0000      -0.478918       -13.0320
  52   2.0000      -0.470914       -12.8142
  53   2.0000      -0.462945       -12.5974
  54   2.0000      -0.457949       -12.4614
  55   2.0000      -0.450995       -12.2722
  56   2.0000      -0.443908       -12.0793
  57   2.0000      -0.443384       -12.0651
  58   2.0000      -0.437721       -11.9110
  59   2.0000      -0.425413       -11.5761
  60   2.0000      -0.423640       -11.5278
  61   2.0000      -0.409562       -11.1448
  62   2.0000      -0.407545       -11.0899
  63   2.0000      -0.345949        -9.4137
  64   2.0000      -0.335189        -9.1210
  65   2.0000      -0.331109        -9.0099
  66   2.0000      -0.289527        -7.8784
  67   0.0000       0.030754         0.8369
  68   0.0000       0.069914         1.9025
  69   0.0000       0.107304         2.9199
  70   0.0000       0.119859         3.2615
  71   0.0000       0.132506         3.6057

MULLIKEN ATOMIC CHARGES
-----------------------
   0 S :    0.096049
   1 C :   -0.151775
   2 C :   -0.065916
   3 C :    0.007409
   4 C :   -0.117673
   5 H :    0.011210
   6 C :    0.068129
   7 H :    0.025551
   8 H :    0.032519
   9 C :   -0.097433
  10 H :    0.038054
  11 H :    0.010682
  12 C :   -0.023119
  13 H :    0.013287
  14 H :    0.038772
  15 H :    0.021783
  16 S :    0.116051
  17 C :   -0.075051
  18 C :   -0.060631
  19 C :   -0.031025
  20 C :   -0.136043
  21 H :    0.029047
  22 C :    0.043392
  23 H :    0.032504
  24 H :    0.014660
  25 C :   -0.081798
  26 H :    0.042924
  27 H :    0.039673
  28 C :   -0.042396
  29 H :    0.040719
  30 H :    0.014316
  31 H :    0.029752
  32 H :    0.065872
  33 H :    0.050506
Sum of atomic charges:    0.0000000

LOEWDIN ATOMIC CHARGES
----------------------
   0 S :    0.384168
   1 C :   -0.192050
   2 C :   -0.063381
   3 C :   -0.065268
   4 C :   -0.174505
   5 H :    0.030813
   6 C :   -0.032992
   7 H :    0.030800
   8 H :    0.037901
   9 C :   -0.050235
  10 H :    0.028427
  11 H :    0.016082
  12 C :   -0.056919
  13 H :    0.021839
  14 H :    0.029715
  15 H :    0.019991
  16 S :    0.416633
  17 C :   -0.197338
  18 C :   -0.078028
  19 C :   -0.053632
  20 C :   -0.202808
  21 H :    0.037810
  22 C :   -0.029333
  23 H :    0.036248
  24 H :    0.026366
  25 C :   -0.038792
  26 H :    0.026796
  27 H :    0.028857
  28 C :   -0.072895
  29 H :    0.025934
  30 H :    0.024430
  31 H :    0.024081
  32 H :    0.032743
  33 H :    0.028542

  Mayer bond orders larger than 0.100000
B(  0-S ,  1-C ) :   1.1470 B(  0-S ,  4-C ) :   1.1466 B(  1-C ,  2-C ) :   1.5900
B(  1-C ,  4-C ) :   0.1089 B(  1-C , 32-H ) :   0.9636 B(  2-C ,  3-C ) :   1.2750
B(  2-C ,  6-C ) :   1.0045 B(  3-C ,  4-C ) :   1.5740 B(  3-C ,  5-H ) :   0.9932
B(  4-C , 20-C ) :   1.0109 B(  6-C ,  7-H ) :   0.9526 B(  6-C ,  8-H ) :   0.9266
B(  6-C ,  9-C ) :   1.0799 B(  9-C , 10-H ) :   0.9543 B(  9-C , 11-H ) :   0.9442
B(  9-C , 12-C ) :   1.0840 B( 12-C , 13-H ) :   0.9737 B( 12-C , 14-H ) :   0.9727
B( 12-C , 15-H ) :   0.9722 B( 16-S , 17-C ) :   1.1734 B( 16-S , 20-C ) :   1.1219
B( 17-C , 18-C ) :   1.6223 B( 17-C , 33-H ) :   0.9621 B( 18-C , 19-C ) :   1.2304
B( 18-C , 21-H ) :   0.9886 B( 19-C , 20-C ) :   1.6211 B( 19-C , 22-C ) :   1.0317
B( 22-C , 23-H ) :   0.9354 B( 22-C , 24-H ) :   0.9400 B( 22-C , 25-C ) :   1.0437
B( 25-C , 26-H ) :   0.9594 B( 25-C , 27-H ) :   0.9614 B( 25-C , 28-C ) :   1.0714
B( 28-C , 29-H ) :   0.9740 B( 28-C , 30-H ) :   0.9768 B( 28-C , 31-H ) :   0.9730

Dispersion correction           -0.013440085
FINAL SINGLE POINT ENERGY     -1339.872748248651

DIPOLE MOMENT
-------------
                                X             Y             Z
Electronic contribution:     16.08205     -22.79678      14.28427
Nuclear contribution   :    -16.22354      23.35678     -14.78919
                        -----------------------------------------
Total Dipole Moment    :     -0.14149       0.56001      -0.50493
                        -----------------------------------------
Magnitude (a.u.)       :      0.76719
Magnitude (Debye)      :      1.95004

Rotational constants in cm-1:     0.018810     0.007971     0.006125
Rotational constants in MHz :   563.906956   238.953093   183.608163

                             ****ORCA TERMINATED NORMALLY****
TOTAL RUN TIME: 0 days 0 hours 0 minutes 21 seconds 120 msec
