                         Program Version 4.2.1 -  RELEASE  -
|  1> ! wB97X-D3 SP def2-SVP
|  2> %pal
|  3> nprocs 24
|  4> end
|  5>
|  6> * xyz 0 1
|  7> S 	 -130.126 	 25.3454 	 -17.5099
|  8> C 	 -128.691 	 24.3176 	 -17.8527
|  9> C 	 -127.64 	 24.708 	 -17.0708
| 10> C 	 -127.94 	 25.9241 	 -16.4048
| 11> C 	 -129.189 	 26.4341 	 -16.6076
| 12> H 	 -127.262 	 26.416 	 -15.7687
| 13> C 	 -126.273 	 24.0359 	 -16.989
| 14> H 	 -125.486 	 24.8074 	 -16.8151
| 15> H 	 -126.064 	 23.7618 	 -18.0671
| 16> C 	 -126.117 	 22.9176 	 -16.0062
| 17> H 	 -125.128 	 22.4143 	 -15.9372
| 18> H 	 -126.396 	 23.3013 	 -14.9912
| 19> C 	 -127.02 	 21.7737 	 -16.2997
| 20> H 	 -126.766 	 21.3185 	 -17.2475
| 21> H 	 -126.893 	 21.0206 	 -15.5039
| 22> H 	 -128.108 	 21.9814 	 -16.2542
| 23> S 	 -130.243 	 27.8585 	 -14.5654
| 24> C 	 -130.728 	 29.5623 	 -14.6994
| 25> C 	 -130.36 	 29.9944 	 -15.9252
| 26> C 	 -129.757 	 28.9699 	 -16.794
| 27> C 	 -129.682 	 27.7331 	 -16.1637
| 28> H 	 -130.442 	 31.0556 	 -16.2515
| 29> C 	 -129.468 	 29.2395 	 -18.249
| 30> H 	 -128.911 	 28.3602 	 -18.6355
| 31> H 	 -128.811 	 30.1272 	 -18.3123
| 32> C 	 -130.759 	 29.5153 	 -19.0614
| 33> H 	 -131.265 	 30.3808 	 -18.6517
| 34> H 	 -131.418 	 28.6469 	 -18.7955
| 35> C 	 -130.439 	 29.7378 	 -20.5515
| 36> H 	 -129.82 	 30.6363 	 -20.6629
| 37> H 	 -131.236 	 29.8377 	 -21.2091
| 38> H 	 -129.679 	 28.9707 	 -20.8711
| 39> H 	 -128.575 	 23.4592 	 -18.5347
| 40> H 	 -131.089 	 30.2 	 -13.9037
| 41> *
| 42>
| 43>                          ****END OF INPUT****

CARTESIAN COORDINATES (ANGSTROEM)
---------------------------------
  S    -130.126000   25.345400  -17.509900
  C    -128.691000   24.317600  -17.852700
  C    -127.640000   24.708000  -17.070800
  C    -127.940000   25.924100  -16.404800
  C    -129.189000   26.434100  -16.607600
  H    -127.262000   26.416000  -15.768700
  C    -126.273000   24.035900  -16.989000
  H    -125.486000   24.807400  -16.815100
  H    -126.064000   23.761800  -18.067100
  C    -126.117000   22.917600  -16.006200
  H    -125.128000   22.414300  -15.937200
  H    -126.396000   23.301300  -14.991200
  C    -127.020000   21.773700  -16.299700
  H    -126.766000   21.318500  -17.247500
  H    -126.893000   21.020600  -15.503900
  H    -128.108000   21.981400  -16.254200
  S    -130.243000   27.858500  -14.565400
  C    -130.728000   29.562300  -14.699400
  C    -130.360000   29.994400  -15.925200
  C    -129.757000   28.969900  -16.794000
  C    -129.682000   27.733100  -16.163700
  H    -130.442000   31.055600  -16.251500
  C    -129.468000   29.239500  -18.249000
  H    -128.911000   28.360200  -18.635500
  H    -128.811000   30.127200  -18.312300
  C    -130.759000   29.515300  -19.061400
  H    -131.265000   30.380800  -18.651700
  H    -131.418000   28.646900  -18.795500
  C    -130.439000   29.737800  -20.551500
  H    -129.820000   30.636300  -20.662900
  H    -131.236000   29.837700  -21.209100
  H    -129.679000   28.970700  -20.871100
  H    -128.575000   23.459200  -18.534700
  H    -131.089000   30.200000  -13.903700

 Total Charge           Charge          ....    0
 Multiplicity           Mult            ....    1
 Number of Electrons    NEL             ....  134
 Basis Dimension        Dim             ....  322

ORBITAL ENERGIES
----------------

  NO   OCC          E(Eh)            E(eV)
   0   2.0000     -88.968344     -2420.9517
   1   2.0000     -88.960467     -2420.7374
   2   2.0000     -10.324872      -280.9540
   3   2.0000     -10.324069      -280.9322
   4   2.0000     -10.318676      -280.7854
   5   2.0000     -10.317858      -280.7632
   6   2.0000     -10.303496      -280.3724
   7   2.0000     -10.299818      -280.2723
   8   2.0000     -10.299105      -280.2529
   9   2.0000     -10.297219      -280.2016
  10   2.0000     -10.291386      -280.0429
  11   2.0000     -10.289194      -279.9832
  12   2.0000     -10.287452      -279.9358
  13   2.0000     -10.286977      -279.9229
  14   2.0000     -10.276274      -279.6316
  15   2.0000     -10.272846      -279.5383
  16   2.0000      -8.083143      -219.9535
  17   2.0000      -8.075975      -219.7585
  18   2.0000      -6.041721      -164.4036
  19   2.0000      -6.037607      -164.2916
  20   2.0000      -6.034608      -164.2100
  21   2.0000      -6.033835      -164.1890
  22   2.0000      -6.030233      -164.0910
  23   2.0000      -6.026669      -163.9940
  24   2.0000      -1.013103       -27.5679
  25   2.0000      -0.988412       -26.8961
  26   2.0000      -0.920504       -25.0482
  27   2.0000      -0.905215       -24.6321
  28   2.0000      -0.874980       -23.8094
  29   2.0000      -0.850201       -23.1352
  30   2.0000      -0.841987       -22.9116
  31   2.0000      -0.817678       -22.2501
  32   2.0000      -0.785659       -21.3789
  33   2.0000      -0.768377       -20.9086
  34   2.0000      -0.707317       -19.2471
  35   2.0000      -0.697277       -18.9739
  36   2.0000      -0.691178       -18.8079
  37   2.0000      -0.659099       -17.9350
  38   2.0000      -0.638792       -17.3824
  39   2.0000      -0.620078       -16.8732
  40   2.0000      -0.594496       -16.1771
  41   2.0000      -0.575375       -15.6568
  42   2.0000      -0.559006       -15.2113
  43   2.0000      -0.556473       -15.1424
  44   2.0000      -0.549474       -14.9519
  45   2.0000      -0.529762       -14.4155
  46   2.0000      -0.521493       -14.1905
  47   2.0000      -0.515020       -14.0144
  48   2.0000      -0.504809       -13.7366
  49   2.0000      -0.499674       -13.5968
  50   2.0000      -0.485284       -13.2052
  51   2.0000      -0.479925       -13.0594
  52   2.0000      -0.466425       -12.6921
  53   2.0000      -0.461299       -12.5526
  54   2.0000      -0.453151       -12.3309
  55   2.0000      -0.447083       -12.1657
  56   2.0000      -0.443099       -12.0573
  57   2.0000      -0.436411       -11.8753
  58   2.0000      -0.433623       -11.7995
  59   2.0000      -0.419816       -11.4238
  60   2.0000      -0.417127       -11.3506
  61   2.0000      -0.414153       -11.2697
  62   2.0000      -0.412794       -11.2327
  63   2.0000      -0.337230        -9.1765
  64   2.0000      -0.334920        -9.1136
  65   2.0000      -0.320617        -8.7244
  66   2.0000      -0.312272        -8.4973
  67   0.0000       0.043741         1.1903
  68   0.0000       0.060941         1.6583
  69   0.0000       0.114065         3.1039
  70   0.0000       0.119795         3.2598
  71   0.0000       0.124997         3.4013

MULLIKEN ATOMIC CHARGES
-----------------------
   0 S :    0.124733
   1 C :   -0.132931
   2 C :   -0.089017
   3 C :    0.062352
   4 C :   -0.167412
   5 H :   -0.012450
   6 C :    0.042598
   7 H :    0.030078
   8 H :    0.030721
   9 C :   -0.038330
  10 H :    0.041355
  11 H :    0.031431
  12 C :   -0.080593
  13 H :    0.022324
  14 H :    0.028695
  15 H :    0.044802
  16 S :    0.100114
  17 C :   -0.088153
  18 C :   -0.039171
  19 C :   -0.039533
  20 C :   -0.169789
  21 H :    0.034015
  22 C :    0.038848
  23 H :    0.038741
  24 H :    0.025587
  25 C :   -0.086848
  26 H :    0.024965
  27 H :    0.038860
  28 C :   -0.004641
  29 H :    0.015881
  30 H :    0.031435
  31 H :    0.028322
  32 H :    0.051114
  33 H :    0.061898
Sum of atomic charges:   -0.0000000

LOEWDIN ATOMIC CHARGES
----------------------
   0 S :    0.415407
   1 C :   -0.183909
   2 C :   -0.065286
   3 C :   -0.054245
   4 C :   -0.217711
   5 H :    0.022943
   6 C :   -0.038903
   7 H :    0.033839
   8 H :    0.035413
   9 C :   -0.048634
  10 H :    0.034254
  11 H :    0.030920
  12 C :   -0.072010
  13 H :    0.018790
  14 H :    0.027739
  15 H :    0.026665
  16 S :    0.413601
  17 C :   -0.180549
  18 C :   -0.074117
  19 C :   -0.057368
  20 C :   -0.219786
  21 H :    0.036250
  22 C :   -0.035785
  23 H :    0.033275
  24 H :    0.029652
  25 C :   -0.040237
  26 H :    0.019243
  27 H :    0.029065
  28 C :   -0.064524
  29 H :    0.027061
  30 H :    0.016172
  31 H :    0.032943
  32 H :    0.034954
  33 H :    0.034877

  Mayer bond orders larger than 0.100000
B(  0-S ,  1-C ) :   1.1333 B(  0-S ,  4-C ) :   1.1526 B(  1-C ,  2-C ) :   1.6246
B(  1-C , 32-H ) :   0.9618 B(  2-C ,  3-C ) :   1.2444 B(  2-C ,  6-C ) :   0.9998
B(  3-C ,  4-C ) :   1.5936 B(  3-C ,  5-H ) :   1.0056 B(  4-C , 20-C ) :   0.9818
B(  6-C ,  7-H ) :   0.9432 B(  6-C ,  8-H ) :   0.9459 B(  6-C ,  9-C ) :   1.0706
B(  9-C , 10-H ) :   0.9546 B(  9-C , 11-H ) :   0.9483 B(  9-C , 12-C ) :   1.0899
B( 12-C , 13-H ) :   0.9741 B( 12-C , 14-H ) :   0.9709 B( 12-C , 15-H ) :   0.9691
B( 16-S , 17-C ) :   1.1338 B( 16-S , 20-C ) :   1.1607 B( 17-C , 18-C ) :   1.6281
B( 17-C , 33-H ) :   0.9705 B( 18-C , 19-C ) :   1.2237 B( 18-C , 21-H ) :   0.9790
B( 19-C , 20-C ) :   1.6095 B( 19-C , 22-C ) :   1.0641 B( 22-C , 23-H ) :   0.9345
B( 22-C , 24-H ) :   0.9279 B( 22-C , 25-C ) :   1.0535 B( 25-C , 26-H ) :   0.9559
B( 25-C , 27-H ) :   0.9552 B( 25-C , 28-C ) :   1.0743 B( 28-C , 29-H ) :   0.9689
B( 28-C , 30-H ) :   0.9766 B( 28-C , 31-H ) :   0.9732

Dispersion correction           -0.014476895
FINAL SINGLE POINT ENERGY     -1339.883045523785

DIPOLE MOMENT
-------------
                                X             Y             Z
Electronic contribution:    -10.68701       3.98420      12.53017
Nuclear contribution   :     11.13938      -3.82836     -12.72153
                        -----------------------------------------
Total Dipole Moment    :      0.45237       0.15584      -0.19136
                        -----------------------------------------
Magnitude (a.u.)       :      0.51531
Magnitude (Debye)      :      1.30981

Rotational constants in cm-1:     0.021967     0.007753     0.006458
Rotational constants in MHz :   658.542831   232.420198   193.616582

                             ****ORCA TERMINATED NORMALLY****
TOTAL RUN TIME: 0 days 0 hours 0 minutes 21 seconds 446 msec
