                         Program Version 4.2.1 -  RELEASE  -
|  1> ! wB97X-D3 SP def2-SVP
|  2> %pal
|  3> nprocs 24
|  4> end
|  5>
|  6> * xyz 0 1
|  7> S 	 -94.4807 	 11.6858 	 -118.933
|  8> C 	 -94.6795 	 11.1827 	 -117.249
|  9> C 	 -96.0237 	 11.0079 	 -116.892
| 10> C 	 -96.9051 	 11.4344 	 -117.918
| 11> C 	 -96.2457 	 11.841 	 -119.088
| 12> H 	 -97.9638 	 11.4321 	 -117.898
| 13> C 	 -96.513 	 10.2636 	 -115.652
| 14> H 	 -95.8043 	 10.4205 	 -114.827
| 15> H 	 -96.2103 	 9.29012 	 -116.095
| 16> C 	 -97.9342 	 10.3265 	 -115.191
| 17> H 	 -97.9828 	 10.144 	 -114.162
| 18> H 	 -98.1992 	 11.3613 	 -115.215
| 19> C 	 -98.8551 	 9.40579 	 -115.996
| 20> H 	 -99.7213 	 9.08405 	 -115.413
| 21> H 	 -99.2972 	 9.744 	 -116.884
| 22> H 	 -98.2789 	 8.49299 	 -116.213
| 23> S 	 -96.136 	 11.9714 	 -121.834
| 24> C 	 -97.506 	 12.34 	 -122.797
| 25> C 	 -98.425 	 12.9776 	 -121.991
| 26> C 	 -98.1003 	 12.9085 	 -120.593
| 27> C 	 -96.8932 	 12.2882 	 -120.315
| 28> H 	 -99.2778 	 13.4183 	 -122.455
| 29> C 	 -99.0283 	 13.6711 	 -119.685
| 30> H 	 -99.5969 	 13.1006 	 -119.019
| 31> H 	 -99.7733 	 14.1633 	 -120.246
| 32> C 	 -98.151 	 14.6277 	 -118.854
| 33> H 	 -97.542 	 15.2639 	 -119.436
| 34> H 	 -97.5455 	 14.0847 	 -118.217
| 35> C 	 -99.0082 	 15.4236 	 -117.855
| 36> H 	 -99.7878 	 15.9542 	 -118.437
| 37> H 	 -98.337 	 16.043 	 -117.253
| 38> H 	 -99.4921 	 14.7632 	 -117.217
| 39> H 	 -93.8069 	 10.9731 	 -116.658
| 40> H 	 -97.6036 	 12.4356 	 -123.82
| 41> *
| 42>
| 43>                          ****END OF INPUT****

CARTESIAN COORDINATES (ANGSTROEM)
---------------------------------
  S    -94.480700   11.685800  -118.933000
  C    -94.679500   11.182700  -117.249000
  C    -96.023700   11.007900  -116.892000
  C    -96.905100   11.434400  -117.918000
  C    -96.245700   11.841000  -119.088000
  H    -97.963800   11.432100  -117.898000
  C    -96.513000   10.263600  -115.652000
  H    -95.804300   10.420500  -114.827000
  H    -96.210300    9.290120  -116.095000
  C    -97.934200   10.326500  -115.191000
  H    -97.982800   10.144000  -114.162000
  H    -98.199200   11.361300  -115.215000
  C    -98.855100    9.405790  -115.996000
  H    -99.721300    9.084050  -115.413000
  H    -99.297200    9.744000  -116.884000
  H    -98.278900    8.492990  -116.213000
  S    -96.136000   11.971400  -121.834000
  C    -97.506000   12.340000  -122.797000
  C    -98.425000   12.977600  -121.991000
  C    -98.100300   12.908500  -120.593000
  C    -96.893200   12.288200  -120.315000
  H    -99.277800   13.418300  -122.455000
  C    -99.028300   13.671100  -119.685000
  H    -99.596900   13.100600  -119.019000
  H    -99.773300   14.163300  -120.246000
  C    -98.151000   14.627700  -118.854000
  H    -97.542000   15.263900  -119.436000
  H    -97.545500   14.084700  -118.217000
  C    -99.008200   15.423600  -117.855000
  H    -99.787800   15.954200  -118.437000
  H    -98.337000   16.043000  -117.253000
  H    -99.492100   14.763200  -117.217000
  H    -93.806900   10.973100  -116.658000
  H    -97.603600   12.435600  -123.820000

 Total Charge           Charge          ....    0
 Multiplicity           Mult            ....    1
 Number of Electrons    NEL             ....  134
 Basis Dimension        Dim             ....  322

ORBITAL ENERGIES
----------------

  NO   OCC          E(Eh)            E(eV)
   0   2.0000     -88.968982     -2420.9691
   1   2.0000     -88.961789     -2420.7733
   2   2.0000     -10.336003      -281.2569
   3   2.0000     -10.326027      -280.9855
   4   2.0000     -10.313093      -280.6335
   5   2.0000     -10.307530      -280.4822
   6   2.0000     -10.307483      -280.4809
   7   2.0000     -10.300191      -280.2825
   8   2.0000     -10.294836      -280.1367
   9   2.0000     -10.293524      -280.1010
  10   2.0000     -10.287810      -279.9455
  11   2.0000     -10.285004      -279.8692
  12   2.0000     -10.280344      -279.7424
  13   2.0000     -10.278534      -279.6931
  14   2.0000     -10.268093      -279.4090
  15   2.0000     -10.266624      -279.3690
  16   2.0000      -8.082719      -219.9420
  17   2.0000      -8.077552      -219.8014
  18   2.0000      -6.041285      -164.3917
  19   2.0000      -6.037468      -164.2879
  20   2.0000      -6.036122      -164.2512
  21   2.0000      -6.033409      -164.1774
  22   2.0000      -6.031877      -164.1357
  23   2.0000      -6.028225      -164.0363
  24   2.0000      -1.009448       -27.4685
  25   2.0000      -0.983408       -26.7599
  26   2.0000      -0.919887       -25.0314
  27   2.0000      -0.913578       -24.8597
  28   2.0000      -0.872489       -23.7416
  29   2.0000      -0.851433       -23.1687
  30   2.0000      -0.845844       -23.0166
  31   2.0000      -0.819168       -22.2907
  32   2.0000      -0.784183       -21.3387
  33   2.0000      -0.772513       -21.0211
  34   2.0000      -0.721099       -19.6221
  35   2.0000      -0.708517       -19.2797
  36   2.0000      -0.694457       -18.8971
  37   2.0000      -0.664362       -18.0782
  38   2.0000      -0.640536       -17.4299
  39   2.0000      -0.626347       -17.0438
  40   2.0000      -0.598366       -16.2824
  41   2.0000      -0.571523       -15.5519
  42   2.0000      -0.569567       -15.4987
  43   2.0000      -0.558315       -15.1925
  44   2.0000      -0.542589       -14.7646
  45   2.0000      -0.527339       -14.3496
  46   2.0000      -0.522656       -14.2222
  47   2.0000      -0.511930       -13.9303
  48   2.0000      -0.503366       -13.6973
  49   2.0000      -0.501599       -13.6492
  50   2.0000      -0.496201       -13.5023
  51   2.0000      -0.493444       -13.4273
  52   2.0000      -0.471742       -12.8367
  53   2.0000      -0.469434       -12.7740
  54   2.0000      -0.459810       -12.5121
  55   2.0000      -0.447880       -12.1874
  56   2.0000      -0.447010       -12.1638
  57   2.0000      -0.440579       -11.9888
  58   2.0000      -0.434320       -11.8184
  59   2.0000      -0.425410       -11.5760
  60   2.0000      -0.422042       -11.4843
  61   2.0000      -0.413863       -11.2618
  62   2.0000      -0.406454       -11.0602
  63   2.0000      -0.355348        -9.6695
  64   2.0000      -0.332073        -9.0362
  65   2.0000      -0.322330        -8.7710
  66   2.0000      -0.279885        -7.6161
  67   0.0000       0.019340         0.5263
  68   0.0000       0.076235         2.0745
  69   0.0000       0.106047         2.8857
  70   0.0000       0.125617         3.4182
  71   0.0000       0.130057         3.5390

MULLIKEN ATOMIC CHARGES
-----------------------
   0 S :    0.108430
   1 C :   -0.144123
   2 C :   -0.052859
   3 C :    0.003142
   4 C :   -0.116379
   5 H :   -0.009255
   6 C :    0.001977
   7 H :    0.028778
   8 H :    0.052878
   9 C :    0.010591
  10 H :    0.015308
  11 H :    0.020306
  12 C :   -0.043380
  13 H :    0.026945
  14 H :    0.029569
  15 H :    0.031694
  16 S :    0.094769
  17 C :   -0.039861
  18 C :   -0.061911
  19 C :   -0.060337
  20 C :   -0.128194
  21 H :    0.011055
  22 C :    0.129845
  23 H :   -0.000619
  24 H :   -0.005704
  25 C :   -0.070753
  26 H :    0.024416
  27 H :    0.019700
  28 C :   -0.012689
  29 H :    0.024547
  30 H :    0.034461
  31 H :    0.003276
  32 H :    0.043759
  33 H :    0.030618
Sum of atomic charges:    0.0000000

LOEWDIN ATOMIC CHARGES
----------------------
   0 S :    0.388998
   1 C :   -0.203021
   2 C :   -0.051129
   3 C :   -0.065579
   4 C :   -0.172953
   5 H :    0.024361
   6 C :   -0.037856
   7 H :    0.033141
   8 H :    0.045712
   9 C :   -0.041162
  10 H :    0.026275
  11 H :    0.026128
  12 C :   -0.060848
  13 H :    0.029484
  14 H :    0.016942
  15 H :    0.030935
  16 S :    0.427392
  17 C :   -0.187761
  18 C :   -0.069054
  19 C :   -0.057406
  20 C :   -0.206144
  21 H :    0.026368
  22 C :   -0.020056
  23 H :    0.019026
  24 H :    0.022071
  25 C :   -0.024592
  26 H :    0.018422
  27 H :    0.015191
  28 C :   -0.055433
  29 H :    0.023400
  30 H :    0.027727
  31 H :    0.010297
  32 H :    0.022123
  33 H :    0.019001

  Mayer bond orders larger than 0.100000
B(  0-S ,  1-C ) :   1.1270 B(  0-S ,  4-C ) :   1.1553 B(  1-C ,  2-C ) :   1.5912
B(  1-C ,  4-C ) :   0.1083 B(  1-C , 32-H ) :   0.9761 B(  2-C ,  3-C ) :   1.2557
B(  2-C ,  6-C ) :   0.9887 B(  3-C ,  4-C ) :   1.5436 B(  3-C ,  5-H ) :   0.9960
B(  4-C , 20-C ) :   1.0793 B(  6-C ,  7-H ) :   0.9387 B(  6-C ,  8-H ) :   0.9433
B(  6-C ,  9-C ) :   1.0748 B(  9-C , 10-H ) :   0.9472 B(  9-C , 11-H ) :   0.9508
B(  9-C , 12-C ) :   1.0613 B( 12-C , 13-H ) :   0.9713 B( 12-C , 14-H ) :   0.9792
B( 12-C , 15-H ) :   0.9764 B( 16-S , 17-C ) :   1.1705 B( 16-S , 20-C ) :   1.1354
B( 17-C , 18-C ) :   1.5892 B( 17-C , 33-H ) :   0.9715 B( 18-C , 19-C ) :   1.2714
B( 18-C , 21-H ) :   0.9935 B( 19-C , 20-C ) :   1.5462 B( 19-C , 22-C ) :   1.0479
B( 22-C , 23-H ) :   0.9176 B( 22-C , 24-H ) :   0.9329 B( 22-C , 25-C ) :   1.0685
B( 25-C , 26-H ) :   0.9598 B( 25-C , 27-H ) :   0.9486 B( 25-C , 28-C ) :   1.0892
B( 28-C , 29-H ) :   0.9765 B( 28-C , 30-H ) :   0.9735 B( 28-C , 31-H ) :   0.9730

Dispersion correction           -0.014787596
FINAL SINGLE POINT ENERGY     -1339.851422864514

DIPOLE MOMENT
-------------
                                X             Y             Z
Electronic contribution:     19.36584      -3.04585     -20.38668
Nuclear contribution   :    -19.92859       3.00622      20.87524
                        -----------------------------------------
Total Dipole Moment    :     -0.56275      -0.03962       0.48856
                        -----------------------------------------
Magnitude (a.u.)       :      0.74629
Magnitude (Debye)      :      1.89691

Rotational constants in cm-1:     0.017114     0.009855     0.007838
Rotational constants in MHz :   513.074602   295.459033   234.984500

                             ****ORCA TERMINATED NORMALLY****
TOTAL RUN TIME: 0 days 0 hours 0 minutes 21 seconds 513 msec
