                         Program Version 4.2.1 -  RELEASE  -
|  1> ! wB97X-D3 SP def2-SVP
|  2> %pal
|  3> nprocs 24
|  4> end
|  5>
|  6> * xyz 0 1
|  7> S 	 -126.813 	 57.7674 	 -59.0205
|  8> C 	 -126.448 	 57.9614 	 -60.6856
|  9> C 	 -127.533 	 58.3989 	 -61.4117
| 10> C 	 -128.698 	 58.715 	 -60.5993
| 11> C 	 -128.373 	 58.4163 	 -59.2417
| 12> H 	 -129.674 	 59.0354 	 -60.975
| 13> C 	 -127.592 	 58.62 	 -62.9027
| 14> H 	 -128.557 	 58.2773 	 -63.2053
| 15> H 	 -126.86 	 57.9758 	 -63.4365
| 16> C 	 -127.263 	 60.1341 	 -63.3471
| 17> H 	 -128.117 	 60.7482 	 -63.0374
| 18> H 	 -126.346 	 60.5151 	 -62.8411
| 19> C 	 -127.022 	 60.1272 	 -64.8914
| 20> H 	 -127.792 	 59.5336 	 -65.494
| 21> H 	 -126.92 	 61.1339 	 -65.3621
| 22> H 	 -126.053 	 59.6227 	 -65.042
| 23> S 	 -129.426 	 57.1068 	 -57.0578
| 24> C 	 -130.791 	 57.8223 	 -56.2651
| 25> C 	 -130.811 	 59.1563 	 -56.5674
| 26> C 	 -129.878 	 59.6686 	 -57.5468
| 27> C 	 -129.198 	 58.6039 	 -58.0847
| 28> H 	 -131.646 	 59.6512 	 -56.0742
| 29> C 	 -129.781 	 61.1125 	 -58.0357
| 30> H 	 -128.845 	 61.2837 	 -58.7134
| 31> H 	 -129.65 	 61.7943 	 -57.2144
| 32> C 	 -130.998 	 61.5962 	 -58.838
| 33> H 	 -131.877 	 61.3816 	 -58.3399
| 34> H 	 -131.207 	 61.134 	 -59.7681
| 35> C 	 -130.791 	 63.106 	 -59.2236
| 36> H 	 -130.616 	 63.673 	 -58.2663
| 37> H 	 -131.655 	 63.6684 	 -59.6586
| 38> H 	 -129.888 	 63.2637 	 -59.8961
| 39> H 	 -125.544 	 57.794 	 -61.1538
| 40> H 	 -131.428 	 57.4763 	 -55.4691
| 41> *
| 42>
| 43>                          ****END OF INPUT****

CARTESIAN COORDINATES (ANGSTROEM)
---------------------------------
  S    -126.813000   57.767400  -59.020500
  C    -126.448000   57.961400  -60.685600
  C    -127.533000   58.398900  -61.411700
  C    -128.698000   58.715000  -60.599300
  C    -128.373000   58.416300  -59.241700
  H    -129.674000   59.035400  -60.975000
  C    -127.592000   58.620000  -62.902700
  H    -128.557000   58.277300  -63.205300
  H    -126.860000   57.975800  -63.436500
  C    -127.263000   60.134100  -63.347100
  H    -128.117000   60.748200  -63.037400
  H    -126.346000   60.515100  -62.841100
  C    -127.022000   60.127200  -64.891400
  H    -127.792000   59.533600  -65.494000
  H    -126.920000   61.133900  -65.362100
  H    -126.053000   59.622700  -65.042000
  S    -129.426000   57.106800  -57.057800
  C    -130.791000   57.822300  -56.265100
  C    -130.811000   59.156300  -56.567400
  C    -129.878000   59.668600  -57.546800
  C    -129.198000   58.603900  -58.084700
  H    -131.646000   59.651200  -56.074200
  C    -129.781000   61.112500  -58.035700
  H    -128.845000   61.283700  -58.713400
  H    -129.650000   61.794300  -57.214400
  C    -130.998000   61.596200  -58.838000
  H    -131.877000   61.381600  -58.339900
  H    -131.207000   61.134000  -59.768100
  C    -130.791000   63.106000  -59.223600
  H    -130.616000   63.673000  -58.266300
  H    -131.655000   63.668400  -59.658600
  H    -129.888000   63.263700  -59.896100
  H    -125.544000   57.794000  -61.153800
  H    -131.428000   57.476300  -55.469100

 Total Charge           Charge          ....    0
 Multiplicity           Mult            ....    1
 Number of Electrons    NEL             ....  134
 Basis Dimension        Dim             ....  322

ORBITAL ENERGIES
----------------

  NO   OCC          E(Eh)            E(eV)
   0   2.0000     -88.969450     -2420.9818
   1   2.0000     -88.958330     -2420.6792
   2   2.0000     -10.329245      -281.0730
   3   2.0000     -10.328366      -281.0491
   4   2.0000     -10.312670      -280.6220
   5   2.0000     -10.309494      -280.5356
   6   2.0000     -10.304211      -280.3918
   7   2.0000     -10.302694      -280.3506
   8   2.0000     -10.302359      -280.3415
   9   2.0000     -10.300156      -280.2815
  10   2.0000     -10.299362      -280.2599
  11   2.0000     -10.295217      -280.1471
  12   2.0000     -10.292216      -280.0654
  13   2.0000     -10.291302      -280.0406
  14   2.0000     -10.290613      -280.0218
  15   2.0000     -10.282011      -279.7877
  16   2.0000      -8.085433      -220.0158
  17   2.0000      -8.072801      -219.6721
  18   2.0000      -6.043836      -164.4612
  19   2.0000      -6.039703      -164.3487
  20   2.0000      -6.036296      -164.2560
  21   2.0000      -6.031474      -164.1247
  22   2.0000      -6.027509      -164.0169
  23   2.0000      -6.023208      -163.8998
  24   2.0000      -1.009357       -27.4660
  25   2.0000      -0.983109       -26.7518
  26   2.0000      -0.907308       -24.6891
  27   2.0000      -0.905557       -24.6414
  28   2.0000      -0.869517       -23.6608
  29   2.0000      -0.850228       -23.1359
  30   2.0000      -0.841326       -22.8936
  31   2.0000      -0.809920       -22.0390
  32   2.0000      -0.776245       -21.1227
  33   2.0000      -0.768622       -20.9153
  34   2.0000      -0.712407       -19.3856
  35   2.0000      -0.704612       -19.1735
  36   2.0000      -0.700518       -19.0621
  37   2.0000      -0.656186       -17.8557
  38   2.0000      -0.640684       -17.4339
  39   2.0000      -0.617523       -16.8037
  40   2.0000      -0.595637       -16.2081
  41   2.0000      -0.566235       -15.4080
  42   2.0000      -0.561309       -15.2740
  43   2.0000      -0.554093       -15.0776
  44   2.0000      -0.523383       -14.2420
  45   2.0000      -0.521077       -14.1792
  46   2.0000      -0.515222       -14.0199
  47   2.0000      -0.513856       -13.9827
  48   2.0000      -0.504446       -13.7267
  49   2.0000      -0.498668       -13.5694
  50   2.0000      -0.492259       -13.3951
  51   2.0000      -0.476231       -12.9589
  52   2.0000      -0.467724       -12.7274
  53   2.0000      -0.462960       -12.5978
  54   2.0000      -0.458279       -12.4704
  55   2.0000      -0.447790       -12.1850
  56   2.0000      -0.442640       -12.0449
  57   2.0000      -0.439036       -11.9468
  58   2.0000      -0.436168       -11.8687
  59   2.0000      -0.429685       -11.6923
  60   2.0000      -0.421205       -11.4616
  61   2.0000      -0.418858       -11.3977
  62   2.0000      -0.411547       -11.1988
  63   2.0000      -0.343778        -9.3547
  64   2.0000      -0.330960        -9.0059
  65   2.0000      -0.326876        -8.8948
  66   2.0000      -0.289929        -7.8894
  67   0.0000       0.030316         0.8250
  68   0.0000       0.064500         1.7551
  69   0.0000       0.106228         2.8906
  70   0.0000       0.119856         3.2615
  71   0.0000       0.127519         3.4700

MULLIKEN ATOMIC CHARGES
-----------------------
   0 S :    0.137191
   1 C :   -0.073819
   2 C :   -0.102640
   3 C :    0.029607
   4 C :   -0.158571
   5 H :    0.025610
   6 C :    0.045941
   7 H :    0.023343
   8 H :    0.020392
   9 C :   -0.071052
  10 H :    0.035966
  11 H :    0.045222
  12 C :   -0.089099
  13 H :    0.044381
  14 H :    0.045972
  15 H :    0.034642
  16 S :    0.077281
  17 C :   -0.067748
  18 C :   -0.080818
  19 C :    0.043236
  20 C :   -0.176886
  21 H :    0.018147
  22 C :    0.041440
  23 H :    0.048446
  24 H :    0.026453
  25 C :   -0.017702
  26 H :    0.006488
  27 H :    0.013792
  28 C :   -0.108188
  29 H :    0.029401
  30 H :    0.044463
  31 H :    0.048582
  32 H :    0.007813
  33 H :    0.052714
Sum of atomic charges:   -0.0000000

LOEWDIN ATOMIC CHARGES
----------------------
   0 S :    0.450174
   1 C :   -0.205244
   2 C :   -0.059854
   3 C :   -0.058340
   4 C :   -0.208172
   5 H :    0.035331
   6 C :   -0.030817
   7 H :    0.026583
   8 H :    0.028762
   9 C :   -0.035269
  10 H :    0.021385
  11 H :    0.030399
  12 C :   -0.080340
  13 H :    0.031570
  14 H :    0.028210
  15 H :    0.025865
  16 S :    0.360308
  17 C :   -0.191133
  18 C :   -0.078277
  19 C :   -0.053486
  20 C :   -0.165794
  21 H :    0.028718
  22 C :   -0.027948
  23 H :    0.044802
  24 H :    0.030066
  25 C :   -0.036005
  26 H :    0.013591
  27 H :    0.019400
  28 C :   -0.078851
  29 H :    0.024952
  30 H :    0.029109
  31 H :    0.032484
  32 H :    0.013228
  33 H :    0.034592

  Mayer bond orders larger than 0.100000
B(  0-S ,  1-C ) :   1.1324 B(  0-S ,  4-C ) :   1.1930 B(  1-C ,  2-C ) :   1.6129
B(  1-C , 32-H ) :   0.9761 B(  2-C ,  3-C ) :   1.2352 B(  2-C ,  6-C ) :   1.0324
B(  3-C ,  4-C ) :   1.5278 B(  3-C ,  5-H ) :   0.9956 B(  4-C , 20-C ) :   1.0435
B(  6-C ,  7-H ) :   0.9374 B(  6-C ,  8-H ) :   0.9497 B(  6-C ,  9-C ) :   1.0396
B(  9-C , 10-H ) :   0.9599 B(  9-C , 11-H ) :   0.9621 B(  9-C , 12-C ) :   1.0654
B( 12-C , 13-H ) :   0.9750 B( 12-C , 14-H ) :   0.9756 B( 12-C , 15-H ) :   0.9760
B( 16-S , 17-C ) :   1.1210 B( 16-S , 20-C ) :   1.1068 B( 17-C , 18-C ) :   1.6837
B( 17-C , 33-H ) :   0.9646 B( 18-C , 19-C ) :   1.1600 B( 18-C , 21-H ) :   0.9837
B( 19-C , 20-C ) :   1.6307 B( 19-C , 22-C ) :   1.0457 B( 22-C , 23-H ) :   0.9388
B( 22-C , 24-H ) :   0.9338 B( 22-C , 25-C ) :   1.0532 B( 25-C , 26-H ) :   0.9558
B( 25-C , 27-H ) :   0.9523 B( 25-C , 28-C ) :   1.0660 B( 28-C , 29-H ) :   0.9762
B( 28-C , 30-H ) :   0.9751 B( 28-C , 31-H ) :   0.9755

Dispersion correction           -0.013860266
FINAL SINGLE POINT ENERGY     -1339.861915277361

DIPOLE MOMENT
-------------
                                X             Y             Z
Electronic contribution:      4.85198     -22.89385      22.20527
Nuclear contribution   :     -5.09707      23.41918     -22.60770
                        -----------------------------------------
Total Dipole Moment    :     -0.24509       0.52533      -0.40244
                        -----------------------------------------
Magnitude (a.u.)       :      0.70569
Magnitude (Debye)      :      1.79372

Rotational constants in cm-1:     0.017475     0.008845     0.006333
Rotational constants in MHz :   523.899281   265.157730   189.861230

                             ****ORCA TERMINATED NORMALLY****
TOTAL RUN TIME: 0 days 0 hours 0 minutes 21 seconds 337 msec
