                         Program Version 4.2.1 -  RELEASE  -
|  1> ! wB97X-D3 SP def2-SVP
|  2> %pal
|  3> nprocs 24
|  4> end
|  5>
|  6> * xyz 0 1
|  7> S 	 -108.615 	 3.53026 	 -107.393
|  8> C 	 -107.828 	 4.94477 	 -107.765
|  9> C 	 -107.007 	 5.36446 	 -106.707
| 10> C 	 -106.807 	 4.38515 	 -105.69
| 11> C 	 -107.455 	 3.24728 	 -106.103
| 12> H 	 -106.115 	 4.36065 	 -104.814
| 13> C 	 -106.231 	 6.69212 	 -106.647
| 14> H 	 -106.04 	 6.89576 	 -105.605
| 15> H 	 -106.878 	 7.54085 	 -106.99
| 16> C 	 -104.913 	 6.68627 	 -107.461
| 17> H 	 -104.22 	 5.86277 	 -107.239
| 18> H 	 -105.152 	 6.71329 	 -108.491
| 19> C 	 -104.151 	 7.97137 	 -107.097
| 20> H 	 -103.392 	 8.2782 	 -107.823
| 21> H 	 -104.913 	 8.79446 	 -107.026
| 22> H 	 -103.664 	 7.92654 	 -106.105
| 23> S 	 -105.784 	 1.37328 	 -105.058
| 24> C 	 -106.398 	 0.00701944 	 -104.191
| 25> C 	 -107.791 	 -0.0112864 	 -104.318
| 26> C 	 -108.36 	 0.977404 	 -105.09
| 27> C 	 -107.36 	 1.9651 	 -105.429
| 28> H 	 -108.328 	 -0.827248 	 -103.891
| 29> C 	 -109.802 	 0.923529 	 -105.547
| 30> H 	 -110.18 	 1.8952 	 -105.734
| 31> H 	 -110.196 	 0.581111 	 -104.641
| 32> C 	 -109.999 	 0.0863117 	 -106.841
| 33> H 	 -109.596 	 -0.925333 	 -106.696
| 34> H 	 -109.5 	 0.49568 	 -107.696
| 35> C 	 -111.456 	 0.0935809 	 -107.281
| 36> H 	 -112.089 	 -0.464644 	 -106.566
| 37> H 	 -111.665 	 -0.433395 	 -108.215
| 38> H 	 -111.793 	 1.10576 	 -107.396
| 39> H 	 -108.145 	 5.57253 	 -108.605
| 40> H 	 -105.783 	 -0.748521 	 -103.773
| 41> *
| 42>
| 43>                          ****END OF INPUT****

CARTESIAN COORDINATES (ANGSTROEM)
---------------------------------
  S    -108.615000    3.530260  -107.393000
  C    -107.828000    4.944770  -107.765000
  C    -107.007000    5.364460  -106.707000
  C    -106.807000    4.385150  -105.690000
  C    -107.455000    3.247280  -106.103000
  H    -106.115000    4.360650  -104.814000
  C    -106.231000    6.692120  -106.647000
  H    -106.040000    6.895760  -105.605000
  H    -106.878000    7.540850  -106.990000
  C    -104.913000    6.686270  -107.461000
  H    -104.220000    5.862770  -107.239000
  H    -105.152000    6.713290  -108.491000
  C    -104.151000    7.971370  -107.097000
  H    -103.392000    8.278200  -107.823000
  H    -104.913000    8.794460  -107.026000
  H    -103.664000    7.926540  -106.105000
  S    -105.784000    1.373280  -105.058000
  C    -106.398000    0.007019  -104.191000
  C    -107.791000   -0.011286  -104.318000
  C    -108.360000    0.977404  -105.090000
  C    -107.360000    1.965100  -105.429000
  H    -108.328000   -0.827248  -103.891000
  C    -109.802000    0.923529  -105.547000
  H    -110.180000    1.895200  -105.734000
  H    -110.196000    0.581111  -104.641000
  C    -109.999000    0.086312  -106.841000
  H    -109.596000   -0.925333  -106.696000
  H    -109.500000    0.495680  -107.696000
  C    -111.456000    0.093581  -107.281000
  H    -112.089000   -0.464644  -106.566000
  H    -111.665000   -0.433395  -108.215000
  H    -111.793000    1.105760  -107.396000
  H    -108.145000    5.572530  -108.605000
  H    -105.783000   -0.748521  -103.773000

 Total Charge           Charge          ....    0
 Multiplicity           Mult            ....    1
 Number of Electrons    NEL             ....  134
 Basis Dimension        Dim             ....  322

ORBITAL ENERGIES
----------------

  NO   OCC          E(Eh)            E(eV)
   0   2.0000     -88.967926     -2420.9403
   1   2.0000     -88.967332     -2420.9242
   2   2.0000     -10.326473      -280.9976
   3   2.0000     -10.323814      -280.9253
   4   2.0000     -10.310635      -280.5666
   5   2.0000     -10.308618      -280.5118
   6   2.0000     -10.302135      -280.3353
   7   2.0000     -10.298129      -280.2263
   8   2.0000     -10.296795      -280.1900
   9   2.0000     -10.292749      -280.0799
  10   2.0000     -10.286969      -279.9227
  11   2.0000     -10.285379      -279.8794
  12   2.0000     -10.284628      -279.8590
  13   2.0000     -10.283766      -279.8355
  14   2.0000     -10.279630      -279.7229
  15   2.0000     -10.273972      -279.5690
  16   2.0000      -8.083916      -219.9745
  17   2.0000      -8.082236      -219.9288
  18   2.0000      -6.042125      -164.4146
  19   2.0000      -6.040473      -164.3696
  20   2.0000      -6.038545      -164.3172
  21   2.0000      -6.036536      -164.2625
  22   2.0000      -6.034641      -164.2109
  23   2.0000      -6.033491      -164.1796
  24   2.0000      -1.013985       -27.5919
  25   2.0000      -0.990537       -26.9539
  26   2.0000      -0.911618       -24.8064
  27   2.0000      -0.907244       -24.6874
  28   2.0000      -0.873222       -23.7616
  29   2.0000      -0.854557       -23.2537
  30   2.0000      -0.852414       -23.1954
  31   2.0000      -0.808674       -22.0051
  32   2.0000      -0.780174       -21.2296
  33   2.0000      -0.761457       -20.7203
  34   2.0000      -0.704073       -19.1588
  35   2.0000      -0.699589       -19.0368
  36   2.0000      -0.693101       -18.8602
  37   2.0000      -0.667102       -18.1528
  38   2.0000      -0.642278       -17.4773
  39   2.0000      -0.614727       -16.7276
  40   2.0000      -0.598654       -16.2902
  41   2.0000      -0.569319       -15.4920
  42   2.0000      -0.562127       -15.2962
  43   2.0000      -0.558823       -15.2063
  44   2.0000      -0.526042       -14.3143
  45   2.0000      -0.522314       -14.2129
  46   2.0000      -0.518764       -14.1163
  47   2.0000      -0.514699       -14.0057
  48   2.0000      -0.509201       -13.8561
  49   2.0000      -0.499597       -13.5947
  50   2.0000      -0.487156       -13.2562
  51   2.0000      -0.485486       -13.2107
  52   2.0000      -0.472846       -12.8668
  53   2.0000      -0.463492       -12.6123
  54   2.0000      -0.457378       -12.4459
  55   2.0000      -0.446277       -12.1438
  56   2.0000      -0.444645       -12.0994
  57   2.0000      -0.434473       -11.8226
  58   2.0000      -0.433392       -11.7932
  59   2.0000      -0.429520       -11.6878
  60   2.0000      -0.423682       -11.5290
  61   2.0000      -0.417357       -11.3569
  62   2.0000      -0.411887       -11.2080
  63   2.0000      -0.353794        -9.6272
  64   2.0000      -0.334546        -9.1034
  65   2.0000      -0.325409        -8.8548
  66   2.0000      -0.276253        -7.5172
  67   0.0000       0.023993         0.6529
  68   0.0000       0.072268         1.9665
  69   0.0000       0.103955         2.8288
  70   0.0000       0.121423         3.3041
  71   0.0000       0.141054         3.8383

MULLIKEN ATOMIC CHARGES
-----------------------
   0 S :    0.117450
   1 C :   -0.105693
   2 C :   -0.087639
   3 C :   -0.001353
   4 C :   -0.136260
   5 H :    0.044050
   6 C :    0.026144
   7 H :    0.017464
   8 H :    0.032444
   9 C :   -0.031012
  10 H :    0.039211
  11 H :    0.023588
  12 C :   -0.081512
  13 H :    0.037862
  14 H :    0.023451
  15 H :    0.038379
  16 S :    0.120515
  17 C :   -0.097483
  18 C :   -0.040948
  19 C :   -0.043614
  20 C :   -0.175457
  21 H :    0.004002
  22 C :    0.110440
  23 H :    0.000648
  24 H :    0.015030
  25 C :   -0.049655
  26 H :    0.028229
  27 H :    0.027391
  28 C :   -0.040239
  29 H :    0.025563
  30 H :    0.031008
  31 H :    0.027568
  32 H :    0.052344
  33 H :    0.048085
Sum of atomic charges:    0.0000000

LOEWDIN ATOMIC CHARGES
----------------------
   0 S :    0.443358
   1 C :   -0.232996
   2 C :   -0.060920
   3 C :   -0.067610
   4 C :   -0.183740
   5 H :    0.044207
   6 C :   -0.033621
   7 H :    0.025155
   8 H :    0.032822
   9 C :   -0.034250
  10 H :    0.028671
  11 H :    0.019356
  12 C :   -0.072421
  13 H :    0.024110
  14 H :    0.024431
  15 H :    0.025973
  16 S :    0.442876
  17 C :   -0.203344
  18 C :   -0.070388
  19 C :   -0.059956
  20 C :   -0.207957
  21 H :    0.025921
  22 C :   -0.024580
  23 H :    0.014639
  24 H :    0.028316
  25 C :   -0.033987
  26 H :    0.024803
  27 H :    0.021685
  28 C :   -0.065789
  29 H :    0.024208
  30 H :    0.026339
  31 H :    0.022026
  32 H :    0.029815
  33 H :    0.022849

  Mayer bond orders larger than 0.100000
B(  0-S ,  1-C ) :   1.1536 B(  0-S ,  4-C ) :   1.1595 B(  1-C ,  2-C ) :   1.5843
B(  1-C , 32-H ) :   0.9697 B(  2-C ,  3-C ) :   1.2344 B(  2-C ,  6-C ) :   1.0318
B(  3-C ,  4-C ) :   1.5447 B(  3-C ,  5-H ) :   0.9910 B(  4-C , 20-C ) :   1.0660
B(  6-C ,  7-H ) :   0.9487 B(  6-C ,  8-H ) :   0.9356 B(  6-C ,  9-C ) :   1.0659
B(  9-C , 10-H ) :   0.9598 B(  9-C , 11-H ) :   0.9542 B(  9-C , 12-C ) :   1.0754
B( 12-C , 13-H ) :   0.9746 B( 12-C , 14-H ) :   0.9722 B( 12-C , 15-H ) :   0.9774
B( 16-S , 17-C ) :   1.1733 B( 16-S , 20-C ) :   1.1982 B( 17-C , 18-C ) :   1.5199
B( 17-C , 20-C ) :   0.1218 B( 17-C , 33-H ) :   0.9777 B( 18-C , 19-C ) :   1.3369
B( 18-C , 21-H ) :   0.9916 B( 19-C , 20-C ) :   1.4561 B( 19-C , 22-C ) :   1.0357
B( 22-C , 23-H ) :   0.9248 B( 22-C , 24-H ) :   0.9292 B( 22-C , 25-C ) :   1.0599
B( 25-C , 26-H ) :   0.9563 B( 25-C , 27-H ) :   0.9525 B( 25-C , 28-C ) :   1.0861
B( 28-C , 29-H ) :   0.9754 B( 28-C , 30-H ) :   0.9739 B( 28-C , 31-H ) :   0.9720

Dispersion correction           -0.014037555
FINAL SINGLE POINT ENERGY     -1339.868715853362

DIPOLE MOMENT
-------------
                                X             Y             Z
Electronic contribution:      3.10326      -8.75688       5.31416
Nuclear contribution   :     -3.16767       8.82443      -5.36629
                        -----------------------------------------
Total Dipole Moment    :     -0.06441       0.06754      -0.05214
                        -----------------------------------------
Magnitude (a.u.)       :      0.10690
Magnitude (Debye)      :      0.27173

Rotational constants in cm-1:     0.022953     0.007813     0.006084
Rotational constants in MHz :   688.103144   234.219745   182.388797

                             ****ORCA TERMINATED NORMALLY****
TOTAL RUN TIME: 0 days 0 hours 0 minutes 20 seconds 107 msec
