                         Program Version 4.2.1 -  RELEASE  -
|  1> ! wB97X-D3 SP def2-SVP
|  2> %pal
|  3> nprocs 24
|  4> end
|  5>
|  6> * xyz 0 1
|  7> S 	 -136.629 	 32.5311 	 -17.8181
|  8> C 	 -135.309 	 32.2885 	 -16.5868
|  9> C 	 -134.118 	 32.0657 	 -17.2683
| 10> C 	 -134.34 	 31.799 	 -18.6526
| 11> C 	 -135.68 	 31.8305 	 -19.0433
| 12> H 	 -133.672 	 31.3479 	 -19.3582
| 13> C 	 -132.683 	 32.2706 	 -16.7233
| 14> H 	 -132.796 	 33.104 	 -16.0571
| 15> H 	 -132.015 	 32.4032 	 -17.5689
| 16> C 	 -132.158 	 31.1026 	 -15.8762
| 17> H 	 -131.128 	 31.3286 	 -15.5602
| 18> H 	 -132.71 	 30.9917 	 -14.9947
| 19> C 	 -132.166 	 29.8061 	 -16.7203
| 20> H 	 -131.819 	 29.0088 	 -16.0616
| 21> H 	 -133.205 	 29.6076 	 -17.0555
| 22> H 	 -131.449 	 29.7909 	 -17.5284
| 23> S 	 -137.87 	 30.8041 	 -20.3445
| 24> C 	 -137.746 	 30.4475 	 -22.004
| 25> C 	 -136.651 	 31.053 	 -22.5577
| 26> C 	 -135.709 	 31.4983 	 -21.6299
| 27> C 	 -136.255 	 31.4434 	 -20.3444
| 28> H 	 -136.615 	 31.149 	 -23.6087
| 29> C 	 -134.436 	 32.2614 	 -21.9806
| 30> H 	 -134.358 	 32.841 	 -21.1326
| 31> H 	 -134.707 	 32.9316 	 -22.7565
| 32> C 	 -133.233 	 31.4184 	 -22.3199
| 33> H 	 -133.288 	 31.1132 	 -23.3348
| 34> H 	 -133.219 	 30.488 	 -21.7661
| 35> C 	 -131.912 	 32.163 	 -22.3663
| 36> H 	 -131.767 	 32.7835 	 -23.1951
| 37> H 	 -131.106 	 31.3759 	 -22.3662
| 38> H 	 -131.787 	 32.6985 	 -21.4404
| 39> H 	 -135.29 	 32.9093 	 -15.692
| 40> H 	 -138.503 	 30.0861 	 -22.6793
| 41> *
| 42>
| 43>                          ****END OF INPUT****

CARTESIAN COORDINATES (ANGSTROEM)
---------------------------------
  S    -136.629000   32.531100  -17.818100
  C    -135.309000   32.288500  -16.586800
  C    -134.118000   32.065700  -17.268300
  C    -134.340000   31.799000  -18.652600
  C    -135.680000   31.830500  -19.043300
  H    -133.672000   31.347900  -19.358200
  C    -132.683000   32.270600  -16.723300
  H    -132.796000   33.104000  -16.057100
  H    -132.015000   32.403200  -17.568900
  C    -132.158000   31.102600  -15.876200
  H    -131.128000   31.328600  -15.560200
  H    -132.710000   30.991700  -14.994700
  C    -132.166000   29.806100  -16.720300
  H    -131.819000   29.008800  -16.061600
  H    -133.205000   29.607600  -17.055500
  H    -131.449000   29.790900  -17.528400
  S    -137.870000   30.804100  -20.344500
  C    -137.746000   30.447500  -22.004000
  C    -136.651000   31.053000  -22.557700
  C    -135.709000   31.498300  -21.629900
  C    -136.255000   31.443400  -20.344400
  H    -136.615000   31.149000  -23.608700
  C    -134.436000   32.261400  -21.980600
  H    -134.358000   32.841000  -21.132600
  H    -134.707000   32.931600  -22.756500
  C    -133.233000   31.418400  -22.319900
  H    -133.288000   31.113200  -23.334800
  H    -133.219000   30.488000  -21.766100
  C    -131.912000   32.163000  -22.366300
  H    -131.767000   32.783500  -23.195100
  H    -131.106000   31.375900  -22.366200
  H    -131.787000   32.698500  -21.440400
  H    -135.290000   32.909300  -15.692000
  H    -138.503000   30.086100  -22.679300

 Total Charge           Charge          ....    0
 Multiplicity           Mult            ....    1
 Number of Electrons    NEL             ....  134
 Basis Dimension        Dim             ....  322

ORBITAL ENERGIES
----------------

  NO   OCC          E(Eh)            E(eV)
   0   2.0000     -88.969819     -2420.9918
   1   2.0000     -88.964769     -2420.8544
   2   2.0000     -10.331963      -281.1470
   3   2.0000     -10.327776      -281.0331
   4   2.0000     -10.313526      -280.6453
   5   2.0000     -10.310096      -280.5520
   6   2.0000     -10.307267      -280.4750
   7   2.0000     -10.300889      -280.3014
   8   2.0000     -10.293243      -280.0934
   9   2.0000     -10.289739      -279.9980
  10   2.0000     -10.285450      -279.8813
  11   2.0000     -10.282705      -279.8066
  12   2.0000     -10.280887      -279.7572
  13   2.0000     -10.280517      -279.7471
  14   2.0000     -10.276305      -279.6325
  15   2.0000     -10.274670      -279.5880
  16   2.0000      -8.085378      -220.0143
  17   2.0000      -8.079453      -219.8531
  18   2.0000      -6.043743      -164.4586
  19   2.0000      -6.039836      -164.3523
  20   2.0000      -6.038013      -164.3027
  21   2.0000      -6.036154      -164.2521
  22   2.0000      -6.034113      -164.1966
  23   2.0000      -6.030002      -164.0847
  24   2.0000      -1.014947       -27.6181
  25   2.0000      -0.988011       -26.8851
  26   2.0000      -0.918868       -25.0037
  27   2.0000      -0.913436       -24.8559
  28   2.0000      -0.868440       -23.6314
  29   2.0000      -0.861977       -23.4556
  30   2.0000      -0.839604       -22.8468
  31   2.0000      -0.815091       -22.1798
  32   2.0000      -0.788201       -21.4480
  33   2.0000      -0.776528       -21.1304
  34   2.0000      -0.708769       -19.2866
  35   2.0000      -0.703909       -19.1543
  36   2.0000      -0.698870       -19.0172
  37   2.0000      -0.663447       -18.0533
  38   2.0000      -0.634523       -17.2663
  39   2.0000      -0.614741       -16.7280
  40   2.0000      -0.595128       -16.1943
  41   2.0000      -0.577044       -15.7022
  42   2.0000      -0.574240       -15.6259
  43   2.0000      -0.550739       -14.9864
  44   2.0000      -0.542249       -14.7554
  45   2.0000      -0.535579       -14.5738
  46   2.0000      -0.519894       -14.1470
  47   2.0000      -0.514818       -14.0089
  48   2.0000      -0.510935       -13.9033
  49   2.0000      -0.499657       -13.5964
  50   2.0000      -0.484794       -13.1919
  51   2.0000      -0.482097       -13.1185
  52   2.0000      -0.475216       -12.9313
  53   2.0000      -0.463729       -12.6187
  54   2.0000      -0.457910       -12.4604
  55   2.0000      -0.452755       -12.3201
  56   2.0000      -0.442307       -12.0358
  57   2.0000      -0.440655       -11.9908
  58   2.0000      -0.435755       -11.8575
  59   2.0000      -0.429528       -11.6881
  60   2.0000      -0.423259       -11.5175
  61   2.0000      -0.413249       -11.2451
  62   2.0000      -0.410762       -11.1774
  63   2.0000      -0.354442        -9.6449
  64   2.0000      -0.335722        -9.1355
  65   2.0000      -0.328219        -8.9313
  66   2.0000      -0.287092        -7.8122
  67   0.0000       0.018447         0.5020
  68   0.0000       0.072996         1.9863
  69   0.0000       0.086692         2.3590
  70   0.0000       0.122995         3.3469
  71   0.0000       0.137022         3.7286

MULLIKEN ATOMIC CHARGES
-----------------------
   0 S :    0.085461
   1 C :   -0.105794
   2 C :   -0.140764
   3 C :    0.018933
   4 C :   -0.134031
   5 H :   -0.000879
   6 C :    0.093336
   7 H :    0.024783
   8 H :    0.029217
   9 C :   -0.053978
  10 H :    0.027156
  11 H :    0.019427
  12 C :   -0.071894
  13 H :    0.029013
  14 H :    0.060831
  15 H :    0.025877
  16 S :    0.133815
  17 C :   -0.074826
  18 C :   -0.035963
  19 C :   -0.060510
  20 C :   -0.159191
  21 H :    0.000037
  22 C :    0.124337
  23 H :    0.000604
  24 H :    0.014389
  25 C :   -0.064491
  26 H :    0.012960
  27 H :    0.035743
  28 C :   -0.024289
  29 H :    0.030379
  30 H :    0.032755
  31 H :    0.020127
  32 H :    0.057445
  33 H :    0.049985
Sum of atomic charges:    0.0000000

LOEWDIN ATOMIC CHARGES
----------------------
   0 S :    0.394249
   1 C :   -0.204533
   2 C :   -0.048287
   3 C :   -0.085359
   4 C :   -0.189052
   5 H :    0.024617
   6 C :   -0.019835
   7 H :    0.028921
   8 H :    0.031491
   9 C :   -0.032724
  10 H :    0.024426
  11 H :    0.015585
  12 C :   -0.067253
  13 H :    0.026018
  14 H :    0.033186
  15 H :    0.020414
  16 S :    0.441134
  17 C :   -0.202096
  18 C :   -0.066651
  19 C :   -0.049956
  20 C :   -0.205342
  21 H :    0.024411
  22 C :   -0.021022
  23 H :    0.019135
  24 H :    0.030518
  25 C :   -0.043583
  26 H :    0.024141
  27 H :    0.024841
  28 C :   -0.055506
  29 H :    0.017755
  30 H :    0.034817
  31 H :    0.018568
  32 H :    0.026675
  33 H :    0.030298

  Mayer bond orders larger than 0.100000
B(  0-S ,  1-C ) :   1.1001 B(  0-S ,  4-C ) :   1.1840 B(  1-C ,  2-C ) :   1.6281
B(  1-C , 32-H ) :   0.9564 B(  2-C ,  3-C ) :   1.2406 B(  2-C ,  6-C ) :   1.0031
B(  3-C ,  4-C ) :   1.5546 B(  3-C ,  5-H ) :   0.9895 B(  4-C , 20-C ) :   1.0412
B(  6-C ,  7-H ) :   0.9378 B(  6-C ,  8-H ) :   0.9480 B(  6-C ,  9-C ) :   1.0824
B(  9-C , 10-H ) :   0.9553 B(  9-C , 11-H ) :   0.9565 B(  9-C , 12-C ) :   1.0780
B( 12-C , 13-H ) :   0.9732 B( 12-C , 14-H ) :   0.9712 B( 12-C , 15-H ) :   0.9763
B( 16-S , 17-C ) :   1.1666 B( 16-S , 20-C ) :   1.1605 B( 17-C , 18-C ) :   1.5944
B( 17-C , 20-C ) :   0.1027 B( 17-C , 33-H ) :   0.9636 B( 18-C , 19-C ) :   1.2728
B( 18-C , 21-H ) :   0.9937 B( 19-C , 20-C ) :   1.5447 B( 19-C , 22-C ) :   1.0235
B( 22-C , 23-H ) :   0.9343 B( 22-C , 24-H ) :   0.9296 B( 22-C , 25-C ) :   1.0569
B( 25-C , 26-H ) :   0.9456 B( 25-C , 27-H ) :   0.9586 B( 25-C , 28-C ) :   1.0840
B( 28-C , 29-H ) :   0.9771 B( 28-C , 30-H ) :   0.9729 B( 28-C , 31-H ) :   0.9766

Dispersion correction           -0.014547322
FINAL SINGLE POINT ENERGY     -1339.855616218720

DIPOLE MOMENT
-------------
                                X             Y             Z
Electronic contribution:    -29.67666       2.18515       1.54075
Nuclear contribution   :     30.29148      -1.99984      -1.96837
                        -----------------------------------------
Total Dipole Moment    :      0.61483       0.18531      -0.42762
                        -----------------------------------------
Magnitude (a.u.)       :      0.77150
Magnitude (Debye)      :      1.96100

Rotational constants in cm-1:     0.017056     0.009881     0.007091
Rotational constants in MHz :   511.335868   296.213847   212.571511

                             ****ORCA TERMINATED NORMALLY****
TOTAL RUN TIME: 0 days 0 hours 0 minutes 22 seconds 428 msec
