                         Program Version 4.2.1 -  RELEASE  -
|  1> ! wB97X-D3 SP def2-SVP
|  2> %pal
|  3> nprocs 24
|  4> end
|  5>
|  6> * xyz 0 1
|  7> S 	 -51.3153 	 17.3064 	 25.3368
|  8> C 	 -51.0487 	 15.6881 	 24.7598
|  9> C 	 -51.2047 	 14.7948 	 25.804
| 10> C 	 -51.2183 	 15.4254 	 27.1036
| 11> C 	 -51.1942 	 16.8044 	 27.0345
| 12> H 	 -51.2483 	 14.9788 	 28.0172
| 13> C 	 -51.0848 	 13.2756 	 25.5331
| 14> H 	 -51.0891 	 13.2468 	 24.4151
| 15> H 	 -51.938 	 12.8787 	 26.0315
| 16> C 	 -49.6579 	 12.7551 	 25.8363
| 17> H 	 -48.9221 	 13.3957 	 25.3809
| 18> H 	 -49.5151 	 12.9553 	 26.9263
| 19> C 	 -49.3744 	 11.2993 	 25.3106
| 20> H 	 -49.7412 	 10.4917 	 25.9112
| 21> H 	 -49.9552 	 10.9728 	 24.4769
| 22> H 	 -48.3468 	 10.9479 	 25.251
| 23> S 	 -49.6426 	 18.825 	 28.1469
| 24> C 	 -50.1005 	 19.5228 	 29.6694
| 25> C 	 -51.249 	 18.8662 	 30.2132
| 26> C 	 -51.8508 	 17.9553 	 29.2989
| 27> C 	 -51.1276 	 17.8054 	 28.1015
| 28> H 	 -51.5816 	 18.9928 	 31.2434
| 29> C 	 -53.0983 	 17.242 	 29.7381
| 30> H 	 -53.444 	 16.6701 	 28.8857
| 31> H 	 -53.8623 	 18.0027 	 29.8727
| 32> C 	 -52.8788 	 16.3739 	 31.0292
| 33> H 	 -52.6537 	 17.077 	 31.7892
| 34> H 	 -51.9501 	 15.8835 	 30.8572
| 35> C 	 -54.1034 	 15.4529 	 31.4711
| 36> H 	 -54.8258 	 16.0659 	 31.9557
| 37> H 	 -53.6982 	 14.7143 	 32.217
| 38> H 	 -54.5489 	 14.8688 	 30.7036
| 39> H 	 -50.9951 	 15.3738 	 23.7915
| 40> H 	 -49.386 	 20.0953 	 30.261
| 41> *
| 42>
| 43>                          ****END OF INPUT****

CARTESIAN COORDINATES (ANGSTROEM)
---------------------------------
  S    -51.315300   17.306400   25.336800
  C    -51.048700   15.688100   24.759800
  C    -51.204700   14.794800   25.804000
  C    -51.218300   15.425400   27.103600
  C    -51.194200   16.804400   27.034500
  H    -51.248300   14.978800   28.017200
  C    -51.084800   13.275600   25.533100
  H    -51.089100   13.246800   24.415100
  H    -51.938000   12.878700   26.031500
  C    -49.657900   12.755100   25.836300
  H    -48.922100   13.395700   25.380900
  H    -49.515100   12.955300   26.926300
  C    -49.374400   11.299300   25.310600
  H    -49.741200   10.491700   25.911200
  H    -49.955200   10.972800   24.476900
  H    -48.346800   10.947900   25.251000
  S    -49.642600   18.825000   28.146900
  C    -50.100500   19.522800   29.669400
  C    -51.249000   18.866200   30.213200
  C    -51.850800   17.955300   29.298900
  C    -51.127600   17.805400   28.101500
  H    -51.581600   18.992800   31.243400
  C    -53.098300   17.242000   29.738100
  H    -53.444000   16.670100   28.885700
  H    -53.862300   18.002700   29.872700
  C    -52.878800   16.373900   31.029200
  H    -52.653700   17.077000   31.789200
  H    -51.950100   15.883500   30.857200
  C    -54.103400   15.452900   31.471100
  H    -54.825800   16.065900   31.955700
  H    -53.698200   14.714300   32.217000
  H    -54.548900   14.868800   30.703600
  H    -50.995100   15.373800   23.791500
  H    -49.386000   20.095300   30.261000

 Total Charge           Charge          ....    0
 Multiplicity           Mult            ....    1
 Number of Electrons    NEL             ....  134
 Basis Dimension        Dim             ....  322

ORBITAL ENERGIES
----------------

  NO   OCC          E(Eh)            E(eV)
   0   2.0000     -88.968025     -2420.9430
   1   2.0000     -88.961132     -2420.7555
   2   2.0000     -10.332480      -281.1611
   3   2.0000     -10.331730      -281.1407
   4   2.0000     -10.324976      -280.9569
   5   2.0000     -10.307101      -280.4705
   6   2.0000     -10.305799      -280.4350
   7   2.0000     -10.300813      -280.2994
   8   2.0000     -10.299664      -280.2681
   9   2.0000     -10.295896      -280.1656
  10   2.0000     -10.294695      -280.1329
  11   2.0000     -10.291560      -280.0476
  12   2.0000     -10.291123      -280.0357
  13   2.0000     -10.290104      -280.0080
  14   2.0000     -10.285737      -279.8891
  15   2.0000     -10.276059      -279.6258
  16   2.0000      -8.082095      -219.9250
  17   2.0000      -8.075857      -219.7553
  18   2.0000      -6.040535      -164.3713
  19   2.0000      -6.036599      -164.2642
  20   2.0000      -6.034399      -164.2044
  21   2.0000      -6.033039      -164.1673
  22   2.0000      -6.030389      -164.0952
  23   2.0000      -6.026554      -163.9909
  24   2.0000      -1.000787       -27.2328
  25   2.0000      -0.979748       -26.6603
  26   2.0000      -0.906916       -24.6784
  27   2.0000      -0.904804       -24.6210
  28   2.0000      -0.865516       -23.5519
  29   2.0000      -0.848721       -23.0949
  30   2.0000      -0.842433       -22.9238
  31   2.0000      -0.813985       -22.1497
  32   2.0000      -0.784768       -21.3546
  33   2.0000      -0.772446       -21.0193
  34   2.0000      -0.716341       -19.4926
  35   2.0000      -0.708512       -19.2796
  36   2.0000      -0.697873       -18.9901
  37   2.0000      -0.661216       -17.9926
  38   2.0000      -0.650558       -17.7026
  39   2.0000      -0.617096       -16.7920
  40   2.0000      -0.592812       -16.1312
  41   2.0000      -0.566176       -15.4064
  42   2.0000      -0.565038       -15.3755
  43   2.0000      -0.556292       -15.1375
  44   2.0000      -0.528416       -14.3789
  45   2.0000      -0.522157       -14.2086
  46   2.0000      -0.515240       -14.0204
  47   2.0000      -0.510476       -13.8908
  48   2.0000      -0.509648       -13.8682
  49   2.0000      -0.500498       -13.6192
  50   2.0000      -0.491279       -13.3684
  51   2.0000      -0.480432       -13.0732
  52   2.0000      -0.473526       -12.8853
  53   2.0000      -0.467633       -12.7250
  54   2.0000      -0.459401       -12.5010
  55   2.0000      -0.451402       -12.2833
  56   2.0000      -0.444067       -12.0837
  57   2.0000      -0.437596       -11.9076
  58   2.0000      -0.434854       -11.8330
  59   2.0000      -0.427201       -11.6247
  60   2.0000      -0.422154       -11.4874
  61   2.0000      -0.415340       -11.3020
  62   2.0000      -0.406449       -11.0600
  63   2.0000      -0.340358        -9.2616
  64   2.0000      -0.332055        -9.0357
  65   2.0000      -0.324012        -8.8168
  66   2.0000      -0.296363        -8.0644
  67   0.0000       0.027289         0.7426
  68   0.0000       0.059585         1.6214
  69   0.0000       0.112139         3.0515
  70   0.0000       0.115549         3.1443
  71   0.0000       0.128788         3.5045

MULLIKEN ATOMIC CHARGES
-----------------------
   0 S :    0.105978
   1 C :   -0.070578
   2 C :   -0.135260
   3 C :    0.090437
   4 C :   -0.173835
   5 H :   -0.033624
   6 C :    0.066263
   7 H :    0.020375
   8 H :    0.040056
   9 C :   -0.053901
  10 H :    0.030144
  11 H :    0.031687
  12 C :   -0.026954
  13 H :    0.004688
  14 H :    0.016152
  15 H :    0.036359
  16 S :    0.112156
  17 C :   -0.090209
  18 C :   -0.064094
  19 C :   -0.042125
  20 C :   -0.156582
  21 H :    0.030554
  22 C :    0.085754
  23 H :    0.016489
  24 H :    0.031530
  25 C :   -0.085229
  26 H :    0.018762
  27 H :    0.028168
  28 C :   -0.027366
  29 H :    0.034139
  30 H :    0.041554
  31 H :    0.034286
  32 H :    0.013353
  33 H :    0.070873
Sum of atomic charges:   -0.0000000

LOEWDIN ATOMIC CHARGES
----------------------
   0 S :    0.396034
   1 C :   -0.186939
   2 C :   -0.058809
   3 C :   -0.052405
   4 C :   -0.184155
   5 H :    0.014110
   6 C :   -0.025877
   7 H :    0.033482
   8 H :    0.027722
   9 C :   -0.037607
  10 H :    0.026295
  11 H :    0.026728
  12 C :   -0.084432
  13 H :    0.026257
  14 H :    0.025923
  15 H :    0.030538
  16 S :    0.407320
  17 C :   -0.189948
  18 C :   -0.072718
  19 C :   -0.049536
  20 C :   -0.199024
  21 H :    0.031355
  22 C :   -0.031546
  23 H :    0.025685
  24 H :    0.031754
  25 C :   -0.030254
  26 H :    0.017479
  27 H :    0.019579
  28 C :   -0.058092
  29 H :    0.023488
  30 H :    0.036174
  31 H :    0.021252
  32 H :    0.009380
  33 H :    0.030787

  Mayer bond orders larger than 0.100000
B(  0-S ,  1-C ) :   1.1356 B(  0-S ,  4-C ) :   1.1519 B(  1-C ,  2-C ) :   1.6164
B(  1-C , 32-H ) :   0.9762 B(  2-C ,  3-C ) :   1.2105 B(  2-C ,  6-C ) :   1.0267
B(  3-C ,  4-C ) :   1.5835 B(  3-C ,  5-H ) :   1.0160 B(  4-C , 20-C ) :   1.0247
B(  6-C ,  7-H ) :   0.9421 B(  6-C ,  8-H ) :   0.9408 B(  6-C ,  9-C ) :   1.0565
B(  9-C , 10-H ) :   0.9589 B(  9-C , 11-H ) :   0.9609 B(  9-C , 12-C ) :   1.0545
B( 12-C , 13-H ) :   0.9651 B( 12-C , 14-H ) :   0.9725 B( 12-C , 15-H ) :   0.9786
B( 16-S , 17-C ) :   1.1834 B( 16-S , 20-C ) :   1.1422 B( 17-C , 18-C ) :   1.5635
B( 17-C , 20-C ) :   0.1069 B( 17-C , 33-H ) :   0.9644 B( 18-C , 19-C ) :   1.2640
B( 18-C , 21-H ) :   0.9863 B( 19-C , 20-C ) :   1.5661 B( 19-C , 22-C ) :   1.0497
B( 22-C , 23-H ) :   0.9330 B( 22-C , 24-H ) :   0.9328 B( 22-C , 25-C ) :   1.0418
B( 25-C , 26-H ) :   0.9551 B( 25-C , 27-H ) :   0.9645 B( 25-C , 28-C ) :   1.0709
B( 28-C , 29-H ) :   0.9770 B( 28-C , 30-H ) :   0.9765 B( 28-C , 31-H ) :   0.9804

Dispersion correction           -0.013742265
FINAL SINGLE POINT ENERGY     -1339.848494356400

DIPOLE MOMENT
-------------
                                X             Y             Z
Electronic contribution:      6.37178      25.54636      -9.30245
Nuclear contribution   :     -6.52950     -26.17119       9.85018
                        -----------------------------------------
Total Dipole Moment    :     -0.15771      -0.62483       0.54773
                        -----------------------------------------
Magnitude (a.u.)       :      0.84575
Magnitude (Debye)      :      2.14973

Rotational constants in cm-1:     0.016869     0.008012     0.006373
Rotational constants in MHz :   505.712296   240.206220   191.054970

                             ****ORCA TERMINATED NORMALLY****
TOTAL RUN TIME: 0 days 0 hours 0 minutes 20 seconds 866 msec
