                         Program Version 4.2.1 -  RELEASE  -
|  1> ! wB97X-D3 SP def2-SVP
|  2> %pal
|  3> nprocs 24
|  4> end
|  5>
|  6> * xyz 0 1
|  7> S 	 -40.7377 	 18.9361 	 25.4027
|  8> C 	 -41.4097 	 19.5879 	 26.9307
|  9> C 	 -40.615 	 19.2872 	 28.0435
| 10> C 	 -39.4403 	 18.5369 	 27.659
| 11> C 	 -39.299 	 18.3813 	 26.3127
| 12> H 	 -38.6539 	 18.0778 	 28.2475
| 13> C 	 -40.9359 	 19.697 	 29.4554
| 14> H 	 -42.0507 	 19.8303 	 29.4573
| 15> H 	 -40.5396 	 20.7044 	 29.5991
| 16> C 	 -40.5756 	 18.6833 	 30.5367
| 17> H 	 -41.1481 	 17.743 	 30.2454
| 18> H 	 -39.5017 	 18.7708 	 30.4585
| 19> C 	 -41.0221 	 19.1221 	 31.9364
| 20> H 	 -42.0744 	 19.4881 	 31.8874
| 21> H 	 -40.8777 	 18.3212 	 32.6865
| 22> H 	 -40.3979 	 19.9908 	 32.2339
| 23> S 	 -38.7407 	 16.194 	 24.6722
| 24> C 	 -37.0544 	 15.6352 	 24.59
| 25> C 	 -36.1886 	 16.6094 	 25.1149
| 26> C 	 -36.8082 	 17.736 	 25.65
| 27> C 	 -38.2256 	 17.6159 	 25.6595
| 28> H 	 -35.1045 	 16.3328 	 25.1061
| 29> C 	 -36.1532 	 19.0124 	 26.2296
| 30> H 	 -35.205 	 18.7484 	 26.673
| 31> H 	 -36.7434 	 19.4629 	 27.0666
| 32> C 	 -35.8083 	 20.0683 	 25.1189
| 33> H 	 -36.7219 	 20.437 	 24.5822
| 34> H 	 -35.1196 	 19.6787 	 24.4054
| 35> C 	 -35.1993 	 21.3592 	 25.6917
| 36> H 	 -34.6957 	 21.8876 	 24.8764
| 37> H 	 -34.3895 	 21.157 	 26.3286
| 38> H 	 -35.9445 	 22.0374 	 26.2765
| 39> H 	 -42.3939 	 20.0169 	 26.927
| 40> H 	 -36.605 	 14.7943 	 24.0064
| 41> *
| 42>
| 43>                          ****END OF INPUT****

CARTESIAN COORDINATES (ANGSTROEM)
---------------------------------
  S    -40.737700   18.936100   25.402700
  C    -41.409700   19.587900   26.930700
  C    -40.615000   19.287200   28.043500
  C    -39.440300   18.536900   27.659000
  C    -39.299000   18.381300   26.312700
  H    -38.653900   18.077800   28.247500
  C    -40.935900   19.697000   29.455400
  H    -42.050700   19.830300   29.457300
  H    -40.539600   20.704400   29.599100
  C    -40.575600   18.683300   30.536700
  H    -41.148100   17.743000   30.245400
  H    -39.501700   18.770800   30.458500
  C    -41.022100   19.122100   31.936400
  H    -42.074400   19.488100   31.887400
  H    -40.877700   18.321200   32.686500
  H    -40.397900   19.990800   32.233900
  S    -38.740700   16.194000   24.672200
  C    -37.054400   15.635200   24.590000
  C    -36.188600   16.609400   25.114900
  C    -36.808200   17.736000   25.650000
  C    -38.225600   17.615900   25.659500
  H    -35.104500   16.332800   25.106100
  C    -36.153200   19.012400   26.229600
  H    -35.205000   18.748400   26.673000
  H    -36.743400   19.462900   27.066600
  C    -35.808300   20.068300   25.118900
  H    -36.721900   20.437000   24.582200
  H    -35.119600   19.678700   24.405400
  C    -35.199300   21.359200   25.691700
  H    -34.695700   21.887600   24.876400
  H    -34.389500   21.157000   26.328600
  H    -35.944500   22.037400   26.276500
  H    -42.393900   20.016900   26.927000
  H    -36.605000   14.794300   24.006400

 Total Charge           Charge          ....    0
 Multiplicity           Mult            ....    1
 Number of Electrons    NEL             ....  134
 Basis Dimension        Dim             ....  322

ORBITAL ENERGIES
----------------

  NO   OCC          E(Eh)            E(eV)
   0   2.0000     -88.967857     -2420.9385
   1   2.0000     -88.965585     -2420.8766
   2   2.0000     -10.332774      -281.1691
   3   2.0000     -10.331011      -281.1211
   4   2.0000     -10.323268      -280.9104
   5   2.0000     -10.318507      -280.7809
   6   2.0000     -10.309902      -280.5467
   7   2.0000     -10.308348      -280.5044
   8   2.0000     -10.298628      -280.2399
   9   2.0000     -10.297864      -280.2191
  10   2.0000     -10.295359      -280.1510
  11   2.0000     -10.294003      -280.1141
  12   2.0000     -10.293172      -280.0914
  13   2.0000     -10.287064      -279.9252
  14   2.0000     -10.286733      -279.9162
  15   2.0000     -10.278261      -279.6857
  16   2.0000      -8.080966      -219.8943
  17   2.0000      -8.079236      -219.8472
  18   2.0000      -6.039453      -164.3419
  19   2.0000      -6.037780      -164.2963
  20   2.0000      -6.035726      -164.2404
  21   2.0000      -6.034100      -164.1962
  22   2.0000      -6.031812      -164.1339
  23   2.0000      -6.029829      -164.0800
  24   2.0000      -0.996563       -27.1179
  25   2.0000      -0.974415       -26.5152
  26   2.0000      -0.915165       -24.9029
  27   2.0000      -0.899412       -24.4743
  28   2.0000      -0.865438       -23.5498
  29   2.0000      -0.849266       -23.1097
  30   2.0000      -0.843436       -22.9511
  31   2.0000      -0.813137       -22.1266
  32   2.0000      -0.778681       -21.1890
  33   2.0000      -0.765605       -20.8332
  34   2.0000      -0.706471       -19.2241
  35   2.0000      -0.692366       -18.8402
  36   2.0000      -0.687227       -18.7004
  37   2.0000      -0.650651       -17.7051
  38   2.0000      -0.645196       -17.5567
  39   2.0000      -0.615708       -16.7543
  40   2.0000      -0.587160       -15.9774
  41   2.0000      -0.583630       -15.8814
  42   2.0000      -0.562863       -15.3163
  43   2.0000      -0.554446       -15.0873
  44   2.0000      -0.525570       -14.3015
  45   2.0000      -0.516969       -14.0675
  46   2.0000      -0.512023       -13.9329
  47   2.0000      -0.506966       -13.7953
  48   2.0000      -0.503024       -13.6880
  49   2.0000      -0.499331       -13.5875
  50   2.0000      -0.489898       -13.3308
  51   2.0000      -0.470220       -12.7953
  52   2.0000      -0.469405       -12.7732
  53   2.0000      -0.466915       -12.7054
  54   2.0000      -0.454748       -12.3743
  55   2.0000      -0.448221       -12.1967
  56   2.0000      -0.439402       -11.9567
  57   2.0000      -0.435855       -11.8602
  58   2.0000      -0.433052       -11.7839
  59   2.0000      -0.423266       -11.5176
  60   2.0000      -0.421550       -11.4710
  61   2.0000      -0.414497       -11.2790
  62   2.0000      -0.412443       -11.2231
  63   2.0000      -0.341942        -9.3047
  64   2.0000      -0.333604        -9.0778
  65   2.0000      -0.327144        -8.9020
  66   2.0000      -0.289918        -7.8891
  67   0.0000       0.024260         0.6602
  68   0.0000       0.059187         1.6106
  69   0.0000       0.102395         2.7863
  70   0.0000       0.122514         3.3338
  71   0.0000       0.129750         3.5307

MULLIKEN ATOMIC CHARGES
-----------------------
   0 S :    0.089917
   1 C :   -0.127217
   2 C :   -0.064263
   3 C :    0.024305
   4 C :   -0.145066
   5 H :    0.025137
   6 C :    0.033765
   7 H :    0.015203
   8 H :    0.044327
   9 C :   -0.104744
  10 H :    0.057777
  11 H :    0.041472
  12 C :   -0.043506
  13 H :    0.034722
  14 H :    0.050430
  15 H :    0.028872
  16 S :    0.102618
  17 C :   -0.109377
  18 C :   -0.084875
  19 C :    0.011873
  20 C :   -0.184230
  21 H :    0.037492
  22 C :    0.070607
  23 H :    0.009423
  24 H :    0.035659
  25 C :   -0.078189
  26 H :    0.045002
  27 H :    0.025859
  28 C :   -0.056510
  29 H :    0.031799
  30 H :    0.007991
  31 H :    0.052310
  32 H :    0.048179
  33 H :    0.073238
Sum of atomic charges:    0.0000000

LOEWDIN ATOMIC CHARGES
----------------------
   0 S :    0.363796
   1 C :   -0.180064
   2 C :   -0.058062
   3 C :   -0.063017
   4 C :   -0.179649
   5 H :    0.036327
   6 C :   -0.040093
   7 H :    0.028812
   8 H :    0.032746
   9 C :   -0.048043
  10 H :    0.040553
  11 H :    0.026281
  12 C :   -0.069391
  13 H :    0.028170
  14 H :    0.030684
  15 H :    0.027533
  16 S :    0.379147
  17 C :   -0.193175
  18 C :   -0.082770
  19 C :   -0.055089
  20 C :   -0.179907
  21 H :    0.040791
  22 C :   -0.029226
  23 H :    0.023660
  24 H :    0.035206
  25 C :   -0.037577
  26 H :    0.032559
  27 H :    0.020189
  28 C :   -0.073006
  29 H :    0.029161
  30 H :    0.011249
  31 H :    0.036506
  32 H :    0.023330
  33 H :    0.042370

  Mayer bond orders larger than 0.100000
B(  0-S ,  1-C ) :   1.1224 B(  0-S ,  4-C ) :   1.1249 B(  1-C ,  2-C ) :   1.6336
B(  1-C , 32-H ) :   0.9715 B(  2-C ,  3-C ) :   1.1892 B(  2-C ,  6-C ) :   1.0170
B(  3-C ,  4-C ) :   1.6277 B(  3-C ,  5-H ) :   0.9862 B(  4-C , 20-C ) :   1.0395
B(  6-C ,  7-H ) :   0.9366 B(  6-C ,  8-H ) :   0.9358 B(  6-C ,  9-C ) :   1.0567
B(  9-C , 10-H ) :   0.9571 B(  9-C , 11-H ) :   0.9496 B(  9-C , 12-C ) :   1.0907
B( 12-C , 13-H ) :   0.9723 B( 12-C , 14-H ) :   0.9743 B( 12-C , 15-H ) :   0.9725
B( 16-S , 17-C ) :   1.1512 B( 16-S , 20-C ) :   1.1388 B( 17-C , 18-C ) :   1.6041
B( 17-C , 20-C ) :   0.1188 B( 17-C , 33-H ) :   0.9579 B( 18-C , 19-C ) :   1.2662
B( 18-C , 21-H ) :   0.9813 B( 19-C , 20-C ) :   1.5549 B( 19-C , 22-C ) :   1.0371
B( 22-C , 23-H ) :   0.9312 B( 22-C , 24-H ) :   0.9402 B( 22-C , 25-C ) :   1.0607
B( 25-C , 26-H ) :   0.9583 B( 25-C , 27-H ) :   0.9571 B( 25-C , 28-C ) :   1.0861
B( 28-C , 29-H ) :   0.9724 B( 28-C , 30-H ) :   0.9711 B( 28-C , 31-H ) :   0.9752

Dispersion correction           -0.013544882
FINAL SINGLE POINT ENERGY     -1339.866404982437

DIPOLE MOMENT
-------------
                                X             Y             Z
Electronic contribution:     -9.03490     -14.59207     -20.40756
Nuclear contribution   :      9.40473      14.80389      20.93275
                        -----------------------------------------
Total Dipole Moment    :      0.36983       0.21182       0.52519
                        -----------------------------------------
Magnitude (a.u.)       :      0.67636
Magnitude (Debye)      :      1.71917

Rotational constants in cm-1:     0.016600     0.007995     0.006922
Rotational constants in MHz :   497.651103   239.681490   207.520293

                             ****ORCA TERMINATED NORMALLY****
TOTAL RUN TIME: 0 days 0 hours 0 minutes 19 seconds 874 msec
