                         Program Version 4.2.1 -  RELEASE  -
|  1> ! wB97X-D3 SP def2-SVP
|  2> %pal
|  3> nprocs 24
|  4> end
|  5>
|  6> * xyz 0 1
|  7> S 	 -51.8166 	 -45.5668 	 -76.9948
|  8> C 	 -52.5264 	 -45.1255 	 -75.5011
|  9> C 	 -52.6617 	 -43.7371 	 -75.4298
| 10> C 	 -52.2725 	 -43.094 	 -76.643
| 11> C 	 -51.6984 	 -43.89 	 -77.5902
| 12> H 	 -52.4109 	 -42.0713 	 -76.8135
| 13> C 	 -53.2065 	 -43.0057 	 -74.2143
| 14> H 	 -54.2467 	 -42.8666 	 -74.5764
| 15> H 	 -52.7931 	 -41.9939 	 -74.0798
| 16> C 	 -53.2289 	 -43.7227 	 -72.8623
| 17> H 	 -53.7961 	 -44.6686 	 -72.972
| 18> H 	 -52.1977 	 -44.0013 	 -72.5893
| 19> C 	 -53.8323 	 -42.785 	 -71.694
| 20> H 	 -54.9495 	 -42.7026 	 -71.8608
| 21> H 	 -53.5734 	 -43.1809 	 -70.7574
| 22> H 	 -53.4583 	 -41.7704 	 -71.7465
| 23> S 	 -50.9397 	 -44.9394 	 -79.997
| 24> C 	 -50.0927 	 -43.8863 	 -81.1668
| 25> C 	 -49.9867 	 -42.56 	 -80.7338
| 26> C 	 -50.4856 	 -42.4454 	 -79.3708
| 27> C 	 -51.0871 	 -43.5755 	 -78.8361
| 28> H 	 -49.4349 	 -41.8276 	 -81.3451
| 29> C 	 -50.3171 	 -41.1084 	 -78.6251
| 30> H 	 -51.2787 	 -40.9106 	 -78.1538
| 31> H 	 -50.2714 	 -40.3557 	 -79.3185
| 32> C 	 -49.239 	 -41.067 	 -77.5582
| 33> H 	 -49.4659 	 -41.7158 	 -76.754
| 34> H 	 -49.2605 	 -40.1193 	 -77.2239
| 35> C 	 -47.8318 	 -41.3565 	 -78.181
| 36> H 	 -46.9961 	 -41.3172 	 -77.4726
| 37> H 	 -47.6371 	 -40.7267 	 -79.0744
| 38> H 	 -47.7982 	 -42.4232 	 -78.4957
| 39> H 	 -52.7029 	 -45.7374 	 -74.6484
| 40> H 	 -49.5934 	 -44.239 	 -82.0858
| 41> *
| 42>
| 43>                          ****END OF INPUT****

CARTESIAN COORDINATES (ANGSTROEM)
---------------------------------
  S    -51.816600  -45.566800  -76.994800
  C    -52.526400  -45.125500  -75.501100
  C    -52.661700  -43.737100  -75.429800
  C    -52.272500  -43.094000  -76.643000
  C    -51.698400  -43.890000  -77.590200
  H    -52.410900  -42.071300  -76.813500
  C    -53.206500  -43.005700  -74.214300
  H    -54.246700  -42.866600  -74.576400
  H    -52.793100  -41.993900  -74.079800
  C    -53.228900  -43.722700  -72.862300
  H    -53.796100  -44.668600  -72.972000
  H    -52.197700  -44.001300  -72.589300
  C    -53.832300  -42.785000  -71.694000
  H    -54.949500  -42.702600  -71.860800
  H    -53.573400  -43.180900  -70.757400
  H    -53.458300  -41.770400  -71.746500
  S    -50.939700  -44.939400  -79.997000
  C    -50.092700  -43.886300  -81.166800
  C    -49.986700  -42.560000  -80.733800
  C    -50.485600  -42.445400  -79.370800
  C    -51.087100  -43.575500  -78.836100
  H    -49.434900  -41.827600  -81.345100
  C    -50.317100  -41.108400  -78.625100
  H    -51.278700  -40.910600  -78.153800
  H    -50.271400  -40.355700  -79.318500
  C    -49.239000  -41.067000  -77.558200
  H    -49.465900  -41.715800  -76.754000
  H    -49.260500  -40.119300  -77.223900
  C    -47.831800  -41.356500  -78.181000
  H    -46.996100  -41.317200  -77.472600
  H    -47.637100  -40.726700  -79.074400
  H    -47.798200  -42.423200  -78.495700
  H    -52.702900  -45.737400  -74.648400
  H    -49.593400  -44.239000  -82.085800

 Total Charge           Charge          ....    0
 Multiplicity           Mult            ....    1
 Number of Electrons    NEL             ....  134
 Basis Dimension        Dim             ....  322

ORBITAL ENERGIES
----------------

  NO   OCC          E(Eh)            E(eV)
   0   2.0000     -88.965958     -2420.8868
   1   2.0000     -88.963506     -2420.8201
   2   2.0000     -10.331154      -281.1250
   3   2.0000     -10.330810      -281.1156
   4   2.0000     -10.325960      -280.9837
   5   2.0000     -10.309333      -280.5312
   6   2.0000     -10.308963      -280.5212
   7   2.0000     -10.303296      -280.3669
   8   2.0000     -10.302296      -280.3397
   9   2.0000     -10.298837      -280.2456
  10   2.0000     -10.296263      -280.1756
  11   2.0000     -10.288670      -279.9689
  12   2.0000     -10.287580      -279.9393
  13   2.0000     -10.283793      -279.8362
  14   2.0000     -10.279151      -279.7099
  15   2.0000     -10.275031      -279.5978
  16   2.0000      -8.079452      -219.8531
  17   2.0000      -8.078304      -219.8218
  18   2.0000      -6.038184      -164.3073
  19   2.0000      -6.036957      -164.2740
  20   2.0000      -6.034192      -164.1987
  21   2.0000      -6.032752      -164.1595
  22   2.0000      -6.029995      -164.0845
  23   2.0000      -6.028950      -164.0561
  24   2.0000      -1.005987       -27.3743
  25   2.0000      -0.978191       -26.6179
  26   2.0000      -0.910643       -24.7799
  27   2.0000      -0.907335       -24.6898
  28   2.0000      -0.871136       -23.7048
  29   2.0000      -0.850320       -23.1384
  30   2.0000      -0.838362       -22.8130
  31   2.0000      -0.815148       -22.1813
  32   2.0000      -0.782375       -21.2895
  33   2.0000      -0.770259       -20.9598
  34   2.0000      -0.717429       -19.5222
  35   2.0000      -0.709244       -19.2995
  36   2.0000      -0.692507       -18.8441
  37   2.0000      -0.666585       -18.1387
  38   2.0000      -0.639627       -17.4051
  39   2.0000      -0.616852       -16.7854
  40   2.0000      -0.590630       -16.0718
  41   2.0000      -0.573067       -15.5940
  42   2.0000      -0.563293       -15.3280
  43   2.0000      -0.555236       -15.1087
  44   2.0000      -0.543404       -14.7868
  45   2.0000      -0.527550       -14.3554
  46   2.0000      -0.520577       -14.1656
  47   2.0000      -0.514324       -13.9955
  48   2.0000      -0.506597       -13.7852
  49   2.0000      -0.493762       -13.4359
  50   2.0000      -0.486936       -13.2502
  51   2.0000      -0.481539       -13.1034
  52   2.0000      -0.470149       -12.7934
  53   2.0000      -0.463460       -12.6114
  54   2.0000      -0.459039       -12.4911
  55   2.0000      -0.448213       -12.1965
  56   2.0000      -0.445542       -12.1238
  57   2.0000      -0.439945       -11.9715
  58   2.0000      -0.437180       -11.8963
  59   2.0000      -0.429002       -11.6737
  60   2.0000      -0.421402       -11.4669
  61   2.0000      -0.414007       -11.2657
  62   2.0000      -0.407421       -11.0865
  63   2.0000      -0.363517        -9.8918
  64   2.0000      -0.333720        -9.0810
  65   2.0000      -0.323117        -8.7925
  66   2.0000      -0.280036        -7.6202
  67   0.0000       0.016816         0.4576
  68   0.0000       0.082002         2.2314
  69   0.0000       0.094303         2.5661
  70   0.0000       0.120094         3.2679
  71   0.0000       0.137276         3.7355

MULLIKEN ATOMIC CHARGES
-----------------------
   0 S :    0.099849
   1 C :   -0.101229
   2 C :   -0.103819
   3 C :    0.010676
   4 C :   -0.086335
   5 H :   -0.021665
   6 C :    0.036522
   7 H :    0.045430
   8 H :    0.030278
   9 C :   -0.120308
  10 H :    0.042426
  11 H :    0.039088
  12 C :   -0.035238
  13 H :    0.044330
  14 H :    0.032635
  15 H :    0.029780
  16 S :    0.082326
  17 C :   -0.101677
  18 C :   -0.031617
  19 C :   -0.101267
  20 C :   -0.105051
  21 H :    0.036793
  22 C :    0.085153
  23 H :    0.010514
  24 H :   -0.011563
  25 C :    0.031852
  26 H :    0.028760
  27 H :    0.001370
  28 C :   -0.092065
  29 H :    0.034385
  30 H :    0.032611
  31 H :    0.046090
  32 H :    0.041130
  33 H :    0.069836
Sum of atomic charges:   -0.0000000

LOEWDIN ATOMIC CHARGES
----------------------
   0 S :    0.401947
   1 C :   -0.213873
   2 C :   -0.060088
   3 C :   -0.064645
   4 C :   -0.176139
   5 H :    0.019049
   6 C :   -0.042447
   7 H :    0.042221
   8 H :    0.029900
   9 C :   -0.042551
  10 H :    0.025136
  11 H :    0.024042
  12 C :   -0.057827
  13 H :    0.034241
  14 H :    0.019139
  15 H :    0.023713
  16 S :    0.366795
  17 C :   -0.171435
  18 C :   -0.074337
  19 C :   -0.048030
  20 C :   -0.181560
  21 H :    0.039709
  22 C :   -0.021677
  23 H :    0.028261
  24 H :    0.015429
  25 C :   -0.019586
  26 H :    0.023571
  27 H :    0.010097
  28 C :   -0.070613
  29 H :    0.024528
  30 H :    0.025034
  31 H :    0.031576
  32 H :    0.025087
  33 H :    0.035330

  Mayer bond orders larger than 0.100000
B(  0-S ,  1-C ) :   1.1353 B(  0-S ,  4-C ) :   1.1305 B(  1-C ,  2-C ) :   1.6018
B(  1-C , 32-H ) :   0.9645 B(  2-C ,  3-C ) :   1.2608 B(  2-C ,  6-C ) :   1.0066
B(  3-C ,  4-C ) :   1.5555 B(  3-C ,  5-H ) :   1.0076 B(  4-C , 20-C ) :   1.1149
B(  6-C ,  7-H ) :   0.9319 B(  6-C ,  8-H ) :   0.9479 B(  6-C ,  9-C ) :   1.0700
B(  9-C , 10-H ) :   0.9473 B(  9-C , 11-H ) :   0.9623 B(  9-C , 12-C ) :   1.0710
B( 12-C , 13-H ) :   0.9778 B( 12-C , 14-H ) :   0.9773 B( 12-C , 15-H ) :   0.9776
B( 16-S , 17-C ) :   1.1477 B( 16-S , 20-C ) :   1.0958 B( 17-C , 18-C ) :   1.6284
B( 17-C , 33-H ) :   0.9611 B( 18-C , 19-C ) :   1.2170 B( 18-C , 21-H ) :   0.9841
B( 19-C , 20-C ) :   1.6153 B( 19-C , 22-C ) :   1.0283 B( 22-C , 23-H ) :   0.9334
B( 22-C , 24-H ) :   0.9272 B( 22-C , 25-C ) :   1.0783 B( 25-C , 26-H ) :   0.9529
B( 25-C , 27-H ) :   0.9491 B( 25-C , 28-C ) :   1.0719 B( 28-C , 29-H ) :   0.9759
B( 28-C , 30-H ) :   0.9768 B( 28-C , 31-H ) :   0.9740

Dispersion correction           -0.014426688
FINAL SINGLE POINT ENERGY     -1339.870525382462

DIPOLE MOMENT
-------------
                                X             Y             Z
Electronic contribution:     -1.78365     -18.49823     -20.42228
Nuclear contribution   :      1.89286      19.22059      20.81571
                        -----------------------------------------
Total Dipole Moment    :      0.10921       0.72237       0.39343
                        -----------------------------------------
Magnitude (a.u.)       :      0.82978
Magnitude (Debye)      :      2.10912

Rotational constants in cm-1:     0.022694     0.007706     0.006190
Rotational constants in MHz :   680.363636   231.009294   185.573155

                             ****ORCA TERMINATED NORMALLY****
TOTAL RUN TIME: 0 days 0 hours 0 minutes 20 seconds 547 msec
