                         Program Version 4.2.1 -  RELEASE  -
|  1> ! wB97X-D3 SP def2-SVP
|  2> %pal
|  3> nprocs 24
|  4> end
|  5>
|  6> * xyz 0 1
|  7> S 	 -122.42 	 36.4336 	 -113.868
|  8> C 	 -120.777 	 35.9835 	 -114.305
|  9> C 	 -120.37 	 34.9189 	 -113.523
| 10> C 	 -121.43 	 34.2732 	 -112.773
| 11> C 	 -122.674 	 34.8949 	 -113.003
| 12> H 	 -121.356 	 33.3852 	 -112.162
| 13> C 	 -119.026 	 34.2578 	 -113.642
| 14> H 	 -118.649 	 34.0415 	 -112.646
| 15> H 	 -118.198 	 34.9463 	 -114.035
| 16> C 	 -119.034 	 32.9181 	 -114.427
| 17> H 	 -119.22 	 33.2018 	 -115.434
| 18> H 	 -118.016 	 32.5143 	 -114.613
| 19> C 	 -120.056 	 31.8021 	 -114.03
| 20> H 	 -119.913 	 30.9923 	 -114.717
| 21> H 	 -119.917 	 31.3145 	 -113.032
| 22> H 	 -121.177 	 32.1103 	 -114.016
| 23> S 	 -125.004 	 35.327 	 -111.457
| 24> C 	 -126.379 	 34.259 	 -111.581
| 25> C 	 -126.1 	 33.2156 	 -112.4
| 26> C 	 -124.761 	 33.2479 	 -112.936
| 27> C 	 -124.036 	 34.4322 	 -112.61
| 28> H 	 -126.827 	 32.4167 	 -112.566
| 29> C 	 -124.18 	 32.1815 	 -113.771
| 30> H 	 -124.9 	 31.3657 	 -113.699
| 31> H 	 -123.294 	 31.7214 	 -113.336
| 32> C 	 -124.06 	 32.5628 	 -115.27
| 33> H 	 -123.564 	 31.6918 	 -115.661
| 34> H 	 -123.372 	 33.3754 	 -115.361
| 35> C 	 -125.357 	 33.0373 	 -115.984
| 36> H 	 -126.112 	 33.3754 	 -115.221
| 37> H 	 -125.622 	 32.1371 	 -116.593
| 38> H 	 -125.305 	 33.6971 	 -116.722
| 39> H 	 -120.083 	 36.5566 	 -114.897
| 40> H 	 -127.352 	 34.3193 	 -111.055
| 41> *
| 42>
| 43>                          ****END OF INPUT****

CARTESIAN COORDINATES (ANGSTROEM)
---------------------------------
  S    -122.420000   36.433600  -113.868000
  C    -120.777000   35.983500  -114.305000
  C    -120.370000   34.918900  -113.523000
  C    -121.430000   34.273200  -112.773000
  C    -122.674000   34.894900  -113.003000
  H    -121.356000   33.385200  -112.162000
  C    -119.026000   34.257800  -113.642000
  H    -118.649000   34.041500  -112.646000
  H    -118.198000   34.946300  -114.035000
  C    -119.034000   32.918100  -114.427000
  H    -119.220000   33.201800  -115.434000
  H    -118.016000   32.514300  -114.613000
  C    -120.056000   31.802100  -114.030000
  H    -119.913000   30.992300  -114.717000
  H    -119.917000   31.314500  -113.032000
  H    -121.177000   32.110300  -114.016000
  S    -125.004000   35.327000  -111.457000
  C    -126.379000   34.259000  -111.581000
  C    -126.100000   33.215600  -112.400000
  C    -124.761000   33.247900  -112.936000
  C    -124.036000   34.432200  -112.610000
  H    -126.827000   32.416700  -112.566000
  C    -124.180000   32.181500  -113.771000
  H    -124.900000   31.365700  -113.699000
  H    -123.294000   31.721400  -113.336000
  C    -124.060000   32.562800  -115.270000
  H    -123.564000   31.691800  -115.661000
  H    -123.372000   33.375400  -115.361000
  C    -125.357000   33.037300  -115.984000
  H    -126.112000   33.375400  -115.221000
  H    -125.622000   32.137100  -116.593000
  H    -125.305000   33.697100  -116.722000
  H    -120.083000   36.556600  -114.897000
  H    -127.352000   34.319300  -111.055000

 Total Charge           Charge          ....    0
 Multiplicity           Mult            ....    1
 Number of Electrons    NEL             ....  134
 Basis Dimension        Dim             ....  322

ORBITAL ENERGIES
----------------

  NO   OCC          E(Eh)            E(eV)
   0   2.0000     -88.966465     -2420.9006
   1   2.0000     -88.965118     -2420.8639
   2   2.0000     -10.340712      -281.3851
   3   2.0000     -10.331805      -281.1427
   4   2.0000     -10.318545      -280.7819
   5   2.0000     -10.317585      -280.7558
   6   2.0000     -10.304937      -280.4116
   7   2.0000     -10.304353      -280.3957
   8   2.0000     -10.303332      -280.3679
   9   2.0000     -10.298154      -280.2270
  10   2.0000     -10.294293      -280.1220
  11   2.0000     -10.292085      -280.0619
  12   2.0000     -10.290152      -280.0093
  13   2.0000     -10.286660      -279.9143
  14   2.0000     -10.279256      -279.7128
  15   2.0000     -10.269665      -279.4518
  16   2.0000      -8.080495      -219.8814
  17   2.0000      -8.079738      -219.8608
  18   2.0000      -6.039110      -164.3325
  19   2.0000      -6.038322      -164.3111
  20   2.0000      -6.035163      -164.2251
  21   2.0000      -6.034038      -164.1945
  22   2.0000      -6.031092      -164.1143
  23   2.0000      -6.030636      -164.1020
  24   2.0000      -1.001211       -27.2443
  25   2.0000      -0.982762       -26.7423
  26   2.0000      -0.907869       -24.7044
  27   2.0000      -0.906004       -24.6536
  28   2.0000      -0.866558       -23.5803
  29   2.0000      -0.843067       -22.9410
  30   2.0000      -0.839096       -22.8330
  31   2.0000      -0.819110       -22.2891
  32   2.0000      -0.785471       -21.3738
  33   2.0000      -0.771656       -20.9978
  34   2.0000      -0.712189       -19.3797
  35   2.0000      -0.703904       -19.1542
  36   2.0000      -0.688614       -18.7381
  37   2.0000      -0.657124       -17.8813
  38   2.0000      -0.642708       -17.4890
  39   2.0000      -0.615250       -16.7418
  40   2.0000      -0.593288       -16.1442
  41   2.0000      -0.571661       -15.5557
  42   2.0000      -0.555826       -15.1248
  43   2.0000      -0.542575       -14.7642
  44   2.0000      -0.540504       -14.7079
  45   2.0000      -0.535328       -14.5670
  46   2.0000      -0.513511       -13.9733
  47   2.0000      -0.506036       -13.7699
  48   2.0000      -0.504025       -13.7152
  49   2.0000      -0.494895       -13.4668
  50   2.0000      -0.488800       -13.3009
  51   2.0000      -0.482371       -13.1260
  52   2.0000      -0.475268       -12.9327
  53   2.0000      -0.468718       -12.7545
  54   2.0000      -0.458105       -12.4657
  55   2.0000      -0.452541       -12.3143
  56   2.0000      -0.441115       -12.0034
  57   2.0000      -0.434063       -11.8115
  58   2.0000      -0.431449       -11.7403
  59   2.0000      -0.427581       -11.6351
  60   2.0000      -0.418416       -11.3857
  61   2.0000      -0.406083       -11.0501
  62   2.0000      -0.395014       -10.7489
  63   2.0000      -0.342493        -9.3197
  64   2.0000      -0.328448        -8.9375
  65   2.0000      -0.325404        -8.8547
  66   2.0000      -0.297977        -8.1084
  67   0.0000       0.029432         0.8009
  68   0.0000       0.056550         1.5388
  69   0.0000       0.109530         2.9805
  70   0.0000       0.119322         3.2469
  71   0.0000       0.133679         3.6376

MULLIKEN ATOMIC CHARGES
-----------------------
   0 S :    0.111101
   1 C :   -0.104075
   2 C :   -0.083597
   3 C :    0.054304
   4 C :   -0.172918
   5 H :    0.021849
   6 C :    0.033756
   7 H :    0.025227
   8 H :    0.032585
   9 C :   -0.042460
  10 H :    0.010118
  11 H :    0.027993
  12 C :   -0.097192
  13 H :    0.030910
  14 H :    0.034152
  15 H :    0.062319
  16 S :    0.109382
  17 C :   -0.095270
  18 C :   -0.033322
  19 C :   -0.071559
  20 C :   -0.155634
  21 H :    0.025944
  22 C :    0.069115
  23 H :   -0.000318
  24 H :    0.029532
  25 C :   -0.069776
  26 H :    0.024880
  27 H :    0.038285
  28 C :   -0.007594
  29 H :    0.053480
  30 H :    0.023412
  31 H :    0.000315
  32 H :    0.046563
  33 H :    0.068493
Sum of atomic charges:    0.0000000

LOEWDIN ATOMIC CHARGES
----------------------
   0 S :    0.388785
   1 C :   -0.189343
   2 C :   -0.064379
   3 C :   -0.048973
   4 C :   -0.182972
   5 H :    0.033548
   6 C :   -0.041854
   7 H :    0.027173
   8 H :    0.037980
   9 C :   -0.043407
  10 H :    0.020408
  11 H :    0.030512
  12 C :   -0.080056
  13 H :    0.024757
  14 H :    0.025109
  15 H :    0.038229
  16 S :    0.411185
  17 C :   -0.192890
  18 C :   -0.082031
  19 C :   -0.055457
  20 C :   -0.209026
  21 H :    0.035216
  22 C :   -0.037832
  23 H :    0.027104
  24 H :    0.030040
  25 C :   -0.031768
  26 H :    0.020487
  27 H :    0.019160
  28 C :   -0.060924
  29 H :    0.038204
  30 H :    0.035287
  31 H :    0.005323
  32 H :    0.029806
  33 H :    0.042599

  Mayer bond orders larger than 0.100000
B(  0-S ,  1-C ) :   1.1277 B(  0-S ,  4-C ) :   1.1421 B(  1-C ,  2-C ) :   1.6243
B(  1-C , 32-H ) :   0.9696 B(  2-C ,  3-C ) :   1.2029 B(  2-C ,  6-C ) :   1.0405
B(  3-C ,  4-C ) :   1.5749 B(  3-C ,  5-H ) :   0.9947 B(  4-C , 20-C ) :   1.0340
B(  6-C ,  7-H ) :   0.9378 B(  6-C ,  8-H ) :   0.9452 B(  6-C ,  9-C ) :   1.0595
B(  9-C , 10-H ) :   0.9489 B(  9-C , 11-H ) :   0.9536 B(  9-C , 12-C ) :   1.0761
B( 12-C , 13-H ) :   0.9678 B( 12-C , 14-H ) :   0.9728 B( 12-C , 15-H ) :   0.9576
B( 16-S , 17-C ) :   1.1612 B( 16-S , 20-C ) :   1.1510 B( 17-C , 18-C ) :   1.6022
B( 17-C , 33-H ) :   0.9594 B( 18-C , 19-C ) :   1.2637 B( 18-C , 21-H ) :   0.9831
B( 19-C , 20-C ) :   1.5538 B( 19-C , 22-C ) :   1.0551 B( 22-C , 23-H ) :   0.9220
B( 22-C , 24-H ) :   0.9306 B( 22-C , 25-C ) :   1.0581 B( 25-C , 26-H ) :   0.9638
B( 25-C , 27-H ) :   0.9618 B( 25-C , 28-C ) :   1.0504 B( 28-C , 29-H ) :   0.9752
B( 28-C , 30-H ) :   0.9736 B( 28-C , 31-H ) :   0.9758

Dispersion correction           -0.016826019
FINAL SINGLE POINT ENERGY     -1339.853498979038

DIPOLE MOMENT
-------------
                                X             Y             Z
Electronic contribution:     -9.45504      20.71709      13.53491
Nuclear contribution   :      9.75613     -21.36697     -13.75635
                        -----------------------------------------
Total Dipole Moment    :      0.30109      -0.64988      -0.22144
                        -----------------------------------------
Magnitude (a.u.)       :      0.74969
Magnitude (Debye)      :      1.90556

Rotational constants in cm-1:     0.019698     0.009954     0.008255
Rotational constants in MHz :   590.519505   298.412190   247.476050

                             ****ORCA TERMINATED NORMALLY****
TOTAL RUN TIME: 0 days 0 hours 0 minutes 23 seconds 626 msec
