                         Program Version 4.2.1 -  RELEASE  -
|  1> ! wB97X-D3 SP def2-SVP
|  2> %pal
|  3> nprocs 24
|  4> end
|  5>
|  6> * xyz 0 1
|  7> S 	 -83.636 	 -28.4074 	 -55.6614
|  8> C 	 -81.8867 	 -28.3728 	 -55.9322
|  9> C 	 -81.2214 	 -28.6854 	 -54.7657
| 10> C 	 -82.0669 	 -28.6759 	 -53.6095
| 11> C 	 -83.4199 	 -28.4796 	 -53.9368
| 12> H 	 -81.8522 	 -28.8182 	 -52.598
| 13> C 	 -79.787 	 -28.993 	 -54.6222
| 14> H 	 -79.6236 	 -29.6501 	 -55.4861
| 15> H 	 -79.7492 	 -29.5837 	 -53.7345
| 16> C 	 -78.7447 	 -27.7858 	 -54.4651
| 17> H 	 -77.7542 	 -28.1132 	 -54.7012
| 18> H 	 -78.9849 	 -26.9451 	 -55.0881
| 19> C 	 -78.8014 	 -27.1921 	 -53.0393
| 20> H 	 -78.4485 	 -26.1667 	 -53.0311
| 21> H 	 -79.8695 	 -27.0753 	 -52.7549
| 22> H 	 -78.4419 	 -27.8428 	 -52.1666
| 23> S 	 -85.0984 	 -26.6201 	 -52.8652
| 24> C 	 -85.9282 	 -26.9843 	 -51.463
| 25> C 	 -85.6796 	 -28.3091 	 -51.0627
| 26> C 	 -84.8471 	 -29.0372 	 -51.895
| 27> C 	 -84.4645 	 -28.242 	 -52.9794
| 28> H 	 -86.2376 	 -28.5321 	 -50.136
| 29> C 	 -84.4423 	 -30.4176 	 -51.4781
| 30> H 	 -84.1154 	 -30.3048 	 -50.3986
| 31> H 	 -83.5619 	 -30.7862 	 -52.0053
| 32> C 	 -85.5624 	 -31.4865 	 -51.589
| 33> H 	 -86.3874 	 -31.1007 	 -51.1373
| 34> H 	 -85.2699 	 -32.3093 	 -50.9348
| 35> C 	 -85.8469 	 -31.8939 	 -53.0249
| 36> H 	 -85.0826 	 -32.5374 	 -53.5521
| 37> H 	 -85.9954 	 -31.0035 	 -53.6606
| 38> H 	 -86.772 	 -32.4668 	 -53.0742
| 39> H 	 -81.3868 	 -28.5313 	 -56.8933
| 40> H 	 -86.7279 	 -26.3548 	 -51.0005
| 41> *
| 42>
| 43>                          ****END OF INPUT****

CARTESIAN COORDINATES (ANGSTROEM)
---------------------------------
  S    -83.636000  -28.407400  -55.661400
  C    -81.886700  -28.372800  -55.932200
  C    -81.221400  -28.685400  -54.765700
  C    -82.066900  -28.675900  -53.609500
  C    -83.419900  -28.479600  -53.936800
  H    -81.852200  -28.818200  -52.598000
  C    -79.787000  -28.993000  -54.622200
  H    -79.623600  -29.650100  -55.486100
  H    -79.749200  -29.583700  -53.734500
  C    -78.744700  -27.785800  -54.465100
  H    -77.754200  -28.113200  -54.701200
  H    -78.984900  -26.945100  -55.088100
  C    -78.801400  -27.192100  -53.039300
  H    -78.448500  -26.166700  -53.031100
  H    -79.869500  -27.075300  -52.754900
  H    -78.441900  -27.842800  -52.166600
  S    -85.098400  -26.620100  -52.865200
  C    -85.928200  -26.984300  -51.463000
  C    -85.679600  -28.309100  -51.062700
  C    -84.847100  -29.037200  -51.895000
  C    -84.464500  -28.242000  -52.979400
  H    -86.237600  -28.532100  -50.136000
  C    -84.442300  -30.417600  -51.478100
  H    -84.115400  -30.304800  -50.398600
  H    -83.561900  -30.786200  -52.005300
  C    -85.562400  -31.486500  -51.589000
  H    -86.387400  -31.100700  -51.137300
  H    -85.269900  -32.309300  -50.934800
  C    -85.846900  -31.893900  -53.024900
  H    -85.082600  -32.537400  -53.552100
  H    -85.995400  -31.003500  -53.660600
  H    -86.772000  -32.466800  -53.074200
  H    -81.386800  -28.531300  -56.893300
  H    -86.727900  -26.354800  -51.000500

 Total Charge           Charge          ....    0
 Multiplicity           Mult            ....    1
 Number of Electrons    NEL             ....  134
 Basis Dimension        Dim             ....  322

ORBITAL ENERGIES
----------------

  NO   OCC          E(Eh)            E(eV)
   0   2.0000     -88.967081     -2420.9174
   1   2.0000     -88.966369     -2420.8980
   2   2.0000     -10.325481      -280.9706
   3   2.0000     -10.322344      -280.8853
   4   2.0000     -10.313127      -280.6345
   5   2.0000     -10.311840      -280.5994
   6   2.0000     -10.301980      -280.3311
   7   2.0000     -10.297559      -280.2108
   8   2.0000     -10.294444      -280.1261
   9   2.0000     -10.290383      -280.0156
  10   2.0000     -10.289722      -279.9976
  11   2.0000     -10.289335      -279.9870
  12   2.0000     -10.289048      -279.9792
  13   2.0000     -10.282277      -279.7950
  14   2.0000     -10.279488      -279.7191
  15   2.0000     -10.277818      -279.6736
  16   2.0000      -8.083237      -219.9561
  17   2.0000      -8.080677      -219.8864
  18   2.0000      -6.041402      -164.3949
  19   2.0000      -6.039174      -164.3343
  20   2.0000      -6.037414      -164.2864
  21   2.0000      -6.035253      -164.2276
  22   2.0000      -6.034395      -164.2042
  23   2.0000      -6.031470      -164.1246
  24   2.0000      -1.012895       -27.5623
  25   2.0000      -0.986827       -26.8529
  26   2.0000      -0.913524       -24.8583
  27   2.0000      -0.908949       -24.7338
  28   2.0000      -0.867857       -23.6156
  29   2.0000      -0.855617       -23.2825
  30   2.0000      -0.846065       -23.0226
  31   2.0000      -0.808214       -21.9926
  32   2.0000      -0.783039       -21.3076
  33   2.0000      -0.769621       -20.9425
  34   2.0000      -0.709742       -19.3131
  35   2.0000      -0.707305       -19.2467
  36   2.0000      -0.695942       -18.9376
  37   2.0000      -0.655375       -17.8336
  38   2.0000      -0.639686       -17.4067
  39   2.0000      -0.615876       -16.7588
  40   2.0000      -0.596973       -16.2445
  41   2.0000      -0.571867       -15.5613
  42   2.0000      -0.551936       -15.0189
  43   2.0000      -0.544979       -14.8296
  44   2.0000      -0.536906       -14.6100
  45   2.0000      -0.531527       -14.4636
  46   2.0000      -0.520019       -14.1504
  47   2.0000      -0.516078       -14.0432
  48   2.0000      -0.504260       -13.7216
  49   2.0000      -0.493921       -13.4403
  50   2.0000      -0.484165       -13.1748
  51   2.0000      -0.476117       -12.9558
  52   2.0000      -0.465528       -12.6677
  53   2.0000      -0.465006       -12.6534
  54   2.0000      -0.463544       -12.6137
  55   2.0000      -0.442317       -12.0360
  56   2.0000      -0.439471       -11.9586
  57   2.0000      -0.434286       -11.8175
  58   2.0000      -0.432871       -11.7790
  59   2.0000      -0.427768       -11.6402
  60   2.0000      -0.424721       -11.5572
  61   2.0000      -0.419681       -11.4201
  62   2.0000      -0.418813       -11.3965
  63   2.0000      -0.337440        -9.1822
  64   2.0000      -0.333451        -9.0737
  65   2.0000      -0.325336        -8.8528
  66   2.0000      -0.295116        -8.0305
  67   0.0000       0.031802         0.8654
  68   0.0000       0.064164         1.7460
  69   0.0000       0.105414         2.8685
  70   0.0000       0.118073         3.2129
  71   0.0000       0.140539         3.8243

MULLIKEN ATOMIC CHARGES
-----------------------
   0 S :    0.112707
   1 C :   -0.113991
   2 C :   -0.118558
   3 C :    0.066942
   4 C :   -0.188890
   5 H :   -0.006942
   6 C :    0.060690
   7 H :    0.029817
   8 H :    0.015741
   9 C :   -0.005116
  10 H :    0.031595
  11 H :    0.028287
  12 C :   -0.105567
  13 H :    0.038500
  14 H :    0.026898
  15 H :    0.044432
  16 S :    0.144548
  17 C :   -0.125320
  18 C :   -0.082906
  19 C :    0.010590
  20 C :   -0.180289
  21 H :    0.026005
  22 C :    0.037303
  23 H :    0.039973
  24 H :    0.018672
  25 C :    0.002814
  26 H :   -0.002860
  27 H :    0.023589
  28 C :   -0.068238
  29 H :    0.040926
  30 H :    0.039673
  31 H :    0.031209
  32 H :    0.053404
  33 H :    0.074362
Sum of atomic charges:   -0.0000000

LOEWDIN ATOMIC CHARGES
----------------------
   0 S :    0.405039
   1 C :   -0.204679
   2 C :   -0.063412
   3 C :   -0.055111
   4 C :   -0.200068
   5 H :    0.020462
   6 C :   -0.032549
   7 H :    0.034216
   8 H :    0.027842
   9 C :   -0.026156
  10 H :    0.020383
  11 H :    0.025816
  12 C :   -0.080872
  13 H :    0.026714
  14 H :    0.027912
  15 H :    0.031429
  16 S :    0.457897
  17 C :   -0.226043
  18 C :   -0.081885
  19 C :   -0.058552
  20 C :   -0.214879
  21 H :    0.035104
  22 C :   -0.030564
  23 H :    0.040865
  24 H :    0.025403
  25 C :   -0.029921
  26 H :    0.009688
  27 H :    0.026903
  28 C :   -0.070414
  29 H :    0.031554
  30 H :    0.029987
  31 H :    0.025956
  32 H :    0.031947
  33 H :    0.039991

  Mayer bond orders larger than 0.100000
B(  0-S ,  1-C ) :   1.1279 B(  0-S ,  4-C ) :   1.1673 B(  1-C ,  2-C ) :   1.6109
B(  1-C , 32-H ) :   0.9614 B(  2-C ,  3-C ) :   1.2295 B(  2-C ,  6-C ) :   1.0211
B(  3-C ,  4-C ) :   1.5594 B(  3-C ,  5-H ) :   0.9976 B(  4-C , 20-C ) :   1.0299
B(  6-C ,  7-H ) :   0.9373 B(  6-C ,  8-H ) :   0.9442 B(  6-C ,  9-C ) :   1.0512
B(  9-C , 10-H ) :   0.9609 B(  9-C , 11-H ) :   0.9608 B(  9-C , 12-C ) :   1.0671
B( 12-C , 13-H ) :   0.9740 B( 12-C , 14-H ) :   0.9739 B( 12-C , 15-H ) :   0.9744
B( 16-S , 17-C ) :   1.1955 B( 16-S , 20-C ) :   1.1786 B( 17-C , 18-C ) :   1.5716
B( 17-C , 20-C ) :   0.1082 B( 17-C , 33-H ) :   0.9593 B( 18-C , 19-C ) :   1.2671
B( 18-C , 21-H ) :   0.9896 B( 19-C , 20-C ) :   1.5263 B( 19-C , 22-C ) :   1.0416
B( 22-C , 23-H ) :   0.9356 B( 22-C , 24-H ) :   0.9332 B( 22-C , 25-C ) :   1.0759
B( 25-C , 26-H ) :   0.9539 B( 25-C , 27-H ) :   0.9505 B( 25-C , 28-C ) :   1.0736
B( 28-C , 29-H ) :   0.9752 B( 28-C , 30-H ) :   0.9743 B( 28-C , 31-H ) :   0.9729

Dispersion correction           -0.014786418
FINAL SINGLE POINT ENERGY     -1339.867740797265

DIPOLE MOMENT
-------------
                                X             Y             Z
Electronic contribution:    -13.06010      12.66968      -8.03022
Nuclear contribution   :     13.27126     -12.98559       8.45407
                        -----------------------------------------
Total Dipole Moment    :      0.21116      -0.31591       0.42385
                        -----------------------------------------
Magnitude (a.u.)       :      0.56924
Magnitude (Debye)      :      1.44690

Rotational constants in cm-1:     0.019048     0.008307     0.007779
Rotational constants in MHz :   571.051881   249.025890   233.212434

                             ****ORCA TERMINATED NORMALLY****
TOTAL RUN TIME: 0 days 0 hours 0 minutes 20 seconds 840 msec
