                         Program Version 4.2.1 -  RELEASE  -
|  1> ! wB97X-D3 SP def2-SVP
|  2> %pal
|  3> nprocs 24
|  4> end
|  5>
|  6> * xyz 0 1
|  7> S 	 46.4724 	 -15.1815 	 -108.997
|  8> C 	 46.8892 	 -15.5746 	 -110.652
|  9> C 	 47.3163 	 -14.4445 	 -111.293
| 10> C 	 47.423 	 -13.3237 	 -110.391
| 11> C 	 46.9476 	 -13.5703 	 -109.119
| 12> H 	 47.7259 	 -12.4336 	 -110.819
| 13> C 	 47.7829 	 -14.3958 	 -112.74
| 14> H 	 48.6962 	 -15.0076 	 -112.757
| 15> H 	 48.323 	 -13.411 	 -112.857
| 16> C 	 46.6545 	 -14.6335 	 -113.843
| 17> H 	 46.1553 	 -15.6023 	 -113.679
| 18> H 	 45.8738 	 -13.8687 	 -113.819
| 19> C 	 47.2419 	 -14.6829 	 -115.266
| 20> H 	 48.1791 	 -15.2832 	 -115.387
| 21> H 	 46.5488 	 -14.9933 	 -116.076
| 22> H 	 47.4583 	 -13.6737 	 -115.62
| 23> S 	 45.2692 	 -12.5511 	 -107.212
| 24> C 	 45.8595 	 -11.2537 	 -106.182
| 25> C 	 47.181 	 -10.9468 	 -106.468
| 26> C 	 47.7826 	 -11.7214 	 -107.558
| 27> C 	 46.8434 	 -12.6575 	 -108.044
| 28> H 	 47.7363 	 -10.1951 	 -105.906
| 29> C 	 49.1249 	 -11.4185 	 -108.12
| 30> H 	 49.5369 	 -12.3225 	 -108.649
| 31> H 	 49.7886 	 -11.2817 	 -107.338
| 32> C 	 49.2164 	 -10.2887 	 -109.115
| 33> H 	 48.8064 	 -10.6199 	 -110.031
| 34> H 	 50.3131 	 -10.1614 	 -109.265
| 35> C 	 48.6167 	 -8.88623 	 -108.636
| 36> H 	 47.5319 	 -8.96304 	 -108.537
| 37> H 	 48.8416 	 -8.09175 	 -109.323
| 38> H 	 48.9724 	 -8.48881 	 -107.73
| 39> H 	 46.8049 	 -16.5575 	 -111.125
| 40> H 	 45.3053 	 -10.7986 	 -105.41
| 41> *
| 42>
| 43>                          ****END OF INPUT****

CARTESIAN COORDINATES (ANGSTROEM)
---------------------------------
  S     46.472400  -15.181500  -108.997000
  C     46.889200  -15.574600  -110.652000
  C     47.316300  -14.444500  -111.293000
  C     47.423000  -13.323700  -110.391000
  C     46.947600  -13.570300  -109.119000
  H     47.725900  -12.433600  -110.819000
  C     47.782900  -14.395800  -112.740000
  H     48.696200  -15.007600  -112.757000
  H     48.323000  -13.411000  -112.857000
  C     46.654500  -14.633500  -113.843000
  H     46.155300  -15.602300  -113.679000
  H     45.873800  -13.868700  -113.819000
  C     47.241900  -14.682900  -115.266000
  H     48.179100  -15.283200  -115.387000
  H     46.548800  -14.993300  -116.076000
  H     47.458300  -13.673700  -115.620000
  S     45.269200  -12.551100  -107.212000
  C     45.859500  -11.253700  -106.182000
  C     47.181000  -10.946800  -106.468000
  C     47.782600  -11.721400  -107.558000
  C     46.843400  -12.657500  -108.044000
  H     47.736300  -10.195100  -105.906000
  C     49.124900  -11.418500  -108.120000
  H     49.536900  -12.322500  -108.649000
  H     49.788600  -11.281700  -107.338000
  C     49.216400  -10.288700  -109.115000
  H     48.806400  -10.619900  -110.031000
  H     50.313100  -10.161400  -109.265000
  C     48.616700   -8.886230  -108.636000
  H     47.531900   -8.963040  -108.537000
  H     48.841600   -8.091750  -109.323000
  H     48.972400   -8.488810  -107.730000
  H     46.804900  -16.557500  -111.125000
  H     45.305300  -10.798600  -105.410000

 Total Charge           Charge          ....    0
 Multiplicity           Mult            ....    1
 Number of Electrons    NEL             ....  134
 Basis Dimension        Dim             ....  322

ORBITAL ENERGIES
----------------

  NO   OCC          E(Eh)            E(eV)
   0   2.0000     -88.965798     -2420.8824
   1   2.0000     -88.964026     -2420.8342
   2   2.0000     -10.327785      -281.0333
   3   2.0000     -10.322276      -280.8834
   4   2.0000     -10.316705      -280.7318
   5   2.0000     -10.310976      -280.5759
   6   2.0000     -10.306323      -280.4493
   7   2.0000     -10.302547      -280.3465
   8   2.0000     -10.300018      -280.2777
   9   2.0000     -10.298002      -280.2229
  10   2.0000     -10.297006      -280.1958
  11   2.0000     -10.290813      -280.0273
  12   2.0000     -10.286665      -279.9144
  13   2.0000     -10.285800      -279.8908
  14   2.0000     -10.283805      -279.8366
  15   2.0000     -10.274840      -279.5926
  16   2.0000      -8.080042      -219.8691
  17   2.0000      -8.079913      -219.8656
  18   2.0000      -6.038544      -164.3171
  19   2.0000      -6.038514      -164.3163
  20   2.0000      -6.034535      -164.2081
  21   2.0000      -6.034191      -164.1987
  22   2.0000      -6.030896      -164.1090
  23   2.0000      -6.030572      -164.1002
  24   2.0000      -1.011705       -27.5299
  25   2.0000      -0.979520       -26.6541
  26   2.0000      -0.911573       -24.8051
  27   2.0000      -0.905452       -24.6386
  28   2.0000      -0.870762       -23.6946
  29   2.0000      -0.849424       -23.1140
  30   2.0000      -0.839640       -22.8478
  31   2.0000      -0.812563       -22.1110
  32   2.0000      -0.788688       -21.4613
  33   2.0000      -0.773239       -21.0409
  34   2.0000      -0.714821       -19.4513
  35   2.0000      -0.707548       -19.2534
  36   2.0000      -0.695313       -18.9204
  37   2.0000      -0.663758       -18.0618
  38   2.0000      -0.637977       -17.3602
  39   2.0000      -0.622000       -16.9255
  40   2.0000      -0.595865       -16.2143
  41   2.0000      -0.564552       -15.3622
  42   2.0000      -0.557033       -15.1576
  43   2.0000      -0.551653       -15.0112
  44   2.0000      -0.541444       -14.7334
  45   2.0000      -0.525392       -14.2966
  46   2.0000      -0.520228       -14.1561
  47   2.0000      -0.509996       -13.8777
  48   2.0000      -0.507202       -13.8017
  49   2.0000      -0.496076       -13.4989
  50   2.0000      -0.493387       -13.4257
  51   2.0000      -0.483652       -13.1608
  52   2.0000      -0.470437       -12.8013
  53   2.0000      -0.462862       -12.5951
  54   2.0000      -0.455589       -12.3972
  55   2.0000      -0.445944       -12.1348
  56   2.0000      -0.443292       -12.0626
  57   2.0000      -0.441401       -12.0111
  58   2.0000      -0.440797       -11.9947
  59   2.0000      -0.422683       -11.5018
  60   2.0000      -0.419676       -11.4200
  61   2.0000      -0.417094       -11.3497
  62   2.0000      -0.412123       -11.2144
  63   2.0000      -0.349065        -9.4985
  64   2.0000      -0.330970        -9.0062
  65   2.0000      -0.327287        -8.9059
  66   2.0000      -0.289878        -7.8880
  67   0.0000       0.030200         0.8218
  68   0.0000       0.073710         2.0058
  69   0.0000       0.114394         3.1128
  70   0.0000       0.121838         3.3154
  71   0.0000       0.128026         3.4838

MULLIKEN ATOMIC CHARGES
-----------------------
   0 S :    0.117633
   1 C :   -0.131613
   2 C :   -0.106704
   3 C :    0.050659
   4 C :   -0.118195
   5 H :   -0.040064
   6 C :    0.032256
   7 H :    0.041019
   8 H :    0.013635
   9 C :   -0.041832
  10 H :    0.037765
  11 H :    0.041713
  12 C :   -0.080928
  13 H :    0.040597
  14 H :    0.036972
  15 H :    0.023491
  16 S :    0.103763
  17 C :   -0.070269
  18 C :   -0.037822
  19 C :   -0.042002
  20 C :   -0.155731
  21 H :    0.020172
  22 C :    0.087204
  23 H :    0.033606
  24 H :    0.003054
  25 C :   -0.045891
  26 H :    0.017169
  27 H :    0.033105
  28 C :   -0.049438
  29 H :    0.049393
  30 H :    0.027428
  31 H :    0.012863
  32 H :    0.052785
  33 H :    0.044204
Sum of atomic charges:   -0.0000000

LOEWDIN ATOMIC CHARGES
----------------------
   0 S :    0.437752
   1 C :   -0.202240
   2 C :   -0.066628
   3 C :   -0.061141
   4 C :   -0.217562
   5 H :    0.012418
   6 C :   -0.041253
   7 H :    0.037425
   8 H :    0.032435
   9 C :   -0.033398
  10 H :    0.026153
  11 H :    0.030772
  12 C :   -0.080136
  13 H :    0.029006
  14 H :    0.029863
  15 H :    0.022473
  16 S :    0.387621
  17 C :   -0.178902
  18 C :   -0.065491
  19 C :   -0.047819
  20 C :   -0.186741
  21 H :    0.030221
  22 C :   -0.037050
  23 H :    0.042271
  24 H :    0.020933
  25 C :   -0.025486
  26 H :    0.014156
  27 H :    0.030711
  28 C :   -0.066746
  29 H :    0.029731
  30 H :    0.025366
  31 H :    0.016031
  32 H :    0.033050
  33 H :    0.022206

  Mayer bond orders larger than 0.100000
B(  0-S ,  1-C ) :   1.1374 B(  0-S ,  4-C ) :   1.1780 B(  1-C ,  2-C ) :   1.5971
B(  1-C , 32-H ) :   0.9710 B(  2-C ,  3-C ) :   1.2875 B(  2-C ,  6-C ) :   1.0119
B(  3-C ,  4-C ) :   1.4987 B(  3-C ,  5-H ) :   1.0113 B(  4-C , 20-C ) :   1.0645
B(  6-C ,  7-H ) :   0.9444 B(  6-C ,  8-H ) :   0.9429 B(  6-C ,  9-C ) :   1.0348
B(  9-C , 10-H ) :   0.9634 B(  9-C , 11-H ) :   0.9589 B(  9-C , 12-C ) :   1.0747
B( 12-C , 13-H ) :   0.9766 B( 12-C , 14-H ) :   0.9743 B( 12-C , 15-H ) :   0.9757
B( 16-S , 17-C ) :   1.1341 B( 16-S , 20-C ) :   1.1334 B( 17-C , 18-C ) :   1.6217
B( 17-C , 33-H ) :   0.9746 B( 18-C , 19-C ) :   1.2174 B( 18-C , 21-H ) :   0.9841
B( 19-C , 20-C ) :   1.5849 B( 19-C , 22-C ) :   1.0656 B( 22-C , 23-H ) :   0.9217
B( 22-C , 24-H ) :   0.9206 B( 22-C , 25-C ) :   1.0795 B( 25-C , 26-H ) :   0.9553
B( 25-C , 27-H ) :   0.9516 B( 25-C , 28-C ) :   1.0727 B( 28-C , 29-H ) :   0.9723
B( 28-C , 30-H ) :   0.9742 B( 28-C , 31-H ) :   0.9757

Dispersion correction           -0.014519157
FINAL SINGLE POINT ENERGY     -1339.878771974123

DIPOLE MOMENT
-------------
                                X             Y             Z
Electronic contribution:    -13.38084     -10.69823      22.39147
Nuclear contribution   :     13.82515      11.05105     -22.82627
                        -----------------------------------------
Total Dipole Moment    :      0.44432       0.35283      -0.43480
                        -----------------------------------------
Magnitude (a.u.)       :      0.71481
Magnitude (Debye)      :      1.81691

Rotational constants in cm-1:     0.020593     0.007928     0.006325
Rotational constants in MHz :   617.357999   237.664737   189.610903

                             ****ORCA TERMINATED NORMALLY****
TOTAL RUN TIME: 0 days 0 hours 0 minutes 21 seconds 431 msec
