                         Program Version 4.2.1 -  RELEASE  -
|  1> ! wB97X-D3 SP def2-SVP
|  2> %pal
|  3> nprocs 24
|  4> end
|  5>
|  6> * xyz 0 1
|  7> S 	 -77.1115 	 -17.7064 	 -58.4408
|  8> C 	 -77.1963 	 -16.8866 	 -56.9209
|  9> C 	 -78.4652 	 -16.4156 	 -56.6896
| 10> C 	 -79.4126 	 -16.7704 	 -57.7509
| 11> C 	 -78.8126 	 -17.4126 	 -58.8076
| 12> H 	 -80.4548 	 -16.4083 	 -57.8482
| 13> C 	 -78.825 	 -15.7869 	 -55.3891
| 14> H 	 -77.9147 	 -16.1142 	 -54.7418
| 15> H 	 -79.7664 	 -16.2357 	 -55.0662
| 16> C 	 -79.1244 	 -14.275 	 -55.4182
| 17> H 	 -78.3104 	 -13.6994 	 -55.8511
| 18> H 	 -80.0307 	 -14.0545 	 -55.9908
| 19> C 	 -79.3034 	 -13.7201 	 -54.0433
| 20> H 	 -80.2021 	 -14.2444 	 -53.6029
| 21> H 	 -78.5062 	 -13.9669 	 -53.3016
| 22> H 	 -79.4666 	 -12.6415 	 -53.9622
| 23> S 	 -79.3401 	 -16.5082 	 -61.4713
| 24> C 	 -80.016 	 -17.6576 	 -62.6056
| 25> C 	 -80.1749 	 -18.9158 	 -62.0612
| 26> C 	 -79.885 	 -18.8804 	 -60.6274
| 27> C 	 -79.3758 	 -17.6825 	 -60.1613
| 28> H 	 -80.5797 	 -19.7671 	 -62.5671
| 29> C 	 -80.1203 	 -20.048 	 -59.7306
| 30> H 	 -79.693 	 -19.7418 	 -58.8179
| 31> H 	 -79.4647 	 -20.9006 	 -60.0213
| 32> C 	 -81.455 	 -20.5536 	 -59.5276
| 33> H 	 -81.3965 	 -21.4616 	 -58.8805
| 34> H 	 -81.897 	 -20.9294 	 -60.445
| 35> C 	 -82.5039 	 -19.5451 	 -58.9502
| 36> H 	 -83.5582 	 -19.9706 	 -59.0774
| 37> H 	 -82.3997 	 -18.5218 	 -59.2674
| 38> H 	 -82.313 	 -19.3936 	 -57.8415
| 39> H 	 -76.4445 	 -16.9364 	 -56.1435
| 40> H 	 -80.1471 	 -17.5269 	 -63.6804
| 41> *
| 42>
| 43>                          ****END OF INPUT****

CARTESIAN COORDINATES (ANGSTROEM)
---------------------------------
  S    -77.111500  -17.706400  -58.440800
  C    -77.196300  -16.886600  -56.920900
  C    -78.465200  -16.415600  -56.689600
  C    -79.412600  -16.770400  -57.750900
  C    -78.812600  -17.412600  -58.807600
  H    -80.454800  -16.408300  -57.848200
  C    -78.825000  -15.786900  -55.389100
  H    -77.914700  -16.114200  -54.741800
  H    -79.766400  -16.235700  -55.066200
  C    -79.124400  -14.275000  -55.418200
  H    -78.310400  -13.699400  -55.851100
  H    -80.030700  -14.054500  -55.990800
  C    -79.303400  -13.720100  -54.043300
  H    -80.202100  -14.244400  -53.602900
  H    -78.506200  -13.966900  -53.301600
  H    -79.466600  -12.641500  -53.962200
  S    -79.340100  -16.508200  -61.471300
  C    -80.016000  -17.657600  -62.605600
  C    -80.174900  -18.915800  -62.061200
  C    -79.885000  -18.880400  -60.627400
  C    -79.375800  -17.682500  -60.161300
  H    -80.579700  -19.767100  -62.567100
  C    -80.120300  -20.048000  -59.730600
  H    -79.693000  -19.741800  -58.817900
  H    -79.464700  -20.900600  -60.021300
  C    -81.455000  -20.553600  -59.527600
  H    -81.396500  -21.461600  -58.880500
  H    -81.897000  -20.929400  -60.445000
  C    -82.503900  -19.545100  -58.950200
  H    -83.558200  -19.970600  -59.077400
  H    -82.399700  -18.521800  -59.267400
  H    -82.313000  -19.393600  -57.841500
  H    -76.444500  -16.936400  -56.143500
  H    -80.147100  -17.526900  -63.680400

 Total Charge           Charge          ....    0
 Multiplicity           Mult            ....    1
 Number of Electrons    NEL             ....  134
 Basis Dimension        Dim             ....  322

ORBITAL ENERGIES
----------------

  NO   OCC          E(Eh)            E(eV)
   0   2.0000     -88.967799     -2420.9369
   1   2.0000     -88.964062     -2420.8352
   2   2.0000     -10.334551      -281.2174
   3   2.0000     -10.327571      -281.0275
   4   2.0000     -10.321569      -280.8642
   5   2.0000     -10.313731      -280.6509
   6   2.0000     -10.301979      -280.3311
   7   2.0000     -10.301507      -280.3183
   8   2.0000     -10.301472      -280.3173
   9   2.0000     -10.299555      -280.2651
  10   2.0000     -10.295466      -280.1539
  11   2.0000     -10.286456      -279.9087
  12   2.0000     -10.283475      -279.8276
  13   2.0000     -10.282263      -279.7946
  14   2.0000     -10.280979      -279.7597
  15   2.0000     -10.276551      -279.6392
  16   2.0000      -8.082154      -219.9266
  17   2.0000      -8.079056      -219.8423
  18   2.0000      -6.040840      -164.3796
  19   2.0000      -6.037621      -164.2920
  20   2.0000      -6.036636      -164.2652
  21   2.0000      -6.033442      -164.1783
  22   2.0000      -6.032825      -164.1615
  23   2.0000      -6.029794      -164.0790
  24   2.0000      -1.004590       -27.3363
  25   2.0000      -0.984857       -26.7993
  26   2.0000      -0.916764       -24.9464
  27   2.0000      -0.914870       -24.8949
  28   2.0000      -0.871474       -23.7140
  29   2.0000      -0.848721       -23.0949
  30   2.0000      -0.841432       -22.8965
  31   2.0000      -0.820998       -22.3405
  32   2.0000      -0.780486       -21.2381
  33   2.0000      -0.767517       -20.8852
  34   2.0000      -0.706160       -19.2156
  35   2.0000      -0.697171       -18.9710
  36   2.0000      -0.691983       -18.8298
  37   2.0000      -0.656580       -17.8665
  38   2.0000      -0.643266       -17.5042
  39   2.0000      -0.614584       -16.7237
  40   2.0000      -0.595477       -16.2037
  41   2.0000      -0.579399       -15.7662
  42   2.0000      -0.561171       -15.2702
  43   2.0000      -0.552051       -15.0221
  44   2.0000      -0.544156       -14.8072
  45   2.0000      -0.523491       -14.2449
  46   2.0000      -0.514477       -13.9996
  47   2.0000      -0.511279       -13.9126
  48   2.0000      -0.509672       -13.8689
  49   2.0000      -0.499739       -13.5986
  50   2.0000      -0.496373       -13.5070
  51   2.0000      -0.477115       -12.9829
  52   2.0000      -0.463865       -12.6224
  53   2.0000      -0.462625       -12.5887
  54   2.0000      -0.455887       -12.4053
  55   2.0000      -0.447466       -12.1762
  56   2.0000      -0.441046       -12.0015
  57   2.0000      -0.438903       -11.9431
  58   2.0000      -0.435533       -11.8515
  59   2.0000      -0.423847       -11.5335
  60   2.0000      -0.415260       -11.2998
  61   2.0000      -0.413640       -11.2557
  62   2.0000      -0.402240       -10.9455
  63   2.0000      -0.336596        -9.1592
  64   2.0000      -0.330929        -9.0050
  65   2.0000      -0.319104        -8.6833
  66   2.0000      -0.317858        -8.6494
  67   0.0000       0.046515         1.2657
  68   0.0000       0.051977         1.4144
  69   0.0000       0.111129         3.0240
  70   0.0000       0.118981         3.2376
  71   0.0000       0.128515         3.4971

MULLIKEN ATOMIC CHARGES
-----------------------
   0 S :    0.114158
   1 C :   -0.116749
   2 C :   -0.094951
   3 C :    0.046783
   4 C :   -0.194742
   5 H :    0.030664
   6 C :    0.025988
   7 H :    0.036233
   8 H :    0.028420
   9 C :   -0.046442
  10 H :    0.027800
  11 H :    0.034217
  12 C :   -0.069235
  13 H :    0.019273
  14 H :    0.030448
  15 H :    0.041691
  16 S :    0.120821
  17 C :   -0.091678
  18 C :   -0.010048
  19 C :   -0.077938
  20 C :   -0.156386
  21 H :    0.018540
  22 C :    0.110527
  23 H :    0.001256
  24 H :    0.031845
  25 C :   -0.051289
  26 H :    0.033857
  27 H :    0.015860
  28 C :   -0.093362
  29 H :    0.050774
  30 H :    0.039407
  31 H :    0.027040
  32 H :    0.053310
  33 H :    0.063908
Sum of atomic charges:    0.0000000

LOEWDIN ATOMIC CHARGES
----------------------
   0 S :    0.405472
   1 C :   -0.202808
   2 C :   -0.067917
   3 C :   -0.062120
   4 C :   -0.189223
   5 H :    0.038455
   6 C :   -0.035159
   7 H :    0.042501
   8 H :    0.032295
   9 C :   -0.044101
  10 H :    0.023436
  11 H :    0.028590
  12 C :   -0.074736
  13 H :    0.025549
  14 H :    0.026258
  15 H :    0.026408
  16 S :    0.403934
  17 C :   -0.180595
  18 C :   -0.067805
  19 C :   -0.045683
  20 C :   -0.213168
  21 H :    0.029750
  22 C :   -0.043068
  23 H :    0.023002
  24 H :    0.040949
  25 C :   -0.044021
  26 H :    0.033312
  27 H :    0.017794
  28 C :   -0.077263
  29 H :    0.035533
  30 H :    0.021816
  31 H :    0.027994
  32 H :    0.029804
  33 H :    0.034817

  Mayer bond orders larger than 0.100000
B(  0-S ,  1-C ) :   1.1343 B(  0-S ,  4-C ) :   1.1451 B(  1-C ,  2-C ) :   1.6324
B(  1-C , 32-H ) :   0.9624 B(  2-C ,  3-C ) :   1.2136 B(  2-C ,  6-C ) :   1.0325
B(  3-C ,  4-C ) :   1.6128 B(  3-C ,  5-H ) :   0.9839 B(  4-C , 20-C ) :   1.0052
B(  6-C ,  7-H ) :   0.9469 B(  6-C ,  8-H ) :   0.9339 B(  6-C ,  9-C ) :   1.0586
B(  9-C , 10-H ) :   0.9550 B(  9-C , 11-H ) :   0.9510 B(  9-C , 12-C ) :   1.0884
B( 12-C , 13-H ) :   0.9699 B( 12-C , 14-H ) :   0.9738 B( 12-C , 15-H ) :   0.9740
B( 16-S , 17-C ) :   1.1599 B( 16-S , 20-C ) :   1.1181 B( 17-C , 18-C ) :   1.6187
B( 17-C , 33-H ) :   0.9615 B( 18-C , 19-C ) :   1.2248 B( 18-C , 21-H ) :   0.9916
B( 19-C , 20-C ) :   1.6214 B( 19-C , 22-C ) :   1.0544 B( 22-C , 23-H ) :   0.9137
B( 22-C , 24-H ) :   0.9185 B( 22-C , 25-C ) :   1.0953 B( 25-C , 26-H ) :   0.9479
B( 25-C , 27-H ) :   0.9538 B( 25-C , 28-C ) :   1.0591 B( 28-C , 29-H ) :   0.9755
B( 28-C , 30-H ) :   0.9781 B( 28-C , 31-H ) :   0.9732

Dispersion correction           -0.014589967
FINAL SINGLE POINT ENERGY     -1339.880521967645

DIPOLE MOMENT
-------------
                                X             Y             Z
Electronic contribution:     13.97100      -0.23588     -19.67193
Nuclear contribution   :    -14.26560       0.08527      19.93717
                        -----------------------------------------
Total Dipole Moment    :     -0.29460      -0.15062       0.26524
                        -----------------------------------------
Magnitude (a.u.)       :      0.42406
Magnitude (Debye)      :      1.07789

Rotational constants in cm-1:     0.020818     0.007469     0.006881
Rotational constants in MHz :   624.096202   223.902500   206.297075

                             ****ORCA TERMINATED NORMALLY****
TOTAL RUN TIME: 0 days 0 hours 0 minutes 21 seconds 448 msec
