                         Program Version 4.2.1 -  RELEASE  -
|  1> ! wB97X-D3 SP def2-SVP
|  2> %pal
|  3> nprocs 24
|  4> end
|  5>
|  6> * xyz 0 1
|  7> S 	 -36.8135 	 -8.15037 	 19.8543
|  8> C 	 -36.6877 	 -9.74293 	 19.3168
|  9> C 	 -37.9313 	 -10.2536 	 18.9769
| 10> C 	 -38.9573 	 -9.33114 	 19.2086
| 11> C 	 -38.5549 	 -8.12704 	 19.7637
| 12> H 	 -40.0267 	 -9.38265 	 19.1489
| 13> C 	 -38.1727 	 -11.5916 	 18.3569
| 14> H 	 -37.4408 	 -11.6636 	 17.555
| 15> H 	 -39.2092 	 -11.6627 	 18.0474
| 16> C 	 -37.8459 	 -12.6705 	 19.3952
| 17> H 	 -36.8261 	 -12.5105 	 19.8191
| 18> H 	 -38.5008 	 -12.6503 	 20.214
| 19> C 	 -37.7748 	 -14.0848 	 18.7843
| 20> H 	 -37.441 	 -14.7531 	 19.5867
| 21> H 	 -38.8352 	 -14.4147 	 18.5165
| 22> H 	 -37.103 	 -14.1506 	 17.9987
| 23> S 	 -38.9709 	 -6.15299 	 21.6647
| 24> C 	 -40.3205 	 -5.07947 	 21.5232
| 25> C 	 -41.021 	 -5.27645 	 20.3301
| 26> C 	 -40.4867 	 -6.41116 	 19.5629
| 27> C 	 -39.369 	 -6.95603 	 20.1248
| 28> H 	 -41.8446 	 -4.65211 	 20.0601
| 29> C 	 -41.1232 	 -6.62526 	 18.1627
| 30> H 	 -42.2113 	 -6.43877 	 18.2078
| 31> H 	 -41.0758 	 -7.71467 	 17.9347
| 32> C 	 -40.5389 	 -5.84817 	 17.0139
| 33> H 	 -39.5028 	 -6.09722 	 16.9286
| 34> H 	 -40.658 	 -4.7444 	 17.2738
| 35> C 	 -41.1383 	 -6.0029 	 15.6235
| 36> H 	 -42.1843 	 -5.99059 	 15.7148
| 37> H 	 -40.8779 	 -6.93162 	 15.0925
| 38> H 	 -40.7608 	 -5.20697 	 14.9857
| 39> H 	 -35.7543 	 -10.3008 	 19.3028
| 40> H 	 -40.5911 	 -4.26262 	 22.1389
| 41> *
| 42>
| 43>                          ****END OF INPUT****

CARTESIAN COORDINATES (ANGSTROEM)
---------------------------------
  S    -36.813500   -8.150370   19.854300
  C    -36.687700   -9.742930   19.316800
  C    -37.931300  -10.253600   18.976900
  C    -38.957300   -9.331140   19.208600
  C    -38.554900   -8.127040   19.763700
  H    -40.026700   -9.382650   19.148900
  C    -38.172700  -11.591600   18.356900
  H    -37.440800  -11.663600   17.555000
  H    -39.209200  -11.662700   18.047400
  C    -37.845900  -12.670500   19.395200
  H    -36.826100  -12.510500   19.819100
  H    -38.500800  -12.650300   20.214000
  C    -37.774800  -14.084800   18.784300
  H    -37.441000  -14.753100   19.586700
  H    -38.835200  -14.414700   18.516500
  H    -37.103000  -14.150600   17.998700
  S    -38.970900   -6.152990   21.664700
  C    -40.320500   -5.079470   21.523200
  C    -41.021000   -5.276450   20.330100
  C    -40.486700   -6.411160   19.562900
  C    -39.369000   -6.956030   20.124800
  H    -41.844600   -4.652110   20.060100
  C    -41.123200   -6.625260   18.162700
  H    -42.211300   -6.438770   18.207800
  H    -41.075800   -7.714670   17.934700
  C    -40.538900   -5.848170   17.013900
  H    -39.502800   -6.097220   16.928600
  H    -40.658000   -4.744400   17.273800
  C    -41.138300   -6.002900   15.623500
  H    -42.184300   -5.990590   15.714800
  H    -40.877900   -6.931620   15.092500
  H    -40.760800   -5.206970   14.985700
  H    -35.754300  -10.300800   19.302800
  H    -40.591100   -4.262620   22.138900

 Total Charge           Charge          ....    0
 Multiplicity           Mult            ....    1
 Number of Electrons    NEL             ....  134
 Basis Dimension        Dim             ....  322

ORBITAL ENERGIES
----------------

  NO   OCC          E(Eh)            E(eV)
   0   2.0000     -88.966776     -2420.9091
   1   2.0000     -88.965024     -2420.8614
   2   2.0000     -10.332078      -281.1501
   3   2.0000     -10.326858      -281.0081
   4   2.0000     -10.316565      -280.7280
   5   2.0000     -10.309005      -280.5223
   6   2.0000     -10.308816      -280.5172
   7   2.0000     -10.296548      -280.1833
   8   2.0000     -10.296193      -280.1737
   9   2.0000     -10.296025      -280.1691
  10   2.0000     -10.288825      -279.9732
  11   2.0000     -10.288362      -279.9606
  12   2.0000     -10.284056      -279.8434
  13   2.0000     -10.282788      -279.8089
  14   2.0000     -10.277133      -279.6550
  15   2.0000     -10.274115      -279.5729
  16   2.0000      -8.081349      -219.9047
  17   2.0000      -8.080850      -219.8911
  18   2.0000      -6.039973      -164.3560
  19   2.0000      -6.039121      -164.3328
  20   2.0000      -6.035842      -164.2436
  21   2.0000      -6.035054      -164.2222
  22   2.0000      -6.032028      -164.1398
  23   2.0000      -6.031958      -164.1379
  24   2.0000      -1.010962       -27.5097
  25   2.0000      -0.986730       -26.8503
  26   2.0000      -0.915878       -24.9223
  27   2.0000      -0.908756       -24.7285
  28   2.0000      -0.869861       -23.6701
  29   2.0000      -0.854849       -23.2616
  30   2.0000      -0.847587       -23.0640
  31   2.0000      -0.816301       -22.2127
  32   2.0000      -0.784203       -21.3392
  33   2.0000      -0.772385       -21.0177
  34   2.0000      -0.703229       -19.1358
  35   2.0000      -0.700033       -19.0489
  36   2.0000      -0.688259       -18.7285
  37   2.0000      -0.667965       -18.1762
  38   2.0000      -0.648047       -17.6343
  39   2.0000      -0.618341       -16.8259
  40   2.0000      -0.592564       -16.1245
  41   2.0000      -0.575495       -15.6600
  42   2.0000      -0.568084       -15.4584
  43   2.0000      -0.561063       -15.2673
  44   2.0000      -0.529302       -14.4030
  45   2.0000      -0.525362       -14.2958
  46   2.0000      -0.518706       -14.1147
  47   2.0000      -0.511358       -13.9148
  48   2.0000      -0.507390       -13.8068
  49   2.0000      -0.503837       -13.7101
  50   2.0000      -0.497268       -13.5314
  51   2.0000      -0.484231       -13.1766
  52   2.0000      -0.478753       -13.0275
  53   2.0000      -0.467650       -12.7254
  54   2.0000      -0.462233       -12.5780
  55   2.0000      -0.445435       -12.1209
  56   2.0000      -0.443393       -12.0653
  57   2.0000      -0.436694       -11.8830
  58   2.0000      -0.428631       -11.6637
  59   2.0000      -0.424138       -11.5414
  60   2.0000      -0.418535       -11.3889
  61   2.0000      -0.415107       -11.2956
  62   2.0000      -0.408559       -11.1175
  63   2.0000      -0.353458        -9.6181
  64   2.0000      -0.331554        -9.0220
  65   2.0000      -0.329837        -8.9753
  66   2.0000      -0.289864        -7.8876
  67   0.0000       0.028850         0.7851
  68   0.0000       0.075107         2.0438
  69   0.0000       0.114239         3.1086
  70   0.0000       0.118913         3.2358
  71   0.0000       0.137767         3.7488

MULLIKEN ATOMIC CHARGES
-----------------------
   0 S :    0.120718
   1 C :   -0.128193
   2 C :   -0.088222
   3 C :    0.019753
   4 C :   -0.162875
   5 H :    0.004194
   6 C :    0.127740
   7 H :    0.027643
   8 H :    0.022370
   9 C :   -0.112438
  10 H :    0.024461
  11 H :    0.020380
  12 C :   -0.024524
  13 H :    0.032616
  14 H :    0.035245
  15 H :    0.020622
  16 S :    0.107441
  17 C :   -0.065905
  18 C :   -0.044257
  19 C :   -0.043900
  20 C :   -0.138355
  21 H :    0.015477
  22 C :    0.050857
  23 H :    0.019179
  24 H :    0.011923
  25 C :   -0.071375
  26 H :    0.031182
  27 H :    0.030016
  28 C :   -0.026218
  29 H :    0.015319
  30 H :    0.030878
  31 H :    0.039525
  32 H :    0.052942
  33 H :    0.045781
Sum of atomic charges:    0.0000000

LOEWDIN ATOMIC CHARGES
----------------------
   0 S :    0.439675
   1 C :   -0.220583
   2 C :   -0.066114
   3 C :   -0.068220
   4 C :   -0.200849
   5 H :    0.028782
   6 C :   -0.023792
   7 H :    0.033701
   8 H :    0.030570
   9 C :   -0.035537
  10 H :    0.024273
  11 H :    0.016920
  12 C :   -0.061700
  13 H :    0.028063
  14 H :    0.030085
  15 H :    0.011475
  16 S :    0.401326
  17 C :   -0.185248
  18 C :   -0.065144
  19 C :   -0.053868
  20 C :   -0.187753
  21 H :    0.027149
  22 C :   -0.037317
  23 H :    0.028629
  24 H :    0.026564
  25 C :   -0.043402
  26 H :    0.024129
  27 H :    0.030187
  28 C :   -0.061295
  29 H :    0.015462
  30 H :    0.026198
  31 H :    0.031865
  32 H :    0.030278
  33 H :    0.025490

  Mayer bond orders larger than 0.100000
B(  0-S ,  1-C ) :   1.1738 B(  0-S ,  4-C ) :   1.1741 B(  1-C ,  2-C ) :   1.5484
B(  1-C ,  4-C ) :   0.1088 B(  1-C , 32-H ) :   0.9695 B(  2-C ,  3-C ) :   1.2785
B(  2-C ,  6-C ) :   1.0206 B(  3-C ,  4-C ) :   1.5551 B(  3-C ,  5-H ) :   0.9988
B(  4-C , 20-C ) :   1.0230 B(  6-C ,  7-H ) :   0.9344 B(  6-C ,  8-H ) :   0.9403
B(  6-C ,  9-C ) :   1.0645 B(  9-C , 10-H ) :   0.9605 B(  9-C , 11-H ) :   0.9560
B(  9-C , 12-C ) :   1.0846 B( 12-C , 13-H ) :   0.9739 B( 12-C , 14-H ) :   0.9732
B( 12-C , 15-H ) :   0.9765 B( 16-S , 17-C ) :   1.1511 B( 16-S , 20-C ) :   1.1200
B( 17-C , 18-C ) :   1.6301 B( 17-C , 33-H ) :   0.9685 B( 18-C , 19-C ) :   1.2086
B( 18-C , 21-H ) :   0.9907 B( 19-C , 20-C ) :   1.6436 B( 19-C , 22-C ) :   1.0431
B( 22-C , 23-H ) :   0.9298 B( 22-C , 24-H ) :   0.9316 B( 22-C , 25-C ) :   1.0777
B( 25-C , 26-H ) :   0.9525 B( 25-C , 27-H ) :   0.9530 B( 25-C , 28-C ) :   1.0860
B( 28-C , 29-H ) :   0.9740 B( 28-C , 30-H ) :   0.9734 B( 28-C , 31-H ) :   0.9726

Dispersion correction           -0.013463845
FINAL SINGLE POINT ENERGY     -1339.882665495365

DIPOLE MOMENT
-------------
                                X             Y             Z
Electronic contribution:      9.04022      15.65547      19.13501
Nuclear contribution   :     -9.36971     -15.85841     -19.52791
                        -----------------------------------------
Total Dipole Moment    :     -0.32949      -0.20294      -0.39291
                        -----------------------------------------
Magnitude (a.u.)       :      0.55147
Magnitude (Debye)      :      1.40173

Rotational constants in cm-1:     0.018865     0.007707     0.006243
Rotational constants in MHz :   565.544951   231.043105   187.150772

                             ****ORCA TERMINATED NORMALLY****
TOTAL RUN TIME: 0 days 0 hours 0 minutes 21 seconds 128 msec
