                         Program Version 4.2.1 -  RELEASE  -
|  1> ! wB97X-D3 SP def2-SVP
|  2> %pal
|  3> nprocs 24
|  4> end
|  5>
|  6> * xyz 0 1
|  7> S 	 -125.295 	 68.5359 	 -50.8656
|  8> C 	 -124.556 	 68.9241 	 -52.3849
|  9> C 	 -123.207 	 68.5297 	 -52.4532
| 10> C 	 -122.79 	 68.0846 	 -51.1424
| 11> C 	 -123.835 	 67.8507 	 -50.2815
| 12> H 	 -121.684 	 67.8892 	 -50.9012
| 13> C 	 -122.26 	 68.6906 	 -53.5784
| 14> H 	 -122.796 	 68.3683 	 -54.5246
| 15> H 	 -121.443 	 68.0543 	 -53.3892
| 16> C 	 -121.555 	 70.0144 	 -53.8221
| 17> H 	 -120.872 	 69.9625 	 -54.6908
| 18> H 	 -122.289 	 70.7986 	 -54.0511
| 19> C 	 -120.793 	 70.5956 	 -52.6017
| 20> H 	 -120.307 	 71.5774 	 -52.9433
| 21> H 	 -121.481 	 70.8387 	 -51.7943
| 22> H 	 -119.994 	 70.0287 	 -52.1237
| 23> S 	 -124.391 	 68.5485 	 -47.692
| 24> C 	 -124.298 	 67.389 	 -46.4424
| 25> C 	 -123.898 	 66.1714 	 -46.9446
| 26> C 	 -123.69 	 66.1392 	 -48.3544
| 27> C 	 -123.887 	 67.3588 	 -48.9232
| 28> H 	 -123.84 	 65.2969 	 -46.2339
| 29> C 	 -123.28 	 64.8474 	 -49.0352
| 30> H 	 -122.21 	 64.7173 	 -48.8441
| 31> H 	 -123.596 	 65.08 	 -50.053
| 32> C 	 -123.931 	 63.5437 	 -48.5562
| 33> H 	 -125.077 	 63.6434 	 -48.5802
| 34> H 	 -123.675 	 63.419 	 -47.5141
| 35> C 	 -123.359 	 62.3939 	 -49.4235
| 36> H 	 -124.052 	 61.5495 	 -49.4039
| 37> H 	 -122.31 	 62.0825 	 -49.3009
| 38> H 	 -123.4 	 62.7428 	 -50.476
| 39> H 	 -125.107 	 69.2248 	 -53.2375
| 40> H 	 -124.704 	 67.4489 	 -45.456
| 41> *
| 42>
| 43>                          ****END OF INPUT****

CARTESIAN COORDINATES (ANGSTROEM)
---------------------------------
  S    -125.295000   68.535900  -50.865600
  C    -124.556000   68.924100  -52.384900
  C    -123.207000   68.529700  -52.453200
  C    -122.790000   68.084600  -51.142400
  C    -123.835000   67.850700  -50.281500
  H    -121.684000   67.889200  -50.901200
  C    -122.260000   68.690600  -53.578400
  H    -122.796000   68.368300  -54.524600
  H    -121.443000   68.054300  -53.389200
  C    -121.555000   70.014400  -53.822100
  H    -120.872000   69.962500  -54.690800
  H    -122.289000   70.798600  -54.051100
  C    -120.793000   70.595600  -52.601700
  H    -120.307000   71.577400  -52.943300
  H    -121.481000   70.838700  -51.794300
  H    -119.994000   70.028700  -52.123700
  S    -124.391000   68.548500  -47.692000
  C    -124.298000   67.389000  -46.442400
  C    -123.898000   66.171400  -46.944600
  C    -123.690000   66.139200  -48.354400
  C    -123.887000   67.358800  -48.923200
  H    -123.840000   65.296900  -46.233900
  C    -123.280000   64.847400  -49.035200
  H    -122.210000   64.717300  -48.844100
  H    -123.596000   65.080000  -50.053000
  C    -123.931000   63.543700  -48.556200
  H    -125.077000   63.643400  -48.580200
  H    -123.675000   63.419000  -47.514100
  C    -123.359000   62.393900  -49.423500
  H    -124.052000   61.549500  -49.403900
  H    -122.310000   62.082500  -49.300900
  H    -123.400000   62.742800  -50.476000
  H    -125.107000   69.224800  -53.237500
  H    -124.704000   67.448900  -45.456000

 Total Charge           Charge          ....    0
 Multiplicity           Mult            ....    1
 Number of Electrons    NEL             ....  134
 Basis Dimension        Dim             ....  322

ORBITAL ENERGIES
----------------

  NO   OCC          E(Eh)            E(eV)
   0   2.0000     -88.966158     -2420.8922
   1   2.0000     -88.960974     -2420.7512
   2   2.0000     -10.324813      -280.9524
   3   2.0000     -10.322252      -280.8828
   4   2.0000     -10.312213      -280.6096
   5   2.0000     -10.309870      -280.5458
   6   2.0000     -10.303127      -280.3623
   7   2.0000     -10.301690      -280.3232
   8   2.0000     -10.298031      -280.2237
   9   2.0000     -10.294022      -280.1146
  10   2.0000     -10.291342      -280.0416
  11   2.0000     -10.290906      -280.0298
  12   2.0000     -10.290669      -280.0233
  13   2.0000     -10.289391      -279.9886
  14   2.0000     -10.282954      -279.8134
  15   2.0000     -10.281545      -279.7751
  16   2.0000      -8.081865      -219.9187
  17   2.0000      -8.076179      -219.7640
  18   2.0000      -6.040220      -164.3627
  19   2.0000      -6.036197      -164.2533
  20   2.0000      -6.034746      -164.2138
  21   2.0000      -6.032754      -164.1596
  22   2.0000      -6.030534      -164.0992
  23   2.0000      -6.026921      -164.0009
  24   2.0000      -1.012033       -27.5388
  25   2.0000      -0.987177       -26.8624
  26   2.0000      -0.916470       -24.9384
  27   2.0000      -0.910110       -24.7654
  28   2.0000      -0.868734       -23.6394
  29   2.0000      -0.850819       -23.1520
  30   2.0000      -0.843094       -22.9418
  31   2.0000      -0.811865       -22.0920
  32   2.0000      -0.782828       -21.3018
  33   2.0000      -0.772321       -21.0159
  34   2.0000      -0.705306       -19.1923
  35   2.0000      -0.701978       -19.1018
  36   2.0000      -0.698205       -18.9991
  37   2.0000      -0.652516       -17.7559
  38   2.0000      -0.640045       -17.4165
  39   2.0000      -0.612897       -16.6778
  40   2.0000      -0.592656       -16.1270
  41   2.0000      -0.573530       -15.6065
  42   2.0000      -0.572293       -15.5729
  43   2.0000      -0.545883       -14.8542
  44   2.0000      -0.544175       -14.8077
  45   2.0000      -0.522894       -14.2287
  46   2.0000      -0.517323       -14.0771
  47   2.0000      -0.510899       -13.9023
  48   2.0000      -0.503016       -13.6878
  49   2.0000      -0.498933       -13.5766
  50   2.0000      -0.492540       -13.4027
  51   2.0000      -0.471719       -12.8361
  52   2.0000      -0.469335       -12.7713
  53   2.0000      -0.464196       -12.6314
  54   2.0000      -0.458520       -12.4770
  55   2.0000      -0.445328       -12.1180
  56   2.0000      -0.439274       -11.9533
  57   2.0000      -0.435596       -11.8532
  58   2.0000      -0.431377       -11.7384
  59   2.0000      -0.425691       -11.5836
  60   2.0000      -0.422956       -11.5092
  61   2.0000      -0.416497       -11.3335
  62   2.0000      -0.412689       -11.2298
  63   2.0000      -0.338413        -9.2087
  64   2.0000      -0.332769        -9.0551
  65   2.0000      -0.324257        -8.8235
  66   2.0000      -0.299706        -8.1554
  67   0.0000       0.036853         1.0028
  68   0.0000       0.063107         1.7172
  69   0.0000       0.114404         3.1131
  70   0.0000       0.122803         3.3416
  71   0.0000       0.129468         3.5230

MULLIKEN ATOMIC CHARGES
-----------------------
   0 S :    0.122373
   1 C :   -0.102598
   2 C :   -0.124165
   3 C :    0.016940
   4 C :   -0.180379
   5 H :    0.043508
   6 C :    0.084812
   7 H :    0.042673
   8 H :    0.007795
   9 C :   -0.054962
  10 H :    0.038336
  11 H :    0.026242
  12 C :   -0.105982
  13 H :    0.041632
  14 H :    0.047862
  15 H :    0.030563
  16 S :    0.105893
  17 C :   -0.070837
  18 C :   -0.084380
  19 C :    0.000134
  20 C :   -0.184089
  21 H :    0.033967
  22 C :    0.072311
  23 H :    0.044816
  24 H :    0.035353
  25 C :   -0.116232
  26 H :    0.048692
  27 H :    0.029313
  28 C :   -0.039536
  29 H :    0.035755
  30 H :    0.044410
  31 H :    0.023279
  32 H :    0.036013
  33 H :    0.050492
Sum of atomic charges:   -0.0000000

LOEWDIN ATOMIC CHARGES
----------------------
   0 S :    0.435281
   1 C :   -0.196965
   2 C :   -0.063591
   3 C :   -0.063802
   4 C :   -0.214454
   5 H :    0.044841
   6 C :   -0.040539
   7 H :    0.042998
   8 H :    0.025817
   9 C :   -0.038690
  10 H :    0.027928
  11 H :    0.024748
  12 C :   -0.077533
  13 H :    0.036023
  14 H :    0.027293
  15 H :    0.019011
  16 S :    0.403891
  17 C :   -0.197436
  18 C :   -0.084096
  19 C :   -0.058911
  20 C :   -0.199395
  21 H :    0.036454
  22 C :   -0.031482
  23 H :    0.038369
  24 H :    0.032672
  25 C :   -0.043952
  26 H :    0.035462
  27 H :    0.016958
  28 C :   -0.070905
  29 H :    0.027492
  30 H :    0.029960
  31 H :    0.029018
  32 H :    0.018091
  33 H :    0.029445

  Mayer bond orders larger than 0.100000
B(  0-S ,  1-C ) :   1.1555 B(  0-S ,  4-C ) :   1.1679 B(  1-C ,  2-C ) :   1.5853
B(  1-C , 32-H ) :   0.9712 B(  2-C ,  3-C ) :   1.2422 B(  2-C ,  6-C ) :   1.0445
B(  3-C ,  4-C ) :   1.5827 B(  3-C ,  5-H ) :   0.9784 B(  4-C , 20-C ) :   1.0098
B(  6-C ,  7-H ) :   0.9333 B(  6-C ,  8-H ) :   0.9289 B(  6-C ,  9-C ) :   1.0758
B(  9-C , 10-H ) :   0.9571 B(  9-C , 11-H ) :   0.9526 B(  9-C , 12-C ) :   1.0715
B( 12-C , 13-H ) :   0.9739 B( 12-C , 14-H ) :   0.9729 B( 12-C , 15-H ) :   0.9773
B( 16-S , 17-C ) :   1.1565 B( 16-S , 20-C ) :   1.1314 B( 17-C , 18-C ) :   1.6276
B( 17-C , 33-H ) :   0.9634 B( 18-C , 19-C ) :   1.2262 B( 18-C , 21-H ) :   0.9777
B( 19-C , 20-C ) :   1.6327 B( 19-C , 22-C ) :   1.0287 B( 22-C , 23-H ) :   0.9336
B( 22-C , 24-H ) :   0.9301 B( 22-C , 25-C ) :   1.0771 B( 25-C , 26-H ) :   0.9582
B( 25-C , 27-H ) :   0.9476 B( 25-C , 28-C ) :   1.0739 B( 28-C , 29-H ) :   0.9742
B( 28-C , 30-H ) :   0.9743 B( 28-C , 31-H ) :   0.9723

Dispersion correction           -0.013813714
FINAL SINGLE POINT ENERGY     -1339.876931662047

DIPOLE MOMENT
-------------
                                X             Y             Z
Electronic contribution:    -14.94036      11.26566      11.48574
Nuclear contribution   :     15.23778     -11.63219     -11.73254
                        -----------------------------------------
Total Dipole Moment    :      0.29742      -0.36652      -0.24681
                        -----------------------------------------
Magnitude (a.u.)       :      0.53265
Magnitude (Debye)      :      1.35389

Rotational constants in cm-1:     0.019113     0.007924     0.006667
Rotational constants in MHz :   573.002934   237.554213   199.873485

                             ****ORCA TERMINATED NORMALLY****
TOTAL RUN TIME: 0 days 0 hours 0 minutes 21 seconds 288 msec
