                         Program Version 4.2.1 -  RELEASE  -
|  1> ! wB97X-D3 SP def2-SVP
|  2> %pal
|  3> nprocs 24
|  4> end
|  5>
|  6> * xyz 0 1
|  7> S 	 -50.3427 	 13.027 	 25.2452
|  8> C 	 -49.6074 	 12.6004 	 23.7543
|  9> C 	 -50.5876 	 12.6331 	 22.7286
| 10> C 	 -51.9448 	 12.7629 	 23.2432
| 11> C 	 -51.9364 	 13.1993 	 24.5295
| 12> H 	 -52.8291 	 12.7347 	 22.642
| 13> C 	 -50.342 	 12.467 	 21.2207
| 14> H 	 -49.3255 	 12.5834 	 20.8392
| 15> H 	 -50.9228 	 13.2938 	 20.7706
| 16> C 	 -50.9621 	 11.0979 	 20.6444
| 17> H 	 -52.0787 	 11.0352 	 20.8104
| 18> H 	 -50.8458 	 11.0717 	 19.5962
| 19> C 	 -50.245 	 9.85556 	 21.4082
| 20> H 	 -50.7963 	 9.81337 	 22.3626
| 21> H 	 -50.3075 	 8.94072 	 20.8379
| 22> H 	 -49.2485 	 10.1611 	 21.6917
| 23> S 	 -52.9975 	 15.5876 	 25.6176
| 24> C 	 -54.6293 	 15.5339 	 26.1071
| 25> C 	 -55.2262 	 14.2824 	 26.0658
| 26> C 	 -54.3468 	 13.2952 	 25.5361
| 27> C 	 -53.1057 	 13.8277 	 25.1904
| 28> H 	 -56.2476 	 14.1439 	 26.2847
| 29> C 	 -54.8368 	 11.8516 	 25.2182
| 30> H 	 -54.5653 	 11.6728 	 24.2044
| 31> H 	 -55.9233 	 11.9691 	 25.0601
| 32> C 	 -54.3602 	 10.7276 	 26.1178
| 33> H 	 -54.5662 	 10.923 	 27.1036
| 34> H 	 -53.2472 	 10.7367 	 26.1262
| 35> C 	 -54.9756 	 9.34269 	 25.8951
| 36> H 	 -54.488 	 8.40303 	 26.3504
| 37> H 	 -55.0801 	 9.15594 	 24.8474
| 38> H 	 -55.9525 	 9.19186 	 26.2764
| 39> H 	 -48.5115 	 12.5616 	 23.7168
| 40> H 	 -55.1475 	 16.4598 	 26.5014
| 41> *
| 42>
| 43>                          ****END OF INPUT****

CARTESIAN COORDINATES (ANGSTROEM)
---------------------------------
  S    -50.342700   13.027000   25.245200
  C    -49.607400   12.600400   23.754300
  C    -50.587600   12.633100   22.728600
  C    -51.944800   12.762900   23.243200
  C    -51.936400   13.199300   24.529500
  H    -52.829100   12.734700   22.642000
  C    -50.342000   12.467000   21.220700
  H    -49.325500   12.583400   20.839200
  H    -50.922800   13.293800   20.770600
  C    -50.962100   11.097900   20.644400
  H    -52.078700   11.035200   20.810400
  H    -50.845800   11.071700   19.596200
  C    -50.245000    9.855560   21.408200
  H    -50.796300    9.813370   22.362600
  H    -50.307500    8.940720   20.837900
  H    -49.248500   10.161100   21.691700
  S    -52.997500   15.587600   25.617600
  C    -54.629300   15.533900   26.107100
  C    -55.226200   14.282400   26.065800
  C    -54.346800   13.295200   25.536100
  C    -53.105700   13.827700   25.190400
  H    -56.247600   14.143900   26.284700
  C    -54.836800   11.851600   25.218200
  H    -54.565300   11.672800   24.204400
  H    -55.923300   11.969100   25.060100
  C    -54.360200   10.727600   26.117800
  H    -54.566200   10.923000   27.103600
  H    -53.247200   10.736700   26.126200
  C    -54.975600    9.342690   25.895100
  H    -54.488000    8.403030   26.350400
  H    -55.080100    9.155940   24.847400
  H    -55.952500    9.191860   26.276400
  H    -48.511500   12.561600   23.716800
  H    -55.147500   16.459800   26.501400

 Total Charge           Charge          ....    0
 Multiplicity           Mult            ....    1
 Number of Electrons    NEL             ....  134
 Basis Dimension        Dim             ....  322

ORBITAL ENERGIES
----------------

  NO   OCC          E(Eh)            E(eV)
   0   2.0000     -88.969222     -2420.9756
   1   2.0000     -88.963527     -2420.8206
   2   2.0000     -10.331101      -281.1236
   3   2.0000     -10.329438      -281.0783
   4   2.0000     -10.320034      -280.8224
   5   2.0000     -10.317412      -280.7511
   6   2.0000     -10.311547      -280.5914
   7   2.0000     -10.307796      -280.4894
   8   2.0000     -10.299618      -280.2669
   9   2.0000     -10.295083      -280.1434
  10   2.0000     -10.294970      -280.1404
  11   2.0000     -10.294395      -280.1247
  12   2.0000     -10.290738      -280.0252
  13   2.0000     -10.281252      -279.7671
  14   2.0000     -10.277476      -279.6643
  15   2.0000     -10.276729      -279.6440
  16   2.0000      -8.083797      -219.9713
  17   2.0000      -8.078917      -219.8385
  18   2.0000      -6.042178      -164.4160
  19   2.0000      -6.038409      -164.3135
  20   2.0000      -6.037453      -164.2874
  21   2.0000      -6.034627      -164.2106
  22   2.0000      -6.033213      -164.1721
  23   2.0000      -6.029738      -164.0775
  24   2.0000      -1.003988       -27.3199
  25   2.0000      -0.983676       -26.7672
  26   2.0000      -0.907649       -24.6984
  27   2.0000      -0.895398       -24.3650
  28   2.0000      -0.865775       -23.5589
  29   2.0000      -0.853524       -23.2256
  30   2.0000      -0.837945       -22.8017
  31   2.0000      -0.808107       -21.9897
  32   2.0000      -0.783624       -21.3235
  33   2.0000      -0.767222       -20.8772
  34   2.0000      -0.712519       -19.3886
  35   2.0000      -0.699656       -19.0386
  36   2.0000      -0.687182       -18.6992
  37   2.0000      -0.659636       -17.9496
  38   2.0000      -0.646164       -17.5830
  39   2.0000      -0.620941       -16.8967
  40   2.0000      -0.596270       -16.2253
  41   2.0000      -0.561389       -15.2762
  42   2.0000      -0.553793       -15.0695
  43   2.0000      -0.542668       -14.7667
  44   2.0000      -0.533640       -14.5211
  45   2.0000      -0.524124       -14.2621
  46   2.0000      -0.517381       -14.0786
  47   2.0000      -0.510933       -13.9032
  48   2.0000      -0.503596       -13.7035
  49   2.0000      -0.491043       -13.3620
  50   2.0000      -0.489630       -13.3235
  51   2.0000      -0.477632       -12.9970
  52   2.0000      -0.465244       -12.6599
  53   2.0000      -0.462842       -12.5946
  54   2.0000      -0.460156       -12.5215
  55   2.0000      -0.457376       -12.4458
  56   2.0000      -0.448602       -12.2071
  57   2.0000      -0.435741       -11.8571
  58   2.0000      -0.426998       -11.6192
  59   2.0000      -0.426164       -11.5965
  60   2.0000      -0.421720       -11.4756
  61   2.0000      -0.412115       -11.2142
  62   2.0000      -0.407493       -11.0885
  63   2.0000      -0.343412        -9.3447
  64   2.0000      -0.337905        -9.1949
  65   2.0000      -0.319490        -8.6938
  66   2.0000      -0.296491        -8.0679
  67   0.0000       0.036632         0.9968
  68   0.0000       0.060312         1.6412
  69   0.0000       0.110558         3.0084
  70   0.0000       0.116157         3.1608
  71   0.0000       0.131225         3.5708

MULLIKEN ATOMIC CHARGES
-----------------------
   0 S :    0.107757
   1 C :   -0.129279
   2 C :   -0.100980
   3 C :    0.046119
   4 C :   -0.153078
   5 H :    0.018535
   6 C :    0.031249
   7 H :    0.034817
   8 H :    0.037958
   9 C :   -0.109012
  10 H :    0.038178
  11 H :    0.027533
  12 C :   -0.050420
  13 H :    0.046206
  14 H :    0.046129
  15 H :    0.026688
  16 S :    0.122470
  17 C :   -0.116306
  18 C :   -0.021638
  19 C :   -0.039205
  20 C :   -0.183914
  21 H :    0.004228
  22 C :    0.091429
  23 H :    0.003814
  24 H :    0.013961
  25 C :   -0.003833
  26 H :    0.005566
  27 H :    0.039778
  28 C :   -0.056954
  29 H :    0.042270
  30 H :    0.016414
  31 H :    0.017258
  32 H :    0.068060
  33 H :    0.078203
Sum of atomic charges:    0.0000000

LOEWDIN ATOMIC CHARGES
----------------------
   0 S :    0.410594
   1 C :   -0.219143
   2 C :   -0.056399
   3 C :   -0.055857
   4 C :   -0.193922
   5 H :    0.029658
   6 C :   -0.035416
   7 H :    0.029484
   8 H :    0.034282
   9 C :   -0.036558
  10 H :    0.024518
  11 H :    0.011817
  12 C :   -0.064022
  13 H :    0.032764
  14 H :    0.023521
  15 H :    0.020430
  16 S :    0.406188
  17 C :   -0.201447
  18 C :   -0.075335
  19 C :   -0.046127
  20 C :   -0.184749
  21 H :    0.025435
  22 C :   -0.026980
  23 H :    0.024887
  24 H :    0.031659
  25 C :   -0.037941
  26 H :    0.015091
  27 H :    0.035539
  28 C :   -0.071816
  29 H :    0.040087
  30 H :    0.017999
  31 H :    0.019252
  32 H :    0.032607
  33 H :    0.039898

  Mayer bond orders larger than 0.100000
B(  0-S ,  1-C ) :   1.1407 B(  0-S ,  4-C ) :   1.1527 B(  1-C ,  2-C ) :   1.5893
B(  1-C , 32-H ) :   0.9713 B(  2-C ,  3-C ) :   1.2253 B(  2-C ,  6-C ) :   1.0252
B(  3-C ,  4-C ) :   1.5952 B(  3-C ,  5-H ) :   0.9875 B(  4-C , 20-C ) :   1.0263
B(  6-C ,  7-H ) :   0.9546 B(  6-C ,  8-H ) :   0.9406 B(  6-C ,  9-C ) :   1.0619
B(  9-C , 10-H ) :   0.9628 B(  9-C , 11-H ) :   0.9653 B(  9-C , 12-C ) :   1.0448
B( 12-C , 13-H ) :   0.9749 B( 12-C , 14-H ) :   0.9789 B( 12-C , 15-H ) :   0.9819
B( 16-S , 17-C ) :   1.1772 B( 16-S , 20-C ) :   1.1337 B( 17-C , 18-C ) :   1.5976
B( 17-C , 33-H ) :   0.9553 B( 18-C , 19-C ) :   1.2503 B( 18-C , 21-H ) :   0.9967
B( 19-C , 20-C ) :   1.6099 B( 19-C , 22-C ) :   1.0221 B( 22-C , 23-H ) :   0.9257
B( 22-C , 24-H ) :   0.9380 B( 22-C , 25-C ) :   1.0551 B( 25-C , 26-H ) :   0.9548
B( 25-C , 27-H ) :   0.9523 B( 25-C , 28-C ) :   1.0703 B( 28-C , 29-H ) :   0.9738
B( 28-C , 30-H ) :   0.9774 B( 28-C , 31-H ) :   0.9748

Dispersion correction           -0.014739459
FINAL SINGLE POINT ENERGY     -1339.860842472553

DIPOLE MOMENT
-------------
                                X             Y             Z
Electronic contribution:      6.00188      24.02874      12.40075
Nuclear contribution   :     -6.34912     -24.20119     -12.79394
                        -----------------------------------------
Total Dipole Moment    :     -0.34724      -0.17245      -0.39319
                        -----------------------------------------
Magnitude (a.u.)       :      0.55219
Magnitude (Debye)      :      1.40355

Rotational constants in cm-1:     0.016931     0.009277     0.007186
Rotational constants in MHz :   507.585238   278.104715   215.424062

                             ****ORCA TERMINATED NORMALLY****
TOTAL RUN TIME: 0 days 0 hours 0 minutes 20 seconds 491 msec
