                         Program Version 4.2.1 -  RELEASE  -
|  1> ! wB97X-D3 SP def2-SVP
|  2> %pal
|  3> nprocs 24
|  4> end
|  5>
|  6> * xyz 0 1
|  7> S 	 -106.974 	 23.7202 	 -116.961
|  8> C 	 -106.991 	 22.0314 	 -116.778
|  9> C 	 -105.997 	 21.5921 	 -115.923
| 10> C 	 -105.006 	 22.6304 	 -115.692
| 11> C 	 -105.264 	 23.7323 	 -116.442
| 12> H 	 -104.195 	 22.7278 	 -115.041
| 13> C 	 -105.93 	 20.2046 	 -115.331
| 14> H 	 -105.033 	 20.2058 	 -114.673
| 15> H 	 -105.722 	 19.3384 	 -115.987
| 16> C 	 -107.157 	 19.8622 	 -114.393
| 17> H 	 -107.176 	 20.5358 	 -113.576
| 18> H 	 -108.115 	 20.0237 	 -114.906
| 19> C 	 -107.078 	 18.5317 	 -113.705
| 20> H 	 -107.51 	 17.6864 	 -114.193
| 21> H 	 -106.058 	 18.3149 	 -113.349
| 22> H 	 -107.538 	 18.6489 	 -112.692
| 23> S 	 -105.42 	 26.4401 	 -116.273
| 24> C 	 -103.916 	 27.3319 	 -116.386
| 25> C 	 -102.802 	 26.5897 	 -116.797
| 26> C 	 -103.115 	 25.1963 	 -116.788
| 27> C 	 -104.476 	 24.9807 	 -116.529
| 28> H 	 -101.919 	 27.1771 	 -116.934
| 29> C 	 -102.15 	 24.06 	 -117.228
| 30> H 	 -101.496 	 24.6085 	 -117.992
| 31> H 	 -102.63 	 23.2679 	 -117.817
| 32> C 	 -101.274 	 23.3809 	 -116.007
| 33> H 	 -102.005 	 22.9602 	 -115.316
| 34> H 	 -100.698 	 24.1378 	 -115.457
| 35> C 	 -100.323 	 22.3437 	 -116.631
| 36> H 	 -99.6529 	 21.8708 	 -115.921
| 37> H 	 -99.6981 	 22.7019 	 -117.431
| 38> H 	 -100.779 	 21.476 	 -117.046
| 39> H 	 -107.788 	 21.3493 	 -117.072
| 40> H 	 -103.796 	 28.388 	 -116.43
| 41> *
| 42>
| 43>                          ****END OF INPUT****

CARTESIAN COORDINATES (ANGSTROEM)
---------------------------------
  S    -106.974000   23.720200  -116.961000
  C    -106.991000   22.031400  -116.778000
  C    -105.997000   21.592100  -115.923000
  C    -105.006000   22.630400  -115.692000
  C    -105.264000   23.732300  -116.442000
  H    -104.195000   22.727800  -115.041000
  C    -105.930000   20.204600  -115.331000
  H    -105.033000   20.205800  -114.673000
  H    -105.722000   19.338400  -115.987000
  C    -107.157000   19.862200  -114.393000
  H    -107.176000   20.535800  -113.576000
  H    -108.115000   20.023700  -114.906000
  C    -107.078000   18.531700  -113.705000
  H    -107.510000   17.686400  -114.193000
  H    -106.058000   18.314900  -113.349000
  H    -107.538000   18.648900  -112.692000
  S    -105.420000   26.440100  -116.273000
  C    -103.916000   27.331900  -116.386000
  C    -102.802000   26.589700  -116.797000
  C    -103.115000   25.196300  -116.788000
  C    -104.476000   24.980700  -116.529000
  H    -101.919000   27.177100  -116.934000
  C    -102.150000   24.060000  -117.228000
  H    -101.496000   24.608500  -117.992000
  H    -102.630000   23.267900  -117.817000
  C    -101.274000   23.380900  -116.007000
  H    -102.005000   22.960200  -115.316000
  H    -100.698000   24.137800  -115.457000
  C    -100.323000   22.343700  -116.631000
  H    -99.652900   21.870800  -115.921000
  H    -99.698100   22.701900  -117.431000
  H    -100.779000   21.476000  -117.046000
  H    -107.788000   21.349300  -117.072000
  H    -103.796000   28.388000  -116.430000

 Total Charge           Charge          ....    0
 Multiplicity           Mult            ....    1
 Number of Electrons    NEL             ....  134
 Basis Dimension        Dim             ....  322

ORBITAL ENERGIES
----------------

  NO   OCC          E(Eh)            E(eV)
   0   2.0000     -88.969998     -2420.9967
   1   2.0000     -88.962684     -2420.7977
   2   2.0000     -10.327649      -281.0296
   3   2.0000     -10.327436      -281.0238
   4   2.0000     -10.314153      -280.6624
   5   2.0000     -10.309997      -280.5493
   6   2.0000     -10.309607      -280.5387
   7   2.0000     -10.305323      -280.4221
   8   2.0000     -10.303007      -280.3591
   9   2.0000     -10.299319      -280.2587
  10   2.0000     -10.296864      -280.1919
  11   2.0000     -10.296621      -280.1853
  12   2.0000     -10.291737      -280.0524
  13   2.0000     -10.283540      -279.8293
  14   2.0000     -10.276863      -279.6477
  15   2.0000     -10.273882      -279.5665
  16   2.0000      -8.084538      -219.9915
  17   2.0000      -8.078244      -219.8202
  18   2.0000      -6.042954      -164.4371
  19   2.0000      -6.039321      -164.3383
  20   2.0000      -6.036761      -164.2686
  21   2.0000      -6.035171      -164.2254
  22   2.0000      -6.033186      -164.1713
  23   2.0000      -6.028403      -164.0412
  24   2.0000      -1.007753       -27.4224
  25   2.0000      -0.983706       -26.7680
  26   2.0000      -0.906959       -24.6796
  27   2.0000      -0.892829       -24.2951
  28   2.0000      -0.869244       -23.6533
  29   2.0000      -0.855528       -23.2801
  30   2.0000      -0.848473       -23.0881
  31   2.0000      -0.817803       -22.2536
  32   2.0000      -0.777262       -21.1504
  33   2.0000      -0.764334       -20.7986
  34   2.0000      -0.708795       -19.2873
  35   2.0000      -0.702067       -19.1042
  36   2.0000      -0.693244       -18.8641
  37   2.0000      -0.663748       -18.0615
  38   2.0000      -0.644528       -17.5385
  39   2.0000      -0.616133       -16.7658
  40   2.0000      -0.587075       -15.9751
  41   2.0000      -0.569755       -15.5038
  42   2.0000      -0.562435       -15.3046
  43   2.0000      -0.551846       -15.0165
  44   2.0000      -0.523058       -14.2331
  45   2.0000      -0.519782       -14.1440
  46   2.0000      -0.510474       -13.8907
  47   2.0000      -0.508223       -13.8294
  48   2.0000      -0.504487       -13.7278
  49   2.0000      -0.495893       -13.4939
  50   2.0000      -0.494788       -13.4639
  51   2.0000      -0.476958       -12.9787
  52   2.0000      -0.473523       -12.8852
  53   2.0000      -0.460565       -12.5326
  54   2.0000      -0.457934       -12.4610
  55   2.0000      -0.455662       -12.3992
  56   2.0000      -0.450781       -12.2664
  57   2.0000      -0.438531       -11.9330
  58   2.0000      -0.430978       -11.7275
  59   2.0000      -0.426426       -11.6037
  60   2.0000      -0.419734       -11.4215
  61   2.0000      -0.417582       -11.3630
  62   2.0000      -0.411694       -11.2028
  63   2.0000      -0.351383        -9.5616
  64   2.0000      -0.335764        -9.1366
  65   2.0000      -0.322555        -8.7772
  66   2.0000      -0.283023        -7.7014
  67   0.0000       0.023804         0.6477
  68   0.0000       0.060280         1.6403
  69   0.0000       0.095935         2.6105
  70   0.0000       0.116057         3.1581
  71   0.0000       0.138515         3.7692

MULLIKEN ATOMIC CHARGES
-----------------------
   0 S :    0.093612
   1 C :   -0.090383
   2 C :   -0.078140
   3 C :    0.047241
   4 C :   -0.134299
   5 H :   -0.004760
   6 C :    0.041471
   7 H :    0.014291
   8 H :    0.047417
   9 C :   -0.070779
  10 H :    0.016442
  11 H :    0.029202
  12 C :   -0.045385
  13 H :    0.039834
  14 H :    0.018346
  15 H :    0.026843
  16 S :    0.108867
  17 C :   -0.076279
  18 C :   -0.052341
  19 C :   -0.000442
  20 C :   -0.160599
  21 H :    0.018909
  22 C :   -0.016770
  23 H :    0.037001
  24 H :    0.047021
  25 C :   -0.048680
  26 H :    0.027354
  27 H :    0.038558
  28 C :   -0.030722
  29 H :    0.024769
  30 H :    0.026339
  31 H :    0.017663
  32 H :    0.048541
  33 H :    0.039858
Sum of atomic charges:    0.0000000

LOEWDIN ATOMIC CHARGES
----------------------
   0 S :    0.391002
   1 C :   -0.203875
   2 C :   -0.062924
   3 C :   -0.053917
   4 C :   -0.171417
   5 H :    0.023354
   6 C :   -0.039571
   7 H :    0.030552
   8 H :    0.034297
   9 C :   -0.041909
  10 H :    0.021863
  11 H :    0.022790
  12 C :   -0.071483
  13 H :    0.019965
  14 H :    0.027129
  15 H :    0.034264
  16 S :    0.400488
  17 C :   -0.182413
  18 C :   -0.065122
  19 C :   -0.060593
  20 C :   -0.191514
  21 H :    0.033351
  22 C :   -0.033781
  23 H :    0.036633
  24 H :    0.032221
  25 C :   -0.029041
  26 H :    0.020383
  27 H :    0.026805
  28 C :   -0.071852
  29 H :    0.025834
  30 H :    0.025167
  31 H :    0.022336
  32 H :    0.030618
  33 H :    0.020359

  Mayer bond orders larger than 0.100000
B(  0-S ,  1-C ) :   1.1372 B(  0-S ,  4-C ) :   1.1251 B(  1-C ,  2-C ) :   1.6259
B(  1-C , 32-H ) :   0.9684 B(  2-C ,  3-C ) :   1.1889 B(  2-C ,  6-C ) :   1.0261
B(  3-C ,  4-C ) :   1.6037 B(  3-C ,  5-H ) :   1.0064 B(  4-C , 20-C ) :   1.0467
B(  6-C ,  7-H ) :   0.9398 B(  6-C ,  8-H ) :   0.9468 B(  6-C ,  9-C ) :   1.0537
B(  9-C , 10-H ) :   0.9578 B(  9-C , 11-H ) :   0.9595 B(  9-C , 12-C ) :   1.0865
B( 12-C , 13-H ) :   0.9763 B( 12-C , 14-H ) :   0.9664 B( 12-C , 15-H ) :   0.9757
B( 16-S , 17-C ) :   1.1458 B( 16-S , 20-C ) :   1.1377 B( 17-C , 18-C ) :   1.6504
B( 17-C , 33-H ) :   0.9632 B( 18-C , 19-C ) :   1.2140 B( 18-C , 21-H ) :   0.9918
B( 19-C , 20-C ) :   1.6036 B( 19-C , 22-C ) :   1.0235 B( 22-C , 23-H ) :   0.9482
B( 22-C , 24-H ) :   0.9491 B( 22-C , 25-C ) :   1.0348 B( 25-C , 26-H ) :   0.9569
B( 25-C , 27-H ) :   0.9600 B( 25-C , 28-C ) :   1.0764 B( 28-C , 29-H ) :   0.9725
B( 28-C , 30-H ) :   0.9756 B( 28-C , 31-H ) :   0.9730

Dispersion correction           -0.013769645
FINAL SINGLE POINT ENERGY     -1339.846600104283

DIPOLE MOMENT
-------------
                                X             Y             Z
Electronic contribution:    -13.76154      25.26874      -8.36039
Nuclear contribution   :     14.18333     -25.63520       8.57098
                        -----------------------------------------
Total Dipole Moment    :      0.42178      -0.36646       0.21059
                        -----------------------------------------
Magnitude (a.u.)       :      0.59711
Magnitude (Debye)      :      1.51774

Rotational constants in cm-1:     0.017982     0.008367     0.006171
Rotational constants in MHz :   539.089019   250.835361   184.987691

                             ****ORCA TERMINATED NORMALLY****
TOTAL RUN TIME: 0 days 0 hours 0 minutes 21 seconds 173 msec
