                         Program Version 4.2.1 -  RELEASE  -
|  1> ! wB97X-D3 SP def2-SVP
|  2> %pal
|  3> nprocs 24
|  4> end
|  5>
|  6> * xyz 0 1
|  7> S 	 -32.5871 	 10.7645 	 10.2725
|  8> C 	 -31.5673 	 12.1741 	 10.0033
|  9> C 	 -31.5817 	 12.9973 	 11.1585
| 10> C 	 -32.1497 	 12.3741 	 12.2854
| 11> C 	 -32.6617 	 11.1389 	 12.0058
| 12> H 	 -32.0845 	 12.8375 	 13.2656
| 13> C 	 -30.8493 	 14.2578 	 11.2277
| 14> H 	 -30.5738 	 14.6807 	 10.3023
| 15> H 	 -29.9353 	 14.0013 	 11.7877
| 16> C 	 -31.6523 	 15.3951 	 11.9597
| 17> H 	 -32.6576 	 15.4008 	 11.6104
| 18> H 	 -31.6958 	 15.304 	 13.0073
| 19> C 	 -31.035 	 16.7521 	 11.7597
| 20> H 	 -31.0638 	 16.9148 	 10.7202
| 21> H 	 -31.5324 	 17.5857 	 12.2095
| 22> H 	 -30.0166 	 16.7574 	 12.0723
| 23> S 	 -31.8941 	 9.67701 	 14.1593
| 24> C 	 -32.8684 	 8.43608 	 14.8811
| 25> C 	 -34.0621 	 8.36328 	 14.1771
| 26> C 	 -34.2402 	 9.36485 	 13.1529
| 27> C 	 -33.0722 	 10.1432 	 12.995
| 28> H 	 -34.8097 	 7.72619 	 14.536
| 29> C 	 -35.4361 	 9.35968 	 12.233
| 30> H 	 -35.3116 	 8.5362 	 11.5457
| 31> H 	 -35.479 	 10.2672 	 11.6979
| 32> C 	 -36.7749 	 9.30392 	 12.9792
| 33> H 	 -36.6762 	 10.0742 	 13.7316
| 34> H 	 -36.9542 	 8.31437 	 13.3636
| 35> C 	 -37.9455 	 9.68165 	 12.1292
| 36> H 	 -38.0658 	 8.92327 	 11.3353
| 37> H 	 -37.7671 	 10.6616 	 11.6284
| 38> H 	 -38.9307 	 9.69556 	 12.6829
| 39> H 	 -31.234 	 12.4483 	 9.04489
| 40> H 	 -32.6282 	 7.74617 	 15.6767
| 41> *
| 42>
| 43>                          ****END OF INPUT****

CARTESIAN COORDINATES (ANGSTROEM)
---------------------------------
  S    -32.587100   10.764500   10.272500
  C    -31.567300   12.174100   10.003300
  C    -31.581700   12.997300   11.158500
  C    -32.149700   12.374100   12.285400
  C    -32.661700   11.138900   12.005800
  H    -32.084500   12.837500   13.265600
  C    -30.849300   14.257800   11.227700
  H    -30.573800   14.680700   10.302300
  H    -29.935300   14.001300   11.787700
  C    -31.652300   15.395100   11.959700
  H    -32.657600   15.400800   11.610400
  H    -31.695800   15.304000   13.007300
  C    -31.035000   16.752100   11.759700
  H    -31.063800   16.914800   10.720200
  H    -31.532400   17.585700   12.209500
  H    -30.016600   16.757400   12.072300
  S    -31.894100    9.677010   14.159300
  C    -32.868400    8.436080   14.881100
  C    -34.062100    8.363280   14.177100
  C    -34.240200    9.364850   13.152900
  C    -33.072200   10.143200   12.995000
  H    -34.809700    7.726190   14.536000
  C    -35.436100    9.359680   12.233000
  H    -35.311600    8.536200   11.545700
  H    -35.479000   10.267200   11.697900
  C    -36.774900    9.303920   12.979200
  H    -36.676200   10.074200   13.731600
  H    -36.954200    8.314370   13.363600
  C    -37.945500    9.681650   12.129200
  H    -38.065800    8.923270   11.335300
  H    -37.767100   10.661600   11.628400
  H    -38.930700    9.695560   12.682900
  H    -31.234000   12.448300    9.044890
  H    -32.628200    7.746170   15.676700

 Total Charge           Charge          ....    0
 Multiplicity           Mult            ....    1
 Number of Electrons    NEL             ....  134
 Basis Dimension        Dim             ....  322

ORBITAL ENERGIES
----------------

  NO   OCC          E(Eh)            E(eV)
   0   2.0000     -88.966404     -2420.8989
   1   2.0000     -88.963942     -2420.8319
   2   2.0000     -10.331093      -281.1233
   3   2.0000     -10.324562      -280.9456
   4   2.0000     -10.314588      -280.6742
   5   2.0000     -10.313094      -280.6335
   6   2.0000     -10.302219      -280.3376
   7   2.0000     -10.299110      -280.2530
   8   2.0000     -10.292552      -280.0746
   9   2.0000     -10.288193      -279.9560
  10   2.0000     -10.287724      -279.9432
  11   2.0000     -10.282851      -279.8106
  12   2.0000     -10.280724      -279.7527
  13   2.0000     -10.278654      -279.6964
  14   2.0000     -10.278516      -279.6926
  15   2.0000     -10.266461      -279.3646
  16   2.0000      -8.080393      -219.8787
  17   2.0000      -8.079075      -219.8428
  18   2.0000      -6.038896      -164.3267
  19   2.0000      -6.037570      -164.2906
  20   2.0000      -6.035080      -164.2229
  21   2.0000      -6.033268      -164.1736
  22   2.0000      -6.031136      -164.1156
  23   2.0000      -6.030064      -164.0864
  24   2.0000      -1.005995       -27.3745
  25   2.0000      -0.983730       -26.7686
  26   2.0000      -0.917257       -24.9598
  27   2.0000      -0.914945       -24.8969
  28   2.0000      -0.870622       -23.6908
  29   2.0000      -0.856303       -23.3012
  30   2.0000      -0.847836       -23.0708
  31   2.0000      -0.818155       -22.2631
  32   2.0000      -0.780039       -21.2259
  33   2.0000      -0.765554       -20.8318
  34   2.0000      -0.712406       -19.3856
  35   2.0000      -0.698298       -19.0016
  36   2.0000      -0.692587       -18.8462
  37   2.0000      -0.658484       -17.9183
  38   2.0000      -0.638188       -17.3660
  39   2.0000      -0.627681       -17.0801
  40   2.0000      -0.596861       -16.2414
  41   2.0000      -0.581398       -15.8207
  42   2.0000      -0.577058       -15.7026
  43   2.0000      -0.568118       -15.4593
  44   2.0000      -0.530373       -14.4322
  45   2.0000      -0.522231       -14.2106
  46   2.0000      -0.518534       -14.1100
  47   2.0000      -0.514971       -14.0131
  48   2.0000      -0.508477       -13.8364
  49   2.0000      -0.504812       -13.7366
  50   2.0000      -0.487608       -13.2685
  51   2.0000      -0.480897       -13.0859
  52   2.0000      -0.474430       -12.9099
  53   2.0000      -0.462737       -12.5917
  54   2.0000      -0.458879       -12.4867
  55   2.0000      -0.456971       -12.4348
  56   2.0000      -0.445650       -12.1268
  57   2.0000      -0.433671       -11.8008
  58   2.0000      -0.428902       -11.6710
  59   2.0000      -0.427009       -11.6195
  60   2.0000      -0.419621       -11.4185
  61   2.0000      -0.415888       -11.3169
  62   2.0000      -0.414404       -11.2765
  63   2.0000      -0.342685        -9.3249
  64   2.0000      -0.332359        -9.0439
  65   2.0000      -0.323202        -8.7948
  66   2.0000      -0.291870        -7.9422
  67   0.0000       0.032869         0.8944
  68   0.0000       0.064360         1.7513
  69   0.0000       0.106589         2.9004
  70   0.0000       0.121177         3.2974
  71   0.0000       0.129116         3.5134

MULLIKEN ATOMIC CHARGES
-----------------------
   0 S :    0.111055
   1 C :   -0.109868
   2 C :   -0.086652
   3 C :    0.017989
   4 C :   -0.132264
   5 H :    0.021634
   6 C :    0.079169
   7 H :   -0.000184
   8 H :    0.047800
   9 C :   -0.084252
  10 H :    0.026860
  11 H :    0.019752
  12 C :   -0.010707
  13 H :    0.009650
  14 H :    0.029172
  15 H :    0.020111
  16 S :    0.117363
  17 C :   -0.092959
  18 C :   -0.024361
  19 C :   -0.059218
  20 C :   -0.152576
  21 H :    0.002222
  22 C :    0.106622
  23 H :    0.039784
  24 H :   -0.001724
  25 C :   -0.087879
  26 H :    0.032144
  27 H :    0.030249
  28 C :   -0.066425
  29 H :    0.024911
  30 H :    0.035245
  31 H :    0.046319
  32 H :    0.032732
  33 H :    0.058285
Sum of atomic charges:   -0.0000000

LOEWDIN ATOMIC CHARGES
----------------------
   0 S :    0.394074
   1 C :   -0.189001
   2 C :   -0.059633
   3 C :   -0.060769
   4 C :   -0.183141
   5 H :    0.036927
   6 C :   -0.025737
   7 H :    0.021480
   8 H :    0.041930
   9 C :   -0.033360
  10 H :    0.021789
  11 H :    0.015143
  12 C :   -0.056177
  13 H :    0.016692
  14 H :    0.025108
  15 H :    0.021915
  16 S :    0.434217
  17 C :   -0.196057
  18 C :   -0.067342
  19 C :   -0.057709
  20 C :   -0.212299
  21 H :    0.019383
  22 C :   -0.026758
  23 H :    0.032307
  24 H :    0.020302
  25 C :   -0.041146
  26 H :    0.026417
  27 H :    0.020158
  28 C :   -0.071015
  29 H :    0.023331
  30 H :    0.026746
  31 H :    0.032910
  32 H :    0.015343
  33 H :    0.033971

  Mayer bond orders larger than 0.100000
B(  0-S ,  1-C ) :   1.1370 B(  0-S ,  4-C ) :   1.1454 B(  1-C ,  2-C ) :   1.5770
B(  1-C ,  4-C ) :   0.1012 B(  1-C , 32-H ) :   0.9777 B(  2-C ,  3-C ) :   1.2344
B(  2-C ,  6-C ) :   1.0552 B(  3-C ,  4-C ) :   1.5568 B(  3-C ,  5-H ) :   1.0012
B(  4-C , 20-C ) :   1.0277 B(  6-C ,  7-H ) :   0.9437 B(  6-C ,  8-H ) :   0.9272
B(  6-C ,  9-C ) :   1.0522 B(  9-C , 10-H ) :   0.9621 B(  9-C , 11-H ) :   0.9491
B(  9-C , 12-C ) :   1.1004 B( 12-C , 13-H ) :   0.9735 B( 12-C , 14-H ) :   0.9718
B( 12-C , 15-H ) :   0.9704 B( 16-S , 17-C ) :   1.1618 B( 16-S , 20-C ) :   1.1626
B( 17-C , 18-C ) :   1.5913 B( 17-C , 33-H ) :   0.9694 B( 18-C , 19-C ) :   1.2557
B( 18-C , 21-H ) :   0.9928 B( 19-C , 20-C ) :   1.5523 B( 19-C , 22-C ) :   1.0606
B( 22-C , 23-H ) :   0.9314 B( 22-C , 24-H ) :   0.9252 B( 22-C , 25-C ) :   1.0616
B( 25-C , 26-H ) :   0.9598 B( 25-C , 27-H ) :   0.9488 B( 25-C , 28-C ) :   1.1044
B( 28-C , 29-H ) :   0.9701 B( 28-C , 30-H ) :   0.9708 B( 28-C , 31-H ) :   0.9726

Dispersion correction           -0.013495109
FINAL SINGLE POINT ENERGY     -1339.876934795572

DIPOLE MOMENT
-------------
                                X             Y             Z
Electronic contribution:     11.71261     -15.78008       1.32085
Nuclear contribution   :    -11.84920      16.06815      -1.26479
                        -----------------------------------------
Total Dipole Moment    :     -0.13659       0.28807       0.05606
                        -----------------------------------------
Magnitude (a.u.)       :      0.32370
Magnitude (Debye)      :      0.82277

Rotational constants in cm-1:     0.019512     0.007268     0.006470
Rotational constants in MHz :   584.957216   217.880872   193.978524

                             ****ORCA TERMINATED NORMALLY****
TOTAL RUN TIME: 0 days 0 hours 0 minutes 19 seconds 817 msec
