                         Program Version 4.2.1 -  RELEASE  -
|  1> ! wB97X-D3 SP def2-SVP
|  2> %pal
|  3> nprocs 24
|  4> end
|  5>
|  6> * xyz 0 1
|  7> S 	 -123.268 	 63.5507 	 -52.2765
|  8> C 	 -122.584 	 64.6512 	 -53.4742
|  9> C 	 -121.678 	 65.5752 	 -52.9495
| 10> C 	 -121.452 	 65.2653 	 -51.5458
| 11> C 	 -122.297 	 64.3035 	 -51.071
| 12> H 	 -120.607 	 65.7419 	 -50.9416
| 13> C 	 -120.848 	 66.529 	 -53.6746
| 14> H 	 -120.528 	 65.9638 	 -54.5721
| 15> H 	 -119.85 	 66.7935 	 -53.1084
| 16> C 	 -121.516 	 67.796 	 -54.2256
| 17> H 	 -121.182 	 67.9803 	 -55.1996
| 18> H 	 -122.571 	 67.532 	 -54.3127
| 19> C 	 -121.406 	 69.052 	 -53.3563
| 20> H 	 -122.189 	 69.7487 	 -53.6656
| 21> H 	 -121.609 	 68.7241 	 -52.3309
| 22> H 	 -120.353 	 69.4838 	 -53.3757
| 23> S 	 -123.467 	 65.1933 	 -48.7285
| 24> C 	 -123.347 	 64.193 	 -47.3117
| 25> C 	 -122.495 	 63.1115 	 -47.4927
| 26> C 	 -122.108 	 63.0183 	 -48.854
| 27> C 	 -122.547 	 64.0332 	 -49.6498
| 28> H 	 -122.268 	 62.5419 	 -46.5908
| 29> C 	 -121.206 	 61.8846 	 -49.2898
| 30> H 	 -120.698 	 61.5899 	 -48.317
| 31> H 	 -120.425 	 62.2541 	 -49.9894
| 32> C 	 -121.841 	 60.576 	 -49.8424
| 33> H 	 -121.245 	 59.6588 	 -49.7648
| 34> H 	 -121.999 	 60.6798 	 -50.9205
| 35> C 	 -123.205 	 60.1014 	 -49.1847
| 36> H 	 -123.72 	 59.3762 	 -49.793
| 37> H 	 -123.894 	 60.9541 	 -48.8926
| 38> H 	 -123.064 	 59.6044 	 -48.2571
| 39> H 	 -122.83 	 64.6579 	 -54.5114
| 40> H 	 -123.786 	 64.4973 	 -46.3307
| 41> *
| 42>
| 43>                          ****END OF INPUT****

CARTESIAN COORDINATES (ANGSTROEM)
---------------------------------
  S    -123.268000   63.550700  -52.276500
  C    -122.584000   64.651200  -53.474200
  C    -121.678000   65.575200  -52.949500
  C    -121.452000   65.265300  -51.545800
  C    -122.297000   64.303500  -51.071000
  H    -120.607000   65.741900  -50.941600
  C    -120.848000   66.529000  -53.674600
  H    -120.528000   65.963800  -54.572100
  H    -119.850000   66.793500  -53.108400
  C    -121.516000   67.796000  -54.225600
  H    -121.182000   67.980300  -55.199600
  H    -122.571000   67.532000  -54.312700
  C    -121.406000   69.052000  -53.356300
  H    -122.189000   69.748700  -53.665600
  H    -121.609000   68.724100  -52.330900
  H    -120.353000   69.483800  -53.375700
  S    -123.467000   65.193300  -48.728500
  C    -123.347000   64.193000  -47.311700
  C    -122.495000   63.111500  -47.492700
  C    -122.108000   63.018300  -48.854000
  C    -122.547000   64.033200  -49.649800
  H    -122.268000   62.541900  -46.590800
  C    -121.206000   61.884600  -49.289800
  H    -120.698000   61.589900  -48.317000
  H    -120.425000   62.254100  -49.989400
  C    -121.841000   60.576000  -49.842400
  H    -121.245000   59.658800  -49.764800
  H    -121.999000   60.679800  -50.920500
  C    -123.205000   60.101400  -49.184700
  H    -123.720000   59.376200  -49.793000
  H    -123.894000   60.954100  -48.892600
  H    -123.064000   59.604400  -48.257100
  H    -122.830000   64.657900  -54.511400
  H    -123.786000   64.497300  -46.330700

 Total Charge           Charge          ....    0
 Multiplicity           Mult            ....    1
 Number of Electrons    NEL             ....  134
 Basis Dimension        Dim             ....  322

ORBITAL ENERGIES
----------------

  NO   OCC          E(Eh)            E(eV)
   0   2.0000     -88.970712     -2421.0162
   1   2.0000     -88.963869     -2420.8299
   2   2.0000     -10.324133      -280.9339
   3   2.0000     -10.319490      -280.8076
   4   2.0000     -10.318364      -280.7770
   5   2.0000     -10.313780      -280.6522
   6   2.0000     -10.301736      -280.3245
   7   2.0000     -10.299345      -280.2594
   8   2.0000     -10.298641      -280.2403
   9   2.0000     -10.297564      -280.2110
  10   2.0000     -10.295585      -280.1571
  11   2.0000     -10.293697      -280.1057
  12   2.0000     -10.287463      -279.9361
  13   2.0000     -10.282402      -279.7984
  14   2.0000     -10.280321      -279.7417
  15   2.0000     -10.272290      -279.5232
  16   2.0000      -8.085308      -220.0124
  17   2.0000      -8.079034      -219.8417
  18   2.0000      -6.043836      -164.4611
  19   2.0000      -6.039856      -164.3528
  20   2.0000      -6.037389      -164.2857
  21   2.0000      -6.036050      -164.2493
  22   2.0000      -6.033502      -164.1799
  23   2.0000      -6.029907      -164.0821
  24   2.0000      -1.009259       -27.4633
  25   2.0000      -0.986282       -26.8381
  26   2.0000      -0.916505       -24.9394
  27   2.0000      -0.896711       -24.4007
  28   2.0000      -0.866829       -23.5876
  29   2.0000      -0.850415       -23.1410
  30   2.0000      -0.842291       -22.9199
  31   2.0000      -0.812365       -22.1056
  32   2.0000      -0.781524       -21.2664
  33   2.0000      -0.769436       -20.9374
  34   2.0000      -0.704652       -19.1745
  35   2.0000      -0.702549       -19.1173
  36   2.0000      -0.685006       -18.6400
  37   2.0000      -0.660375       -17.9697
  38   2.0000      -0.637016       -17.3341
  39   2.0000      -0.611229       -16.6324
  40   2.0000      -0.583661       -15.8822
  41   2.0000      -0.572076       -15.5670
  42   2.0000      -0.557068       -15.1586
  43   2.0000      -0.548243       -14.9185
  44   2.0000      -0.543721       -14.7954
  45   2.0000      -0.533067       -14.5055
  46   2.0000      -0.514254       -13.9936
  47   2.0000      -0.509689       -13.8693
  48   2.0000      -0.492995       -13.4151
  49   2.0000      -0.491063       -13.3625
  50   2.0000      -0.480124       -13.0648
  51   2.0000      -0.474899       -12.9227
  52   2.0000      -0.466504       -12.6942
  53   2.0000      -0.464902       -12.6506
  54   2.0000      -0.461460       -12.5570
  55   2.0000      -0.448988       -12.2176
  56   2.0000      -0.441642       -12.0177
  57   2.0000      -0.436730       -11.8840
  58   2.0000      -0.434473       -11.8226
  59   2.0000      -0.422520       -11.4974
  60   2.0000      -0.419338       -11.4108
  61   2.0000      -0.416700       -11.3390
  62   2.0000      -0.402071       -10.9409
  63   2.0000      -0.336272        -9.1504
  64   2.0000      -0.328661        -8.9433
  65   2.0000      -0.322129        -8.7656
  66   2.0000      -0.308131        -8.3847
  67   0.0000       0.043315         1.1787
  68   0.0000       0.056121         1.5271
  69   0.0000       0.099519         2.7081
  70   0.0000       0.116975         3.1831
  71   0.0000       0.128974         3.5096

MULLIKEN ATOMIC CHARGES
-----------------------
   0 S :    0.137784
   1 C :   -0.107456
   2 C :   -0.073250
   3 C :    0.001946
   4 C :   -0.173457
   5 H :    0.045049
   6 C :   -0.012974
   7 H :    0.036542
   8 H :    0.044326
   9 C :   -0.039163
  10 H :    0.013267
  11 H :    0.021322
  12 C :   -0.062229
  13 H :    0.044245
  14 H :    0.031436
  15 H :    0.046403
  16 S :    0.123793
  17 C :   -0.124988
  18 C :   -0.042719
  19 C :   -0.031240
  20 C :   -0.161679
  21 H :    0.029054
  22 C :    0.074368
  23 H :    0.026761
  24 H :    0.044837
  25 C :   -0.075536
  26 H :    0.033266
  27 H :    0.028972
  28 C :   -0.079097
  29 H :    0.031645
  30 H :    0.050842
  31 H :    0.016199
  32 H :    0.032259
  33 H :    0.069471
Sum of atomic charges:   -0.0000000

LOEWDIN ATOMIC CHARGES
----------------------
   0 S :    0.424559
   1 C :   -0.192061
   2 C :   -0.064338
   3 C :   -0.066477
   4 C :   -0.211232
   5 H :    0.046053
   6 C :   -0.047932
   7 H :    0.041698
   8 H :    0.040960
   9 C :   -0.040229
  10 H :    0.014224
  11 H :    0.026139
  12 C :   -0.067424
  13 H :    0.029574
  14 H :    0.025611
  15 H :    0.031530
  16 S :    0.416988
  17 C :   -0.191093
  18 C :   -0.077329
  19 C :   -0.062394
  20 C :   -0.208819
  21 H :    0.038305
  22 C :   -0.035598
  23 H :    0.036538
  24 H :    0.036922
  25 C :   -0.044192
  26 H :    0.027976
  27 H :    0.019614
  28 C :   -0.074368
  29 H :    0.024407
  30 H :    0.032711
  31 H :    0.015305
  32 H :    0.019301
  33 H :    0.035075

  Mayer bond orders larger than 0.100000
B(  0-S ,  1-C ) :   1.1363 B(  0-S ,  4-C ) :   1.1604 B(  1-C ,  2-C ) :   1.6169
B(  1-C , 32-H ) :   0.9662 B(  2-C ,  3-C ) :   1.2261 B(  2-C ,  6-C ) :   1.0344
B(  3-C ,  4-C ) :   1.6015 B(  3-C ,  5-H ) :   0.9828 B(  4-C , 20-C ) :   0.9983
B(  6-C ,  7-H ) :   0.9339 B(  6-C ,  8-H ) :   0.9495 B(  6-C ,  9-C ) :   1.0527
B(  9-C , 10-H ) :   0.9541 B(  9-C , 11-H ) :   0.9574 B(  9-C , 12-C ) :   1.0800
B( 12-C , 13-H ) :   0.9739 B( 12-C , 14-H ) :   0.9767 B( 12-C , 15-H ) :   0.9753
B( 16-S , 17-C ) :   1.1748 B( 16-S , 20-C ) :   1.1386 B( 17-C , 18-C ) :   1.6092
B( 17-C , 33-H ) :   0.9593 B( 18-C , 19-C ) :   1.2264 B( 18-C , 21-H ) :   0.9939
B( 19-C , 20-C ) :   1.6165 B( 19-C , 22-C ) :   1.0376 B( 22-C , 23-H ) :   0.9356
B( 22-C , 24-H ) :   0.9360 B( 22-C , 25-C ) :   1.0591 B( 25-C , 26-H ) :   0.9601
B( 25-C , 27-H ) :   0.9586 B( 25-C , 28-C ) :   1.0716 B( 28-C , 29-H ) :   0.9766
B( 28-C , 30-H ) :   0.9716 B( 28-C , 31-H ) :   0.9780

Dispersion correction           -0.014885230
FINAL SINGLE POINT ENERGY     -1339.872727997784

DIPOLE MOMENT
-------------
                                X             Y             Z
Electronic contribution:     -8.80479      -0.05907       6.27599
Nuclear contribution   :      9.16950       0.10714      -6.35143
                        -----------------------------------------
Total Dipole Moment    :      0.36471       0.04807      -0.07544
                        -----------------------------------------
Magnitude (a.u.)       :      0.37552
Magnitude (Debye)      :      0.95450

Rotational constants in cm-1:     0.023902     0.007889     0.006660
Rotational constants in MHz :   716.565716   236.491660   199.660910

                             ****ORCA TERMINATED NORMALLY****
TOTAL RUN TIME: 0 days 0 hours 0 minutes 20 seconds 338 msec
