                         Program Version 4.2.1 -  RELEASE  -
|  1> ! wB97X-D3 SP def2-SVP
|  2> %pal
|  3> nprocs 24
|  4> end
|  5>
|  6> * xyz 0 1
|  7> S 	 23.8935 	 -23.9434 	 -123.539
|  8> C 	 23.7037 	 -25.3826 	 -124.459
|  9> C 	 24.2463 	 -26.5312 	 -123.937
| 10> C 	 25.1241 	 -26.1539 	 -122.831
| 11> C 	 24.8661 	 -24.8293 	 -122.41
| 12> H 	 25.7937 	 -26.7699 	 -122.154
| 13> C 	 24.1744 	 -27.9003 	 -124.564
| 14> H 	 23.6056 	 -27.8863 	 -125.517
| 15> H 	 23.6116 	 -28.4128 	 -123.771
| 16> C 	 25.5558 	 -28.5832 	 -124.838
| 17> H 	 26.0658 	 -28.1257 	 -125.674
| 18> H 	 26.1574 	 -28.6617 	 -123.901
| 19> C 	 25.3038 	 -30.0331 	 -125.317
| 20> H 	 24.5334 	 -30.089 	 -126.086
| 21> H 	 26.1401 	 -30.4905 	 -125.701
| 22> H 	 24.8284 	 -30.676 	 -124.539
| 23> S 	 26.4554 	 -22.9546 	 -121.125
| 24> C 	 26.7744 	 -23.0917 	 -119.48
| 25> C 	 26.021 	 -24.1131 	 -118.886
| 26> C 	 25.2754 	 -24.9019 	 -119.854
| 27> C 	 25.3256 	 -24.2895 	 -121.122
| 28> H 	 25.9795 	 -24.1949 	 -117.804
| 29> C 	 24.5927 	 -26.231 	 -119.47
| 30> H 	 25.3797 	 -26.8858 	 -119.342
| 31> H 	 24.0084 	 -26.5677 	 -120.241
| 32> C 	 23.6536 	 -26.3757 	 -118.25
| 33> H 	 24.2553 	 -26.2261 	 -117.333
| 34> H 	 23.4169 	 -27.4252 	 -118.104
| 35> C 	 22.4874 	 -25.3579 	 -118.276
| 36> H 	 21.9127 	 -25.5776 	 -117.271
| 37> H 	 21.8211 	 -25.4741 	 -119.166
| 38> H 	 22.8059 	 -24.3424 	 -118.18
| 39> H 	 23.1538 	 -25.4612 	 -125.412
| 40> H 	 27.3262 	 -22.324 	 -119.004
| 41> *
| 42>
| 43>                          ****END OF INPUT****

CARTESIAN COORDINATES (ANGSTROEM)
---------------------------------
  S     23.893500  -23.943400  -123.539000
  C     23.703700  -25.382600  -124.459000
  C     24.246300  -26.531200  -123.937000
  C     25.124100  -26.153900  -122.831000
  C     24.866100  -24.829300  -122.410000
  H     25.793700  -26.769900  -122.154000
  C     24.174400  -27.900300  -124.564000
  H     23.605600  -27.886300  -125.517000
  H     23.611600  -28.412800  -123.771000
  C     25.555800  -28.583200  -124.838000
  H     26.065800  -28.125700  -125.674000
  H     26.157400  -28.661700  -123.901000
  C     25.303800  -30.033100  -125.317000
  H     24.533400  -30.089000  -126.086000
  H     26.140100  -30.490500  -125.701000
  H     24.828400  -30.676000  -124.539000
  S     26.455400  -22.954600  -121.125000
  C     26.774400  -23.091700  -119.480000
  C     26.021000  -24.113100  -118.886000
  C     25.275400  -24.901900  -119.854000
  C     25.325600  -24.289500  -121.122000
  H     25.979500  -24.194900  -117.804000
  C     24.592700  -26.231000  -119.470000
  H     25.379700  -26.885800  -119.342000
  H     24.008400  -26.567700  -120.241000
  C     23.653600  -26.375700  -118.250000
  H     24.255300  -26.226100  -117.333000
  H     23.416900  -27.425200  -118.104000
  C     22.487400  -25.357900  -118.276000
  H     21.912700  -25.577600  -117.271000
  H     21.821100  -25.474100  -119.166000
  H     22.805900  -24.342400  -118.180000
  H     23.153800  -25.461200  -125.412000
  H     27.326200  -22.324000  -119.004000

 Total Charge           Charge          ....    0
 Multiplicity           Mult            ....    1
 Number of Electrons    NEL             ....  134
 Basis Dimension        Dim             ....  322

ORBITAL ENERGIES
----------------

  NO   OCC          E(Eh)            E(eV)
   0   2.0000     -88.966905     -2420.9126
   1   2.0000     -88.962032     -2420.7800
   2   2.0000     -10.325926      -280.9827
   3   2.0000     -10.324940      -280.9559
   4   2.0000     -10.312631      -280.6210
   5   2.0000     -10.310944      -280.5750
   6   2.0000     -10.307864      -280.4912
   7   2.0000     -10.301735      -280.3245
   8   2.0000     -10.301479      -280.3175
   9   2.0000     -10.299428      -280.2617
  10   2.0000     -10.296765      -280.1892
  11   2.0000     -10.294622      -280.1309
  12   2.0000     -10.290018      -280.0056
  13   2.0000     -10.286396      -279.9071
  14   2.0000     -10.279902      -279.7303
  15   2.0000     -10.274077      -279.5718
  16   2.0000      -8.082340      -219.9316
  17   2.0000      -8.078381      -219.8239
  18   2.0000      -6.040730      -164.3766
  19   2.0000      -6.036860      -164.2713
  20   2.0000      -6.036674      -164.2662
  21   2.0000      -6.033094      -164.1688
  22   2.0000      -6.032487      -164.1523
  23   2.0000      -6.029458      -164.0699
  24   2.0000      -1.005638       -27.3648
  25   2.0000      -0.985251       -26.8100
  26   2.0000      -0.910093       -24.7649
  27   2.0000      -0.907750       -24.7011
  28   2.0000      -0.866267       -23.5723
  29   2.0000      -0.851053       -23.1583
  30   2.0000      -0.842367       -22.9220
  31   2.0000      -0.806185       -21.9374
  32   2.0000      -0.786177       -21.3930
  33   2.0000      -0.772153       -21.0114
  34   2.0000      -0.708365       -19.2756
  35   2.0000      -0.700713       -19.0674
  36   2.0000      -0.687770       -18.7152
  37   2.0000      -0.654254       -17.8032
  38   2.0000      -0.634347       -17.2615
  39   2.0000      -0.614407       -16.7189
  40   2.0000      -0.598180       -16.2773
  41   2.0000      -0.568897       -15.4805
  42   2.0000      -0.563000       -15.3200
  43   2.0000      -0.555839       -15.1251
  44   2.0000      -0.535009       -14.5583
  45   2.0000      -0.528286       -14.3754
  46   2.0000      -0.514142       -13.9905
  47   2.0000      -0.504422       -13.7260
  48   2.0000      -0.502783       -13.6814
  49   2.0000      -0.496027       -13.4976
  50   2.0000      -0.491098       -13.3635
  51   2.0000      -0.473847       -12.8940
  52   2.0000      -0.468562       -12.7502
  53   2.0000      -0.463095       -12.6014
  54   2.0000      -0.458023       -12.4634
  55   2.0000      -0.452413       -12.3108
  56   2.0000      -0.451240       -12.2789
  57   2.0000      -0.438505       -11.9323
  58   2.0000      -0.430481       -11.7140
  59   2.0000      -0.427071       -11.6212
  60   2.0000      -0.420630       -11.4459
  61   2.0000      -0.419817       -11.4238
  62   2.0000      -0.410880       -11.1806
  63   2.0000      -0.336666        -9.1612
  64   2.0000      -0.329273        -8.9600
  65   2.0000      -0.326025        -8.8716
  66   2.0000      -0.293380        -7.9833
  67   0.0000       0.036316         0.9882
  68   0.0000       0.075090         2.0433
  69   0.0000       0.115745         3.1496
  70   0.0000       0.124182         3.3792
  71   0.0000       0.129401         3.5212

MULLIKEN ATOMIC CHARGES
-----------------------
   0 S :    0.133210
   1 C :   -0.121708
   2 C :   -0.089897
   3 C :    0.001511
   4 C :   -0.175616
   5 H :    0.041585
   6 C :    0.042656
   7 H :    0.028284
   8 H :    0.042429
   9 C :   -0.080013
  10 H :    0.043049
  11 H :    0.049060
  12 C :   -0.031955
  13 H :    0.012712
  14 H :    0.021389
  15 H :    0.025168
  16 S :    0.113988
  17 C :   -0.088073
  18 C :   -0.045215
  19 C :   -0.060694
  20 C :   -0.162269
  21 H :    0.024883
  22 C :    0.117077
  23 H :    0.018748
  24 H :    0.009114
  25 C :   -0.070574
  26 H :    0.013765
  27 H :    0.026282
  28 C :   -0.074038
  29 H :    0.042566
  30 H :    0.051202
  31 H :    0.043010
  32 H :    0.045822
  33 H :    0.052543
Sum of atomic charges:    0.0000000

LOEWDIN ATOMIC CHARGES
----------------------
   0 S :    0.422186
   1 C :   -0.216882
   2 C :   -0.066262
   3 C :   -0.065486
   4 C :   -0.207652
   5 H :    0.040220
   6 C :   -0.032482
   7 H :    0.032980
   8 H :    0.038763
   9 C :   -0.032860
  10 H :    0.028241
  11 H :    0.030859
  12 C :   -0.064941
  13 H :    0.021581
  14 H :    0.012742
  15 H :    0.027413
  16 S :    0.436911
  17 C :   -0.199575
  18 C :   -0.076710
  19 C :   -0.042076
  20 C :   -0.214436
  21 H :    0.030081
  22 C :   -0.023952
  23 H :    0.024938
  24 H :    0.018085
  25 C :   -0.042500
  26 H :    0.020157
  27 H :    0.026670
  28 C :   -0.069792
  29 H :    0.038499
  30 H :    0.030999
  31 H :    0.023541
  32 H :    0.029678
  33 H :    0.021062

  Mayer bond orders larger than 0.100000
B(  0-S ,  1-C ) :   1.1350 B(  0-S ,  4-C ) :   1.1592 B(  1-C ,  2-C ) :   1.6441
B(  1-C , 32-H ) :   0.9572 B(  2-C ,  3-C ) :   1.2080 B(  2-C ,  6-C ) :   1.0171
B(  3-C ,  4-C ) :   1.5824 B(  3-C ,  5-H ) :   0.9770 B(  4-C , 20-C ) :   1.0151
B(  6-C ,  7-H ) :   0.9461 B(  6-C ,  8-H ) :   0.9309 B(  6-C ,  9-C ) :   1.0688
B(  9-C , 10-H ) :   0.9589 B(  9-C , 11-H ) :   0.9524 B(  9-C , 12-C ) :   1.0819
B( 12-C , 13-H ) :   0.9716 B( 12-C , 14-H ) :   0.9755 B( 12-C , 15-H ) :   0.9744
B( 16-S , 17-C ) :   1.1971 B( 16-S , 20-C ) :   1.1563 B( 17-C , 18-C ) :   1.5689
B( 17-C , 33-H ) :   0.9722 B( 18-C , 19-C ) :   1.2437 B( 18-C , 21-H ) :   0.9932
B( 19-C , 20-C ) :   1.5832 B( 19-C , 22-C ) :   1.0275 B( 22-C , 23-H ) :   0.9257
B( 22-C , 24-H ) :   0.9311 B( 22-C , 25-C ) :   1.0834 B( 25-C , 26-H ) :   0.9492
B( 25-C , 27-H ) :   0.9530 B( 25-C , 28-C ) :   1.0671 B( 28-C , 29-H ) :   0.9738
B( 28-C , 30-H ) :   0.9777 B( 28-C , 31-H ) :   0.9734

Dispersion correction           -0.014154125
FINAL SINGLE POINT ENERGY     -1339.863501940827

DIPOLE MOMENT
-------------
                                X             Y             Z
Electronic contribution:      6.41234      25.97749      -3.69511
Nuclear contribution   :     -6.43635     -26.63421       3.89303
                        -----------------------------------------
Total Dipole Moment    :     -0.02401      -0.65672       0.19792
                        -----------------------------------------
Magnitude (a.u.)       :      0.68631
Magnitude (Debye)      :      1.74447

Rotational constants in cm-1:     0.017950     0.008036     0.006906
Rotational constants in MHz :   538.137807   240.920370   207.046001

                             ****ORCA TERMINATED NORMALLY****
TOTAL RUN TIME: 0 days 0 hours 0 minutes 21 seconds 294 msec
