                         Program Version 4.2.1 -  RELEASE  -
|  1> ! wB97X-D3 SP def2-SVP
|  2> %pal
|  3> nprocs 24
|  4> end
|  5>
|  6> * xyz 0 1
|  7> S 	 -117.684 	 17.631 	 -111.136
|  8> C 	 -115.915 	 17.6874 	 -110.969
|  9> C 	 -115.311 	 16.5626 	 -111.437
| 10> C 	 -116.251 	 15.644 	 -111.973
| 11> C 	 -117.58 	 16.0009 	 -111.824
| 12> H 	 -115.908 	 14.6209 	 -112.346
| 13> C 	 -113.837 	 16.2517 	 -111.326
| 14> H 	 -113.696 	 15.358 	 -111.906
| 15> H 	 -113.631 	 16.1394 	 -110.237
| 16> C 	 -112.888 	 17.2463 	 -112.024
| 17> H 	 -113.245 	 17.3367 	 -113.081
| 18> H 	 -112.781 	 18.3038 	 -111.729
| 19> C 	 -111.461 	 16.7981 	 -112.039
| 20> H 	 -111.426 	 15.7145 	 -112.177
| 21> H 	 -110.955 	 17.2751 	 -112.877
| 22> H 	 -110.929 	 16.8879 	 -111.118
| 23> S 	 -119.486 	 14.3977 	 -110.611
| 24> C 	 -120.594 	 13.5247 	 -111.566
| 25> C 	 -120.268 	 13.6073 	 -112.879
| 26> C 	 -119.166 	 14.4405 	 -113.127
| 27> C 	 -118.753 	 15.1238 	 -112.01
| 28> H 	 -120.843 	 12.9582 	 -113.589
| 29> C 	 -118.61 	 14.4515 	 -114.487
| 30> H 	 -118.585 	 13.4791 	 -114.944
| 31> H 	 -117.5 	 14.7046 	 -114.547
| 32> C 	 -119.303 	 15.4801 	 -115.446
| 33> H 	 -119.108 	 16.4816 	 -115.121
| 34> H 	 -120.375 	 15.2942 	 -115.471
| 35> C 	 -118.944 	 15.3633 	 -116.895
| 36> H 	 -119.684 	 15.7808 	 -117.649
| 37> H 	 -118.909 	 14.2856 	 -117.224
| 38> H 	 -117.994 	 15.7746 	 -117.067
| 39> H 	 -115.422 	 18.6296 	 -110.531
| 40> H 	 -121.497 	 13.0966 	 -111.092
| 41> *
| 42>
| 43>                          ****END OF INPUT****

CARTESIAN COORDINATES (ANGSTROEM)
---------------------------------
  S    -117.684000   17.631000  -111.136000
  C    -115.915000   17.687400  -110.969000
  C    -115.311000   16.562600  -111.437000
  C    -116.251000   15.644000  -111.973000
  C    -117.580000   16.000900  -111.824000
  H    -115.908000   14.620900  -112.346000
  C    -113.837000   16.251700  -111.326000
  H    -113.696000   15.358000  -111.906000
  H    -113.631000   16.139400  -110.237000
  C    -112.888000   17.246300  -112.024000
  H    -113.245000   17.336700  -113.081000
  H    -112.781000   18.303800  -111.729000
  C    -111.461000   16.798100  -112.039000
  H    -111.426000   15.714500  -112.177000
  H    -110.955000   17.275100  -112.877000
  H    -110.929000   16.887900  -111.118000
  S    -119.486000   14.397700  -110.611000
  C    -120.594000   13.524700  -111.566000
  C    -120.268000   13.607300  -112.879000
  C    -119.166000   14.440500  -113.127000
  C    -118.753000   15.123800  -112.010000
  H    -120.843000   12.958200  -113.589000
  C    -118.610000   14.451500  -114.487000
  H    -118.585000   13.479100  -114.944000
  H    -117.500000   14.704600  -114.547000
  C    -119.303000   15.480100  -115.446000
  H    -119.108000   16.481600  -115.121000
  H    -120.375000   15.294200  -115.471000
  C    -118.944000   15.363300  -116.895000
  H    -119.684000   15.780800  -117.649000
  H    -118.909000   14.285600  -117.224000
  H    -117.994000   15.774600  -117.067000
  H    -115.422000   18.629600  -110.531000
  H    -121.497000   13.096600  -111.092000

 Total Charge           Charge          ....    0
 Multiplicity           Mult            ....    1
 Number of Electrons    NEL             ....  134
 Basis Dimension        Dim             ....  322

ORBITAL ENERGIES
----------------

  NO   OCC          E(Eh)            E(eV)
   0   2.0000     -88.965723     -2420.8804
   1   2.0000     -88.959658     -2420.7154
   2   2.0000     -10.331390      -281.1314
   3   2.0000     -10.323098      -280.9058
   4   2.0000     -10.319674      -280.8126
   5   2.0000     -10.312095      -280.6064
   6   2.0000     -10.300224      -280.2833
   7   2.0000     -10.297512      -280.2095
   8   2.0000     -10.297407      -280.2067
   9   2.0000     -10.297353      -280.2052
  10   2.0000     -10.290775      -280.0262
  11   2.0000     -10.289909      -280.0027
  12   2.0000     -10.288769      -279.9716
  13   2.0000     -10.279174      -279.7105
  14   2.0000     -10.275491      -279.6103
  15   2.0000     -10.272695      -279.5342
  16   2.0000      -8.079757      -219.8614
  17   2.0000      -8.076021      -219.7597
  18   2.0000      -6.038273      -164.3098
  19   2.0000      -6.034401      -164.2044
  20   2.0000      -6.034392      -164.2042
  21   2.0000      -6.030529      -164.0990
  22   2.0000      -6.030309      -164.0931
  23   2.0000      -6.026801      -163.9976
  24   2.0000      -1.012463       -27.5505
  25   2.0000      -0.987987       -26.8845
  26   2.0000      -0.915182       -24.9034
  27   2.0000      -0.910023       -24.7630
  28   2.0000      -0.870561       -23.6892
  29   2.0000      -0.856098       -23.2956
  30   2.0000      -0.849374       -23.1127
  31   2.0000      -0.811731       -22.0883
  32   2.0000      -0.782229       -21.2855
  33   2.0000      -0.770609       -20.9693
  34   2.0000      -0.702572       -19.1179
  35   2.0000      -0.698759       -19.0142
  36   2.0000      -0.689558       -18.7638
  37   2.0000      -0.658809       -17.9271
  38   2.0000      -0.633046       -17.2261
  39   2.0000      -0.620160       -16.8754
  40   2.0000      -0.602253       -16.3881
  41   2.0000      -0.575761       -15.6673
  42   2.0000      -0.565984       -15.4012
  43   2.0000      -0.560314       -15.2469
  44   2.0000      -0.531017       -14.4497
  45   2.0000      -0.524102       -14.2615
  46   2.0000      -0.515452       -14.0262
  47   2.0000      -0.514856       -14.0099
  48   2.0000      -0.503989       -13.7142
  49   2.0000      -0.497174       -13.5288
  50   2.0000      -0.491494       -13.3742
  51   2.0000      -0.477590       -12.9959
  52   2.0000      -0.466370       -12.6906
  53   2.0000      -0.463189       -12.6040
  54   2.0000      -0.454040       -12.3550
  55   2.0000      -0.452419       -12.3109
  56   2.0000      -0.446342       -12.1456
  57   2.0000      -0.436302       -11.8724
  58   2.0000      -0.426153       -11.5962
  59   2.0000      -0.423068       -11.5123
  60   2.0000      -0.421766       -11.4768
  61   2.0000      -0.412118       -11.2143
  62   2.0000      -0.409989       -11.1564
  63   2.0000      -0.339770        -9.2456
  64   2.0000      -0.329399        -8.9634
  65   2.0000      -0.325716        -8.8632
  66   2.0000      -0.303502        -8.2587
  67   0.0000       0.034236         0.9316
  68   0.0000       0.064643         1.7590
  69   0.0000       0.112537         3.0623
  70   0.0000       0.116538         3.1712
  71   0.0000       0.132909         3.6166

MULLIKEN ATOMIC CHARGES
-----------------------
   0 S :    0.104371
   1 C :   -0.168051
   2 C :   -0.090509
   3 C :    0.031449
   4 C :   -0.182702
   5 H :    0.037637
   6 C :    0.098693
   7 H :    0.011166
   8 H :    0.058231
   9 C :   -0.113696
  10 H :    0.032101
  11 H :    0.031779
  12 C :   -0.028026
  13 H :    0.006905
  14 H :    0.039348
  15 H :    0.027079
  16 S :    0.108741
  17 C :   -0.110537
  18 C :   -0.046692
  19 C :    0.006425
  20 C :   -0.142976
  21 H :    0.035174
  22 C :    0.035439
  23 H :    0.015148
  24 H :    0.023712
  25 C :   -0.051210
  26 H :    0.032687
  27 H :    0.021816
  28 C :   -0.061092
  29 H :    0.043846
  30 H :    0.020601
  31 H :    0.020621
  32 H :    0.079926
  33 H :    0.072598
Sum of atomic charges:   -0.0000000

LOEWDIN ATOMIC CHARGES
----------------------
   0 S :    0.387095
   1 C :   -0.192475
   2 C :   -0.077398
   3 C :   -0.064672
   4 C :   -0.194509
   5 H :    0.041549
   6 C :   -0.026188
   7 H :    0.029653
   8 H :    0.041904
   9 C :   -0.051357
  10 H :    0.030128
  11 H :    0.024975
  12 C :   -0.066523
  13 H :    0.020103
  14 H :    0.030886
  15 H :    0.020997
  16 S :    0.428327
  17 C :   -0.198834
  18 C :   -0.079283
  19 C :   -0.058713
  20 C :   -0.206581
  21 H :    0.041435
  22 C :   -0.035406
  23 H :    0.026966
  24 H :    0.034781
  25 C :   -0.036456
  26 H :    0.023991
  27 H :    0.022970
  28 C :   -0.071782
  29 H :    0.034741
  30 H :    0.025924
  31 H :    0.013622
  32 H :    0.043981
  33 H :    0.036149

  Mayer bond orders larger than 0.100000
B(  0-S ,  1-C ) :   1.1346 B(  0-S ,  4-C ) :   1.1508 B(  1-C ,  2-C ) :   1.6136
B(  1-C , 32-H ) :   0.9600 B(  2-C ,  3-C ) :   1.2672 B(  2-C ,  6-C ) :   1.0137
B(  3-C ,  4-C ) :   1.5805 B(  3-C ,  5-H ) :   0.9743 B(  4-C , 20-C ) :   1.0105
B(  6-C ,  7-H ) :   0.9314 B(  6-C ,  8-H ) :   0.9387 B(  6-C ,  9-C ) :   1.0631
B(  9-C , 10-H ) :   0.9565 B(  9-C , 11-H ) :   0.9546 B(  9-C , 12-C ) :   1.0921
B( 12-C , 13-H ) :   0.9684 B( 12-C , 14-H ) :   0.9729 B( 12-C , 15-H ) :   0.9727
B( 16-S , 17-C ) :   1.1791 B( 16-S , 20-C ) :   1.1562 B( 17-C , 18-C ) :   1.5890
B( 17-C , 33-H ) :   0.9630 B( 18-C , 19-C ) :   1.2467 B( 18-C , 21-H ) :   0.9895
B( 19-C , 20-C ) :   1.5811 B( 19-C , 22-C ) :   1.0642 B( 22-C , 23-H ) :   0.9355
B( 22-C , 24-H ) :   0.9283 B( 22-C , 25-C ) :   1.0613 B( 25-C , 26-H ) :   0.9570
B( 25-C , 27-H ) :   0.9595 B( 25-C , 28-C ) :   1.0826 B( 28-C , 29-H ) :   0.9744
B( 28-C , 30-H ) :   0.9706 B( 28-C , 31-H ) :   0.9752

Dispersion correction           -0.013511873
FINAL SINGLE POINT ENERGY     -1339.870225038447

DIPOLE MOMENT
-------------
                                X             Y             Z
Electronic contribution:    -18.98071       0.21098      19.78219
Nuclear contribution   :     19.39425      -0.48367     -20.09174
                        -----------------------------------------
Total Dipole Moment    :      0.41353      -0.27269      -0.30955
                        -----------------------------------------
Magnitude (a.u.)       :      0.58411
Magnitude (Debye)      :      1.48470

Rotational constants in cm-1:     0.018427     0.007615     0.006302
Rotational constants in MHz :   552.435896   228.285771   188.932735

                             ****ORCA TERMINATED NORMALLY****
TOTAL RUN TIME: 0 days 0 hours 0 minutes 20 seconds 918 msec
