                         Program Version 4.2.1 -  RELEASE  -
|  1> ! wB97X-D3 SP def2-SVP
|  2> %pal
|  3> nprocs 24
|  4> end
|  5>
|  6> * xyz 0 1
|  7> S 	 -140.258 	 7.49851 	 6.67584
|  8> C 	 -141.701 	 7.92062 	 5.76497
|  9> C 	 -141.984 	 9.2889 	 5.93253
| 10> C 	 -141.144 	 9.87205 	 6.95206
| 11> C 	 -140.307 	 8.92908 	 7.54899
| 12> H 	 -141.392 	 10.8105 	 7.3059
| 13> C 	 -143.113 	 10.1424 	 5.26276
| 14> H 	 -143.115 	 9.58343 	 4.34598
| 15> H 	 -142.804 	 11.1867 	 5.03898
| 16> C 	 -144.387 	 10.1011 	 6.15349
| 17> H 	 -144.738 	 9.09876 	 6.48275
| 18> H 	 -144.17 	 10.5932 	 7.121
| 19> C 	 -145.581 	 10.7027 	 5.49769
| 20> H 	 -145.803 	 10.3861 	 4.51992
| 21> H 	 -146.444 	 10.4368 	 6.06231
| 22> H 	 -145.415 	 11.7812 	 5.3837
| 23> S 	 -137.862 	 10.1701 	 8.24006
| 24> C 	 -137.327 	 10.2269 	 9.93199
| 25> C 	 -138.205 	 9.52391 	 10.7597
| 26> C 	 -139.227 	 8.85422 	 9.95992
| 27> C 	 -139.334 	 9.30134 	 8.59463
| 28> H 	 -137.861 	 9.44121 	 11.8166
| 29> C 	 -140.084 	 7.78188 	 10.6263
| 30> H 	 -139.64 	 7.6664 	 11.5843
| 31> H 	 -139.883 	 6.84941 	 10.1406
| 32> C 	 -141.503 	 8.06024 	 10.987
| 33> H 	 -141.921 	 7.09998 	 11.3664
| 34> H 	 -141.998 	 8.22704 	 10.0081
| 35> C 	 -141.768 	 9.22885 	 11.9796
| 36> H 	 -142.841 	 9.43304 	 11.8927
| 37> H 	 -141.122 	 9.98644 	 11.5768
| 38> H 	 -141.447 	 8.94868 	 12.9706
| 39> H 	 -142.21 	 7.26529 	 5.12134
| 40> H 	 -136.448 	 10.725 	 10.3071
| 41> *
| 42>
| 43>                          ****END OF INPUT****

CARTESIAN COORDINATES (ANGSTROEM)
---------------------------------
  S    -140.258000    7.498510    6.675840
  C    -141.701000    7.920620    5.764970
  C    -141.984000    9.288900    5.932530
  C    -141.144000    9.872050    6.952060
  C    -140.307000    8.929080    7.548990
  H    -141.392000   10.810500    7.305900
  C    -143.113000   10.142400    5.262760
  H    -143.115000    9.583430    4.345980
  H    -142.804000   11.186700    5.038980
  C    -144.387000   10.101100    6.153490
  H    -144.738000    9.098760    6.482750
  H    -144.170000   10.593200    7.121000
  C    -145.581000   10.702700    5.497690
  H    -145.803000   10.386100    4.519920
  H    -146.444000   10.436800    6.062310
  H    -145.415000   11.781200    5.383700
  S    -137.862000   10.170100    8.240060
  C    -137.327000   10.226900    9.931990
  C    -138.205000    9.523910   10.759700
  C    -139.227000    8.854220    9.959920
  C    -139.334000    9.301340    8.594630
  H    -137.861000    9.441210   11.816600
  C    -140.084000    7.781880   10.626300
  H    -139.640000    7.666400   11.584300
  H    -139.883000    6.849410   10.140600
  C    -141.503000    8.060240   10.987000
  H    -141.921000    7.099980   11.366400
  H    -141.998000    8.227040   10.008100
  C    -141.768000    9.228850   11.979600
  H    -142.841000    9.433040   11.892700
  H    -141.122000    9.986440   11.576800
  H    -141.447000    8.948680   12.970600
  H    -142.210000    7.265290    5.121340
  H    -136.448000   10.725000   10.307100

 Total Charge           Charge          ....    0
 Multiplicity           Mult            ....    1
 Number of Electrons    NEL             ....  134
 Basis Dimension        Dim             ....  322

ORBITAL ENERGIES
----------------

  NO   OCC          E(Eh)            E(eV)
   0   2.0000     -88.969589     -2420.9856
   1   2.0000     -88.965771     -2420.8817
   2   2.0000     -10.330512      -281.1075
   3   2.0000     -10.328082      -281.0414
   4   2.0000     -10.319737      -280.8143
   5   2.0000     -10.314329      -280.6672
   6   2.0000     -10.311155      -280.5808
   7   2.0000     -10.305841      -280.4362
   8   2.0000     -10.301239      -280.3110
   9   2.0000     -10.300230      -280.2835
  10   2.0000     -10.290881      -280.0291
  11   2.0000     -10.287867      -279.9471
  12   2.0000     -10.279427      -279.7174
  13   2.0000     -10.276311      -279.6326
  14   2.0000     -10.273308      -279.5509
  15   2.0000     -10.268704      -279.4256
  16   2.0000      -8.085237      -220.0105
  17   2.0000      -8.079730      -219.8606
  18   2.0000      -6.043593      -164.4545
  19   2.0000      -6.039626      -164.3466
  20   2.0000      -6.038275      -164.3098
  21   2.0000      -6.036091      -164.2504
  22   2.0000      -6.034209      -164.1992
  23   2.0000      -6.030628      -164.1017
  24   2.0000      -1.006232       -27.3810
  25   2.0000      -0.978613       -26.6294
  26   2.0000      -0.912176       -24.8216
  27   2.0000      -0.907914       -24.7056
  28   2.0000      -0.868065       -23.6212
  29   2.0000      -0.852376       -23.1943
  30   2.0000      -0.837673       -22.7942
  31   2.0000      -0.813932       -22.1482
  32   2.0000      -0.784594       -21.3499
  33   2.0000      -0.771665       -20.9981
  34   2.0000      -0.707473       -19.2513
  35   2.0000      -0.701073       -19.0772
  36   2.0000      -0.680209       -18.5094
  37   2.0000      -0.654646       -17.8138
  38   2.0000      -0.645255       -17.5583
  39   2.0000      -0.617491       -16.8028
  40   2.0000      -0.583898       -15.8887
  41   2.0000      -0.576578       -15.6895
  42   2.0000      -0.558771       -15.2049
  43   2.0000      -0.555427       -15.1139
  44   2.0000      -0.541662       -14.7394
  45   2.0000      -0.534721       -14.5505
  46   2.0000      -0.516862       -14.0645
  47   2.0000      -0.510706       -13.8970
  48   2.0000      -0.509114       -13.8537
  49   2.0000      -0.502567       -13.6755
  50   2.0000      -0.486563       -13.2401
  51   2.0000      -0.476440       -12.9646
  52   2.0000      -0.472477       -12.8567
  53   2.0000      -0.467913       -12.7326
  54   2.0000      -0.464295       -12.6341
  55   2.0000      -0.448498       -12.2043
  56   2.0000      -0.443573       -12.0702
  57   2.0000      -0.436883       -11.8882
  58   2.0000      -0.430425       -11.7124
  59   2.0000      -0.415898       -11.3172
  60   2.0000      -0.414140       -11.2693
  61   2.0000      -0.405994       -11.0477
  62   2.0000      -0.399811       -10.8794
  63   2.0000      -0.334751        -9.1090
  64   2.0000      -0.328652        -8.9431
  65   2.0000      -0.319491        -8.6938
  66   2.0000      -0.304009        -8.2725
  67   0.0000       0.034827         0.9477
  68   0.0000       0.055271         1.5040
  69   0.0000       0.108911         2.9636
  70   0.0000       0.115034         3.1302
  71   0.0000       0.132896         3.6163

MULLIKEN ATOMIC CHARGES
-----------------------
   0 S :    0.136315
   1 C :   -0.118795
   2 C :   -0.115442
   3 C :    0.060185
   4 C :   -0.148887
   5 H :   -0.012822
   6 C :    0.066221
   7 H :    0.024559
   8 H :    0.042518
   9 C :   -0.090701
  10 H :    0.028798
  11 H :    0.032210
  12 C :    0.005362
  13 H :    0.011615
  14 H :    0.026750
  15 H :    0.023824
  16 S :    0.115371
  17 C :   -0.107849
  18 C :   -0.037802
  19 C :   -0.105866
  20 C :   -0.140327
  21 H :    0.045946
  22 C :    0.113563
  23 H :   -0.015578
  24 H :    0.029555
  25 C :   -0.097577
  26 H :    0.024676
  27 H :    0.031623
  28 C :   -0.025222
  29 H :    0.047019
  30 H :    0.036684
  31 H :    0.029067
  32 H :    0.028017
  33 H :    0.056990
Sum of atomic charges:   -0.0000000

LOEWDIN ATOMIC CHARGES
----------------------
   0 S :    0.444952
   1 C :   -0.198424
   2 C :   -0.049380
   3 C :   -0.053282
   4 C :   -0.223576
   5 H :    0.017683
   6 C :   -0.028454
   7 H :    0.028953
   8 H :    0.036846
   9 C :   -0.043664
  10 H :    0.028521
  11 H :    0.028543
  12 C :   -0.063113
  13 H :    0.017970
  14 H :    0.025389
  15 H :    0.025614
  16 S :    0.406114
  17 C :   -0.180356
  18 C :   -0.084421
  19 C :   -0.049568
  20 C :   -0.214679
  21 H :    0.044235
  22 C :   -0.041091
  23 H :    0.023074
  24 H :    0.031692
  25 C :   -0.044022
  26 H :    0.023640
  27 H :    0.022687
  28 C :   -0.057633
  29 H :    0.033132
  30 H :    0.026368
  31 H :    0.021601
  32 H :    0.015904
  33 H :    0.028745

  Mayer bond orders larger than 0.100000
B(  0-S ,  1-C ) :   1.1474 B(  0-S ,  4-C ) :   1.1878 B(  1-C ,  2-C ) :   1.5840
B(  1-C , 32-H ) :   0.9802 B(  2-C ,  3-C ) :   1.2729 B(  2-C ,  6-C ) :   1.0048
B(  3-C ,  4-C ) :   1.5213 B(  3-C ,  5-H ) :   1.0057 B(  4-C , 20-C ) :   1.0340
B(  6-C ,  7-H ) :   0.9428 B(  6-C ,  8-H ) :   0.9475 B(  6-C ,  9-C ) :   1.0530
B(  9-C , 10-H ) :   0.9604 B(  9-C , 11-H ) :   0.9536 B(  9-C , 12-C ) :   1.0916
B( 12-C , 13-H ) :   0.9721 B( 12-C , 14-H ) :   0.9728 B( 12-C , 15-H ) :   0.9699
B( 16-S , 17-C ) :   1.1702 B( 16-S , 20-C ) :   1.1438 B( 17-C , 18-C ) :   1.6055
B( 17-C , 20-C ) :   0.1028 B( 17-C , 33-H ) :   0.9659 B( 18-C , 19-C ) :   1.2503
B( 18-C , 21-H ) :   0.9793 B( 19-C , 20-C ) :   1.5513 B( 19-C , 22-C ) :   1.0394
B( 22-C , 23-H ) :   0.9217 B( 22-C , 24-H ) :   0.9286 B( 22-C , 25-C ) :   1.0759
B( 25-C , 26-H ) :   0.9501 B( 25-C , 27-H ) :   0.9598 B( 25-C , 28-C ) :   1.0608
B( 28-C , 29-H ) :   0.9743 B( 28-C , 30-H ) :   0.9781 B( 28-C , 31-H ) :   0.9749

Dispersion correction           -0.014548318
FINAL SINGLE POINT ENERGY     -1339.845289636637

DIPOLE MOMENT
-------------
                                X             Y             Z
Electronic contribution:     25.22504      -4.08410      -6.91710
Nuclear contribution   :    -25.62659       4.09289       7.05057
                        -----------------------------------------
Total Dipole Moment    :     -0.40155       0.00879       0.13347
                        -----------------------------------------
Magnitude (a.u.)       :      0.42324
Magnitude (Debye)      :      1.07579

Rotational constants in cm-1:     0.019199     0.008102     0.007045
Rotational constants in MHz :   575.577360   242.885799   211.215439

                             ****ORCA TERMINATED NORMALLY****
TOTAL RUN TIME: 0 days 0 hours 0 minutes 20 seconds 370 msec
