                         Program Version 4.2.1 -  RELEASE  -
|  1> ! wB97X-D3 SP def2-SVP
|  2> %pal
|  3> nprocs 24
|  4> end
|  5>
|  6> * xyz 0 1
|  7> S 	 -127.758 	 67.8211 	 -63.5154
|  8> C 	 -126.437 	 68.98 	 -63.303
|  9> C 	 -126.946 	 70.2304 	 -62.9459
| 10> C 	 -128.385 	 70.3268 	 -62.9747
| 11> C 	 -129.018 	 69.133 	 -63.3862
| 12> H 	 -129 	 71.1417 	 -62.7286
| 13> C 	 -126.093 	 71.5054 	 -62.6639
| 14> H 	 -125.001 	 71.3387 	 -62.7697
| 15> H 	 -126.217 	 71.5995 	 -61.5633
| 16> C 	 -126.311 	 72.7087 	 -63.5664
| 17> H 	 -127.208 	 73.2426 	 -63.3478
| 18> H 	 -125.42 	 73.3443 	 -63.3629
| 19> C 	 -126.346 	 72.3986 	 -65.0855
| 20> H 	 -126.227 	 73.2415 	 -65.7054
| 21> H 	 -125.55 	 71.7152 	 -65.4109
| 22> H 	 -127.282 	 71.8821 	 -65.3482
| 23> S 	 -131.19 	 67.7441 	 -62.3687
| 24> C 	 -132.709 	 67.8145 	 -63.2009
| 25> C 	 -132.675 	 68.7917 	 -64.2023
| 26> C 	 -131.352 	 69.2884 	 -64.4151
| 27> C 	 -130.431 	 68.7817 	 -63.5625
| 28> H 	 -133.552 	 68.9269 	 -64.834
| 29> C 	 -130.976 	 70.4209 	 -65.43
| 30> H 	 -129.931 	 70.7407 	 -65.2619
| 31> H 	 -131.613 	 71.2728 	 -65.1188
| 32> C 	 -131.084 	 70.061 	 -66.8767
| 33> H 	 -130.627 	 70.849 	 -67.4808
| 34> H 	 -132.091 	 69.8226 	 -67.2516
| 35> C 	 -130.334 	 68.7497 	 -67.2211
| 36> H 	 -130.747 	 67.771 	 -66.8345
| 37> H 	 -129.285 	 68.8521 	 -66.9337
| 38> H 	 -130.237 	 68.7407 	 -68.2942
| 39> H 	 -125.343 	 68.73 	 -63.3306
| 40> H 	 -133.567 	 67.211 	 -62.873
| 41> *
| 42>
| 43>                          ****END OF INPUT****

CARTESIAN COORDINATES (ANGSTROEM)
---------------------------------
  S    -127.758000   67.821100  -63.515400
  C    -126.437000   68.980000  -63.303000
  C    -126.946000   70.230400  -62.945900
  C    -128.385000   70.326800  -62.974700
  C    -129.018000   69.133000  -63.386200
  H    -129.000000   71.141700  -62.728600
  C    -126.093000   71.505400  -62.663900
  H    -125.001000   71.338700  -62.769700
  H    -126.217000   71.599500  -61.563300
  C    -126.311000   72.708700  -63.566400
  H    -127.208000   73.242600  -63.347800
  H    -125.420000   73.344300  -63.362900
  C    -126.346000   72.398600  -65.085500
  H    -126.227000   73.241500  -65.705400
  H    -125.550000   71.715200  -65.410900
  H    -127.282000   71.882100  -65.348200
  S    -131.190000   67.744100  -62.368700
  C    -132.709000   67.814500  -63.200900
  C    -132.675000   68.791700  -64.202300
  C    -131.352000   69.288400  -64.415100
  C    -130.431000   68.781700  -63.562500
  H    -133.552000   68.926900  -64.834000
  C    -130.976000   70.420900  -65.430000
  H    -129.931000   70.740700  -65.261900
  H    -131.613000   71.272800  -65.118800
  C    -131.084000   70.061000  -66.876700
  H    -130.627000   70.849000  -67.480800
  H    -132.091000   69.822600  -67.251600
  C    -130.334000   68.749700  -67.221100
  H    -130.747000   67.771000  -66.834500
  H    -129.285000   68.852100  -66.933700
  H    -130.237000   68.740700  -68.294200
  H    -125.343000   68.730000  -63.330600
  H    -133.567000   67.211000  -62.873000

 Total Charge           Charge          ....    0
 Multiplicity           Mult            ....    1
 Number of Electrons    NEL             ....  134
 Basis Dimension        Dim             ....  322

ORBITAL ENERGIES
----------------

  NO   OCC          E(Eh)            E(eV)
   0   2.0000     -88.964260     -2420.8406
   1   2.0000     -88.963412     -2420.8175
   2   2.0000     -10.338863      -281.3348
   3   2.0000     -10.322651      -280.8936
   4   2.0000     -10.322623      -280.8929
   5   2.0000     -10.322217      -280.8818
   6   2.0000     -10.307835      -280.4904
   7   2.0000     -10.303836      -280.3816
   8   2.0000     -10.300533      -280.2918
   9   2.0000     -10.298738      -280.2429
  10   2.0000     -10.298649      -280.2405
  11   2.0000     -10.293260      -280.0939
  12   2.0000     -10.290338      -280.0143
  13   2.0000     -10.283926      -279.8398
  14   2.0000     -10.275810      -279.6190
  15   2.0000     -10.271834      -279.5108
  16   2.0000      -8.078731      -219.8334
  17   2.0000      -8.077522      -219.8006
  18   2.0000      -6.037153      -164.2793
  19   2.0000      -6.036165      -164.2524
  20   2.0000      -6.033183      -164.1713
  21   2.0000      -6.032174      -164.1438
  22   2.0000      -6.029506      -164.0712
  23   2.0000      -6.028278      -164.0378
  24   2.0000      -1.003791       -27.3145
  25   2.0000      -0.975300       -26.5393
  26   2.0000      -0.907651       -24.6984
  27   2.0000      -0.906578       -24.6693
  28   2.0000      -0.865825       -23.5603
  29   2.0000      -0.845774       -23.0147
  30   2.0000      -0.838878       -22.8270
  31   2.0000      -0.811322       -22.0772
  32   2.0000      -0.782780       -21.3005
  33   2.0000      -0.773176       -21.0392
  34   2.0000      -0.704828       -19.1794
  35   2.0000      -0.691425       -18.8146
  36   2.0000      -0.689593       -18.7648
  37   2.0000      -0.657320       -17.8866
  38   2.0000      -0.640522       -17.4295
  39   2.0000      -0.618631       -16.8338
  40   2.0000      -0.596680       -16.2365
  41   2.0000      -0.564149       -15.3513
  42   2.0000      -0.554123       -15.0784
  43   2.0000      -0.550741       -14.9864
  44   2.0000      -0.547193       -14.8899
  45   2.0000      -0.537297       -14.6206
  46   2.0000      -0.515830       -14.0364
  47   2.0000      -0.507934       -13.8216
  48   2.0000      -0.499386       -13.5890
  49   2.0000      -0.492572       -13.4036
  50   2.0000      -0.483014       -13.1435
  51   2.0000      -0.472109       -12.8467
  52   2.0000      -0.467020       -12.7083
  53   2.0000      -0.464383       -12.6365
  54   2.0000      -0.461455       -12.5568
  55   2.0000      -0.446296       -12.1443
  56   2.0000      -0.442622       -12.0444
  57   2.0000      -0.439001       -11.9458
  58   2.0000      -0.432876       -11.7791
  59   2.0000      -0.421035       -11.4570
  60   2.0000      -0.415217       -11.2986
  61   2.0000      -0.407181       -11.0800
  62   2.0000      -0.405181       -11.0255
  63   2.0000      -0.339103        -9.2275
  64   2.0000      -0.332517        -9.0482
  65   2.0000      -0.326223        -8.8770
  66   2.0000      -0.300916        -8.1883
  67   0.0000       0.031757         0.8642
  68   0.0000       0.059845         1.6285
  69   0.0000       0.111588         3.0365
  70   0.0000       0.119589         3.2542
  71   0.0000       0.127485         3.4691

MULLIKEN ATOMIC CHARGES
-----------------------
   0 S :    0.093791
   1 C :   -0.130630
   2 C :   -0.103422
   3 C :    0.078869
   4 C :   -0.188553
   5 H :    0.002035
   6 C :    0.034024
   7 H :    0.018920
   8 H :    0.051382
   9 C :   -0.067265
  10 H :    0.029880
  11 H :    0.038924
  12 C :   -0.046625
  13 H :    0.027799
  14 H :    0.022109
  15 H :    0.041044
  16 S :    0.111547
  17 C :   -0.113803
  18 C :   -0.037265
  19 C :   -0.038927
  20 C :   -0.163394
  21 H :    0.029103
  22 C :    0.081164
  23 H :    0.027136
  24 H :    0.038999
  25 C :   -0.073912
  26 H :    0.033154
  27 H :    0.031490
  28 C :   -0.075460
  29 H :    0.060946
  30 H :    0.020891
  31 H :    0.021473
  32 H :    0.071612
  33 H :    0.072964
Sum of atomic charges:   -0.0000000

LOEWDIN ATOMIC CHARGES
----------------------
   0 S :    0.368940
   1 C :   -0.200993
   2 C :   -0.067369
   3 C :   -0.051826
   4 C :   -0.166460
   5 H :    0.025940
   6 C :   -0.040691
   7 H :    0.030624
   8 H :    0.040125
   9 C :   -0.041124
  10 H :    0.017463
  11 H :    0.032246
  12 C :   -0.063388
  13 H :    0.020199
  14 H :    0.025891
  15 H :    0.028027
  16 S :    0.409849
  17 C :   -0.184270
  18 C :   -0.077027
  19 C :   -0.052014
  20 C :   -0.212401
  21 H :    0.034147
  22 C :   -0.031532
  23 H :    0.031732
  24 H :    0.034421
  25 C :   -0.046010
  26 H :    0.028542
  27 H :    0.023062
  28 C :   -0.071719
  29 H :    0.034469
  30 H :    0.021925
  31 H :    0.022302
  32 H :    0.042456
  33 H :    0.034464

  Mayer bond orders larger than 0.100000
B(  0-S ,  1-C ) :   1.1330 B(  0-S ,  4-C ) :   1.1399 B(  1-C ,  2-C ) :   1.6233
B(  1-C ,  4-C ) :   0.1055 B(  1-C , 32-H ) :   0.9611 B(  2-C ,  3-C ) :   1.2127
B(  2-C ,  6-C ) :   1.0100 B(  3-C ,  4-C ) :   1.5813 B(  3-C ,  5-H ) :   1.0027
B(  4-C , 20-C ) :   1.0190 B(  6-C ,  7-H ) :   0.9507 B(  6-C ,  8-H ) :   0.9431
B(  6-C ,  9-C ) :   1.0604 B(  9-C , 10-H ) :   0.9559 B(  9-C , 11-H ) :   0.9599
B(  9-C , 12-C ) :   1.0779 B( 12-C , 13-H ) :   0.9741 B( 12-C , 14-H ) :   0.9743
B( 12-C , 15-H ) :   0.9697 B( 16-S , 17-C ) :   1.1720 B( 16-S , 20-C ) :   1.1410
B( 17-C , 18-C ) :   1.5903 B( 17-C , 33-H ) :   0.9673 B( 18-C , 19-C ) :   1.2330
B( 18-C , 21-H ) :   0.9923 B( 19-C , 20-C ) :   1.6269 B( 19-C , 22-C ) :   1.0210
B( 22-C , 23-H ) :   0.9318 B( 22-C , 24-H ) :   0.9380 B( 22-C , 25-C ) :   1.0805
B( 25-C , 26-H ) :   0.9548 B( 25-C , 27-H ) :   0.9573 B( 25-C , 28-C ) :   1.0768
B( 28-C , 29-H ) :   0.9708 B( 28-C , 30-H ) :   0.9739 B( 28-C , 31-H ) :   0.9727

Dispersion correction           -0.015898231
FINAL SINGLE POINT ENERGY     -1339.879671739094

DIPOLE MOMENT
-------------
                                X             Y             Z
Electronic contribution:     -7.25402     -18.80656      16.44770
Nuclear contribution   :      7.26996      19.40873     -16.65094
                        -----------------------------------------
Total Dipole Moment    :      0.01594       0.60217      -0.20323
                        -----------------------------------------
Magnitude (a.u.)       :      0.63574
Magnitude (Debye)      :      1.61592

Rotational constants in cm-1:     0.019460     0.009426     0.007770
Rotational constants in MHz :   583.392742   282.579809   232.929258

                             ****ORCA TERMINATED NORMALLY****
TOTAL RUN TIME: 0 days 0 hours 0 minutes 21 seconds 612 msec
