                         Program Version 4.2.1 -  RELEASE  -
|  1> ! wB97X-D3 SP def2-SVP
|  2> %pal
|  3> nprocs 24
|  4> end
|  5>
|  6> * xyz 0 1
|  7> S 	 -116.765 	 62.9998 	 -82.5254
|  8> C 	 -117.509 	 63.5481 	 -81.0259
|  9> C 	 -116.913 	 62.9435 	 -79.9397
| 10> C 	 -115.91 	 62.0112 	 -80.3136
| 11> C 	 -115.825 	 61.7828 	 -81.6785
| 12> H 	 -115.253 	 61.4902 	 -79.6921
| 13> C 	 -117.291 	 63.2202 	 -78.4812
| 14> H 	 -117.541 	 64.265 	 -78.3718
| 15> H 	 -116.401 	 63.1053 	 -77.8585
| 16> C 	 -118.343 	 62.3214 	 -77.7685
| 17> H 	 -118.254 	 62.4585 	 -76.698
| 18> H 	 -119.443 	 62.6107 	 -77.8467
| 19> C 	 -118.051 	 60.8439 	 -77.9334
| 20> H 	 -118.991 	 60.2874 	 -77.5024
| 21> H 	 -117.92 	 60.6178 	 -79.0024
| 22> H 	 -117.18 	 60.4926 	 -77.3857
| 23> S 	 -113.985 	 61.5054 	 -83.7184
| 24> C 	 -113.416 	 59.8896 	 -84.169
| 25> C 	 -113.872 	 58.9702 	 -83.2104
| 26> C 	 -114.736 	 59.4929 	 -82.2135
| 27> C 	 -114.963 	 60.8476 	 -82.405
| 28> H 	 -113.712 	 57.9321 	 -83.4007
| 29> C 	 -115.44 	 58.535 	 -81.2308
| 30> H 	 -115.938 	 57.8005 	 -81.9241
| 31> H 	 -116.167 	 59.1073 	 -80.647
| 32> C 	 -114.634 	 57.8417 	 -80.1169
| 33> H 	 -114.331 	 58.6184 	 -79.4368
| 34> H 	 -113.77 	 57.3603 	 -80.4939
| 35> C 	 -115.511 	 56.8278 	 -79.3374
| 36> H 	 -115.8 	 55.9378 	 -79.8888
| 37> H 	 -116.438 	 57.283 	 -79.0335
| 38> H 	 -114.967 	 56.5179 	 -78.4014
| 39> H 	 -118.362 	 64.1975 	 -80.9594
| 40> H 	 -112.712 	 59.7278 	 -85.0009
| 41> *
| 42>
| 43>                          ****END OF INPUT****

CARTESIAN COORDINATES (ANGSTROEM)
---------------------------------
  S    -116.765000   62.999800  -82.525400
  C    -117.509000   63.548100  -81.025900
  C    -116.913000   62.943500  -79.939700
  C    -115.910000   62.011200  -80.313600
  C    -115.825000   61.782800  -81.678500
  H    -115.253000   61.490200  -79.692100
  C    -117.291000   63.220200  -78.481200
  H    -117.541000   64.265000  -78.371800
  H    -116.401000   63.105300  -77.858500
  C    -118.343000   62.321400  -77.768500
  H    -118.254000   62.458500  -76.698000
  H    -119.443000   62.610700  -77.846700
  C    -118.051000   60.843900  -77.933400
  H    -118.991000   60.287400  -77.502400
  H    -117.920000   60.617800  -79.002400
  H    -117.180000   60.492600  -77.385700
  S    -113.985000   61.505400  -83.718400
  C    -113.416000   59.889600  -84.169000
  C    -113.872000   58.970200  -83.210400
  C    -114.736000   59.492900  -82.213500
  C    -114.963000   60.847600  -82.405000
  H    -113.712000   57.932100  -83.400700
  C    -115.440000   58.535000  -81.230800
  H    -115.938000   57.800500  -81.924100
  H    -116.167000   59.107300  -80.647000
  C    -114.634000   57.841700  -80.116900
  H    -114.331000   58.618400  -79.436800
  H    -113.770000   57.360300  -80.493900
  C    -115.511000   56.827800  -79.337400
  H    -115.800000   55.937800  -79.888800
  H    -116.438000   57.283000  -79.033500
  H    -114.967000   56.517900  -78.401400
  H    -118.362000   64.197500  -80.959400
  H    -112.712000   59.727800  -85.000900

 Total Charge           Charge          ....    0
 Multiplicity           Mult            ....    1
 Number of Electrons    NEL             ....  134
 Basis Dimension        Dim             ....  322

ORBITAL ENERGIES
----------------

  NO   OCC          E(Eh)            E(eV)
   0   2.0000     -88.966323     -2420.8967
   1   2.0000     -88.965673     -2420.8790
   2   2.0000     -10.331385      -281.1313
   3   2.0000     -10.330354      -281.1032
   4   2.0000     -10.324757      -280.9509
   5   2.0000     -10.314982      -280.6849
   6   2.0000     -10.305942      -280.4389
   7   2.0000     -10.302885      -280.3557
   8   2.0000     -10.297893      -280.2199
   9   2.0000     -10.294879      -280.1379
  10   2.0000     -10.294792      -280.1355
  11   2.0000     -10.291717      -280.0519
  12   2.0000     -10.291067      -280.0342
  13   2.0000     -10.285923      -279.8942
  14   2.0000     -10.284580      -279.8577
  15   2.0000     -10.281890      -279.7844
  16   2.0000      -8.080804      -219.8899
  17   2.0000      -8.079963      -219.8670
  18   2.0000      -6.039337      -164.3387
  19   2.0000      -6.038483      -164.3155
  20   2.0000      -6.035318      -164.2293
  21   2.0000      -6.034495      -164.2070
  22   2.0000      -6.031577      -164.1276
  23   2.0000      -6.030776      -164.1058
  24   2.0000      -1.005340       -27.3567
  25   2.0000      -0.982241       -26.7281
  26   2.0000      -0.909429       -24.7468
  27   2.0000      -0.906546       -24.6684
  28   2.0000      -0.867914       -23.6171
  29   2.0000      -0.852580       -23.1999
  30   2.0000      -0.844185       -22.9714
  31   2.0000      -0.813768       -22.1438
  32   2.0000      -0.781322       -21.2608
  33   2.0000      -0.771745       -21.0002
  34   2.0000      -0.706135       -19.2149
  35   2.0000      -0.698262       -19.0007
  36   2.0000      -0.695550       -18.9269
  37   2.0000      -0.663844       -18.0641
  38   2.0000      -0.644731       -17.5440
  39   2.0000      -0.615445       -16.7471
  40   2.0000      -0.595964       -16.2170
  41   2.0000      -0.568301       -15.4643
  42   2.0000      -0.567832       -15.4515
  43   2.0000      -0.551857       -15.0168
  44   2.0000      -0.542799       -14.7703
  45   2.0000      -0.523014       -14.2319
  46   2.0000      -0.514023       -13.9873
  47   2.0000      -0.509454       -13.8629
  48   2.0000      -0.508156       -13.8276
  49   2.0000      -0.498140       -13.5551
  50   2.0000      -0.494059       -13.4440
  51   2.0000      -0.479432       -13.0460
  52   2.0000      -0.470769       -12.8103
  53   2.0000      -0.465037       -12.6543
  54   2.0000      -0.458137       -12.4665
  55   2.0000      -0.445157       -12.1133
  56   2.0000      -0.437559       -11.9066
  57   2.0000      -0.437247       -11.8981
  58   2.0000      -0.433097       -11.7852
  59   2.0000      -0.430202       -11.7064
  60   2.0000      -0.426782       -11.6133
  61   2.0000      -0.419142       -11.4054
  62   2.0000      -0.403500       -10.9798
  63   2.0000      -0.348122        -9.4729
  64   2.0000      -0.332823        -9.0566
  65   2.0000      -0.331138        -9.0107
  66   2.0000      -0.290622        -7.9082
  67   0.0000       0.024534         0.6676
  68   0.0000       0.067869         1.8468
  69   0.0000       0.106629         2.9015
  70   0.0000       0.118174         3.2157
  71   0.0000       0.126824         3.4510

MULLIKEN ATOMIC CHARGES
-----------------------
   0 S :    0.105579
   1 C :   -0.109552
   2 C :   -0.085930
   3 C :    0.046803
   4 C :   -0.157784
   5 H :   -0.014284
   6 C :    0.084823
   7 H :    0.023118
   8 H :    0.020290
   9 C :   -0.072433
  10 H :    0.019098
  11 H :    0.037725
  12 C :   -0.107660
  13 H :    0.047416
  14 H :    0.063379
  15 H :    0.034251
  16 S :    0.096863
  17 C :   -0.113125
  18 C :   -0.029161
  19 C :   -0.008424
  20 C :   -0.156796
  21 H :    0.015714
  22 C :    0.024515
  23 H :    0.045909
  24 H :    0.019537
  25 C :   -0.035773
  26 H :    0.023481
  27 H :    0.021593
  28 C :   -0.056340
  29 H :    0.033776
  30 H :    0.022021
  31 H :    0.042057
  32 H :    0.044370
  33 H :    0.074945
Sum of atomic charges:   -0.0000000

LOEWDIN ATOMIC CHARGES
----------------------
   0 S :    0.399828
   1 C :   -0.185488
   2 C :   -0.065917
   3 C :   -0.058313
   4 C :   -0.186231
   5 H :    0.020333
   6 C :   -0.032225
   7 H :    0.029608
   8 H :    0.033603
   9 C :   -0.053279
  10 H :    0.024018
  11 H :    0.029345
  12 C :   -0.075300
  13 H :    0.040434
  14 H :    0.024993
  15 H :    0.021608
  16 S :    0.389091
  17 C :   -0.180739
  18 C :   -0.068344
  19 C :   -0.060570
  20 C :   -0.193231
  21 H :    0.026997
  22 C :   -0.031397
  23 H :    0.038375
  24 H :    0.028258
  25 C :   -0.032640
  26 H :    0.023351
  27 H :    0.015563
  28 C :   -0.064127
  29 H :    0.024111
  30 H :    0.021175
  31 H :    0.033455
  32 H :    0.027806
  33 H :    0.035851

  Mayer bond orders larger than 0.100000
B(  0-S ,  1-C ) :   1.1362 B(  0-S ,  4-C ) :   1.1547 B(  1-C ,  2-C ) :   1.6085
B(  1-C ,  4-C ) :   0.1008 B(  1-C , 32-H ) :   0.9732 B(  2-C ,  3-C ) :   1.2298
B(  2-C ,  6-C ) :   1.0251 B(  3-C ,  4-C ) :   1.5580 B(  3-C ,  5-H ) :   1.0084
B(  4-C , 20-C ) :   1.0373 B(  6-C ,  7-H ) :   0.9415 B(  6-C ,  8-H ) :   0.9402
B(  6-C ,  9-C ) :   1.0650 B(  9-C , 10-H ) :   0.9517 B(  9-C , 11-H ) :   0.9605
B(  9-C , 12-C ) :   1.0704 B( 12-C , 13-H ) :   0.9699 B( 12-C , 14-H ) :   0.9728
B( 12-C , 15-H ) :   0.9758 B( 16-S , 17-C ) :   1.1448 B( 16-S , 20-C ) :   1.1482
B( 17-C , 18-C ) :   1.5977 B( 17-C , 20-C ) :   0.1042 B( 17-C , 33-H ) :   0.9683
B( 18-C , 19-C ) :   1.2403 B( 18-C , 21-H ) :   0.9907 B( 19-C , 20-C ) :   1.5966
B( 19-C , 22-C ) :   1.0325 B( 22-C , 23-H ) :   0.9428 B( 22-C , 24-H ) :   0.9338
B( 22-C , 25-C ) :   1.0641 B( 25-C , 26-H ) :   0.9519 B( 25-C , 27-H ) :   0.9574
B( 25-C , 28-C ) :   1.0830 B( 28-C , 29-H ) :   0.9766 B( 28-C , 30-H ) :   0.9732
B( 28-C , 31-H ) :   0.9747

Dispersion correction           -0.014700873
FINAL SINGLE POINT ENERGY     -1339.881796483235

DIPOLE MOMENT
-------------
                                X             Y             Z
Electronic contribution:      8.43745      16.94267     -26.60561
Nuclear contribution   :     -8.51848     -17.32858      27.18271
                        -----------------------------------------
Total Dipole Moment    :     -0.08103      -0.38591       0.57710
                        -----------------------------------------
Magnitude (a.u.)       :      0.69896
Magnitude (Debye)      :      1.77660

Rotational constants in cm-1:     0.016049     0.010584     0.006719
Rotational constants in MHz :   481.135934   317.300006   201.444665

                             ****ORCA TERMINATED NORMALLY****
TOTAL RUN TIME: 0 days 0 hours 0 minutes 22 seconds 54 msec
