                         Program Version 4.2.1 -  RELEASE  -
|  1> ! wB97X-D3 SP def2-SVP
|  2> %pal
|  3> nprocs 24
|  4> end
|  5>
|  6> * xyz 0 1
|  7> S 	 -60.432 	 18.021 	 20.7242
|  8> C 	 -60.6877 	 17.6907 	 22.4188
|  9> C 	 -59.5005 	 17.6499 	 23.1288
| 10> C 	 -58.4008 	 17.7567 	 22.2098
| 11> C 	 -58.7215 	 17.8682 	 20.8934
| 12> H 	 -57.3516 	 17.6911 	 22.4518
| 13> C 	 -59.2459 	 17.382 	 24.6622
| 14> H 	 -58.1265 	 17.4168 	 24.7647
| 15> H 	 -59.4695 	 16.2846 	 24.9125
| 16> C 	 -60.0213 	 18.2714 	 25.6905
| 17> H 	 -59.619 	 19.2417 	 25.7839
| 18> H 	 -61.0093 	 18.4506 	 25.2101
| 19> C 	 -60.2474 	 17.6282 	 27.043
| 20> H 	 -59.3575 	 17.1016 	 27.4682
| 21> H 	 -60.6234 	 18.38 	 27.7746
| 22> H 	 -60.9649 	 16.8839 	 26.8957
| 23> S 	 -57.7701 	 19.4342 	 18.7282
| 24> C 	 -56.8512 	 18.5637 	 17.5353
| 25> C 	 -56.691 	 17.2124 	 17.7621
| 26> C 	 -57.3644 	 16.8829 	 19.0208
| 27> C 	 -57.9133 	 17.9369 	 19.7238
| 28> H 	 -56.0601 	 16.5574 	 17.1892
| 29> C 	 -57.3943 	 15.3953 	 19.4856
| 30> H 	 -58.3872 	 15.0771 	 19.3844
| 31> H 	 -57.2122 	 15.4708 	 20.5385
| 32> C 	 -56.3821 	 14.3723 	 18.9325
| 33> H 	 -55.334 	 14.7419 	 19.0256
| 34> H 	 -56.6567 	 14.1943 	 17.9417
| 35> C 	 -56.3799 	 13.001 	 19.6696
| 36> H 	 -56.2762 	 13.2164 	 20.7566
| 37> H 	 -55.4917 	 12.4248 	 19.6
| 38> H 	 -57.2551 	 12.3635 	 19.4589
| 39> H 	 -61.5644 	 17.3208 	 22.9178
| 40> H 	 -56.3258 	 19.163 	 16.7052
| 41> *
| 42>
| 43>                          ****END OF INPUT****

CARTESIAN COORDINATES (ANGSTROEM)
---------------------------------
  S    -60.432000   18.021000   20.724200
  C    -60.687700   17.690700   22.418800
  C    -59.500500   17.649900   23.128800
  C    -58.400800   17.756700   22.209800
  C    -58.721500   17.868200   20.893400
  H    -57.351600   17.691100   22.451800
  C    -59.245900   17.382000   24.662200
  H    -58.126500   17.416800   24.764700
  H    -59.469500   16.284600   24.912500
  C    -60.021300   18.271400   25.690500
  H    -59.619000   19.241700   25.783900
  H    -61.009300   18.450600   25.210100
  C    -60.247400   17.628200   27.043000
  H    -59.357500   17.101600   27.468200
  H    -60.623400   18.380000   27.774600
  H    -60.964900   16.883900   26.895700
  S    -57.770100   19.434200   18.728200
  C    -56.851200   18.563700   17.535300
  C    -56.691000   17.212400   17.762100
  C    -57.364400   16.882900   19.020800
  C    -57.913300   17.936900   19.723800
  H    -56.060100   16.557400   17.189200
  C    -57.394300   15.395300   19.485600
  H    -58.387200   15.077100   19.384400
  H    -57.212200   15.470800   20.538500
  C    -56.382100   14.372300   18.932500
  H    -55.334000   14.741900   19.025600
  H    -56.656700   14.194300   17.941700
  C    -56.379900   13.001000   19.669600
  H    -56.276200   13.216400   20.756600
  H    -55.491700   12.424800   19.600000
  H    -57.255100   12.363500   19.458900
  H    -61.564400   17.320800   22.917800
  H    -56.325800   19.163000   16.705200

 Total Charge           Charge          ....    0
 Multiplicity           Mult            ....    1
 Number of Electrons    NEL             ....  134
 Basis Dimension        Dim             ....  322

ORBITAL ENERGIES
----------------

  NO   OCC          E(Eh)            E(eV)
   0   2.0000     -88.964940     -2420.8591
   1   2.0000     -88.963910     -2420.8311
   2   2.0000     -10.325916      -280.9825
   3   2.0000     -10.323475      -280.9160
   4   2.0000     -10.320597      -280.8377
   5   2.0000     -10.312094      -280.6064
   6   2.0000     -10.309437      -280.5340
   7   2.0000     -10.308921      -280.5200
   8   2.0000     -10.305184      -280.4183
   9   2.0000     -10.296773      -280.1894
  10   2.0000     -10.290624      -280.0221
  11   2.0000     -10.289597      -279.9942
  12   2.0000     -10.287269      -279.9308
  13   2.0000     -10.284462      -279.8544
  14   2.0000     -10.280955      -279.7590
  15   2.0000     -10.279831      -279.7284
  16   2.0000      -8.079302      -219.8490
  17   2.0000      -8.079271      -219.8481
  18   2.0000      -6.037919      -164.3001
  19   2.0000      -6.037791      -164.2966
  20   2.0000      -6.033900      -164.1908
  21   2.0000      -6.033681      -164.1848
  22   2.0000      -6.029981      -164.0841
  23   2.0000      -6.029907      -164.0821
  24   2.0000      -1.007830       -27.4244
  25   2.0000      -0.980485       -26.6804
  26   2.0000      -0.905408       -24.6374
  27   2.0000      -0.904241       -24.6057
  28   2.0000      -0.873131       -23.7591
  29   2.0000      -0.849341       -23.1117
  30   2.0000      -0.844346       -22.9758
  31   2.0000      -0.812971       -22.1221
  32   2.0000      -0.783674       -21.3249
  33   2.0000      -0.771123       -20.9833
  34   2.0000      -0.708190       -19.2708
  35   2.0000      -0.703889       -19.1538
  36   2.0000      -0.693959       -18.8836
  37   2.0000      -0.651317       -17.7232
  38   2.0000      -0.643002       -17.4970
  39   2.0000      -0.613087       -16.6830
  40   2.0000      -0.592747       -16.1295
  41   2.0000      -0.577382       -15.7114
  42   2.0000      -0.567535       -15.4434
  43   2.0000      -0.558920       -15.2090
  44   2.0000      -0.524201       -14.2642
  45   2.0000      -0.522955       -14.2303
  46   2.0000      -0.513710       -13.9788
  47   2.0000      -0.510769       -13.8987
  48   2.0000      -0.500893       -13.6300
  49   2.0000      -0.494835       -13.4652
  50   2.0000      -0.494129       -13.4459
  51   2.0000      -0.477452       -12.9921
  52   2.0000      -0.468013       -12.7353
  53   2.0000      -0.466977       -12.7071
  54   2.0000      -0.458895       -12.4872
  55   2.0000      -0.452129       -12.3031
  56   2.0000      -0.442275       -12.0349
  57   2.0000      -0.438975       -11.9451
  58   2.0000      -0.437727       -11.9112
  59   2.0000      -0.425693       -11.5837
  60   2.0000      -0.421619       -11.4728
  61   2.0000      -0.412590       -11.2271
  62   2.0000      -0.408606       -11.1187
  63   2.0000      -0.335467        -9.1285
  64   2.0000      -0.332759        -9.0548
  65   2.0000      -0.328734        -8.9453
  66   2.0000      -0.300997        -8.1905
  67   0.0000       0.044425         1.2089
  68   0.0000       0.049907         1.3580
  69   0.0000       0.116398         3.1674
  70   0.0000       0.122061         3.3214
  71   0.0000       0.127824         3.4783

MULLIKEN ATOMIC CHARGES
-----------------------
   0 S :    0.123981
   1 C :   -0.115892
   2 C :   -0.086076
   3 C :    0.047617
   4 C :   -0.198161
   5 H :    0.002865
   6 C :    0.019584
   7 H :    0.031377
   8 H :    0.045082
   9 C :   -0.054580
  10 H :    0.026244
  11 H :    0.027296
  12 C :   -0.054179
  13 H :    0.039041
  14 H :    0.045142
  15 H :    0.020601
  16 S :    0.103526
  17 C :   -0.111421
  18 C :   -0.014408
  19 C :   -0.077949
  20 C :   -0.161117
  21 H :    0.024736
  22 C :    0.121072
  23 H :    0.025783
  24 H :    0.008994
  25 C :   -0.075978
  26 H :    0.040287
  27 H :    0.025453
  28 C :   -0.050752
  29 H :    0.020746
  30 H :    0.023611
  31 H :    0.046720
  32 H :    0.045135
  33 H :    0.085620
Sum of atomic charges:   -0.0000000

LOEWDIN ATOMIC CHARGES
----------------------
   0 S :    0.420322
   1 C :   -0.200386
   2 C :   -0.064819
   3 C :   -0.060605
   4 C :   -0.204793
   5 H :    0.029098
   6 C :   -0.036508
   7 H :    0.032284
   8 H :    0.038158
   9 C :   -0.042435
  10 H :    0.018428
  11 H :    0.028460
  12 C :   -0.065714
  13 H :    0.029314
  14 H :    0.034569
  15 H :    0.016518
  16 S :    0.382986
  17 C :   -0.184356
  18 C :   -0.079176
  19 C :   -0.033807
  20 C :   -0.208882
  21 H :    0.032551
  22 C :   -0.027208
  23 H :    0.027987
  24 H :    0.027227
  25 C :   -0.037884
  26 H :    0.031830
  27 H :    0.013978
  28 C :   -0.069230
  29 H :    0.029302
  30 H :    0.022936
  31 H :    0.028617
  32 H :    0.028158
  33 H :    0.043084

  Mayer bond orders larger than 0.100000
B(  0-S ,  1-C ) :   1.1452 B(  0-S ,  4-C ) :   1.1418 B(  1-C ,  2-C ) :   1.6282
B(  1-C , 32-H ) :   0.9625 B(  2-C ,  3-C ) :   1.2349 B(  2-C ,  6-C ) :   1.0002
B(  3-C ,  4-C ) :   1.6182 B(  3-C ,  5-H ) :   0.9917 B(  4-C , 20-C ) :   1.0450
B(  6-C ,  7-H ) :   0.9446 B(  6-C ,  8-H ) :   0.9498 B(  6-C ,  9-C ) :   1.0381
B(  9-C , 10-H ) :   0.9597 B(  9-C , 11-H ) :   0.9621 B(  9-C , 12-C ) :   1.0758
B( 12-C , 13-H ) :   0.9763 B( 12-C , 14-H ) :   0.9730 B( 12-C , 15-H ) :   0.9762
B( 16-S , 17-C ) :   1.1707 B( 16-S , 20-C ) :   1.0982 B( 17-C , 18-C ) :   1.6126
B( 17-C , 33-H ) :   0.9484 B( 18-C , 19-C ) :   1.2215 B( 18-C , 21-H ) :   0.9906
B( 19-C , 20-C ) :   1.6492 B( 19-C , 22-C ) :   1.0155 B( 22-C , 23-H ) :   0.9238
B( 22-C , 24-H ) :   0.9305 B( 22-C , 25-C ) :   1.0737 B( 25-C , 26-H ) :   0.9576
B( 25-C , 27-H ) :   0.9483 B( 25-C , 28-C ) :   1.0858 B( 28-C , 29-H ) :   0.9703
B( 28-C , 30-H ) :   0.9737 B( 28-C , 31-H ) :   0.9769

Dispersion correction           -0.013359030
FINAL SINGLE POINT ENERGY     -1339.862850570863

DIPOLE MOMENT
-------------
                                X             Y             Z
Electronic contribution:     -4.87969      18.85477     -19.94142
Nuclear contribution   :      5.19138     -19.43425      20.27885
                        -----------------------------------------
Total Dipole Moment    :      0.31168      -0.57948       0.33744
                        -----------------------------------------
Magnitude (a.u.)       :      0.73946
Magnitude (Debye)      :      1.87957

Rotational constants in cm-1:     0.019028     0.007222     0.005799
Rotational constants in MHz :   570.455257   216.504644   173.852334

                             ****ORCA TERMINATED NORMALLY****
TOTAL RUN TIME: 0 days 0 hours 0 minutes 20 seconds 632 msec
