                         Program Version 4.2.1 -  RELEASE  -
|  1> ! wB97X-D3 SP def2-SVP
|  2> %pal
|  3> nprocs 24
|  4> end
|  5>
|  6> * xyz 0 1
|  7> S 	 -134.902 	 5.97836 	 5.27744
|  8> C 	 -134.441 	 4.46324 	 4.57372
|  9> C 	 -133.447 	 3.80813 	 5.29397
| 10> C 	 -132.977 	 4.66528 	 6.38596
| 11> C 	 -133.692 	 5.83562 	 6.5582
| 12> H 	 -132.142 	 4.52814 	 7.07896
| 13> C 	 -132.933 	 2.43084 	 4.94153
| 14> H 	 -133.269 	 2.24695 	 3.89867
| 15> H 	 -133.54 	 1.68281 	 5.47755
| 16> C 	 -131.452 	 2.1794 	 5.11212
| 17> H 	 -131.003 	 2.93528 	 4.55447
| 18> H 	 -131.137 	 2.27271 	 6.18395
| 19> C 	 -130.867 	 0.864902 	 4.59273
| 20> H 	 -131.233 	 0.00386226 	 5.14169
| 21> H 	 -131.045 	 0.841487 	 3.53388
| 22> H 	 -129.782 	 0.851394 	 4.73066
| 23> S 	 -133.137 	 8.44981 	 6.92278
| 24> C 	 -132.98 	 9.06982 	 8.5161
| 25> C 	 -133.292 	 8.1082 	 9.46677
| 26> C 	 -133.603 	 6.83765 	 8.92106
| 27> C 	 -133.429 	 6.82074 	 7.54643
| 28> H 	 -133.331 	 8.35111 	 10.5154
| 29> C 	 -134.177 	 5.59431 	 9.60447
| 30> H 	 -133.835 	 4.69376 	 9.07347
| 31> H 	 -135.258 	 5.67836 	 9.49942
| 32> C 	 -133.992 	 5.42346 	 11.177
| 33> H 	 -134.613 	 4.61798 	 11.5091
| 34> H 	 -134.416 	 6.26547 	 11.6853
| 35> C 	 -132.533 	 5.25905 	 11.5579
| 36> H 	 -132.69 	 4.89305 	 12.5756
| 37> H 	 -132.008 	 6.21456 	 11.4464
| 38> H 	 -131.925 	 4.50207 	 10.967
| 39> H 	 -134.952 	 3.99437 	 3.77432
| 40> H 	 -132.74 	 10.0544 	 8.84431
| 41> *
| 42>
| 43>                          ****END OF INPUT****

CARTESIAN COORDINATES (ANGSTROEM)
---------------------------------
  S    -134.902000    5.978360    5.277440
  C    -134.441000    4.463240    4.573720
  C    -133.447000    3.808130    5.293970
  C    -132.977000    4.665280    6.385960
  C    -133.692000    5.835620    6.558200
  H    -132.142000    4.528140    7.078960
  C    -132.933000    2.430840    4.941530
  H    -133.269000    2.246950    3.898670
  H    -133.540000    1.682810    5.477550
  C    -131.452000    2.179400    5.112120
  H    -131.003000    2.935280    4.554470
  H    -131.137000    2.272710    6.183950
  C    -130.867000    0.864902    4.592730
  H    -131.233000    0.003862    5.141690
  H    -131.045000    0.841487    3.533880
  H    -129.782000    0.851394    4.730660
  S    -133.137000    8.449810    6.922780
  C    -132.980000    9.069820    8.516100
  C    -133.292000    8.108200    9.466770
  C    -133.603000    6.837650    8.921060
  C    -133.429000    6.820740    7.546430
  H    -133.331000    8.351110   10.515400
  C    -134.177000    5.594310    9.604470
  H    -133.835000    4.693760    9.073470
  H    -135.258000    5.678360    9.499420
  C    -133.992000    5.423460   11.177000
  H    -134.613000    4.617980   11.509100
  H    -134.416000    6.265470   11.685300
  C    -132.533000    5.259050   11.557900
  H    -132.690000    4.893050   12.575600
  H    -132.008000    6.214560   11.446400
  H    -131.925000    4.502070   10.967000
  H    -134.952000    3.994370    3.774320
  H    -132.740000   10.054400    8.844310

 Total Charge           Charge          ....    0
 Multiplicity           Mult            ....    1
 Number of Electrons    NEL             ....  134
 Basis Dimension        Dim             ....  322

ORBITAL ENERGIES
----------------

  NO   OCC          E(Eh)            E(eV)
   0   2.0000     -88.965624     -2420.8777
   1   2.0000     -88.964701     -2420.8526
   2   2.0000     -10.324585      -280.9462
   3   2.0000     -10.319773      -280.8153
   4   2.0000     -10.314583      -280.6741
   5   2.0000     -10.310215      -280.5552
   6   2.0000     -10.305642      -280.4308
   7   2.0000     -10.305004      -280.4134
   8   2.0000     -10.295768      -280.1621
   9   2.0000     -10.294589      -280.1300
  10   2.0000     -10.292545      -280.0744
  11   2.0000     -10.292380      -280.0699
  12   2.0000     -10.285125      -279.8725
  13   2.0000     -10.282864      -279.8110
  14   2.0000     -10.280442      -279.7451
  15   2.0000     -10.277597      -279.6676
  16   2.0000      -8.080593      -219.8841
  17   2.0000      -8.079345      -219.8502
  18   2.0000      -6.039015      -164.3299
  19   2.0000      -6.037909      -164.2999
  20   2.0000      -6.035060      -164.2223
  21   2.0000      -6.033778      -164.1874
  22   2.0000      -6.031432      -164.1236
  23   2.0000      -6.030145      -164.0886
  24   2.0000      -1.007622       -27.4188
  25   2.0000      -0.982139       -26.7254
  26   2.0000      -0.913715       -24.8634
  27   2.0000      -0.904482       -24.6122
  28   2.0000      -0.875556       -23.8251
  29   2.0000      -0.852741       -23.2042
  30   2.0000      -0.844650       -22.9841
  31   2.0000      -0.816141       -22.2083
  32   2.0000      -0.782682       -21.2978
  33   2.0000      -0.770882       -20.9768
  34   2.0000      -0.712278       -19.3821
  35   2.0000      -0.699025       -19.0214
  36   2.0000      -0.691822       -18.8254
  37   2.0000      -0.655592       -17.8396
  38   2.0000      -0.645534       -17.5659
  39   2.0000      -0.612508       -16.6672
  40   2.0000      -0.593117       -16.1395
  41   2.0000      -0.575322       -15.6553
  42   2.0000      -0.563407       -15.3311
  43   2.0000      -0.547204       -14.8902
  44   2.0000      -0.544635       -14.8203
  45   2.0000      -0.523557       -14.2467
  46   2.0000      -0.516586       -14.0570
  47   2.0000      -0.510222       -13.8838
  48   2.0000      -0.505756       -13.7623
  49   2.0000      -0.503812       -13.7094
  50   2.0000      -0.499183       -13.5835
  51   2.0000      -0.483270       -13.1504
  52   2.0000      -0.466609       -12.6971
  53   2.0000      -0.465709       -12.6726
  54   2.0000      -0.461309       -12.5529
  55   2.0000      -0.452849       -12.3227
  56   2.0000      -0.449299       -12.2260
  57   2.0000      -0.434852       -11.8329
  58   2.0000      -0.428500       -11.6601
  59   2.0000      -0.423938       -11.5359
  60   2.0000      -0.420089       -11.4312
  61   2.0000      -0.419561       -11.4168
  62   2.0000      -0.405223       -11.0267
  63   2.0000      -0.342626        -9.3233
  64   2.0000      -0.331576        -9.0226
  65   2.0000      -0.324460        -8.8290
  66   2.0000      -0.292462        -7.9583
  67   0.0000       0.033623         0.9149
  68   0.0000       0.063520         1.7285
  69   0.0000       0.119238         3.2446
  70   0.0000       0.125687         3.4201
  71   0.0000       0.129572         3.5258

MULLIKEN ATOMIC CHARGES
-----------------------
   0 S :    0.117462
   1 C :   -0.105463
   2 C :   -0.095983
   3 C :    0.024445
   4 C :   -0.163711
   5 H :    0.020455
   6 C :    0.088805
   7 H :    0.009322
   8 H :    0.034567
   9 C :   -0.093970
  10 H :    0.020014
  11 H :    0.037639
  12 C :   -0.028349
  13 H :    0.032162
  14 H :    0.028166
  15 H :    0.033409
  16 S :    0.116773
  17 C :   -0.058397
  18 C :   -0.062946
  19 C :   -0.013859
  20 C :   -0.200121
  21 H :    0.011768
  22 C :    0.058331
  23 H :    0.034808
  24 H :    0.040680
  25 C :   -0.064303
  26 H :    0.023123
  27 H :    0.019725
  28 C :   -0.064076
  29 H :    0.039647
  30 H :    0.042802
  31 H :    0.040201
  32 H :    0.034852
  33 H :    0.042023
Sum of atomic charges:    0.0000000

LOEWDIN ATOMIC CHARGES
----------------------
   0 S :    0.401252
   1 C :   -0.197882
   2 C :   -0.059643
   3 C :   -0.062413
   4 C :   -0.198192
   5 H :    0.032811
   6 C :   -0.037327
   7 H :    0.031572
   8 H :    0.033059
   9 C :   -0.043532
  10 H :    0.019109
  11 H :    0.028079
  12 C :   -0.058633
  13 H :    0.023612
  14 H :    0.022795
  15 H :    0.030191
  16 S :    0.419262
  17 C :   -0.188785
  18 C :   -0.077756
  19 C :   -0.049080
  20 C :   -0.200644
  21 H :    0.027602
  22 C :   -0.030103
  23 H :    0.032158
  24 H :    0.036668
  25 C :   -0.040110
  26 H :    0.022131
  27 H :    0.020285
  28 C :   -0.072195
  29 H :    0.030676
  30 H :    0.026912
  31 H :    0.030505
  32 H :    0.020899
  33 H :    0.026721

  Mayer bond orders larger than 0.100000
B(  0-S ,  1-C ) :   1.1380 B(  0-S ,  4-C ) :   1.1293 B(  1-C ,  2-C ) :   1.6255
B(  1-C , 32-H ) :   0.9685 B(  2-C ,  3-C ) :   1.2056 B(  2-C ,  6-C ) :   1.0299
B(  3-C ,  4-C ) :   1.6006 B(  3-C ,  5-H ) :   0.9869 B(  4-C , 20-C ) :   1.0681
B(  6-C ,  7-H ) :   0.9350 B(  6-C ,  8-H ) :   0.9254 B(  6-C ,  9-C ) :   1.0650
B(  9-C , 10-H ) :   0.9581 B(  9-C , 11-H ) :   0.9477 B(  9-C , 12-C ) :   1.0993
B( 12-C , 13-H ) :   0.9745 B( 12-C , 14-H ) :   0.9741 B( 12-C , 15-H ) :   0.9731
B( 16-S , 17-C ) :   1.1690 B( 16-S , 20-C ) :   1.1391 B( 17-C , 18-C ) :   1.5920
B( 17-C , 20-C ) :   0.1053 B( 17-C , 33-H ) :   0.9679 B( 18-C , 19-C ) :   1.2568
B( 18-C , 21-H ) :   0.9887 B( 19-C , 20-C ) :   1.5778 B( 19-C , 22-C ) :   1.0274
B( 22-C , 23-H ) :   0.9360 B( 22-C , 24-H ) :   0.9287 B( 22-C , 25-C ) :   1.0809
B( 25-C , 26-H ) :   0.9583 B( 25-C , 27-H ) :   0.9474 B( 25-C , 28-C ) :   1.0688
B( 28-C , 29-H ) :   0.9764 B( 28-C , 30-H ) :   0.9741 B( 28-C , 31-H ) :   0.9767

Dispersion correction           -0.013853773
FINAL SINGLE POINT ENERGY     -1339.881342032021

DIPOLE MOMENT
-------------
                                X             Y             Z
Electronic contribution:    -10.28391      23.67449     -11.10867
Nuclear contribution   :     10.33996     -24.14788      11.49927
                        -----------------------------------------
Total Dipole Moment    :      0.05605      -0.47338       0.39060
                        -----------------------------------------
Magnitude (a.u.)       :      0.61628
Magnitude (Debye)      :      1.56646

Rotational constants in cm-1:     0.017730     0.008157     0.006493
Rotational constants in MHz :   531.532671   244.531331   194.642641

                             ****ORCA TERMINATED NORMALLY****
TOTAL RUN TIME: 0 days 0 hours 0 minutes 20 seconds 22 msec
