                         Program Version 4.2.1 -  RELEASE  -
|  1> ! wB97X-D3 SP def2-SVP
|  2> %pal
|  3> nprocs 24
|  4> end
|  5>
|  6> * xyz 0 1
|  7> S 	 2.34319 	 -16.113 	 -101.88
|  8> C 	 3.73795 	 -16.6176 	 -102.821
|  9> C 	 3.49233 	 -16.5322 	 -104.165
| 10> C 	 2.12601 	 -16.1471 	 -104.437
| 11> C 	 1.36268 	 -15.7927 	 -103.301
| 12> H 	 1.68737 	 -15.9825 	 -105.44
| 13> C 	 4.43708 	 -16.8977 	 -105.276
| 14> H 	 5.31147 	 -16.2134 	 -105.165
| 15> H 	 3.93759 	 -16.6015 	 -106.176
| 16> C 	 4.69937 	 -18.3669 	 -105.39
| 17> H 	 5.08933 	 -18.7294 	 -104.44
| 18> H 	 3.75364 	 -18.8537 	 -105.487
| 19> C 	 5.67761 	 -18.726 	 -106.493
| 20> H 	 5.84377 	 -19.8461 	 -106.631
| 21> H 	 5.29435 	 -18.3765 	 -107.376
| 22> H 	 6.72137 	 -18.3892 	 -106.439
| 23> S 	 -1.28013 	 -16.4773 	 -102.805
| 24> C 	 -2.44832 	 -15.1062 	 -102.71
| 25> C 	 -1.96954 	 -13.9469 	 -103.319
| 26> C 	 -0.543535 	 -14.0687 	 -103.587
| 27> C 	 0.0159369 	 -15.3192 	 -103.217
| 28> H 	 -2.62007 	 -13.1115 	 -103.477
| 29> C 	 0.0115434 	 -12.8553 	 -104.319
| 30> H 	 -0.783498 	 -12.106 	 -104.511
| 31> H 	 0.347922 	 -13.1288 	 -105.29
| 32> C 	 1.13876 	 -12.1281 	 -103.589
| 33> H 	 2.0398 	 -12.7258 	 -103.62
| 34> H 	 0.813427 	 -11.8616 	 -102.555
| 35> C 	 1.54273 	 -10.8113 	 -104.293
| 36> H 	 2.27781 	 -10.2525 	 -103.651
| 37> H 	 0.609549 	 -10.1465 	 -104.5
| 38> H 	 2.04129 	 -10.9823 	 -105.298
| 39> H 	 4.72046 	 -16.9379 	 -102.403
| 40> H 	 -3.50664 	 -15.1631 	 -102.337
| 41> *
| 42>
| 43>                          ****END OF INPUT****

CARTESIAN COORDINATES (ANGSTROEM)
---------------------------------
  S      2.343190  -16.113000  -101.880000
  C      3.737950  -16.617600  -102.821000
  C      3.492330  -16.532200  -104.165000
  C      2.126010  -16.147100  -104.437000
  C      1.362680  -15.792700  -103.301000
  H      1.687370  -15.982500  -105.440000
  C      4.437080  -16.897700  -105.276000
  H      5.311470  -16.213400  -105.165000
  H      3.937590  -16.601500  -106.176000
  C      4.699370  -18.366900  -105.390000
  H      5.089330  -18.729400  -104.440000
  H      3.753640  -18.853700  -105.487000
  C      5.677610  -18.726000  -106.493000
  H      5.843770  -19.846100  -106.631000
  H      5.294350  -18.376500  -107.376000
  H      6.721370  -18.389200  -106.439000
  S     -1.280130  -16.477300  -102.805000
  C     -2.448320  -15.106200  -102.710000
  C     -1.969540  -13.946900  -103.319000
  C     -0.543535  -14.068700  -103.587000
  C      0.015937  -15.319200  -103.217000
  H     -2.620070  -13.111500  -103.477000
  C      0.011543  -12.855300  -104.319000
  H     -0.783498  -12.106000  -104.511000
  H      0.347922  -13.128800  -105.290000
  C      1.138760  -12.128100  -103.589000
  H      2.039800  -12.725800  -103.620000
  H      0.813427  -11.861600  -102.555000
  C      1.542730  -10.811300  -104.293000
  H      2.277810  -10.252500  -103.651000
  H      0.609549  -10.146500  -104.500000
  H      2.041290  -10.982300  -105.298000
  H      4.720460  -16.937900  -102.403000
  H     -3.506640  -15.163100  -102.337000

 Total Charge           Charge          ....    0
 Multiplicity           Mult            ....    1
 Number of Electrons    NEL             ....  134
 Basis Dimension        Dim             ....  322

ORBITAL ENERGIES
----------------

  NO   OCC          E(Eh)            E(eV)
   0   2.0000     -88.967960     -2420.9413
   1   2.0000     -88.965232     -2420.8670
   2   2.0000     -10.331460      -281.1333
   3   2.0000     -10.329801      -281.0882
   4   2.0000     -10.326802      -281.0066
   5   2.0000     -10.317305      -280.7481
   6   2.0000     -10.312258      -280.6108
   7   2.0000     -10.300597      -280.2935
   8   2.0000     -10.299539      -280.2647
   9   2.0000     -10.296794      -280.1900
  10   2.0000     -10.290782      -280.0264
  11   2.0000     -10.290401      -280.0161
  12   2.0000     -10.289276      -279.9854
  13   2.0000     -10.284408      -279.8530
  14   2.0000     -10.283179      -279.8195
  15   2.0000     -10.276380      -279.6345
  16   2.0000      -8.081250      -219.9020
  17   2.0000      -8.079629      -219.8579
  18   2.0000      -6.039996      -164.3566
  19   2.0000      -6.038172      -164.3070
  20   2.0000      -6.036178      -164.2527
  21   2.0000      -6.034030      -164.1943
  22   2.0000      -6.031610      -164.1285
  23   2.0000      -6.030505      -164.0984
  24   2.0000      -0.999033       -27.1851
  25   2.0000      -0.975294       -26.5391
  26   2.0000      -0.919610       -25.0239
  27   2.0000      -0.905124       -24.6297
  28   2.0000      -0.870352       -23.6835
  29   2.0000      -0.846007       -23.0210
  30   2.0000      -0.842630       -22.9291
  31   2.0000      -0.808558       -22.0020
  32   2.0000      -0.782459       -21.2918
  33   2.0000      -0.765438       -20.8286
  34   2.0000      -0.708623       -19.2826
  35   2.0000      -0.704764       -19.1776
  36   2.0000      -0.683906       -18.6100
  37   2.0000      -0.657380       -17.8882
  38   2.0000      -0.638181       -17.3658
  39   2.0000      -0.612686       -16.6720
  40   2.0000      -0.590889       -16.0789
  41   2.0000      -0.576497       -15.6873
  42   2.0000      -0.568733       -15.4760
  43   2.0000      -0.558870       -15.2076
  44   2.0000      -0.522409       -14.2155
  45   2.0000      -0.519586       -14.1387
  46   2.0000      -0.516784       -14.0624
  47   2.0000      -0.510369       -13.8879
  48   2.0000      -0.501567       -13.6483
  49   2.0000      -0.499850       -13.6016
  50   2.0000      -0.497365       -13.5340
  51   2.0000      -0.476691       -12.9714
  52   2.0000      -0.472817       -12.8660
  53   2.0000      -0.459430       -12.5017
  54   2.0000      -0.457415       -12.4469
  55   2.0000      -0.443415       -12.0659
  56   2.0000      -0.440921       -11.9981
  57   2.0000      -0.433720       -11.8021
  58   2.0000      -0.426344       -11.6014
  59   2.0000      -0.424672       -11.5559
  60   2.0000      -0.420152       -11.4329
  61   2.0000      -0.415324       -11.3015
  62   2.0000      -0.414756       -11.2861
  63   2.0000      -0.335018        -9.1163
  64   2.0000      -0.327372        -8.9083
  65   2.0000      -0.321800        -8.7566
  66   2.0000      -0.303887        -8.2692
  67   0.0000       0.028716         0.7814
  68   0.0000       0.053165         1.4467
  69   0.0000       0.095520         2.5992
  70   0.0000       0.122631         3.3370
  71   0.0000       0.131771         3.5857

MULLIKEN ATOMIC CHARGES
-----------------------
   0 S :    0.119781
   1 C :   -0.138531
   2 C :   -0.113955
   3 C :    0.039141
   4 C :   -0.194293
   5 H :    0.023010
   6 C :    0.083916
   7 H :    0.039722
   8 H :    0.000461
   9 C :   -0.036589
  10 H :    0.016229
  11 H :    0.024883
  12 C :   -0.027690
  13 H :    0.036408
  14 H :    0.004884
  15 H :    0.030781
  16 S :    0.111331
  17 C :   -0.111034
  18 C :   -0.039221
  19 C :    0.007459
  20 C :   -0.171073
  21 H :    0.024861
  22 C :    0.081251
  23 H :    0.013198
  24 H :    0.018410
  25 C :   -0.082234
  26 H :    0.045218
  27 H :    0.040231
  28 C :   -0.109874
  29 H :    0.048451
  30 H :    0.037335
  31 H :    0.039824
  32 H :    0.063510
  33 H :    0.074201
Sum of atomic charges:   -0.0000000

LOEWDIN ATOMIC CHARGES
----------------------
   0 S :    0.410513
   1 C :   -0.199265
   2 C :   -0.070765
   3 C :   -0.061932
   4 C :   -0.208218
   5 H :    0.034052
   6 C :   -0.032133
   7 H :    0.037124
   8 H :    0.024130
   9 C :   -0.035881
  10 H :    0.020539
  11 H :    0.027928
  12 C :   -0.065593
  13 H :    0.035357
  14 H :    0.009967
  15 H :    0.028257
  16 S :    0.376433
  17 C :   -0.170998
  18 C :   -0.070656
  19 C :   -0.035789
  20 C :   -0.205930
  21 H :    0.031616
  22 C :   -0.029933
  23 H :    0.029920
  24 H :    0.025819
  25 C :   -0.042304
  26 H :    0.027298
  27 H :    0.029523
  28 C :   -0.081778
  29 H :    0.030521
  30 H :    0.027703
  31 H :    0.027004
  32 H :    0.038491
  33 H :    0.038976

  Mayer bond orders larger than 0.100000
B(  0-S ,  1-C ) :   1.1462 B(  0-S ,  4-C ) :   1.1514 B(  1-C ,  2-C ) :   1.6056
B(  1-C , 32-H ) :   0.9633 B(  2-C ,  3-C ) :   1.2521 B(  2-C ,  6-C ) :   1.0213
B(  3-C ,  4-C ) :   1.5676 B(  3-C ,  5-H ) :   0.9852 B(  4-C , 20-C ) :   1.0670
B(  6-C ,  7-H ) :   0.9344 B(  6-C ,  8-H ) :   0.9319 B(  6-C ,  9-C ) :   1.0706
B(  9-C , 10-H ) :   0.9569 B(  9-C , 11-H ) :   0.9479 B(  9-C , 12-C ) :   1.0809
B( 12-C , 13-H ) :   0.9729 B( 12-C , 14-H ) :   0.9724 B( 12-C , 15-H ) :   0.9749
B( 16-S , 17-C ) :   1.1434 B( 16-S , 20-C ) :   1.1190 B( 17-C , 18-C ) :   1.6323
B( 17-C , 33-H ) :   0.9580 B( 18-C , 19-C ) :   1.2208 B( 18-C , 21-H ) :   0.9895
B( 19-C , 20-C ) :   1.5957 B( 19-C , 22-C ) :   1.0372 B( 22-C , 23-H ) :   0.9422
B( 22-C , 24-H ) :   0.9267 B( 22-C , 25-C ) :   1.0681 B( 25-C , 26-H ) :   0.9521
B( 25-C , 27-H ) :   0.9573 B( 25-C , 28-C ) :   1.0820 B( 28-C , 29-H ) :   0.9749
B( 28-C , 30-H ) :   0.9720 B( 28-C , 31-H ) :   0.9732

Dispersion correction           -0.013862487
FINAL SINGLE POINT ENERGY     -1339.866870749927

DIPOLE MOMENT
-------------
                                X             Y             Z
Electronic contribution:    -16.64114      -8.57947      17.09169
Nuclear contribution   :     16.81935       8.84762     -17.63629
                        -----------------------------------------
Total Dipole Moment    :      0.17821       0.26815      -0.54460
                        -----------------------------------------
Magnitude (a.u.)       :      0.63266
Magnitude (Debye)      :      1.60808

Rotational constants in cm-1:     0.018669     0.007698     0.006439
Rotational constants in MHz :   559.687547   230.785965   193.024224

                             ****ORCA TERMINATED NORMALLY****
TOTAL RUN TIME: 0 days 0 hours 0 minutes 21 seconds 119 msec
