                         Program Version 4.2.1 -  RELEASE  -
|  1> ! wB97X-D3 SP def2-SVP
|  2> %pal
|  3> nprocs 24
|  4> end
|  5>
|  6> * xyz 0 1
|  7> S 	 -143.897 	 26.4155 	 -16.7905
|  8> C 	 -144.244 	 24.6383 	 -16.7478
|  9> C 	 -143.272 	 23.9517 	 -16.0588
| 10> C 	 -142.404 	 24.8139 	 -15.355
| 11> C 	 -142.556 	 26.1676 	 -15.5887
| 12> H 	 -141.676 	 24.4816 	 -14.6621
| 13> C 	 -143.271 	 22.455 	 -15.9171
| 14> H 	 -144.282 	 22.193 	 -15.6573
| 15> H 	 -142.683 	 22.1542 	 -15.0555
| 16> C 	 -142.793 	 21.7214 	 -17.1394
| 17> H 	 -143.659 	 21.8204 	 -17.8145
| 18> H 	 -141.934 	 22.3138 	 -17.6054
| 19> C 	 -142.367 	 20.2875 	 -16.7723
| 20> H 	 -143.137 	 19.6867 	 -16.2242
| 21> H 	 -142.066 	 19.7484 	 -17.7066
| 22> H 	 -141.461 	 20.3889 	 -16.2031
| 23> S 	 -143.049 	 28.4608 	 -14.0915
| 24> C 	 -141.718 	 29.5983 	 -13.8835
| 25> C 	 -140.512 	 28.9858 	 -14.1466
| 26> C 	 -140.666 	 27.6936 	 -14.7733
| 27> C 	 -141.967 	 27.2438 	 -14.831
| 28> H 	 -139.521 	 29.4556 	 -13.827
| 29> C 	 -139.482 	 26.9258 	 -15.3158
| 30> H 	 -139.831 	 26.2161 	 -16.0361
| 31> H 	 -139.203 	 26.3107 	 -14.5029
| 32> C 	 -138.337 	 27.5842 	 -16.0561
| 33> H 	 -137.964 	 28.4401 	 -15.5748
| 34> H 	 -138.87 	 28.0431 	 -16.9151
| 35> C 	 -137.26 	 26.536 	 -16.4698
| 36> H 	 -137.576 	 25.5554 	 -16.281
| 37> H 	 -136.4 	 26.6712 	 -15.7901
| 38> H 	 -136.941 	 26.5934 	 -17.4648
| 39> H 	 -145.082 	 24.302 	 -17.4036
| 40> H 	 -141.82 	 30.4822 	 -13.3178
| 41> *
| 42>
| 43>                          ****END OF INPUT****

CARTESIAN COORDINATES (ANGSTROEM)
---------------------------------
  S    -143.897000   26.415500  -16.790500
  C    -144.244000   24.638300  -16.747800
  C    -143.272000   23.951700  -16.058800
  C    -142.404000   24.813900  -15.355000
  C    -142.556000   26.167600  -15.588700
  H    -141.676000   24.481600  -14.662100
  C    -143.271000   22.455000  -15.917100
  H    -144.282000   22.193000  -15.657300
  H    -142.683000   22.154200  -15.055500
  C    -142.793000   21.721400  -17.139400
  H    -143.659000   21.820400  -17.814500
  H    -141.934000   22.313800  -17.605400
  C    -142.367000   20.287500  -16.772300
  H    -143.137000   19.686700  -16.224200
  H    -142.066000   19.748400  -17.706600
  H    -141.461000   20.388900  -16.203100
  S    -143.049000   28.460800  -14.091500
  C    -141.718000   29.598300  -13.883500
  C    -140.512000   28.985800  -14.146600
  C    -140.666000   27.693600  -14.773300
  C    -141.967000   27.243800  -14.831000
  H    -139.521000   29.455600  -13.827000
  C    -139.482000   26.925800  -15.315800
  H    -139.831000   26.216100  -16.036100
  H    -139.203000   26.310700  -14.502900
  C    -138.337000   27.584200  -16.056100
  H    -137.964000   28.440100  -15.574800
  H    -138.870000   28.043100  -16.915100
  C    -137.260000   26.536000  -16.469800
  H    -137.576000   25.555400  -16.281000
  H    -136.400000   26.671200  -15.790100
  H    -136.941000   26.593400  -17.464800
  H    -145.082000   24.302000  -17.403600
  H    -141.820000   30.482200  -13.317800

 Total Charge           Charge          ....    0
 Multiplicity           Mult            ....    1
 Number of Electrons    NEL             ....  134
 Basis Dimension        Dim             ....  322

ORBITAL ENERGIES
----------------

  NO   OCC          E(Eh)            E(eV)
   0   2.0000     -88.962791     -2420.8006
   1   2.0000     -88.961362     -2420.7617
   2   2.0000     -10.331585      -281.1367
   3   2.0000     -10.324795      -280.9520
   4   2.0000     -10.321547      -280.8636
   5   2.0000     -10.316819      -280.7349
   6   2.0000     -10.304648      -280.4037
   7   2.0000     -10.301115      -280.3076
   8   2.0000     -10.300223      -280.2833
   9   2.0000     -10.292310      -280.0680
  10   2.0000     -10.291618      -280.0492
  11   2.0000     -10.286746      -279.9166
  12   2.0000     -10.285036      -279.8701
  13   2.0000     -10.283717      -279.8342
  14   2.0000     -10.280550      -279.7480
  15   2.0000     -10.274399      -279.5806
  16   2.0000      -8.075852      -219.7551
  17   2.0000      -8.075546      -219.7468
  18   2.0000      -6.034472      -164.2063
  19   2.0000      -6.034209      -164.1992
  20   2.0000      -6.030679      -164.1031
  21   2.0000      -6.030157      -164.0889
  22   2.0000      -6.026489      -163.9891
  23   2.0000      -6.026130      -163.9793
  24   2.0000      -0.999235       -27.1906
  25   2.0000      -0.977367       -26.5955
  26   2.0000      -0.915657       -24.9163
  27   2.0000      -0.910983       -24.7891
  28   2.0000      -0.869106       -23.6496
  29   2.0000      -0.849097       -23.1051
  30   2.0000      -0.841314       -22.8933
  31   2.0000      -0.814068       -22.1519
  32   2.0000      -0.783244       -21.3132
  33   2.0000      -0.770686       -20.9714
  34   2.0000      -0.713028       -19.4025
  35   2.0000      -0.703338       -19.1388
  36   2.0000      -0.697431       -18.9781
  37   2.0000      -0.653383       -17.7795
  38   2.0000      -0.642892       -17.4940
  39   2.0000      -0.618196       -16.8220
  40   2.0000      -0.600143       -16.3307
  41   2.0000      -0.571088       -15.5401
  42   2.0000      -0.565858       -15.3978
  43   2.0000      -0.560819       -15.2607
  44   2.0000      -0.528783       -14.3889
  45   2.0000      -0.524814       -14.2809
  46   2.0000      -0.520524       -14.1642
  47   2.0000      -0.510624       -13.8948
  48   2.0000      -0.508149       -13.8274
  49   2.0000      -0.492759       -13.4086
  50   2.0000      -0.489422       -13.3178
  51   2.0000      -0.476139       -12.9564
  52   2.0000      -0.470322       -12.7981
  53   2.0000      -0.468938       -12.7605
  54   2.0000      -0.454971       -12.3804
  55   2.0000      -0.450518       -12.2592
  56   2.0000      -0.447185       -12.1685
  57   2.0000      -0.436535       -11.8787
  58   2.0000      -0.433004       -11.7826
  59   2.0000      -0.421702       -11.4751
  60   2.0000      -0.419225       -11.4077
  61   2.0000      -0.414195       -11.2708
  62   2.0000      -0.410328       -11.1656
  63   2.0000      -0.342589        -9.3223
  64   2.0000      -0.333114        -9.0645
  65   2.0000      -0.323113        -8.7924
  66   2.0000      -0.294978        -8.0267
  67   0.0000       0.024137         0.6568
  68   0.0000       0.063265         1.7215
  69   0.0000       0.106257         2.8914
  70   0.0000       0.119908         3.2629
  71   0.0000       0.132545         3.6067

MULLIKEN ATOMIC CHARGES
-----------------------
   0 S :    0.089197
   1 C :   -0.171632
   2 C :   -0.053289
   3 C :    0.038778
   4 C :   -0.146586
   5 H :   -0.000967
   6 C :    0.082584
   7 H :    0.027718
   8 H :    0.004897
   9 C :   -0.101314
  10 H :    0.029280
  11 H :    0.047800
  12 C :   -0.053776
  13 H :    0.048199
  14 H :    0.042059
  15 H :    0.033350
  16 S :    0.093185
  17 C :   -0.080949
  18 C :   -0.053313
  19 C :   -0.043520
  20 C :   -0.162489
  21 H :    0.051580
  22 C :    0.056411
  23 H :    0.019866
  24 H :    0.024819
  25 C :   -0.064219
  26 H :    0.012698
  27 H :    0.031442
  28 C :   -0.004410
  29 H :    0.013013
  30 H :    0.033371
  31 H :    0.031846
  32 H :    0.073689
  33 H :    0.050680
Sum of atomic charges:   -0.0000000

LOEWDIN ATOMIC CHARGES
----------------------
   0 S :    0.349953
   1 C :   -0.174312
   2 C :   -0.065441
   3 C :   -0.051673
   4 C :   -0.172127
   5 H :    0.026189
   6 C :   -0.033114
   7 H :    0.030904
   8 H :    0.022991
   9 C :   -0.046293
  10 H :    0.022962
  11 H :    0.034224
  12 C :   -0.069309
  13 H :    0.031951
  14 H :    0.032031
  15 H :    0.024381
  16 S :    0.381729
  17 C :   -0.168956
  18 C :   -0.080454
  19 C :   -0.046950
  20 C :   -0.195511
  21 H :    0.044660
  22 C :   -0.038342
  23 H :    0.030034
  24 H :    0.025632
  25 C :   -0.036422
  26 H :    0.010264
  27 H :    0.031686
  28 C :   -0.051068
  29 H :    0.018469
  30 H :    0.034073
  31 H :    0.022145
  32 H :    0.034346
  33 H :    0.021345

  Mayer bond orders larger than 0.100000
B(  0-S ,  1-C ) :   1.1307 B(  0-S ,  4-C ) :   1.1247 B(  1-C ,  2-C ) :   1.5982
B(  1-C , 32-H ) :   0.9664 B(  2-C ,  3-C ) :   1.2386 B(  2-C ,  6-C ) :   1.0161
B(  3-C ,  4-C ) :   1.5766 B(  3-C ,  5-H ) :   0.9983 B(  4-C , 20-C ) :   1.0639
B(  6-C ,  7-H ) :   0.9366 B(  6-C ,  8-H ) :   0.9461 B(  6-C ,  9-C ) :   1.0421
B(  9-C , 10-H ) :   0.9557 B(  9-C , 11-H ) :   0.9605 B(  9-C , 12-C ) :   1.0749
B( 12-C , 13-H ) :   0.9732 B( 12-C , 14-H ) :   0.9742 B( 12-C , 15-H ) :   0.9738
B( 16-S , 17-C ) :   1.1541 B( 16-S , 20-C ) :   1.1136 B( 17-C , 18-C ) :   1.6202
B( 17-C , 33-H ) :   0.9671 B( 18-C , 19-C ) :   1.2292 B( 18-C , 21-H ) :   0.9747
B( 19-C , 20-C ) :   1.6157 B( 19-C , 22-C ) :   1.0328 B( 22-C , 23-H ) :   0.9286
B( 22-C , 24-H ) :   0.9280 B( 22-C , 25-C ) :   1.0570 B( 25-C , 26-H ) :   0.9629
B( 25-C , 27-H ) :   0.9600 B( 25-C , 28-C ) :   1.0595 B( 28-C , 29-H ) :   0.9787
B( 28-C , 30-H ) :   0.9751 B( 28-C , 31-H ) :   0.9774

Dispersion correction           -0.013457863
FINAL SINGLE POINT ENERGY     -1339.865862474006

DIPOLE MOMENT
-------------
                                X             Y             Z
Electronic contribution:    -19.17249      21.55655       6.53707
Nuclear contribution   :     19.71771     -22.06861      -6.46908
                        -----------------------------------------
Total Dipole Moment    :      0.54522      -0.51206       0.06798
                        -----------------------------------------
Magnitude (a.u.)       :      0.75106
Magnitude (Debye)      :      1.90905

Rotational constants in cm-1:     0.017480     0.008126     0.006099
Rotational constants in MHz :   524.043387   243.611845   182.836056

                             ****ORCA TERMINATED NORMALLY****
TOTAL RUN TIME: 0 days 0 hours 0 minutes 19 seconds 828 msec
