                         Program Version 4.2.1 -  RELEASE  -
|  1> ! wB97X-D3 SP def2-SVP
|  2> %pal
|  3> nprocs 24
|  4> end
|  5>
|  6> * xyz 0 1
|  7> S 	 44.3698 	 -22.7302 	 -115.684
|  8> C 	 43.8425 	 -21.5087 	 -114.552
|  9> C 	 44.7126 	 -20.4559 	 -114.373
| 10> C 	 45.7526 	 -20.586 	 -115.305
| 11> C 	 45.8836 	 -21.833 	 -115.941
| 12> H 	 46.4452 	 -19.7775 	 -115.68
| 13> C 	 44.4697 	 -19.3032 	 -113.531
| 14> H 	 43.3882 	 -19.4326 	 -113.215
| 15> H 	 44.645 	 -18.4543 	 -114.138
| 16> C 	 45.2766 	 -19.2142 	 -112.206
| 17> H 	 46.3635 	 -19.1487 	 -112.501
| 18> H 	 45.2226 	 -18.2189 	 -111.841
| 19> C 	 44.9843 	 -20.2543 	 -111.155
| 20> H 	 45.3396 	 -21.1773 	 -111.468
| 21> H 	 45.6746 	 -20.0433 	 -110.322
| 22> H 	 43.9179 	 -20.4195 	 -110.824
| 23> S 	 46.1359 	 -22.9841 	 -118.496
| 24> C 	 47.7595 	 -23.2136 	 -119.167
| 25> C 	 48.6959 	 -22.6132 	 -118.365
| 26> C 	 48.1575 	 -22.0437 	 -117.182
| 27> C 	 46.7711 	 -22.1262 	 -117.081
| 28> H 	 49.725 	 -22.6308 	 -118.686
| 29> C 	 49.0581 	 -21.5165 	 -116.073
| 30> H 	 49.0271 	 -20.3901 	 -116.083
| 31> H 	 50.0838 	 -21.7268 	 -116.394
| 32> C 	 48.9106 	 -22.1715 	 -114.668
| 33> H 	 49.3371 	 -23.1835 	 -114.692
| 34> H 	 47.8703 	 -22.2552 	 -114.299
| 35> C 	 49.7483 	 -21.4544 	 -113.616
| 36> H 	 50.6619 	 -21.9681 	 -113.291
| 37> H 	 49.2492 	 -21.4744 	 -112.703
| 38> H 	 49.8496 	 -20.3975 	 -113.789
| 39> H 	 42.8932 	 -21.579 	 -113.986
| 40> H 	 47.9626 	 -23.6754 	 -120.079
| 41> *
| 42>
| 43>                          ****END OF INPUT****

CARTESIAN COORDINATES (ANGSTROEM)
---------------------------------
  S     44.369800  -22.730200  -115.684000
  C     43.842500  -21.508700  -114.552000
  C     44.712600  -20.455900  -114.373000
  C     45.752600  -20.586000  -115.305000
  C     45.883600  -21.833000  -115.941000
  H     46.445200  -19.777500  -115.680000
  C     44.469700  -19.303200  -113.531000
  H     43.388200  -19.432600  -113.215000
  H     44.645000  -18.454300  -114.138000
  C     45.276600  -19.214200  -112.206000
  H     46.363500  -19.148700  -112.501000
  H     45.222600  -18.218900  -111.841000
  C     44.984300  -20.254300  -111.155000
  H     45.339600  -21.177300  -111.468000
  H     45.674600  -20.043300  -110.322000
  H     43.917900  -20.419500  -110.824000
  S     46.135900  -22.984100  -118.496000
  C     47.759500  -23.213600  -119.167000
  C     48.695900  -22.613200  -118.365000
  C     48.157500  -22.043700  -117.182000
  C     46.771100  -22.126200  -117.081000
  H     49.725000  -22.630800  -118.686000
  C     49.058100  -21.516500  -116.073000
  H     49.027100  -20.390100  -116.083000
  H     50.083800  -21.726800  -116.394000
  C     48.910600  -22.171500  -114.668000
  H     49.337100  -23.183500  -114.692000
  H     47.870300  -22.255200  -114.299000
  C     49.748300  -21.454400  -113.616000
  H     50.661900  -21.968100  -113.291000
  H     49.249200  -21.474400  -112.703000
  H     49.849600  -20.397500  -113.789000
  H     42.893200  -21.579000  -113.986000
  H     47.962600  -23.675400  -120.079000

 Total Charge           Charge          ....    0
 Multiplicity           Mult            ....    1
 Number of Electrons    NEL             ....  134
 Basis Dimension        Dim             ....  322

ORBITAL ENERGIES
----------------

  NO   OCC          E(Eh)            E(eV)
   0   2.0000     -88.969279     -2420.9771
   1   2.0000     -88.963550     -2420.8213
   2   2.0000     -10.332521      -281.1622
   3   2.0000     -10.328229      -281.0454
   4   2.0000     -10.316938      -280.7382
   5   2.0000     -10.313961      -280.6571
   6   2.0000     -10.300700      -280.2963
   7   2.0000     -10.298845      -280.2458
   8   2.0000     -10.296060      -280.1700
   9   2.0000     -10.294730      -280.1338
  10   2.0000     -10.291968      -280.0587
  11   2.0000     -10.291935      -280.0578
  12   2.0000     -10.289449      -279.9901
  13   2.0000     -10.283067      -279.8165
  14   2.0000     -10.278939      -279.7042
  15   2.0000     -10.265044      -279.3261
  16   2.0000      -8.083432      -219.9614
  17   2.0000      -8.077607      -219.8029
  18   2.0000      -6.041957      -164.4100
  19   2.0000      -6.038107      -164.3052
  20   2.0000      -6.036191      -164.2531
  21   2.0000      -6.034117      -164.1967
  22   2.0000      -6.032170      -164.1437
  23   2.0000      -6.028367      -164.0402
  24   2.0000      -1.004374       -27.3304
  25   2.0000      -0.983868       -26.7724
  26   2.0000      -0.918062       -24.9817
  27   2.0000      -0.901034       -24.5184
  28   2.0000      -0.869458       -23.6591
  29   2.0000      -0.852715       -23.2035
  30   2.0000      -0.847691       -23.0668
  31   2.0000      -0.815678       -22.1957
  32   2.0000      -0.785506       -21.3747
  33   2.0000      -0.771352       -20.9896
  34   2.0000      -0.713741       -19.4219
  35   2.0000      -0.703047       -19.1309
  36   2.0000      -0.689253       -18.7555
  37   2.0000      -0.661841       -18.0096
  38   2.0000      -0.636094       -17.3090
  39   2.0000      -0.616942       -16.7879
  40   2.0000      -0.591167       -16.0865
  41   2.0000      -0.568696       -15.4750
  42   2.0000      -0.561475       -15.2785
  43   2.0000      -0.555173       -15.1070
  44   2.0000      -0.542997       -14.7757
  45   2.0000      -0.523093       -14.2341
  46   2.0000      -0.519726       -14.1425
  47   2.0000      -0.515561       -14.0291
  48   2.0000      -0.499232       -13.5848
  49   2.0000      -0.495128       -13.4731
  50   2.0000      -0.489255       -13.3133
  51   2.0000      -0.480931       -13.0868
  52   2.0000      -0.474811       -12.9203
  53   2.0000      -0.462447       -12.5838
  54   2.0000      -0.457233       -12.4419
  55   2.0000      -0.449568       -12.2334
  56   2.0000      -0.441289       -12.0081
  57   2.0000      -0.438663       -11.9366
  58   2.0000      -0.434034       -11.8107
  59   2.0000      -0.428232       -11.6528
  60   2.0000      -0.416189       -11.3251
  61   2.0000      -0.412465       -11.2237
  62   2.0000      -0.404893       -11.0177
  63   2.0000      -0.350105        -9.5268
  64   2.0000      -0.330670        -8.9980
  65   2.0000      -0.330273        -8.9872
  66   2.0000      -0.285015        -7.7557
  67   0.0000       0.020173         0.5489
  68   0.0000       0.074837         2.0364
  69   0.0000       0.102607         2.7921
  70   0.0000       0.119949         3.2640
  71   0.0000       0.128077         3.4851

MULLIKEN ATOMIC CHARGES
-----------------------
   0 S :    0.106831
   1 C :   -0.135192
   2 C :   -0.056917
   3 C :   -0.026390
   4 C :   -0.147514
   5 H :    0.040718
   6 C :    0.073254
   7 H :    0.020981
   8 H :    0.024234
   9 C :   -0.067122
  10 H :    0.018416
  11 H :    0.014124
  12 C :   -0.016957
  13 H :    0.017067
  14 H :    0.031987
  15 H :    0.045597
  16 S :    0.086271
  17 C :   -0.078481
  18 C :   -0.018886
  19 C :   -0.046642
  20 C :   -0.135790
  21 H :    0.017679
  22 C :    0.041871
  23 H :    0.041659
  24 H :    0.012233
  25 C :   -0.083680
  26 H :    0.032904
  27 H :    0.062924
  28 C :   -0.015814
  29 H :    0.030085
  30 H :   -0.001209
  31 H :    0.020320
  32 H :    0.055371
  33 H :    0.036069
Sum of atomic charges:    0.0000000

LOEWDIN ATOMIC CHARGES
----------------------
   0 S :    0.397715
   1 C :   -0.192230
   2 C :   -0.076679
   3 C :   -0.058194
   4 C :   -0.192466
   5 H :    0.040392
   6 C :   -0.030100
   7 H :    0.036732
   8 H :    0.031126
   9 C :   -0.043740
  10 H :    0.029655
  11 H :    0.018070
  12 C :   -0.066335
  13 H :    0.017721
  14 H :    0.035663
  15 H :    0.034192
  16 S :    0.381391
  17 C :   -0.165120
  18 C :   -0.069799
  19 C :   -0.063435
  20 C :   -0.190308
  21 H :    0.032642
  22 C :   -0.036644
  23 H :    0.032364
  24 H :    0.029635
  25 C :   -0.041158
  26 H :    0.030435
  27 H :    0.028993
  28 C :   -0.070943
  29 H :    0.028999
  30 H :    0.020258
  31 H :    0.021849
  32 H :    0.031136
  33 H :    0.018185

  Mayer bond orders larger than 0.100000
B(  0-S ,  1-C ) :   1.1527 B(  0-S ,  4-C ) :   1.1320 B(  1-C ,  2-C ) :   1.5895
B(  1-C , 32-H ) :   0.9544 B(  2-C ,  3-C ) :   1.2476 B(  2-C ,  6-C ) :   1.0330
B(  3-C ,  4-C ) :   1.5616 B(  3-C ,  5-H ) :   0.9766 B(  4-C , 20-C ) :   1.0693
B(  6-C ,  7-H ) :   0.9367 B(  6-C ,  8-H ) :   0.9314 B(  6-C ,  9-C ) :   1.0778
B(  9-C , 10-H ) :   0.9473 B(  9-C , 11-H ) :   0.9553 B(  9-C , 12-C ) :   1.0722
B( 12-C , 13-H ) :   0.9709 B( 12-C , 14-H ) :   0.9664 B( 12-C , 15-H ) :   0.9738
B( 16-S , 17-C ) :   1.1493 B( 16-S , 20-C ) :   1.1248 B( 17-C , 18-C ) :   1.6080
B( 17-C , 33-H ) :   0.9739 B( 18-C , 19-C ) :   1.2597 B( 18-C , 21-H ) :   0.9916
B( 19-C , 20-C ) :   1.5876 B( 19-C , 22-C ) :   1.0335 B( 22-C , 23-H ) :   0.9358
B( 22-C , 24-H ) :   0.9375 B( 22-C , 25-C ) :   1.0527 B( 25-C , 26-H ) :   0.9560
B( 25-C , 27-H ) :   0.9619 B( 25-C , 28-C ) :   1.0774 B( 28-C , 29-H ) :   0.9752
B( 28-C , 30-H ) :   0.9665 B( 28-C , 31-H ) :   0.9738

Dispersion correction           -0.014914909
FINAL SINGLE POINT ENERGY     -1339.863434920303

DIPOLE MOMENT
-------------
                                X             Y             Z
Electronic contribution:    -11.94866     -12.94572     -25.25624
Nuclear contribution   :     12.28201      13.35859      25.65708
                        -----------------------------------------
Total Dipole Moment    :      0.33335       0.41287       0.40085
                        -----------------------------------------
Magnitude (a.u.)       :      0.66502
Magnitude (Debye)      :      1.69035

Rotational constants in cm-1:     0.020110     0.009440     0.007045
Rotational constants in MHz :   602.891592   282.992265   211.207473

                             ****ORCA TERMINATED NORMALLY****
TOTAL RUN TIME: 0 days 0 hours 0 minutes 22 seconds 520 msec
