                         Program Version 4.2.1 -  RELEASE  -
|  1> ! wB97X-D3 SP def2-SVP
|  2> %pal
|  3> nprocs 24
|  4> end
|  5>
|  6> * xyz 0 1
|  7> S 	 -33.6959 	 -7.51728 	 14.8289
|  8> C 	 -33.8679 	 -7.17044 	 16.5654
|  9> C 	 -34.6542 	 -8.16251 	 17.1699
| 10> C 	 -35.1302 	 -9.14447 	 16.228
| 11> C 	 -34.6399 	 -9.00014 	 14.9562
| 12> H 	 -35.6928 	 -10.0152 	 16.4576
| 13> C 	 -34.9238 	 -8.30255 	 18.61
| 14> H 	 -34.0217 	 -8.20669 	 19.1772
| 15> H 	 -35.2738 	 -9.32585 	 18.7423
| 16> C 	 -36.0203 	 -7.37634 	 19.2945
| 17> H 	 -36.1397 	 -7.72777 	 20.3103
| 18> H 	 -35.6331 	 -6.32931 	 19.2555
| 19> C 	 -37.4546 	 -7.26429 	 18.7512
| 20> H 	 -38.0315 	 -8.13595 	 18.9142
| 21> H 	 -38.0064 	 -6.56161 	 19.2241
| 22> H 	 -37.4735 	 -7.01231 	 17.685
| 23> S 	 -33.4306 	 -10.2654 	 12.9005
| 24> C 	 -34.2605 	 -11.1996 	 11.724
| 25> C 	 -35.6067 	 -11.0428 	 11.9292
| 26> C 	 -35.9729 	 -10.346 	 13.0938
| 27> C 	 -34.8976 	 -9.76967 	 13.7348
| 28> H 	 -36.2883 	 -11.431 	 11.1964
| 29> C 	 -37.4529 	 -10.3241 	 13.4373
| 30> H 	 -37.6385 	 -9.97755 	 14.4548
| 31> H 	 -37.9792 	 -11.3104 	 13.4611
| 32> C 	 -38.2658 	 -9.4061 	 12.522
| 33> H 	 -38.2127 	 -9.69806 	 11.4651
| 34> H 	 -37.9245 	 -8.34803 	 12.6664
| 35> C 	 -39.766 	 -9.52489 	 12.899
| 36> H 	 -39.9206 	 -9.29358 	 13.947
| 37> H 	 -40.0772 	 -10.5869 	 12.6574
| 38> H 	 -40.3812 	 -8.87268 	 12.298
| 39> H 	 -33.3521 	 -6.35287 	 17.0639
| 40> H 	 -33.8815 	 -11.6068 	 10.8041
| 41> *
| 42>
| 43>                          ****END OF INPUT****

CARTESIAN COORDINATES (ANGSTROEM)
---------------------------------
  S    -33.695900   -7.517280   14.828900
  C    -33.867900   -7.170440   16.565400
  C    -34.654200   -8.162510   17.169900
  C    -35.130200   -9.144470   16.228000
  C    -34.639900   -9.000140   14.956200
  H    -35.692800  -10.015200   16.457600
  C    -34.923800   -8.302550   18.610000
  H    -34.021700   -8.206690   19.177200
  H    -35.273800   -9.325850   18.742300
  C    -36.020300   -7.376340   19.294500
  H    -36.139700   -7.727770   20.310300
  H    -35.633100   -6.329310   19.255500
  C    -37.454600   -7.264290   18.751200
  H    -38.031500   -8.135950   18.914200
  H    -38.006400   -6.561610   19.224100
  H    -37.473500   -7.012310   17.685000
  S    -33.430600  -10.265400   12.900500
  C    -34.260500  -11.199600   11.724000
  C    -35.606700  -11.042800   11.929200
  C    -35.972900  -10.346000   13.093800
  C    -34.897600   -9.769670   13.734800
  H    -36.288300  -11.431000   11.196400
  C    -37.452900  -10.324100   13.437300
  H    -37.638500   -9.977550   14.454800
  H    -37.979200  -11.310400   13.461100
  C    -38.265800   -9.406100   12.522000
  H    -38.212700   -9.698060   11.465100
  H    -37.924500   -8.348030   12.666400
  C    -39.766000   -9.524890   12.899000
  H    -39.920600   -9.293580   13.947000
  H    -40.077200  -10.586900   12.657400
  H    -40.381200   -8.872680   12.298000
  H    -33.352100   -6.352870   17.063900
  H    -33.881500  -11.606800   10.804100

 Total Charge           Charge          ....    0
 Multiplicity           Mult            ....    1
 Number of Electrons    NEL             ....  134
 Basis Dimension        Dim             ....  322

ORBITAL ENERGIES
----------------

  NO   OCC          E(Eh)            E(eV)
   0   2.0000     -88.965319     -2420.8694
   1   2.0000     -88.962177     -2420.7839
   2   2.0000     -10.332052      -281.1494
   3   2.0000     -10.330057      -281.0951
   4   2.0000     -10.319747      -280.8146
   5   2.0000     -10.312519      -280.6179
   6   2.0000     -10.304047      -280.3874
   7   2.0000     -10.303584      -280.3748
   8   2.0000     -10.293616      -280.1035
   9   2.0000     -10.293083      -280.0890
  10   2.0000     -10.292261      -280.0667
  11   2.0000     -10.290599      -280.0214
  12   2.0000     -10.288784      -279.9721
  13   2.0000     -10.286940      -279.9219
  14   2.0000     -10.280570      -279.7485
  15   2.0000     -10.265400      -279.3357
  16   2.0000      -8.079439      -219.8527
  17   2.0000      -8.077527      -219.8007
  18   2.0000      -6.038045      -164.3035
  19   2.0000      -6.036071      -164.2498
  20   2.0000      -6.033943      -164.1919
  21   2.0000      -6.031720      -164.1314
  22   2.0000      -6.030202      -164.0901
  23   2.0000      -6.028410      -164.0414
  24   2.0000      -1.009702       -27.4754
  25   2.0000      -0.984572       -26.7916
  26   2.0000      -0.910724       -24.7821
  27   2.0000      -0.907451       -24.6930
  28   2.0000      -0.868929       -23.6447
  29   2.0000      -0.851731       -23.1768
  30   2.0000      -0.846572       -23.0364
  31   2.0000      -0.818883       -22.2830
  32   2.0000      -0.783536       -21.3211
  33   2.0000      -0.772649       -21.0249
  34   2.0000      -0.705374       -19.1942
  35   2.0000      -0.703015       -19.1300
  36   2.0000      -0.691279       -18.8107
  37   2.0000      -0.663152       -18.0453
  38   2.0000      -0.643087       -17.4993
  39   2.0000      -0.618920       -16.8417
  40   2.0000      -0.602196       -16.3866
  41   2.0000      -0.573559       -15.6073
  42   2.0000      -0.566027       -15.4024
  43   2.0000      -0.549908       -14.9638
  44   2.0000      -0.542526       -14.7629
  45   2.0000      -0.524991       -14.2857
  46   2.0000      -0.516715       -14.0605
  47   2.0000      -0.512109       -13.9352
  48   2.0000      -0.505337       -13.7509
  49   2.0000      -0.503885       -13.7114
  50   2.0000      -0.489855       -13.3296
  51   2.0000      -0.477402       -12.9908
  52   2.0000      -0.473720       -12.8906
  53   2.0000      -0.466692       -12.6993
  54   2.0000      -0.460715       -12.5367
  55   2.0000      -0.446486       -12.1495
  56   2.0000      -0.441634       -12.0175
  57   2.0000      -0.440613       -11.9897
  58   2.0000      -0.432994       -11.7824
  59   2.0000      -0.422317       -11.4918
  60   2.0000      -0.418799       -11.3961
  61   2.0000      -0.416607       -11.3365
  62   2.0000      -0.410118       -11.1599
  63   2.0000      -0.347621        -9.4592
  64   2.0000      -0.330736        -8.9998
  65   2.0000      -0.327697        -8.9171
  66   2.0000      -0.296451        -8.0669
  67   0.0000       0.029787         0.8105
  68   0.0000       0.068193         1.8556
  69   0.0000       0.116546         3.1714
  70   0.0000       0.119806         3.2601
  71   0.0000       0.124202         3.3797

MULLIKEN ATOMIC CHARGES
-----------------------
   0 S :    0.100030
   1 C :   -0.126592
   2 C :   -0.086637
   3 C :    0.037713
   4 C :   -0.132095
   5 H :    0.004017
   6 C :    0.084859
   7 H :    0.031984
   8 H :    0.013343
   9 C :   -0.099291
  10 H :    0.032442
  11 H :    0.032913
  12 C :   -0.004597
  13 H :    0.011049
  14 H :    0.005921
  15 H :    0.036273
  16 S :    0.096281
  17 C :   -0.066710
  18 C :   -0.059028
  19 C :    0.015038
  20 C :   -0.154760
  21 H :    0.013718
  22 C :    0.040949
  23 H :    0.007634
  24 H :    0.030461
  25 C :   -0.105505
  26 H :    0.034798
  27 H :    0.046164
  28 C :   -0.048887
  29 H :    0.032134
  30 H :    0.031707
  31 H :    0.032821
  32 H :    0.056471
  33 H :    0.055380
Sum of atomic charges:    0.0000000

LOEWDIN ATOMIC CHARGES
----------------------
   0 S :    0.391245
   1 C :   -0.189193
   2 C :   -0.062595
   3 C :   -0.060767
   4 C :   -0.188253
   5 H :    0.027849
   6 C :   -0.033327
   7 H :    0.033682
   8 H :    0.030022
   9 C :   -0.034182
  10 H :    0.023887
  11 H :    0.025527
  12 C :   -0.060476
  13 H :    0.018338
  14 H :    0.014338
  15 H :    0.029489
  16 S :    0.419566
  17 C :   -0.195015
  18 C :   -0.069984
  19 C :   -0.058973
  20 C :   -0.195188
  21 H :    0.027695
  22 C :   -0.036893
  23 H :    0.025985
  24 H :    0.034201
  25 C :   -0.040113
  26 H :    0.021969
  27 H :    0.030576
  28 C :   -0.064890
  29 H :    0.021641
  30 H :    0.028727
  31 H :    0.022372
  32 H :    0.030645
  33 H :    0.032093

  Mayer bond orders larger than 0.100000
B(  0-S ,  1-C ) :   1.1317 B(  0-S ,  4-C ) :   1.1505 B(  1-C ,  2-C ) :   1.5913
B(  1-C ,  4-C ) :   0.1024 B(  1-C , 32-H ) :   0.9740 B(  2-C ,  3-C ) :   1.2242
B(  2-C ,  6-C ) :   1.0341 B(  3-C ,  4-C ) :   1.6031 B(  3-C ,  5-H ) :   0.9987
B(  4-C , 20-C ) :   0.9972 B(  6-C ,  7-H ) :   0.9380 B(  6-C ,  8-H ) :   0.9378
B(  6-C ,  9-C ) :   1.0619 B(  9-C , 10-H ) :   0.9577 B(  9-C , 11-H ) :   0.9609
B(  9-C , 12-C ) :   1.0872 B( 12-C , 13-H ) :   0.9723 B( 12-C , 14-H ) :   0.9685
B( 12-C , 15-H ) :   0.9713 B( 16-S , 17-C ) :   1.1620 B( 16-S , 20-C ) :   1.1491
B( 17-C , 18-C ) :   1.6003 B( 17-C , 20-C ) :   0.1037 B( 17-C , 33-H ) :   0.9657
B( 18-C , 19-C ) :   1.2490 B( 18-C , 21-H ) :   0.9902 B( 19-C , 20-C ) :   1.5961
B( 19-C , 22-C ) :   1.0365 B( 22-C , 23-H ) :   0.9352 B( 22-C , 24-H ) :   0.9427
B( 22-C , 25-C ) :   1.0613 B( 25-C , 26-H ) :   0.9591 B( 25-C , 27-H ) :   0.9534
B( 25-C , 28-C ) :   1.0811 B( 28-C , 29-H ) :   0.9748 B( 28-C , 30-H ) :   0.9739
B( 28-C , 31-H ) :   0.9747

Dispersion correction           -0.013561182
FINAL SINGLE POINT ENERGY     -1339.881121820561

DIPOLE MOMENT
-------------
                                X             Y             Z
Electronic contribution:     26.54646      -2.33004     -12.47418
Nuclear contribution   :    -27.12403       2.21823      12.73230
                        -----------------------------------------
Total Dipole Moment    :     -0.57757      -0.11181       0.25812
                        -----------------------------------------
Magnitude (a.u.)       :      0.64243
Magnitude (Debye)      :      1.63292

Rotational constants in cm-1:     0.017306     0.008891     0.006480
Rotational constants in MHz :   518.822609   266.540867   194.276150

                             ****ORCA TERMINATED NORMALLY****
TOTAL RUN TIME: 0 days 0 hours 0 minutes 21 seconds 267 msec
