                         Program Version 4.2.1 -  RELEASE  -
|  1> ! wB97X-D3 SP def2-SVP
|  2> %pal
|  3> nprocs 24
|  4> end
|  5>
|  6> * xyz 0 1
|  7> S 	 -36.1055 	 17.1792 	 13.7721
|  8> C 	 -37.577 	 16.8802 	 14.6799
|  9> C 	 -38.39 	 17.9706 	 14.7494
| 10> C 	 -37.7708 	 19.1002 	 14.0769
| 11> C 	 -36.5249 	 18.8033 	 13.5239
| 12> H 	 -38.0511 	 20.1327 	 13.9461
| 13> C 	 -39.7736 	 17.9853 	 15.4022
| 14> H 	 -40.1837 	 16.9635 	 15.4481
| 15> H 	 -40.4384 	 18.6327 	 14.752
| 16> C 	 -39.9099 	 18.669 	 16.7489
| 17> H 	 -39.2934 	 18.1169 	 17.4913
| 18> H 	 -39.4446 	 19.5903 	 16.5537
| 19> C 	 -41.3532 	 18.879 	 17.2648
| 20> H 	 -41.4494 	 19.6723 	 18.0034
| 21> H 	 -42.0628 	 19.2728 	 16.4961
| 22> H 	 -41.7335 	 18.0227 	 17.8771
| 23> S 	 -34.7179 	 18.9066 	 11.4667
| 24> C 	 -34.32 	 20.3928 	 10.7896
| 25> C 	 -34.5335 	 21.4508 	 11.6346
| 26> C 	 -35.4198 	 21.1347 	 12.701
| 27> C 	 -35.6959 	 19.7274 	 12.7243
| 28> H 	 -34.3336 	 22.4937 	 11.3776
| 29> C 	 -35.905 	 22.211 	 13.7147
| 30> H 	 -35.0014 	 22.57 	 14.2229
| 31> H 	 -36.5834 	 21.8046 	 14.4734
| 32> C 	 -36.419 	 23.5437 	 13.1434
| 33> H 	 -35.8065 	 24.1097 	 12.4458
| 34> H 	 -36.6177 	 24.1784 	 14.04
| 35> C 	 -37.7832 	 23.361 	 12.5821
| 36> H 	 -38.0065 	 24.238 	 11.8929
| 37> H 	 -38.5525 	 23.3357 	 13.2487
| 38> H 	 -37.7692 	 22.4118 	 11.9888
| 39> H 	 -37.7926 	 15.8588 	 15.1364
| 40> H 	 -33.7265 	 20.39 	 9.89137
| 41> *
| 42>
| 43>                          ****END OF INPUT****

CARTESIAN COORDINATES (ANGSTROEM)
---------------------------------
  S    -36.105500   17.179200   13.772100
  C    -37.577000   16.880200   14.679900
  C    -38.390000   17.970600   14.749400
  C    -37.770800   19.100200   14.076900
  C    -36.524900   18.803300   13.523900
  H    -38.051100   20.132700   13.946100
  C    -39.773600   17.985300   15.402200
  H    -40.183700   16.963500   15.448100
  H    -40.438400   18.632700   14.752000
  C    -39.909900   18.669000   16.748900
  H    -39.293400   18.116900   17.491300
  H    -39.444600   19.590300   16.553700
  C    -41.353200   18.879000   17.264800
  H    -41.449400   19.672300   18.003400
  H    -42.062800   19.272800   16.496100
  H    -41.733500   18.022700   17.877100
  S    -34.717900   18.906600   11.466700
  C    -34.320000   20.392800   10.789600
  C    -34.533500   21.450800   11.634600
  C    -35.419800   21.134700   12.701000
  C    -35.695900   19.727400   12.724300
  H    -34.333600   22.493700   11.377600
  C    -35.905000   22.211000   13.714700
  H    -35.001400   22.570000   14.222900
  H    -36.583400   21.804600   14.473400
  C    -36.419000   23.543700   13.143400
  H    -35.806500   24.109700   12.445800
  H    -36.617700   24.178400   14.040000
  C    -37.783200   23.361000   12.582100
  H    -38.006500   24.238000   11.892900
  H    -38.552500   23.335700   13.248700
  H    -37.769200   22.411800   11.988800
  H    -37.792600   15.858800   15.136400
  H    -33.726500   20.390000    9.891370

 Total Charge           Charge          ....    0
 Multiplicity           Mult            ....    1
 Number of Electrons    NEL             ....  134
 Basis Dimension        Dim             ....  322

ORBITAL ENERGIES
----------------

  NO   OCC          E(Eh)            E(eV)
   0   2.0000     -88.965548     -2420.8756
   1   2.0000     -88.965059     -2420.8623
   2   2.0000     -10.335624      -281.2466
   3   2.0000     -10.328425      -281.0507
   4   2.0000     -10.316763      -280.7334
   5   2.0000     -10.315293      -280.6934
   6   2.0000     -10.314656      -280.6761
   7   2.0000     -10.306158      -280.4448
   8   2.0000     -10.301018      -280.3050
   9   2.0000     -10.296792      -280.1900
  10   2.0000     -10.294887      -280.1381
  11   2.0000     -10.293522      -280.1010
  12   2.0000     -10.289129      -279.9814
  13   2.0000     -10.286732      -279.9162
  14   2.0000     -10.285339      -279.8783
  15   2.0000     -10.270904      -279.4855
  16   2.0000      -8.081371      -219.9053
  17   2.0000      -8.081016      -219.8956
  18   2.0000      -6.039829      -164.3521
  19   2.0000      -6.039295      -164.3376
  20   2.0000      -6.035804      -164.2426
  21   2.0000      -6.035474      -164.2336
  22   2.0000      -6.032055      -164.1406
  23   2.0000      -6.031831      -164.1345
  24   2.0000      -1.010287       -27.4913
  25   2.0000      -0.989093       -26.9146
  26   2.0000      -0.917741       -24.9730
  27   2.0000      -0.912543       -24.8315
  28   2.0000      -0.868732       -23.6394
  29   2.0000      -0.857193       -23.3254
  30   2.0000      -0.843318       -22.9478
  31   2.0000      -0.810647       -22.0588
  32   2.0000      -0.786846       -21.4112
  33   2.0000      -0.775872       -21.1125
  34   2.0000      -0.705835       -19.2067
  35   2.0000      -0.695069       -18.9138
  36   2.0000      -0.690354       -18.7855
  37   2.0000      -0.658350       -17.9146
  38   2.0000      -0.639229       -17.3943
  39   2.0000      -0.618428       -16.8283
  40   2.0000      -0.605243       -16.4695
  41   2.0000      -0.572484       -15.5781
  42   2.0000      -0.559055       -15.2127
  43   2.0000      -0.556255       -15.1365
  44   2.0000      -0.547806       -14.9065
  45   2.0000      -0.526949       -14.3390
  46   2.0000      -0.511416       -13.9163
  47   2.0000      -0.508874       -13.8472
  48   2.0000      -0.504483       -13.7277
  49   2.0000      -0.495450       -13.4819
  50   2.0000      -0.490902       -13.3581
  51   2.0000      -0.478092       -13.0096
  52   2.0000      -0.474535       -12.9128
  53   2.0000      -0.470530       -12.8038
  54   2.0000      -0.467175       -12.7125
  55   2.0000      -0.454615       -12.3707
  56   2.0000      -0.442392       -12.0381
  57   2.0000      -0.436293       -11.8721
  58   2.0000      -0.430523       -11.7151
  59   2.0000      -0.425738       -11.5849
  60   2.0000      -0.419202       -11.4071
  61   2.0000      -0.417728       -11.3669
  62   2.0000      -0.408402       -11.1132
  63   2.0000      -0.357582        -9.7303
  64   2.0000      -0.335265        -9.1230
  65   2.0000      -0.328413        -8.9366
  66   2.0000      -0.282148        -7.6776
  67   0.0000       0.024985         0.6799
  68   0.0000       0.072657         1.9771
  69   0.0000       0.105831         2.8798
  70   0.0000       0.113705         3.0941
  71   0.0000       0.131764         3.5855

MULLIKEN ATOMIC CHARGES
-----------------------
   0 S :    0.103806
   1 C :   -0.159857
   2 C :   -0.036314
   3 C :    0.001231
   4 C :   -0.121225
   5 H :   -0.005407
   6 C :    0.040682
   7 H :    0.026373
   8 H :    0.028490
   9 C :   -0.045677
  10 H :    0.031922
  11 H :    0.010874
  12 C :   -0.062776
  13 H :    0.023708
  14 H :    0.036438
  15 H :    0.044150
  16 S :    0.095322
  17 C :   -0.083115
  18 C :   -0.018287
  19 C :   -0.053478
  20 C :   -0.157477
  21 H :    0.023676
  22 C :    0.057731
  23 H :    0.041835
  24 H :    0.031035
  25 C :   -0.097343
  26 H :    0.040361
  27 H :    0.032609
  28 C :   -0.044862
  29 H :    0.032300
  30 H :    0.010020
  31 H :    0.042403
  32 H :    0.072202
  33 H :    0.058649
Sum of atomic charges:    0.0000000

LOEWDIN ATOMIC CHARGES
----------------------
   0 S :    0.415402
   1 C :   -0.205597
   2 C :   -0.061452
   3 C :   -0.075570
   4 C :   -0.206544
   5 H :    0.025378
   6 C :   -0.032258
   7 H :    0.028000
   8 H :    0.036102
   9 C :   -0.042258
  10 H :    0.027409
  11 H :    0.016547
  12 C :   -0.078365
  13 H :    0.026794
  14 H :    0.031067
  15 H :    0.033255
  16 S :    0.414861
  17 C :   -0.192486
  18 C :   -0.078158
  19 C :   -0.052038
  20 C :   -0.184181
  21 H :    0.032366
  22 C :   -0.030875
  23 H :    0.040797
  24 H :    0.032312
  25 C :   -0.048200
  26 H :    0.024093
  27 H :    0.033386
  28 C :   -0.066781
  29 H :    0.032539
  30 H :    0.006644
  31 H :    0.029590
  32 H :    0.042496
  33 H :    0.025725

  Mayer bond orders larger than 0.100000
B(  0-S ,  1-C ) :   1.1268 B(  0-S ,  4-C ) :   1.1606 B(  1-C ,  2-C ) :   1.6346
B(  1-C , 32-H ) :   0.9599 B(  2-C ,  3-C ) :   1.2035 B(  2-C ,  6-C ) :   1.0254
B(  3-C ,  4-C ) :   1.5826 B(  3-C ,  5-H ) :   0.9963 B(  4-C , 20-C ) :   1.0527
B(  6-C ,  7-H ) :   0.9444 B(  6-C ,  8-H ) :   0.9382 B(  6-C ,  9-C ) :   1.0642
B(  9-C , 10-H ) :   0.9531 B(  9-C , 11-H ) :   0.9556 B(  9-C , 12-C ) :   1.0804
B( 12-C , 13-H ) :   0.9730 B( 12-C , 14-H ) :   0.9710 B( 12-C , 15-H ) :   0.9754
B( 16-S , 17-C ) :   1.1893 B( 16-S , 20-C ) :   1.1446 B( 17-C , 18-C ) :   1.5776
B( 17-C , 20-C ) :   0.1028 B( 17-C , 33-H ) :   0.9695 B( 18-C , 19-C ) :   1.2664
B( 18-C , 21-H ) :   0.9821 B( 19-C , 20-C ) :   1.5571 B( 19-C , 22-C ) :   1.0304
B( 22-C , 23-H ) :   0.9315 B( 22-C , 24-H ) :   0.9433 B( 22-C , 25-C ) :   1.0713
B( 25-C , 26-H ) :   0.9595 B( 25-C , 27-H ) :   0.9516 B( 25-C , 28-C ) :   1.0737
B( 28-C , 29-H ) :   0.9727 B( 28-C , 30-H ) :   0.9764 B( 28-C , 31-H ) :   0.9756

Dispersion correction           -0.013699552
FINAL SINGLE POINT ENERGY     -1339.862543749049

DIPOLE MOMENT
-------------
                                X             Y             Z
Electronic contribution:     22.08883     -18.14133     -13.95640
Nuclear contribution   :    -22.35704      18.72522      14.19860
                        -----------------------------------------
Total Dipole Moment    :     -0.26821       0.58389       0.24220
                        -----------------------------------------
Magnitude (a.u.)       :      0.68668
Magnitude (Debye)      :      1.74539

Rotational constants in cm-1:     0.018074     0.008619     0.006109
Rotational constants in MHz :   541.851823   258.404867   183.134092

                             ****ORCA TERMINATED NORMALLY****
TOTAL RUN TIME: 0 days 0 hours 0 minutes 21 seconds 149 msec
