                         Program Version 4.2.1 -  RELEASE  -
|  1> ! wB97X-D3 SP def2-SVP
|  2> %pal
|  3> nprocs 24
|  4> end
|  5>
|  6> * xyz 0 1
|  7> S 	 -117.626 	 42.7015 	 -112.894
|  8> C 	 -118.26 	 42.6466 	 -114.587
|  9> C 	 -117.304 	 42.85 	 -115.534
| 10> C 	 -116.023 	 43.0635 	 -114.891
| 11> C 	 -115.995 	 42.9025 	 -113.524
| 12> H 	 -115.106 	 43.4183 	 -115.373
| 13> C 	 -117.54 	 42.917 	 -117.083
| 14> H 	 -117.215 	 43.9156 	 -117.45
| 15> H 	 -118.571 	 43.0382 	 -117.274
| 16> C 	 -116.907 	 41.8528 	 -117.912
| 17> H 	 -115.828 	 41.7457 	 -117.716
| 18> H 	 -117.285 	 40.8694 	 -117.586
| 19> C 	 -117.042 	 42.1162 	 -119.424
| 20> H 	 -116.672 	 41.2015 	 -119.973
| 21> H 	 -118.042 	 42.325 	 -119.815
| 22> H 	 -116.375 	 42.8679 	 -119.824
| 23> S 	 -113.891 	 44.4387 	 -112.72
| 24> C 	 -112.698 	 43.7744 	 -111.646
| 25> C 	 -112.896 	 42.4359 	 -111.392
| 26> C 	 -114.084 	 41.9365 	 -111.968
| 27> C 	 -114.806 	 42.928 	 -112.699
| 28> H 	 -112.228 	 41.9246 	 -110.732
| 29> C 	 -114.484 	 40.4392 	 -111.7
| 30> H 	 -115.546 	 40.4437 	 -111.757
| 31> H 	 -114.237 	 40.1346 	 -110.718
| 32> C 	 -114.025 	 39.3496 	 -112.627
| 33> H 	 -114.553 	 38.434 	 -112.301
| 34> H 	 -112.961 	 39.2372 	 -112.503
| 35> C 	 -114.419 	 39.5362 	 -114.104
| 36> H 	 -113.985 	 38.8459 	 -114.744
| 37> H 	 -113.973 	 40.4447 	 -114.465
| 38> H 	 -115.476 	 39.4167 	 -114.339
| 39> H 	 -119.329 	 42.3712 	 -114.836
| 40> H 	 -111.971 	 44.3677 	 -111.212
| 41> *
| 42>
| 43>                          ****END OF INPUT****

CARTESIAN COORDINATES (ANGSTROEM)
---------------------------------
  S    -117.626000   42.701500  -112.894000
  C    -118.260000   42.646600  -114.587000
  C    -117.304000   42.850000  -115.534000
  C    -116.023000   43.063500  -114.891000
  C    -115.995000   42.902500  -113.524000
  H    -115.106000   43.418300  -115.373000
  C    -117.540000   42.917000  -117.083000
  H    -117.215000   43.915600  -117.450000
  H    -118.571000   43.038200  -117.274000
  C    -116.907000   41.852800  -117.912000
  H    -115.828000   41.745700  -117.716000
  H    -117.285000   40.869400  -117.586000
  C    -117.042000   42.116200  -119.424000
  H    -116.672000   41.201500  -119.973000
  H    -118.042000   42.325000  -119.815000
  H    -116.375000   42.867900  -119.824000
  S    -113.891000   44.438700  -112.720000
  C    -112.698000   43.774400  -111.646000
  C    -112.896000   42.435900  -111.392000
  C    -114.084000   41.936500  -111.968000
  C    -114.806000   42.928000  -112.699000
  H    -112.228000   41.924600  -110.732000
  C    -114.484000   40.439200  -111.700000
  H    -115.546000   40.443700  -111.757000
  H    -114.237000   40.134600  -110.718000
  C    -114.025000   39.349600  -112.627000
  H    -114.553000   38.434000  -112.301000
  H    -112.961000   39.237200  -112.503000
  C    -114.419000   39.536200  -114.104000
  H    -113.985000   38.845900  -114.744000
  H    -113.973000   40.444700  -114.465000
  H    -115.476000   39.416700  -114.339000
  H    -119.329000   42.371200  -114.836000
  H    -111.971000   44.367700  -111.212000

 Total Charge           Charge          ....    0
 Multiplicity           Mult            ....    1
 Number of Electrons    NEL             ....  134
 Basis Dimension        Dim             ....  322

ORBITAL ENERGIES
----------------

  NO   OCC          E(Eh)            E(eV)
   0   2.0000     -88.966768     -2420.9088
   1   2.0000     -88.966148     -2420.8920
   2   2.0000     -10.330469      -281.1063
   3   2.0000     -10.328260      -281.0462
   4   2.0000     -10.320888      -280.8456
   5   2.0000     -10.311234      -280.5829
   6   2.0000     -10.309968      -280.5485
   7   2.0000     -10.305964      -280.4395
   8   2.0000     -10.294582      -280.1298
   9   2.0000     -10.294500      -280.1276
  10   2.0000     -10.290414      -280.0164
  11   2.0000     -10.290048      -280.0064
  12   2.0000     -10.284121      -279.8452
  13   2.0000     -10.282908      -279.8122
  14   2.0000     -10.281676      -279.7786
  15   2.0000     -10.261600      -279.2323
  16   2.0000      -8.081413      -219.9064
  17   2.0000      -8.079714      -219.8602
  18   2.0000      -6.039775      -164.3506
  19   2.0000      -6.038395      -164.3131
  20   2.0000      -6.035867      -164.2443
  21   2.0000      -6.034555      -164.2086
  22   2.0000      -6.032409      -164.1502
  23   2.0000      -6.030179      -164.0895
  24   2.0000      -1.001687       -27.2573
  25   2.0000      -0.978909       -26.6375
  26   2.0000      -0.912231       -24.8231
  27   2.0000      -0.907079       -24.6829
  28   2.0000      -0.870930       -23.6992
  29   2.0000      -0.847610       -23.0646
  30   2.0000      -0.839225       -22.8365
  31   2.0000      -0.809712       -22.0334
  32   2.0000      -0.788554       -21.4576
  33   2.0000      -0.777500       -21.1569
  34   2.0000      -0.709558       -19.3080
  35   2.0000      -0.699246       -19.0275
  36   2.0000      -0.689644       -18.7662
  37   2.0000      -0.662599       -18.0302
  38   2.0000      -0.635647       -17.2968
  39   2.0000      -0.615830       -16.7576
  40   2.0000      -0.597164       -16.2497
  41   2.0000      -0.567217       -15.4348
  42   2.0000      -0.557901       -15.1813
  43   2.0000      -0.553441       -15.0599
  44   2.0000      -0.547049       -14.8860
  45   2.0000      -0.526290       -14.3211
  46   2.0000      -0.514047       -13.9879
  47   2.0000      -0.510220       -13.8838
  48   2.0000      -0.500120       -13.6089
  49   2.0000      -0.495334       -13.4787
  50   2.0000      -0.489523       -13.3206
  51   2.0000      -0.474625       -12.9152
  52   2.0000      -0.469344       -12.7715
  53   2.0000      -0.465062       -12.6550
  54   2.0000      -0.456636       -12.4257
  55   2.0000      -0.449692       -12.2367
  56   2.0000      -0.443630       -12.0718
  57   2.0000      -0.439065       -11.9476
  58   2.0000      -0.436791       -11.8857
  59   2.0000      -0.421205       -11.4616
  60   2.0000      -0.418161       -11.3787
  61   2.0000      -0.413005       -11.2384
  62   2.0000      -0.408526       -11.1166
  63   2.0000      -0.338180        -9.2024
  64   2.0000      -0.333237        -9.0678
  65   2.0000      -0.330919        -9.0048
  66   2.0000      -0.296739        -8.0747
  67   0.0000       0.035300         0.9606
  68   0.0000       0.059778         1.6266
  69   0.0000       0.107673         2.9299
  70   0.0000       0.115382         3.1397
  71   0.0000       0.129035         3.5112

MULLIKEN ATOMIC CHARGES
-----------------------
   0 S :    0.104050
   1 C :   -0.160164
   2 C :   -0.060463
   3 C :    0.020883
   4 C :   -0.148481
   5 H :    0.019071
   6 C :    0.093379
   7 H :    0.023619
   8 H :   -0.000494
   9 C :   -0.059523
  10 H :    0.031273
  11 H :    0.029174
  12 C :   -0.068793
  13 H :    0.035245
  14 H :    0.035425
  15 H :    0.033358
  16 S :    0.110439
  17 C :   -0.068464
  18 C :   -0.026299
  19 C :   -0.029619
  20 C :   -0.188982
  21 H :    0.012178
  22 C :    0.122672
  23 H :   -0.000061
  24 H :    0.011864
  25 C :   -0.065506
  26 H :    0.030460
  27 H :    0.021105
  28 C :   -0.017991
  29 H :    0.001689
  30 H :    0.025729
  31 H :    0.034585
  32 H :    0.066850
  33 H :    0.031791
Sum of atomic charges:   -0.0000000

LOEWDIN ATOMIC CHARGES
----------------------
   0 S :    0.374294
   1 C :   -0.185769
   2 C :   -0.061499
   3 C :   -0.062627
   4 C :   -0.196641
   5 H :    0.029976
   6 C :   -0.029648
   7 H :    0.035477
   8 H :    0.022604
   9 C :   -0.045112
  10 H :    0.029466
  11 H :    0.026617
  12 C :   -0.071302
  13 H :    0.034892
  14 H :    0.023520
  15 H :    0.024967
  16 S :    0.416002
  17 C :   -0.173878
  18 C :   -0.070498
  19 C :   -0.045502
  20 C :   -0.200424
  21 H :    0.029991
  22 C :   -0.024704
  23 H :    0.022152
  24 H :    0.025266
  25 C :   -0.034361
  26 H :    0.029891
  27 H :    0.018998
  28 C :   -0.063940
  29 H :    0.016168
  30 H :    0.024454
  31 H :    0.029329
  32 H :    0.039079
  33 H :    0.012760

  Mayer bond orders larger than 0.100000
B(  0-S ,  1-C ) :   1.1151 B(  0-S ,  4-C ) :   1.1237 B(  1-C ,  2-C ) :   1.6701
B(  1-C , 32-H ) :   0.9544 B(  2-C ,  3-C ) :   1.2026 B(  2-C ,  6-C ) :   1.0103
B(  3-C ,  4-C ) :   1.6243 B(  3-C ,  5-H ) :   0.9854 B(  4-C , 20-C ) :   1.0343
B(  6-C ,  7-H ) :   0.9392 B(  6-C ,  8-H ) :   0.9374 B(  6-C ,  9-C ) :   1.0630
B(  9-C , 10-H ) :   0.9534 B(  9-C , 11-H ) :   0.9540 B(  9-C , 12-C ) :   1.0766
B( 12-C , 13-H ) :   0.9728 B( 12-C , 14-H ) :   0.9776 B( 12-C , 15-H ) :   0.9744
B( 16-S , 17-C ) :   1.1703 B( 16-S , 20-C ) :   1.1566 B( 17-C , 18-C ) :   1.5811
B( 17-C , 20-C ) :   0.1090 B( 17-C , 33-H ) :   0.9770 B( 18-C , 19-C ) :   1.2616
B( 18-C , 21-H ) :   0.9971 B( 19-C , 20-C ) :   1.5583 B( 19-C , 22-C ) :   1.0214
B( 22-C , 23-H ) :   0.9261 B( 22-C , 24-H ) :   0.9384 B( 22-C , 25-C ) :   1.0854
B( 25-C , 26-H ) :   0.9514 B( 25-C , 27-H ) :   0.9550 B( 25-C , 28-C ) :   1.0892
B( 28-C , 29-H ) :   0.9676 B( 28-C , 30-H ) :   0.9705 B( 28-C , 31-H ) :   0.9736

Dispersion correction           -0.015023691
FINAL SINGLE POINT ENERGY     -1339.875224982971

DIPOLE MOMENT
-------------
                                X             Y             Z
Electronic contribution:     -0.21303      16.71529      20.29058
Nuclear contribution   :      0.40430     -17.03396     -20.66148
                        -----------------------------------------
Total Dipole Moment    :      0.19127      -0.31866      -0.37090
                        -----------------------------------------
Magnitude (a.u.)       :      0.52507
Magnitude (Debye)      :      1.33461

Rotational constants in cm-1:     0.019065     0.008110     0.007519
Rotational constants in MHz :   571.560902   243.118499   225.403281

                             ****ORCA TERMINATED NORMALLY****
TOTAL RUN TIME: 0 days 0 hours 0 minutes 21 seconds 985 msec
