                         Program Version 4.2.1 -  RELEASE  -
|  1> ! wB97X-D3 SP def2-SVP
|  2> %pal
|  3> nprocs 24
|  4> end
|  5>
|  6> * xyz 0 1
|  7> S 	 -129.609 	 64.0123 	 -59.6755
|  8> C 	 -130.799 	 62.7644 	 -60.1419
|  9> C 	 -130.091 	 61.6147 	 -60.5984
| 10> C 	 -128.678 	 61.7355 	 -60.4325
| 11> C 	 -128.306 	 62.8978 	 -59.7919
| 12> H 	 -127.861 	 60.9917 	 -60.6196
| 13> C 	 -130.647 	 60.3192 	 -60.9882
| 14> H 	 -131.443 	 60.5484 	 -61.7903
| 15> H 	 -131.287 	 59.9798 	 -60.2127
| 16> C 	 -129.638 	 59.2804 	 -61.5548
| 17> H 	 -129.39 	 59.6322 	 -62.5386
| 18> H 	 -128.721 	 59.2584 	 -61.022
| 19> C 	 -130.296 	 57.9059 	 -61.6594
| 20> H 	 -131.33 	 58.049 	 -62.0891
| 21> H 	 -129.719 	 57.26 	 -62.3564
| 22> H 	 -130.184 	 57.5018 	 -60.6488
| 23> S 	 -126.708 	 65.0216 	 -59.2352
| 24> C 	 -125.095 	 64.801 	 -58.7603
| 25> C 	 -124.807 	 63.4448 	 -58.4725
| 26> C 	 -125.875 	 62.6015 	 -58.8727
| 27> C 	 -126.967 	 63.3084 	 -59.3958
| 28> H 	 -123.804 	 63.1163 	 -58.1451
| 29> C 	 -125.654 	 61.0553 	 -58.6777
| 30> H 	 -126.694 	 60.6168 	 -58.4868
| 31> H 	 -124.991 	 60.7286 	 -57.9088
| 32> C 	 -125.155 	 60.1878 	 -59.9517
| 33> H 	 -124.019 	 60.2068 	 -59.9356
| 34> H 	 -125.425 	 60.7509 	 -60.8285
| 35> C 	 -125.56 	 58.6915 	 -60.0779
| 36> H 	 -126.019 	 58.636 	 -61.1049
| 37> H 	 -126.242 	 58.2054 	 -59.4387
| 38> H 	 -124.717 	 58.063 	 -59.9805
| 39> H 	 -131.909 	 62.8885 	 -60.177
| 40> H 	 -124.375 	 65.5786 	 -58.5325
| 41> *
| 42>
| 43>                          ****END OF INPUT****

CARTESIAN COORDINATES (ANGSTROEM)
---------------------------------
  S    -129.609000   64.012300  -59.675500
  C    -130.799000   62.764400  -60.141900
  C    -130.091000   61.614700  -60.598400
  C    -128.678000   61.735500  -60.432500
  C    -128.306000   62.897800  -59.791900
  H    -127.861000   60.991700  -60.619600
  C    -130.647000   60.319200  -60.988200
  H    -131.443000   60.548400  -61.790300
  H    -131.287000   59.979800  -60.212700
  C    -129.638000   59.280400  -61.554800
  H    -129.390000   59.632200  -62.538600
  H    -128.721000   59.258400  -61.022000
  C    -130.296000   57.905900  -61.659400
  H    -131.330000   58.049000  -62.089100
  H    -129.719000   57.260000  -62.356400
  H    -130.184000   57.501800  -60.648800
  S    -126.708000   65.021600  -59.235200
  C    -125.095000   64.801000  -58.760300
  C    -124.807000   63.444800  -58.472500
  C    -125.875000   62.601500  -58.872700
  C    -126.967000   63.308400  -59.395800
  H    -123.804000   63.116300  -58.145100
  C    -125.654000   61.055300  -58.677700
  H    -126.694000   60.616800  -58.486800
  H    -124.991000   60.728600  -57.908800
  C    -125.155000   60.187800  -59.951700
  H    -124.019000   60.206800  -59.935600
  H    -125.425000   60.750900  -60.828500
  C    -125.560000   58.691500  -60.077900
  H    -126.019000   58.636000  -61.104900
  H    -126.242000   58.205400  -59.438700
  H    -124.717000   58.063000  -59.980500
  H    -131.909000   62.888500  -60.177000
  H    -124.375000   65.578600  -58.532500

 Total Charge           Charge          ....    0
 Multiplicity           Mult            ....    1
 Number of Electrons    NEL             ....  134
 Basis Dimension        Dim             ....  322

ORBITAL ENERGIES
----------------

  NO   OCC          E(Eh)            E(eV)
   0   2.0000     -88.970795     -2421.0184
   1   2.0000     -88.965875     -2420.8845
   2   2.0000     -10.329900      -281.0909
   3   2.0000     -10.327002      -281.0120
   4   2.0000     -10.319959      -280.8204
   5   2.0000     -10.317404      -280.7508
   6   2.0000     -10.311587      -280.5925
   7   2.0000     -10.303969      -280.3852
   8   2.0000     -10.303928      -280.3841
   9   2.0000     -10.297527      -280.2100
  10   2.0000     -10.297488      -280.2089
  11   2.0000     -10.292214      -280.0654
  12   2.0000     -10.291355      -280.0420
  13   2.0000     -10.286136      -279.9000
  14   2.0000     -10.283751      -279.8351
  15   2.0000     -10.281060      -279.7619
  16   2.0000      -8.086535      -220.0458
  17   2.0000      -8.080520      -219.8821
  18   2.0000      -6.044925      -164.4908
  19   2.0000      -6.040887      -164.3809
  20   2.0000      -6.039161      -164.3339
  21   2.0000      -6.037391      -164.2858
  22   2.0000      -6.035066      -164.2225
  23   2.0000      -6.031137      -164.1156
  24   2.0000      -1.011994       -27.5378
  25   2.0000      -0.984702       -26.7951
  26   2.0000      -0.917362       -24.9627
  27   2.0000      -0.895933       -24.3796
  28   2.0000      -0.868785       -23.6408
  29   2.0000      -0.855439       -23.2777
  30   2.0000      -0.844741       -22.9866
  31   2.0000      -0.812020       -22.0962
  32   2.0000      -0.784251       -21.3406
  33   2.0000      -0.768147       -20.9023
  34   2.0000      -0.713995       -19.4288
  35   2.0000      -0.699279       -19.0284
  36   2.0000      -0.688091       -18.7239
  37   2.0000      -0.662495       -18.0274
  38   2.0000      -0.637653       -17.3514
  39   2.0000      -0.616495       -16.7757
  40   2.0000      -0.595481       -16.2039
  41   2.0000      -0.573001       -15.5921
  42   2.0000      -0.562517       -15.3069
  43   2.0000      -0.560309       -15.2468
  44   2.0000      -0.527847       -14.3634
  45   2.0000      -0.520812       -14.1720
  46   2.0000      -0.512636       -13.9495
  47   2.0000      -0.507447       -13.8083
  48   2.0000      -0.503788       -13.7088
  49   2.0000      -0.502106       -13.6630
  50   2.0000      -0.494791       -13.4639
  51   2.0000      -0.487512       -13.2659
  52   2.0000      -0.476604       -12.9690
  53   2.0000      -0.466481       -12.6936
  54   2.0000      -0.459895       -12.5144
  55   2.0000      -0.458033       -12.4637
  56   2.0000      -0.443245       -12.0613
  57   2.0000      -0.430847       -11.7239
  58   2.0000      -0.427654       -11.6370
  59   2.0000      -0.425657       -11.5827
  60   2.0000      -0.421842       -11.4789
  61   2.0000      -0.413053       -11.2397
  62   2.0000      -0.411452       -11.1962
  63   2.0000      -0.353236        -9.6120
  64   2.0000      -0.335651        -9.1335
  65   2.0000      -0.325789        -8.8652
  66   2.0000      -0.278110        -7.5678
  67   0.0000       0.019090         0.5195
  68   0.0000       0.074390         2.0243
  69   0.0000       0.095586         2.6010
  70   0.0000       0.117406         3.1948
  71   0.0000       0.122001         3.3198

MULLIKEN ATOMIC CHARGES
-----------------------
   0 S :    0.093005
   1 C :   -0.137522
   2 C :   -0.059924
   3 C :   -0.040731
   4 C :   -0.093895
   5 H :    0.019677
   6 C :    0.019765
   7 H :    0.033156
   8 H :    0.029840
   9 C :   -0.071348
  10 H :    0.023402
  11 H :    0.028622
  12 C :   -0.045326
  13 H :    0.046884
  14 H :    0.035749
  15 H :    0.044020
  16 S :    0.115525
  17 C :   -0.087612
  18 C :   -0.050525
  19 C :   -0.031995
  20 C :   -0.138995
  21 H :    0.031061
  22 C :    0.034646
  23 H :    0.035766
  24 H :    0.030752
  25 C :   -0.121235
  26 H :    0.036453
  27 H :    0.040433
  28 C :   -0.041168
  29 H :    0.044864
  30 H :    0.024494
  31 H :    0.029549
  32 H :    0.062993
  33 H :    0.059620
Sum of atomic charges:    0.0000000

LOEWDIN ATOMIC CHARGES
----------------------
   0 S :    0.399372
   1 C :   -0.209879
   2 C :   -0.056266
   3 C :   -0.084274
   4 C :   -0.190940
   5 H :    0.039707
   6 C :   -0.041739
   7 H :    0.042748
   8 H :    0.029212
   9 C :   -0.037597
  10 H :    0.022996
  11 H :    0.014722
  12 C :   -0.065059
  13 H :    0.033976
  14 H :    0.027699
  15 H :    0.029848
  16 S :    0.440257
  17 C :   -0.204168
  18 C :   -0.073852
  19 C :   -0.056048
  20 C :   -0.201997
  21 H :    0.036088
  22 C :   -0.032377
  23 H :    0.033503
  24 H :    0.025585
  25 C :   -0.047599
  26 H :    0.029219
  27 H :    0.018345
  28 C :   -0.073269
  29 H :    0.039025
  30 H :    0.019334
  31 H :    0.024676
  32 H :    0.038232
  33 H :    0.030520

  Mayer bond orders larger than 0.100000
B(  0-S ,  1-C ) :   1.1185 B(  0-S ,  4-C ) :   1.1598 B(  1-C ,  2-C ) :   1.5804
B(  1-C ,  4-C ) :   0.1032 B(  1-C , 32-H ) :   0.9722 B(  2-C ,  3-C ) :   1.2474
B(  2-C ,  6-C ) :   1.0204 B(  3-C ,  4-C ) :   1.5527 B(  3-C ,  5-H ) :   0.9846
B(  4-C , 20-C ) :   1.0739 B(  6-C ,  7-H ) :   0.9215 B(  6-C ,  8-H ) :   0.9407
B(  6-C ,  9-C ) :   1.0706 B(  9-C , 10-H ) :   0.9519 B(  9-C , 11-H ) :   0.9480
B(  9-C , 12-C ) :   1.0815 B( 12-C , 13-H ) :   0.9711 B( 12-C , 14-H ) :   0.9727
B( 12-C , 15-H ) :   0.9782 B( 16-S , 17-C ) :   1.1897 B( 16-S , 20-C ) :   1.1473
B( 17-C , 18-C ) :   1.5616 B( 17-C , 20-C ) :   0.1027 B( 17-C , 33-H ) :   0.9679
B( 18-C , 19-C ) :   1.2885 B( 18-C , 21-H ) :   0.9866 B( 19-C , 20-C ) :   1.5480
B( 19-C , 22-C ) :   1.0364 B( 22-C , 23-H ) :   0.9421 B( 22-C , 24-H ) :   0.9519
B( 22-C , 25-C ) :   1.0337 B( 25-C , 26-H ) :   0.9632 B( 25-C , 27-H ) :   0.9690
B( 25-C , 28-C ) :   1.0498 B( 28-C , 29-H ) :   0.9781 B( 28-C , 30-H ) :   0.9789
B( 28-C , 31-H ) :   0.9787

Dispersion correction           -0.014675786
FINAL SINGLE POINT ENERGY     -1339.846708181115

DIPOLE MOMENT
-------------
                                X             Y             Z
Electronic contribution:     -1.97281      33.92316       7.89797
Nuclear contribution   :      2.22413     -34.60919      -7.94481
                        -----------------------------------------
Total Dipole Moment    :      0.25133      -0.68603      -0.04684
                        -----------------------------------------
Magnitude (a.u.)       :      0.73212
Magnitude (Debye)      :      1.86090

Rotational constants in cm-1:     0.017284     0.010282     0.006627
Rotational constants in MHz :   518.149688   308.257093   198.683006

                             ****ORCA TERMINATED NORMALLY****
TOTAL RUN TIME: 0 days 0 hours 0 minutes 21 seconds 96 msec
