                         Program Version 4.2.1 -  RELEASE  -
|  1> ! wB97X-D3 SP def2-SVP
|  2> %pal
|  3> nprocs 24
|  4> end
|  5>
|  6> * xyz 0 1
|  7> S 	 -102.955 	 0.0710884 	 -106.033
|  8> C 	 -103.84 	 -0.770473 	 -104.731
|  9> C 	 -102.962 	 -1.52063 	 -103.965
| 10> C 	 -101.618 	 -1.38057 	 -104.406
| 11> C 	 -101.451 	 -0.774817 	 -105.632
| 12> H 	 -100.821 	 -1.96783 	 -103.875
| 13> C 	 -103.294 	 -2.36431 	 -102.718
| 14> H 	 -103.397 	 -3.36796 	 -103.081
| 15> H 	 -104.229 	 -2.15233 	 -102.288
| 16> C 	 -102.128 	 -2.39438 	 -101.616
| 17> H 	 -101.26 	 -2.92758 	 -102.02
| 18> H 	 -101.814 	 -1.3773 	 -101.401
| 19> C 	 -102.575 	 -3.11881 	 -100.323
| 20> H 	 -103.407 	 -2.54341 	 -99.7702
| 21> H 	 -102.998 	 -4.11721 	 -100.657
| 22> H 	 -101.815 	 -3.23452 	 -99.5588
| 23> S 	 -99.9126 	 -1.13576 	 -107.862
| 24> C 	 -98.211 	 -0.60767 	 -107.847
| 25> C 	 -97.8079 	 -0.169459 	 -106.547
| 26> C 	 -98.9314 	 -0.0703885 	 -105.666
| 27> C 	 -100.136 	 -0.547476 	 -106.228
| 28> H 	 -96.7698 	 0.175254 	 -106.391
| 29> C 	 -98.7656 	 0.619745 	 -104.299
| 30> H 	 -97.9378 	 0.0842276 	 -103.742
| 31> H 	 -99.7099 	 0.46987 	 -103.79
| 32> C 	 -98.4268 	 2.11087 	 -104.494
| 33> H 	 -99.109 	 2.54261 	 -105.278
| 34> H 	 -97.5144 	 2.14245 	 -105.039
| 35> C 	 -98.3077 	 2.86877 	 -103.211
| 36> H 	 -99.3557 	 3.01096 	 -102.874
| 37> H 	 -97.7004 	 3.68956 	 -103.301
| 38> H 	 -97.795 	 2.33513 	 -102.48
| 39> H 	 -104.835 	 -0.618169 	 -104.58
| 40> H 	 -97.4373 	 -0.486065 	 -108.673
| 41> *
| 42>
| 43>                          ****END OF INPUT****

CARTESIAN COORDINATES (ANGSTROEM)
---------------------------------
  S    -102.955000    0.071088  -106.033000
  C    -103.840000   -0.770473  -104.731000
  C    -102.962000   -1.520630  -103.965000
  C    -101.618000   -1.380570  -104.406000
  C    -101.451000   -0.774817  -105.632000
  H    -100.821000   -1.967830  -103.875000
  C    -103.294000   -2.364310  -102.718000
  H    -103.397000   -3.367960  -103.081000
  H    -104.229000   -2.152330  -102.288000
  C    -102.128000   -2.394380  -101.616000
  H    -101.260000   -2.927580  -102.020000
  H    -101.814000   -1.377300  -101.401000
  C    -102.575000   -3.118810  -100.323000
  H    -103.407000   -2.543410  -99.770200
  H    -102.998000   -4.117210  -100.657000
  H    -101.815000   -3.234520  -99.558800
  S    -99.912600   -1.135760  -107.862000
  C    -98.211000   -0.607670  -107.847000
  C    -97.807900   -0.169459  -106.547000
  C    -98.931400   -0.070389  -105.666000
  C    -100.136000   -0.547476  -106.228000
  H    -96.769800    0.175254  -106.391000
  C    -98.765600    0.619745  -104.299000
  H    -97.937800    0.084228  -103.742000
  H    -99.709900    0.469870  -103.790000
  C    -98.426800    2.110870  -104.494000
  H    -99.109000    2.542610  -105.278000
  H    -97.514400    2.142450  -105.039000
  C    -98.307700    2.868770  -103.211000
  H    -99.355700    3.010960  -102.874000
  H    -97.700400    3.689560  -103.301000
  H    -97.795000    2.335130  -102.480000
  H    -104.835000   -0.618169  -104.580000
  H    -97.437300   -0.486065  -108.673000

 Total Charge           Charge          ....    0
 Multiplicity           Mult            ....    1
 Number of Electrons    NEL             ....  134
 Basis Dimension        Dim             ....  322

ORBITAL ENERGIES
----------------

  NO   OCC          E(Eh)            E(eV)
   0   2.0000     -88.969638     -2420.9869
   1   2.0000     -88.965897     -2420.8851
   2   2.0000     -10.330587      -281.1096
   3   2.0000     -10.327846      -281.0350
   4   2.0000     -10.327818      -281.0342
   5   2.0000     -10.313206      -280.6366
   6   2.0000     -10.306790      -280.4620
   7   2.0000     -10.304013      -280.3864
   8   2.0000     -10.300222      -280.2833
   9   2.0000     -10.297089      -280.1980
  10   2.0000     -10.295569      -280.1567
  11   2.0000     -10.295090      -280.1437
  12   2.0000     -10.293166      -280.0913
  13   2.0000     -10.292796      -280.0812
  14   2.0000     -10.280179      -279.7379
  15   2.0000     -10.265024      -279.3255
  16   2.0000      -8.083330      -219.9586
  17   2.0000      -8.079743      -219.8610
  18   2.0000      -6.041899      -164.4084
  19   2.0000      -6.038373      -164.3125
  20   2.0000      -6.037937      -164.3006
  21   2.0000      -6.034391      -164.2041
  22   2.0000      -6.034130      -164.1970
  23   2.0000      -6.030397      -164.0955
  24   2.0000      -0.999956       -27.2102
  25   2.0000      -0.976458       -26.5708
  26   2.0000      -0.909212       -24.7409
  27   2.0000      -0.903628       -24.5890
  28   2.0000      -0.865692       -23.5567
  29   2.0000      -0.851366       -23.1669
  30   2.0000      -0.842722       -22.9316
  31   2.0000      -0.810299       -22.0493
  32   2.0000      -0.779870       -21.2214
  33   2.0000      -0.768831       -20.9209
  34   2.0000      -0.710260       -19.3272
  35   2.0000      -0.699294       -19.0288
  36   2.0000      -0.693545       -18.8723
  37   2.0000      -0.654379       -17.8066
  38   2.0000      -0.641331       -17.4515
  39   2.0000      -0.621774       -16.9193
  40   2.0000      -0.585872       -15.9424
  41   2.0000      -0.567260       -15.4359
  42   2.0000      -0.564061       -15.3489
  43   2.0000      -0.560299       -15.2465
  44   2.0000      -0.528261       -14.3747
  45   2.0000      -0.523770       -14.2525
  46   2.0000      -0.514388       -13.9972
  47   2.0000      -0.513480       -13.9725
  48   2.0000      -0.506222       -13.7750
  49   2.0000      -0.496299       -13.5050
  50   2.0000      -0.486145       -13.2287
  51   2.0000      -0.478908       -13.0317
  52   2.0000      -0.468199       -12.7403
  53   2.0000      -0.465586       -12.6692
  54   2.0000      -0.455292       -12.3891
  55   2.0000      -0.452979       -12.3262
  56   2.0000      -0.442277       -12.0350
  57   2.0000      -0.435115       -11.8401
  58   2.0000      -0.431434       -11.7399
  59   2.0000      -0.424993       -11.5646
  60   2.0000      -0.421000       -11.4560
  61   2.0000      -0.418520       -11.3885
  62   2.0000      -0.410076       -11.1587
  63   2.0000      -0.338551        -9.2125
  64   2.0000      -0.329933        -8.9779
  65   2.0000      -0.328882        -8.9493
  66   2.0000      -0.293950        -7.9988
  67   0.0000       0.027053         0.7362
  68   0.0000       0.063015         1.7147
  69   0.0000       0.112983         3.0744
  70   0.0000       0.114936         3.1276
  71   0.0000       0.125953         3.4274

MULLIKEN ATOMIC CHARGES
-----------------------
   0 S :    0.098266
   1 C :   -0.103013
   2 C :   -0.072085
   3 C :   -0.010026
   4 C :   -0.117342
   5 H :    0.034981
   6 C :    0.099390
   7 H :    0.033149
   8 H :    0.007930
   9 C :   -0.109718
  10 H :    0.043711
  11 H :    0.038509
  12 C :   -0.076765
  13 H :    0.041531
  14 H :    0.040265
  15 H :    0.042278
  16 S :    0.121330
  17 C :   -0.121855
  18 C :   -0.066663
  19 C :   -0.047309
  20 C :   -0.175562
  21 H :    0.039206
  22 C :    0.069197
  23 H :    0.037524
  24 H :    0.020987
  25 C :   -0.108382
  26 H :    0.040570
  27 H :    0.001635
  28 C :    0.057429
  29 H :    0.041234
  30 H :    0.010367
  31 H :   -0.001269
  32 H :    0.010931
  33 H :    0.079572
Sum of atomic charges:    0.0000000

LOEWDIN ATOMIC CHARGES
----------------------
   0 S :    0.384608
   1 C :   -0.167644
   2 C :   -0.059810
   3 C :   -0.066244
   4 C :   -0.198072
   5 H :    0.039282
   6 C :   -0.020998
   7 H :    0.033372
   8 H :    0.020413
   9 C :   -0.039708
  10 H :    0.024140
  11 H :    0.021906
  12 C :   -0.074483
  13 H :    0.032214
  14 H :    0.031198
  15 H :    0.024501
  16 S :    0.406474
  17 C :   -0.196921
  18 C :   -0.075701
  19 C :   -0.051427
  20 C :   -0.208568
  21 H :    0.036797
  22 C :   -0.029469
  23 H :    0.035727
  24 H :    0.024386
  25 C :   -0.044470
  26 H :    0.033299
  27 H :    0.013127
  28 C :   -0.053880
  29 H :    0.036506
  30 H :    0.017918
  31 H :    0.018411
  32 H :    0.006888
  33 H :    0.046227

  Mayer bond orders larger than 0.100000
B(  0-S ,  1-C ) :   1.1348 B(  0-S ,  4-C ) :   1.1413 B(  1-C ,  2-C ) :   1.5942
B(  1-C ,  4-C ) :   0.1012 B(  1-C , 32-H ) :   0.9889 B(  2-C ,  3-C ) :   1.2691
B(  2-C ,  6-C ) :   1.0109 B(  3-C ,  4-C ) :   1.5579 B(  3-C ,  5-H ) :   0.9806
B(  4-C , 20-C ) :   1.0300 B(  6-C ,  7-H ) :   0.9277 B(  6-C ,  8-H ) :   0.9509
B(  6-C ,  9-C ) :   1.0582 B(  9-C , 10-H ) :   0.9463 B(  9-C , 11-H ) :   0.9651
B(  9-C , 12-C ) :   1.0791 B( 12-C , 13-H ) :   0.9753 B( 12-C , 14-H ) :   0.9735
B( 12-C , 15-H ) :   0.9751 B( 16-S , 17-C ) :   1.1586 B( 16-S , 20-C ) :   1.1380
B( 17-C , 18-C ) :   1.6051 B( 17-C , 20-C ) :   0.1082 B( 17-C , 33-H ) :   0.9573
B( 18-C , 19-C ) :   1.2479 B( 18-C , 21-H ) :   0.9795 B( 19-C , 20-C ) :   1.5853
B( 19-C , 22-C ) :   1.0371 B( 22-C , 23-H ) :   0.9320 B( 22-C , 24-H ) :   0.9353
B( 22-C , 25-C ) :   1.0617 B( 25-C , 26-H ) :   0.9537 B( 25-C , 27-H ) :   0.9511
B( 25-C , 28-C ) :   1.0879 B( 28-C , 29-H ) :   0.9740 B( 28-C , 30-H ) :   0.9669
B( 28-C , 31-H ) :   0.9630

Dispersion correction           -0.013950907
FINAL SINGLE POINT ENERGY     -1339.857684911178

DIPOLE MOMENT
-------------
                                X             Y             Z
Electronic contribution:     -5.91319      -1.62717     -28.22831
Nuclear contribution   :      6.20482       1.61742      28.94982
                        -----------------------------------------
Total Dipole Moment    :      0.29163      -0.00975       0.72151
                        -----------------------------------------
Magnitude (a.u.)       :      0.77828
Magnitude (Debye)      :      1.97824

Rotational constants in cm-1:     0.016070     0.008598     0.006990
Rotational constants in MHz :   481.772577   257.761677   209.560814

                             ****ORCA TERMINATED NORMALLY****
TOTAL RUN TIME: 0 days 0 hours 0 minutes 21 seconds 412 msec
