                         Program Version 4.2.1 -  RELEASE  -
|  1> ! wB97X-D3 SP def2-SVP
|  2> %pal
|  3> nprocs 24
|  4> end
|  5>
|  6> * xyz 0 1
|  7> S 	 -110.858 	 55.7419 	 -94.1185
|  8> C 	 -109.783 	 56.0924 	 -92.7721
|  9> C 	 -109.176 	 57.2741 	 -93.0012
| 10> C 	 -109.444 	 57.8153 	 -94.3149
| 11> C 	 -110.431 	 57.1835 	 -94.9978
| 12> H 	 -108.885 	 58.619 	 -94.737
| 13> C 	 -108.047 	 57.7629 	 -92.1216
| 14> H 	 -107.162 	 57.6781 	 -92.7054
| 15> H 	 -107.996 	 56.981 	 -91.2846
| 16> C 	 -108.169 	 59.1849 	 -91.5201
| 17> H 	 -107.266 	 59.4192 	 -90.8306
| 18> H 	 -108.185 	 59.9003 	 -92.3516
| 19> C 	 -109.547 	 59.3452 	 -90.8242
| 20> H 	 -109.662 	 58.6025 	 -90.0681
| 21> H 	 -109.667 	 60.2896 	 -90.3876
| 22> H 	 -110.396 	 59.1563 	 -91.4232
| 23> S 	 -111.977 	 58.5316 	 -96.9218
| 24> C 	 -111.891 	 58.0835 	 -98.5697
| 25> C 	 -111.064 	 56.9359 	 -98.6767
| 26> C 	 -110.531 	 56.4852 	 -97.4295
| 27> C 	 -110.814 	 57.3521 	 -96.363
| 28> H 	 -110.873 	 56.379 	 -99.6437
| 29> C 	 -109.656 	 55.2373 	 -97.3694
| 30> H 	 -110.183 	 54.4685 	 -97.9131
| 31> H 	 -109.498 	 54.9142 	 -96.3074
| 32> C 	 -108.187 	 55.3803 	 -97.8721
| 33> H 	 -107.682 	 56.2067 	 -97.425
| 34> H 	 -108.193 	 55.5483 	 -98.9892
| 35> C 	 -107.356 	 54.1932 	 -97.6378
| 36> H 	 -106.376 	 54.3439 	 -98.192
| 37> H 	 -107.803 	 53.3585 	 -97.9914
| 38> H 	 -107.021 	 54.0679 	 -96.5544
| 39> H 	 -109.651 	 55.432 	 -91.9606
| 40> H 	 -112.37 	 58.6004 	 -99.3732
| 41> *
| 42>
| 43>                          ****END OF INPUT****

CARTESIAN COORDINATES (ANGSTROEM)
---------------------------------
  S    -110.858000   55.741900  -94.118500
  C    -109.783000   56.092400  -92.772100
  C    -109.176000   57.274100  -93.001200
  C    -109.444000   57.815300  -94.314900
  C    -110.431000   57.183500  -94.997800
  H    -108.885000   58.619000  -94.737000
  C    -108.047000   57.762900  -92.121600
  H    -107.162000   57.678100  -92.705400
  H    -107.996000   56.981000  -91.284600
  C    -108.169000   59.184900  -91.520100
  H    -107.266000   59.419200  -90.830600
  H    -108.185000   59.900300  -92.351600
  C    -109.547000   59.345200  -90.824200
  H    -109.662000   58.602500  -90.068100
  H    -109.667000   60.289600  -90.387600
  H    -110.396000   59.156300  -91.423200
  S    -111.977000   58.531600  -96.921800
  C    -111.891000   58.083500  -98.569700
  C    -111.064000   56.935900  -98.676700
  C    -110.531000   56.485200  -97.429500
  C    -110.814000   57.352100  -96.363000
  H    -110.873000   56.379000  -99.643700
  C    -109.656000   55.237300  -97.369400
  H    -110.183000   54.468500  -97.913100
  H    -109.498000   54.914200  -96.307400
  C    -108.187000   55.380300  -97.872100
  H    -107.682000   56.206700  -97.425000
  H    -108.193000   55.548300  -98.989200
  C    -107.356000   54.193200  -97.637800
  H    -106.376000   54.343900  -98.192000
  H    -107.803000   53.358500  -97.991400
  H    -107.021000   54.067900  -96.554400
  H    -109.651000   55.432000  -91.960600
  H    -112.370000   58.600400  -99.373200

 Total Charge           Charge          ....    0
 Multiplicity           Mult            ....    1
 Number of Electrons    NEL             ....  134
 Basis Dimension        Dim             ....  322

ORBITAL ENERGIES
----------------

  NO   OCC          E(Eh)            E(eV)
   0   2.0000     -88.967679     -2420.9336
   1   2.0000     -88.960597     -2420.7409
   2   2.0000     -10.325580      -280.9733
   3   2.0000     -10.324407      -280.9414
   4   2.0000     -10.320411      -280.8327
   5   2.0000     -10.312146      -280.6078
   6   2.0000     -10.304289      -280.3940
   7   2.0000     -10.300964      -280.3035
   8   2.0000     -10.298935      -280.2483
   9   2.0000     -10.297069      -280.1975
  10   2.0000     -10.294749      -280.1344
  11   2.0000     -10.293172      -280.0914
  12   2.0000     -10.289946      -280.0037
  13   2.0000     -10.281077      -279.7623
  14   2.0000     -10.272368      -279.5253
  15   2.0000     -10.263808      -279.2924
  16   2.0000      -8.082755      -219.9430
  17   2.0000      -8.075511      -219.7458
  18   2.0000      -6.041197      -164.3893
  19   2.0000      -6.036956      -164.2739
  20   2.0000      -6.034109      -164.1965
  21   2.0000      -6.033818      -164.1885
  22   2.0000      -6.029882      -164.0814
  23   2.0000      -6.026222      -163.9818
  24   2.0000      -1.011619       -27.5276
  25   2.0000      -0.988329       -26.8938
  26   2.0000      -0.911909       -24.8143
  27   2.0000      -0.908924       -24.7331
  28   2.0000      -0.873810       -23.7776
  29   2.0000      -0.854574       -23.2541
  30   2.0000      -0.841801       -22.9066
  31   2.0000      -0.816131       -22.2081
  32   2.0000      -0.781759       -21.2727
  33   2.0000      -0.772706       -21.0264
  34   2.0000      -0.711002       -19.3474
  35   2.0000      -0.695827       -18.9344
  36   2.0000      -0.689256       -18.7556
  37   2.0000      -0.661212       -17.9925
  38   2.0000      -0.645082       -17.5536
  39   2.0000      -0.619587       -16.8598
  40   2.0000      -0.595970       -16.2172
  41   2.0000      -0.569275       -15.4907
  42   2.0000      -0.566698       -15.4206
  43   2.0000      -0.555363       -15.1122
  44   2.0000      -0.542951       -14.7745
  45   2.0000      -0.527954       -14.3664
  46   2.0000      -0.520162       -14.1543
  47   2.0000      -0.517102       -14.0711
  48   2.0000      -0.509558       -13.8658
  49   2.0000      -0.501010       -13.6332
  50   2.0000      -0.489808       -13.3284
  51   2.0000      -0.477797       -13.0015
  52   2.0000      -0.469776       -12.7833
  53   2.0000      -0.467179       -12.7126
  54   2.0000      -0.456523       -12.4226
  55   2.0000      -0.447527       -12.1778
  56   2.0000      -0.442238       -12.0339
  57   2.0000      -0.436700       -11.8832
  58   2.0000      -0.435207       -11.8426
  59   2.0000      -0.419292       -11.4095
  60   2.0000      -0.417052       -11.3486
  61   2.0000      -0.414383       -11.2759
  62   2.0000      -0.405314       -11.0292
  63   2.0000      -0.338177        -9.2023
  64   2.0000      -0.329302        -8.9608
  65   2.0000      -0.324571        -8.8320
  66   2.0000      -0.307744        -8.3741
  67   0.0000       0.035779         0.9736
  68   0.0000       0.064654         1.7593
  69   0.0000       0.110939         3.0188
  70   0.0000       0.119818         3.2604
  71   0.0000       0.137493         3.7414

MULLIKEN ATOMIC CHARGES
-----------------------
   0 S :    0.091804
   1 C :   -0.123068
   2 C :   -0.074388
   3 C :    0.041275
   4 C :   -0.142339
   5 H :    0.007223
   6 C :    0.040747
   7 H :    0.032864
   8 H :    0.024621
   9 C :   -0.091007
  10 H :    0.053673
  11 H :    0.030442
  12 C :   -0.014888
  13 H :    0.007961
  14 H :    0.022861
  15 H :    0.032950
  16 S :    0.124843
  17 C :   -0.094233
  18 C :   -0.054415
  19 C :   -0.034039
  20 C :   -0.163986
  21 H :    0.040462
  22 C :    0.057780
  23 H :    0.026717
  24 H :    0.028943
  25 C :   -0.068945
  26 H :    0.021654
  27 H :    0.024221
  28 C :   -0.033713
  29 H :    0.035039
  30 H :    0.007454
  31 H :    0.040390
  32 H :    0.040356
  33 H :    0.060741
Sum of atomic charges:   -0.0000000

LOEWDIN ATOMIC CHARGES
----------------------
   0 S :    0.408873
   1 C :   -0.178965
   2 C :   -0.070055
   3 C :   -0.050341
   4 C :   -0.195085
   5 H :    0.028076
   6 C :   -0.032453
   7 H :    0.027050
   8 H :    0.033192
   9 C :   -0.043030
  10 H :    0.037086
  11 H :    0.021699
  12 C :   -0.060006
  13 H :    0.019630
  14 H :    0.018927
  15 H :    0.025047
  16 S :    0.437323
  17 C :   -0.198795
  18 C :   -0.080328
  19 C :   -0.052022
  20 C :   -0.218973
  21 H :    0.039550
  22 C :   -0.037205
  23 H :    0.029152
  24 H :    0.025275
  25 C :   -0.042335
  26 H :    0.021448
  27 H :    0.024368
  28 C :   -0.062581
  29 H :    0.035907
  30 H :    0.006161
  31 H :    0.031621
  32 H :    0.022399
  33 H :    0.029386

  Mayer bond orders larger than 0.100000
B(  0-S ,  1-C ) :   1.1342 B(  0-S ,  4-C ) :   1.1355 B(  1-C ,  2-C ) :   1.6203
B(  1-C , 32-H ) :   0.9758 B(  2-C ,  3-C ) :   1.2075 B(  2-C ,  6-C ) :   1.0206
B(  3-C ,  4-C ) :   1.6095 B(  3-C ,  5-H ) :   0.9995 B(  4-C , 20-C ) :   1.0327
B(  6-C ,  7-H ) :   0.9438 B(  6-C ,  8-H ) :   0.9475 B(  6-C ,  9-C ) :   1.0632
B(  9-C , 10-H ) :   0.9581 B(  9-C , 11-H ) :   0.9554 B(  9-C , 12-C ) :   1.0724
B( 12-C , 13-H ) :   0.9752 B( 12-C , 14-H ) :   0.9750 B( 12-C , 15-H ) :   0.9683
B( 16-S , 17-C ) :   1.1945 B( 16-S , 20-C ) :   1.1536 B( 17-C , 18-C ) :   1.5334
B( 17-C , 20-C ) :   0.1100 B( 17-C , 33-H ) :   0.9755 B( 18-C , 19-C ) :   1.2969
B( 18-C , 21-H ) :   0.9808 B( 19-C , 20-C ) :   1.5388 B( 19-C , 22-C ) :   1.0530
B( 22-C , 23-H ) :   0.9278 B( 22-C , 24-H ) :   0.9272 B( 22-C , 25-C ) :   1.0679
B( 25-C , 26-H ) :   0.9524 B( 25-C , 27-H ) :   0.9502 B( 25-C , 28-C ) :   1.1051
B( 28-C , 29-H ) :   0.9689 B( 28-C , 30-H ) :   0.9710 B( 28-C , 31-H ) :   0.9699

Dispersion correction           -0.014577282
FINAL SINGLE POINT ENERGY     -1339.874868169636

DIPOLE MOMENT
-------------
                                X             Y             Z
Electronic contribution:    -19.26716       2.54254      -6.77647
Nuclear contribution   :     19.81777      -2.63117       6.69324
                        -----------------------------------------
Total Dipole Moment    :      0.55061      -0.08863      -0.08323
                        -----------------------------------------
Magnitude (a.u.)       :      0.56388
Magnitude (Debye)      :      1.43326

Rotational constants in cm-1:     0.018835     0.008739     0.007044
Rotational constants in MHz :   564.667694   261.981850   211.164063

                             ****ORCA TERMINATED NORMALLY****
TOTAL RUN TIME: 0 days 0 hours 0 minutes 20 seconds 505 msec
