                         Program Version 4.2.1 -  RELEASE  -
|  1> ! wB97X-D3 SP def2-SVP
|  2> %pal
|  3> nprocs 24
|  4> end
|  5>
|  6> * xyz 0 1
|  7> S 	 -90.0099 	 -48.855 	 -75.923
|  8> C 	 -88.587 	 -48.2319 	 -75.1124
|  9> C 	 -87.5186 	 -49.0188 	 -75.3293
| 10> C 	 -87.7805 	 -50.0367 	 -76.2721
| 11> C 	 -89.0504 	 -50.0194 	 -76.8136
| 12> H 	 -87.1175 	 -50.7413 	 -76.6308
| 13> C 	 -86.1926 	 -48.9591 	 -74.5523
| 14> H 	 -85.5314 	 -49.7754 	 -74.8044
| 15> H 	 -86.5376 	 -48.9114 	 -73.5465
| 16> C 	 -85.3155 	 -47.7017 	 -74.6604
| 17> H 	 -84.3438 	 -47.9787 	 -74.2232
| 18> H 	 -85.1387 	 -47.3478 	 -75.6517
| 19> C 	 -85.8346 	 -46.5105 	 -73.7805
| 20> H 	 -85.972 	 -46.9412 	 -72.8288
| 21> H 	 -84.9534 	 -45.7555 	 -73.5969
| 22> H 	 -86.6593 	 -46.0314 	 -74.1721
| 23> S 	 -91.2842 	 -51.639 	 -77.3757
| 24> C 	 -91.2839 	 -52.5516 	 -78.8626
| 25> C 	 -90.0245 	 -52.4353 	 -79.5276
| 26> C 	 -89.1204 	 -51.5375 	 -78.9361
| 27> C 	 -89.6416 	 -50.9536 	 -77.7708
| 28> H 	 -89.7403 	 -53.0278 	 -80.4319
| 29> C 	 -87.7832 	 -51.3738 	 -79.6454
| 30> H 	 -87.5188 	 -52.2816 	 -80.1676
| 31> H 	 -86.9724 	 -51.2728 	 -78.9759
| 32> C 	 -87.6623 	 -50.2776 	 -80.6798
| 33> H 	 -88.459 	 -50.4869 	 -81.3906
| 34> H 	 -86.7094 	 -50.2861 	 -81.113
| 35> C 	 -87.9924 	 -48.8183 	 -80.2101
| 36> H 	 -87.6546 	 -48.0982 	 -80.9337
| 37> H 	 -87.461 	 -48.5021 	 -79.2945
| 38> H 	 -89.0577 	 -48.7111 	 -80.1972
| 39> H 	 -88.7361 	 -47.4866 	 -74.3216
| 40> H 	 -92.1359 	 -53.259 	 -79.1669
| 41> *
| 42>
| 43>                          ****END OF INPUT****

CARTESIAN COORDINATES (ANGSTROEM)
---------------------------------
  S    -90.009900  -48.855000  -75.923000
  C    -88.587000  -48.231900  -75.112400
  C    -87.518600  -49.018800  -75.329300
  C    -87.780500  -50.036700  -76.272100
  C    -89.050400  -50.019400  -76.813600
  H    -87.117500  -50.741300  -76.630800
  C    -86.192600  -48.959100  -74.552300
  H    -85.531400  -49.775400  -74.804400
  H    -86.537600  -48.911400  -73.546500
  C    -85.315500  -47.701700  -74.660400
  H    -84.343800  -47.978700  -74.223200
  H    -85.138700  -47.347800  -75.651700
  C    -85.834600  -46.510500  -73.780500
  H    -85.972000  -46.941200  -72.828800
  H    -84.953400  -45.755500  -73.596900
  H    -86.659300  -46.031400  -74.172100
  S    -91.284200  -51.639000  -77.375700
  C    -91.283900  -52.551600  -78.862600
  C    -90.024500  -52.435300  -79.527600
  C    -89.120400  -51.537500  -78.936100
  C    -89.641600  -50.953600  -77.770800
  H    -89.740300  -53.027800  -80.431900
  C    -87.783200  -51.373800  -79.645400
  H    -87.518800  -52.281600  -80.167600
  H    -86.972400  -51.272800  -78.975900
  C    -87.662300  -50.277600  -80.679800
  H    -88.459000  -50.486900  -81.390600
  H    -86.709400  -50.286100  -81.113000
  C    -87.992400  -48.818300  -80.210100
  H    -87.654600  -48.098200  -80.933700
  H    -87.461000  -48.502100  -79.294500
  H    -89.057700  -48.711100  -80.197200
  H    -88.736100  -47.486600  -74.321600
  H    -92.135900  -53.259000  -79.166900

 Total Charge           Charge          ....    0
 Multiplicity           Mult            ....    1
 Number of Electrons    NEL             ....  134
 Basis Dimension        Dim             ....  322

ORBITAL ENERGIES
----------------

  NO   OCC          E(Eh)            E(eV)
   0   2.0000     -88.971432     -2421.0358
   1   2.0000     -88.961468     -2420.7646
   2   2.0000     -10.336575      -281.2725
   3   2.0000     -10.330288      -281.1014
   4   2.0000     -10.328755      -281.0597
   5   2.0000     -10.310476      -280.5623
   6   2.0000     -10.306698      -280.4595
   7   2.0000     -10.300083      -280.2795
   8   2.0000     -10.297903      -280.2202
   9   2.0000     -10.290638      -280.0225
  10   2.0000     -10.287964      -279.9497
  11   2.0000     -10.286392      -279.9069
  12   2.0000     -10.285326      -279.8780
  13   2.0000     -10.279941      -279.7314
  14   2.0000     -10.278953      -279.7045
  15   2.0000     -10.268514      -279.4205
  16   2.0000      -8.084916      -220.0017
  17   2.0000      -8.076538      -219.7738
  18   2.0000      -6.043416      -164.4497
  19   2.0000      -6.039594      -164.3457
  20   2.0000      -6.035759      -164.2413
  21   2.0000      -6.035038      -164.2217
  22   2.0000      -6.031044      -164.1130
  23   2.0000      -6.027249      -164.0098
  24   2.0000      -1.005288       -27.3553
  25   2.0000      -0.981464       -26.7070
  26   2.0000      -0.912283       -24.8245
  27   2.0000      -0.909813       -24.7573
  28   2.0000      -0.865472       -23.5507
  29   2.0000      -0.851165       -23.1614
  30   2.0000      -0.844651       -22.9841
  31   2.0000      -0.805434       -21.9170
  32   2.0000      -0.788271       -21.4499
  33   2.0000      -0.778145       -21.1744
  34   2.0000      -0.706176       -19.2160
  35   2.0000      -0.698790       -19.0151
  36   2.0000      -0.688000       -18.7214
  37   2.0000      -0.661986       -18.0135
  38   2.0000      -0.644491       -17.5375
  39   2.0000      -0.619945       -16.8696
  40   2.0000      -0.601001       -16.3541
  41   2.0000      -0.571609       -15.5543
  42   2.0000      -0.556054       -15.1310
  43   2.0000      -0.553227       -15.0541
  44   2.0000      -0.542414       -14.7598
  45   2.0000      -0.534115       -14.5340
  46   2.0000      -0.515754       -14.0344
  47   2.0000      -0.508635       -13.8407
  48   2.0000      -0.499923       -13.6036
  49   2.0000      -0.497538       -13.5387
  50   2.0000      -0.488021       -13.2797
  51   2.0000      -0.484245       -13.1770
  52   2.0000      -0.472520       -12.8579
  53   2.0000      -0.465643       -12.6708
  54   2.0000      -0.462111       -12.5747
  55   2.0000      -0.447401       -12.1744
  56   2.0000      -0.438735       -11.9386
  57   2.0000      -0.434247       -11.8165
  58   2.0000      -0.430091       -11.7034
  59   2.0000      -0.427672       -11.6376
  60   2.0000      -0.421063       -11.4577
  61   2.0000      -0.414510       -11.2794
  62   2.0000      -0.410062       -11.1584
  63   2.0000      -0.350752        -9.5444
  64   2.0000      -0.336156        -9.1473
  65   2.0000      -0.329580        -8.9683
  66   2.0000      -0.284981        -7.7547
  67   0.0000       0.019813         0.5392
  68   0.0000       0.068581         1.8662
  69   0.0000       0.098453         2.6790
  70   0.0000       0.122649         3.3374
  71   0.0000       0.130356         3.5472

MULLIKEN ATOMIC CHARGES
-----------------------
   0 S :    0.089325
   1 C :   -0.149863
   2 C :   -0.043876
   3 C :    0.033727
   4 C :   -0.135565
   5 H :   -0.026381
   6 C :    0.090362
   7 H :    0.026914
   8 H :    0.021433
   9 C :   -0.072032
  10 H :    0.026921
  11 H :    0.027689
  12 C :   -0.067616
  13 H :    0.016210
  14 H :    0.043691
  15 H :    0.039859
  16 S :    0.108176
  17 C :   -0.125281
  18 C :   -0.057772
  19 C :   -0.025158
  20 C :   -0.155248
  21 H :    0.035884
  22 C :    0.101192
  23 H :    0.013955
  24 H :   -0.000263
  25 C :   -0.054627
  26 H :    0.018493
  27 H :    0.023423
  28 C :   -0.052808
  29 H :    0.020083
  30 H :    0.038648
  31 H :    0.038792
  32 H :    0.059022
  33 H :    0.092691
Sum of atomic charges:   -0.0000000

LOEWDIN ATOMIC CHARGES
----------------------
   0 S :    0.396365
   1 C :   -0.198106
   2 C :   -0.063456
   3 C :   -0.057616
   4 C :   -0.185323
   5 H :    0.016042
   6 C :   -0.023905
   7 H :    0.031338
   8 H :    0.030653
   9 C :   -0.032993
  10 H :    0.026578
  11 H :    0.017217
  12 C :   -0.061854
  13 H :    0.015418
  14 H :    0.039656
  15 H :    0.010970
  16 S :    0.389476
  17 C :   -0.204444
  18 C :   -0.077282
  19 C :   -0.054848
  20 C :   -0.174991
  21 H :    0.037745
  22 C :   -0.026627
  23 H :    0.032741
  24 H :    0.018793
  25 C :   -0.029894
  26 H :    0.024168
  27 H :    0.017007
  28 C :   -0.066369
  29 H :    0.023275
  30 H :    0.027198
  31 H :    0.025453
  32 H :    0.029387
  33 H :    0.048229

  Mayer bond orders larger than 0.100000
B(  0-S ,  1-C ) :   1.1325 B(  0-S ,  4-C ) :   1.1540 B(  1-C ,  2-C ) :   1.6153
B(  1-C , 32-H ) :   0.9640 B(  2-C ,  3-C ) :   1.2488 B(  2-C ,  6-C ) :   1.0039
B(  3-C ,  4-C ) :   1.5550 B(  3-C ,  5-H ) :   1.0127 B(  4-C , 20-C ) :   1.0662
B(  6-C ,  7-H ) :   0.9462 B(  6-C ,  8-H ) :   0.9375 B(  6-C ,  9-C ) :   1.0738
B(  9-C , 10-H ) :   0.9572 B(  9-C , 11-H ) :   0.9590 B(  9-C , 12-C ) :   1.0750
B( 12-C , 13-H ) :   0.9752 B( 12-C , 14-H ) :   0.9742 B( 12-C , 15-H ) :   0.9789
B( 16-S , 17-C ) :   1.1656 B( 16-S , 20-C ) :   1.1380 B( 17-C , 18-C ) :   1.5607
B( 17-C , 20-C ) :   0.1148 B( 17-C , 33-H ) :   0.9579 B( 18-C , 19-C ) :   1.2852
B( 18-C , 21-H ) :   0.9764 B( 19-C , 20-C ) :   1.5682 B( 19-C , 22-C ) :   1.0305
B( 22-C , 23-H ) :   0.9305 B( 22-C , 24-H ) :   0.9291 B( 22-C , 25-C ) :   1.0853
B( 25-C , 26-H ) :   0.9547 B( 25-C , 27-H ) :   0.9564 B( 25-C , 28-C ) :   1.0814
B( 28-C , 29-H ) :   0.9732 B( 28-C , 30-H ) :   0.9759 B( 28-C , 31-H ) :   0.9766

Dispersion correction           -0.014685360
FINAL SINGLE POINT ENERGY     -1339.861394876069

DIPOLE MOMENT
-------------
                                X             Y             Z
Electronic contribution:    -23.91045     -11.39275       2.82384
Nuclear contribution   :     24.58044      11.21510      -2.92054
                        -----------------------------------------
Total Dipole Moment    :      0.66998      -0.17765      -0.09670
                        -----------------------------------------
Magnitude (a.u.)       :      0.69985
Magnitude (Debye)      :      1.77887

Rotational constants in cm-1:     0.022281     0.008134     0.006711
Rotational constants in MHz :   667.974458   243.842088   201.180824

                             ****ORCA TERMINATED NORMALLY****
TOTAL RUN TIME: 0 days 0 hours 0 minutes 21 seconds 898 msec
