                         Program Version 4.2.1 -  RELEASE  -
|  1> ! wB97X-D3 SP def2-SVP
|  2> %pal
|  3> nprocs 24
|  4> end
|  5>
|  6> * xyz 0 1
|  7> S 	 -126.411 	 26.4354 	 -112.731
|  8> C 	 -124.841 	 25.8298 	 -112.67
|  9> C 	 -124.18 	 26.1714 	 -111.478
| 10> C 	 -125.016 	 26.9904 	 -110.638
| 11> C 	 -126.263 	 27.2067 	 -111.197
| 12> H 	 -124.757 	 27.4436 	 -109.665
| 13> C 	 -122.736 	 25.8698 	 -111.097
| 14> H 	 -122.555 	 26.539 	 -110.324
| 15> H 	 -122.085 	 26.2426 	 -111.849
| 16> C 	 -122.43 	 24.4229 	 -110.659
| 17> H 	 -122.784 	 24.3894 	 -109.617
| 18> H 	 -122.959 	 23.7181 	 -111.259
| 19> C 	 -120.915 	 24.0966 	 -110.617
| 20> H 	 -120.654 	 23.198 	 -110.076
| 21> H 	 -120.465 	 24.0221 	 -111.612
| 22> H 	 -120.254 	 24.8718 	 -110.181
| 23> S 	 -127.86 	 29.3662 	 -111.554
| 24> C 	 -128.836 	 29.8779 	 -110.209
| 25> C 	 -128.803 	 29.0634 	 -109.087
| 26> C 	 -127.828 	 27.9982 	 -109.272
| 27> C 	 -127.293 	 28.0188 	 -110.6
| 28> H 	 -129.425 	 29.2379 	 -108.256
| 29> C 	 -127.501 	 27.0311 	 -108.158
| 30> H 	 -127.115 	 26.1429 	 -108.553
| 31> H 	 -128.446 	 26.7759 	 -107.811
| 32> C 	 -126.424 	 27.4539 	 -107.107
| 33> H 	 -126.449 	 28.45 	 -106.774
| 34> H 	 -125.407 	 27.4189 	 -107.516
| 35> C 	 -126.422 	 26.5586 	 -105.894
| 36> H 	 -127.432 	 26.3167 	 -105.461
| 37> H 	 -125.83 	 26.9556 	 -105.094
| 38> H 	 -126.002 	 25.5288 	 -105.996
| 39> H 	 -124.337 	 25.2835 	 -113.39
| 40> H 	 -129.418 	 30.7749 	 -110.14
| 41> *
| 42>
| 43>                          ****END OF INPUT****

CARTESIAN COORDINATES (ANGSTROEM)
---------------------------------
  S    -126.411000   26.435400  -112.731000
  C    -124.841000   25.829800  -112.670000
  C    -124.180000   26.171400  -111.478000
  C    -125.016000   26.990400  -110.638000
  C    -126.263000   27.206700  -111.197000
  H    -124.757000   27.443600  -109.665000
  C    -122.736000   25.869800  -111.097000
  H    -122.555000   26.539000  -110.324000
  H    -122.085000   26.242600  -111.849000
  C    -122.430000   24.422900  -110.659000
  H    -122.784000   24.389400  -109.617000
  H    -122.959000   23.718100  -111.259000
  C    -120.915000   24.096600  -110.617000
  H    -120.654000   23.198000  -110.076000
  H    -120.465000   24.022100  -111.612000
  H    -120.254000   24.871800  -110.181000
  S    -127.860000   29.366200  -111.554000
  C    -128.836000   29.877900  -110.209000
  C    -128.803000   29.063400  -109.087000
  C    -127.828000   27.998200  -109.272000
  C    -127.293000   28.018800  -110.600000
  H    -129.425000   29.237900  -108.256000
  C    -127.501000   27.031100  -108.158000
  H    -127.115000   26.142900  -108.553000
  H    -128.446000   26.775900  -107.811000
  C    -126.424000   27.453900  -107.107000
  H    -126.449000   28.450000  -106.774000
  H    -125.407000   27.418900  -107.516000
  C    -126.422000   26.558600  -105.894000
  H    -127.432000   26.316700  -105.461000
  H    -125.830000   26.955600  -105.094000
  H    -126.002000   25.528800  -105.996000
  H    -124.337000   25.283500  -113.390000
  H    -129.418000   30.774900  -110.140000

 Total Charge           Charge          ....    0
 Multiplicity           Mult            ....    1
 Number of Electrons    NEL             ....  134
 Basis Dimension        Dim             ....  322

ORBITAL ENERGIES
----------------

  NO   OCC          E(Eh)            E(eV)
   0   2.0000     -88.968987     -2420.9692
   1   2.0000     -88.968319     -2420.9510
   2   2.0000     -10.325036      -280.9585
   3   2.0000     -10.321080      -280.8509
   4   2.0000     -10.313520      -280.6451
   5   2.0000     -10.308361      -280.5048
   6   2.0000     -10.304253      -280.3930
   7   2.0000     -10.299936      -280.2755
   8   2.0000     -10.292902      -280.0841
   9   2.0000     -10.292897      -280.0840
  10   2.0000     -10.288894      -279.9750
  11   2.0000     -10.288050      -279.9521
  12   2.0000     -10.284139      -279.8457
  13   2.0000     -10.282236      -279.7939
  14   2.0000     -10.280109      -279.7360
  15   2.0000     -10.279923      -279.7309
  16   2.0000      -8.084349      -219.9863
  17   2.0000      -8.083767      -219.9705
  18   2.0000      -6.042646      -164.4288
  19   2.0000      -6.042173      -164.4159
  20   2.0000      -6.038615      -164.3191
  21   2.0000      -6.038345      -164.3117
  22   2.0000      -6.035330      -164.2297
  23   2.0000      -6.034566      -164.2089
  24   2.0000      -1.009191       -27.4615
  25   2.0000      -0.982779       -26.7428
  26   2.0000      -0.910815       -24.7845
  27   2.0000      -0.908887       -24.7321
  28   2.0000      -0.869825       -23.6691
  29   2.0000      -0.855539       -23.2804
  30   2.0000      -0.849277       -23.1100
  31   2.0000      -0.813760       -22.1435
  32   2.0000      -0.784569       -21.3492
  33   2.0000      -0.769747       -20.9459
  34   2.0000      -0.712721       -19.3941
  35   2.0000      -0.708888       -19.2898
  36   2.0000      -0.696104       -18.9419
  37   2.0000      -0.664059       -18.0700
  38   2.0000      -0.643330       -17.5059
  39   2.0000      -0.615981       -16.7617
  40   2.0000      -0.595490       -16.2041
  41   2.0000      -0.571395       -15.5485
  42   2.0000      -0.563268       -15.3273
  43   2.0000      -0.553854       -15.0711
  44   2.0000      -0.529905       -14.4195
  45   2.0000      -0.523691       -14.2503
  46   2.0000      -0.518934       -14.1209
  47   2.0000      -0.512354       -13.9419
  48   2.0000      -0.504237       -13.7210
  49   2.0000      -0.501709       -13.6522
  50   2.0000      -0.494107       -13.4453
  51   2.0000      -0.479211       -13.0400
  52   2.0000      -0.467302       -12.7159
  53   2.0000      -0.466428       -12.6922
  54   2.0000      -0.462246       -12.5783
  55   2.0000      -0.452028       -12.3003
  56   2.0000      -0.444637       -12.0992
  57   2.0000      -0.442703       -12.0466
  58   2.0000      -0.437279       -11.8990
  59   2.0000      -0.427398       -11.6301
  60   2.0000      -0.426666       -11.6102
  61   2.0000      -0.417951       -11.3730
  62   2.0000      -0.412009       -11.2113
  63   2.0000      -0.347257        -9.4493
  64   2.0000      -0.330330        -8.9887
  65   2.0000      -0.327893        -8.9224
  66   2.0000      -0.287052        -7.8111
  67   0.0000       0.035114         0.9555
  68   0.0000       0.070596         1.9210
  69   0.0000       0.118122         3.2143
  70   0.0000       0.124618         3.3910
  71   0.0000       0.127739         3.4759

MULLIKEN ATOMIC CHARGES
-----------------------
   0 S :    0.140119
   1 C :   -0.079838
   2 C :   -0.130830
   3 C :    0.020755
   4 C :   -0.165363
   5 H :    0.014707
   6 C :    0.111783
   7 H :   -0.009596
   8 H :    0.018539
   9 C :   -0.037967
  10 H :    0.031600
  11 H :    0.032172
  12 C :   -0.066309
  13 H :    0.035201
  14 H :    0.026570
  15 H :    0.024081
  16 S :    0.125675
  17 C :   -0.078271
  18 C :   -0.025343
  19 C :   -0.055010
  20 C :   -0.163832
  21 H :    0.005797
  22 C :    0.130162
  23 H :    0.006906
  24 H :    0.007870
  25 C :   -0.023889
  26 H :    0.015865
  27 H :    0.022094
  28 C :   -0.077503
  29 H :    0.029003
  30 H :    0.026577
  31 H :    0.029168
  32 H :    0.014008
  33 H :    0.045098
Sum of atomic charges:   -0.0000000

LOEWDIN ATOMIC CHARGES
----------------------
   0 S :    0.451245
   1 C :   -0.214139
   2 C :   -0.057311
   3 C :   -0.065162
   4 C :   -0.216460
   5 H :    0.033482
   6 C :   -0.028893
   7 H :    0.021453
   8 H :    0.026293
   9 C :   -0.030547
  10 H :    0.029999
  11 H :    0.020656
  12 C :   -0.074660
  13 H :    0.024927
  14 H :    0.023986
  15 H :    0.027100
  16 S :    0.418458
  17 C :   -0.187497
  18 C :   -0.063730
  19 C :   -0.043058
  20 C :   -0.207199
  21 H :    0.025983
  22 C :   -0.022026
  23 H :    0.027519
  24 H :    0.025346
  25 C :   -0.033269
  26 H :    0.018223
  27 H :    0.027105
  28 C :   -0.074509
  29 H :    0.027246
  30 H :    0.023295
  31 H :    0.027045
  32 H :    0.014566
  33 H :    0.024533

  Mayer bond orders larger than 0.100000
B(  0-S ,  1-C ) :   1.1597 B(  0-S ,  4-C ) :   1.1718 B(  1-C ,  2-C ) :   1.5765
B(  1-C , 32-H ) :   0.9775 B(  2-C ,  3-C ) :   1.2746 B(  2-C ,  6-C ) :   1.0158
B(  3-C ,  4-C ) :   1.5488 B(  3-C ,  5-H ) :   0.9862 B(  4-C , 20-C ) :   1.0367
B(  6-C ,  7-H ) :   0.9306 B(  6-C ,  8-H ) :   0.9417 B(  6-C ,  9-C ) :   1.0498
B(  9-C , 10-H ) :   0.9558 B(  9-C , 11-H ) :   0.9668 B(  9-C , 12-C ) :   1.0733
B( 12-C , 13-H ) :   0.9768 B( 12-C , 14-H ) :   0.9759 B( 12-C , 15-H ) :   0.9740
B( 16-S , 17-C ) :   1.1552 B( 16-S , 20-C ) :   1.1457 B( 17-C , 18-C ) :   1.6239
B( 17-C , 33-H ) :   0.9647 B( 18-C , 19-C ) :   1.2260 B( 18-C , 21-H ) :   0.9967
B( 19-C , 20-C ) :   1.5810 B( 19-C , 22-C ) :   1.0506 B( 22-C , 23-H ) :   0.9230
B( 22-C , 24-H ) :   0.9363 B( 22-C , 25-C ) :   1.0464 B( 25-C , 26-H ) :   0.9592
B( 25-C , 27-H ) :   0.9451 B( 25-C , 28-C ) :   1.0848 B( 28-C , 29-H ) :   0.9759
B( 28-C , 30-H ) :   0.9727 B( 28-C , 31-H ) :   0.9743

Dispersion correction           -0.013937608
FINAL SINGLE POINT ENERGY     -1339.871127555640

DIPOLE MOMENT
-------------
                                X             Y             Z
Electronic contribution:    -19.79411      13.76236     -22.02494
Nuclear contribution   :     20.14074     -13.84137      22.59111
                        -----------------------------------------
Total Dipole Moment    :      0.34663      -0.07901       0.56617
                        -----------------------------------------
Magnitude (a.u.)       :      0.66854
Magnitude (Debye)      :      1.69929

Rotational constants in cm-1:     0.017589     0.008687     0.006227
Rotational constants in MHz :   527.305767   260.421132   186.684864

                             ****ORCA TERMINATED NORMALLY****
TOTAL RUN TIME: 0 days 0 hours 0 minutes 21 seconds 285 msec
