                         Program Version 4.2.1 -  RELEASE  -
|  1> ! wB97X-D3 SP def2-SVP
|  2> %pal
|  3> nprocs 24
|  4> end
|  5>
|  6> * xyz 0 1
|  7> S 	 -27.3367 	 -4.76677 	 -4.68694
|  8> C 	 -26.863 	 -5.78225 	 -3.35835
|  9> C 	 -27.6665 	 -6.95663 	 -3.25494
| 10> C 	 -28.82 	 -6.82669 	 -4.08039
| 11> C 	 -28.7669 	 -5.73507 	 -4.90081
| 12> H 	 -29.6103 	 -7.5974 	 -4.16045
| 13> C 	 -27.5154 	 -8.0275 	 -2.25849
| 14> H 	 -28.0393 	 -7.83833 	 -1.29503
| 15> H 	 -26.3807 	 -7.96792 	 -1.99283
| 16> C 	 -27.8203 	 -9.46428 	 -2.72012
| 17> H 	 -28.9017 	 -9.42502 	 -2.90463
| 18> H 	 -27.1965 	 -9.82012 	 -3.58107
| 19> C 	 -27.6909 	 -10.4306 	 -1.50776
| 20> H 	 -27.9669 	 -11.4615 	 -1.91459
| 21> H 	 -26.5785 	 -10.4026 	 -1.33598
| 22> H 	 -28.1957 	 -10.2441 	 -0.58603
| 23> S 	 -29.2182 	 -4.99459 	 -7.58727
| 24> C 	 -30.9126 	 -4.96708 	 -8.08166
| 25> C 	 -31.8369 	 -5.34183 	 -7.10165
| 26> C 	 -31.1836 	 -5.76366 	 -5.89004
| 27> C 	 -29.8046 	 -5.50607 	 -5.90019
| 28> H 	 -32.8708 	 -5.35684 	 -7.24173
| 29> C 	 -31.9826 	 -6.45568 	 -4.79795
| 30> H 	 -32.8579 	 -5.93409 	 -4.778
| 31> H 	 -31.5315 	 -6.3399 	 -3.83102
| 32> C 	 -32.373 	 -7.92634 	 -5.01897
| 33> H 	 -31.4003 	 -8.42255 	 -5.26427
| 34> H 	 -33.1565 	 -8.15606 	 -5.81482
| 35> C 	 -33.0244 	 -8.49813 	 -3.68327
| 36> H 	 -32.7954 	 -9.56344 	 -3.53497
| 37> H 	 -34.1052 	 -8.3475 	 -3.62674
| 38> H 	 -32.6336 	 -7.89319 	 -2.88176
| 39> H 	 -25.9741 	 -5.49693 	 -2.75368
| 40> H 	 -31.302 	 -4.78966 	 -9.07178
| 41> *
| 42>
| 43>                          ****END OF INPUT****

CARTESIAN COORDINATES (ANGSTROEM)
---------------------------------
  S    -27.336700   -4.766770   -4.686940
  C    -26.863000   -5.782250   -3.358350
  C    -27.666500   -6.956630   -3.254940
  C    -28.820000   -6.826690   -4.080390
  C    -28.766900   -5.735070   -4.900810
  H    -29.610300   -7.597400   -4.160450
  C    -27.515400   -8.027500   -2.258490
  H    -28.039300   -7.838330   -1.295030
  H    -26.380700   -7.967920   -1.992830
  C    -27.820300   -9.464280   -2.720120
  H    -28.901700   -9.425020   -2.904630
  H    -27.196500   -9.820120   -3.581070
  C    -27.690900  -10.430600   -1.507760
  H    -27.966900  -11.461500   -1.914590
  H    -26.578500  -10.402600   -1.335980
  H    -28.195700  -10.244100   -0.586030
  S    -29.218200   -4.994590   -7.587270
  C    -30.912600   -4.967080   -8.081660
  C    -31.836900   -5.341830   -7.101650
  C    -31.183600   -5.763660   -5.890040
  C    -29.804600   -5.506070   -5.900190
  H    -32.870800   -5.356840   -7.241730
  C    -31.982600   -6.455680   -4.797950
  H    -32.857900   -5.934090   -4.778000
  H    -31.531500   -6.339900   -3.831020
  C    -32.373000   -7.926340   -5.018970
  H    -31.400300   -8.422550   -5.264270
  H    -33.156500   -8.156060   -5.814820
  C    -33.024400   -8.498130   -3.683270
  H    -32.795400   -9.563440   -3.534970
  H    -34.105200   -8.347500   -3.626740
  H    -32.633600   -7.893190   -2.881760
  H    -25.974100   -5.496930   -2.753680
  H    -31.302000   -4.789660   -9.071780

 Total Charge           Charge          ....    0
 Multiplicity           Mult            ....    1
 Number of Electrons    NEL             ....  134
 Basis Dimension        Dim             ....  322

ORBITAL ENERGIES
----------------

  NO   OCC          E(Eh)            E(eV)
   0   2.0000     -88.971439     -2421.0359
   1   2.0000     -88.967916     -2420.9401
   2   2.0000     -10.333788      -281.1967
   3   2.0000     -10.326067      -280.9866
   4   2.0000     -10.319605      -280.8107
   5   2.0000     -10.318562      -280.7824
   6   2.0000     -10.305864      -280.4368
   7   2.0000     -10.303186      -280.3640
   8   2.0000     -10.301453      -280.3168
   9   2.0000     -10.297871      -280.2193
  10   2.0000     -10.296213      -280.1742
  11   2.0000     -10.292083      -280.0618
  12   2.0000     -10.291712      -280.0517
  13   2.0000     -10.287631      -279.9407
  14   2.0000     -10.285497      -279.8826
  15   2.0000     -10.284210      -279.8476
  16   2.0000      -8.086304      -220.0395
  17   2.0000      -8.080725      -219.8877
  18   2.0000      -6.044732      -164.4855
  19   2.0000      -6.040864      -164.3803
  20   2.0000      -6.039380      -164.3399
  21   2.0000      -6.037090      -164.2776
  22   2.0000      -6.035796      -164.2424
  23   2.0000      -6.031171      -164.1165
  24   2.0000      -1.003218       -27.2990
  25   2.0000      -0.973721       -26.4963
  26   2.0000      -0.914028       -24.8720
  27   2.0000      -0.908161       -24.7123
  28   2.0000      -0.865265       -23.5451
  29   2.0000      -0.854396       -23.2493
  30   2.0000      -0.845519       -23.0077
  31   2.0000      -0.808426       -21.9984
  32   2.0000      -0.782039       -21.2804
  33   2.0000      -0.764717       -20.8090
  34   2.0000      -0.706479       -19.2243
  35   2.0000      -0.697585       -18.9823
  36   2.0000      -0.688180       -18.7263
  37   2.0000      -0.662502       -18.0276
  38   2.0000      -0.638270       -17.3682
  39   2.0000      -0.622503       -16.9392
  40   2.0000      -0.593350       -16.1459
  41   2.0000      -0.576435       -15.6856
  42   2.0000      -0.569985       -15.5101
  43   2.0000      -0.555749       -15.1227
  44   2.0000      -0.526204       -14.3187
  45   2.0000      -0.522675       -14.2227
  46   2.0000      -0.515832       -14.0365
  47   2.0000      -0.511690       -13.9238
  48   2.0000      -0.501090       -13.6354
  49   2.0000      -0.497092       -13.5266
  50   2.0000      -0.490310       -13.3420
  51   2.0000      -0.473277       -12.8785
  52   2.0000      -0.467605       -12.7242
  53   2.0000      -0.462646       -12.5892
  54   2.0000      -0.459154       -12.4942
  55   2.0000      -0.450978       -12.2717
  56   2.0000      -0.448531       -12.2052
  57   2.0000      -0.445478       -12.1221
  58   2.0000      -0.438117       -11.9218
  59   2.0000      -0.422800       -11.5050
  60   2.0000      -0.419957       -11.4276
  61   2.0000      -0.418090       -11.3768
  62   2.0000      -0.405575       -11.0363
  63   2.0000      -0.352117        -9.5816
  64   2.0000      -0.331292        -9.0149
  65   2.0000      -0.330788        -9.0012
  66   2.0000      -0.278454        -7.5771
  67   0.0000       0.025115         0.6834
  68   0.0000       0.063580         1.7301
  69   0.0000       0.099973         2.7204
  70   0.0000       0.116891         3.1808
  71   0.0000       0.120967         3.2917

MULLIKEN ATOMIC CHARGES
-----------------------
   0 S :    0.129030
   1 C :   -0.149056
   2 C :   -0.027457
   3 C :   -0.022884
   4 C :   -0.112898
   5 H :    0.012817
   6 C :   -0.011667
   7 H :    0.051412
   8 H :    0.026986
   9 C :   -0.104474
  10 H :    0.035140
  11 H :    0.058921
  12 C :   -0.069099
  13 H :    0.045457
  14 H :    0.032638
  15 H :    0.040287
  16 S :    0.087033
  17 C :   -0.072141
  18 C :   -0.010237
  19 C :   -0.055917
  20 C :   -0.142023
  21 H :   -0.003219
  22 C :    0.092463
  23 H :   -0.004443
  24 H :    0.024851
  25 C :   -0.116947
  26 H :    0.045902
  27 H :    0.050490
  28 C :   -0.049998
  29 H :    0.047045
  30 H :    0.038604
  31 H :    0.017843
  32 H :    0.065137
  33 H :    0.050406
Sum of atomic charges:   -0.0000000

LOEWDIN ATOMIC CHARGES
----------------------
   0 S :    0.420076
   1 C :   -0.207629
   2 C :   -0.065174
   3 C :   -0.066386
   4 C :   -0.199577
   5 H :    0.034361
   6 C :   -0.049425
   7 H :    0.038133
   8 H :    0.035395
   9 C :   -0.042801
  10 H :    0.021291
  11 H :    0.037427
  12 C :   -0.070243
  13 H :    0.033849
  14 H :    0.029104
  15 H :    0.020290
  16 S :    0.349584
  17 C :   -0.175670
  18 C :   -0.060063
  19 C :   -0.048886
  20 C :   -0.157423
  21 H :    0.022158
  22 C :   -0.031683
  23 H :    0.018982
  24 H :    0.027704
  25 C :   -0.041357
  26 H :    0.024413
  27 H :    0.033719
  28 C :   -0.066982
  29 H :    0.030338
  30 H :    0.027002
  31 H :    0.019690
  32 H :    0.032741
  33 H :    0.027042

  Mayer bond orders larger than 0.100000
B(  0-S ,  1-C ) :   1.1479 B(  0-S ,  4-C ) :   1.1524 B(  1-C ,  2-C ) :   1.5649
B(  1-C , 32-H ) :   0.9662 B(  2-C ,  3-C ) :   1.2509 B(  2-C ,  6-C ) :   1.0366
B(  3-C ,  4-C ) :   1.5578 B(  3-C ,  5-H ) :   0.9828 B(  4-C , 20-C ) :   1.0673
B(  6-C ,  7-H ) :   0.9414 B(  6-C ,  8-H ) :   0.9372 B(  6-C ,  9-C ) :   1.0598
B(  9-C , 10-H ) :   0.9490 B(  9-C , 11-H ) :   0.9574 B(  9-C , 12-C ) :   1.0744
B( 12-C , 13-H ) :   0.9747 B( 12-C , 14-H ) :   0.9763 B( 12-C , 15-H ) :   0.9763
B( 16-S , 17-C ) :   1.1356 B( 16-S , 20-C ) :   1.0976 B( 17-C , 18-C ) :   1.6388
B( 17-C , 33-H ) :   0.9624 B( 18-C , 19-C ) :   1.2140 B( 18-C , 21-H ) :   0.9941
B( 19-C , 20-C ) :   1.6291 B( 19-C , 22-C ) :   1.0529 B( 22-C , 23-H ) :   0.9155
B( 22-C , 24-H ) :   0.9301 B( 22-C , 25-C ) :   1.0590 B( 25-C , 26-H ) :   0.9575
B( 25-C , 27-H ) :   0.9561 B( 25-C , 28-C ) :   1.0587 B( 28-C , 29-H ) :   0.9767
B( 28-C , 30-H ) :   0.9782 B( 28-C , 31-H ) :   0.9771

Dispersion correction           -0.014129343
FINAL SINGLE POINT ENERGY     -1339.855581252984

DIPOLE MOMENT
-------------
                                X             Y             Z
Electronic contribution:     11.41184      25.55159     -18.93792
Nuclear contribution   :    -11.84379     -26.10005      19.35072
                        -----------------------------------------
Total Dipole Moment    :     -0.43195      -0.54846       0.41280
                        -----------------------------------------
Magnitude (a.u.)       :      0.81104
Magnitude (Debye)      :      2.06150

Rotational constants in cm-1:     0.016248     0.009840     0.006667
Rotational constants in MHz :   487.095966   294.997829   199.882597

                             ****ORCA TERMINATED NORMALLY****
TOTAL RUN TIME: 0 days 0 hours 0 minutes 20 seconds 837 msec
