                         Program Version 4.2.1 -  RELEASE  -
|  1> ! wB97X-D3 SP def2-SVP
|  2> %pal
|  3> nprocs 24
|  4> end
|  5>
|  6> * xyz 0 1
|  7> S 	 -131.398 	 64.795 	 -57.2669
|  8> C 	 -132.782 	 65.5311 	 -56.4091
|  9> C 	 -132.358 	 66.5762 	 -55.6496
| 10> C 	 -130.966 	 66.7007 	 -55.6146
| 11> C 	 -130.246 	 65.7277 	 -56.2832
| 12> H 	 -130.496 	 67.4077 	 -54.9851
| 13> C 	 -133.307 	 67.5753 	 -54.9465
| 14> H 	 -133.233 	 67.3359 	 -53.8785
| 15> H 	 -134.309 	 67.2858 	 -55.2093
| 16> C 	 -133.12 	 69.0379 	 -55.2917
| 17> H 	 -132.11 	 69.2962 	 -54.9058
| 18> H 	 -133.095 	 69.1674 	 -56.4592
| 19> C 	 -134.195 	 69.8055 	 -54.7291
| 20> H 	 -134.36 	 69.633 	 -53.684
| 21> H 	 -134.024 	 70.8917 	 -54.891
| 22> H 	 -135.159 	 69.5691 	 -55.2413
| 23> S 	 -128.06 	 65.8069 	 -54.6448
| 24> C 	 -126.546 	 65.2722 	 -55.2552
| 25> C 	 -126.542 	 65.1114 	 -56.6574
| 26> C 	 -127.839 	 65.2814 	 -57.1908
| 27> C 	 -128.813 	 65.5344 	 -56.1941
| 28> H 	 -125.667 	 64.8809 	 -57.2259
| 29> C 	 -128.025 	 65.2151 	 -58.7126
| 30> H 	 -127.345 	 65.9381 	 -59.2171
| 31> H 	 -129.058 	 65.5661 	 -58.9589
| 32> C 	 -127.855 	 63.8344 	 -59.3061
| 33> H 	 -128.474 	 63.0344 	 -58.8936
| 34> H 	 -126.819 	 63.5772 	 -59.069
| 35> C 	 -128.017 	 63.7998 	 -60.7601
| 36> H 	 -127.377 	 64.6181 	 -61.1229
| 37> H 	 -129.074 	 63.9964 	 -61.1648
| 38> H 	 -127.548 	 62.8768 	 -61.0818
| 39> H 	 -133.829 	 65.2033 	 -56.5488
| 40> H 	 -125.524 	 65.4286 	 -54.8503
| 41> *
| 42>
| 43>                          ****END OF INPUT****

CARTESIAN COORDINATES (ANGSTROEM)
---------------------------------
  S    -131.398000   64.795000  -57.266900
  C    -132.782000   65.531100  -56.409100
  C    -132.358000   66.576200  -55.649600
  C    -130.966000   66.700700  -55.614600
  C    -130.246000   65.727700  -56.283200
  H    -130.496000   67.407700  -54.985100
  C    -133.307000   67.575300  -54.946500
  H    -133.233000   67.335900  -53.878500
  H    -134.309000   67.285800  -55.209300
  C    -133.120000   69.037900  -55.291700
  H    -132.110000   69.296200  -54.905800
  H    -133.095000   69.167400  -56.459200
  C    -134.195000   69.805500  -54.729100
  H    -134.360000   69.633000  -53.684000
  H    -134.024000   70.891700  -54.891000
  H    -135.159000   69.569100  -55.241300
  S    -128.060000   65.806900  -54.644800
  C    -126.546000   65.272200  -55.255200
  C    -126.542000   65.111400  -56.657400
  C    -127.839000   65.281400  -57.190800
  C    -128.813000   65.534400  -56.194100
  H    -125.667000   64.880900  -57.225900
  C    -128.025000   65.215100  -58.712600
  H    -127.345000   65.938100  -59.217100
  H    -129.058000   65.566100  -58.958900
  C    -127.855000   63.834400  -59.306100
  H    -128.474000   63.034400  -58.893600
  H    -126.819000   63.577200  -59.069000
  C    -128.017000   63.799800  -60.760100
  H    -127.377000   64.618100  -61.122900
  H    -129.074000   63.996400  -61.164800
  H    -127.548000   62.876800  -61.081800
  H    -133.829000   65.203300  -56.548800
  H    -125.524000   65.428600  -54.850300

 Total Charge           Charge          ....    0
 Multiplicity           Mult            ....    1
 Number of Electrons    NEL             ....  134
 Basis Dimension        Dim             ....  322

ORBITAL ENERGIES
----------------

  NO   OCC          E(Eh)            E(eV)
   0   2.0000     -88.973659     -2421.0964
   1   2.0000     -88.964794     -2420.8551
   2   2.0000     -10.332113      -281.1511
   3   2.0000     -10.329414      -281.0776
   4   2.0000     -10.317910      -280.7646
   5   2.0000     -10.314969      -280.6846
   6   2.0000     -10.304238      -280.3926
   7   2.0000     -10.295378      -280.1515
   8   2.0000     -10.294094      -280.1165
   9   2.0000     -10.293179      -280.0916
  10   2.0000     -10.291513      -280.0463
  11   2.0000     -10.290367      -280.0151
  12   2.0000     -10.286046      -279.8975
  13   2.0000     -10.277202      -279.6569
  14   2.0000     -10.276895      -279.6485
  15   2.0000     -10.276513      -279.6381
  16   2.0000      -8.088279      -220.0933
  17   2.0000      -8.078325      -219.8224
  18   2.0000      -6.046760      -164.5407
  19   2.0000      -6.042814      -164.4333
  20   2.0000      -6.039081      -164.3318
  21   2.0000      -6.037074      -164.2771
  22   2.0000      -6.033081      -164.1685
  23   2.0000      -6.028836      -164.0530
  24   2.0000      -1.006664       -27.3927
  25   2.0000      -0.984558       -26.7912
  26   2.0000      -0.921680       -25.0802
  27   2.0000      -0.918080       -24.9822
  28   2.0000      -0.873214       -23.7614
  29   2.0000      -0.859280       -23.3822
  30   2.0000      -0.846547       -23.0357
  31   2.0000      -0.811468       -22.0812
  32   2.0000      -0.782082       -21.2815
  33   2.0000      -0.767971       -20.8976
  34   2.0000      -0.706584       -19.2271
  35   2.0000      -0.689923       -18.7738
  36   2.0000      -0.685401       -18.6507
  37   2.0000      -0.666732       -18.1427
  38   2.0000      -0.633899       -17.2493
  39   2.0000      -0.621682       -16.9168
  40   2.0000      -0.597052       -16.2466
  41   2.0000      -0.573654       -15.6099
  42   2.0000      -0.569630       -15.5004
  43   2.0000      -0.563825       -15.3425
  44   2.0000      -0.532183       -14.4814
  45   2.0000      -0.526792       -14.3347
  46   2.0000      -0.518512       -14.1094
  47   2.0000      -0.513748       -13.9798
  48   2.0000      -0.508194       -13.8287
  49   2.0000      -0.501212       -13.6387
  50   2.0000      -0.488492       -13.2925
  51   2.0000      -0.478013       -13.0074
  52   2.0000      -0.475540       -12.9401
  53   2.0000      -0.467507       -12.7215
  54   2.0000      -0.455781       -12.4024
  55   2.0000      -0.453459       -12.3392
  56   2.0000      -0.439854       -11.9690
  57   2.0000      -0.433023       -11.7832
  58   2.0000      -0.430958       -11.7270
  59   2.0000      -0.425563       -11.5802
  60   2.0000      -0.420093       -11.4313
  61   2.0000      -0.409207       -11.1351
  62   2.0000      -0.406550       -11.0628
  63   2.0000      -0.350647        -9.5416
  64   2.0000      -0.334950        -9.1144
  65   2.0000      -0.330779        -9.0010
  66   2.0000      -0.283361        -7.7106
  67   0.0000       0.020025         0.5449
  68   0.0000       0.071862         1.9555
  69   0.0000       0.096756         2.6329
  70   0.0000       0.121796         3.3142
  71   0.0000       0.133232         3.6254

MULLIKEN ATOMIC CHARGES
-----------------------
   0 S :    0.095368
   1 C :   -0.156473
   2 C :   -0.056730
   3 C :    0.002134
   4 C :   -0.117614
   5 H :   -0.005483
   6 C :    0.069720
   7 H :    0.038887
   8 H :   -0.006359
   9 C :   -0.094835
  10 H :    0.033341
  11 H :    0.051382
  12 C :   -0.027449
  13 H :    0.024740
  14 H :    0.039118
  15 H :    0.031651
  16 S :    0.128858
  17 C :   -0.080599
  18 C :   -0.063766
  19 C :   -0.019521
  20 C :   -0.157527
  21 H :    0.017963
  22 C :    0.034006
  23 H :    0.037694
  24 H :    0.016619
  25 C :   -0.076193
  26 H :    0.033635
  27 H :    0.011746
  28 C :   -0.028828
  29 H :    0.011021
  30 H :    0.052026
  31 H :    0.033248
  32 H :    0.058875
  33 H :    0.069347
Sum of atomic charges:   -0.0000000

LOEWDIN ATOMIC CHARGES
----------------------
   0 S :    0.374601
   1 C :   -0.188062
   2 C :   -0.065778
   3 C :   -0.070757
   4 C :   -0.175424
   5 H :    0.018029
   6 C :   -0.027715
   7 H :    0.033501
   8 H :    0.020522
   9 C :   -0.051815
  10 H :    0.024704
  11 H :    0.040508
  12 C :   -0.068422
  13 H :    0.022574
  14 H :    0.031880
  15 H :    0.031226
  16 S :    0.442084
  17 C :   -0.213344
  18 C :   -0.065752
  19 C :   -0.052484
  20 C :   -0.201422
  21 H :    0.027756
  22 C :   -0.036813
  23 H :    0.036014
  24 H :    0.023067
  25 C :   -0.049238
  26 H :    0.026736
  27 H :    0.021342
  28 C :   -0.068004
  29 H :    0.022322
  30 H :    0.035073
  31 H :    0.028367
  32 H :    0.034870
  33 H :    0.039854

  Mayer bond orders larger than 0.100000
B(  0-S ,  1-C ) :   1.1195 B(  0-S ,  4-C ) :   1.1301 B(  1-C ,  2-C ) :   1.6247
B(  1-C , 32-H ) :   0.9639 B(  2-C ,  3-C ) :   1.2516 B(  2-C ,  6-C ) :   1.0063
B(  3-C ,  4-C ) :   1.5496 B(  3-C ,  5-H ) :   0.9960 B(  4-C , 20-C ) :   1.0852
B(  6-C ,  7-H ) :   0.9320 B(  6-C ,  8-H ) :   0.9427 B(  6-C ,  9-C ) :   1.0622
B(  9-C , 10-H ) :   0.9439 B(  9-C , 11-H ) :   0.9510 B(  9-C , 12-C ) :   1.1070
B( 12-C , 13-H ) :   0.9669 B( 12-C , 14-H ) :   0.9681 B( 12-C , 15-H ) :   0.9671
B( 16-S , 17-C ) :   1.1732 B( 16-S , 20-C ) :   1.1549 B( 17-C , 18-C ) :   1.5698
B( 17-C , 20-C ) :   0.1021 B( 17-C , 33-H ) :   0.9550 B( 18-C , 19-C ) :   1.2901
B( 18-C , 21-H ) :   0.9892 B( 19-C , 20-C ) :   1.5252 B( 19-C , 22-C ) :   1.0431
B( 22-C , 23-H ) :   0.9340 B( 22-C , 24-H ) :   0.9309 B( 22-C , 25-C ) :   1.0678
B( 25-C , 26-H ) :   0.9489 B( 25-C , 27-H ) :   0.9499 B( 25-C , 28-C ) :   1.0998
B( 28-C , 29-H ) :   0.9660 B( 28-C , 30-H ) :   0.9711 B( 28-C , 31-H ) :   0.9693

Dispersion correction           -0.013575658
FINAL SINGLE POINT ENERGY     -1339.870530158671

DIPOLE MOMENT
-------------
                                X             Y             Z
Electronic contribution:      7.22220      -8.56170       9.72753
Nuclear contribution   :     -7.21940       8.95127      -9.80333
                        -----------------------------------------
Total Dipole Moment    :      0.00280       0.38957      -0.07579
                        -----------------------------------------
Magnitude (a.u.)       :      0.39689
Magnitude (Debye)      :      1.00881

Rotational constants in cm-1:     0.021134     0.007518     0.006123
Rotational constants in MHz :   633.583672   225.391728   183.555174

                             ****ORCA TERMINATED NORMALLY****
TOTAL RUN TIME: 0 days 0 hours 0 minutes 19 seconds 954 msec
