                         Program Version 4.2.1 -  RELEASE  -
|  1> ! wB97X-D3 SP def2-SVP
|  2> %pal
|  3> nprocs 24
|  4> end
|  5>
|  6> * xyz 0 1
|  7> S 	 -40.0796 	 17.8782 	 12.8924
|  8> C 	 -41.5197 	 18.8966 	 12.9658
|  9> C 	 -41.2121 	 20.0891 	 13.4933
| 10> C 	 -39.8572 	 20.1983 	 13.8732
| 11> C 	 -39.1014 	 19.0797 	 13.5709
| 12> H 	 -39.3387 	 20.9991 	 14.2815
| 13> C 	 -42.1349 	 21.2761 	 13.7011
| 14> H 	 -42.8935 	 21.3522 	 12.8819
| 15> H 	 -41.5793 	 22.2399 	 13.6447
| 16> C 	 -42.8185 	 21.2458 	 15.0842
| 17> H 	 -43.3401 	 20.3366 	 15.2959
| 18> H 	 -42.0553 	 21.3263 	 15.9295
| 19> C 	 -43.8052 	 22.3025 	 15.2694
| 20> H 	 -44.3108 	 22.1971 	 16.2428
| 21> H 	 -43.2935 	 23.2326 	 15.2983
| 22> H 	 -44.6241 	 22.2069 	 14.5132
| 23> S 	 -36.9971 	 17.4188 	 14.2328
| 24> C 	 -35.3831 	 18.0743 	 14.2126
| 25> C 	 -35.3118 	 19.4171 	 13.6823
| 26> C 	 -36.6666 	 19.8694 	 13.347
| 27> C 	 -37.6765 	 18.9145 	 13.6337
| 28> H 	 -34.4791 	 19.9844 	 13.5884
| 29> C 	 -36.7572 	 21.3058 	 12.725
| 30> H 	 -36.083 	 21.9343 	 13.3499
| 31> H 	 -37.8039 	 21.6127 	 12.8351
| 32> C 	 -36.4944 	 21.3925 	 11.244
| 33> H 	 -35.4334 	 21.0606 	 11.0905
| 34> H 	 -36.5836 	 22.4152 	 10.986
| 35> C 	 -37.5168 	 20.5339 	 10.4707
| 36> H 	 -37.2241 	 19.5069 	 10.6445
| 37> H 	 -37.3262 	 20.8267 	 9.46737
| 38> H 	 -38.5206 	 20.7899 	 10.7486
| 39> H 	 -42.5265 	 18.5853 	 12.8616
| 40> H 	 -34.5099 	 17.4255 	 14.2732
| 41> *
| 42>
| 43>                          ****END OF INPUT****

CARTESIAN COORDINATES (ANGSTROEM)
---------------------------------
  S    -40.079600   17.878200   12.892400
  C    -41.519700   18.896600   12.965800
  C    -41.212100   20.089100   13.493300
  C    -39.857200   20.198300   13.873200
  C    -39.101400   19.079700   13.570900
  H    -39.338700   20.999100   14.281500
  C    -42.134900   21.276100   13.701100
  H    -42.893500   21.352200   12.881900
  H    -41.579300   22.239900   13.644700
  C    -42.818500   21.245800   15.084200
  H    -43.340100   20.336600   15.295900
  H    -42.055300   21.326300   15.929500
  C    -43.805200   22.302500   15.269400
  H    -44.310800   22.197100   16.242800
  H    -43.293500   23.232600   15.298300
  H    -44.624100   22.206900   14.513200
  S    -36.997100   17.418800   14.232800
  C    -35.383100   18.074300   14.212600
  C    -35.311800   19.417100   13.682300
  C    -36.666600   19.869400   13.347000
  C    -37.676500   18.914500   13.633700
  H    -34.479100   19.984400   13.588400
  C    -36.757200   21.305800   12.725000
  H    -36.083000   21.934300   13.349900
  H    -37.803900   21.612700   12.835100
  C    -36.494400   21.392500   11.244000
  H    -35.433400   21.060600   11.090500
  H    -36.583600   22.415200   10.986000
  C    -37.516800   20.533900   10.470700
  H    -37.224100   19.506900   10.644500
  H    -37.326200   20.826700    9.467370
  H    -38.520600   20.789900   10.748600
  H    -42.526500   18.585300   12.861600
  H    -34.509900   17.425500   14.273200

 Total Charge           Charge          ....    0
 Multiplicity           Mult            ....    1
 Number of Electrons    NEL             ....  134
 Basis Dimension        Dim             ....  322

ORBITAL ENERGIES
----------------

  NO   OCC          E(Eh)            E(eV)
   0   2.0000     -88.971511     -2421.0379
   1   2.0000     -88.963365     -2420.8162
   2   2.0000     -10.329505      -281.0801
   3   2.0000     -10.325900      -280.9820
   4   2.0000     -10.322400      -280.8868
   5   2.0000     -10.311607      -280.5931
   6   2.0000     -10.306590      -280.4566
   7   2.0000     -10.299425      -280.2616
   8   2.0000     -10.298794      -280.2444
   9   2.0000     -10.296122      -280.1717
  10   2.0000     -10.292905      -280.0842
  11   2.0000     -10.283315      -279.8232
  12   2.0000     -10.282760      -279.8081
  13   2.0000     -10.281705      -279.7794
  14   2.0000     -10.273527      -279.5569
  15   2.0000     -10.267132      -279.3829
  16   2.0000      -8.086129      -220.0348
  17   2.0000      -8.079152      -219.8449
  18   2.0000      -6.044636      -164.4829
  19   2.0000      -6.040544      -164.3715
  20   2.0000      -6.037647      -164.2927
  21   2.0000      -6.037022      -164.2757
  22   2.0000      -6.033437      -164.1782
  23   2.0000      -6.029938      -164.0829
  24   2.0000      -1.012902       -27.5625
  25   2.0000      -0.981702       -26.7135
  26   2.0000      -0.918648       -24.9977
  27   2.0000      -0.911453       -24.8019
  28   2.0000      -0.876685       -23.8558
  29   2.0000      -0.851798       -23.1786
  30   2.0000      -0.845922       -23.0187
  31   2.0000      -0.810204       -22.0468
  32   2.0000      -0.783669       -21.3247
  33   2.0000      -0.774583       -21.0775
  34   2.0000      -0.705443       -19.1961
  35   2.0000      -0.693020       -18.8580
  36   2.0000      -0.688069       -18.7233
  37   2.0000      -0.668823       -18.1996
  38   2.0000      -0.647144       -17.6097
  39   2.0000      -0.620209       -16.8767
  40   2.0000      -0.592980       -16.1358
  41   2.0000      -0.578156       -15.7324
  42   2.0000      -0.565871       -15.3981
  43   2.0000      -0.553722       -15.0675
  44   2.0000      -0.549547       -14.9539
  45   2.0000      -0.526362       -14.3230
  46   2.0000      -0.517364       -14.0782
  47   2.0000      -0.514883       -14.0107
  48   2.0000      -0.504777       -13.7357
  49   2.0000      -0.502363       -13.6700
  50   2.0000      -0.500504       -13.6194
  51   2.0000      -0.477028       -12.9806
  52   2.0000      -0.472641       -12.8612
  53   2.0000      -0.460095       -12.5198
  54   2.0000      -0.458932       -12.4882
  55   2.0000      -0.453655       -12.3446
  56   2.0000      -0.444957       -12.1079
  57   2.0000      -0.429534       -11.6882
  58   2.0000      -0.426581       -11.6079
  59   2.0000      -0.425736       -11.5849
  60   2.0000      -0.419509       -11.4154
  61   2.0000      -0.416178       -11.3248
  62   2.0000      -0.412060       -11.2127
  63   2.0000      -0.346663        -9.4332
  64   2.0000      -0.332269        -9.0415
  65   2.0000      -0.331576        -9.0227
  66   2.0000      -0.289597        -7.8803
  67   0.0000       0.023718         0.6454
  68   0.0000       0.074293         2.0216
  69   0.0000       0.106246         2.8911
  70   0.0000       0.111601         3.0368
  71   0.0000       0.137093         3.7305

MULLIKEN ATOMIC CHARGES
-----------------------
   0 S :    0.101313
   1 C :   -0.102743
   2 C :   -0.050982
   3 C :    0.031642
   4 C :   -0.142002
   5 H :   -0.014805
   6 C :    0.044348
   7 H :    0.029199
   8 H :    0.025586
   9 C :   -0.089890
  10 H :    0.016414
  11 H :    0.032082
  12 C :   -0.020480
  13 H :    0.030430
  14 H :    0.021099
  15 H :    0.032470
  16 S :    0.121179
  17 C :   -0.095557
  18 C :    0.001830
  19 C :   -0.087150
  20 C :   -0.142119
  21 H :   -0.014081
  22 C :    0.055281
  23 H :    0.036199
  24 H :    0.003498
  25 C :   -0.067985
  26 H :    0.025307
  27 H :    0.022893
  28 C :   -0.016948
  29 H :    0.051763
  30 H :    0.024485
  31 H :    0.035681
  32 H :    0.030803
  33 H :    0.071239
Sum of atomic charges:    0.0000000

LOEWDIN ATOMIC CHARGES
----------------------
   0 S :    0.421072
   1 C :   -0.190484
   2 C :   -0.061805
   3 C :   -0.062914
   4 C :   -0.205265
   5 H :    0.018367
   6 C :   -0.030333
   7 H :    0.031786
   8 H :    0.033511
   9 C :   -0.048638
  10 H :    0.018093
  11 H :    0.030774
  12 C :   -0.065036
  13 H :    0.029716
  14 H :    0.018542
  15 H :    0.027904
  16 S :    0.420276
  17 C :   -0.190925
  18 C :   -0.050855
  19 C :   -0.045413
  20 C :   -0.215191
  21 H :    0.011660
  22 C :   -0.035118
  23 H :    0.031761
  24 H :    0.022954
  25 C :   -0.036764
  26 H :    0.023738
  27 H :    0.017386
  28 C :   -0.050210
  29 H :    0.030774
  30 H :    0.022726
  31 H :    0.024717
  32 H :    0.024284
  33 H :    0.028908

  Mayer bond orders larger than 0.100000
B(  0-S ,  1-C ) :   1.1209 B(  0-S ,  4-C ) :   1.1755 B(  1-C ,  2-C ) :   1.6330
B(  1-C , 32-H ) :   0.9720 B(  2-C ,  3-C ) :   1.2335 B(  2-C ,  6-C ) :   1.0174
B(  3-C ,  4-C ) :   1.5596 B(  3-C ,  5-H ) :   1.0101 B(  4-C , 20-C ) :   1.0407
B(  6-C ,  7-H ) :   0.9459 B(  6-C ,  8-H ) :   0.9409 B(  6-C ,  9-C ) :   1.0588
B(  9-C , 10-H ) :   0.9564 B(  9-C , 11-H ) :   0.9499 B(  9-C , 12-C ) :   1.1044
B( 12-C , 13-H ) :   0.9688 B( 12-C , 14-H ) :   0.9709 B( 12-C , 15-H ) :   0.9698
B( 16-S , 17-C ) :   1.1781 B( 16-S , 20-C ) :   1.1437 B( 17-C , 18-C ) :   1.5584
B( 17-C , 20-C ) :   0.1061 B( 17-C , 33-H ) :   0.9639 B( 18-C , 19-C ) :   1.2648
B( 18-C , 21-H ) :   1.0034 B( 19-C , 20-C ) :   1.5626 B( 19-C , 22-C ) :   1.0236
B( 22-C , 23-H ) :   0.9384 B( 22-C , 24-H ) :   0.9311 B( 22-C , 25-C ) :   1.0814
B( 25-C , 26-H ) :   0.9535 B( 25-C , 27-H ) :   0.9549 B( 25-C , 28-C ) :   1.0680
B( 28-C , 29-H ) :   0.9745 B( 28-C , 30-H ) :   0.9736 B( 28-C , 31-H ) :   0.9760

Dispersion correction           -0.014992935
FINAL SINGLE POINT ENERGY     -1339.868661762740

DIPOLE MOMENT
-------------
                                X             Y             Z
Electronic contribution:     10.44307     -23.24967       3.24628
Nuclear contribution   :    -10.44948      23.86984      -3.29003
                        -----------------------------------------
Total Dipole Moment    :     -0.00641       0.62017      -0.04375
                        -----------------------------------------
Magnitude (a.u.)       :      0.62174
Magnitude (Debye)      :      1.58035

Rotational constants in cm-1:     0.021148     0.008068     0.007111
Rotational constants in MHz :   634.002341   241.872650   213.187070

                             ****ORCA TERMINATED NORMALLY****
TOTAL RUN TIME: 0 days 0 hours 0 minutes 22 seconds 118 msec
