                         Program Version 4.2.1 -  RELEASE  -
|  1> ! wB97X-D3 SP def2-SVP
|  2> %pal
|  3> nprocs 24
|  4> end
|  5>
|  6> * xyz 0 1
|  7> S 	 -68.4269 	 19.1335 	 -107.81
|  8> C 	 -69.3856 	 17.6884 	 -107.662
|  9> C 	 -68.5644 	 16.6435 	 -107.643
| 10> C 	 -67.1798 	 17 	 -107.538
| 11> C 	 -66.9508 	 18.3591 	 -107.708
| 12> H 	 -66.369 	 16.3049 	 -107.446
| 13> C 	 -68.9917 	 15.2303 	 -107.518
| 14> H 	 -70.063 	 15.2384 	 -107.802
| 15> H 	 -68.9248 	 14.8307 	 -106.555
| 16> C 	 -68.408 	 14.3069 	 -108.559
| 17> H 	 -68.6371 	 14.6111 	 -109.544
| 18> H 	 -67.3169 	 14.2714 	 -108.501
| 19> C 	 -69.0462 	 12.9449 	 -108.478
| 20> H 	 -70.1276 	 12.9091 	 -108.613
| 21> H 	 -68.7271 	 12.3456 	 -109.334
| 22> H 	 -68.7635 	 12.3289 	 -107.563
| 23> S 	 -64.2923 	 18.3285 	 -107.053
| 24> C 	 -63.1813 	 19.3475 	 -107.969
| 25> C 	 -63.9055 	 20.2161 	 -108.782
| 26> C 	 -65.2846 	 19.9708 	 -108.833
| 27> C 	 -65.6485 	 18.9446 	 -107.97
| 28> H 	 -63.3076 	 20.9081 	 -109.286
| 29> C 	 -66.0845 	 20.9351 	 -109.641
| 30> H 	 -65.9953 	 21.7683 	 -108.983
| 31> H 	 -67.0557 	 20.5683 	 -109.557
| 32> C 	 -65.787 	 21.2422 	 -111.092
| 33> H 	 -64.7496 	 21.5825 	 -111.256
| 34> H 	 -66.5248 	 21.9879 	 -111.375
| 35> C 	 -65.8395 	 20.0673 	 -112.055
| 36> H 	 -65.6131 	 20.3075 	 -113.152
| 37> H 	 -66.822 	 19.6303 	 -112.068
| 38> H 	 -65.1078 	 19.3948 	 -111.704
| 39> H 	 -70.4953 	 17.6056 	 -107.701
| 40> H 	 -62.1504 	 19.5035 	 -107.763
| 41> *
| 42>
| 43>                          ****END OF INPUT****

CARTESIAN COORDINATES (ANGSTROEM)
---------------------------------
  S    -68.426900   19.133500  -107.810000
  C    -69.385600   17.688400  -107.662000
  C    -68.564400   16.643500  -107.643000
  C    -67.179800   17.000000  -107.538000
  C    -66.950800   18.359100  -107.708000
  H    -66.369000   16.304900  -107.446000
  C    -68.991700   15.230300  -107.518000
  H    -70.063000   15.238400  -107.802000
  H    -68.924800   14.830700  -106.555000
  C    -68.408000   14.306900  -108.559000
  H    -68.637100   14.611100  -109.544000
  H    -67.316900   14.271400  -108.501000
  C    -69.046200   12.944900  -108.478000
  H    -70.127600   12.909100  -108.613000
  H    -68.727100   12.345600  -109.334000
  H    -68.763500   12.328900  -107.563000
  S    -64.292300   18.328500  -107.053000
  C    -63.181300   19.347500  -107.969000
  C    -63.905500   20.216100  -108.782000
  C    -65.284600   19.970800  -108.833000
  C    -65.648500   18.944600  -107.970000
  H    -63.307600   20.908100  -109.286000
  C    -66.084500   20.935100  -109.641000
  H    -65.995300   21.768300  -108.983000
  H    -67.055700   20.568300  -109.557000
  C    -65.787000   21.242200  -111.092000
  H    -64.749600   21.582500  -111.256000
  H    -66.524800   21.987900  -111.375000
  C    -65.839500   20.067300  -112.055000
  H    -65.613100   20.307500  -113.152000
  H    -66.822000   19.630300  -112.068000
  H    -65.107800   19.394800  -111.704000
  H    -70.495300   17.605600  -107.701000
  H    -62.150400   19.503500  -107.763000

 Total Charge           Charge          ....    0
 Multiplicity           Mult            ....    1
 Number of Electrons    NEL             ....  134
 Basis Dimension        Dim             ....  322

ORBITAL ENERGIES
----------------

  NO   OCC          E(Eh)            E(eV)
   0   2.0000     -88.967709     -2420.9345
   1   2.0000     -88.964234     -2420.8399
   2   2.0000     -10.328881      -281.0631
   3   2.0000     -10.324569      -280.9458
   4   2.0000     -10.315188      -280.6905
   5   2.0000     -10.309708      -280.5414
   6   2.0000     -10.299593      -280.2662
   7   2.0000     -10.290409      -280.0163
   8   2.0000     -10.286201      -279.9017
   9   2.0000     -10.286178      -279.9011
  10   2.0000     -10.286031      -279.8971
  11   2.0000     -10.281474      -279.7731
  12   2.0000     -10.280886      -279.7571
  13   2.0000     -10.279221      -279.7118
  14   2.0000     -10.279085      -279.7081
  15   2.0000     -10.272975      -279.5419
  16   2.0000      -8.081933      -219.9206
  17   2.0000      -8.080355      -219.8776
  18   2.0000      -6.040554      -164.3718
  19   2.0000      -6.038868      -164.3260
  20   2.0000      -6.036511      -164.2618
  21   2.0000      -6.034524      -164.2077
  22   2.0000      -6.032627      -164.1561
  23   2.0000      -6.031135      -164.1155
  24   2.0000      -1.018202       -27.7067
  25   2.0000      -0.992047       -26.9950
  26   2.0000      -0.922706       -25.1081
  27   2.0000      -0.917500       -24.9665
  28   2.0000      -0.876952       -23.8631
  29   2.0000      -0.857224       -23.3263
  30   2.0000      -0.846917       -23.0458
  31   2.0000      -0.815579       -22.1930
  32   2.0000      -0.787527       -21.4297
  33   2.0000      -0.776708       -21.1353
  34   2.0000      -0.713561       -19.4170
  35   2.0000      -0.700783       -19.0693
  36   2.0000      -0.691420       -18.8145
  37   2.0000      -0.668860       -18.2006
  38   2.0000      -0.637885       -17.3577
  39   2.0000      -0.620842       -16.8940
  40   2.0000      -0.599836       -16.3224
  41   2.0000      -0.582138       -15.8408
  42   2.0000      -0.567067       -15.4307
  43   2.0000      -0.558693       -15.2028
  44   2.0000      -0.547936       -14.9101
  45   2.0000      -0.530084       -14.4243
  46   2.0000      -0.524731       -14.2787
  47   2.0000      -0.510911       -13.9026
  48   2.0000      -0.509833       -13.8733
  49   2.0000      -0.504126       -13.7180
  50   2.0000      -0.494990       -13.4694
  51   2.0000      -0.477480       -12.9929
  52   2.0000      -0.472569       -12.8592
  53   2.0000      -0.468217       -12.7408
  54   2.0000      -0.462443       -12.5837
  55   2.0000      -0.448992       -12.2177
  56   2.0000      -0.443018       -12.0551
  57   2.0000      -0.436252       -11.8710
  58   2.0000      -0.432954       -11.7813
  59   2.0000      -0.421020       -11.4565
  60   2.0000      -0.418873       -11.3981
  61   2.0000      -0.415105       -11.2956
  62   2.0000      -0.406134       -11.0515
  63   2.0000      -0.358156        -9.7459
  64   2.0000      -0.332047        -9.0355
  65   2.0000      -0.328840        -8.9482
  66   2.0000      -0.287095        -7.8123
  67   0.0000       0.028070         0.7638
  68   0.0000       0.085305         2.3213
  69   0.0000       0.111754         3.0410
  70   0.0000       0.128279         3.4906
  71   0.0000       0.135413         3.6848

MULLIKEN ATOMIC CHARGES
-----------------------
   0 S :    0.097850
   1 C :   -0.132590
   2 C :   -0.066193
   3 C :    0.000354
   4 C :   -0.101023
   5 H :    0.003669
   6 C :    0.079817
   7 H :    0.003232
   8 H :    0.031242
   9 C :   -0.059611
  10 H :    0.014974
  11 H :    0.031465
  12 C :   -0.072681
  13 H :    0.028825
  14 H :    0.025534
  15 H :    0.038763
  16 S :    0.106355
  17 C :   -0.084279
  18 C :   -0.042359
  19 C :   -0.074063
  20 C :   -0.142908
  21 H :   -0.001370
  22 C :    0.134775
  23 H :    0.041455
  24 H :   -0.014701
  25 C :   -0.058703
  26 H :    0.028719
  27 H :    0.034880
  28 C :   -0.061978
  29 H :    0.043305
  30 H :    0.026885
  31 H :    0.033434
  32 H :    0.058894
  33 H :    0.048032
Sum of atomic charges:   -0.0000000

LOEWDIN ATOMIC CHARGES
----------------------
   0 S :    0.448032
   1 C :   -0.207545
   2 C :   -0.068804
   3 C :   -0.071642
   4 C :   -0.213973
   5 H :    0.019816
   6 C :   -0.026874
   7 H :    0.031932
   8 H :    0.025265
   9 C :   -0.037665
  10 H :    0.022673
  11 H :    0.023071
  12 C :   -0.072165
  13 H :    0.023991
  14 H :    0.026467
  15 H :    0.029159
  16 S :    0.407067
  17 C :   -0.178309
  18 C :   -0.062178
  19 C :   -0.060560
  20 C :   -0.192078
  21 H :    0.021918
  22 C :   -0.030329
  23 H :    0.041891
  24 H :    0.007876
  25 C :   -0.037904
  26 H :    0.024787
  27 H :    0.028223
  28 C :   -0.063602
  29 H :    0.034993
  30 H :    0.019915
  31 H :    0.020952
  32 H :    0.041466
  33 H :    0.024135

  Mayer bond orders larger than 0.100000
B(  0-S ,  1-C ) :   1.1195 B(  0-S ,  4-C ) :   1.1771 B(  1-C ,  2-C ) :   1.6261
B(  1-C , 32-H ) :   0.9640 B(  2-C ,  3-C ) :   1.2489 B(  2-C ,  6-C ) :   1.0305
B(  3-C ,  4-C ) :   1.5243 B(  3-C ,  5-H ) :   0.9968 B(  4-C , 20-C ) :   1.0393
B(  6-C ,  7-H ) :   0.9367 B(  6-C ,  8-H ) :   0.9461 B(  6-C ,  9-C ) :   1.0645
B(  9-C , 10-H ) :   0.9514 B(  9-C , 11-H ) :   0.9525 B(  9-C , 12-C ) :   1.0969
B( 12-C , 13-H ) :   0.9712 B( 12-C , 14-H ) :   0.9720 B( 12-C , 15-H ) :   0.9723
B( 16-S , 17-C ) :   1.1430 B( 16-S , 20-C ) :   1.1498 B( 17-C , 18-C ) :   1.6198
B( 17-C , 20-C ) :   0.1014 B( 17-C , 33-H ) :   0.9685 B( 18-C , 19-C ) :   1.2299
B( 18-C , 21-H ) :   0.9997 B( 19-C , 20-C ) :   1.5686 B( 19-C , 22-C ) :   1.0150
B( 22-C , 23-H ) :   0.9291 B( 22-C , 24-H ) :   0.9098 B( 22-C , 25-C ) :   1.0795
B( 25-C , 26-H ) :   0.9566 B( 25-C , 27-H ) :   0.9515 B( 25-C , 28-C ) :   1.0735
B( 28-C , 29-H ) :   0.9748 B( 28-C , 30-H ) :   0.9755 B( 28-C , 31-H ) :   0.9753

Dispersion correction           -0.013826221
FINAL SINGLE POINT ENERGY     -1339.864829774993

DIPOLE MOMENT
-------------
                                X             Y             Z
Electronic contribution:      6.42229      10.72736      15.58604
Nuclear contribution   :     -6.47103     -10.79527     -15.92340
                        -----------------------------------------
Total Dipole Moment    :     -0.04874      -0.06791      -0.33736
                        -----------------------------------------
Magnitude (a.u.)       :      0.34756
Magnitude (Debye)      :      0.88343

Rotational constants in cm-1:     0.019966     0.007838     0.007036
Rotational constants in MHz :   598.576783   234.984636   210.925282

                             ****ORCA TERMINATED NORMALLY****
TOTAL RUN TIME: 0 days 0 hours 0 minutes 22 seconds 667 msec
