                         Program Version 4.2.1 -  RELEASE  -
|  1> ! wB97X-D3 SP def2-SVP
|  2> %pal
|  3> nprocs 24
|  4> end
|  5>
|  6> * xyz 0 1
|  7> S 	 19.8573 	 -18.2619 	 -122.074
|  8> C 	 19.4348 	 -19.2755 	 -123.446
|  9> C 	 20.3916 	 -20.2398 	 -123.619
| 10> C 	 21.4553 	 -20.1634 	 -122.696
| 11> C 	 21.3452 	 -19.1189 	 -121.791
| 12> H 	 22.2999 	 -20.8853 	 -122.723
| 13> C 	 20.3266 	 -21.4158 	 -124.585
| 14> H 	 19.4432 	 -21.1887 	 -125.182
| 15> H 	 20.11 	 -22.3535 	 -124.088
| 16> C 	 21.4682 	 -21.6081 	 -125.597
| 17> H 	 21.4448 	 -20.6923 	 -126.161
| 18> H 	 22.3221 	 -21.6169 	 -124.948
| 19> C 	 21.2371 	 -22.8055 	 -126.484
| 20> H 	 21.4932 	 -23.628 	 -125.837
| 21> H 	 20.2867 	 -22.9005 	 -126.939
| 22> H 	 21.9965 	 -22.8768 	 -127.283
| 23> S 	 21.5654 	 -18.8117 	 -119.005
| 24> C 	 23.1973 	 -18.4978 	 -118.363
| 25> C 	 24.1769 	 -18.5459 	 -119.353
| 26> C 	 23.5742 	 -18.6895 	 -120.641
| 27> C 	 22.2004 	 -18.8582 	 -120.631
| 28> H 	 25.2081 	 -18.2556 	 -119.032
| 29> C 	 24.3705 	 -18.5186 	 -121.882
| 30> H 	 24.6813 	 -17.5093 	 -121.78
| 31> H 	 23.7159 	 -18.6253 	 -122.841
| 32> C 	 25.5966 	 -19.3714 	 -122.077
| 33> H 	 25.3378 	 -20.3968 	 -121.922
| 34> H 	 26.368 	 -19.0748 	 -121.39
| 35> C 	 26.0703 	 -19.3289 	 -123.548
| 36> H 	 25.2155 	 -19.6513 	 -124.243
| 37> H 	 26.9535 	 -20.0025 	 -123.595
| 38> H 	 26.1994 	 -18.3072 	 -123.882
| 39> H 	 18.5561 	 -19.0322 	 -124.042
| 40> H 	 23.463 	 -18.3926 	 -117.35
| 41> *
| 42>
| 43>                          ****END OF INPUT****

CARTESIAN COORDINATES (ANGSTROEM)
---------------------------------
  S     19.857300  -18.261900  -122.074000
  C     19.434800  -19.275500  -123.446000
  C     20.391600  -20.239800  -123.619000
  C     21.455300  -20.163400  -122.696000
  C     21.345200  -19.118900  -121.791000
  H     22.299900  -20.885300  -122.723000
  C     20.326600  -21.415800  -124.585000
  H     19.443200  -21.188700  -125.182000
  H     20.110000  -22.353500  -124.088000
  C     21.468200  -21.608100  -125.597000
  H     21.444800  -20.692300  -126.161000
  H     22.322100  -21.616900  -124.948000
  C     21.237100  -22.805500  -126.484000
  H     21.493200  -23.628000  -125.837000
  H     20.286700  -22.900500  -126.939000
  H     21.996500  -22.876800  -127.283000
  S     21.565400  -18.811700  -119.005000
  C     23.197300  -18.497800  -118.363000
  C     24.176900  -18.545900  -119.353000
  C     23.574200  -18.689500  -120.641000
  C     22.200400  -18.858200  -120.631000
  H     25.208100  -18.255600  -119.032000
  C     24.370500  -18.518600  -121.882000
  H     24.681300  -17.509300  -121.780000
  H     23.715900  -18.625300  -122.841000
  C     25.596600  -19.371400  -122.077000
  H     25.337800  -20.396800  -121.922000
  H     26.368000  -19.074800  -121.390000
  C     26.070300  -19.328900  -123.548000
  H     25.215500  -19.651300  -124.243000
  H     26.953500  -20.002500  -123.595000
  H     26.199400  -18.307200  -123.882000
  H     18.556100  -19.032200  -124.042000
  H     23.463000  -18.392600  -117.350000

 Total Charge           Charge          ....    0
 Multiplicity           Mult            ....    1
 Number of Electrons    NEL             ....  134
 Basis Dimension        Dim             ....  322

ORBITAL ENERGIES
----------------

  NO   OCC          E(Eh)            E(eV)
   0   2.0000     -88.967910     -2420.9399
   1   2.0000     -88.965288     -2420.8686
   2   2.0000     -10.330552      -281.1086
   3   2.0000     -10.324327      -280.9392
   4   2.0000     -10.318957      -280.7931
   5   2.0000     -10.316546      -280.7275
   6   2.0000     -10.300605      -280.2937
   7   2.0000     -10.299928      -280.2753
   8   2.0000     -10.299016      -280.2505
   9   2.0000     -10.294760      -280.1347
  10   2.0000     -10.286715      -279.9157
  11   2.0000     -10.285391      -279.8797
  12   2.0000     -10.284641      -279.8593
  13   2.0000     -10.282393      -279.7981
  14   2.0000     -10.279676      -279.7242
  15   2.0000     -10.277526      -279.6657
  16   2.0000      -8.082011      -219.9227
  17   2.0000      -8.080266      -219.8752
  18   2.0000      -6.040624      -164.3737
  19   2.0000      -6.038720      -164.3219
  20   2.0000      -6.036647      -164.2655
  21   2.0000      -6.034640      -164.2109
  22   2.0000      -6.032659      -164.1570
  23   2.0000      -6.031177      -164.1167
  24   2.0000      -1.007357       -27.4116
  25   2.0000      -0.985060       -26.8049
  26   2.0000      -0.916183       -24.9306
  27   2.0000      -0.913077       -24.8461
  28   2.0000      -0.871749       -23.7215
  29   2.0000      -0.852491       -23.1974
  30   2.0000      -0.847770       -23.0690
  31   2.0000      -0.816016       -22.2049
  32   2.0000      -0.781818       -21.2743
  33   2.0000      -0.768028       -20.8991
  34   2.0000      -0.709252       -19.2997
  35   2.0000      -0.697295       -18.9744
  36   2.0000      -0.696253       -18.9460
  37   2.0000      -0.656983       -17.8774
  38   2.0000      -0.641293       -17.4505
  39   2.0000      -0.625050       -17.0085
  40   2.0000      -0.593931       -16.1617
  41   2.0000      -0.578957       -15.7542
  42   2.0000      -0.572239       -15.5714
  43   2.0000      -0.564730       -15.3671
  44   2.0000      -0.532919       -14.5014
  45   2.0000      -0.524123       -14.2621
  46   2.0000      -0.518687       -14.1142
  47   2.0000      -0.510627       -13.8949
  48   2.0000      -0.504195       -13.7199
  49   2.0000      -0.499412       -13.5897
  50   2.0000      -0.488552       -13.2942
  51   2.0000      -0.482091       -13.1184
  52   2.0000      -0.477200       -12.9853
  53   2.0000      -0.469127       -12.7656
  54   2.0000      -0.459025       -12.4907
  55   2.0000      -0.448412       -12.2019
  56   2.0000      -0.442923       -12.0525
  57   2.0000      -0.431823       -11.7505
  58   2.0000      -0.427449       -11.6315
  59   2.0000      -0.422279       -11.4908
  60   2.0000      -0.421680       -11.4745
  61   2.0000      -0.418036       -11.3753
  62   2.0000      -0.411968       -11.2102
  63   2.0000      -0.347061        -9.4440
  64   2.0000      -0.332528        -9.0485
  65   2.0000      -0.330262        -8.9869
  66   2.0000      -0.292850        -7.9688
  67   0.0000       0.031564         0.8589
  68   0.0000       0.069712         1.8970
  69   0.0000       0.114487         3.1153
  70   0.0000       0.118330         3.2199
  71   0.0000       0.128334         3.4922

MULLIKEN ATOMIC CHARGES
-----------------------
   0 S :    0.103872
   1 C :   -0.143836
   2 C :   -0.065518
   3 C :    0.023716
   4 C :   -0.172308
   5 H :    0.027287
   6 C :    0.042153
   7 H :   -0.000006
   8 H :    0.034950
   9 C :   -0.065156
  10 H :    0.023001
  11 H :    0.019083
  12 C :   -0.013290
  13 H :    0.023848
  14 H :    0.033892
  15 H :    0.033122
  16 S :    0.112743
  17 C :   -0.085610
  18 C :   -0.050646
  19 C :   -0.018174
  20 C :   -0.131747
  21 H :    0.042955
  22 C :    0.019528
  23 H :    0.027071
  24 H :    0.041955
  25 C :   -0.055539
  26 H :    0.020091
  27 H :    0.028030
  28 C :   -0.067853
  29 H :    0.036948
  30 H :    0.050422
  31 H :    0.026606
  32 H :    0.057304
  33 H :    0.041105
Sum of atomic charges:    0.0000000

LOEWDIN ATOMIC CHARGES
----------------------
   0 S :    0.409035
   1 C :   -0.192764
   2 C :   -0.069241
   3 C :   -0.066015
   4 C :   -0.193477
   5 H :    0.035561
   6 C :   -0.031364
   7 H :    0.024003
   8 H :    0.027686
   9 C :   -0.037125
  10 H :    0.021328
  11 H :    0.017314
  12 C :   -0.058977
  13 H :    0.028041
  14 H :    0.022920
  15 H :    0.030877
  16 S :    0.395445
  17 C :   -0.164330
  18 C :   -0.074812
  19 C :   -0.055339
  20 C :   -0.209025
  21 H :    0.043502
  22 C :   -0.041205
  23 H :    0.030428
  24 H :    0.039759
  25 C :   -0.039931
  26 H :    0.019669
  27 H :    0.019979
  28 C :   -0.067335
  29 H :    0.031759
  30 H :    0.031732
  31 H :    0.020580
  32 H :    0.031446
  33 H :    0.019875

  Mayer bond orders larger than 0.100000
B(  0-S ,  1-C ) :   1.1389 B(  0-S ,  4-C ) :   1.1688 B(  1-C ,  2-C ) :   1.5919
B(  1-C , 32-H ) :   0.9713 B(  2-C ,  3-C ) :   1.2663 B(  2-C ,  6-C ) :   1.0174
B(  3-C ,  4-C ) :   1.5458 B(  3-C ,  5-H ) :   0.9876 B(  4-C , 20-C ) :   1.0307
B(  6-C ,  7-H ) :   0.9383 B(  6-C ,  8-H ) :   0.9456 B(  6-C ,  9-C ) :   1.0509
B(  9-C , 10-H ) :   0.9545 B(  9-C , 11-H ) :   0.9612 B(  9-C , 12-C ) :   1.0839
B( 12-C , 13-H ) :   0.9721 B( 12-C , 14-H ) :   0.9751 B( 12-C , 15-H ) :   0.9724
B( 16-S , 17-C ) :   1.1523 B( 16-S , 20-C ) :   1.1213 B( 17-C , 18-C ) :   1.6315
B( 17-C , 33-H ) :   0.9692 B( 18-C , 19-C ) :   1.2171 B( 18-C , 21-H ) :   0.9825
B( 19-C , 20-C ) :   1.6110 B( 19-C , 22-C ) :   1.0461 B( 22-C , 23-H ) :   0.9212
B( 22-C , 24-H ) :   0.9368 B( 22-C , 25-C ) :   1.0673 B( 25-C , 26-H ) :   0.9586
B( 25-C , 27-H ) :   0.9467 B( 25-C , 28-C ) :   1.0871 B( 28-C , 29-H ) :   0.9719
B( 28-C , 30-H ) :   0.9735 B( 28-C , 31-H ) :   0.9733

Dispersion correction           -0.013966462
FINAL SINGLE POINT ENERGY     -1339.877695017188

DIPOLE MOMENT
-------------
                                X             Y             Z
Electronic contribution:    -16.28495      13.70673      24.31656
Nuclear contribution   :     16.72330     -13.95698     -24.66828
                        -----------------------------------------
Total Dipole Moment    :      0.43835      -0.25025      -0.35171
                        -----------------------------------------
Magnitude (a.u.)       :      0.61521
Magnitude (Debye)      :      1.56374

Rotational constants in cm-1:     0.017016     0.009174     0.006567
Rotational constants in MHz :   510.114811   275.019531   196.877405

                             ****ORCA TERMINATED NORMALLY****
TOTAL RUN TIME: 0 days 0 hours 0 minutes 21 seconds 637 msec
