                         Program Version 4.2.1 -  RELEASE  -
|  1> ! wB97X-D3 SP def2-SVP
|  2> %pal
|  3> nprocs 24
|  4> end
|  5>
|  6> * xyz 0 1
|  7> S 	 -109.395 	 40.5471 	 -12.1298
|  8> C 	 -108.24 	 41.8437 	 -12.5239
|  9> C 	 -108.189 	 42.7744 	 -11.4867
| 10> C 	 -109.047 	 42.4957 	 -10.4378
| 11> C 	 -109.813 	 41.3599 	 -10.5858
| 12> H 	 -109.204 	 43.1832 	 -9.60703
| 13> C 	 -107.351 	 44.1022 	 -11.5156
| 14> H 	 -106.338 	 43.8434 	 -11.7353
| 15> H 	 -107.419 	 44.7004 	 -10.6107
| 16> C 	 -107.567 	 45.032 	 -12.7175
| 17> H 	 -106.753 	 45.796 	 -12.8347
| 18> H 	 -107.455 	 44.3836 	 -13.5728
| 19> C 	 -108.943 	 45.6996 	 -12.842
| 20> H 	 -109.642 	 45.1994 	 -13.5052
| 21> H 	 -109.395 	 45.7347 	 -11.8069
| 22> H 	 -108.946 	 46.735 	 -13.1581
| 23> S 	 -112.472 	 40.9438 	 -10.1894
| 24> C 	 -112.984 	 40.3437 	 -8.58065
| 25> C 	 -111.945 	 40.145 	 -7.75473
| 26> C 	 -110.689 	 40.5353 	 -8.24549
| 27> C 	 -110.79 	 40.9533 	 -9.60235
| 28> H 	 -112.076 	 39.6807 	 -6.77513
| 29> C 	 -109.467 	 40.2808 	 -7.47843
| 30> H 	 -108.593 	 40.2523 	 -8.09242
| 31> H 	 -109.505 	 39.2847 	 -7.25648
| 32> C 	 -109.159 	 41.1568 	 -6.23322
| 33> H 	 -108.341 	 40.707 	 -5.68346
| 34> H 	 -110.098 	 41.2111 	 -5.60322
| 35> C 	 -108.889 	 42.6488 	 -6.50593
| 36> H 	 -108.796 	 43.2601 	 -5.63091
| 37> H 	 -109.845 	 43.0588 	 -6.90394
| 38> H 	 -108.02 	 42.8088 	 -7.17401
| 39> H 	 -107.521 	 41.785 	 -13.3792
| 40> H 	 -114.057 	 40.1477 	 -8.28347
| 41> *
| 42>
| 43>                          ****END OF INPUT****

CARTESIAN COORDINATES (ANGSTROEM)
---------------------------------
  S    -109.395000   40.547100  -12.129800
  C    -108.240000   41.843700  -12.523900
  C    -108.189000   42.774400  -11.486700
  C    -109.047000   42.495700  -10.437800
  C    -109.813000   41.359900  -10.585800
  H    -109.204000   43.183200   -9.607030
  C    -107.351000   44.102200  -11.515600
  H    -106.338000   43.843400  -11.735300
  H    -107.419000   44.700400  -10.610700
  C    -107.567000   45.032000  -12.717500
  H    -106.753000   45.796000  -12.834700
  H    -107.455000   44.383600  -13.572800
  C    -108.943000   45.699600  -12.842000
  H    -109.642000   45.199400  -13.505200
  H    -109.395000   45.734700  -11.806900
  H    -108.946000   46.735000  -13.158100
  S    -112.472000   40.943800  -10.189400
  C    -112.984000   40.343700   -8.580650
  C    -111.945000   40.145000   -7.754730
  C    -110.689000   40.535300   -8.245490
  C    -110.790000   40.953300   -9.602350
  H    -112.076000   39.680700   -6.775130
  C    -109.467000   40.280800   -7.478430
  H    -108.593000   40.252300   -8.092420
  H    -109.505000   39.284700   -7.256480
  C    -109.159000   41.156800   -6.233220
  H    -108.341000   40.707000   -5.683460
  H    -110.098000   41.211100   -5.603220
  C    -108.889000   42.648800   -6.505930
  H    -108.796000   43.260100   -5.630910
  H    -109.845000   43.058800   -6.903940
  H    -108.020000   42.808800   -7.174010
  H    -107.521000   41.785000  -13.379200
  H    -114.057000   40.147700   -8.283470

 Total Charge           Charge          ....    0
 Multiplicity           Mult            ....    1
 Number of Electrons    NEL             ....  134
 Basis Dimension        Dim             ....  322

ORBITAL ENERGIES
----------------

  NO   OCC          E(Eh)            E(eV)
   0   2.0000     -88.970781     -2421.0180
   1   2.0000     -88.965107     -2420.8636
   2   2.0000     -10.330294      -281.1016
   3   2.0000     -10.329355      -281.0760
   4   2.0000     -10.322687      -280.8946
   5   2.0000     -10.320170      -280.8261
   6   2.0000     -10.303391      -280.3695
   7   2.0000     -10.302423      -280.3432
   8   2.0000     -10.293546      -280.1016
   9   2.0000     -10.292847      -280.0826
  10   2.0000     -10.288789      -279.9722
  11   2.0000     -10.288455      -279.9631
  12   2.0000     -10.286580      -279.9121
  13   2.0000     -10.279853      -279.7290
  14   2.0000     -10.279400      -279.7167
  15   2.0000     -10.273155      -279.5468
  16   2.0000      -8.083974      -219.9761
  17   2.0000      -8.078894      -219.8379
  18   2.0000      -6.042530      -164.4256
  19   2.0000      -6.038684      -164.3209
  20   2.0000      -6.037443      -164.2872
  21   2.0000      -6.034777      -164.2146
  22   2.0000      -6.033652      -164.1840
  23   2.0000      -6.029549      -164.0724
  24   2.0000      -1.001731       -27.2585
  25   2.0000      -0.980672       -26.6854
  26   2.0000      -0.910866       -24.7859
  27   2.0000      -0.906146       -24.6575
  28   2.0000      -0.868586       -23.6354
  29   2.0000      -0.850049       -23.1310
  30   2.0000      -0.845488       -23.0069
  31   2.0000      -0.812446       -22.1078
  32   2.0000      -0.786046       -21.3894
  33   2.0000      -0.772128       -21.0107
  34   2.0000      -0.708534       -19.2802
  35   2.0000      -0.696346       -18.9485
  36   2.0000      -0.689234       -18.7550
  37   2.0000      -0.657367       -17.8879
  38   2.0000      -0.636329       -17.3154
  39   2.0000      -0.616283       -16.7699
  40   2.0000      -0.599904       -16.3242
  41   2.0000      -0.570888       -15.5347
  42   2.0000      -0.553513       -15.0619
  43   2.0000      -0.549075       -14.9411
  44   2.0000      -0.545820       -14.8525
  45   2.0000      -0.535952       -14.5840
  46   2.0000      -0.517691       -14.0871
  47   2.0000      -0.506730       -13.7888
  48   2.0000      -0.493050       -13.4166
  49   2.0000      -0.490166       -13.3381
  50   2.0000      -0.488596       -13.2954
  51   2.0000      -0.477706       -12.9990
  52   2.0000      -0.469170       -12.7668
  53   2.0000      -0.468085       -12.7372
  54   2.0000      -0.460361       -12.5271
  55   2.0000      -0.446674       -12.1546
  56   2.0000      -0.441696       -12.0192
  57   2.0000      -0.437185       -11.8964
  58   2.0000      -0.431820       -11.7504
  59   2.0000      -0.425359       -11.5746
  60   2.0000      -0.419110       -11.4046
  61   2.0000      -0.411719       -11.2035
  62   2.0000      -0.408197       -11.1076
  63   2.0000      -0.344747        -9.3810
  64   2.0000      -0.334090        -9.0910
  65   2.0000      -0.328334        -8.9344
  66   2.0000      -0.292375        -7.9559
  67   0.0000       0.028224         0.7680
  68   0.0000       0.057192         1.5563
  69   0.0000       0.109972         2.9925
  70   0.0000       0.115945         3.1550
  71   0.0000       0.128723         3.5027

MULLIKEN ATOMIC CHARGES
-----------------------
   0 S :    0.115324
   1 C :   -0.164363
   2 C :   -0.048336
   3 C :    0.027084
   4 C :   -0.149472
   5 H :    0.013353
   6 C :    0.089036
   7 H :    0.021721
   8 H :    0.028333
   9 C :   -0.098685
  10 H :    0.037284
  11 H :    0.014559
  12 C :   -0.057781
  13 H :    0.040711
  14 H :    0.024991
  15 H :    0.028339
  16 S :    0.097463
  17 C :   -0.102384
  18 C :   -0.034337
  19 C :   -0.012663
  20 C :   -0.195121
  21 H :    0.022713
  22 C :    0.115604
  23 H :    0.008939
  24 H :    0.004877
  25 C :   -0.085701
  26 H :    0.035054
  27 H :    0.029343
  28 C :   -0.061816
  29 H :    0.028448
  30 H :    0.037826
  31 H :    0.042003
  32 H :    0.074476
  33 H :    0.073179
Sum of atomic charges:   -0.0000000

LOEWDIN ATOMIC CHARGES
----------------------
   0 S :    0.384999
   1 C :   -0.198660
   2 C :   -0.063935
   3 C :   -0.060601
   4 C :   -0.191414
   5 H :    0.035288
   6 C :   -0.025015
   7 H :    0.032522
   8 H :    0.026060
   9 C :   -0.046975
  10 H :    0.029524
  11 H :    0.018611
  12 C :   -0.075874
  13 H :    0.027326
  14 H :    0.028966
  15 H :    0.023999
  16 S :    0.376764
  17 C :   -0.177919
  18 C :   -0.075639
  19 C :   -0.050674
  20 C :   -0.182291
  21 H :    0.036216
  22 C :   -0.032676
  23 H :    0.031369
  24 H :    0.027238
  25 C :   -0.035146
  26 H :    0.022517
  27 H :    0.027932
  28 C :   -0.072253
  29 H :    0.023644
  30 H :    0.030532
  31 H :    0.024847
  32 H :    0.038800
  33 H :    0.041919

  Mayer bond orders larger than 0.100000
B(  0-S ,  1-C ) :   1.1397 B(  0-S ,  4-C ) :   1.1399 B(  1-C ,  2-C ) :   1.5830
B(  1-C ,  4-C ) :   0.1076 B(  1-C , 32-H ) :   0.9594 B(  2-C ,  3-C ) :   1.2797
B(  2-C ,  6-C ) :   1.0098 B(  3-C ,  4-C ) :   1.5524 B(  3-C ,  5-H ) :   0.9924
B(  4-C , 20-C ) :   1.0544 B(  6-C ,  7-H ) :   0.9320 B(  6-C ,  8-H ) :   0.9521
B(  6-C ,  9-C ) :   1.0798 B(  9-C , 10-H ) :   0.9598 B(  9-C , 11-H ) :   0.9576
B(  9-C , 12-C ) :   1.0562 B( 12-C , 13-H ) :   0.9776 B( 12-C , 14-H ) :   0.9807
B( 12-C , 15-H ) :   0.9777 B( 16-S , 17-C ) :   1.1289 B( 16-S , 20-C ) :   1.1437
B( 17-C , 18-C ) :   1.6383 B( 17-C , 20-C ) :   0.1013 B( 17-C , 33-H ) :   0.9571
B( 18-C , 19-C ) :   1.2365 B( 18-C , 21-H ) :   0.9817 B( 19-C , 20-C ) :   1.5688
B( 19-C , 22-C ) :   1.0510 B( 22-C , 23-H ) :   0.9239 B( 22-C , 24-H ) :   0.9234
B( 22-C , 25-C ) :   1.0585 B( 25-C , 26-H ) :   0.9572 B( 25-C , 27-H ) :   0.9610
B( 25-C , 28-C ) :   1.0766 B( 28-C , 29-H ) :   0.9711 B( 28-C , 30-H ) :   0.9698
B( 28-C , 31-H ) :   0.9736

Dispersion correction           -0.014968364
FINAL SINGLE POINT ENERGY     -1339.867207373277

DIPOLE MOMENT
-------------
                                X             Y             Z
Electronic contribution:    -13.78138     -17.91454      -9.10678
Nuclear contribution   :     14.14954      18.10027       9.54737
                        -----------------------------------------
Total Dipole Moment    :      0.36816       0.18574       0.44059
                        -----------------------------------------
Magnitude (a.u.)       :      0.60346
Magnitude (Debye)      :      1.53387

Rotational constants in cm-1:     0.018976     0.008659     0.007268
Rotational constants in MHz :   568.889216   259.600295   217.903256

                             ****ORCA TERMINATED NORMALLY****
TOTAL RUN TIME: 0 days 0 hours 0 minutes 21 seconds 989 msec
