                         Program Version 4.2.1 -  RELEASE  -
|  1> ! wB97X-D3 SP def2-SVP
|  2> %pal
|  3> nprocs 24
|  4> end
|  5>
|  6> * xyz 0 1
|  7> S 	 -52.2262 	 4.45963 	 -23.5954
|  8> C 	 -51.7173 	 4.96862 	 -22.0488
|  9> C 	 -52.5068 	 4.53335 	 -21.0155
| 10> C 	 -53.5006 	 3.71211 	 -21.5031
| 11> C 	 -53.4514 	 3.45398 	 -22.8545
| 12> H 	 -54.2825 	 3.20306 	 -20.8714
| 13> C 	 -52.3095 	 4.84366 	 -19.49
| 14> H 	 -51.3358 	 5.40328 	 -19.384
| 15> H 	 -52.1991 	 3.82934 	 -19.0751
| 16> C 	 -53.4988 	 5.62028 	 -18.8244
| 17> H 	 -53.7923 	 6.49239 	 -19.438
| 18> H 	 -54.414 	 4.99495 	 -18.7882
| 19> C 	 -53.1933 	 5.84081 	 -17.3783
| 20> H 	 -53.1755 	 4.9353 	 -16.7575
| 21> H 	 -52.2567 	 6.38986 	 -17.1933
| 22> H 	 -54.1104 	 6.33048 	 -16.8482
| 23> S 	 -54.6514 	 3.275 	 -25.3677
| 24> C 	 -55.6587 	 1.94013 	 -25.6831
| 25> C 	 -55.7843 	 1.01166 	 -24.6629
| 26> C 	 -55.0102 	 1.41961 	 -23.5546
| 27> C 	 -54.4219 	 2.70218 	 -23.7055
| 28> H 	 -56.3484 	 0.14971 	 -24.7875
| 29> C 	 -54.9315 	 0.575943 	 -22.2873
| 30> H 	 -55.6588 	 -0.214065 	 -22.3231
| 31> H 	 -55.2162 	 1.38647 	 -21.548
| 32> C 	 -53.5142 	 0.0808521 	 -21.9936
| 33> H 	 -52.8372 	 0.962406 	 -21.9205
| 34> H 	 -53.1763 	 -0.430892 	 -22.8323
| 35> C 	 -53.4016 	 -0.630511 	 -20.6101
| 36> H 	 -53.1545 	 -0.00347747 	 -19.684
| 37> H 	 -52.6748 	 -1.38048 	 -20.5814
| 38> H 	 -54.2575 	 -1.23609 	 -20.4674
| 39> H 	 -51.0062 	 5.82651 	 -21.8364
| 40> H 	 -56.2477 	 1.94931 	 -26.6197
| 41> *
| 42>
| 43>                          ****END OF INPUT****

CARTESIAN COORDINATES (ANGSTROEM)
---------------------------------
  S    -52.226200    4.459630  -23.595400
  C    -51.717300    4.968620  -22.048800
  C    -52.506800    4.533350  -21.015500
  C    -53.500600    3.712110  -21.503100
  C    -53.451400    3.453980  -22.854500
  H    -54.282500    3.203060  -20.871400
  C    -52.309500    4.843660  -19.490000
  H    -51.335800    5.403280  -19.384000
  H    -52.199100    3.829340  -19.075100
  C    -53.498800    5.620280  -18.824400
  H    -53.792300    6.492390  -19.438000
  H    -54.414000    4.994950  -18.788200
  C    -53.193300    5.840810  -17.378300
  H    -53.175500    4.935300  -16.757500
  H    -52.256700    6.389860  -17.193300
  H    -54.110400    6.330480  -16.848200
  S    -54.651400    3.275000  -25.367700
  C    -55.658700    1.940130  -25.683100
  C    -55.784300    1.011660  -24.662900
  C    -55.010200    1.419610  -23.554600
  C    -54.421900    2.702180  -23.705500
  H    -56.348400    0.149710  -24.787500
  C    -54.931500    0.575943  -22.287300
  H    -55.658800   -0.214065  -22.323100
  H    -55.216200    1.386470  -21.548000
  C    -53.514200    0.080852  -21.993600
  H    -52.837200    0.962406  -21.920500
  H    -53.176300   -0.430892  -22.832300
  C    -53.401600   -0.630511  -20.610100
  H    -53.154500   -0.003477  -19.684000
  H    -52.674800   -1.380480  -20.581400
  H    -54.257500   -1.236090  -20.467400
  H    -51.006200    5.826510  -21.836400
  H    -56.247700    1.949310  -26.619700

 Total Charge           Charge          ....    0
 Multiplicity           Mult            ....    1
 Number of Electrons    NEL             ....  134
 Basis Dimension        Dim             ....  322

ORBITAL ENERGIES
----------------

  NO   OCC          E(Eh)            E(eV)
   0   2.0000     -88.968096     -2420.9450
   1   2.0000     -88.967426     -2420.9267
   2   2.0000     -10.329498      -281.0799
   3   2.0000     -10.329378      -281.0767
   4   2.0000     -10.316572      -280.7282
   5   2.0000     -10.309894      -280.5465
   6   2.0000     -10.305256      -280.4203
   7   2.0000     -10.304808      -280.4081
   8   2.0000     -10.294871      -280.1377
   9   2.0000     -10.294211      -280.1197
  10   2.0000     -10.292652      -280.0773
  11   2.0000     -10.290561      -280.0204
  12   2.0000     -10.289798      -279.9996
  13   2.0000     -10.287277      -279.9310
  14   2.0000     -10.280840      -279.7559
  15   2.0000     -10.274637      -279.5871
  16   2.0000      -8.083368      -219.9596
  17   2.0000      -8.082865      -219.9459
  18   2.0000      -6.041636      -164.4013
  19   2.0000      -6.041223      -164.3900
  20   2.0000      -6.037844      -164.2981
  21   2.0000      -6.037379      -164.2854
  22   2.0000      -6.034333      -164.2025
  23   2.0000      -6.033655      -164.1841
  24   2.0000      -1.010976       -27.5101
  25   2.0000      -0.990227       -26.9454
  26   2.0000      -0.908622       -24.7249
  27   2.0000      -0.907651       -24.6984
  28   2.0000      -0.867594       -23.6084
  29   2.0000      -0.852692       -23.2029
  30   2.0000      -0.850361       -23.1395
  31   2.0000      -0.811450       -22.0807
  32   2.0000      -0.782286       -21.2871
  33   2.0000      -0.766788       -20.8654
  34   2.0000      -0.709499       -19.3065
  35   2.0000      -0.698134       -18.9972
  36   2.0000      -0.685977       -18.6664
  37   2.0000      -0.666361       -18.1326
  38   2.0000      -0.632231       -17.2039
  39   2.0000      -0.622064       -16.9272
  40   2.0000      -0.592944       -16.1348
  41   2.0000      -0.569325       -15.4921
  42   2.0000      -0.565462       -15.3870
  43   2.0000      -0.559119       -15.2144
  44   2.0000      -0.523769       -14.2525
  45   2.0000      -0.517221       -14.0743
  46   2.0000      -0.514174       -13.9914
  47   2.0000      -0.510003       -13.8779
  48   2.0000      -0.502637       -13.6775
  49   2.0000      -0.493888       -13.4394
  50   2.0000      -0.488502       -13.2928
  51   2.0000      -0.483321       -13.1518
  52   2.0000      -0.471832       -12.8392
  53   2.0000      -0.468022       -12.7355
  54   2.0000      -0.461210       -12.5501
  55   2.0000      -0.457575       -12.4513
  56   2.0000      -0.438680       -11.9371
  57   2.0000      -0.435323       -11.8457
  58   2.0000      -0.431539       -11.7428
  59   2.0000      -0.424396       -11.5484
  60   2.0000      -0.419746       -11.4219
  61   2.0000      -0.418027       -11.3751
  62   2.0000      -0.411747       -11.2042
  63   2.0000      -0.351541        -9.5659
  64   2.0000      -0.337874        -9.1940
  65   2.0000      -0.332377        -9.0444
  66   2.0000      -0.280158        -7.6235
  67   0.0000       0.024847         0.6761
  68   0.0000       0.074406         2.0247
  69   0.0000       0.103488         2.8161
  70   0.0000       0.121536         3.3072
  71   0.0000       0.140282         3.8173

MULLIKEN ATOMIC CHARGES
-----------------------
   0 S :    0.110792
   1 C :   -0.135994
   2 C :   -0.087245
   3 C :   -0.020551
   4 C :   -0.134019
   5 H :    0.026089
   6 C :    0.046091
   7 H :    0.031029
   8 H :    0.041076
   9 C :   -0.071528
  10 H :    0.047859
  11 H :    0.030823
  12 C :   -0.073540
  13 H :    0.029909
  14 H :    0.039877
  15 H :    0.040313
  16 S :    0.104015
  17 C :   -0.105150
  18 C :    0.000188
  19 C :   -0.069798
  20 C :   -0.140024
  21 H :   -0.005971
  22 C :    0.062156
  23 H :    0.014687
  24 H :    0.039683
  25 C :   -0.064877
  26 H :    0.050030
  27 H :    0.017261
  28 C :   -0.015891
  29 H :    0.047093
  30 H :    0.007408
  31 H :    0.009550
  32 H :    0.061022
  33 H :    0.067636
Sum of atomic charges:   -0.0000000

LOEWDIN ATOMIC CHARGES
----------------------
   0 S :    0.420489
   1 C :   -0.226276
   2 C :   -0.075440
   3 C :   -0.077841
   4 C :   -0.192085
   5 H :    0.036231
   6 C :   -0.025808
   7 H :    0.033132
   8 H :    0.035068
   9 C :   -0.049022
  10 H :    0.031134
  11 H :    0.029575
  12 C :   -0.078458
  13 H :    0.027006
  14 H :    0.023725
  15 H :    0.037341
  16 S :    0.418151
  17 C :   -0.193746
  18 C :   -0.070324
  19 C :   -0.048101
  20 C :   -0.200182
  21 H :    0.023701
  22 C :   -0.030238
  23 H :    0.022643
  24 H :    0.039099
  25 C :   -0.036859
  26 H :    0.034884
  27 H :    0.016476
  28 C :   -0.068979
  29 H :    0.037381
  30 H :    0.018563
  31 H :    0.018073
  32 H :    0.039761
  33 H :    0.030927

  Mayer bond orders larger than 0.100000
B(  0-S ,  1-C ) :   1.1512 B(  0-S ,  4-C ) :   1.1556 B(  1-C ,  2-C ) :   1.6162
B(  1-C , 32-H ) :   0.9467 B(  2-C ,  3-C ) :   1.2939 B(  2-C ,  6-C ) :   0.9998
B(  3-C ,  4-C ) :   1.5529 B(  3-C ,  5-H ) :   0.9796 B(  4-C , 20-C ) :   1.0528
B(  6-C ,  7-H ) :   0.9474 B(  6-C ,  8-H ) :   0.9422 B(  6-C ,  9-C ) :   1.0556
B(  9-C , 10-H ) :   0.9591 B(  9-C , 11-H ) :   0.9489 B(  9-C , 12-C ) :   1.0856
B( 12-C , 13-H ) :   0.9705 B( 12-C , 14-H ) :   0.9746 B( 12-C , 15-H ) :   0.9704
B( 16-S , 17-C ) :   1.1975 B( 16-S , 20-C ) :   1.1374 B( 17-C , 18-C ) :   1.5605
B( 17-C , 33-H ) :   0.9596 B( 18-C , 19-C ) :   1.2708 B( 18-C , 21-H ) :   1.0099
B( 19-C , 20-C ) :   1.5572 B( 19-C , 22-C ) :   1.0230 B( 22-C , 23-H ) :   0.9351
B( 22-C , 24-H ) :   0.9404 B( 22-C , 25-C ) :   1.0572 B( 25-C , 26-H ) :   0.9541
B( 25-C , 27-H ) :   0.9589 B( 25-C , 28-C ) :   1.0672 B( 28-C , 29-H ) :   0.9770
B( 28-C , 30-H ) :   0.9707 B( 28-C , 31-H ) :   0.9721

Dispersion correction           -0.014268549
FINAL SINGLE POINT ENERGY     -1339.864302129828

DIPOLE MOMENT
-------------
                                X             Y             Z
Electronic contribution:     -0.35849       6.67901     -30.21273
Nuclear contribution   :      0.14432      -6.94263      30.70842
                        -----------------------------------------
Total Dipole Moment    :     -0.21417      -0.26361       0.49569
                        -----------------------------------------
Magnitude (a.u.)       :      0.60089
Magnitude (Debye)      :      1.52734

Rotational constants in cm-1:     0.018455     0.008601     0.006781
Rotational constants in MHz :   553.276280   257.863697   203.276826

                             ****ORCA TERMINATED NORMALLY****
TOTAL RUN TIME: 0 days 0 hours 0 minutes 21 seconds 781 msec
