                         Program Version 4.2.1 -  RELEASE  -
|  1> ! wB97X-D3 SP def2-SVP
|  2> %pal
|  3> nprocs 24
|  4> end
|  5>
|  6> * xyz 0 1
|  7> S 	 -91.2529 	 -38.2313 	 -62.3409
|  8> C 	 -91.4419 	 -39.8155 	 -63.0603
|  9> C 	 -91.5305 	 -40.806 	 -62.0828
| 10> C 	 -91.5454 	 -40.2684 	 -60.7591
| 11> C 	 -91.3904 	 -38.8511 	 -60.6965
| 12> H 	 -91.6739 	 -40.8027 	 -59.862
| 13> C 	 -91.4333 	 -42.2719 	 -62.4222
| 14> H 	 -90.402 	 -42.5334 	 -62.7269
| 15> H 	 -91.9382 	 -42.2748 	 -63.3784
| 16> C 	 -91.9863 	 -43.383 	 -61.4979
| 17> H 	 -91.6859 	 -43.2016 	 -60.4712
| 18> H 	 -93.0842 	 -43.3294 	 -61.5517
| 19> C 	 -91.5817 	 -44.792 	 -61.9792
| 20> H 	 -90.5676 	 -44.8819 	 -61.7888
| 21> H 	 -91.9879 	 -45.5732 	 -61.3525
| 22> H 	 -91.7214 	 -45.0185 	 -63.0576
| 23> S 	 -90.0952 	 -36.8532 	 -59.2592
| 24> C 	 -90.7296 	 -36.3706 	 -57.7175
| 25> C 	 -91.8435 	 -37.0911 	 -57.3348
| 26> C 	 -92.2784 	 -38.0077 	 -58.3599
| 27> C 	 -91.4081 	 -37.9942 	 -59.4847
| 28> H 	 -92.2027 	 -36.9043 	 -56.3332
| 29> C 	 -93.5192 	 -38.886 	 -58.2269
| 30> H 	 -93.4692 	 -39.756 	 -58.8664
| 31> H 	 -94.4166 	 -38.3792 	 -58.5466
| 32> C 	 -93.708 	 -39.5549 	 -56.8677
| 33> H 	 -94.5595 	 -40.2086 	 -56.9898
| 34> H 	 -93.8143 	 -38.7593 	 -56.1469
| 35> C 	 -92.4748 	 -40.4145 	 -56.4263
| 36> H 	 -92.8232 	 -41.1039 	 -55.6231
| 37> H 	 -91.6638 	 -39.7894 	 -56.1092
| 38> H 	 -92.2405 	 -41.0485 	 -57.2749
| 39> H 	 -91.1913 	 -39.9815 	 -64.1312
| 40> H 	 -90.3006 	 -35.5323 	 -57.1058
| 41> *
| 42>
| 43>                          ****END OF INPUT****

CARTESIAN COORDINATES (ANGSTROEM)
---------------------------------
  S    -91.252900  -38.231300  -62.340900
  C    -91.441900  -39.815500  -63.060300
  C    -91.530500  -40.806000  -62.082800
  C    -91.545400  -40.268400  -60.759100
  C    -91.390400  -38.851100  -60.696500
  H    -91.673900  -40.802700  -59.862000
  C    -91.433300  -42.271900  -62.422200
  H    -90.402000  -42.533400  -62.726900
  H    -91.938200  -42.274800  -63.378400
  C    -91.986300  -43.383000  -61.497900
  H    -91.685900  -43.201600  -60.471200
  H    -93.084200  -43.329400  -61.551700
  C    -91.581700  -44.792000  -61.979200
  H    -90.567600  -44.881900  -61.788800
  H    -91.987900  -45.573200  -61.352500
  H    -91.721400  -45.018500  -63.057600
  S    -90.095200  -36.853200  -59.259200
  C    -90.729600  -36.370600  -57.717500
  C    -91.843500  -37.091100  -57.334800
  C    -92.278400  -38.007700  -58.359900
  C    -91.408100  -37.994200  -59.484700
  H    -92.202700  -36.904300  -56.333200
  C    -93.519200  -38.886000  -58.226900
  H    -93.469200  -39.756000  -58.866400
  H    -94.416600  -38.379200  -58.546600
  C    -93.708000  -39.554900  -56.867700
  H    -94.559500  -40.208600  -56.989800
  H    -93.814300  -38.759300  -56.146900
  C    -92.474800  -40.414500  -56.426300
  H    -92.823200  -41.103900  -55.623100
  H    -91.663800  -39.789400  -56.109200
  H    -92.240500  -41.048500  -57.274900
  H    -91.191300  -39.981500  -64.131200
  H    -90.300600  -35.532300  -57.105800

 Total Charge           Charge          ....    0
 Multiplicity           Mult            ....    1
 Number of Electrons    NEL             ....  134
 Basis Dimension        Dim             ....  322

ORBITAL ENERGIES
----------------

  NO   OCC          E(Eh)            E(eV)
   0   2.0000     -88.968163     -2420.9468
   1   2.0000     -88.967122     -2420.9185
   2   2.0000     -10.336503      -281.2705
   3   2.0000     -10.332931      -281.1733
   4   2.0000     -10.321528      -280.8631
   5   2.0000     -10.316225      -280.7188
   6   2.0000     -10.312454      -280.6162
   7   2.0000     -10.304691      -280.4049
   8   2.0000     -10.297851      -280.2188
   9   2.0000     -10.295165      -280.1457
  10   2.0000     -10.292907      -280.0842
  11   2.0000     -10.292096      -280.0622
  12   2.0000     -10.285987      -279.8959
  13   2.0000     -10.284246      -279.8486
  14   2.0000     -10.278313      -279.6871
  15   2.0000     -10.276903      -279.6487
  16   2.0000      -8.083021      -219.9502
  17   2.0000      -8.081359      -219.9049
  18   2.0000      -6.041381      -164.3943
  19   2.0000      -6.039885      -164.3536
  20   2.0000      -6.037476      -164.2881
  21   2.0000      -6.035763      -164.2415
  22   2.0000      -6.033971      -164.1927
  23   2.0000      -6.032313      -164.1476
  24   2.0000      -1.000566       -27.2268
  25   2.0000      -0.980811       -26.6892
  26   2.0000      -0.911197       -24.7949
  27   2.0000      -0.909264       -24.7423
  28   2.0000      -0.867505       -23.6060
  29   2.0000      -0.847941       -23.0736
  30   2.0000      -0.843750       -22.9596
  31   2.0000      -0.814213       -22.1559
  32   2.0000      -0.784774       -21.3548
  33   2.0000      -0.771369       -20.9900
  34   2.0000      -0.714375       -19.4391
  35   2.0000      -0.694291       -18.8926
  36   2.0000      -0.687123       -18.6976
  37   2.0000      -0.651254       -17.7215
  38   2.0000      -0.639386       -17.3986
  39   2.0000      -0.622767       -16.9464
  40   2.0000      -0.601719       -16.3736
  41   2.0000      -0.569335       -15.4924
  42   2.0000      -0.564640       -15.3646
  43   2.0000      -0.554838       -15.0979
  44   2.0000      -0.544729       -14.8228
  45   2.0000      -0.526479       -14.3262
  46   2.0000      -0.511423       -13.9165
  47   2.0000      -0.506980       -13.7956
  48   2.0000      -0.498538       -13.5659
  49   2.0000      -0.496106       -13.4997
  50   2.0000      -0.487096       -13.2546
  51   2.0000      -0.485592       -13.2136
  52   2.0000      -0.476262       -12.9597
  53   2.0000      -0.471512       -12.8305
  54   2.0000      -0.457136       -12.4393
  55   2.0000      -0.449397       -12.2287
  56   2.0000      -0.446464       -12.1489
  57   2.0000      -0.434307       -11.8181
  58   2.0000      -0.432996       -11.7824
  59   2.0000      -0.427762       -11.6400
  60   2.0000      -0.423236       -11.5168
  61   2.0000      -0.421478       -11.4690
  62   2.0000      -0.407942       -11.1007
  63   2.0000      -0.343608        -9.3501
  64   2.0000      -0.332748        -9.0545
  65   2.0000      -0.328494        -8.9388
  66   2.0000      -0.290185        -7.8963
  67   0.0000       0.024865         0.6766
  68   0.0000       0.069790         1.8991
  69   0.0000       0.114278         3.1097
  70   0.0000       0.123534         3.3615
  71   0.0000       0.126790         3.4501

MULLIKEN ATOMIC CHARGES
-----------------------
   0 S :    0.112403
   1 C :   -0.147000
   2 C :   -0.067679
   3 C :    0.050914
   4 C :   -0.157091
   5 H :   -0.016196
   6 C :    0.035380
   7 H :    0.038431
   8 H :    0.018850
   9 C :   -0.076318
  10 H :    0.035640
  11 H :    0.035786
  12 C :   -0.029830
  13 H :    0.010675
  14 H :    0.029931
  15 H :    0.041671
  16 S :    0.115828
  17 C :   -0.119020
  18 C :   -0.046808
  19 C :   -0.030751
  20 C :   -0.158315
  21 H :    0.023727
  22 C :    0.091692
  23 H :   -0.000244
  24 H :    0.041781
  25 C :   -0.098856
  26 H :    0.033264
  27 H :    0.028413
  28 C :   -0.053167
  29 H :    0.040462
  30 H :    0.048234
  31 H :    0.023133
  32 H :    0.068837
  33 H :    0.076222
Sum of atomic charges:   -0.0000000

LOEWDIN ATOMIC CHARGES
----------------------
   0 S :    0.409168
   1 C :   -0.211463
   2 C :   -0.062188
   3 C :   -0.060244
   4 C :   -0.191231
   5 H :    0.017667
   6 C :   -0.041143
   7 H :    0.034832
   8 H :    0.032550
   9 C :   -0.037708
  10 H :    0.022561
  11 H :    0.026228
  12 C :   -0.062551
  13 H :    0.015809
  14 H :    0.028266
  15 H :    0.032072
  16 S :    0.414548
  17 C :   -0.194635
  18 C :   -0.077809
  19 C :   -0.047270
  20 C :   -0.204282
  21 H :    0.033682
  22 C :   -0.033392
  23 H :    0.024955
  24 H :    0.034037
  25 C :   -0.035031
  26 H :    0.025569
  27 H :    0.015204
  28 C :   -0.061888
  29 H :    0.031624
  30 H :    0.024728
  31 H :    0.020263
  32 H :    0.036460
  33 H :    0.040611

  Mayer bond orders larger than 0.100000
B(  0-S ,  1-C ) :   1.1489 B(  0-S ,  4-C ) :   1.1739 B(  1-C ,  2-C ) :   1.5772
B(  1-C ,  4-C ) :   0.1086 B(  1-C , 32-H ) :   0.9635 B(  2-C ,  3-C ) :   1.2736
B(  2-C ,  6-C ) :   1.0086 B(  3-C ,  4-C ) :   1.5308 B(  3-C ,  5-H ) :   0.9982
B(  4-C , 20-C ) :   1.0327 B(  6-C ,  7-H ) :   0.9421 B(  6-C ,  8-H ) :   0.9345
B(  6-C ,  9-C ) :   1.0604 B(  9-C , 10-H ) :   0.9536 B(  9-C , 11-H ) :   0.9589
B(  9-C , 12-C ) :   1.0853 B( 12-C , 13-H ) :   0.9726 B( 12-C , 14-H ) :   0.9710
B( 12-C , 15-H ) :   0.9762 B( 16-S , 17-C ) :   1.1672 B( 16-S , 20-C ) :   1.1527
B( 17-C , 18-C ) :   1.6121 B( 17-C , 33-H ) :   0.9580 B( 18-C , 19-C ) :   1.2312
B( 18-C , 21-H ) :   0.9922 B( 19-C , 20-C ) :   1.5754 B( 19-C , 22-C ) :   1.0358
B( 22-C , 23-H ) :   0.9337 B( 22-C , 24-H ) :   0.9324 B( 22-C , 25-C ) :   1.0731
B( 25-C , 26-H ) :   0.9587 B( 25-C , 27-H ) :   0.9536 B( 25-C , 28-C ) :   1.0787
B( 28-C , 29-H ) :   0.9743 B( 28-C , 30-H ) :   0.9729 B( 28-C , 31-H ) :   0.9754

Dispersion correction           -0.014285593
FINAL SINGLE POINT ENERGY     -1339.882077188082

DIPOLE MOMENT
-------------
                                X             Y             Z
Electronic contribution:      9.80110      27.99405      -8.25904
Nuclear contribution   :     -9.95962     -28.54496       8.56299
                        -----------------------------------------
Total Dipole Moment    :     -0.15851      -0.55091       0.30395
                        -----------------------------------------
Magnitude (a.u.)       :      0.64886
Magnitude (Debye)      :      1.64927

Rotational constants in cm-1:     0.017932     0.008772     0.006461
Rotational constants in MHz :   537.580666   262.984445   193.705783

                             ****ORCA TERMINATED NORMALLY****
TOTAL RUN TIME: 0 days 0 hours 0 minutes 21 seconds 650 msec
