                         Program Version 4.2.1 -  RELEASE  -
|  1> ! wB97X-D3 SP def2-SVP
|  2> %pal
|  3> nprocs 24
|  4> end
|  5>
|  6> * xyz 0 1
|  7> S 	 -48.1143 	 3.68858 	 -21.8746
|  8> C 	 -46.8003 	 3.90871 	 -23.0646
|  9> C 	 -47.2271 	 3.49661 	 -24.3224
| 10> C 	 -48.4667 	 2.82936 	 -24.3478
| 11> C 	 -49.0776 	 2.87025 	 -23.0742
| 12> H 	 -48.8237 	 2.37516 	 -25.2947
| 13> C 	 -46.1865 	 3.51643 	 -25.4815
| 14> H 	 -45.2544 	 3.41873 	 -24.9198
| 15> H 	 -46.194 	 4.42354 	 -25.9723
| 16> C 	 -46.2633 	 2.30817 	 -26.4117
| 17> H 	 -46.4265 	 1.30591 	 -25.8892
| 18> H 	 -47.1373 	 2.46128 	 -27.0936
| 19> C 	 -45.2247 	 2.08389 	 -27.5086
| 20> H 	 -44.2864 	 1.66387 	 -27.1106
| 21> H 	 -45.607 	 1.3532 	 -28.1788
| 22> H 	 -45.0178 	 3.08547 	 -27.9412
| 23> S 	 -51.6794 	 2.94415 	 -23.3789
| 24> C 	 -52.7275 	 2.04936 	 -22.3215
| 25> C 	 -52.0005 	 1.1596 	 -21.5308
| 26> C 	 -50.598 	 1.41075 	 -21.5935
| 27> C 	 -50.2875 	 2.23818 	 -22.6464
| 28> H 	 -52.5309 	 0.431493 	 -20.865
| 29> C 	 -49.6262 	 0.634021 	 -20.6916
| 30> H 	 -48.6817 	 0.775588 	 -21.2022
| 31> H 	 -49.9174 	 -0.413105 	 -20.9713
| 32> C 	 -49.457 	 0.967131 	 -19.2278
| 33> H 	 -50.3158 	 0.60334 	 -18.6878
| 34> H 	 -49.3117 	 2.05381 	 -19.1684
| 35> C 	 -48.2626 	 0.261396 	 -18.4593
| 36> H 	 -48.3473 	 0.462245 	 -17.4196
| 37> H 	 -47.3496 	 0.759206 	 -18.8212
| 38> H 	 -48.2706 	 -0.814695 	 -18.5388
| 39> H 	 -45.7969 	 4.19166 	 -22.892
| 40> H 	 -53.8079 	 2.1011 	 -22.2855
| 41> *
| 42>
| 43>                          ****END OF INPUT****

CARTESIAN COORDINATES (ANGSTROEM)
---------------------------------
  S    -48.114300    3.688580  -21.874600
  C    -46.800300    3.908710  -23.064600
  C    -47.227100    3.496610  -24.322400
  C    -48.466700    2.829360  -24.347800
  C    -49.077600    2.870250  -23.074200
  H    -48.823700    2.375160  -25.294700
  C    -46.186500    3.516430  -25.481500
  H    -45.254400    3.418730  -24.919800
  H    -46.194000    4.423540  -25.972300
  C    -46.263300    2.308170  -26.411700
  H    -46.426500    1.305910  -25.889200
  H    -47.137300    2.461280  -27.093600
  C    -45.224700    2.083890  -27.508600
  H    -44.286400    1.663870  -27.110600
  H    -45.607000    1.353200  -28.178800
  H    -45.017800    3.085470  -27.941200
  S    -51.679400    2.944150  -23.378900
  C    -52.727500    2.049360  -22.321500
  C    -52.000500    1.159600  -21.530800
  C    -50.598000    1.410750  -21.593500
  C    -50.287500    2.238180  -22.646400
  H    -52.530900    0.431493  -20.865000
  C    -49.626200    0.634021  -20.691600
  H    -48.681700    0.775588  -21.202200
  H    -49.917400   -0.413105  -20.971300
  C    -49.457000    0.967131  -19.227800
  H    -50.315800    0.603340  -18.687800
  H    -49.311700    2.053810  -19.168400
  C    -48.262600    0.261396  -18.459300
  H    -48.347300    0.462245  -17.419600
  H    -47.349600    0.759206  -18.821200
  H    -48.270600   -0.814695  -18.538800
  H    -45.796900    4.191660  -22.892000
  H    -53.807900    2.101100  -22.285500

 Total Charge           Charge          ....    0
 Multiplicity           Mult            ....    1
 Number of Electrons    NEL             ....  134
 Basis Dimension        Dim             ....  322

ORBITAL ENERGIES
----------------

  NO   OCC          E(Eh)            E(eV)
   0   2.0000     -88.970223     -2421.0028
   1   2.0000     -88.963748     -2420.8267
   2   2.0000     -10.330480      -281.1067
   3   2.0000     -10.317553      -280.7549
   4   2.0000     -10.315766      -280.7063
   5   2.0000     -10.309658      -280.5400
   6   2.0000     -10.302840      -280.3545
   7   2.0000     -10.299074      -280.2521
   8   2.0000     -10.297727      -280.2154
   9   2.0000     -10.295755      -280.1617
  10   2.0000     -10.291932      -280.0577
  11   2.0000     -10.290080      -280.0073
  12   2.0000     -10.289906      -280.0026
  13   2.0000     -10.287281      -279.9312
  14   2.0000     -10.279707      -279.7251
  15   2.0000     -10.277166      -279.6559
  16   2.0000      -8.083790      -219.9711
  17   2.0000      -8.079256      -219.8477
  18   2.0000      -6.042264      -164.4184
  19   2.0000      -6.038422      -164.3138
  20   2.0000      -6.037727      -164.2949
  21   2.0000      -6.034713      -164.2129
  22   2.0000      -6.033588      -164.1823
  23   2.0000      -6.030060      -164.0863
  24   2.0000      -1.010237       -27.4900
  25   2.0000      -0.981621       -26.7113
  26   2.0000      -0.910781       -24.7836
  27   2.0000      -0.904169       -24.6037
  28   2.0000      -0.870713       -23.6933
  29   2.0000      -0.851829       -23.1795
  30   2.0000      -0.844732       -22.9863
  31   2.0000      -0.813684       -22.1415
  32   2.0000      -0.785541       -21.3756
  33   2.0000      -0.771463       -20.9926
  34   2.0000      -0.710709       -19.3394
  35   2.0000      -0.695187       -18.9170
  36   2.0000      -0.680988       -18.5306
  37   2.0000      -0.664665       -18.0864
  38   2.0000      -0.629479       -17.1290
  39   2.0000      -0.617872       -16.8132
  40   2.0000      -0.589654       -16.0453
  41   2.0000      -0.575584       -15.6624
  42   2.0000      -0.568606       -15.4726
  43   2.0000      -0.558822       -15.2063
  44   2.0000      -0.535196       -14.5634
  45   2.0000      -0.522626       -14.2214
  46   2.0000      -0.516681       -14.0596
  47   2.0000      -0.508498       -13.8369
  48   2.0000      -0.503775       -13.7084
  49   2.0000      -0.497222       -13.5301
  50   2.0000      -0.496509       -13.5107
  51   2.0000      -0.479594       -13.0504
  52   2.0000      -0.469858       -12.7855
  53   2.0000      -0.462443       -12.5837
  54   2.0000      -0.457574       -12.4512
  55   2.0000      -0.454178       -12.3588
  56   2.0000      -0.449511       -12.2318
  57   2.0000      -0.438168       -11.9232
  58   2.0000      -0.434705       -11.8289
  59   2.0000      -0.420988       -11.4557
  60   2.0000      -0.417058       -11.3487
  61   2.0000      -0.405488       -11.0339
  62   2.0000      -0.401963       -10.9380
  63   2.0000      -0.338329        -9.2064
  64   2.0000      -0.336754        -9.1636
  65   2.0000      -0.326017        -8.8714
  66   2.0000      -0.291529        -7.9329
  67   0.0000       0.030199         0.8218
  68   0.0000       0.069334         1.8867
  69   0.0000       0.104788         2.8514
  70   0.0000       0.120527         3.2797
  71   0.0000       0.135167         3.6781

MULLIKEN ATOMIC CHARGES
-----------------------
   0 S :    0.122647
   1 C :   -0.129478
   2 C :   -0.099891
   3 C :    0.020122
   4 C :   -0.148939
   5 H :    0.030848
   6 C :    0.138979
   7 H :    0.019473
   8 H :    0.024628
   9 C :   -0.180454
  10 H :    0.047278
  11 H :    0.031269
  12 C :   -0.023547
  13 H :    0.027623
  14 H :    0.034988
  15 H :    0.033266
  16 S :    0.122166
  17 C :   -0.097342
  18 C :   -0.046831
  19 C :   -0.052235
  20 C :   -0.161427
  21 H :    0.035723
  22 C :    0.052874
  23 H :    0.011008
  24 H :    0.035678
  25 C :   -0.051149
  26 H :    0.023350
  27 H :    0.036946
  28 C :   -0.045882
  29 H :    0.027852
  30 H :    0.038390
  31 H :    0.033843
  32 H :    0.033805
  33 H :    0.054421
Sum of atomic charges:   -0.0000000

LOEWDIN ATOMIC CHARGES
----------------------
   0 S :    0.409597
   1 C :   -0.195641
   2 C :   -0.055947
   3 C :   -0.071861
   4 C :   -0.195288
   5 H :    0.041244
   6 C :   -0.021989
   7 H :    0.032197
   8 H :    0.021567
   9 C :   -0.058848
  10 H :    0.032238
  11 H :    0.025393
  12 C :   -0.061266
  13 H :    0.020744
  14 H :    0.024808
  15 H :    0.028683
  16 S :    0.431719
  17 C :   -0.190025
  18 C :   -0.074788
  19 C :   -0.056867
  20 C :   -0.219118
  21 H :    0.038628
  22 C :   -0.040913
  23 H :    0.023592
  24 H :    0.038676
  25 C :   -0.037329
  26 H :    0.020129
  27 H :    0.028138
  28 C :   -0.058535
  29 H :    0.022538
  30 H :    0.027943
  31 H :    0.023461
  32 H :    0.019101
  33 H :    0.028022

  Mayer bond orders larger than 0.100000
B(  0-S ,  1-C ) :   1.1263 B(  0-S ,  4-C ) :   1.1665 B(  1-C ,  2-C ) :   1.6090
B(  1-C ,  4-C ) :   0.1069 B(  1-C , 32-H ) :   0.9734 B(  2-C ,  3-C ) :   1.2852
B(  2-C ,  6-C ) :   0.9942 B(  3-C ,  4-C ) :   1.5151 B(  3-C ,  5-H ) :   0.9866
B(  4-C , 20-C ) :   1.0262 B(  6-C ,  7-H ) :   0.9499 B(  6-C ,  8-H ) :   0.9272
B(  6-C ,  9-C ) :   1.0764 B(  9-C , 10-H ) :   0.9578 B(  9-C , 11-H ) :   0.9490
B(  9-C , 12-C ) :   1.0818 B( 12-C , 13-H ) :   0.9744 B( 12-C , 14-H ) :   0.9751
B( 12-C , 15-H ) :   0.9729 B( 16-S , 17-C ) :   1.1660 B( 16-S , 20-C ) :   1.1502
B( 17-C , 18-C ) :   1.6046 B( 17-C , 33-H ) :   0.9680 B( 18-C , 19-C ) :   1.2334
B( 18-C , 21-H ) :   0.9819 B( 19-C , 20-C ) :   1.5956 B( 19-C , 22-C ) :   1.0258
B( 22-C , 23-H ) :   0.9324 B( 22-C , 24-H ) :   0.9366 B( 22-C , 25-C ) :   1.0607
B( 25-C , 26-H ) :   0.9555 B( 25-C , 27-H ) :   0.9527 B( 25-C , 28-C ) :   1.0847
B( 28-C , 29-H ) :   0.9763 B( 28-C , 30-H ) :   0.9772 B( 28-C , 31-H ) :   0.9770

Dispersion correction           -0.013813242
FINAL SINGLE POINT ENERGY     -1339.861086045281

DIPOLE MOMENT
-------------
                                X             Y             Z
Electronic contribution:    -17.11364      11.79793       2.01591
Nuclear contribution   :     17.32501     -12.16383      -2.04305
                        -----------------------------------------
Total Dipole Moment    :      0.21137      -0.36590      -0.02714
                        -----------------------------------------
Magnitude (a.u.)       :      0.42343
Magnitude (Debye)      :      1.07628

Rotational constants in cm-1:     0.018731     0.007893     0.006512
Rotational constants in MHz :   561.539441   236.617369   195.229678

                             ****ORCA TERMINATED NORMALLY****
TOTAL RUN TIME: 0 days 0 hours 0 minutes 19 seconds 790 msec
