                         Program Version 4.2.1 -  RELEASE  -
|  1> ! wB97X-D3 SP def2-SVP
|  2> %pal
|  3> nprocs 24
|  4> end
|  5>
|  6> * xyz 0 1
|  7> S 	 -136.693 	 67.3913 	 -61.7738
|  8> C 	 -135.457 	 67.4851 	 -62.9899
|  9> C 	 -136.043 	 67.7187 	 -64.2756
| 10> C 	 -137.465 	 67.9389 	 -64.1345
| 11> C 	 -137.98 	 67.9008 	 -62.8327
| 12> H 	 -138.111 	 68.0964 	 -65.0251
| 13> C 	 -135.387 	 67.5105 	 -65.6499
| 14> H 	 -136.074 	 66.9731 	 -66.3064
| 15> H 	 -134.553 	 66.824 	 -65.627
| 16> C 	 -134.797 	 68.7053 	 -66.4148
| 17> H 	 -134.338 	 69.4012 	 -65.7662
| 18> H 	 -134.234 	 68.2896 	 -67.1802
| 19> C 	 -135.954 	 69.4945 	 -67.0517
| 20> H 	 -136.564 	 69.962 	 -66.3119
| 21> H 	 -135.632 	 70.3028 	 -67.6994
| 22> H 	 -136.578 	 68.8523 	 -67.5281
| 23> S 	 -139.635 	 68.0842 	 -60.7153
| 24> C 	 -141.338 	 68.2724 	 -61.0321
| 25> C 	 -141.67 	 68.6086 	 -62.357
| 26> C 	 -140.51 	 68.559 	 -63.2158
| 27> C 	 -139.32 	 68.2497 	 -62.486
| 28> H 	 -142.677 	 68.691 	 -62.6692
| 29> C 	 -140.781 	 68.8301 	 -64.6771
| 30> H 	 -139.912 	 69.379 	 -65.0319
| 31> H 	 -141.556 	 69.7016 	 -64.7096
| 32> C 	 -141.344 	 67.7056 	 -65.5593
| 33> H 	 -142.225 	 67.3844 	 -65.0522
| 34> H 	 -140.688 	 66.8503 	 -65.5278
| 35> C 	 -141.52 	 68.1059 	 -67.0342
| 36> H 	 -141.909 	 69.1214 	 -67.0499
| 37> H 	 -142.178 	 67.405 	 -67.5698
| 38> H 	 -140.536 	 68.0556 	 -67.4629
| 39> H 	 -134.535 	 67.0263 	 -62.8957
| 40> H 	 -142.121 	 68.0641 	 -60.3316
| 41> *
| 42>
| 43>                          ****END OF INPUT****

CARTESIAN COORDINATES (ANGSTROEM)
---------------------------------
  S    -136.693000   67.391300  -61.773800
  C    -135.457000   67.485100  -62.989900
  C    -136.043000   67.718700  -64.275600
  C    -137.465000   67.938900  -64.134500
  C    -137.980000   67.900800  -62.832700
  H    -138.111000   68.096400  -65.025100
  C    -135.387000   67.510500  -65.649900
  H    -136.074000   66.973100  -66.306400
  H    -134.553000   66.824000  -65.627000
  C    -134.797000   68.705300  -66.414800
  H    -134.338000   69.401200  -65.766200
  H    -134.234000   68.289600  -67.180200
  C    -135.954000   69.494500  -67.051700
  H    -136.564000   69.962000  -66.311900
  H    -135.632000   70.302800  -67.699400
  H    -136.578000   68.852300  -67.528100
  S    -139.635000   68.084200  -60.715300
  C    -141.338000   68.272400  -61.032100
  C    -141.670000   68.608600  -62.357000
  C    -140.510000   68.559000  -63.215800
  C    -139.320000   68.249700  -62.486000
  H    -142.677000   68.691000  -62.669200
  C    -140.781000   68.830100  -64.677100
  H    -139.912000   69.379000  -65.031900
  H    -141.556000   69.701600  -64.709600
  C    -141.344000   67.705600  -65.559300
  H    -142.225000   67.384400  -65.052200
  H    -140.688000   66.850300  -65.527800
  C    -141.520000   68.105900  -67.034200
  H    -141.909000   69.121400  -67.049900
  H    -142.178000   67.405000  -67.569800
  H    -140.536000   68.055600  -67.462900
  H    -134.535000   67.026300  -62.895700
  H    -142.121000   68.064100  -60.331600

 Total Charge           Charge          ....    0
 Multiplicity           Mult            ....    1
 Number of Electrons    NEL             ....  134
 Basis Dimension        Dim             ....  322

ORBITAL ENERGIES
----------------

  NO   OCC          E(Eh)            E(eV)
   0   2.0000     -88.970988     -2421.0237
   1   2.0000     -88.970750     -2421.0172
   2   2.0000     -10.338556      -281.3264
   3   2.0000     -10.332125      -281.1514
   4   2.0000     -10.319664      -280.8123
   5   2.0000     -10.314817      -280.6804
   6   2.0000     -10.313457      -280.6434
   7   2.0000     -10.310584      -280.5653
   8   2.0000     -10.302255      -280.3386
   9   2.0000     -10.296187      -280.1735
  10   2.0000     -10.295719      -280.1608
  11   2.0000     -10.292716      -280.0790
  12   2.0000     -10.287519      -279.9376
  13   2.0000     -10.283043      -279.8158
  14   2.0000     -10.277128      -279.6549
  15   2.0000     -10.261387      -279.2265
  16   2.0000      -8.085222      -220.0101
  17   2.0000      -8.085013      -220.0044
  18   2.0000      -6.043930      -164.4637
  19   2.0000      -6.043548      -164.4533
  20   2.0000      -6.039801      -164.3513
  21   2.0000      -6.039620      -164.3464
  22   2.0000      -6.035943      -164.2464
  23   2.0000      -6.035628      -164.2378
  24   2.0000      -1.003630       -27.3102
  25   2.0000      -0.977366       -26.5955
  26   2.0000      -0.915431       -24.9102
  27   2.0000      -0.911698       -24.8086
  28   2.0000      -0.871667       -23.7193
  29   2.0000      -0.857963       -23.3464
  30   2.0000      -0.844018       -22.9669
  31   2.0000      -0.810008       -22.0414
  32   2.0000      -0.785105       -21.3638
  33   2.0000      -0.773538       -21.0490
  34   2.0000      -0.713124       -19.4051
  35   2.0000      -0.706992       -19.2382
  36   2.0000      -0.695724       -18.9316
  37   2.0000      -0.668706       -18.1964
  38   2.0000      -0.638796       -17.3825
  39   2.0000      -0.618930       -16.8419
  40   2.0000      -0.596091       -16.2204
  41   2.0000      -0.579164       -15.7599
  42   2.0000      -0.568913       -15.4809
  43   2.0000      -0.548517       -14.9259
  44   2.0000      -0.543220       -14.7818
  45   2.0000      -0.529944       -14.4205
  46   2.0000      -0.514374       -13.9968
  47   2.0000      -0.513168       -13.9640
  48   2.0000      -0.507265       -13.8034
  49   2.0000      -0.504929       -13.7398
  50   2.0000      -0.491139       -13.3646
  51   2.0000      -0.479861       -13.0577
  52   2.0000      -0.467985       -12.7345
  53   2.0000      -0.464773       -12.6471
  54   2.0000      -0.463023       -12.5995
  55   2.0000      -0.454419       -12.3654
  56   2.0000      -0.444922       -12.1069
  57   2.0000      -0.441322       -12.0090
  58   2.0000      -0.435375       -11.8472
  59   2.0000      -0.428043       -11.6476
  60   2.0000      -0.425622       -11.5818
  61   2.0000      -0.414387       -11.2760
  62   2.0000      -0.408344       -11.1116
  63   2.0000      -0.363634        -9.8950
  64   2.0000      -0.336964        -9.1693
  65   2.0000      -0.327234        -8.9045
  66   2.0000      -0.273017        -7.4292
  67   0.0000       0.008933         0.2431
  68   0.0000       0.080979         2.2036
  69   0.0000       0.084904         2.3104
  70   0.0000       0.101066         2.7501
  71   0.0000       0.127741         3.4760

MULLIKEN ATOMIC CHARGES
-----------------------
   0 S :    0.111525
   1 C :   -0.079303
   2 C :   -0.082134
   3 C :   -0.038904
   4 C :   -0.085189
   5 H :    0.013924
   6 C :    0.010946
   7 H :    0.024874
   8 H :    0.013936
   9 C :   -0.001846
  10 H :    0.029141
  11 H :    0.018582
  12 C :   -0.025983
  13 H :    0.019178
  14 H :    0.030581
  15 H :   -0.010337
  16 S :    0.094631
  17 C :   -0.077385
  18 C :   -0.021021
  19 C :   -0.045055
  20 C :   -0.127523
  21 H :    0.012952
  22 C :   -0.032254
  23 H :    0.027250
  24 H :    0.035131
  25 C :   -0.023277
  26 H :    0.012509
  27 H :    0.024130
  28 C :   -0.024267
  29 H :    0.031727
  30 H :    0.044572
  31 H :    0.032185
  32 H :    0.034585
  33 H :    0.052117
Sum of atomic charges:   -0.0000000

LOEWDIN ATOMIC CHARGES
----------------------
   0 S :    0.417993
   1 C :   -0.199115
   2 C :   -0.053082
   3 C :   -0.076103
   4 C :   -0.203895
   5 H :    0.030526
   6 C :   -0.032708
   7 H :    0.030980
   8 H :    0.027660
   9 C :   -0.019581
  10 H :    0.023805
  11 H :    0.017344
  12 C :   -0.057365
  13 H :    0.021999
  14 H :    0.024772
  15 H :    0.003929
  16 S :    0.387643
  17 C :   -0.178866
  18 C :   -0.063032
  19 C :   -0.047670
  20 C :   -0.171414
  21 H :    0.026742
  22 C :   -0.045019
  23 H :    0.024597
  24 H :    0.040476
  25 C :   -0.036499
  26 H :    0.018836
  27 H :    0.022513
  28 C :   -0.056840
  29 H :    0.024773
  30 H :    0.031560
  31 H :    0.026000
  32 H :    0.014418
  33 H :    0.024624

  Mayer bond orders larger than 0.100000
B(  0-S ,  1-C ) :   1.1511 B(  0-S ,  4-C ) :   1.1416 B(  1-C ,  2-C ) :   1.5646
B(  1-C ,  4-C ) :   0.1013 B(  1-C , 32-H ) :   0.9707 B(  2-C ,  3-C ) :   1.2989
B(  2-C ,  6-C ) :   1.0163 B(  3-C ,  4-C ) :   1.5173 B(  3-C ,  5-H ) :   0.9816
B(  4-C , 20-C ) :   1.1444 B(  6-C ,  7-H ) :   0.9487 B(  6-C ,  8-H ) :   0.9442
B(  6-C ,  9-C ) :   1.0781 B(  9-C , 10-H ) :   0.9563 B(  9-C , 11-H ) :   0.9535
B(  9-C , 12-C ) :   1.0856 B( 12-C , 13-H ) :   0.9738 B( 12-C , 14-H ) :   0.9729
B( 12-C , 15-H ) :   0.9733 B( 16-S , 17-C ) :   1.1578 B( 16-S , 20-C ) :   1.1125
B( 17-C , 18-C ) :   1.6145 B( 17-C , 33-H ) :   0.9651 B( 18-C , 19-C ) :   1.2416
B( 18-C , 21-H ) :   0.9895 B( 19-C , 20-C ) :   1.5664 B( 19-C , 22-C ) :   1.0352
B( 22-C , 23-H ) :   0.9362 B( 22-C , 24-H ) :   0.9336 B( 22-C , 25-C ) :   1.0519
B( 25-C , 26-H ) :   0.9493 B( 25-C , 27-H ) :   0.9560 B( 25-C , 28-C ) :   1.0737
B( 28-C , 29-H ) :   0.9755 B( 28-C , 30-H ) :   0.9742 B( 28-C , 31-H ) :   0.9766

Dispersion correction           -0.014028737
FINAL SINGLE POINT ENERGY     -1339.850900935450

DIPOLE MOMENT
-------------
                                X             Y             Z
Electronic contribution:      1.95063      -4.39872      32.45264
Nuclear contribution   :     -2.24735       4.20844     -33.18816
                        -----------------------------------------
Total Dipole Moment    :     -0.29672      -0.19028      -0.73552
                        -----------------------------------------
Magnitude (a.u.)       :      0.81562
Magnitude (Debye)      :      2.07314

Rotational constants in cm-1:     0.015788     0.010155     0.006533
Rotational constants in MHz :   473.306660   304.451538   195.849952

                             ****ORCA TERMINATED NORMALLY****
TOTAL RUN TIME: 0 days 0 hours 0 minutes 20 seconds 491 msec
