                         Program Version 4.2.1 -  RELEASE  -
|  1> ! wB97X-D3 SP def2-SVP
|  2> %pal
|  3> nprocs 24
|  4> end
|  5>
|  6> * xyz 0 1
|  7> S 	 -95.512 	 -6.25961 	 -119.043
|  8> C 	 -97.037 	 -5.76315 	 -119.679
|  9> C 	 -98.1121 	 -6.20707 	 -118.942
| 10> C 	 -97.6762 	 -6.84727 	 -117.732
| 11> C 	 -96.2861 	 -6.90965 	 -117.644
| 12> H 	 -98.2906 	 -7.17671 	 -116.898
| 13> C 	 -99.5958 	 -5.97751 	 -119.179
| 14> H 	 -99.6516 	 -5.11898 	 -119.856
| 15> H 	 -100.246 	 -5.69134 	 -118.341
| 16> C 	 -100.21 	 -7.22812 	 -119.756
| 17> H 	 -100.231 	 -7.28596 	 -120.851
| 18> H 	 -99.5661 	 -8.06779 	 -119.407
| 19> C 	 -101.69 	 -7.48508 	 -119.304
| 20> H 	 -102.283 	 -8.18743 	 -119.914
| 21> H 	 -101.759 	 -7.87636 	 -118.248
| 22> H 	 -102.197 	 -6.50174 	 -119.428
| 23> S 	 -93.7148 	 -7.19852 	 -116.532
| 24> C 	 -93.4911 	 -8.47449 	 -115.38
| 25> C 	 -94.6646 	 -9.1803 	 -115.149
| 26> C 	 -95.7419 	 -8.76901 	 -115.941
| 27> C 	 -95.4645 	 -7.62893 	 -116.71
| 28> H 	 -94.6041 	 -9.92552 	 -114.329
| 29> C 	 -97.0132 	 -9.54308 	 -115.911
| 30> H 	 -97.932 	 -8.95222 	 -115.738
| 31> H 	 -96.8003 	 -10.163 	 -115.045
| 32> C 	 -97.2441 	 -10.3589 	 -117.183
| 33> H 	 -96.8302 	 -9.90529 	 -118.074
| 34> H 	 -98.3412 	 -10.3938 	 -117.392
| 35> C 	 -96.6126 	 -11.7094 	 -117.153
| 36> H 	 -96.7771 	 -12.2553 	 -116.343
| 37> H 	 -95.5815 	 -11.6859 	 -117.395
| 38> H 	 -97.1132 	 -12.2685 	 -117.972
| 39> H 	 -97.2877 	 -5.46044 	 -120.699
| 40> H 	 -92.5668 	 -8.78636 	 -114.955
| 41> *
| 42>
| 43>                          ****END OF INPUT****

CARTESIAN COORDINATES (ANGSTROEM)
---------------------------------
  S    -95.512000   -6.259610  -119.043000
  C    -97.037000   -5.763150  -119.679000
  C    -98.112100   -6.207070  -118.942000
  C    -97.676200   -6.847270  -117.732000
  C    -96.286100   -6.909650  -117.644000
  H    -98.290600   -7.176710  -116.898000
  C    -99.595800   -5.977510  -119.179000
  H    -99.651600   -5.118980  -119.856000
  H    -100.246000   -5.691340  -118.341000
  C    -100.210000   -7.228120  -119.756000
  H    -100.231000   -7.285960  -120.851000
  H    -99.566100   -8.067790  -119.407000
  C    -101.690000   -7.485080  -119.304000
  H    -102.283000   -8.187430  -119.914000
  H    -101.759000   -7.876360  -118.248000
  H    -102.197000   -6.501740  -119.428000
  S    -93.714800   -7.198520  -116.532000
  C    -93.491100   -8.474490  -115.380000
  C    -94.664600   -9.180300  -115.149000
  C    -95.741900   -8.769010  -115.941000
  C    -95.464500   -7.628930  -116.710000
  H    -94.604100   -9.925520  -114.329000
  C    -97.013200   -9.543080  -115.911000
  H    -97.932000   -8.952220  -115.738000
  H    -96.800300  -10.163000  -115.045000
  C    -97.244100  -10.358900  -117.183000
  H    -96.830200   -9.905290  -118.074000
  H    -98.341200  -10.393800  -117.392000
  C    -96.612600  -11.709400  -117.153000
  H    -96.777100  -12.255300  -116.343000
  H    -95.581500  -11.685900  -117.395000
  H    -97.113200  -12.268500  -117.972000
  H    -97.287700   -5.460440  -120.699000
  H    -92.566800   -8.786360  -114.955000

 Total Charge           Charge          ....    0
 Multiplicity           Mult            ....    1
 Number of Electrons    NEL             ....  134
 Basis Dimension        Dim             ....  322

ORBITAL ENERGIES
----------------

  NO   OCC          E(Eh)            E(eV)
   0   2.0000     -88.969200     -2420.9750
   1   2.0000     -88.968402     -2420.9533
   2   2.0000     -10.329522      -281.0806
   3   2.0000     -10.328742      -281.0594
   4   2.0000     -10.315245      -280.6921
   5   2.0000     -10.310836      -280.5721
   6   2.0000     -10.302226      -280.3378
   7   2.0000     -10.301287      -280.3123
   8   2.0000     -10.294407      -280.1251
   9   2.0000     -10.294083      -280.1162
  10   2.0000     -10.293875      -280.1106
  11   2.0000     -10.288913      -279.9756
  12   2.0000     -10.288656      -279.9686
  13   2.0000     -10.288465      -279.9634
  14   2.0000     -10.280606      -279.7495
  15   2.0000     -10.259344      -279.1709
  16   2.0000      -8.084719      -219.9964
  17   2.0000      -8.082359      -219.9322
  18   2.0000      -6.043163      -164.4428
  19   2.0000      -6.040818      -164.3790
  20   2.0000      -6.039200      -164.3350
  21   2.0000      -6.036985      -164.2747
  22   2.0000      -6.035407      -164.2318
  23   2.0000      -6.033229      -164.1725
  24   2.0000      -1.010602       -27.4999
  25   2.0000      -0.985797       -26.8249
  26   2.0000      -0.917273       -24.9603
  27   2.0000      -0.915006       -24.8986
  28   2.0000      -0.870121       -23.6772
  29   2.0000      -0.858456       -23.3598
  30   2.0000      -0.845567       -23.0090
  31   2.0000      -0.811815       -22.0906
  32   2.0000      -0.786601       -21.4045
  33   2.0000      -0.773447       -21.0466
  34   2.0000      -0.714246       -19.4356
  35   2.0000      -0.696677       -18.9575
  36   2.0000      -0.691780       -18.8243
  37   2.0000      -0.664203       -18.0739
  38   2.0000      -0.637765       -17.3545
  39   2.0000      -0.623478       -16.9657
  40   2.0000      -0.598026       -16.2731
  41   2.0000      -0.572135       -15.5686
  42   2.0000      -0.560111       -15.2414
  43   2.0000      -0.550660       -14.9842
  44   2.0000      -0.544868       -14.8266
  45   2.0000      -0.530682       -14.4406
  46   2.0000      -0.521301       -14.1853
  47   2.0000      -0.510431       -13.8895
  48   2.0000      -0.503146       -13.6913
  49   2.0000      -0.495904       -13.4942
  50   2.0000      -0.489743       -13.3266
  51   2.0000      -0.483691       -13.1619
  52   2.0000      -0.477189       -12.9850
  53   2.0000      -0.465071       -12.6552
  54   2.0000      -0.459820       -12.5123
  55   2.0000      -0.452921       -12.3246
  56   2.0000      -0.445036       -12.1100
  57   2.0000      -0.434641       -11.8272
  58   2.0000      -0.430704       -11.7200
  59   2.0000      -0.425254       -11.5718
  60   2.0000      -0.420651       -11.4465
  61   2.0000      -0.413989       -11.2652
  62   2.0000      -0.406921       -11.0729
  63   2.0000      -0.357549        -9.7294
  64   2.0000      -0.336301        -9.1512
  65   2.0000      -0.332125        -9.0376
  66   2.0000      -0.279143        -7.5959
  67   0.0000       0.016378         0.4457
  68   0.0000       0.078595         2.1387
  69   0.0000       0.099239         2.7004
  70   0.0000       0.116605         3.1730
  71   0.0000       0.127200         3.4613

MULLIKEN ATOMIC CHARGES
-----------------------
   0 S :    0.112129
   1 C :   -0.084823
   2 C :   -0.124032
   3 C :   -0.006395
   4 C :   -0.114520
   5 H :    0.010488
   6 C :    0.074771
   7 H :    0.020712
   8 H :    0.037712
   9 C :   -0.090237
  10 H :    0.034974
  11 H :    0.042517
  12 C :   -0.100172
  13 H :    0.038382
  14 H :    0.046055
  15 H :    0.037467
  16 S :    0.098979
  17 C :   -0.079736
  18 C :   -0.062515
  19 C :   -0.050133
  20 C :   -0.130883
  21 H :    0.033783
  22 C :    0.070246
  23 H :    0.035350
  24 H :    0.014593
  25 C :   -0.085490
  26 H :    0.039346
  27 H :    0.026584
  28 C :    0.018381
  29 H :   -0.008080
  30 H :    0.031188
  31 H :    0.021907
  32 H :    0.046133
  33 H :    0.045318
Sum of atomic charges:   -0.0000000

LOEWDIN ATOMIC CHARGES
----------------------
   0 S :    0.427731
   1 C :   -0.217002
   2 C :   -0.057070
   3 C :   -0.066979
   4 C :   -0.190855
   5 H :    0.030813
   6 C :   -0.035474
   7 H :    0.030768
   8 H :    0.035742
   9 C :   -0.047340
  10 H :    0.025679
  11 H :    0.026949
  12 C :   -0.078222
  13 H :    0.026330
  14 H :    0.029122
  15 H :    0.027148
  16 S :    0.386661
  17 C :   -0.184439
  18 C :   -0.081571
  19 C :   -0.056311
  20 C :   -0.184003
  21 H :    0.039501
  22 C :   -0.032555
  23 H :    0.030769
  24 H :    0.030578
  25 C :   -0.039576
  26 H :    0.030274
  27 H :    0.024968
  28 C :   -0.050947
  29 H :    0.000517
  30 H :    0.025105
  31 H :    0.035242
  32 H :    0.033328
  33 H :    0.025118

  Mayer bond orders larger than 0.100000
B(  0-S ,  1-C ) :   1.1309 B(  0-S ,  4-C ) :   1.1572 B(  1-C ,  2-C ) :   1.6464
B(  1-C , 32-H ) :   0.9509 B(  2-C ,  3-C ) :   1.2273 B(  2-C ,  6-C ) :   1.0295
B(  3-C ,  4-C ) :   1.5566 B(  3-C ,  5-H ) :   0.9975 B(  4-C , 20-C ) :   1.0964
B(  6-C ,  7-H ) :   0.9335 B(  6-C ,  8-H ) :   0.9565 B(  6-C ,  9-C ) :   1.0300
B(  9-C , 10-H ) :   0.9536 B(  9-C , 11-H ) :   0.9679 B(  9-C , 12-C ) :   1.0713
B( 12-C , 13-H ) :   0.9775 B( 12-C , 14-H ) :   0.9772 B( 12-C , 15-H ) :   0.9738
B( 16-S , 17-C ) :   1.1639 B( 16-S , 20-C ) :   1.1231 B( 17-C , 18-C ) :   1.6039
B( 17-C , 20-C ) :   0.1060 B( 17-C , 33-H ) :   0.9654 B( 18-C , 19-C ) :   1.2717
B( 18-C , 21-H ) :   0.9806 B( 19-C , 20-C ) :   1.5541 B( 19-C , 22-C ) :   1.0362
B( 22-C , 23-H ) :   0.9362 B( 22-C , 24-H ) :   0.9365 B( 22-C , 25-C ) :   1.0525
B( 25-C , 26-H ) :   0.9583 B( 25-C , 27-H ) :   0.9589 B( 25-C , 28-C ) :   1.0892
B( 28-C , 29-H ) :   0.9731 B( 28-C , 30-H ) :   0.9737 B( 28-C , 31-H ) :   0.9673

Dispersion correction           -0.014928445
FINAL SINGLE POINT ENERGY     -1339.863437058735

DIPOLE MOMENT
-------------
                                X             Y             Z
Electronic contribution:     26.80173      15.18006       3.35542
Nuclear contribution   :    -27.33103     -15.67048      -3.33180
                        -----------------------------------------
Total Dipole Moment    :     -0.52931      -0.49042       0.02361
                        -----------------------------------------
Magnitude (a.u.)       :      0.72196
Magnitude (Debye)      :      1.83509

Rotational constants in cm-1:     0.019729     0.009378     0.006987
Rotational constants in MHz :   591.469047   281.141272   209.467385

                             ****ORCA TERMINATED NORMALLY****
TOTAL RUN TIME: 0 days 0 hours 0 minutes 21 seconds 353 msec
