                         Program Version 4.2.1 -  RELEASE  -
|  1> ! wB97X-D3 SP def2-SVP
|  2> %pal
|  3> nprocs 24
|  4> end
|  5>
|  6> * xyz 0 1
|  7> S 	 -53.5734 	 -53.0753 	 -75.3871
|  8> C 	 -52.477 	 -54.2947 	 -74.9351
|  9> C 	 -52.217 	 -55.1676 	 -75.978
| 10> C 	 -53.1317 	 -55.0074 	 -77.043
| 11> C 	 -54.0262 	 -53.951 	 -76.8475
| 12> H 	 -53.1064 	 -55.707 	 -77.8739
| 13> C 	 -51.2225 	 -56.3088 	 -75.8506
| 14> H 	 -50.2401 	 -55.9249 	 -75.6941
| 15> H 	 -51.1789 	 -56.7811 	 -76.8265
| 16> C 	 -51.5714 	 -57.4274 	 -74.8566
| 17> H 	 -50.755 	 -58.1699 	 -74.7739
| 18> H 	 -51.5151 	 -56.9382 	 -73.8681
| 19> C 	 -53.0387 	 -57.9545 	 -75.0146
| 20> H 	 -53.7355 	 -57.1523 	 -75.3189
| 21> H 	 -52.9909 	 -58.6756 	 -75.8488
| 22> H 	 -53.3823 	 -58.4779 	 -74.1189
| 23> S 	 -56.2258 	 -52.4531 	 -77.0716
| 24> C 	 -57.1497 	 -52.3276 	 -78.5495
| 25> C 	 -56.6028 	 -53.1662 	 -79.5122
| 26> C 	 -55.4154 	 -53.8775 	 -79.0879
| 27> C 	 -55.1394 	 -53.6278 	 -77.6947
| 28> H 	 -57.0039 	 -53.2704 	 -80.5017
| 29> C 	 -54.7353 	 -54.9198 	 -80.0871
| 30> H 	 -55.6003 	 -55.3001 	 -80.6479
| 31> H 	 -54.2796 	 -55.7467 	 -79.5885
| 32> C 	 -53.6388 	 -54.2777 	 -80.95
| 33> H 	 -52.9723 	 -53.7171 	 -80.2863
| 34> H 	 -54.0626 	 -53.6888 	 -81.7702
| 35> C 	 -52.8604 	 -55.2864 	 -81.7363
| 36> H 	 -53.6809 	 -55.7887 	 -82.2574
| 37> H 	 -52.381 	 -55.973 	 -81.041
| 38> H 	 -52.1102 	 -54.9558 	 -82.4396
| 39> H 	 -51.9439 	 -54.3868 	 -74.0331
| 40> H 	 -57.9305 	 -51.6772 	 -78.8172
| 41> *
| 42>
| 43>                          ****END OF INPUT****

CARTESIAN COORDINATES (ANGSTROEM)
---------------------------------
  S    -53.573400  -53.075300  -75.387100
  C    -52.477000  -54.294700  -74.935100
  C    -52.217000  -55.167600  -75.978000
  C    -53.131700  -55.007400  -77.043000
  C    -54.026200  -53.951000  -76.847500
  H    -53.106400  -55.707000  -77.873900
  C    -51.222500  -56.308800  -75.850600
  H    -50.240100  -55.924900  -75.694100
  H    -51.178900  -56.781100  -76.826500
  C    -51.571400  -57.427400  -74.856600
  H    -50.755000  -58.169900  -74.773900
  H    -51.515100  -56.938200  -73.868100
  C    -53.038700  -57.954500  -75.014600
  H    -53.735500  -57.152300  -75.318900
  H    -52.990900  -58.675600  -75.848800
  H    -53.382300  -58.477900  -74.118900
  S    -56.225800  -52.453100  -77.071600
  C    -57.149700  -52.327600  -78.549500
  C    -56.602800  -53.166200  -79.512200
  C    -55.415400  -53.877500  -79.087900
  C    -55.139400  -53.627800  -77.694700
  H    -57.003900  -53.270400  -80.501700
  C    -54.735300  -54.919800  -80.087100
  H    -55.600300  -55.300100  -80.647900
  H    -54.279600  -55.746700  -79.588500
  C    -53.638800  -54.277700  -80.950000
  H    -52.972300  -53.717100  -80.286300
  H    -54.062600  -53.688800  -81.770200
  C    -52.860400  -55.286400  -81.736300
  H    -53.680900  -55.788700  -82.257400
  H    -52.381000  -55.973000  -81.041000
  H    -52.110200  -54.955800  -82.439600
  H    -51.943900  -54.386800  -74.033100
  H    -57.930500  -51.677200  -78.817200

 Total Charge           Charge          ....    0
 Multiplicity           Mult            ....    1
 Number of Electrons    NEL             ....  134
 Basis Dimension        Dim             ....  322

ORBITAL ENERGIES
----------------

  NO   OCC          E(Eh)            E(eV)
   0   2.0000     -88.971436     -2421.0359
   1   2.0000     -88.968776     -2420.9635
   2   2.0000     -10.333068      -281.1771
   3   2.0000     -10.331921      -281.1459
   4   2.0000     -10.315883      -280.7094
   5   2.0000     -10.314102      -280.6610
   6   2.0000     -10.306120      -280.4438
   7   2.0000     -10.300355      -280.2869
   8   2.0000     -10.296127      -280.1719
   9   2.0000     -10.296104      -280.1712
  10   2.0000     -10.294729      -280.1338
  11   2.0000     -10.291430      -280.0440
  12   2.0000     -10.288337      -279.9599
  13   2.0000     -10.283946      -279.8404
  14   2.0000     -10.280261      -279.7401
  15   2.0000     -10.274663      -279.5878
  16   2.0000      -8.086475      -220.0442
  17   2.0000      -8.083925      -219.9748
  18   2.0000      -6.044998      -164.4928
  19   2.0000      -6.042480      -164.4242
  20   2.0000      -6.040959      -164.3829
  21   2.0000      -6.038185      -164.3074
  22   2.0000      -6.037176      -164.2799
  23   2.0000      -6.034799      -164.2152
  24   2.0000      -1.011390       -27.5213
  25   2.0000      -0.986231       -26.8367
  26   2.0000      -0.914090       -24.8737
  27   2.0000      -0.910065       -24.7641
  28   2.0000      -0.872154       -23.7325
  29   2.0000      -0.854533       -23.2530
  30   2.0000      -0.843579       -22.9549
  31   2.0000      -0.813387       -22.1334
  32   2.0000      -0.782544       -21.2941
  33   2.0000      -0.771977       -21.0066
  34   2.0000      -0.709691       -19.3117
  35   2.0000      -0.701247       -19.0819
  36   2.0000      -0.689415       -18.7599
  37   2.0000      -0.666605       -18.1393
  38   2.0000      -0.635789       -17.3007
  39   2.0000      -0.621392       -16.9089
  40   2.0000      -0.594470       -16.1763
  41   2.0000      -0.579593       -15.7715
  42   2.0000      -0.572111       -15.5679
  43   2.0000      -0.553819       -15.0702
  44   2.0000      -0.539637       -14.6843
  45   2.0000      -0.528570       -14.3831
  46   2.0000      -0.515644       -14.0314
  47   2.0000      -0.509942       -13.8762
  48   2.0000      -0.506753       -13.7895
  49   2.0000      -0.501448       -13.6451
  50   2.0000      -0.491532       -13.3753
  51   2.0000      -0.482364       -13.1258
  52   2.0000      -0.474804       -12.9201
  53   2.0000      -0.464198       -12.6315
  54   2.0000      -0.459871       -12.5137
  55   2.0000      -0.453270       -12.3341
  56   2.0000      -0.443816       -12.0769
  57   2.0000      -0.440474       -11.9859
  58   2.0000      -0.431844       -11.7511
  59   2.0000      -0.428472       -11.6593
  60   2.0000      -0.417212       -11.3529
  61   2.0000      -0.414514       -11.2795
  62   2.0000      -0.403103       -10.9690
  63   2.0000      -0.363715        -9.8972
  64   2.0000      -0.337303        -9.1785
  65   2.0000      -0.329393        -8.9632
  66   2.0000      -0.276872        -7.5341
  67   0.0000       0.012745         0.3468
  68   0.0000       0.087640         2.3848
  69   0.0000       0.098416         2.6780
  70   0.0000       0.114242         3.1087
  71   0.0000       0.135154         3.6777

MULLIKEN ATOMIC CHARGES
-----------------------
   0 S :    0.132264
   1 C :   -0.099662
   2 C :   -0.124522
   3 C :   -0.010878
   4 C :   -0.093860
   5 H :   -0.004889
   6 C :    0.094585
   7 H :    0.027156
   8 H :    0.004759
   9 C :   -0.081827
  10 H :    0.036137
  11 H :    0.014959
  12 C :   -0.067656
  13 H :    0.063592
  14 H :    0.027689
  15 H :    0.043687
  16 S :    0.097931
  17 C :   -0.058699
  18 C :   -0.032127
  19 C :   -0.061306
  20 C :   -0.127472
  21 H :    0.013472
  22 C :    0.041473
  23 H :    0.031392
  24 H :    0.015002
  25 C :   -0.065160
  26 H :    0.040800
  27 H :    0.029070
  28 C :   -0.040963
  29 H :    0.021687
  30 H :    0.018346
  31 H :    0.043252
  32 H :    0.030109
  33 H :    0.041660
Sum of atomic charges:    0.0000000

LOEWDIN ATOMIC CHARGES
----------------------
   0 S :    0.425627
   1 C :   -0.204848
   2 C :   -0.066190
   3 C :   -0.067081
   4 C :   -0.190428
   5 H :    0.027333
   6 C :   -0.030957
   7 H :    0.028498
   8 H :    0.023796
   9 C :   -0.043270
  10 H :    0.027057
  11 H :    0.017588
  12 C :   -0.067469
  13 H :    0.035228
  14 H :    0.024347
  15 H :    0.028017
  16 S :    0.428268
  17 C :   -0.189407
  18 C :   -0.066285
  19 C :   -0.051347
  20 C :   -0.206339
  21 H :    0.027485
  22 C :   -0.022745
  23 H :    0.032841
  24 H :    0.019423
  25 C :   -0.042474
  26 H :    0.025696
  27 H :    0.026674
  28 C :   -0.065434
  29 H :    0.026658
  30 H :    0.017765
  31 H :    0.026202
  32 H :    0.020569
  33 H :    0.025205

  Mayer bond orders larger than 0.100000
B(  0-S ,  1-C ) :   1.1508 B(  0-S ,  4-C ) :   1.1466 B(  1-C ,  2-C ) :   1.5736
B(  1-C , 32-H ) :   0.9741 B(  2-C ,  3-C ) :   1.2939 B(  2-C ,  6-C ) :   1.0246
B(  3-C ,  4-C ) :   1.5136 B(  3-C ,  5-H ) :   0.9936 B(  4-C , 20-C ) :   1.1260
B(  6-C ,  7-H ) :   0.9347 B(  6-C ,  8-H ) :   0.9399 B(  6-C ,  9-C ) :   1.0707
B(  9-C , 10-H ) :   0.9580 B(  9-C , 11-H ) :   0.9569 B(  9-C , 12-C ) :   1.0559
B( 12-C , 13-H ) :   0.9728 B( 12-C , 14-H ) :   0.9786 B( 12-C , 15-H ) :   0.9767
B( 16-S , 17-C ) :   1.1528 B( 16-S , 20-C ) :   1.1522 B( 17-C , 18-C ) :   1.5812
B( 17-C , 33-H ) :   0.9743 B( 18-C , 19-C ) :   1.2940 B( 18-C , 21-H ) :   0.9835
B( 19-C , 20-C ) :   1.5154 B( 19-C , 22-C ) :   1.0173 B( 22-C , 23-H ) :   0.9358
B( 22-C , 24-H ) :   0.9511 B( 22-C , 25-C ) :   1.0588 B( 25-C , 26-H ) :   0.9579
B( 25-C , 27-H ) :   0.9561 B( 25-C , 28-C ) :   1.0768 B( 28-C , 29-H ) :   0.9731
B( 28-C , 30-H ) :   0.9736 B( 28-C , 31-H ) :   0.9754

Dispersion correction           -0.014412500
FINAL SINGLE POINT ENERGY     -1339.871271113424

DIPOLE MOMENT
-------------
                                X             Y             Z
Electronic contribution:    -12.87584      22.04120      11.93102
Nuclear contribution   :     13.11901     -22.43944     -12.33078
                        -----------------------------------------
Total Dipole Moment    :      0.24317      -0.39824      -0.39976
                        -----------------------------------------
Magnitude (a.u.)       :      0.61444
Magnitude (Debye)      :      1.56178

Rotational constants in cm-1:     0.017156     0.009498     0.006972
Rotational constants in MHz :   514.338065   284.742694   209.011475

                             ****ORCA TERMINATED NORMALLY****
TOTAL RUN TIME: 0 days 0 hours 0 minutes 21 seconds 998 msec
