                         Program Version 4.2.1 -  RELEASE  -
|  1> ! wB97X-D3 SP def2-SVP
|  2> %pal
|  3> nprocs 24
|  4> end
|  5>
|  6> * xyz 0 1
|  7> S 	 -48.2358 	 24.3394 	 30.702
|  8> C 	 -48.9689 	 25.8712 	 30.6838
|  9> C 	 -48.003 	 26.8686 	 30.5075
| 10> C 	 -46.7619 	 26.3023 	 30.1578
| 11> C 	 -46.7037 	 24.9075 	 30.223
| 12> H 	 -45.8495 	 26.8799 	 29.881
| 13> C 	 -48.313 	 28.3594 	 30.5507
| 14> H 	 -49.14 	 28.5125 	 29.8205
| 15> H 	 -47.3833 	 28.7745 	 30.1256
| 16> C 	 -48.5959 	 29.094 	 31.8676
| 17> H 	 -48.5229 	 30.1738 	 31.8248
| 18> H 	 -49.6147 	 28.754 	 32.0593
| 19> C 	 -47.8195 	 28.4842 	 33.0424
| 20> H 	 -48.2228 	 28.9068 	 33.969
| 21> H 	 -48.0193 	 27.3867 	 33.025
| 22> H 	 -46.7955 	 28.7962 	 32.9769
| 23> S 	 -46.0703 	 23.0728 	 28.2736
| 24> C 	 -44.419 	 22.4454 	 28.2352
| 25> C 	 -43.5596 	 23.1665 	 28.9929
| 26> C 	 -44.2402 	 23.9867 	 29.963
| 27> C 	 -45.6458 	 24.0407 	 29.7142
| 28> H 	 -42.57 	 22.876 	 28.9687
| 29> C 	 -43.5307 	 24.5638 	 31.1546
| 30> H 	 -43.5304 	 25.6679 	 30.942
| 31> H 	 -42.5489 	 24.1854 	 31.1934
| 32> C 	 -44.2338 	 24.3263 	 32.4626
| 33> H 	 -44.3663 	 23.2804 	 32.6324
| 34> H 	 -45.1539 	 24.8686 	 32.4288
| 35> C 	 -43.4892 	 24.8424 	 33.6736
| 36> H 	 -42.4183 	 24.4289 	 33.8189
| 37> H 	 -44.0247 	 24.719 	 34.59
| 38> H 	 -43.2443 	 25.8816 	 33.4336
| 39> H 	 -50.0113 	 26.0844 	 30.8727
| 40> H 	 -44.1792 	 21.6133 	 27.5316
| 41> *
| 42>
| 43>                          ****END OF INPUT****

CARTESIAN COORDINATES (ANGSTROEM)
---------------------------------
  S    -48.235800   24.339400   30.702000
  C    -48.968900   25.871200   30.683800
  C    -48.003000   26.868600   30.507500
  C    -46.761900   26.302300   30.157800
  C    -46.703700   24.907500   30.223000
  H    -45.849500   26.879900   29.881000
  C    -48.313000   28.359400   30.550700
  H    -49.140000   28.512500   29.820500
  H    -47.383300   28.774500   30.125600
  C    -48.595900   29.094000   31.867600
  H    -48.522900   30.173800   31.824800
  H    -49.614700   28.754000   32.059300
  C    -47.819500   28.484200   33.042400
  H    -48.222800   28.906800   33.969000
  H    -48.019300   27.386700   33.025000
  H    -46.795500   28.796200   32.976900
  S    -46.070300   23.072800   28.273600
  C    -44.419000   22.445400   28.235200
  C    -43.559600   23.166500   28.992900
  C    -44.240200   23.986700   29.963000
  C    -45.645800   24.040700   29.714200
  H    -42.570000   22.876000   28.968700
  C    -43.530700   24.563800   31.154600
  H    -43.530400   25.667900   30.942000
  H    -42.548900   24.185400   31.193400
  C    -44.233800   24.326300   32.462600
  H    -44.366300   23.280400   32.632400
  H    -45.153900   24.868600   32.428800
  C    -43.489200   24.842400   33.673600
  H    -42.418300   24.428900   33.818900
  H    -44.024700   24.719000   34.590000
  H    -43.244300   25.881600   33.433600
  H    -50.011300   26.084400   30.872700
  H    -44.179200   21.613300   27.531600

 Total Charge           Charge          ....    0
 Multiplicity           Mult            ....    1
 Number of Electrons    NEL             ....  134
 Basis Dimension        Dim             ....  322

ORBITAL ENERGIES
----------------

  NO   OCC          E(Eh)            E(eV)
   0   2.0000     -88.967499     -2420.9287
   1   2.0000     -88.961485     -2420.7651
   2   2.0000     -10.329545      -281.0812
   3   2.0000     -10.325679      -280.9760
   4   2.0000     -10.319552      -280.8093
   5   2.0000     -10.311949      -280.6024
   6   2.0000     -10.310131      -280.5529
   7   2.0000     -10.301158      -280.3088
   8   2.0000     -10.295964      -280.1674
   9   2.0000     -10.293195      -280.0921
  10   2.0000     -10.289042      -279.9791
  11   2.0000     -10.288851      -279.9739
  12   2.0000     -10.285520      -279.8832
  13   2.0000     -10.276825      -279.6466
  14   2.0000     -10.274794      -279.5914
  15   2.0000     -10.273372      -279.5527
  16   2.0000      -8.083656      -219.9675
  17   2.0000      -8.075799      -219.7537
  18   2.0000      -6.041861      -164.4074
  19   2.0000      -6.037705      -164.2943
  20   2.0000      -6.034902      -164.2180
  21   2.0000      -6.034233      -164.1998
  22   2.0000      -6.030543      -164.0994
  23   2.0000      -6.026480      -163.9889
  24   2.0000      -1.011910       -27.5355
  25   2.0000      -0.983878       -26.7727
  26   2.0000      -0.915412       -24.9096
  27   2.0000      -0.912950       -24.8426
  28   2.0000      -0.869900       -23.6712
  29   2.0000      -0.851008       -23.1571
  30   2.0000      -0.847961       -23.0742
  31   2.0000      -0.814125       -22.1535
  32   2.0000      -0.782199       -21.2847
  33   2.0000      -0.768163       -20.9028
  34   2.0000      -0.707044       -19.2396
  35   2.0000      -0.698203       -18.9991
  36   2.0000      -0.686310       -18.6754
  37   2.0000      -0.659692       -17.9511
  38   2.0000      -0.639210       -17.3938
  39   2.0000      -0.610905       -16.6236
  40   2.0000      -0.593350       -16.1459
  41   2.0000      -0.579432       -15.7671
  42   2.0000      -0.577107       -15.7039
  43   2.0000      -0.555374       -15.1125
  44   2.0000      -0.548230       -14.9181
  45   2.0000      -0.527936       -14.3659
  46   2.0000      -0.519074       -14.1247
  47   2.0000      -0.508376       -13.8336
  48   2.0000      -0.499854       -13.6017
  49   2.0000      -0.497607       -13.5406
  50   2.0000      -0.496071       -13.4988
  51   2.0000      -0.479806       -13.0562
  52   2.0000      -0.470370       -12.7994
  53   2.0000      -0.460252       -12.5241
  54   2.0000      -0.456746       -12.4287
  55   2.0000      -0.447286       -12.1713
  56   2.0000      -0.445835       -12.1318
  57   2.0000      -0.437092       -11.8939
  58   2.0000      -0.432198       -11.7607
  59   2.0000      -0.425297       -11.5729
  60   2.0000      -0.419791       -11.4231
  61   2.0000      -0.411825       -11.2063
  62   2.0000      -0.403741       -10.9864
  63   2.0000      -0.343086        -9.3358
  64   2.0000      -0.328116        -8.9285
  65   2.0000      -0.324587        -8.8324
  66   2.0000      -0.293975        -7.9995
  67   0.0000       0.026158         0.7118
  68   0.0000       0.067756         1.8437
  69   0.0000       0.109625         2.9830
  70   0.0000       0.122926         3.3450
  71   0.0000       0.127017         3.4563

MULLIKEN ATOMIC CHARGES
-----------------------
   0 S :    0.136706
   1 C :   -0.121374
   2 C :   -0.141631
   3 C :    0.032286
   4 C :   -0.194484
   5 H :    0.025482
   6 C :    0.059972
   7 H :    0.047571
   8 H :    0.013347
   9 C :   -0.064814
  10 H :    0.042904
  11 H :    0.015349
  12 C :   -0.053995
  13 H :    0.029497
  14 H :    0.058262
  15 H :    0.028631
  16 S :    0.095892
  17 C :   -0.115576
  18 C :    0.010813
  19 C :   -0.052913
  20 C :   -0.142911
  21 H :   -0.004102
  22 C :    0.091895
  23 H :    0.036646
  24 H :    0.003315
  25 C :   -0.056870
  26 H :    0.029395
  27 H :    0.038982
  28 C :   -0.054957
  29 H :    0.026619
  30 H :    0.041913
  31 H :    0.014679
  32 H :    0.049487
  33 H :    0.073986
Sum of atomic charges:   -0.0000000

LOEWDIN ATOMIC CHARGES
----------------------
   0 S :    0.460460
   1 C :   -0.215694
   2 C :   -0.072276
   3 C :   -0.066869
   4 C :   -0.229541
   5 H :    0.036451
   6 C :   -0.038079
   7 H :    0.037532
   8 H :    0.027004
   9 C :   -0.041354
  10 H :    0.026170
  11 H :    0.021791
  12 C :   -0.063980
  13 H :    0.024892
  14 H :    0.034684
  15 H :    0.018568
  16 S :    0.379553
  17 C :   -0.168925
  18 C :   -0.068888
  19 C :   -0.041199
  20 C :   -0.196844
  21 H :    0.021618
  22 C :   -0.028437
  23 H :    0.040657
  24 H :    0.021765
  25 C :   -0.037475
  26 H :    0.022407
  27 H :    0.026431
  28 C :   -0.067924
  29 H :    0.028306
  30 H :    0.023821
  31 H :    0.021661
  32 H :    0.028381
  33 H :    0.035335

  Mayer bond orders larger than 0.100000
B(  0-S ,  1-C ) :   1.1831 B(  0-S ,  4-C ) :   1.1868 B(  1-C ,  2-C ) :   1.5218
B(  1-C ,  4-C ) :   0.1026 B(  1-C , 32-H ) :   0.9747 B(  2-C ,  3-C ) :   1.3191
B(  2-C ,  6-C ) :   1.0054 B(  3-C ,  4-C ) :   1.5111 B(  3-C ,  5-H ) :   0.9836
B(  4-C , 20-C ) :   1.0405 B(  6-C ,  7-H ) :   0.9486 B(  6-C ,  8-H ) :   0.9375
B(  6-C ,  9-C ) :   1.0552 B(  9-C , 10-H ) :   0.9606 B(  9-C , 11-H ) :   0.9538
B(  9-C , 12-C ) :   1.0936 B( 12-C , 13-H ) :   0.9742 B( 12-C , 14-H ) :   0.9617
B( 12-C , 15-H ) :   0.9794 B( 16-S , 17-C ) :   1.1527 B( 16-S , 20-C ) :   1.1326
B( 17-C , 18-C ) :   1.6298 B( 17-C , 33-H ) :   0.9614 B( 18-C , 19-C ) :   1.2259
B( 18-C , 21-H ) :   0.9978 B( 19-C , 20-C ) :   1.5799 B( 19-C , 22-C ) :   1.0471
B( 22-C , 23-H ) :   0.9116 B( 22-C , 24-H ) :   0.9370 B( 22-C , 25-C ) :   1.0884
B( 25-C , 26-H ) :   0.9569 B( 25-C , 27-H ) :   0.9394 B( 25-C , 28-C ) :   1.0969
B( 28-C , 29-H ) :   0.9717 B( 28-C , 30-H ) :   0.9740 B( 28-C , 31-H ) :   0.9700

Dispersion correction           -0.014886996
FINAL SINGLE POINT ENERGY     -1339.867024568897

DIPOLE MOMENT
-------------
                                X             Y             Z
Electronic contribution:     -7.08945     -18.39226     -19.18302
Nuclear contribution   :      7.35798      18.75778      19.36790
                        -----------------------------------------
Total Dipole Moment    :      0.26853       0.36552       0.18488
                        -----------------------------------------
Magnitude (a.u.)       :      0.48980
Magnitude (Debye)      :      1.24496

Rotational constants in cm-1:     0.019241     0.009271     0.007175
Rotational constants in MHz :   576.837391   277.951751   215.109013

                             ****ORCA TERMINATED NORMALLY****
TOTAL RUN TIME: 0 days 0 hours 0 minutes 22 seconds 320 msec
