                         Program Version 4.2.1 -  RELEASE  -
|  1> ! wB97X-D3 SP def2-SVP
|  2> %pal
|  3> nprocs 24
|  4> end
|  5>
|  6> * xyz 0 1
|  7> S 	 -68.6784 	 1.80764 	 -72.027
|  8> C 	 -67.6814 	 3.12191 	 -72.6688
|  9> C 	 -66.4085 	 2.64544 	 -72.9739
| 10> C 	 -66.3156 	 1.18703 	 -72.8307
| 11> C 	 -67.3649 	 0.647974 	 -72.1078
| 12> H 	 -65.4487 	 0.560008 	 -73.1224
| 13> C 	 -65.3159 	 3.45572 	 -73.57
| 14> H 	 -65.7356 	 3.9311 	 -74.4692
| 15> H 	 -64.678 	 2.74309 	 -74.13
| 16> C 	 -64.5324 	 4.38281 	 -72.6345
| 17> H 	 -65.2293 	 4.92008 	 -71.9951
| 18> H 	 -64.0465 	 3.69747 	 -71.9699
| 19> C 	 -63.4136 	 5.24867 	 -73.2827
| 20> H 	 -63.9614 	 5.92839 	 -73.9773
| 21> H 	 -62.855 	 5.77658 	 -72.4971
| 22> H 	 -62.7208 	 4.72526 	 -73.9333
| 23> S 	 -68.9342 	 -1.54491 	 -72.5031
| 24> C 	 -68.3726 	 -3.0936 	 -72.1596
| 25> C 	 -67.2366 	 -3.01479 	 -71.4273
| 26> C 	 -66.6665 	 -1.71018 	 -71.3318
| 27> C 	 -67.5098 	 -0.759639 	 -71.8833
| 28> H 	 -66.7917 	 -3.85089 	 -71.076
| 29> C 	 -65.3062 	 -1.4685 	 -70.7741
| 30> H 	 -65.2152 	 -2.10963 	 -69.9579
| 31> H 	 -65.2284 	 -0.442874 	 -70.4415
| 32> C 	 -64.1903 	 -1.72626 	 -71.7996
| 33> H 	 -64.4493 	 -1.30665 	 -72.8254
| 34> H 	 -64.0154 	 -2.75283 	 -71.8279
| 35> C 	 -62.7731 	 -1.10492 	 -71.4912
| 36> H 	 -62.0169 	 -1.49032 	 -72.1252
| 37> H 	 -62.4263 	 -1.34443 	 -70.4638
| 38> H 	 -62.7548 	 -0.0361578 	 -71.4546
| 39> H 	 -67.9478 	 4.19542 	 -72.6994
| 40> H 	 -68.8933 	 -3.991 	 -72.4591
| 41> *
| 42>
| 43>                          ****END OF INPUT****

CARTESIAN COORDINATES (ANGSTROEM)
---------------------------------
  S    -68.678400    1.807640  -72.027000
  C    -67.681400    3.121910  -72.668800
  C    -66.408500    2.645440  -72.973900
  C    -66.315600    1.187030  -72.830700
  C    -67.364900    0.647974  -72.107800
  H    -65.448700    0.560008  -73.122400
  C    -65.315900    3.455720  -73.570000
  H    -65.735600    3.931100  -74.469200
  H    -64.678000    2.743090  -74.130000
  C    -64.532400    4.382810  -72.634500
  H    -65.229300    4.920080  -71.995100
  H    -64.046500    3.697470  -71.969900
  C    -63.413600    5.248670  -73.282700
  H    -63.961400    5.928390  -73.977300
  H    -62.855000    5.776580  -72.497100
  H    -62.720800    4.725260  -73.933300
  S    -68.934200   -1.544910  -72.503100
  C    -68.372600   -3.093600  -72.159600
  C    -67.236600   -3.014790  -71.427300
  C    -66.666500   -1.710180  -71.331800
  C    -67.509800   -0.759639  -71.883300
  H    -66.791700   -3.850890  -71.076000
  C    -65.306200   -1.468500  -70.774100
  H    -65.215200   -2.109630  -69.957900
  H    -65.228400   -0.442874  -70.441500
  C    -64.190300   -1.726260  -71.799600
  H    -64.449300   -1.306650  -72.825400
  H    -64.015400   -2.752830  -71.827900
  C    -62.773100   -1.104920  -71.491200
  H    -62.016900   -1.490320  -72.125200
  H    -62.426300   -1.344430  -70.463800
  H    -62.754800   -0.036158  -71.454600
  H    -67.947800    4.195420  -72.699400
  H    -68.893300   -3.991000  -72.459100

 Total Charge           Charge          ....    0
 Multiplicity           Mult            ....    1
 Number of Electrons    NEL             ....  134
 Basis Dimension        Dim             ....  322

ORBITAL ENERGIES
----------------

  NO   OCC          E(Eh)            E(eV)
   0   2.0000     -88.966737     -2420.9080
   1   2.0000     -88.959137     -2420.7012
   2   2.0000     -10.328397      -281.0500
   3   2.0000     -10.320929      -280.8468
   4   2.0000     -10.318590      -280.7831
   5   2.0000     -10.309671      -280.5404
   6   2.0000     -10.303709      -280.3782
   7   2.0000     -10.299231      -280.2563
   8   2.0000     -10.298720      -280.2424
   9   2.0000     -10.291285      -280.0401
  10   2.0000     -10.290611      -280.0218
  11   2.0000     -10.288163      -279.9552
  12   2.0000     -10.286252      -279.9031
  13   2.0000     -10.284925      -279.8671
  14   2.0000     -10.280626      -279.7500
  15   2.0000     -10.277777      -279.6725
  16   2.0000      -8.080878      -219.8919
  17   2.0000      -8.075816      -219.7541
  18   2.0000      -6.039610      -164.3461
  19   2.0000      -6.035443      -164.2327
  20   2.0000      -6.034225      -164.1996
  21   2.0000      -6.031464      -164.1245
  22   2.0000      -6.029911      -164.0822
  23   2.0000      -6.026694      -163.9947
  24   2.0000      -1.013856       -27.5884
  25   2.0000      -0.985232       -26.8095
  26   2.0000      -0.913090       -24.8465
  27   2.0000      -0.912065       -24.8186
  28   2.0000      -0.872972       -23.7548
  29   2.0000      -0.852182       -23.1890
  30   2.0000      -0.844585       -22.9823
  31   2.0000      -0.815348       -22.1868
  32   2.0000      -0.785897       -21.3854
  33   2.0000      -0.773161       -21.0388
  34   2.0000      -0.708553       -19.2807
  35   2.0000      -0.708058       -19.2672
  36   2.0000      -0.698416       -19.0049
  37   2.0000      -0.669195       -18.2097
  38   2.0000      -0.636724       -17.3261
  39   2.0000      -0.614791       -16.7293
  40   2.0000      -0.600668       -16.3450
  41   2.0000      -0.572822       -15.5873
  42   2.0000      -0.568761       -15.4768
  43   2.0000      -0.554031       -15.0760
  44   2.0000      -0.531566       -14.4647
  45   2.0000      -0.527468       -14.3531
  46   2.0000      -0.523814       -14.2537
  47   2.0000      -0.516806       -14.0630
  48   2.0000      -0.506828       -13.7915
  49   2.0000      -0.503077       -13.6894
  50   2.0000      -0.496360       -13.5066
  51   2.0000      -0.482767       -13.1367
  52   2.0000      -0.470434       -12.8012
  53   2.0000      -0.467389       -12.7183
  54   2.0000      -0.457301       -12.4438
  55   2.0000      -0.450508       -12.2589
  56   2.0000      -0.449335       -12.2270
  57   2.0000      -0.440451       -11.9853
  58   2.0000      -0.431757       -11.7487
  59   2.0000      -0.429092       -11.6762
  60   2.0000      -0.419207       -11.4072
  61   2.0000      -0.415369       -11.3028
  62   2.0000      -0.407710       -11.0943
  63   2.0000      -0.351411        -9.5624
  64   2.0000      -0.328107        -8.9282
  65   2.0000      -0.325676        -8.8621
  66   2.0000      -0.291311        -7.9270
  67   0.0000       0.031060         0.8452
  68   0.0000       0.071415         1.9433
  69   0.0000       0.112498         3.0612
  70   0.0000       0.121734         3.3125
  71   0.0000       0.129732         3.5302

MULLIKEN ATOMIC CHARGES
-----------------------
   0 S :    0.100962
   1 C :   -0.120750
   2 C :   -0.102250
   3 C :    0.005165
   4 C :   -0.128623
   5 H :    0.020191
   6 C :    0.038720
   7 H :    0.023849
   8 H :    0.009122
   9 C :   -0.042164
  10 H :    0.028720
  11 H :    0.017754
  12 C :   -0.046417
  13 H :    0.032218
  14 H :    0.049193
  15 H :    0.031956
  16 S :    0.108595
  17 C :   -0.083860
  18 C :    0.015395
  19 C :   -0.074134
  20 C :   -0.151212
  21 H :   -0.034805
  22 C :    0.140042
  23 H :    0.007535
  24 H :    0.021374
  25 C :   -0.087344
  26 H :    0.048000
  27 H :    0.017886
  28 C :   -0.044579
  29 H :    0.033631
  30 H :    0.017211
  31 H :    0.025264
  32 H :    0.064844
  33 H :    0.058512
Sum of atomic charges:   -0.0000000

LOEWDIN ATOMIC CHARGES
----------------------
   0 S :    0.393487
   1 C :   -0.197107
   2 C :   -0.062264
   3 C :   -0.061938
   4 C :   -0.194661
   5 H :    0.034110
   6 C :   -0.047002
   7 H :    0.030914
   8 H :    0.031120
   9 C :   -0.038407
  10 H :    0.024574
  11 H :    0.021843
  12 C :   -0.064826
  13 H :    0.028449
  14 H :    0.031814
  15 H :    0.024540
  16 S :    0.432443
  17 C :   -0.195662
  18 C :   -0.064915
  19 C :   -0.050305
  20 C :   -0.202531
  21 H :    0.010212
  22 C :   -0.023884
  23 H :    0.025002
  24 H :    0.030705
  25 C :   -0.031196
  26 H :    0.028884
  27 H :    0.015826
  28 C :   -0.066260
  29 H :    0.022632
  30 H :    0.025395
  31 H :    0.018638
  32 H :    0.038188
  33 H :    0.032182

  Mayer bond orders larger than 0.100000
B(  0-S ,  1-C ) :   1.1238 B(  0-S ,  4-C ) :   1.1386 B(  1-C ,  2-C ) :   1.6185
B(  1-C , 32-H ) :   0.9646 B(  2-C ,  3-C ) :   1.2312 B(  2-C ,  6-C ) :   1.0294
B(  3-C ,  4-C ) :   1.5755 B(  3-C ,  5-H ) :   0.9779 B(  4-C , 20-C ) :   1.0541
B(  6-C ,  7-H ) :   0.9381 B(  6-C ,  8-H ) :   0.9375 B(  6-C ,  9-C ) :   1.0433
B(  9-C , 10-H ) :   0.9611 B(  9-C , 11-H ) :   0.9515 B(  9-C , 12-C ) :   1.0725
B( 12-C , 13-H ) :   0.9773 B( 12-C , 14-H ) :   0.9754 B( 12-C , 15-H ) :   0.9757
B( 16-S , 17-C ) :   1.1786 B( 16-S , 20-C ) :   1.1479 B( 17-C , 18-C ) :   1.5734
B( 17-C , 33-H ) :   0.9716 B( 18-C , 19-C ) :   1.2513 B( 18-C , 21-H ) :   1.0111
B( 19-C , 20-C ) :   1.5819 B( 19-C , 22-C ) :   1.0666 B( 22-C , 23-H ) :   0.9189
B( 22-C , 24-H ) :   0.9291 B( 22-C , 25-C ) :   1.0561 B( 25-C , 26-H ) :   0.9567
B( 25-C , 27-H ) :   0.9527 B( 25-C , 28-C ) :   1.0811 B( 28-C , 29-H ) :   0.9764
B( 28-C , 30-H ) :   0.9716 B( 28-C , 31-H ) :   0.9770

Dispersion correction           -0.014261483
FINAL SINGLE POINT ENERGY     -1339.871723030676

DIPOLE MOMENT
-------------
                                X             Y             Z
Electronic contribution:    -31.29609      -9.87545       1.11294
Nuclear contribution   :     32.04836       9.79186      -1.19534
                        -----------------------------------------
Total Dipole Moment    :      0.75227      -0.08359      -0.08239
                        -----------------------------------------
Magnitude (a.u.)       :      0.76137
Magnitude (Debye)      :      1.93525

Rotational constants in cm-1:     0.018641     0.008922     0.006352
Rotational constants in MHz :   558.834978   267.470313   190.426425

                             ****ORCA TERMINATED NORMALLY****
TOTAL RUN TIME: 0 days 0 hours 0 minutes 20 seconds 686 msec
