                         Program Version 4.2.1 -  RELEASE  -
|  1> ! wB97X-D3 SP def2-SVP
|  2> %pal
|  3> nprocs 24
|  4> end
|  5>
|  6> * xyz 0 1
|  7> S 	 18.6912 	 -6.75683 	 -117.64
|  8> C 	 18.4573 	 -7.20654 	 -115.998
|  9> C 	 17.1674 	 -6.98823 	 -115.539
| 10> C 	 16.3292 	 -6.4536 	 -116.56
| 11> C 	 17.0227 	 -6.22318 	 -117.759
| 12> H 	 15.2885 	 -6.08287 	 -116.433
| 13> C 	 16.6311 	 -7.36968 	 -114.174
| 14> H 	 17.2079 	 -8.118 	 -113.675
| 15> H 	 15.714 	 -7.87068 	 -114.418
| 16> C 	 16.48 	 -6.30555 	 -113.096
| 17> H 	 15.8574 	 -5.54494 	 -113.491
| 18> H 	 16.0531 	 -6.62723 	 -112.159
| 19> C 	 17.8759 	 -5.68839 	 -112.704
| 20> H 	 18.5148 	 -6.48782 	 -112.223
| 21> H 	 18.4213 	 -5.24741 	 -113.595
| 22> H 	 17.8126 	 -4.93318 	 -111.957
| 23> S 	 17.3912 	 -3.95673 	 -119.265
| 24> C 	 16.1975 	 -3.45419 	 -120.444
| 25> C 	 15.1428 	 -4.274 	 -120.397
| 26> C 	 15.2857 	 -5.43715 	 -119.573
| 27> C 	 16.5077 	 -5.44298 	 -118.883
| 28> H 	 14.246 	 -4.04614 	 -121
| 29> C 	 14.2306 	 -6.42704 	 -119.343
| 30> H 	 14.6179 	 -7.23288 	 -118.717
| 31> H 	 13.9287 	 -6.93922 	 -120.19
| 32> C 	 13.0565 	 -5.81634 	 -118.388
| 33> H 	 12.4697 	 -5.06036 	 -118.927
| 34> H 	 13.4138 	 -5.35947 	 -117.533
| 35> C 	 11.9993 	 -6.84459 	 -118.035
| 36> H 	 11.7055 	 -7.25186 	 -119.052
| 37> H 	 11.1333 	 -6.46816 	 -117.658
| 38> H 	 12.4835 	 -7.68545 	 -117.522
| 39> H 	 19.2708 	 -7.56453 	 -115.401
| 40> H 	 16.2419 	 -2.68515 	 -121.077
| 41> *
| 42>
| 43>                          ****END OF INPUT****

CARTESIAN COORDINATES (ANGSTROEM)
---------------------------------
  S     18.691200   -6.756830  -117.640000
  C     18.457300   -7.206540  -115.998000
  C     17.167400   -6.988230  -115.539000
  C     16.329200   -6.453600  -116.560000
  C     17.022700   -6.223180  -117.759000
  H     15.288500   -6.082870  -116.433000
  C     16.631100   -7.369680  -114.174000
  H     17.207900   -8.118000  -113.675000
  H     15.714000   -7.870680  -114.418000
  C     16.480000   -6.305550  -113.096000
  H     15.857400   -5.544940  -113.491000
  H     16.053100   -6.627230  -112.159000
  C     17.875900   -5.688390  -112.704000
  H     18.514800   -6.487820  -112.223000
  H     18.421300   -5.247410  -113.595000
  H     17.812600   -4.933180  -111.957000
  S     17.391200   -3.956730  -119.265000
  C     16.197500   -3.454190  -120.444000
  C     15.142800   -4.274000  -120.397000
  C     15.285700   -5.437150  -119.573000
  C     16.507700   -5.442980  -118.883000
  H     14.246000   -4.046140  -121.000000
  C     14.230600   -6.427040  -119.343000
  H     14.617900   -7.232880  -118.717000
  H     13.928700   -6.939220  -120.190000
  C     13.056500   -5.816340  -118.388000
  H     12.469700   -5.060360  -118.927000
  H     13.413800   -5.359470  -117.533000
  C     11.999300   -6.844590  -118.035000
  H     11.705500   -7.251860  -119.052000
  H     11.133300   -6.468160  -117.658000
  H     12.483500   -7.685450  -117.522000
  H     19.270800   -7.564530  -115.401000
  H     16.241900   -2.685150  -121.077000

 Total Charge           Charge          ....    0
 Multiplicity           Mult            ....    1
 Number of Electrons    NEL             ....  134
 Basis Dimension        Dim             ....  322

ORBITAL ENERGIES
----------------

  NO   OCC          E(Eh)            E(eV)
   0   2.0000     -88.970788     -2421.0182
   1   2.0000     -88.959496     -2420.7110
   2   2.0000     -10.332571      -281.1635
   3   2.0000     -10.327510      -281.0258
   4   2.0000     -10.313538      -280.6456
   5   2.0000     -10.304079      -280.3882
   6   2.0000     -10.304076      -280.3882
   7   2.0000     -10.301364      -280.3144
   8   2.0000     -10.300838      -280.3001
   9   2.0000     -10.289091      -279.9804
  10   2.0000     -10.287885      -279.9476
  11   2.0000     -10.287728      -279.9433
  12   2.0000     -10.286908      -279.9210
  13   2.0000     -10.285549      -279.8840
  14   2.0000     -10.282513      -279.8014
  15   2.0000     -10.274741      -279.5899
  16   2.0000      -8.085827      -220.0265
  17   2.0000      -8.074240      -219.7112
  18   2.0000      -6.044182      -164.4705
  19   2.0000      -6.040239      -164.3633
  20   2.0000      -6.036790      -164.2694
  21   2.0000      -6.032865      -164.1626
  22   2.0000      -6.028736      -164.0502
  23   2.0000      -6.024870      -163.9451
  24   2.0000      -1.007043       -27.4030
  25   2.0000      -0.986159       -26.8348
  26   2.0000      -0.912372       -24.8269
  27   2.0000      -0.908322       -24.7167
  28   2.0000      -0.871373       -23.7113
  29   2.0000      -0.854791       -23.2600
  30   2.0000      -0.848568       -23.0907
  31   2.0000      -0.815002       -22.1773
  32   2.0000      -0.782128       -21.2828
  33   2.0000      -0.771050       -20.9813
  34   2.0000      -0.709258       -19.2999
  35   2.0000      -0.705756       -19.2046
  36   2.0000      -0.699316       -19.0294
  37   2.0000      -0.660416       -17.9708
  38   2.0000      -0.643213       -17.5027
  39   2.0000      -0.622801       -16.9473
  40   2.0000      -0.603242       -16.4151
  41   2.0000      -0.570458       -15.5230
  42   2.0000      -0.567238       -15.4353
  43   2.0000      -0.552953       -15.0466
  44   2.0000      -0.545422       -14.8417
  45   2.0000      -0.538221       -14.6457
  46   2.0000      -0.521207       -14.1828
  47   2.0000      -0.514048       -13.9879
  48   2.0000      -0.503421       -13.6988
  49   2.0000      -0.496824       -13.5193
  50   2.0000      -0.485818       -13.2198
  51   2.0000      -0.476968       -12.9790
  52   2.0000      -0.471861       -12.8400
  53   2.0000      -0.462440       -12.5836
  54   2.0000      -0.460713       -12.5366
  55   2.0000      -0.451856       -12.2956
  56   2.0000      -0.445437       -12.1209
  57   2.0000      -0.444015       -12.0823
  58   2.0000      -0.430962       -11.7271
  59   2.0000      -0.423586       -11.5263
  60   2.0000      -0.421001       -11.4560
  61   2.0000      -0.416420       -11.3314
  62   2.0000      -0.412268       -11.2184
  63   2.0000      -0.349023        -9.4974
  64   2.0000      -0.332913        -9.0590
  65   2.0000      -0.325029        -8.8445
  66   2.0000      -0.293810        -7.9950
  67   0.0000       0.028465         0.7746
  68   0.0000       0.072801         1.9810
  69   0.0000       0.114304         3.1104
  70   0.0000       0.118523         3.2252
  71   0.0000       0.132337         3.6011

MULLIKEN ATOMIC CHARGES
-----------------------
   0 S :    0.130563
   1 C :   -0.114442
   2 C :   -0.088544
   3 C :    0.022442
   4 C :   -0.170609
   5 H :    0.026199
   6 C :    0.085538
   7 H :    0.006624
   8 H :    0.024609
   9 C :   -0.031486
  10 H :    0.017137
  11 H :    0.030786
  12 C :   -0.101447
  13 H :    0.028863
  14 H :    0.055440
  15 H :    0.028847
  16 S :    0.086949
  17 C :   -0.019767
  18 C :   -0.043443
  19 C :   -0.035817
  20 C :   -0.137482
  21 H :    0.024585
  22 C :    0.084415
  23 H :    0.015369
  24 H :    0.012481
  25 C :   -0.084886
  26 H :    0.023458
  27 H :    0.017126
  28 C :   -0.007528
  29 H :    0.017349
  30 H :    0.021055
  31 H :    0.031639
  32 H :    0.044371
  33 H :   -0.000396
Sum of atomic charges:   -0.0000000

LOEWDIN ATOMIC CHARGES
----------------------
   0 S :    0.426842
   1 C :   -0.197878
   2 C :   -0.063944
   3 C :   -0.058535
   4 C :   -0.201446
   5 H :    0.038495
   6 C :   -0.030873
   7 H :    0.025674
   8 H :    0.031331
   9 C :   -0.032412
  10 H :    0.015550
  11 H :    0.025258
  12 C :   -0.072470
  13 H :    0.026422
  14 H :    0.032993
  15 H :    0.018136
  16 S :    0.389357
  17 C :   -0.161334
  18 C :   -0.070836
  19 C :   -0.058939
  20 C :   -0.189640
  21 H :    0.035620
  22 C :   -0.025320
  23 H :    0.032234
  24 H :    0.021401
  25 C :   -0.025687
  26 H :    0.023209
  27 H :    0.007052
  28 C :   -0.058296
  29 H :    0.031667
  30 H :    0.011515
  31 H :    0.024547
  32 H :    0.024338
  33 H :    0.005968

  Mayer bond orders larger than 0.100000
B(  0-S ,  1-C ) :   1.1558 B(  0-S ,  4-C ) :   1.1654 B(  1-C ,  2-C ) :   1.5881
B(  1-C , 32-H ) :   0.9692 B(  2-C ,  3-C ) :   1.2696 B(  2-C ,  6-C ) :   1.0120
B(  3-C ,  4-C ) :   1.5421 B(  3-C ,  5-H ) :   0.9810 B(  4-C , 20-C ) :   1.0344
B(  6-C ,  7-H ) :   0.9440 B(  6-C ,  8-H ) :   0.9395 B(  6-C ,  9-C ) :   1.0713
B(  9-C , 10-H ) :   0.9568 B(  9-C , 11-H ) :   0.9571 B(  9-C , 12-C ) :   1.0701
B( 12-C , 13-H ) :   0.9751 B( 12-C , 14-H ) :   0.9753 B( 12-C , 15-H ) :   0.9768
B( 16-S , 17-C ) :   1.1341 B( 16-S , 20-C ) :   1.1372 B( 17-C , 18-C ) :   1.6324
B( 17-C , 33-H ) :   0.9817 B( 18-C , 19-C ) :   1.2255 B( 18-C , 21-H ) :   0.9861
B( 19-C , 20-C ) :   1.5906 B( 19-C , 22-C ) :   1.0805 B( 22-C , 23-H ) :   0.9287
B( 22-C , 24-H ) :   0.9285 B( 22-C , 25-C ) :   1.0343 B( 25-C , 26-H ) :   0.9561
B( 25-C , 27-H ) :   0.9589 B( 25-C , 28-C ) :   1.0865 B( 28-C , 29-H ) :   0.9710
B( 28-C , 30-H ) :   0.9736 B( 28-C , 31-H ) :   0.9744

Dispersion correction           -0.014667667
FINAL SINGLE POINT ENERGY     -1339.863235632634

DIPOLE MOMENT
-------------
                                X             Y             Z
Electronic contribution:     18.86755       5.58978     -17.88116
Nuclear contribution   :    -19.46409      -5.65436      18.22878
                        -----------------------------------------
Total Dipole Moment    :     -0.59654      -0.06457       0.34763
                        -----------------------------------------
Magnitude (a.u.)       :      0.69345
Magnitude (Debye)      :      1.76261

Rotational constants in cm-1:     0.017471     0.009170     0.007073
Rotational constants in MHz :   523.782295   274.910561   212.046877

                             ****ORCA TERMINATED NORMALLY****
TOTAL RUN TIME: 0 days 0 hours 0 minutes 21 seconds 917 msec
