                         Program Version 4.2.1 -  RELEASE  -
|  1> ! wB97X-D3 SP def2-SVP
|  2> %pal
|  3> nprocs 24
|  4> end
|  5>
|  6> * xyz 0 1
|  7> S 	 -104.069 	 60.3607 	 -99.6692
|  8> C 	 -103.445 	 59.9041 	 -98.1365
|  9> C 	 -104.463 	 59.2795 	 -97.3919
| 10> C 	 -105.708 	 59.1888 	 -98.0679
| 11> C 	 -105.717 	 59.8033 	 -99.2991
| 12> H 	 -106.622 	 58.8151 	 -97.6395
| 13> C 	 -104.264 	 58.808 	 -95.9881
| 14> H 	 -104.884 	 59.3985 	 -95.363
| 15> H 	 -103.24 	 59.0986 	 -95.659
| 16> C 	 -104.415 	 57.2494 	 -95.8352
| 17> H 	 -105.332 	 56.8706 	 -96.2826
| 18> H 	 -103.595 	 56.7693 	 -96.297
| 19> C 	 -104.441 	 57.047 	 -94.3132
| 20> H 	 -103.606 	 57.4269 	 -93.7682
| 21> H 	 -105.272 	 57.5232 	 -93.822
| 22> H 	 -104.375 	 55.9492 	 -94.2367
| 23> S 	 -108.343 	 59.6517 	 -99.741
| 24> C 	 -109.109 	 60.3266 	 -101.132
| 25> C 	 -108.159 	 60.9913 	 -101.831
| 26> C 	 -106.774 	 60.9027 	 -101.349
| 27> C 	 -106.749 	 60.0644 	 -100.265
| 28> H 	 -108.48 	 61.5739 	 -102.69
| 29> C 	 -105.614 	 61.6261 	 -102.065
| 30> H 	 -104.898 	 60.8553 	 -102.335
| 31> H 	 -105.128 	 62.2977 	 -101.396
| 32> C 	 -105.886 	 62.4401 	 -103.367
| 33> H 	 -106.363 	 63.3968 	 -103.171
| 34> H 	 -106.63 	 61.8418 	 -103.885
| 35> C 	 -104.748 	 62.5584 	 -104.338
| 36> H 	 -104.232 	 61.5969 	 -104.471
| 37> H 	 -103.86 	 63.1724 	 -104.131
| 38> H 	 -105.234 	 62.9987 	 -105.248
| 39> H 	 -102.48 	 60.085 	 -97.6768
| 40> H 	 -110.135 	 60.175 	 -101.545
| 41> *
| 42>
| 43>                          ****END OF INPUT****

CARTESIAN COORDINATES (ANGSTROEM)
---------------------------------
  S    -104.069000   60.360700  -99.669200
  C    -103.445000   59.904100  -98.136500
  C    -104.463000   59.279500  -97.391900
  C    -105.708000   59.188800  -98.067900
  C    -105.717000   59.803300  -99.299100
  H    -106.622000   58.815100  -97.639500
  C    -104.264000   58.808000  -95.988100
  H    -104.884000   59.398500  -95.363000
  H    -103.240000   59.098600  -95.659000
  C    -104.415000   57.249400  -95.835200
  H    -105.332000   56.870600  -96.282600
  H    -103.595000   56.769300  -96.297000
  C    -104.441000   57.047000  -94.313200
  H    -103.606000   57.426900  -93.768200
  H    -105.272000   57.523200  -93.822000
  H    -104.375000   55.949200  -94.236700
  S    -108.343000   59.651700  -99.741000
  C    -109.109000   60.326600  -101.132000
  C    -108.159000   60.991300  -101.831000
  C    -106.774000   60.902700  -101.349000
  C    -106.749000   60.064400  -100.265000
  H    -108.480000   61.573900  -102.690000
  C    -105.614000   61.626100  -102.065000
  H    -104.898000   60.855300  -102.335000
  H    -105.128000   62.297700  -101.396000
  C    -105.886000   62.440100  -103.367000
  H    -106.363000   63.396800  -103.171000
  H    -106.630000   61.841800  -103.885000
  C    -104.748000   62.558400  -104.338000
  H    -104.232000   61.596900  -104.471000
  H    -103.860000   63.172400  -104.131000
  H    -105.234000   62.998700  -105.248000
  H    -102.480000   60.085000  -97.676800
  H    -110.135000   60.175000  -101.545000

 Total Charge           Charge          ....    0
 Multiplicity           Mult            ....    1
 Number of Electrons    NEL             ....  134
 Basis Dimension        Dim             ....  322

ORBITAL ENERGIES
----------------

  NO   OCC          E(Eh)            E(eV)
   0   2.0000     -88.963814     -2420.8285
   1   2.0000     -88.961553     -2420.7669
   2   2.0000     -10.330945      -281.1193
   3   2.0000     -10.326393      -280.9954
   4   2.0000     -10.316346      -280.7220
   5   2.0000     -10.309409      -280.5333
   6   2.0000     -10.309030      -280.5230
   7   2.0000     -10.295524      -280.1555
   8   2.0000     -10.292591      -280.0756
   9   2.0000     -10.292270      -280.0669
  10   2.0000     -10.290417      -280.0165
  11   2.0000     -10.287278      -279.9311
  12   2.0000     -10.287120      -279.9268
  13   2.0000     -10.285520      -279.8832
  14   2.0000     -10.283100      -279.8174
  15   2.0000     -10.273293      -279.5505
  16   2.0000      -8.077868      -219.8100
  17   2.0000      -8.077416      -219.7977
  18   2.0000      -6.036504      -164.2616
  19   2.0000      -6.036205      -164.2535
  20   2.0000      -6.032252      -164.1459
  21   2.0000      -6.031764      -164.1326
  22   2.0000      -6.028762      -164.0510
  23   2.0000      -6.027828      -164.0255
  24   2.0000      -1.013244       -27.5718
  25   2.0000      -0.986077       -26.8325
  26   2.0000      -0.911784       -24.8109
  27   2.0000      -0.909097       -24.7378
  28   2.0000      -0.875846       -23.8330
  29   2.0000      -0.855922       -23.2908
  30   2.0000      -0.844092       -22.9689
  31   2.0000      -0.816890       -22.2287
  32   2.0000      -0.783727       -21.3263
  33   2.0000      -0.765336       -20.8259
  34   2.0000      -0.712977       -19.4011
  35   2.0000      -0.707183       -19.2434
  36   2.0000      -0.693968       -18.8838
  37   2.0000      -0.662149       -18.0180
  38   2.0000      -0.629304       -17.1242
  39   2.0000      -0.620579       -16.8868
  40   2.0000      -0.599294       -16.3076
  41   2.0000      -0.572225       -15.5710
  42   2.0000      -0.568172       -15.4607
  43   2.0000      -0.560861       -15.2618
  44   2.0000      -0.531985       -14.4760
  45   2.0000      -0.530689       -14.4408
  46   2.0000      -0.518559       -14.1107
  47   2.0000      -0.513794       -13.9810
  48   2.0000      -0.505998       -13.7689
  49   2.0000      -0.499745       -13.5988
  50   2.0000      -0.485437       -13.2094
  51   2.0000      -0.481053       -13.0901
  52   2.0000      -0.479713       -13.0536
  53   2.0000      -0.469943       -12.7878
  54   2.0000      -0.456946       -12.4341
  55   2.0000      -0.452835       -12.3223
  56   2.0000      -0.452413       -12.3108
  57   2.0000      -0.443166       -12.0592
  58   2.0000      -0.431740       -11.7482
  59   2.0000      -0.425239       -11.5713
  60   2.0000      -0.414717       -11.2850
  61   2.0000      -0.408363       -11.1121
  62   2.0000      -0.393081       -10.6963
  63   2.0000      -0.367989       -10.0135
  64   2.0000      -0.327663        -8.9162
  65   2.0000      -0.326625        -8.8879
  66   2.0000      -0.280651        -7.6369
  67   0.0000       0.021564         0.5868
  68   0.0000       0.091042         2.4774
  69   0.0000       0.120806         3.2873
  70   0.0000       0.124673         3.3925
  71   0.0000       0.134026         3.6470

MULLIKEN ATOMIC CHARGES
-----------------------
   0 S :    0.068863
   1 C :   -0.079298
   2 C :   -0.117424
   3 C :    0.017570
   4 C :   -0.136107
   5 H :    0.013661
   6 C :    0.050577
   7 H :    0.024322
   8 H :    0.007652
   9 C :   -0.060966
  10 H :    0.039254
  11 H :    0.028178
  12 C :   -0.026078
  13 H :    0.016049
  14 H :    0.030030
  15 H :    0.031878
  16 S :    0.070867
  17 C :   -0.077585
  18 C :   -0.062282
  19 C :   -0.085725
  20 C :   -0.073521
  21 H :    0.018788
  22 C :    0.061724
  23 H :    0.036417
  24 H :    0.038038
  25 C :   -0.062074
  26 H :    0.035472
  27 H :    0.027899
  28 C :   -0.063712
  29 H :    0.031485
  30 H :    0.032123
  31 H :    0.045788
  32 H :    0.042951
  33 H :    0.075187
Sum of atomic charges:    0.0000000

LOEWDIN ATOMIC CHARGES
----------------------
   0 S :    0.422274
   1 C :   -0.220984
   2 C :   -0.062296
   3 C :   -0.077143
   4 C :   -0.170090
   5 H :    0.026033
   6 C :   -0.030601
   7 H :    0.024416
   8 H :    0.029566
   9 C :   -0.023929
  10 H :    0.025078
  11 H :    0.022002
  12 C :   -0.063223
  13 H :    0.019321
  14 H :    0.024026
  15 H :    0.028174
  16 S :    0.417224
  17 C :   -0.203402
  18 C :   -0.076210
  19 C :   -0.056474
  20 C :   -0.198603
  21 H :    0.027829
  22 C :   -0.040764
  23 H :    0.028688
  24 H :    0.023553
  25 C :   -0.043043
  26 H :    0.024616
  27 H :    0.024626
  28 C :   -0.071072
  29 H :    0.027927
  30 H :    0.023983
  31 H :    0.038067
  32 H :    0.031838
  33 H :    0.048590

  Mayer bond orders larger than 0.100000
B(  0-S ,  1-C ) :   1.1336 B(  0-S ,  4-C ) :   1.1445 B(  1-C ,  2-C ) :   1.5985
B(  1-C , 32-H ) :   0.9638 B(  2-C ,  3-C ) :   1.2632 B(  2-C ,  6-C ) :   1.0289
B(  3-C ,  4-C ) :   1.5545 B(  3-C ,  5-H ) :   0.9815 B(  4-C , 20-C ) :   1.0940
B(  6-C ,  7-H ) :   0.9459 B(  6-C ,  8-H ) :   0.9398 B(  6-C ,  9-C ) :   1.0493
B(  9-C , 10-H ) :   0.9628 B(  9-C , 11-H ) :   0.9562 B(  9-C , 12-C ) :   1.0750
B( 12-C , 13-H ) :   0.9720 B( 12-C , 14-H ) :   0.9773 B( 12-C , 15-H ) :   0.9740
B( 16-S , 17-C ) :   1.1333 B( 16-S , 20-C ) :   1.1393 B( 17-C , 18-C ) :   1.6415
B( 17-C , 33-H ) :   0.9570 B( 18-C , 19-C ) :   1.2333 B( 18-C , 21-H ) :   0.9808
B( 19-C , 20-C ) :   1.5841 B( 19-C , 22-C ) :   1.0203 B( 22-C , 23-H ) :   0.9372
B( 22-C , 24-H ) :   0.9203 B( 22-C , 25-C ) :   1.0739 B( 25-C , 26-H ) :   0.9505
B( 25-C , 27-H ) :   0.9477 B( 25-C , 28-C ) :   1.0855 B( 28-C , 29-H ) :   0.9705
B( 28-C , 30-H ) :   0.9758 B( 28-C , 31-H ) :   0.9724

Dispersion correction           -0.013031781
FINAL SINGLE POINT ENERGY     -1339.868339163346

DIPOLE MOMENT
-------------
                                X             Y             Z
Electronic contribution:     -9.07874       0.47112      -2.41022
Nuclear contribution   :      9.12827      -0.31521       2.40552
                        -----------------------------------------
Total Dipole Moment    :      0.04953       0.15592      -0.00470
                        -----------------------------------------
Magnitude (a.u.)       :      0.16366
Magnitude (Debye)      :      0.41600

Rotational constants in cm-1:     0.024703     0.007140     0.005638
Rotational constants in MHz :   740.563760   214.051783   169.029038

                             ****ORCA TERMINATED NORMALLY****
TOTAL RUN TIME: 0 days 0 hours 0 minutes 19 seconds 570 msec
