                         Program Version 4.2.1 -  RELEASE  -
|  1> ! wB97X-D3 SP def2-SVP
|  2> %pal
|  3> nprocs 24
|  4> end
|  5>
|  6> * xyz 0 1
|  7> S 	 -147.964 	 7.49582 	 7.89443
|  8> C 	 -147.419 	 5.94294 	 8.49947
|  9> C 	 -148.419 	 5.01581 	 8.51299
| 10> C 	 -149.654 	 5.58622 	 7.95218
| 11> C 	 -149.506 	 6.85786 	 7.48397
| 12> H 	 -150.605 	 5.08763 	 7.83788
| 13> C 	 -148.426 	 3.66513 	 9.19721
| 14> H 	 -149.289 	 3.16485 	 8.79762
| 15> H 	 -148.612 	 3.80302 	 10.2268
| 16> C 	 -147.125 	 2.79282 	 8.9135
| 17> H 	 -147.019 	 2.74354 	 7.81745
| 18> H 	 -146.292 	 3.34585 	 9.1205
| 19> C 	 -147.078 	 1.37274 	 9.55869
| 20> H 	 -147.385 	 1.41613 	 10.6008
| 21> H 	 -147.723 	 0.686367 	 9.09196
| 22> H 	 -146.142 	 0.776409 	 9.53011
| 23> S 	 -152.06 	 7.88713 	 7.15628
| 24> C 	 -152.636 	 8.38903 	 5.6164
| 25> C 	 -151.636 	 8.23745 	 4.64536
| 26> C 	 -150.369 	 7.82446 	 5.21227
| 27> C 	 -150.503 	 7.48355 	 6.5429
| 28> H 	 -151.749 	 8.66427 	 3.64192
| 29> C 	 -149.068 	 7.64628 	 4.50065
| 30> H 	 -149.302 	 7.21444 	 3.55946
| 31> H 	 -148.514 	 6.95011 	 5.08329
| 32> C 	 -148.289 	 8.96438 	 4.50776
| 33> H 	 -148.217 	 9.34449 	 5.50314
| 34> H 	 -148.868 	 9.73284 	 4.01955
| 35> C 	 -146.913 	 8.83976 	 3.88771
| 36> H 	 -146.296 	 8.19053 	 4.46484
| 37> H 	 -146.493 	 9.86512 	 3.93811
| 38> H 	 -146.945 	 8.54006 	 2.8947
| 39> H 	 -146.402 	 5.78601 	 8.95196
| 40> H 	 -153.605 	 8.92962 	 5.44564
| 41> *
| 42>
| 43>                          ****END OF INPUT****

CARTESIAN COORDINATES (ANGSTROEM)
---------------------------------
  S    -147.964000    7.495820    7.894430
  C    -147.419000    5.942940    8.499470
  C    -148.419000    5.015810    8.512990
  C    -149.654000    5.586220    7.952180
  C    -149.506000    6.857860    7.483970
  H    -150.605000    5.087630    7.837880
  C    -148.426000    3.665130    9.197210
  H    -149.289000    3.164850    8.797620
  H    -148.612000    3.803020   10.226800
  C    -147.125000    2.792820    8.913500
  H    -147.019000    2.743540    7.817450
  H    -146.292000    3.345850    9.120500
  C    -147.078000    1.372740    9.558690
  H    -147.385000    1.416130   10.600800
  H    -147.723000    0.686367    9.091960
  H    -146.142000    0.776409    9.530110
  S    -152.060000    7.887130    7.156280
  C    -152.636000    8.389030    5.616400
  C    -151.636000    8.237450    4.645360
  C    -150.369000    7.824460    5.212270
  C    -150.503000    7.483550    6.542900
  H    -151.749000    8.664270    3.641920
  C    -149.068000    7.646280    4.500650
  H    -149.302000    7.214440    3.559460
  H    -148.514000    6.950110    5.083290
  C    -148.289000    8.964380    4.507760
  H    -148.217000    9.344490    5.503140
  H    -148.868000    9.732840    4.019550
  C    -146.913000    8.839760    3.887710
  H    -146.296000    8.190530    4.464840
  H    -146.493000    9.865120    3.938110
  H    -146.945000    8.540060    2.894700
  H    -146.402000    5.786010    8.951960
  H    -153.605000    8.929620    5.445640

 Total Charge           Charge          ....    0
 Multiplicity           Mult            ....    1
 Number of Electrons    NEL             ....  134
 Basis Dimension        Dim             ....  322

ORBITAL ENERGIES
----------------

  NO   OCC          E(Eh)            E(eV)
   0   2.0000     -88.968299     -2420.9505
   1   2.0000     -88.963994     -2420.8333
   2   2.0000     -10.328192      -281.0444
   3   2.0000     -10.322156      -280.8801
   4   2.0000     -10.320256      -280.8284
   5   2.0000     -10.318509      -280.7809
   6   2.0000     -10.304809      -280.4081
   7   2.0000     -10.297731      -280.2155
   8   2.0000     -10.296956      -280.1944
   9   2.0000     -10.294019      -280.1145
  10   2.0000     -10.293182      -280.0917
  11   2.0000     -10.289219      -279.9839
  12   2.0000     -10.279864      -279.7293
  13   2.0000     -10.277424      -279.6629
  14   2.0000     -10.274838      -279.5926
  15   2.0000     -10.265317      -279.3335
  16   2.0000      -8.083051      -219.9510
  17   2.0000      -8.079572      -219.8563
  18   2.0000      -6.041596      -164.4002
  19   2.0000      -6.037907      -164.2998
  20   2.0000      -6.037563      -164.2904
  21   2.0000      -6.033839      -164.1891
  22   2.0000      -6.033770      -164.1872
  23   2.0000      -6.030610      -164.1012
  24   2.0000      -1.009446       -27.4684
  25   2.0000      -0.988107       -26.8878
  26   2.0000      -0.913622       -24.8609
  27   2.0000      -0.906234       -24.6599
  28   2.0000      -0.863916       -23.5083
  29   2.0000      -0.851614       -23.1736
  30   2.0000      -0.848355       -23.0849
  31   2.0000      -0.812917       -22.1206
  32   2.0000      -0.784097       -21.3364
  33   2.0000      -0.772586       -21.0231
  34   2.0000      -0.720920       -19.6172
  35   2.0000      -0.701550       -19.0901
  36   2.0000      -0.687042       -18.6954
  37   2.0000      -0.660696       -17.9784
  38   2.0000      -0.641769       -17.4634
  39   2.0000      -0.610759       -16.6196
  40   2.0000      -0.591961       -16.1081
  41   2.0000      -0.567750       -15.4493
  42   2.0000      -0.566125       -15.4050
  43   2.0000      -0.559236       -15.2176
  44   2.0000      -0.528771       -14.3886
  45   2.0000      -0.521035       -14.1781
  46   2.0000      -0.516638       -14.0584
  47   2.0000      -0.510451       -13.8901
  48   2.0000      -0.506801       -13.7908
  49   2.0000      -0.500836       -13.6285
  50   2.0000      -0.498148       -13.5553
  51   2.0000      -0.477348       -12.9893
  52   2.0000      -0.471899       -12.8410
  53   2.0000      -0.465025       -12.6540
  54   2.0000      -0.462223       -12.5777
  55   2.0000      -0.453674       -12.3451
  56   2.0000      -0.444849       -12.1050
  57   2.0000      -0.436613       -11.8808
  58   2.0000      -0.431964       -11.7543
  59   2.0000      -0.428984       -11.6732
  60   2.0000      -0.422680       -11.5017
  61   2.0000      -0.419708       -11.4208
  62   2.0000      -0.411814       -11.2060
  63   2.0000      -0.342035        -9.3072
  64   2.0000      -0.331244        -9.0136
  65   2.0000      -0.325509        -8.8575
  66   2.0000      -0.301779        -8.2118
  67   0.0000       0.042944         1.1686
  68   0.0000       0.067487         1.8364
  69   0.0000       0.111021         3.0210
  70   0.0000       0.123498         3.3606
  71   0.0000       0.130669         3.5557

MULLIKEN ATOMIC CHARGES
-----------------------
   0 S :    0.111068
   1 C :   -0.162510
   2 C :   -0.091452
   3 C :    0.031791
   4 C :   -0.150892
   5 H :    0.016660
   6 C :    0.100244
   7 H :    0.016721
   8 H :    0.039240
   9 C :   -0.064322
  10 H :    0.027143
  11 H :    0.004130
  12 C :   -0.035397
  13 H :    0.028839
  14 H :    0.018042
  15 H :    0.036117
  16 S :    0.118505
  17 C :   -0.122406
  18 C :   -0.032797
  19 C :   -0.074826
  20 C :   -0.179646
  21 H :    0.026541
  22 C :    0.122789
  23 H :    0.014288
  24 H :    0.015525
  25 C :   -0.081282
  26 H :    0.011380
  27 H :    0.011625
  28 C :    0.020993
  29 H :    0.022772
  30 H :    0.030446
  31 H :    0.015994
  32 H :    0.073269
  33 H :    0.081408
Sum of atomic charges:   -0.0000000

LOEWDIN ATOMIC CHARGES
----------------------
   0 S :    0.417793
   1 C :   -0.204467
   2 C :   -0.061896
   3 C :   -0.059058
   4 C :   -0.206727
   5 H :    0.030271
   6 C :   -0.019611
   7 H :    0.028006
   8 H :    0.028694
   9 C :   -0.033001
  10 H :    0.030086
  11 H :    0.007237
  12 C :   -0.069748
  13 H :    0.025665
  14 H :    0.018951
  15 H :    0.033766
  16 S :    0.431254
  17 C :   -0.208680
  18 C :   -0.078746
  19 C :   -0.052940
  20 C :   -0.211085
  21 H :    0.032911
  22 C :   -0.024559
  23 H :    0.025692
  24 H :    0.023790
  25 C :   -0.034785
  26 H :    0.015298
  27 H :    0.018865
  28 C :   -0.052753
  29 H :    0.020879
  30 H :    0.032541
  31 H :    0.014465
  32 H :    0.039211
  33 H :    0.042681

  Mayer bond orders larger than 0.100000
B(  0-S ,  1-C ) :   1.1260 B(  0-S ,  4-C ) :   1.1502 B(  1-C ,  2-C ) :   1.6347
B(  1-C , 32-H ) :   0.9615 B(  2-C ,  3-C ) :   1.2228 B(  2-C ,  6-C ) :   1.0166
B(  3-C ,  4-C ) :   1.6126 B(  3-C ,  5-H ) :   0.9898 B(  4-C , 20-C ) :   0.9692
B(  6-C ,  7-H ) :   0.9410 B(  6-C ,  8-H ) :   0.9380 B(  6-C ,  9-C ) :   1.0503
B(  9-C , 10-H ) :   0.9593 B(  9-C , 11-H ) :   0.9614 B(  9-C , 12-C ) :   1.0701
B( 12-C , 13-H ) :   0.9765 B( 12-C , 14-H ) :   0.9764 B( 12-C , 15-H ) :   0.9755
B( 16-S , 17-C ) :   1.1752 B( 16-S , 20-C ) :   1.1613 B( 17-C , 18-C ) :   1.5795
B( 17-C , 33-H ) :   0.9618 B( 18-C , 19-C ) :   1.2602 B( 18-C , 21-H ) :   0.9835
B( 19-C , 20-C ) :   1.5945 B( 19-C , 22-C ) :   1.0490 B( 22-C , 23-H ) :   0.9302
B( 22-C , 24-H ) :   0.9240 B( 22-C , 25-C ) :   1.0623 B( 25-C , 26-H ) :   0.9470
B( 25-C , 27-H ) :   0.9553 B( 25-C , 28-C ) :   1.0924 B( 28-C , 29-H ) :   0.9714
B( 28-C , 30-H ) :   0.9712 B( 28-C , 31-H ) :   0.9721

Dispersion correction           -0.014452524
FINAL SINGLE POINT ENERGY     -1339.877680809929

DIPOLE MOMENT
-------------
                                X             Y             Z
Electronic contribution:    -16.00307      14.08220       4.56128
Nuclear contribution   :     16.17675     -14.38648      -4.66273
                        -----------------------------------------
Total Dipole Moment    :      0.17367      -0.30428      -0.10146
                        -----------------------------------------
Magnitude (a.u.)       :      0.36475
Magnitude (Debye)      :      0.92712

Rotational constants in cm-1:     0.020399     0.007709     0.006340
Rotational constants in MHz :   611.558970   231.103648   190.082531

                             ****ORCA TERMINATED NORMALLY****
TOTAL RUN TIME: 0 days 0 hours 0 minutes 21 seconds 222 msec
