                         Program Version 4.2.1 -  RELEASE  -
|  1> ! wB97X-D3 SP def2-SVP
|  2> %pal
|  3> nprocs 24
|  4> end
|  5>
|  6> * xyz 0 1
|  7> S 	 -112.462 	 62.7976 	 -71.6255
|  8> C 	 -111.061 	 63.7777 	 -71.4216
|  9> C 	 -111.382 	 65.0082 	 -70.8364
| 10> C 	 -112.715 	 65.2695 	 -70.9557
| 11> C 	 -113.5 	 64.2117 	 -71.392
| 12> H 	 -113.217 	 66.1488 	 -70.6043
| 13> C 	 -110.367 	 65.9256 	 -70.2489
| 14> H 	 -109.559 	 65.3054 	 -70.0237
| 15> H 	 -110.811 	 66.2474 	 -69.2365
| 16> C 	 -109.903 	 67.1441 	 -70.9762
| 17> H 	 -109.046 	 67.3919 	 -70.425
| 18> H 	 -109.482 	 66.9669 	 -72.0189
| 19> C 	 -110.96 	 68.2097 	 -71.1351
| 20> H 	 -110.492 	 68.9194 	 -71.8816
| 21> H 	 -111.809 	 67.8396 	 -71.7328
| 22> H 	 -111.325 	 68.7025 	 -70.2761
| 23> S 	 -115.804 	 62.9145 	 -70.5296
| 24> C 	 -117.369 	 63.6586 	 -70.7794
| 25> C 	 -117.221 	 64.8151 	 -71.4362
| 26> C 	 -115.898 	 65.1033 	 -71.7816
| 27> C 	 -114.969 	 64.1475 	 -71.4512
| 28> H 	 -118.127 	 65.372 	 -71.6963
| 29> C 	 -115.578 	 66.3027 	 -72.6216
| 30> H 	 -115.075 	 67.1045 	 -72.0217
| 31> H 	 -116.548 	 66.6507 	 -72.9623
| 32> C 	 -114.802 	 66.0754 	 -73.9499
| 33> H 	 -113.796 	 65.6308 	 -73.8717
| 34> H 	 -114.618 	 67.0495 	 -74.4761
| 35> C 	 -115.532 	 65.2897 	 -75.0184
| 36> H 	 -115.532 	 64.2774 	 -74.8147
| 37> H 	 -115.11 	 65.4265 	 -75.9717
| 38> H 	 -116.579 	 65.4677 	 -74.9872
| 39> H 	 -110.116 	 63.3077 	 -71.3465
| 40> H 	 -118.211 	 63.2693 	 -70.315
| 41> *
| 42>
| 43>                          ****END OF INPUT****

CARTESIAN COORDINATES (ANGSTROEM)
---------------------------------
  S    -112.462000   62.797600  -71.625500
  C    -111.061000   63.777700  -71.421600
  C    -111.382000   65.008200  -70.836400
  C    -112.715000   65.269500  -70.955700
  C    -113.500000   64.211700  -71.392000
  H    -113.217000   66.148800  -70.604300
  C    -110.367000   65.925600  -70.248900
  H    -109.559000   65.305400  -70.023700
  H    -110.811000   66.247400  -69.236500
  C    -109.903000   67.144100  -70.976200
  H    -109.046000   67.391900  -70.425000
  H    -109.482000   66.966900  -72.018900
  C    -110.960000   68.209700  -71.135100
  H    -110.492000   68.919400  -71.881600
  H    -111.809000   67.839600  -71.732800
  H    -111.325000   68.702500  -70.276100
  S    -115.804000   62.914500  -70.529600
  C    -117.369000   63.658600  -70.779400
  C    -117.221000   64.815100  -71.436200
  C    -115.898000   65.103300  -71.781600
  C    -114.969000   64.147500  -71.451200
  H    -118.127000   65.372000  -71.696300
  C    -115.578000   66.302700  -72.621600
  H    -115.075000   67.104500  -72.021700
  H    -116.548000   66.650700  -72.962300
  C    -114.802000   66.075400  -73.949900
  H    -113.796000   65.630800  -73.871700
  H    -114.618000   67.049500  -74.476100
  C    -115.532000   65.289700  -75.018400
  H    -115.532000   64.277400  -74.814700
  H    -115.110000   65.426500  -75.971700
  H    -116.579000   65.467700  -74.987200
  H    -110.116000   63.307700  -71.346500
  H    -118.211000   63.269300  -70.315000

 Total Charge           Charge          ....    0
 Multiplicity           Mult            ....    1
 Number of Electrons    NEL             ....  134
 Basis Dimension        Dim             ....  322

ORBITAL ENERGIES
----------------

  NO   OCC          E(Eh)            E(eV)
   0   2.0000     -88.967318     -2420.9238
   1   2.0000     -88.960067     -2420.7265
   2   2.0000     -10.331659      -281.1387
   3   2.0000     -10.325400      -280.9684
   4   2.0000     -10.310163      -280.5538
   5   2.0000     -10.308799      -280.5167
   6   2.0000     -10.295886      -280.1653
   7   2.0000     -10.294407      -280.1251
   8   2.0000     -10.292222      -280.0656
   9   2.0000     -10.289472      -279.9908
  10   2.0000     -10.288383      -279.9611
  11   2.0000     -10.287242      -279.9301
  12   2.0000     -10.285663      -279.8871
  13   2.0000     -10.282197      -279.7928
  14   2.0000     -10.279185      -279.7108
  15   2.0000     -10.254474      -279.0384
  16   2.0000      -8.082147      -219.9264
  17   2.0000      -8.075380      -219.7423
  18   2.0000      -6.040440      -164.3687
  19   2.0000      -6.036719      -164.2675
  20   2.0000      -6.033832      -164.1889
  21   2.0000      -6.033071      -164.1682
  22   2.0000      -6.029735      -164.0774
  23   2.0000      -6.026230      -163.9821
  24   2.0000      -1.012699       -27.5569
  25   2.0000      -0.993972       -27.0473
  26   2.0000      -0.921021       -25.0623
  27   2.0000      -0.906046       -24.6548
  28   2.0000      -0.873714       -23.7750
  29   2.0000      -0.855756       -23.2863
  30   2.0000      -0.849617       -23.1192
  31   2.0000      -0.822108       -22.3707
  32   2.0000      -0.786792       -21.4097
  33   2.0000      -0.774307       -21.0700
  34   2.0000      -0.710956       -19.3461
  35   2.0000      -0.704199       -19.1622
  36   2.0000      -0.689445       -18.7607
  37   2.0000      -0.666317       -18.1314
  38   2.0000      -0.645370       -17.5614
  39   2.0000      -0.622559       -16.9407
  40   2.0000      -0.592430       -16.1208
  41   2.0000      -0.578744       -15.7484
  42   2.0000      -0.557064       -15.1585
  43   2.0000      -0.552279       -15.0283
  44   2.0000      -0.549969       -14.9654
  45   2.0000      -0.541001       -14.7214
  46   2.0000      -0.525054       -14.2875
  47   2.0000      -0.507654       -13.8140
  48   2.0000      -0.503953       -13.7133
  49   2.0000      -0.499761       -13.5992
  50   2.0000      -0.489011       -13.3067
  51   2.0000      -0.484985       -13.1971
  52   2.0000      -0.480322       -13.0702
  53   2.0000      -0.465768       -12.6742
  54   2.0000      -0.458763       -12.4836
  55   2.0000      -0.444621       -12.0987
  56   2.0000      -0.441140       -12.0040
  57   2.0000      -0.434594       -11.8259
  58   2.0000      -0.430825       -11.7234
  59   2.0000      -0.425444       -11.5769
  60   2.0000      -0.421122       -11.4593
  61   2.0000      -0.410932       -11.1820
  62   2.0000      -0.402064       -10.9407
  63   2.0000      -0.354562        -9.6481
  64   2.0000      -0.335907        -9.1405
  65   2.0000      -0.328823        -8.9477
  66   2.0000      -0.287512        -7.8236
  67   0.0000       0.023611         0.6425
  68   0.0000       0.068318         1.8590
  69   0.0000       0.109131         2.9696
  70   0.0000       0.127527         3.4702
  71   0.0000       0.129348         3.5197

MULLIKEN ATOMIC CHARGES
-----------------------
   0 S :    0.110458
   1 C :   -0.098172
   2 C :   -0.106227
   3 C :    0.034821
   4 C :   -0.166582
   5 H :    0.000333
   6 C :    0.072711
   7 H :   -0.003089
   8 H :    0.036238
   9 C :   -0.031621
  10 H :    0.017885
  11 H :    0.028945
  12 C :   -0.056332
  13 H :    0.034767
  14 H :    0.036762
  15 H :    0.032010
  16 S :    0.078515
  17 C :   -0.067911
  18 C :   -0.027257
  19 C :   -0.065453
  20 C :   -0.092705
  21 H :    0.025327
  22 C :    0.064768
  23 H :    0.046349
  24 H :    0.009056
  25 C :   -0.103692
  26 H :    0.045076
  27 H :    0.025810
  28 C :    0.007588
  29 H :    0.010955
  30 H :    0.025939
  31 H :    0.000776
  32 H :    0.039199
  33 H :    0.034754
Sum of atomic charges:   -0.0000000

LOEWDIN ATOMIC CHARGES
----------------------
   0 S :    0.416673
   1 C :   -0.200401
   2 C :   -0.064641
   3 C :   -0.060685
   4 C :   -0.186112
   5 H :    0.028567
   6 C :   -0.032913
   7 H :    0.021357
   8 H :    0.043503
   9 C :   -0.041345
  10 H :    0.020283
  11 H :    0.033953
  12 C :   -0.068544
  13 H :    0.036788
  14 H :    0.030073
  15 H :    0.016955
  16 S :    0.398631
  17 C :   -0.163402
  18 C :   -0.076757
  19 C :   -0.071024
  20 C :   -0.194493
  21 H :    0.038517
  22 C :   -0.031823
  23 H :    0.035398
  24 H :    0.027680
  25 C :   -0.043951
  26 H :    0.026360
  27 H :    0.027687
  28 C :   -0.057895
  29 H :    0.016845
  30 H :    0.022788
  31 H :    0.018474
  32 H :    0.016480
  33 H :    0.016972

  Mayer bond orders larger than 0.100000
B(  0-S ,  1-C ) :   1.1691 B(  0-S ,  4-C ) :   1.1675 B(  1-C ,  2-C ) :   1.5517
B(  1-C ,  4-C ) :   0.1169 B(  1-C , 32-H ) :   0.9669 B(  2-C ,  3-C ) :   1.3009
B(  2-C ,  6-C ) :   1.0298 B(  3-C ,  4-C ) :   1.5272 B(  3-C ,  5-H ) :   0.9952
B(  4-C , 20-C ) :   1.0334 B(  6-C ,  7-H ) :   0.9260 B(  6-C ,  8-H ) :   0.9318
B(  6-C ,  9-C ) :   1.0829 B(  9-C , 10-H ) :   0.9497 B(  9-C , 11-H ) :   0.9506
B(  9-C , 12-C ) :   1.0819 B( 12-C , 13-H ) :   0.9715 B( 12-C , 14-H ) :   0.9671
B( 12-C , 15-H ) :   0.9767 B( 16-S , 17-C ) :   1.1653 B( 16-S , 20-C ) :   1.1370
B( 17-C , 18-C ) :   1.5914 B( 17-C , 33-H ) :   0.9772 B( 18-C , 19-C ) :   1.2576
B( 18-C , 21-H ) :   0.9929 B( 19-C , 20-C ) :   1.5899 B( 19-C , 22-C ) :   1.0390
B( 22-C , 23-H ) :   0.9282 B( 22-C , 24-H ) :   0.9391 B( 22-C , 25-C ) :   1.0756
B( 25-C , 26-H ) :   0.9526 B( 25-C , 27-H ) :   0.9592 B( 25-C , 28-C ) :   1.0800
B( 28-C , 29-H ) :   0.9688 B( 28-C , 30-H ) :   0.9740 B( 28-C , 31-H ) :   0.9695

Dispersion correction           -0.015394816
FINAL SINGLE POINT ENERGY     -1339.861382618786

DIPOLE MOMENT
-------------
                                X             Y             Z
Electronic contribution:     -7.56182     -23.14408       9.71143
Nuclear contribution   :      7.67362      23.72320      -9.57098
                        -----------------------------------------
Total Dipole Moment    :      0.11180       0.57912       0.14046
                        -----------------------------------------
Magnitude (a.u.)       :      0.60631
Magnitude (Debye)      :      1.54111

Rotational constants in cm-1:     0.019294     0.009403     0.007853
Rotational constants in MHz :   578.425113   281.882368   235.418635

                             ****ORCA TERMINATED NORMALLY****
TOTAL RUN TIME: 0 days 0 hours 0 minutes 23 seconds 56 msec
