                         Program Version 4.2.1 -  RELEASE  -
|  1> ! wB97X-D3 SP def2-SVP
|  2> %pal
|  3> nprocs 24
|  4> end
|  5>
|  6> * xyz 0 1
|  7> S 	 -30.0557 	 13.6672 	 1.75762
|  8> C 	 -31.0206 	 12.4887 	 0.875011
|  9> C 	 -31.7171 	 11.5919 	 1.6709
| 10> C 	 -31.1749 	 11.6714 	 3.03089
| 11> C 	 -30.2195 	 12.6363 	 3.17111
| 12> H 	 -31.3242 	 10.9749 	 3.83786
| 13> C 	 -32.7511 	 10.4936 	 1.26283
| 14> H 	 -32.6494 	 9.69887 	 1.99041
| 15> H 	 -32.545 	 10.2096 	 0.271951
| 16> C 	 -34.2629 	 10.924 	 1.2385
| 17> H 	 -34.4347 	 11.3904 	 0.311833
| 18> H 	 -34.7804 	 9.97854 	 1.17391
| 19> C 	 -34.7697 	 11.7659 	 2.45011
| 20> H 	 -34.1231 	 12.5801 	 2.75104
| 21> H 	 -35.7791 	 12.0998 	 2.2422
| 22> H 	 -34.8907 	 10.9995 	 3.26449
| 23> S 	 -27.8483 	 13.3838 	 4.11744
| 24> C 	 -27.4954 	 13.4255 	 5.7734
| 25> C 	 -28.6214 	 13.2697 	 6.51348
| 26> C 	 -29.7707 	 12.9389 	 5.73832
| 27> C 	 -29.5355 	 12.9931 	 4.3916
| 28> H 	 -28.5607 	 13.2279 	 7.58801
| 29> C 	 -31.0676 	 12.6339 	 6.42642
| 30> H 	 -31.8189 	 12.9769 	 5.80045
| 31> H 	 -31.0941 	 13.2569 	 7.32757
| 32> C 	 -31.1633 	 11.1552 	 6.78704
| 33> H 	 -30.5702 	 10.8861 	 7.72491
| 34> H 	 -30.6644 	 10.569 	 6.05395
| 35> C 	 -32.679 	 10.7233 	 7.0089
| 36> H 	 -33.2159 	 10.9457 	 6.08563
| 37> H 	 -33.2444 	 11.1678 	 7.84189
| 38> H 	 -32.7827 	 9.63689 	 7.14129
| 39> H 	 -31.2543 	 12.651 	 -0.200025
| 40> H 	 -26.4867 	 13.6809 	 6.08983
| 41> *
| 42>
| 43>                          ****END OF INPUT****

CARTESIAN COORDINATES (ANGSTROEM)
---------------------------------
  S    -30.055700   13.667200    1.757620
  C    -31.020600   12.488700    0.875011
  C    -31.717100   11.591900    1.670900
  C    -31.174900   11.671400    3.030890
  C    -30.219500   12.636300    3.171110
  H    -31.324200   10.974900    3.837860
  C    -32.751100   10.493600    1.262830
  H    -32.649400    9.698870    1.990410
  H    -32.545000   10.209600    0.271951
  C    -34.262900   10.924000    1.238500
  H    -34.434700   11.390400    0.311833
  H    -34.780400    9.978540    1.173910
  C    -34.769700   11.765900    2.450110
  H    -34.123100   12.580100    2.751040
  H    -35.779100   12.099800    2.242200
  H    -34.890700   10.999500    3.264490
  S    -27.848300   13.383800    4.117440
  C    -27.495400   13.425500    5.773400
  C    -28.621400   13.269700    6.513480
  C    -29.770700   12.938900    5.738320
  C    -29.535500   12.993100    4.391600
  H    -28.560700   13.227900    7.588010
  C    -31.067600   12.633900    6.426420
  H    -31.818900   12.976900    5.800450
  H    -31.094100   13.256900    7.327570
  C    -31.163300   11.155200    6.787040
  H    -30.570200   10.886100    7.724910
  H    -30.664400   10.569000    6.053950
  C    -32.679000   10.723300    7.008900
  H    -33.215900   10.945700    6.085630
  H    -33.244400   11.167800    7.841890
  H    -32.782700    9.636890    7.141290
  H    -31.254300   12.651000   -0.200025
  H    -26.486700   13.680900    6.089830

 Total Charge           Charge          ....    0
 Multiplicity           Mult            ....    1
 Number of Electrons    NEL             ....  134
 Basis Dimension        Dim             ....  322

ORBITAL ENERGIES
----------------

  NO   OCC          E(Eh)            E(eV)
   0   2.0000     -88.966291     -2420.8959
   1   2.0000     -88.956367     -2420.6258
   2   2.0000     -10.326255      -280.9917
   3   2.0000     -10.319783      -280.8156
   4   2.0000     -10.316495      -280.7261
   5   2.0000     -10.311000      -280.5766
   6   2.0000     -10.308466      -280.5076
   7   2.0000     -10.298687      -280.2415
   8   2.0000     -10.295090      -280.1436
   9   2.0000     -10.294939      -280.1395
  10   2.0000     -10.293065      -280.0885
  11   2.0000     -10.287878      -279.9474
  12   2.0000     -10.285262      -279.8762
  13   2.0000     -10.284639      -279.8592
  14   2.0000     -10.284371      -279.8520
  15   2.0000     -10.281348      -279.7697
  16   2.0000      -8.080955      -219.8940
  17   2.0000      -8.072949      -219.6761
  18   2.0000      -6.039467      -164.3422
  19   2.0000      -6.035833      -164.2434
  20   2.0000      -6.031354      -164.1215
  21   2.0000      -6.031309      -164.1203
  22   2.0000      -6.027093      -164.0055
  23   2.0000      -6.023833      -163.9168
  24   2.0000      -1.012988       -27.5648
  25   2.0000      -0.984942       -26.8016
  26   2.0000      -0.912365       -24.8267
  27   2.0000      -0.905233       -24.6326
  28   2.0000      -0.869698       -23.6657
  29   2.0000      -0.849262       -23.1096
  30   2.0000      -0.842125       -22.9154
  31   2.0000      -0.812670       -22.1139
  32   2.0000      -0.784834       -21.3564
  33   2.0000      -0.775281       -21.0965
  34   2.0000      -0.709571       -19.3084
  35   2.0000      -0.703010       -19.1299
  36   2.0000      -0.693379       -18.8678
  37   2.0000      -0.668382       -18.1876
  38   2.0000      -0.636633       -17.3237
  39   2.0000      -0.614072       -16.7098
  40   2.0000      -0.598701       -16.2915
  41   2.0000      -0.571891       -15.5619
  42   2.0000      -0.561340       -15.2748
  43   2.0000      -0.547536       -14.8992
  44   2.0000      -0.540995       -14.7212
  45   2.0000      -0.526083       -14.3154
  46   2.0000      -0.515544       -14.0287
  47   2.0000      -0.508967       -13.8497
  48   2.0000      -0.506869       -13.7926
  49   2.0000      -0.492792       -13.4096
  50   2.0000      -0.490441       -13.3456
  51   2.0000      -0.480999       -13.0886
  52   2.0000      -0.470672       -12.8076
  53   2.0000      -0.465730       -12.6732
  54   2.0000      -0.460785       -12.5386
  55   2.0000      -0.452144       -12.3035
  56   2.0000      -0.448398       -12.2015
  57   2.0000      -0.441098       -12.0029
  58   2.0000      -0.432751       -11.7758
  59   2.0000      -0.425177       -11.5697
  60   2.0000      -0.421242       -11.4626
  61   2.0000      -0.416616       -11.3367
  62   2.0000      -0.414712       -11.2849
  63   2.0000      -0.353645        -9.6232
  64   2.0000      -0.330234        -8.9861
  65   2.0000      -0.328423        -8.9369
  66   2.0000      -0.289468        -7.8768
  67   0.0000       0.030599         0.8326
  68   0.0000       0.075819         2.0631
  69   0.0000       0.101388         2.7589
  70   0.0000       0.120744         3.2856
  71   0.0000       0.125546         3.4163

MULLIKEN ATOMIC CHARGES
-----------------------
   0 S :    0.107031
   1 C :   -0.127930
   2 C :   -0.095419
   3 C :   -0.014899
   4 C :   -0.098369
   5 H :    0.000512
   6 C :    0.096390
   7 H :    0.024167
   8 H :    0.017728
   9 C :   -0.070371
  10 H :    0.015885
  11 H :    0.027004
  12 C :   -0.061058
  13 H :    0.061354
  14 H :    0.034443
  15 H :    0.031479
  16 S :    0.085418
  17 C :   -0.085700
  18 C :   -0.018867
  19 C :   -0.103049
  20 C :   -0.136961
  21 H :    0.012650
  22 C :    0.123910
  23 H :    0.009752
  24 H :    0.024477
  25 C :   -0.084993
  26 H :    0.035785
  27 H :    0.032721
  28 C :   -0.063034
  29 H :    0.028423
  30 H :    0.042265
  31 H :    0.032733
  32 H :    0.056093
  33 H :    0.060433
Sum of atomic charges:   -0.0000000

LOEWDIN ATOMIC CHARGES
----------------------
   0 S :    0.388725
   1 C :   -0.199159
   2 C :   -0.055158
   3 C :   -0.068570
   4 C :   -0.186438
   5 H :    0.027784
   6 C :   -0.018055
   7 H :    0.027643
   8 H :    0.026722
   9 C :   -0.033212
  10 H :    0.012107
  11 H :    0.024749
  12 C :   -0.066156
  13 H :    0.027941
  14 H :    0.026481
  15 H :    0.029830
  16 S :    0.419866
  17 C :   -0.192110
  18 C :   -0.076951
  19 C :   -0.055156
  20 C :   -0.199427
  21 H :    0.029476
  22 C :   -0.024532
  23 H :    0.021047
  24 H :    0.035566
  25 C :   -0.036883
  26 H :    0.032197
  27 H :    0.016965
  28 C :   -0.071786
  29 H :    0.022237
  30 H :    0.028728
  31 H :    0.026155
  32 H :    0.029670
  33 H :    0.029703

  Mayer bond orders larger than 0.100000
B(  0-S ,  1-C ) :   1.1183 B(  0-S ,  4-C ) :   1.1330 B(  1-C ,  2-C ) :   1.6615
B(  1-C , 32-H ) :   0.9599 B(  2-C ,  3-C ) :   1.1800 B(  2-C ,  6-C ) :   1.0167
B(  3-C ,  4-C ) :   1.6343 B(  3-C ,  5-H ) :   0.9952 B(  4-C , 20-C ) :   1.0302
B(  6-C ,  7-H ) :   0.9464 B(  6-C ,  8-H ) :   0.9414 B(  6-C ,  9-C ) :   1.0678
B(  9-C , 10-H ) :   0.9610 B(  9-C , 11-H ) :   0.9587 B(  9-C , 12-C ) :   1.0723
B( 12-C , 13-H ) :   0.9749 B( 12-C , 14-H ) :   0.9737 B( 12-C , 15-H ) :   0.9777
B( 16-S , 17-C ) :   1.1825 B( 16-S , 20-C ) :   1.1309 B( 17-C , 18-C ) :   1.5822
B( 17-C , 33-H ) :   0.9684 B( 18-C , 19-C ) :   1.2435 B( 18-C , 21-H ) :   0.9955
B( 19-C , 20-C ) :   1.6093 B( 19-C , 22-C ) :   1.0460 B( 22-C , 23-H ) :   0.9404
B( 22-C , 24-H ) :   0.9266 B( 22-C , 25-C ) :   1.0471 B( 25-C , 26-H ) :   0.9501
B( 25-C , 27-H ) :   0.9603 B( 25-C , 28-C ) :   1.0690 B( 28-C , 29-H ) :   0.9779
B( 28-C , 30-H ) :   0.9770 B( 28-C , 31-H ) :   0.9764

Dispersion correction           -0.015037524
FINAL SINGLE POINT ENERGY     -1339.878134689618

DIPOLE MOMENT
-------------
                                X             Y             Z
Electronic contribution:     25.95935      14.73941      -8.68881
Nuclear contribution   :    -26.46870     -15.13034       8.97749
                        -----------------------------------------
Total Dipole Moment    :     -0.50934      -0.39093       0.28869
                        -----------------------------------------
Magnitude (a.u.)       :      0.70399
Magnitude (Debye)      :      1.78940

Rotational constants in cm-1:     0.018014     0.010175     0.006950
Rotational constants in MHz :   540.057786   305.051169   208.365687

                             ****ORCA TERMINATED NORMALLY****
TOTAL RUN TIME: 0 days 0 hours 0 minutes 22 seconds 363 msec
