                         Program Version 4.2.1 -  RELEASE  -
|  1> ! wB97X-D3 SP def2-SVP
|  2> %pal
|  3> nprocs 24
|  4> end
|  5>
|  6> * xyz 0 1
|  7> S 	 -51.4088 	 7.02123 	 -16.3662
|  8> C 	 -49.9391 	 7.27502 	 -17.2461
|  9> C 	 -50.1663 	 7.98637 	 -18.4348
| 10> C 	 -51.5885 	 8.00178 	 -18.6969
| 11> C 	 -52.3554 	 7.36613 	 -17.7916
| 12> H 	 -52.0268 	 8.40554 	 -19.5701
| 13> C 	 -49.074 	 8.59479 	 -19.3247
| 14> H 	 -49.3772 	 8.37358 	 -20.3861
| 15> H 	 -48.2138 	 8.03327 	 -19.1146
| 16> C 	 -48.5983 	 10.049 	 -19.2743
| 17> H 	 -47.7988 	 10.214 	 -19.9732
| 18> H 	 -49.4955 	 10.644 	 -19.5838
| 19> C 	 -48.2164 	 10.4743 	 -17.85
| 20> H 	 -47.4066 	 9.7806 	 -17.3778
| 21> H 	 -47.7959 	 11.5237 	 -17.79
| 22> H 	 -49.0113 	 10.3797 	 -17.18
| 23> S 	 -54.6579 	 7.82716 	 -16.3431
| 24> C 	 -56.1533 	 7.15737 	 -16.8821
| 25> C 	 -56.032 	 6.64718 	 -18.1521
| 26> C 	 -54.6565 	 6.61572 	 -18.6345
| 27> C 	 -53.815 	 7.21038 	 -17.7548
| 28> H 	 -56.8833 	 6.25996 	 -18.6083
| 29> C 	 -54.4449 	 6.16523 	 -20.0585
| 30> H 	 -53.8171 	 6.9746 	 -20.5311
| 31> H 	 -55.4099 	 6.18474 	 -20.6334
| 32> C 	 -53.7465 	 4.75197 	 -20.199
| 33> H 	 -52.6722 	 4.82379 	 -19.9165
| 34> H 	 -53.5246 	 4.56372 	 -21.2269
| 35> C 	 -54.3642 	 3.54221 	 -19.491
| 36> H 	 -54.4674 	 3.66423 	 -18.4497
| 37> H 	 -53.8622 	 2.61869 	 -19.6485
| 38> H 	 -55.308 	 3.44107 	 -20.0001
| 39> H 	 -48.9569 	 7.10054 	 -16.7516
| 40> H 	 -56.9872 	 7.19999 	 -16.318
| 41> *
| 42>
| 43>                          ****END OF INPUT****

CARTESIAN COORDINATES (ANGSTROEM)
---------------------------------
  S    -51.408800    7.021230  -16.366200
  C    -49.939100    7.275020  -17.246100
  C    -50.166300    7.986370  -18.434800
  C    -51.588500    8.001780  -18.696900
  C    -52.355400    7.366130  -17.791600
  H    -52.026800    8.405540  -19.570100
  C    -49.074000    8.594790  -19.324700
  H    -49.377200    8.373580  -20.386100
  H    -48.213800    8.033270  -19.114600
  C    -48.598300   10.049000  -19.274300
  H    -47.798800   10.214000  -19.973200
  H    -49.495500   10.644000  -19.583800
  C    -48.216400   10.474300  -17.850000
  H    -47.406600    9.780600  -17.377800
  H    -47.795900   11.523700  -17.790000
  H    -49.011300   10.379700  -17.180000
  S    -54.657900    7.827160  -16.343100
  C    -56.153300    7.157370  -16.882100
  C    -56.032000    6.647180  -18.152100
  C    -54.656500    6.615720  -18.634500
  C    -53.815000    7.210380  -17.754800
  H    -56.883300    6.259960  -18.608300
  C    -54.444900    6.165230  -20.058500
  H    -53.817100    6.974600  -20.531100
  H    -55.409900    6.184740  -20.633400
  C    -53.746500    4.751970  -20.199000
  H    -52.672200    4.823790  -19.916500
  H    -53.524600    4.563720  -21.226900
  C    -54.364200    3.542210  -19.491000
  H    -54.467400    3.664230  -18.449700
  H    -53.862200    2.618690  -19.648500
  H    -55.308000    3.441070  -20.000100
  H    -48.956900    7.100540  -16.751600
  H    -56.987200    7.199990  -16.318000

 Total Charge           Charge          ....    0
 Multiplicity           Mult            ....    1
 Number of Electrons    NEL             ....  134
 Basis Dimension        Dim             ....  322

ORBITAL ENERGIES
----------------

  NO   OCC          E(Eh)            E(eV)
   0   2.0000     -88.962979     -2420.8057
   1   2.0000     -88.961839     -2420.7747
   2   2.0000     -10.324827      -280.9528
   3   2.0000     -10.324116      -280.9335
   4   2.0000     -10.318790      -280.7886
   5   2.0000     -10.308682      -280.5135
   6   2.0000     -10.307209      -280.4734
   7   2.0000     -10.303118      -280.3621
   8   2.0000     -10.301020      -280.3050
   9   2.0000     -10.293201      -280.0922
  10   2.0000     -10.291804      -280.0542
  11   2.0000     -10.290460      -280.0176
  12   2.0000     -10.288209      -279.9564
  13   2.0000     -10.284307      -279.8502
  14   2.0000     -10.282487      -279.8007
  15   2.0000     -10.266899      -279.3765
  16   2.0000      -8.078510      -219.8274
  17   2.0000      -8.077421      -219.7978
  18   2.0000      -6.036968      -164.2743
  19   2.0000      -6.036009      -164.2481
  20   2.0000      -6.033143      -164.1702
  21   2.0000      -6.031787      -164.1333
  22   2.0000      -6.029026      -164.0581
  23   2.0000      -6.028083      -164.0325
  24   2.0000      -1.010659       -27.5014
  25   2.0000      -0.987361       -26.8675
  26   2.0000      -0.910761       -24.7831
  27   2.0000      -0.901771       -24.5384
  28   2.0000      -0.869319       -23.6554
  29   2.0000      -0.851507       -23.1707
  30   2.0000      -0.844637       -22.9837
  31   2.0000      -0.816486       -22.2177
  32   2.0000      -0.784107       -21.3366
  33   2.0000      -0.775195       -21.0941
  34   2.0000      -0.710781       -19.3413
  35   2.0000      -0.699253       -19.0276
  36   2.0000      -0.689881       -18.7726
  37   2.0000      -0.668293       -18.1852
  38   2.0000      -0.644256       -17.5311
  39   2.0000      -0.622507       -16.9393
  40   2.0000      -0.589170       -16.0321
  41   2.0000      -0.565510       -15.3883
  42   2.0000      -0.553553       -15.0629
  43   2.0000      -0.550242       -14.9728
  44   2.0000      -0.547122       -14.8879
  45   2.0000      -0.542890       -14.7728
  46   2.0000      -0.518176       -14.1003
  47   2.0000      -0.507363       -13.8061
  48   2.0000      -0.502837       -13.6829
  49   2.0000      -0.495257       -13.4766
  50   2.0000      -0.489444       -13.3184
  51   2.0000      -0.479856       -13.0575
  52   2.0000      -0.473201       -12.8765
  53   2.0000      -0.464606       -12.6426
  54   2.0000      -0.456571       -12.4239
  55   2.0000      -0.452696       -12.3185
  56   2.0000      -0.444099       -12.0845
  57   2.0000      -0.439210       -11.9515
  58   2.0000      -0.432671       -11.7736
  59   2.0000      -0.425110       -11.5678
  60   2.0000      -0.419404       -11.4126
  61   2.0000      -0.412273       -11.2185
  62   2.0000      -0.402846       -10.9620
  63   2.0000      -0.348625        -9.4866
  64   2.0000      -0.328720        -8.9449
  65   2.0000      -0.326756        -8.8915
  66   2.0000      -0.295535        -8.0419
  67   0.0000       0.033741         0.9182
  68   0.0000       0.063653         1.7321
  69   0.0000       0.106215         2.8903
  70   0.0000       0.121785         3.3139
  71   0.0000       0.127852         3.4790

MULLIKEN ATOMIC CHARGES
-----------------------
   0 S :    0.103987
   1 C :   -0.133228
   2 C :   -0.098294
   3 C :    0.042016
   4 C :   -0.130398
   5 H :   -0.007339
   6 C :    0.055708
   7 H :    0.033692
   8 H :    0.007192
   9 C :   -0.032826
  10 H :    0.037437
  11 H :    0.032618
  12 C :   -0.086263
  13 H :    0.025438
  14 H :    0.046705
  15 H :    0.033916
  16 S :    0.098740
  17 C :   -0.049343
  18 C :   -0.014498
  19 C :   -0.020018
  20 C :   -0.162020
  21 H :   -0.004057
  22 C :    0.032120
  23 H :    0.036876
  24 H :    0.036379
  25 C :   -0.078747
  26 H :    0.025178
  27 H :    0.011026
  28 C :   -0.004122
  29 H :    0.040569
  30 H :    0.025475
  31 H :    0.017413
  32 H :    0.064616
  33 H :    0.014051
Sum of atomic charges:   -0.0000000

LOEWDIN ATOMIC CHARGES
----------------------
   0 S :    0.408252
   1 C :   -0.200437
   2 C :   -0.062186
   3 C :   -0.058173
   4 C :   -0.190683
   5 H :    0.023118
   6 C :   -0.034686
   7 H :    0.035737
   8 H :    0.022478
   9 C :   -0.037693
  10 H :    0.025851
  11 H :    0.028498
  12 C :   -0.073172
  13 H :    0.028662
  14 H :    0.032668
  15 H :    0.016527
  16 S :    0.402994
  17 C :   -0.167449
  18 C :   -0.059776
  19 C :   -0.059445
  20 C :   -0.194695
  21 H :    0.019732
  22 C :   -0.031797
  23 H :    0.038370
  24 H :    0.034934
  25 C :   -0.047623
  26 H :    0.026919
  27 H :    0.018938
  28 C :   -0.057245
  29 H :    0.023206
  30 H :    0.025897
  31 H :    0.023890
  32 H :    0.033056
  33 H :    0.005331

  Mayer bond orders larger than 0.100000
B(  0-S ,  1-C ) :   1.1548 B(  0-S ,  4-C ) :   1.1385 B(  1-C ,  2-C ) :   1.5949
B(  1-C , 32-H ) :   0.9646 B(  2-C ,  3-C ) :   1.2256 B(  2-C ,  6-C ) :   1.0197
B(  3-C ,  4-C ) :   1.6010 B(  3-C ,  5-H ) :   1.0034 B(  4-C , 20-C ) :   1.0140
B(  6-C ,  7-H ) :   0.9424 B(  6-C ,  8-H ) :   0.9371 B(  6-C ,  9-C ) :   1.0728
B(  9-C , 10-H ) :   0.9544 B(  9-C , 11-H ) :   0.9528 B(  9-C , 12-C ) :   1.0732
B( 12-C , 13-H ) :   0.9739 B( 12-C , 14-H ) :   0.9738 B( 12-C , 15-H ) :   0.9749
B( 16-S , 17-C ) :   1.1489 B( 16-S , 20-C ) :   1.1361 B( 17-C , 18-C ) :   1.6202
B( 17-C , 33-H ) :   0.9844 B( 18-C , 19-C ) :   1.1989 B( 18-C , 21-H ) :   1.0015
B( 19-C , 20-C ) :   1.6539 B( 19-C , 22-C ) :   1.0265 B( 22-C , 23-H ) :   0.9393
B( 22-C , 24-H ) :   0.9457 B( 22-C , 25-C ) :   1.0622 B( 25-C , 26-H ) :   0.9528
B( 25-C , 27-H ) :   0.9544 B( 25-C , 28-C ) :   1.0720 B( 28-C , 29-H ) :   0.9752
B( 28-C , 30-H ) :   0.9716 B( 28-C , 31-H ) :   0.9756

Dispersion correction           -0.014673721
FINAL SINGLE POINT ENERGY     -1339.864644634449

DIPOLE MOMENT
-------------
                                X             Y             Z
Electronic contribution:    -11.18342       1.33648      16.93967
Nuclear contribution   :     11.26860      -1.30667     -17.48718
                        -----------------------------------------
Total Dipole Moment    :      0.08518       0.02981      -0.54752
                        -----------------------------------------
Magnitude (a.u.)       :      0.55490
Magnitude (Debye)      :      1.41045

Rotational constants in cm-1:     0.021909     0.007948     0.006872
Rotational constants in MHz :   656.802171   238.281972   206.023910

                             ****ORCA TERMINATED NORMALLY****
TOTAL RUN TIME: 0 days 0 hours 0 minutes 21 seconds 734 msec
