                         Program Version 4.2.1 -  RELEASE  -
|  1> ! wB97X-D3 SP def2-SVP
|  2> %pal
|  3> nprocs 24
|  4> end
|  5>
|  6> * xyz 0 1
|  7> S 	 -106.112 	 62.3553 	 -97.6125
|  8> C 	 -107.115 	 61.4063 	 -98.6612
|  9> C 	 -106.727 	 60.0924 	 -98.6308
| 10> C 	 -105.595 	 59.8263 	 -97.8278
| 11> C 	 -105.07 	 60.9811 	 -97.3766
| 12> H 	 -105.181 	 58.8792 	 -97.6144
| 13> C 	 -107.774 	 59.0197 	 -99.1413
| 14> H 	 -108.592 	 59.5409 	 -99.5495
| 15> H 	 -108.238 	 58.4356 	 -98.305
| 16> C 	 -107.306 	 58.0679 	 -100.255
| 17> H 	 -108.156 	 57.4224 	 -100.434
| 18> H 	 -107.159 	 58.7135 	 -101.121
| 19> C 	 -106.058 	 57.2032 	 -99.9298
| 20> H 	 -105.177 	 57.8932 	 -99.837
| 21> H 	 -106.095 	 56.51 	 -98.981
| 22> H 	 -105.849 	 56.5745 	 -100.798
| 23> S 	 -102.559 	 62.0034 	 -97.5699
| 24> C 	 -101.353 	 61.7438 	 -96.2245
| 25> C 	 -101.951 	 61.0857 	 -95.1658
| 26> C 	 -103.324 	 60.6956 	 -95.5147
| 27> C 	 -103.795 	 61.1804 	 -96.7462
| 28> H 	 -101.345 	 60.7753 	 -94.2997
| 29> C 	 -104.064 	 59.9466 	 -94.4696
| 30> H 	 -105.105 	 59.9455 	 -94.7654
| 31> H 	 -104.121 	 60.4929 	 -93.5679
| 32> C 	 -103.672 	 58.5195 	 -94.2288
| 33> H 	 -102.628 	 58.6009 	 -93.8801
| 34> H 	 -103.723 	 58.0318 	 -95.1879
| 35> C 	 -104.621 	 57.5808 	 -93.3912
| 36> H 	 -104.394 	 56.5027 	 -93.6287
| 37> H 	 -105.701 	 57.7004 	 -93.6086
| 38> H 	 -104.438 	 57.7771 	 -92.2813
| 39> H 	 -107.993 	 61.7264 	 -99.1918
| 40> H 	 -100.403 	 62.205 	 -96.1653
| 41> *
| 42>
| 43>                          ****END OF INPUT****

CARTESIAN COORDINATES (ANGSTROEM)
---------------------------------
  S    -106.112000   62.355300  -97.612500
  C    -107.115000   61.406300  -98.661200
  C    -106.727000   60.092400  -98.630800
  C    -105.595000   59.826300  -97.827800
  C    -105.070000   60.981100  -97.376600
  H    -105.181000   58.879200  -97.614400
  C    -107.774000   59.019700  -99.141300
  H    -108.592000   59.540900  -99.549500
  H    -108.238000   58.435600  -98.305000
  C    -107.306000   58.067900  -100.255000
  H    -108.156000   57.422400  -100.434000
  H    -107.159000   58.713500  -101.121000
  C    -106.058000   57.203200  -99.929800
  H    -105.177000   57.893200  -99.837000
  H    -106.095000   56.510000  -98.981000
  H    -105.849000   56.574500  -100.798000
  S    -102.559000   62.003400  -97.569900
  C    -101.353000   61.743800  -96.224500
  C    -101.951000   61.085700  -95.165800
  C    -103.324000   60.695600  -95.514700
  C    -103.795000   61.180400  -96.746200
  H    -101.345000   60.775300  -94.299700
  C    -104.064000   59.946600  -94.469600
  H    -105.105000   59.945500  -94.765400
  H    -104.121000   60.492900  -93.567900
  C    -103.672000   58.519500  -94.228800
  H    -102.628000   58.600900  -93.880100
  H    -103.723000   58.031800  -95.187900
  C    -104.621000   57.580800  -93.391200
  H    -104.394000   56.502700  -93.628700
  H    -105.701000   57.700400  -93.608600
  H    -104.438000   57.777100  -92.281300
  H    -107.993000   61.726400  -99.191800
  H    -100.403000   62.205000  -96.165300

 Total Charge           Charge          ....    0
 Multiplicity           Mult            ....    1
 Number of Electrons    NEL             ....  134
 Basis Dimension        Dim             ....  322

ORBITAL ENERGIES
----------------

  NO   OCC          E(Eh)            E(eV)
   0   2.0000     -88.966600     -2420.9043
   1   2.0000     -88.964513     -2420.8475
   2   2.0000     -10.324391      -280.9410
   3   2.0000     -10.323687      -280.9218
   4   2.0000     -10.320661      -280.8395
   5   2.0000     -10.311528      -280.5909
   6   2.0000     -10.303725      -280.3786
   7   2.0000     -10.300286      -280.2850
   8   2.0000     -10.299275      -280.2575
   9   2.0000     -10.293187      -280.0918
  10   2.0000     -10.292302      -280.0678
  11   2.0000     -10.290453      -280.0175
  12   2.0000     -10.290083      -280.0074
  13   2.0000     -10.286259      -279.9033
  14   2.0000     -10.285554      -279.8841
  15   2.0000     -10.275631      -279.6141
  16   2.0000      -8.082058      -219.9240
  17   2.0000      -8.079102      -219.8436
  18   2.0000      -6.040451      -164.3690
  19   2.0000      -6.037775      -164.2962
  20   2.0000      -6.036567      -164.2633
  21   2.0000      -6.033524      -164.1805
  22   2.0000      -6.032781      -164.1603
  23   2.0000      -6.029775      -164.0785
  24   2.0000      -1.014102       -27.5951
  25   2.0000      -0.983779       -26.7700
  26   2.0000      -0.910479       -24.7754
  27   2.0000      -0.904247       -24.6058
  28   2.0000      -0.873470       -23.7683
  29   2.0000      -0.849222       -23.1085
  30   2.0000      -0.840840       -22.8804
  31   2.0000      -0.820895       -22.3377
  32   2.0000      -0.782232       -21.2856
  33   2.0000      -0.767137       -20.8749
  34   2.0000      -0.707588       -19.2544
  35   2.0000      -0.693944       -18.8832
  36   2.0000      -0.689008       -18.7489
  37   2.0000      -0.662010       -18.0142
  38   2.0000      -0.647173       -17.6105
  39   2.0000      -0.622070       -16.9274
  40   2.0000      -0.594735       -16.1836
  41   2.0000      -0.573258       -15.5991
  42   2.0000      -0.567292       -15.4368
  43   2.0000      -0.547889       -14.9088
  44   2.0000      -0.536305       -14.5936
  45   2.0000      -0.523916       -14.2565
  46   2.0000      -0.518452       -14.1078
  47   2.0000      -0.510093       -13.8803
  48   2.0000      -0.504512       -13.7285
  49   2.0000      -0.496936       -13.5223
  50   2.0000      -0.486944       -13.2504
  51   2.0000      -0.485459       -13.2100
  52   2.0000      -0.479581       -13.0501
  53   2.0000      -0.465691       -12.6721
  54   2.0000      -0.461313       -12.5530
  55   2.0000      -0.446943       -12.1619
  56   2.0000      -0.439228       -11.9520
  57   2.0000      -0.429191       -11.6789
  58   2.0000      -0.427941       -11.6449
  59   2.0000      -0.426389       -11.6026
  60   2.0000      -0.413946       -11.2641
  61   2.0000      -0.411290       -11.1918
  62   2.0000      -0.409507       -11.1432
  63   2.0000      -0.346946        -9.4409
  64   2.0000      -0.331262        -9.0141
  65   2.0000      -0.323532        -8.8037
  66   2.0000      -0.301779        -8.2118
  67   0.0000       0.036684         0.9982
  68   0.0000       0.062576         1.7028
  69   0.0000       0.105577         2.8729
  70   0.0000       0.116858         3.1799
  71   0.0000       0.121738         3.3127

MULLIKEN ATOMIC CHARGES
-----------------------
   0 S :    0.126599
   1 C :   -0.109700
   2 C :   -0.082087
   3 C :    0.074001
   4 C :   -0.189230
   5 H :   -0.001845
   6 C :    0.045987
   7 H :   -0.002935
   8 H :    0.041741
   9 C :   -0.059199
  10 H :    0.027652
  11 H :    0.031869
  12 C :   -0.105501
  13 H :    0.048165
  14 H :    0.050040
  15 H :    0.040121
  16 S :    0.105387
  17 C :   -0.091894
  18 C :   -0.031210
  19 C :   -0.056579
  20 C :   -0.128178
  21 H :    0.044570
  22 C :    0.095528
  23 H :   -0.005123
  24 H :    0.017441
  25 C :   -0.079450
  26 H :    0.027846
  27 H :    0.021585
  28 C :   -0.086133
  29 H :    0.048065
  30 H :    0.041931
  31 H :    0.046336
  32 H :    0.044537
  33 H :    0.049662
Sum of atomic charges:   -0.0000000

LOEWDIN ATOMIC CHARGES
----------------------
   0 S :    0.418443
   1 C :   -0.195059
   2 C :   -0.064967
   3 C :   -0.049559
   4 C :   -0.192336
   5 H :    0.028735
   6 C :   -0.027743
   7 H :    0.018993
   8 H :    0.033518
   9 C :   -0.042893
  10 H :    0.022176
  11 H :    0.026842
  12 C :   -0.083277
  13 H :    0.029720
  14 H :    0.035285
  15 H :    0.026572
  16 S :    0.402947
  17 C :   -0.160160
  18 C :   -0.066899
  19 C :   -0.052365
  20 C :   -0.223604
  21 H :    0.039995
  22 C :   -0.043705
  23 H :    0.024499
  24 H :    0.025106
  25 C :   -0.042675
  26 H :    0.023762
  27 H :    0.022154
  28 C :   -0.074840
  29 H :    0.033318
  30 H :    0.028218
  31 H :    0.030516
  32 H :    0.026995
  33 H :    0.022287

  Mayer bond orders larger than 0.100000
B(  0-S ,  1-C ) :   1.1348 B(  0-S ,  4-C ) :   1.1608 B(  1-C ,  2-C ) :   1.6282
B(  1-C , 32-H ) :   0.9692 B(  2-C ,  3-C ) :   1.2271 B(  2-C ,  6-C ) :   1.0040
B(  3-C ,  4-C ) :   1.5854 B(  3-C ,  5-H ) :   1.0091 B(  4-C , 20-C ) :   1.0102
B(  6-C ,  7-H ) :   0.9420 B(  6-C ,  8-H ) :   0.9489 B(  6-C ,  9-C ) :   1.0755
B(  9-C , 10-H ) :   0.9552 B(  9-C , 11-H ) :   0.9540 B(  9-C , 12-C ) :   1.0791
B( 12-C , 13-H ) :   0.9683 B( 12-C , 14-H ) :   0.9733 B( 12-C , 15-H ) :   0.9723
B( 16-S , 17-C ) :   1.1393 B( 16-S , 20-C ) :   1.1424 B( 17-C , 18-C ) :   1.6345
B( 17-C , 33-H ) :   0.9694 B( 18-C , 19-C ) :   1.2136 B( 18-C , 21-H ) :   0.9804
B( 19-C , 20-C ) :   1.6004 B( 19-C , 22-C ) :   1.0688 B( 22-C , 23-H ) :   0.9136
B( 22-C , 24-H ) :   0.9319 B( 22-C , 25-C ) :   1.0608 B( 25-C , 26-H ) :   0.9578
B( 25-C , 27-H ) :   0.9554 B( 25-C , 28-C ) :   1.0714 B( 28-C , 29-H ) :   0.9789
B( 28-C , 30-H ) :   0.9729 B( 28-C , 31-H ) :   0.9766

Dispersion correction           -0.014349244
FINAL SINGLE POINT ENERGY     -1339.861868089265

DIPOLE MOMENT
-------------
                                X             Y             Z
Electronic contribution:      7.68963      26.27625      -4.45954
Nuclear contribution   :     -7.91438     -26.76465       4.65207
                        -----------------------------------------
Total Dipole Moment    :     -0.22475      -0.48839       0.19254
                        -----------------------------------------
Magnitude (a.u.)       :      0.57106
Magnitude (Debye)      :      1.45152

Rotational constants in cm-1:     0.016345     0.009269     0.007332
Rotational constants in MHz :   490.019900   277.891038   219.794293

                             ****ORCA TERMINATED NORMALLY****
TOTAL RUN TIME: 0 days 0 hours 0 minutes 21 seconds 520 msec
