                         Program Version 4.2.1 -  RELEASE  -
|  1> ! wB97X-D3 SP def2-SVP
|  2> %pal
|  3> nprocs 24
|  4> end
|  5>
|  6> * xyz 0 1
|  7> S 	 -57.7904 	 7.09294 	 -101.419
|  8> C 	 -58.3718 	 8.65717 	 -101.96
|  9> C 	 -57.491 	 9.62009 	 -101.594
| 10> C 	 -56.2771 	 9.11047 	 -101.005
| 11> C 	 -56.3122 	 7.75356 	 -100.78
| 12> H 	 -55.536 	 9.80414 	 -100.613
| 13> C 	 -57.8256 	 11.0493 	 -101.557
| 14> H 	 -57.6833 	 11.4035 	 -100.582
| 15> H 	 -58.8584 	 11.1724 	 -101.84
| 16> C 	 -57.065 	 11.8647 	 -102.586
| 17> H 	 -56.0126 	 11.8831 	 -102.328
| 18> H 	 -57.0642 	 11.4793 	 -103.62
| 19> C 	 -57.6792 	 13.2044 	 -102.833
| 20> H 	 -58.7136 	 13.1007 	 -103.301
| 21> H 	 -57.8512 	 13.8016 	 -101.927
| 22> H 	 -57.0327 	 13.9628 	 -103.424
| 23> S 	 -54.8709 	 5.45397 	 -101.064
| 24> C 	 -53.515 	 5.22165 	 -99.9366
| 25> C 	 -53.5432 	 6.04184 	 -98.8058
| 26> C 	 -54.6028 	 7.07509 	 -98.9254
| 27> C 	 -55.3775 	 6.90155 	 -100.132
| 28> H 	 -52.8948 	 5.93395 	 -97.9851
| 29> C 	 -54.8454 	 8.10001 	 -97.8194
| 30> H 	 -54.7263 	 9.12045 	 -98.2634
| 31> H 	 -54.0729 	 7.9964 	 -97.0596
| 32> C 	 -56.3152 	 7.97749 	 -97.2263
| 33> H 	 -56.5879 	 6.96542 	 -96.835
| 34> H 	 -56.9704 	 8.12599 	 -98.0874
| 35> C 	 -56.6919 	 9.06469 	 -96.1726
| 36> H 	 -56.6363 	 10.0961 	 -96.6233
| 37> H 	 -56.1446 	 8.8705 	 -95.26
| 38> H 	 -57.7347 	 9.0405 	 -95.8548
| 39> H 	 -59.3407 	 8.88644 	 -102.396
| 40> H 	 -52.9861 	 4.22388 	 -99.9227
| 41> *
| 42>
| 43>                          ****END OF INPUT****

CARTESIAN COORDINATES (ANGSTROEM)
---------------------------------
  S    -57.790400    7.092940  -101.419000
  C    -58.371800    8.657170  -101.960000
  C    -57.491000    9.620090  -101.594000
  C    -56.277100    9.110470  -101.005000
  C    -56.312200    7.753560  -100.780000
  H    -55.536000    9.804140  -100.613000
  C    -57.825600   11.049300  -101.557000
  H    -57.683300   11.403500  -100.582000
  H    -58.858400   11.172400  -101.840000
  C    -57.065000   11.864700  -102.586000
  H    -56.012600   11.883100  -102.328000
  H    -57.064200   11.479300  -103.620000
  C    -57.679200   13.204400  -102.833000
  H    -58.713600   13.100700  -103.301000
  H    -57.851200   13.801600  -101.927000
  H    -57.032700   13.962800  -103.424000
  S    -54.870900    5.453970  -101.064000
  C    -53.515000    5.221650  -99.936600
  C    -53.543200    6.041840  -98.805800
  C    -54.602800    7.075090  -98.925400
  C    -55.377500    6.901550  -100.132000
  H    -52.894800    5.933950  -97.985100
  C    -54.845400    8.100010  -97.819400
  H    -54.726300    9.120450  -98.263400
  H    -54.072900    7.996400  -97.059600
  C    -56.315200    7.977490  -97.226300
  H    -56.587900    6.965420  -96.835000
  H    -56.970400    8.125990  -98.087400
  C    -56.691900    9.064690  -96.172600
  H    -56.636300   10.096100  -96.623300
  H    -56.144600    8.870500  -95.260000
  H    -57.734700    9.040500  -95.854800
  H    -59.340700    8.886440  -102.396000
  H    -52.986100    4.223880  -99.922700

 Total Charge           Charge          ....    0
 Multiplicity           Mult            ....    1
 Number of Electrons    NEL             ....  134
 Basis Dimension        Dim             ....  322

ORBITAL ENERGIES
----------------

  NO   OCC          E(Eh)            E(eV)
   0   2.0000     -88.968380     -2420.9527
   1   2.0000     -88.962821     -2420.8014
   2   2.0000     -10.333159      -281.1795
   3   2.0000     -10.329157      -281.0706
   4   2.0000     -10.326565      -281.0001
   5   2.0000     -10.319255      -280.8012
   6   2.0000     -10.310950      -280.5752
   7   2.0000     -10.303607      -280.3754
   8   2.0000     -10.303439      -280.3708
   9   2.0000     -10.294213      -280.1198
  10   2.0000     -10.293293      -280.0948
  11   2.0000     -10.292623      -280.0765
  12   2.0000     -10.287933      -279.9489
  13   2.0000     -10.284014      -279.8422
  14   2.0000     -10.283231      -279.8210
  15   2.0000     -10.282024      -279.7881
  16   2.0000      -8.082014      -219.9228
  17   2.0000      -8.077948      -219.8122
  18   2.0000      -6.040596      -164.3730
  19   2.0000      -6.036780      -164.2691
  20   2.0000      -6.036539      -164.2626
  21   2.0000      -6.032644      -164.1566
  22   2.0000      -6.032384      -164.1495
  23   2.0000      -6.028598      -164.0465
  24   2.0000      -1.006643       -27.3921
  25   2.0000      -0.974449       -26.5161
  26   2.0000      -0.922981       -25.1156
  27   2.0000      -0.897652       -24.4264
  28   2.0000      -0.873815       -23.7777
  29   2.0000      -0.847986       -23.0749
  30   2.0000      -0.843735       -22.9592
  31   2.0000      -0.814821       -22.1724
  32   2.0000      -0.782202       -21.2848
  33   2.0000      -0.766581       -20.8597
  34   2.0000      -0.710200       -19.3255
  35   2.0000      -0.698145       -18.9975
  36   2.0000      -0.688378       -18.7317
  37   2.0000      -0.663229       -18.0474
  38   2.0000      -0.639416       -17.3994
  39   2.0000      -0.625404       -17.0181
  40   2.0000      -0.588886       -16.0244
  41   2.0000      -0.575735       -15.6665
  42   2.0000      -0.566350       -15.4112
  43   2.0000      -0.557746       -15.1770
  44   2.0000      -0.528927       -14.3928
  45   2.0000      -0.520202       -14.1554
  46   2.0000      -0.514791       -14.0082
  47   2.0000      -0.508605       -13.8399
  48   2.0000      -0.505850       -13.7649
  49   2.0000      -0.499244       -13.5851
  50   2.0000      -0.493392       -13.4259
  51   2.0000      -0.490444       -13.3457
  52   2.0000      -0.468124       -12.7383
  53   2.0000      -0.460235       -12.5236
  54   2.0000      -0.458159       -12.4672
  55   2.0000      -0.448953       -12.2166
  56   2.0000      -0.446039       -12.1373
  57   2.0000      -0.431255       -11.7350
  58   2.0000      -0.428421       -11.6579
  59   2.0000      -0.425839       -11.5877
  60   2.0000      -0.422443       -11.4953
  61   2.0000      -0.416865       -11.3435
  62   2.0000      -0.409616       -11.1462
  63   2.0000      -0.347145        -9.4463
  64   2.0000      -0.329701        -8.9716
  65   2.0000      -0.326650        -8.8886
  66   2.0000      -0.290676        -7.9097
  67   0.0000       0.021300         0.5796
  68   0.0000       0.066783         1.8172
  69   0.0000       0.099366         2.7039
  70   0.0000       0.113836         3.0976
  71   0.0000       0.127541         3.4706

MULLIKEN ATOMIC CHARGES
-----------------------
   0 S :    0.095653
   1 C :   -0.113052
   2 C :   -0.109200
   3 C :    0.036286
   4 C :   -0.139134
   5 H :    0.012250
   6 C :    0.108518
   7 H :    0.024932
   8 H :   -0.000436
   9 C :   -0.068445
  10 H :    0.023493
  11 H :    0.035451
  12 C :   -0.099646
  13 H :    0.044255
  14 H :    0.019582
  15 H :    0.046635
  16 S :    0.102917
  17 C :   -0.105469
  18 C :   -0.017468
  19 C :   -0.049627
  20 C :   -0.148025
  21 H :    0.011420
  22 C :    0.079572
  23 H :    0.034263
  24 H :    0.018516
  25 C :   -0.103314
  26 H :    0.041013
  27 H :    0.041748
  28 C :   -0.054275
  29 H :    0.036092
  30 H :    0.036353
  31 H :    0.029586
  32 H :    0.046953
  33 H :    0.082602
Sum of atomic charges:    0.0000000

LOEWDIN ATOMIC CHARGES
----------------------
   0 S :    0.399126
   1 C :   -0.196161
   2 C :   -0.063416
   3 C :   -0.064711
   4 C :   -0.195902
   5 H :    0.030038
   6 C :   -0.021774
   7 H :    0.027849
   8 H :    0.027968
   9 C :   -0.048546
  10 H :    0.020465
  11 H :    0.033197
  12 C :   -0.082106
  13 H :    0.031375
  14 H :    0.017401
  15 H :    0.036209
  16 S :    0.383529
  17 C :   -0.186974
  18 C :   -0.060668
  19 C :   -0.038804
  20 C :   -0.194268
  21 H :    0.025201
  22 C :   -0.032327
  23 H :    0.036443
  24 H :    0.025951
  25 C :   -0.041233
  26 H :    0.029128
  27 H :    0.025656
  28 C :   -0.074618
  29 H :    0.030794
  30 H :    0.023160
  31 H :    0.027154
  32 H :    0.031799
  33 H :    0.039065

  Mayer bond orders larger than 0.100000
B(  0-S ,  1-C ) :   1.1133 B(  0-S ,  4-C ) :   1.1485 B(  1-C ,  2-C ) :   1.6436
B(  1-C , 32-H ) :   0.9652 B(  2-C ,  3-C ) :   1.2231 B(  2-C ,  6-C ) :   1.0379
B(  3-C ,  4-C ) :   1.5698 B(  3-C ,  5-H ) :   0.9940 B(  4-C , 20-C ) :   1.0600
B(  6-C ,  7-H ) :   0.9339 B(  6-C ,  8-H ) :   0.9389 B(  6-C ,  9-C ) :   1.0517
B(  9-C , 10-H ) :   0.9534 B(  9-C , 11-H ) :   0.9578 B(  9-C , 12-C ) :   1.0830
B( 12-C , 13-H ) :   0.9720 B( 12-C , 14-H ) :   0.9708 B( 12-C , 15-H ) :   0.9720
B( 16-S , 17-C ) :   1.1486 B( 16-S , 20-C ) :   1.1272 B( 17-C , 18-C ) :   1.6204
B( 17-C , 20-C ) :   0.1034 B( 17-C , 33-H ) :   0.9523 B( 18-C , 19-C ) :   1.2323
B( 18-C , 21-H ) :   0.9922 B( 19-C , 20-C ) :   1.5668 B( 19-C , 22-C ) :   1.0497
B( 22-C , 23-H ) :   0.9303 B( 22-C , 24-H ) :   0.9383 B( 22-C , 25-C ) :   1.0450
B( 25-C , 26-H ) :   0.9596 B( 25-C , 27-H ) :   0.9570 B( 25-C , 28-C ) :   1.0838
B( 28-C , 29-H ) :   0.9735 B( 28-C , 30-H ) :   0.9772 B( 28-C , 31-H ) :   0.9733

Dispersion correction           -0.014217628
FINAL SINGLE POINT ENERGY     -1339.868718993738

DIPOLE MOMENT
-------------
                                X             Y             Z
Electronic contribution:      4.70094     -26.96048      -9.54234
Nuclear contribution   :     -4.71241      27.49521      10.04716
                        -----------------------------------------
Total Dipole Moment    :     -0.01147       0.53474       0.50481
                        -----------------------------------------
Magnitude (a.u.)       :      0.73547
Magnitude (Debye)      :      1.86941

Rotational constants in cm-1:     0.018367     0.008347     0.006889
Rotational constants in MHz :   550.618172   250.239389   206.536464

                             ****ORCA TERMINATED NORMALLY****
TOTAL RUN TIME: 0 days 0 hours 0 minutes 21 seconds 528 msec
