                         Program Version 4.2.1 -  RELEASE  -
|  1> ! wB97X-D3 SP def2-SVP
|  2> %pal
|  3> nprocs 24
|  4> end
|  5>
|  6> * xyz 0 1
|  7> S 	 -49.413 	 2.39865 	 -22.6589
|  8> C 	 -48.0996 	 1.26183 	 -22.5671
|  9> C 	 -48.509 	 -0.0509057 	 -22.7721
| 10> C 	 -49.9202 	 -0.1154 	 -23.0048
| 11> C 	 -50.5551 	 1.14114 	 -22.9922
| 12> H 	 -50.4972 	 -1.04516 	 -23.1043
| 13> C 	 -47.6255 	 -1.26604 	 -22.8401
| 14> H 	 -46.9889 	 -1.29511 	 -23.7063
| 15> H 	 -48.2257 	 -2.14555 	 -22.6442
| 16> C 	 -46.6051 	 -1.2918 	 -21.7206
| 17> H 	 -45.8982 	 -0.423589 	 -21.7104
| 18> H 	 -47.1525 	 -1.11116 	 -20.8559
| 19> C 	 -45.7949 	 -2.61308 	 -21.655
| 20> H 	 -45.3586 	 -2.85407 	 -22.6015
| 21> H 	 -44.8883 	 -2.53253 	 -21.0735
| 22> H 	 -46.3789 	 -3.50549 	 -21.3235
| 23> S 	 -52.6367 	 2.00603 	 -24.5988
| 24> C 	 -54.2997 	 1.98884 	 -23.9074
| 25> C 	 -54.2815 	 1.51206 	 -22.6243
| 26> C 	 -52.9401 	 1.25839 	 -22.1112
| 27> C 	 -51.9628 	 1.43386 	 -23.1025
| 28> H 	 -55.1921 	 1.50262 	 -22.0188
| 29> C 	 -52.6813 	 0.779998 	 -20.6344
| 30> H 	 -51.8265 	 1.35844 	 -20.2093
| 31> H 	 -52.3288 	 -0.267955 	 -20.6921
| 32> C 	 -53.7989 	 0.764461 	 -19.6431
| 33> H 	 -53.3406 	 0.189447 	 -18.8606
| 34> H 	 -54.5037 	 0.0598825 	 -20.0011
| 35> C 	 -54.4455 	 2.06096 	 -19.0683
| 36> H 	 -55.2166 	 1.71843 	 -18.3712
| 37> H 	 -54.7617 	 2.70966 	 -19.8722
| 38> H 	 -53.6631 	 2.53692 	 -18.4972
| 39> H 	 -47.1386 	 1.49107 	 -22.6716
| 40> H 	 -55.1761 	 2.33753 	 -24.5271
| 41> *
| 42>
| 43>                          ****END OF INPUT****

CARTESIAN COORDINATES (ANGSTROEM)
---------------------------------
  S    -49.413000    2.398650  -22.658900
  C    -48.099600    1.261830  -22.567100
  C    -48.509000   -0.050906  -22.772100
  C    -49.920200   -0.115400  -23.004800
  C    -50.555100    1.141140  -22.992200
  H    -50.497200   -1.045160  -23.104300
  C    -47.625500   -1.266040  -22.840100
  H    -46.988900   -1.295110  -23.706300
  H    -48.225700   -2.145550  -22.644200
  C    -46.605100   -1.291800  -21.720600
  H    -45.898200   -0.423589  -21.710400
  H    -47.152500   -1.111160  -20.855900
  C    -45.794900   -2.613080  -21.655000
  H    -45.358600   -2.854070  -22.601500
  H    -44.888300   -2.532530  -21.073500
  H    -46.378900   -3.505490  -21.323500
  S    -52.636700    2.006030  -24.598800
  C    -54.299700    1.988840  -23.907400
  C    -54.281500    1.512060  -22.624300
  C    -52.940100    1.258390  -22.111200
  C    -51.962800    1.433860  -23.102500
  H    -55.192100    1.502620  -22.018800
  C    -52.681300    0.779998  -20.634400
  H    -51.826500    1.358440  -20.209300
  H    -52.328800   -0.267955  -20.692100
  C    -53.798900    0.764461  -19.643100
  H    -53.340600    0.189447  -18.860600
  H    -54.503700    0.059882  -20.001100
  C    -54.445500    2.060960  -19.068300
  H    -55.216600    1.718430  -18.371200
  H    -54.761700    2.709660  -19.872200
  H    -53.663100    2.536920  -18.497200
  H    -47.138600    1.491070  -22.671600
  H    -55.176100    2.337530  -24.527100

 Total Charge           Charge          ....    0
 Multiplicity           Mult            ....    1
 Number of Electrons    NEL             ....  134
 Basis Dimension        Dim             ....  322

ORBITAL ENERGIES
----------------

  NO   OCC          E(Eh)            E(eV)
   0   2.0000     -88.967165     -2420.9196
   1   2.0000     -88.963541     -2420.8210
   2   2.0000     -10.326840      -281.0076
   3   2.0000     -10.325612      -280.9742
   4   2.0000     -10.323058      -280.9047
   5   2.0000     -10.308595      -280.5111
   6   2.0000     -10.302734      -280.3517
   7   2.0000     -10.299935      -280.2755
   8   2.0000     -10.298266      -280.2301
   9   2.0000     -10.296829      -280.1910
  10   2.0000     -10.295811      -280.1633
  11   2.0000     -10.288645      -279.9683
  12   2.0000     -10.281965      -279.7865
  13   2.0000     -10.280267      -279.7403
  14   2.0000     -10.279406      -279.7168
  15   2.0000     -10.279285      -279.7136
  16   2.0000      -8.082117      -219.9256
  17   2.0000      -8.077881      -219.8103
  18   2.0000      -6.040522      -164.3709
  19   2.0000      -6.036490      -164.2613
  20   2.0000      -6.036428      -164.2595
  21   2.0000      -6.033154      -164.1705
  22   2.0000      -6.032404      -164.1501
  23   2.0000      -6.028600      -164.0465
  24   2.0000      -1.003481       -27.3061
  25   2.0000      -0.978913       -26.6376
  26   2.0000      -0.918119       -24.9833
  27   2.0000      -0.908032       -24.7088
  28   2.0000      -0.868633       -23.6367
  29   2.0000      -0.847740       -23.0682
  30   2.0000      -0.840458       -22.8700
  31   2.0000      -0.813021       -22.1234
  32   2.0000      -0.788179       -21.4474
  33   2.0000      -0.776464       -21.1287
  34   2.0000      -0.710778       -19.3413
  35   2.0000      -0.701520       -19.0893
  36   2.0000      -0.689699       -18.7677
  37   2.0000      -0.650968       -17.7137
  38   2.0000      -0.645889       -17.5755
  39   2.0000      -0.615640       -16.7524
  40   2.0000      -0.596637       -16.2353
  41   2.0000      -0.576309       -15.6822
  42   2.0000      -0.566535       -15.4162
  43   2.0000      -0.549370       -14.9491
  44   2.0000      -0.539119       -14.6702
  45   2.0000      -0.520532       -14.1644
  46   2.0000      -0.517149       -14.0723
  47   2.0000      -0.512004       -13.9323
  48   2.0000      -0.504480       -13.7276
  49   2.0000      -0.502259       -13.6672
  50   2.0000      -0.493832       -13.4379
  51   2.0000      -0.478843       -13.0300
  52   2.0000      -0.470193       -12.7946
  53   2.0000      -0.467377       -12.7180
  54   2.0000      -0.456998       -12.4355
  55   2.0000      -0.447966       -12.1898
  56   2.0000      -0.442864       -12.0509
  57   2.0000      -0.433655       -11.8004
  58   2.0000      -0.431885       -11.7522
  59   2.0000      -0.425153       -11.5690
  60   2.0000      -0.424967       -11.5640
  61   2.0000      -0.420772       -11.4498
  62   2.0000      -0.407823       -11.0974
  63   2.0000      -0.336545        -9.1579
  64   2.0000      -0.331241        -9.0135
  65   2.0000      -0.316145        -8.6027
  66   2.0000      -0.308321        -8.3898
  67   0.0000       0.039345         1.0706
  68   0.0000       0.056110         1.5268
  69   0.0000       0.119923         3.2633
  70   0.0000       0.124734         3.3942
  71   0.0000       0.126259         3.4357

MULLIKEN ATOMIC CHARGES
-----------------------
   0 S :    0.128012
   1 C :   -0.059068
   2 C :   -0.122304
   3 C :    0.048662
   4 C :   -0.194442
   5 H :    0.019081
   6 C :    0.123548
   7 H :    0.036778
   8 H :    0.020505
   9 C :   -0.114914
  10 H :    0.028072
  11 H :    0.011443
  12 C :   -0.031388
  13 H :    0.012343
  14 H :    0.026657
  15 H :    0.042197
  16 S :    0.104869
  17 C :   -0.123944
  18 C :   -0.030505
  19 C :   -0.037836
  20 C :   -0.175474
  21 H :    0.032352
  22 C :    0.059510
  23 H :    0.034332
  24 H :    0.036237
  25 C :   -0.082142
  26 H :    0.014973
  27 H :    0.010302
  28 C :   -0.012922
  29 H :    0.044739
  30 H :    0.040886
  31 H :    0.028675
  32 H :   -0.002576
  33 H :    0.083343
Sum of atomic charges:   -0.0000000

LOEWDIN ATOMIC CHARGES
----------------------
   0 S :    0.431805
   1 C :   -0.187660
   2 C :   -0.057826
   3 C :   -0.057939
   4 C :   -0.205978
   5 H :    0.034531
   6 C :   -0.026348
   7 H :    0.033172
   8 H :    0.032877
   9 C :   -0.041669
  10 H :    0.024384
  11 H :    0.012932
  12 C :   -0.068828
  13 H :    0.020299
  14 H :    0.027148
  15 H :    0.030706
  16 S :    0.390663
  17 C :   -0.176908
  18 C :   -0.079113
  19 C :   -0.050304
  20 C :   -0.220835
  21 H :    0.034859
  22 C :   -0.033653
  23 H :    0.033975
  24 H :    0.039992
  25 C :   -0.052778
  26 H :    0.028963
  27 H :    0.015857
  28 C :   -0.057526
  29 H :    0.033396
  30 H :    0.024470
  31 H :    0.026193
  32 H :   -0.001365
  33 H :    0.042507

  Mayer bond orders larger than 0.100000
B(  0-S ,  1-C ) :   1.1512 B(  0-S ,  4-C ) :   1.1762 B(  1-C ,  2-C ) :   1.5870
B(  1-C ,  4-C ) :   0.1037 B(  1-C , 32-H ) :   0.9774 B(  2-C ,  3-C ) :   1.2693
B(  2-C ,  6-C ) :   1.0285 B(  3-C ,  4-C ) :   1.5573 B(  3-C ,  5-H ) :   0.9916
B(  4-C , 20-C ) :   1.0197 B(  6-C ,  7-H ) :   0.9315 B(  6-C ,  8-H ) :   0.9435
B(  6-C ,  9-C ) :   1.0595 B(  9-C , 10-H ) :   0.9515 B(  9-C , 11-H ) :   0.9600
B(  9-C , 12-C ) :   1.0819 B( 12-C , 13-H ) :   0.9706 B( 12-C , 14-H ) :   0.9728
B( 12-C , 15-H ) :   0.9749 B( 16-S , 17-C ) :   1.1432 B( 16-S , 20-C ) :   1.1487
B( 17-C , 18-C ) :   1.6180 B( 17-C , 33-H ) :   0.9602 B( 18-C , 19-C ) :   1.2397
B( 18-C , 21-H ) :   0.9776 B( 19-C , 20-C ) :   1.6070 B( 19-C , 22-C ) :   1.0173
B( 22-C , 23-H ) :   0.9332 B( 22-C , 24-H ) :   0.9295 B( 22-C , 25-C ) :   1.1032
B( 25-C , 26-H ) :   0.9437 B( 25-C , 27-H ) :   0.9411 B( 25-C , 28-C ) :   1.0661
B( 28-C , 29-H ) :   0.9727 B( 28-C , 30-H ) :   0.9782 B( 28-C , 31-H ) :   0.9733

Dispersion correction           -0.013882559
FINAL SINGLE POINT ENERGY     -1339.868985349088

DIPOLE MOMENT
-------------
                                X             Y             Z
Electronic contribution:     -6.34366      15.79566     -18.76811
Nuclear contribution   :      6.34373     -16.26982      19.17366
                        -----------------------------------------
Total Dipole Moment    :      0.00007      -0.47416       0.40555
                        -----------------------------------------
Magnitude (a.u.)       :      0.62394
Magnitude (Debye)      :      1.58593

Rotational constants in cm-1:     0.020891     0.007104     0.006071
Rotational constants in MHz :   626.304935   212.986126   181.989497

                             ****ORCA TERMINATED NORMALLY****
TOTAL RUN TIME: 0 days 0 hours 0 minutes 21 seconds 55 msec
