                         Program Version 4.2.1 -  RELEASE  -
|  1> ! wB97X-D3 SP def2-SVP
|  2> %pal
|  3> nprocs 24
|  4> end
|  5>
|  6> * xyz 0 1
|  7> S 	 -54.909 	 -47.8545 	 -79.535
|  8> C 	 -55.0506 	 -46.2591 	 -78.9513
|  9> C 	 -54.7836 	 -46.1193 	 -77.5887
| 10> C 	 -54.3833 	 -47.3336 	 -77.0359
| 11> C 	 -54.3419 	 -48.389 	 -77.9528
| 12> H 	 -54.1856 	 -47.5048 	 -76.0204
| 13> C 	 -54.8145 	 -44.8756 	 -76.7144
| 14> H 	 -54.9174 	 -43.9757 	 -77.2982
| 15> H 	 -53.8137 	 -44.8388 	 -76.3534
| 16> C 	 -55.688 	 -44.8396 	 -75.4141
| 17> H 	 -55.2705 	 -45.3973 	 -74.6504
| 18> H 	 -55.4807 	 -43.8887 	 -74.9735
| 19> C 	 -57.1953 	 -45.1396 	 -75.5942
| 20> H 	 -57.707 	 -45.239 	 -74.6742
| 21> H 	 -57.6559 	 -44.2152 	 -76.0977
| 22> H 	 -57.5129 	 -46.0893 	 -76.1461
| 23> S 	 -53.5722 	 -50.7414 	 -79.017
| 24> C 	 -52.7903 	 -51.9767 	 -78.0194
| 25> C 	 -52.9832 	 -51.7079 	 -76.6952
| 26> C 	 -53.6764 	 -50.4583 	 -76.4022
| 27> C 	 -53.8824 	 -49.7367 	 -77.5905
| 28> H 	 -52.4659 	 -52.3323 	 -75.9365
| 29> C 	 -53.9365 	 -50.1256 	 -75.0169
| 30> H 	 -54.4452 	 -49.2221 	 -74.9511
| 31> H 	 -52.9279 	 -49.9352 	 -74.5775
| 32> C 	 -54.6105 	 -51.1772 	 -74.1032
| 33> H 	 -54.1887 	 -52.137 	 -74.264
| 34> H 	 -55.6386 	 -51.3248 	 -74.4914
| 35> C 	 -54.5396 	 -50.6647 	 -72.599
| 36> H 	 -54.6839 	 -51.4407 	 -71.8907
| 37> H 	 -55.2185 	 -49.8831 	 -72.3829
| 38> H 	 -53.6111 	 -50.187 	 -72.3439
| 39> H 	 -55.3275 	 -45.4394 	 -79.521
| 40> H 	 -51.9416 	 -52.6872 	 -78.3636
| 41> *
| 42>
| 43>                          ****END OF INPUT****

CARTESIAN COORDINATES (ANGSTROEM)
---------------------------------
  S    -54.909000  -47.854500  -79.535000
  C    -55.050600  -46.259100  -78.951300
  C    -54.783600  -46.119300  -77.588700
  C    -54.383300  -47.333600  -77.035900
  C    -54.341900  -48.389000  -77.952800
  H    -54.185600  -47.504800  -76.020400
  C    -54.814500  -44.875600  -76.714400
  H    -54.917400  -43.975700  -77.298200
  H    -53.813700  -44.838800  -76.353400
  C    -55.688000  -44.839600  -75.414100
  H    -55.270500  -45.397300  -74.650400
  H    -55.480700  -43.888700  -74.973500
  C    -57.195300  -45.139600  -75.594200
  H    -57.707000  -45.239000  -74.674200
  H    -57.655900  -44.215200  -76.097700
  H    -57.512900  -46.089300  -76.146100
  S    -53.572200  -50.741400  -79.017000
  C    -52.790300  -51.976700  -78.019400
  C    -52.983200  -51.707900  -76.695200
  C    -53.676400  -50.458300  -76.402200
  C    -53.882400  -49.736700  -77.590500
  H    -52.465900  -52.332300  -75.936500
  C    -53.936500  -50.125600  -75.016900
  H    -54.445200  -49.222100  -74.951100
  H    -52.927900  -49.935200  -74.577500
  C    -54.610500  -51.177200  -74.103200
  H    -54.188700  -52.137000  -74.264000
  H    -55.638600  -51.324800  -74.491400
  C    -54.539600  -50.664700  -72.599000
  H    -54.683900  -51.440700  -71.890700
  H    -55.218500  -49.883100  -72.382900
  H    -53.611100  -50.187000  -72.343900
  H    -55.327500  -45.439400  -79.521000
  H    -51.941600  -52.687200  -78.363600

 Total Charge           Charge          ....    0
 Multiplicity           Mult            ....    1
 Number of Electrons    NEL             ....  134
 Basis Dimension        Dim             ....  322

ORBITAL ENERGIES
----------------

  NO   OCC          E(Eh)            E(eV)
   0   2.0000     -88.972401     -2421.0621
   1   2.0000     -88.959127     -2420.7009
   2   2.0000     -10.333525      -281.1895
   3   2.0000     -10.331327      -281.1297
   4   2.0000     -10.320526      -280.8358
   5   2.0000     -10.305961      -280.4395
   6   2.0000     -10.305804      -280.4352
   7   2.0000     -10.296986      -280.1952
   8   2.0000     -10.295772      -280.1622
   9   2.0000     -10.294389      -280.1246
  10   2.0000     -10.291224      -280.0385
  11   2.0000     -10.287730      -279.9434
  12   2.0000     -10.286681      -279.9148
  13   2.0000     -10.285496      -279.8826
  14   2.0000     -10.284857      -279.8652
  15   2.0000     -10.278459      -279.6911
  16   2.0000      -8.087084      -220.0608
  17   2.0000      -8.073791      -219.6990
  18   2.0000      -6.045602      -164.5092
  19   2.0000      -6.041669      -164.4022
  20   2.0000      -6.037788      -164.2966
  21   2.0000      -6.032566      -164.1545
  22   2.0000      -6.028487      -164.0435
  23   2.0000      -6.024122      -163.9247
  24   2.0000      -1.006474       -27.3876
  25   2.0000      -0.982783       -26.7429
  26   2.0000      -0.913945       -24.8697
  27   2.0000      -0.907581       -24.6965
  28   2.0000      -0.867543       -23.6070
  29   2.0000      -0.855778       -23.2869
  30   2.0000      -0.845863       -23.0171
  31   2.0000      -0.812265       -22.1028
  32   2.0000      -0.783649       -21.3242
  33   2.0000      -0.774983       -21.0884
  34   2.0000      -0.721167       -19.6240
  35   2.0000      -0.710154       -19.3243
  36   2.0000      -0.697272       -18.9737
  37   2.0000      -0.660112       -17.9626
  38   2.0000      -0.637574       -17.3493
  39   2.0000      -0.625782       -17.0284
  40   2.0000      -0.595464       -16.2034
  41   2.0000      -0.562757       -15.3134
  42   2.0000      -0.558417       -15.1953
  43   2.0000      -0.554431       -15.0868
  44   2.0000      -0.534702       -14.5500
  45   2.0000      -0.526661       -14.3312
  46   2.0000      -0.518455       -14.1079
  47   2.0000      -0.511945       -13.9307
  48   2.0000      -0.502023       -13.6607
  49   2.0000      -0.495848       -13.4927
  50   2.0000      -0.489078       -13.3085
  51   2.0000      -0.481139       -13.0925
  52   2.0000      -0.474850       -12.9213
  53   2.0000      -0.464523       -12.6403
  54   2.0000      -0.462630       -12.5888
  55   2.0000      -0.452742       -12.3197
  56   2.0000      -0.449919       -12.2429
  57   2.0000      -0.437751       -11.9118
  58   2.0000      -0.434184       -11.8147
  59   2.0000      -0.431878       -11.7520
  60   2.0000      -0.425796       -11.5865
  61   2.0000      -0.416186       -11.3250
  62   2.0000      -0.414658       -11.2834
  63   2.0000      -0.361023        -9.8239
  64   2.0000      -0.335423        -9.1273
  65   2.0000      -0.321038        -8.7359
  66   2.0000      -0.275109        -7.4861
  67   0.0000       0.017946         0.4883
  68   0.0000       0.081379         2.2144
  69   0.0000       0.095248         2.5918
  70   0.0000       0.117770         3.2047
  71   0.0000       0.134376         3.6566

MULLIKEN ATOMIC CHARGES
-----------------------
   0 S :    0.136819
   1 C :   -0.096216
   2 C :   -0.062447
   3 C :   -0.013120
   4 C :   -0.096499
   5 H :   -0.023001
   6 C :    0.080755
   7 H :    0.012725
   8 H :    0.022472
   9 C :   -0.018599
  10 H :   -0.002990
  11 H :    0.013573
  12 C :   -0.075650
  13 H :    0.023385
  14 H :    0.039866
  15 H :    0.060137
  16 S :    0.061314
  17 C :   -0.107216
  18 C :   -0.067723
  19 C :   -0.039185
  20 C :   -0.132530
  21 H :    0.039622
  22 C :    0.037025
  23 H :    0.007393
  24 H :    0.036540
  25 C :   -0.054774
  26 H :    0.020776
  27 H :    0.037890
  28 C :   -0.015544
  29 H :    0.030396
  30 H :    0.023383
  31 H :    0.015189
  32 H :    0.012948
  33 H :    0.093286
Sum of atomic charges:    0.0000000

LOEWDIN ATOMIC CHARGES
----------------------
   0 S :    0.424811
   1 C :   -0.203789
   2 C :   -0.060495
   3 C :   -0.058455
   4 C :   -0.190306
   5 H :    0.018591
   6 C :   -0.025821
   7 H :    0.025654
   8 H :    0.034262
   9 C :   -0.037342
  10 H :    0.011416
  11 H :    0.028351
  12 C :   -0.076335
  13 H :    0.018172
  14 H :    0.034296
  15 H :    0.039340
  16 S :    0.365729
  17 C :   -0.199395
  18 C :   -0.074329
  19 C :   -0.061967
  20 C :   -0.170387
  21 H :    0.036694
  22 C :   -0.038727
  23 H :    0.017339
  24 H :    0.040347
  25 C :   -0.025831
  26 H :    0.016259
  27 H :    0.031583
  28 C :   -0.058462
  29 H :    0.023556
  30 H :    0.023372
  31 H :    0.023743
  32 H :    0.013382
  33 H :    0.054743

  Mayer bond orders larger than 0.100000
B(  0-S ,  1-C ) :   1.1487 B(  0-S ,  4-C ) :   1.1484 B(  1-C ,  2-C ) :   1.5805
B(  1-C , 32-H ) :   0.9698 B(  2-C ,  3-C ) :   1.2751 B(  2-C ,  6-C ) :   1.0205
B(  3-C ,  4-C ) :   1.5370 B(  3-C ,  5-H ) :   1.0030 B(  4-C , 20-C ) :   1.0907
B(  6-C ,  7-H ) :   0.9442 B(  6-C ,  8-H ) :   0.9315 B(  6-C ,  9-C ) :   1.0789
B(  9-C , 10-H ) :   0.9499 B(  9-C , 11-H ) :   0.9462 B(  9-C , 12-C ) :   1.0672
B( 12-C , 13-H ) :   0.9747 B( 12-C , 14-H ) :   0.9774 B( 12-C , 15-H ) :   0.9747
B( 16-S , 17-C ) :   1.1218 B( 16-S , 20-C ) :   1.1162 B( 17-C , 18-C ) :   1.6784
B( 17-C , 33-H ) :   0.9486 B( 18-C , 19-C ) :   1.1860 B( 18-C , 21-H ) :   0.9738
B( 19-C , 20-C ) :   1.5911 B( 19-C , 22-C ) :   1.0708 B( 22-C , 23-H ) :   0.9271
B( 22-C , 24-H ) :   0.9245 B( 22-C , 25-C ) :   1.0553 B( 25-C , 26-H ) :   0.9606
B( 25-C , 27-H ) :   0.9546 B( 25-C , 28-C ) :   1.0609 B( 28-C , 29-H ) :   0.9769
B( 28-C , 30-H ) :   0.9760 B( 28-C , 31-H ) :   0.9757

Dispersion correction           -0.013703384
FINAL SINGLE POINT ENERGY     -1339.849280712131

DIPOLE MOMENT
-------------
                                X             Y             Z
Electronic contribution:      6.76361      -9.31911     -29.35033
Nuclear contribution   :     -6.61043       9.64704      30.26052
                        -----------------------------------------
Total Dipole Moment    :      0.15318       0.32794       0.91020
                        -----------------------------------------
Magnitude (a.u.)       :      0.97952
Magnitude (Debye)      :      2.48975

Rotational constants in cm-1:     0.015836     0.009850     0.006420
Rotational constants in MHz :   474.753709   295.281830   192.472001

                             ****ORCA TERMINATED NORMALLY****
TOTAL RUN TIME: 0 days 0 hours 0 minutes 21 seconds 470 msec
