                         Program Version 4.2.1 -  RELEASE  -
|  1> ! wB97X-D3 SP def2-SVP
|  2> %pal
|  3> nprocs 24
|  4> end
|  5>
|  6> * xyz 0 1
|  7> S 	 -84.7322 	 -18.3543 	 -49.1661
|  8> C 	 -85.1045 	 -16.6754 	 -48.9482
|  9> C 	 -83.904 	 -15.9299 	 -48.8769
| 10> C 	 -82.7453 	 -16.7794 	 -48.6999
| 11> C 	 -83.0367 	 -18.127 	 -48.8743
| 12> H 	 -81.6922 	 -16.593 	 -48.4713
| 13> C 	 -83.8602 	 -14.4122 	 -48.5891
| 14> H 	 -82.9317 	 -14.1998 	 -48.0585
| 15> H 	 -84.5222 	 -14.2221 	 -47.7754
| 16> C 	 -84.3056 	 -13.4625 	 -49.7449
| 17> H 	 -83.5735 	 -13.7762 	 -50.5706
| 18> H 	 -85.2932 	 -13.7303 	 -50.1158
| 19> C 	 -84.1059 	 -12.0014 	 -49.4549
| 20> H 	 -84.3531 	 -11.4104 	 -50.3187
| 21> H 	 -84.8073 	 -11.6828 	 -48.6325
| 22> H 	 -83.0203 	 -11.8411 	 -49.2193
| 23> S 	 -82.4949 	 -20.2632 	 -47.2761
| 24> C 	 -80.9642 	 -21.095 	 -47.5512
| 25> C 	 -80.1445 	 -20.4902 	 -48.4963
| 26> C 	 -80.8141 	 -19.407 	 -49.157
| 27> C 	 -82.142 	 -19.2265 	 -48.7058
| 28> H 	 -79.2064 	 -20.9262 	 -48.749
| 29> C 	 -80.1115 	 -18.6202 	 -50.2356
| 30> H 	 -79.0056 	 -18.7861 	 -50.1846
| 31> H 	 -80.2085 	 -17.5501 	 -49.9654
| 32> C 	 -80.706 	 -18.9591 	 -51.5964
| 33> H 	 -81.7946 	 -18.6906 	 -51.5791
| 34> H 	 -80.5304 	 -19.9831 	 -51.9077
| 35> C 	 -80.049 	 -18.318 	 -52.8425
| 36> H 	 -79.0048 	 -18.382 	 -52.6928
| 37> H 	 -80.3795 	 -17.3016 	 -53.1195
| 38> H 	 -80.4453 	 -18.8815 	 -53.6971
| 39> H 	 -85.9846 	 -16.1097 	 -49.1468
| 40> H 	 -80.6883 	 -21.9902 	 -47.0378
| 41> *
| 42>
| 43>                          ****END OF INPUT****

CARTESIAN COORDINATES (ANGSTROEM)
---------------------------------
  S    -84.732200  -18.354300  -49.166100
  C    -85.104500  -16.675400  -48.948200
  C    -83.904000  -15.929900  -48.876900
  C    -82.745300  -16.779400  -48.699900
  C    -83.036700  -18.127000  -48.874300
  H    -81.692200  -16.593000  -48.471300
  C    -83.860200  -14.412200  -48.589100
  H    -82.931700  -14.199800  -48.058500
  H    -84.522200  -14.222100  -47.775400
  C    -84.305600  -13.462500  -49.744900
  H    -83.573500  -13.776200  -50.570600
  H    -85.293200  -13.730300  -50.115800
  C    -84.105900  -12.001400  -49.454900
  H    -84.353100  -11.410400  -50.318700
  H    -84.807300  -11.682800  -48.632500
  H    -83.020300  -11.841100  -49.219300
  S    -82.494900  -20.263200  -47.276100
  C    -80.964200  -21.095000  -47.551200
  C    -80.144500  -20.490200  -48.496300
  C    -80.814100  -19.407000  -49.157000
  C    -82.142000  -19.226500  -48.705800
  H    -79.206400  -20.926200  -48.749000
  C    -80.111500  -18.620200  -50.235600
  H    -79.005600  -18.786100  -50.184600
  H    -80.208500  -17.550100  -49.965400
  C    -80.706000  -18.959100  -51.596400
  H    -81.794600  -18.690600  -51.579100
  H    -80.530400  -19.983100  -51.907700
  C    -80.049000  -18.318000  -52.842500
  H    -79.004800  -18.382000  -52.692800
  H    -80.379500  -17.301600  -53.119500
  H    -80.445300  -18.881500  -53.697100
  H    -85.984600  -16.109700  -49.146800
  H    -80.688300  -21.990200  -47.037800

 Total Charge           Charge          ....    0
 Multiplicity           Mult            ....    1
 Number of Electrons    NEL             ....  134
 Basis Dimension        Dim             ....  322

ORBITAL ENERGIES
----------------

  NO   OCC          E(Eh)            E(eV)
   0   2.0000     -88.967792     -2420.9367
   1   2.0000     -88.966757     -2420.9085
   2   2.0000     -10.327082      -281.0142
   3   2.0000     -10.323868      -280.9267
   4   2.0000     -10.318754      -280.7876
   5   2.0000     -10.313515      -280.6450
   6   2.0000     -10.309225      -280.5283
   7   2.0000     -10.307398      -280.4786
   8   2.0000     -10.297198      -280.2010
   9   2.0000     -10.296692      -280.1872
  10   2.0000     -10.294623      -280.1309
  11   2.0000     -10.292857      -280.0829
  12   2.0000     -10.289912      -280.0028
  13   2.0000     -10.285966      -279.8954
  14   2.0000     -10.284932      -279.8672
  15   2.0000     -10.273967      -279.5688
  16   2.0000      -8.082624      -219.9394
  17   2.0000      -8.080551      -219.8830
  18   2.0000      -6.041109      -164.3869
  19   2.0000      -6.039016      -164.3300
  20   2.0000      -6.036933      -164.2733
  21   2.0000      -6.035357      -164.2304
  22   2.0000      -6.033576      -164.1819
  23   2.0000      -6.031244      -164.1185
  24   2.0000      -1.004352       -27.3298
  25   2.0000      -0.977707       -26.6048
  26   2.0000      -0.908731       -24.7278
  27   2.0000      -0.907360       -24.6905
  28   2.0000      -0.871048       -23.7024
  29   2.0000      -0.852222       -23.1901
  30   2.0000      -0.846927       -23.0461
  31   2.0000      -0.812504       -22.1094
  32   2.0000      -0.782884       -21.3033
  33   2.0000      -0.768174       -20.9031
  34   2.0000      -0.705234       -19.1904
  35   2.0000      -0.697588       -18.9823
  36   2.0000      -0.686294       -18.6750
  37   2.0000      -0.664479       -18.0814
  38   2.0000      -0.643027       -17.4977
  39   2.0000      -0.609537       -16.5863
  40   2.0000      -0.592731       -16.1290
  41   2.0000      -0.570922       -15.5356
  42   2.0000      -0.566844       -15.4246
  43   2.0000      -0.559470       -15.2239
  44   2.0000      -0.533501       -14.5173
  45   2.0000      -0.522550       -14.2193
  46   2.0000      -0.520049       -14.1513
  47   2.0000      -0.507083       -13.7984
  48   2.0000      -0.500764       -13.6265
  49   2.0000      -0.499549       -13.5934
  50   2.0000      -0.496099       -13.4995
  51   2.0000      -0.488366       -13.2891
  52   2.0000      -0.469331       -12.7712
  53   2.0000      -0.461536       -12.5590
  54   2.0000      -0.458298       -12.4709
  55   2.0000      -0.446766       -12.1571
  56   2.0000      -0.441830       -12.0228
  57   2.0000      -0.433476       -11.7955
  58   2.0000      -0.431409       -11.7392
  59   2.0000      -0.421595       -11.4722
  60   2.0000      -0.421111       -11.4590
  61   2.0000      -0.410463       -11.1693
  62   2.0000      -0.405755       -11.0411
  63   2.0000      -0.343786        -9.3549
  64   2.0000      -0.329920        -8.9776
  65   2.0000      -0.326877        -8.8948
  66   2.0000      -0.292058        -7.9473
  67   0.0000       0.024307         0.6614
  68   0.0000       0.063127         1.7178
  69   0.0000       0.104306         2.8383
  70   0.0000       0.118475         3.2239
  71   0.0000       0.127717         3.4754

MULLIKEN ATOMIC CHARGES
-----------------------
   0 S :    0.124681
   1 C :   -0.082846
   2 C :   -0.099645
   3 C :    0.033837
   4 C :   -0.196251
   5 H :    0.021706
   6 C :    0.043886
   7 H :    0.015184
   8 H :    0.016957
   9 C :   -0.100550
  10 H :    0.035294
  11 H :    0.029430
  12 C :   -0.038329
  13 H :    0.035897
  14 H :    0.039639
  15 H :    0.042714
  16 S :    0.104410
  17 C :   -0.080070
  18 C :   -0.023893
  19 C :   -0.045313
  20 C :   -0.141867
  21 H :    0.012106
  22 C :    0.080287
  23 H :    0.021722
  24 H :    0.025898
  25 C :   -0.103290
  26 H :    0.052217
  27 H :    0.032135
  28 C :   -0.034518
  29 H :    0.026065
  30 H :    0.027973
  31 H :    0.031021
  32 H :    0.044376
  33 H :    0.049139
Sum of atomic charges:    0.0000000

LOEWDIN ATOMIC CHARGES
----------------------
   0 S :    0.425821
   1 C :   -0.206407
   2 C :   -0.057169
   3 C :   -0.063790
   4 C :   -0.213761
   5 H :    0.034648
   6 C :   -0.040288
   7 H :    0.030245
   8 H :    0.025260
   9 C :   -0.047031
  10 H :    0.030323
  11 H :    0.020077
  12 C :   -0.068643
  13 H :    0.025345
  14 H :    0.030355
  15 H :    0.034170
  16 S :    0.387572
  17 C :   -0.167377
  18 C :   -0.068868
  19 C :   -0.041240
  20 C :   -0.196725
  21 H :    0.028749
  22 C :   -0.038846
  23 H :    0.031786
  24 H :    0.032236
  25 C :   -0.041803
  26 H :    0.034077
  27 H :    0.028330
  28 C :   -0.065201
  29 H :    0.017416
  30 H :    0.022270
  31 H :    0.029376
  32 H :    0.026755
  33 H :    0.022337

  Mayer bond orders larger than 0.100000
B(  0-S ,  1-C ) :   1.1493 B(  0-S ,  4-C ) :   1.1542 B(  1-C ,  2-C ) :   1.5917
B(  1-C , 32-H ) :   0.9666 B(  2-C ,  3-C ) :   1.2363 B(  2-C ,  6-C ) :   1.0185
B(  3-C ,  4-C ) :   1.5732 B(  3-C ,  5-H ) :   0.9842 B(  4-C , 20-C ) :   1.0434
B(  6-C ,  7-H ) :   0.9509 B(  6-C ,  8-H ) :   0.9431 B(  6-C ,  9-C ) :   1.0336
B(  9-C , 10-H ) :   0.9590 B(  9-C , 11-H ) :   0.9571 B(  9-C , 12-C ) :   1.0878
B( 12-C , 13-H ) :   0.9721 B( 12-C , 14-H ) :   0.9722 B( 12-C , 15-H ) :   0.9724
B( 16-S , 17-C ) :   1.1600 B( 16-S , 20-C ) :   1.1266 B( 17-C , 18-C ) :   1.6112
B( 17-C , 20-C ) :   0.1036 B( 17-C , 33-H ) :   0.9672 B( 18-C , 19-C ) :   1.2415
B( 18-C , 21-H ) :   0.9939 B( 19-C , 20-C ) :   1.5808 B( 19-C , 22-C ) :   1.0455
B( 22-C , 23-H ) :   0.9322 B( 22-C , 24-H ) :   0.9261 B( 22-C , 25-C ) :   1.0688
B( 25-C , 26-H ) :   0.9551 B( 25-C , 27-H ) :   0.9624 B( 25-C , 28-C ) :   1.0722
B( 28-C , 29-H ) :   0.9748 B( 28-C , 30-H ) :   0.9747 B( 28-C , 31-H ) :   0.9795

Dispersion correction           -0.013857483
FINAL SINGLE POINT ENERGY     -1339.863077794462

DIPOLE MOMENT
-------------
                                X             Y             Z
Electronic contribution:     -8.57732     -22.77489      15.31136
Nuclear contribution   :      9.01529      23.18001     -15.49037
                        -----------------------------------------
Total Dipole Moment    :      0.43796       0.40512      -0.17901
                        -----------------------------------------
Magnitude (a.u.)       :      0.62288
Magnitude (Debye)      :      1.58324

Rotational constants in cm-1:     0.018484     0.008015     0.006470
Rotational constants in MHz :   554.134001   240.292602   193.974501

                             ****ORCA TERMINATED NORMALLY****
TOTAL RUN TIME: 0 days 0 hours 0 minutes 21 seconds 309 msec
