                         Program Version 4.2.1 -  RELEASE  -
|  1> ! wB97X-D3 SP def2-SVP
|  2> %pal
|  3> nprocs 24
|  4> end
|  5>
|  6> * xyz 0 1
|  7> S 	 46.93 	 -32.0893 	 -118.526
|  8> C 	 47.5458 	 -30.7203 	 -119.507
|  9> C 	 46.7826 	 -30.632 	 -120.711
| 10> C 	 45.9093 	 -31.7247 	 -120.847
| 11> C 	 45.8526 	 -32.6281 	 -119.788
| 12> H 	 45.2064 	 -31.8853 	 -121.664
| 13> C 	 46.9019 	 -29.5346 	 -121.711
| 14> H 	 46.6113 	 -28.5442 	 -121.274
| 15> H 	 46.1966 	 -29.781 	 -122.455
| 16> C 	 48.282 	 -29.2033 	 -122.255
| 17> H 	 48.2884 	 -28.1584 	 -122.454
| 18> H 	 49.072 	 -29.4132 	 -121.541
| 19> C 	 48.57 	 -30.1417 	 -123.539
| 20> H 	 49.3178 	 -29.6756 	 -124.155
| 21> H 	 48.8631 	 -31.1459 	 -123.216
| 22> H 	 47.6925 	 -30.139 	 -124.166
| 23> S 	 45.7765 	 -35.2529 	 -118.725
| 24> C 	 44.5151 	 -36.3114 	 -119.286
| 25> C 	 43.5968 	 -35.6654 	 -120.01
| 26> C 	 43.8482 	 -34.2676 	 -120.192
| 27> C 	 45.0779 	 -33.8578 	 -119.654
| 28> H 	 42.836 	 -36.3275 	 -120.411
| 29> C 	 42.9164 	 -33.3951 	 -120.999
| 30> H 	 43.2887 	 -33.4707 	 -122.02
| 31> H 	 42.9512 	 -32.3373 	 -120.664
| 32> C 	 41.4678 	 -33.723 	 -121.031
| 33> H 	 41.0038 	 -33.6391 	 -120.05
| 34> H 	 41.4357 	 -34.701 	 -121.457
| 35> C 	 40.7317 	 -32.883 	 -121.998
| 36> H 	 39.718 	 -33.2109 	 -122.015
| 37> H 	 41.0819 	 -33.0549 	 -123.026
| 38> H 	 40.8584 	 -31.8244 	 -121.825
| 39> H 	 48.4349 	 -30.0789 	 -119.331
| 40> H 	 44.4296 	 -37.4261 	 -119.093
| 41> *
| 42>
| 43>                          ****END OF INPUT****

CARTESIAN COORDINATES (ANGSTROEM)
---------------------------------
  S     46.930000  -32.089300  -118.526000
  C     47.545800  -30.720300  -119.507000
  C     46.782600  -30.632000  -120.711000
  C     45.909300  -31.724700  -120.847000
  C     45.852600  -32.628100  -119.788000
  H     45.206400  -31.885300  -121.664000
  C     46.901900  -29.534600  -121.711000
  H     46.611300  -28.544200  -121.274000
  H     46.196600  -29.781000  -122.455000
  C     48.282000  -29.203300  -122.255000
  H     48.288400  -28.158400  -122.454000
  H     49.072000  -29.413200  -121.541000
  C     48.570000  -30.141700  -123.539000
  H     49.317800  -29.675600  -124.155000
  H     48.863100  -31.145900  -123.216000
  H     47.692500  -30.139000  -124.166000
  S     45.776500  -35.252900  -118.725000
  C     44.515100  -36.311400  -119.286000
  C     43.596800  -35.665400  -120.010000
  C     43.848200  -34.267600  -120.192000
  C     45.077900  -33.857800  -119.654000
  H     42.836000  -36.327500  -120.411000
  C     42.916400  -33.395100  -120.999000
  H     43.288700  -33.470700  -122.020000
  H     42.951200  -32.337300  -120.664000
  C     41.467800  -33.723000  -121.031000
  H     41.003800  -33.639100  -120.050000
  H     41.435700  -34.701000  -121.457000
  C     40.731700  -32.883000  -121.998000
  H     39.718000  -33.210900  -122.015000
  H     41.081900  -33.054900  -123.026000
  H     40.858400  -31.824400  -121.825000
  H     48.434900  -30.078900  -119.331000
  H     44.429600  -37.426100  -119.093000

 Total Charge           Charge          ....    0
 Multiplicity           Mult            ....    1
 Number of Electrons    NEL             ....  134
 Basis Dimension        Dim             ....  322

ORBITAL ENERGIES
----------------

  NO   OCC          E(Eh)            E(eV)
   0   2.0000     -88.968058     -2420.9439
   1   2.0000     -88.963183     -2420.8113
   2   2.0000     -10.334829      -281.2250
   3   2.0000     -10.332464      -281.1606
   4   2.0000     -10.320933      -280.8469
   5   2.0000     -10.318063      -280.7688
   6   2.0000     -10.309311      -280.5306
   7   2.0000     -10.302108      -280.3346
   8   2.0000     -10.292883      -280.0836
   9   2.0000     -10.289897      -280.0023
  10   2.0000     -10.289700      -279.9970
  11   2.0000     -10.288093      -279.9533
  12   2.0000     -10.287497      -279.9370
  13   2.0000     -10.278337      -279.6878
  14   2.0000     -10.277544      -279.6662
  15   2.0000     -10.273159      -279.5469
  16   2.0000      -8.081774      -219.9162
  17   2.0000      -8.077382      -219.7967
  18   2.0000      -6.040345      -164.3661
  19   2.0000      -6.036313      -164.2564
  20   2.0000      -6.036059      -164.2495
  21   2.0000      -6.032636      -164.1564
  22   2.0000      -6.032046      -164.1403
  23   2.0000      -6.027903      -164.0276
  24   2.0000      -1.002205       -27.2714
  25   2.0000      -0.981174       -26.6991
  26   2.0000      -0.926304       -25.2060
  27   2.0000      -0.913572       -24.8596
  28   2.0000      -0.866833       -23.5877
  29   2.0000      -0.855391       -23.2764
  30   2.0000      -0.841345       -22.8942
  31   2.0000      -0.813150       -22.1269
  32   2.0000      -0.784348       -21.3432
  33   2.0000      -0.772348       -21.0167
  34   2.0000      -0.713358       -19.4115
  35   2.0000      -0.704676       -19.1752
  36   2.0000      -0.695096       -18.9145
  37   2.0000      -0.648659       -17.6509
  38   2.0000      -0.632185       -17.2026
  39   2.0000      -0.616213       -16.7680
  40   2.0000      -0.600397       -16.3376
  41   2.0000      -0.587579       -15.9888
  42   2.0000      -0.578346       -15.7376
  43   2.0000      -0.549648       -14.9567
  44   2.0000      -0.540926       -14.7194
  45   2.0000      -0.530044       -14.4232
  46   2.0000      -0.515095       -14.0164
  47   2.0000      -0.510323       -13.8866
  48   2.0000      -0.504788       -13.7360
  49   2.0000      -0.502999       -13.6873
  50   2.0000      -0.489046       -13.3076
  51   2.0000      -0.478348       -13.0165
  52   2.0000      -0.474460       -12.9107
  53   2.0000      -0.463343       -12.6082
  54   2.0000      -0.461733       -12.5644
  55   2.0000      -0.450136       -12.2488
  56   2.0000      -0.442305       -12.0357
  57   2.0000      -0.441791       -12.0217
  58   2.0000      -0.432646       -11.7729
  59   2.0000      -0.425072       -11.5668
  60   2.0000      -0.418986       -11.4012
  61   2.0000      -0.417005       -11.3473
  62   2.0000      -0.410783       -11.1780
  63   2.0000      -0.352162        -9.5828
  64   2.0000      -0.331852        -9.0302
  65   2.0000      -0.328532        -8.9398
  66   2.0000      -0.281711        -7.6658
  67   0.0000       0.016782         0.4567
  68   0.0000       0.077353         2.1049
  69   0.0000       0.098875         2.6905
  70   0.0000       0.126167         3.4332
  71   0.0000       0.135613         3.6902

MULLIKEN ATOMIC CHARGES
-----------------------
   0 S :    0.107726
   1 C :   -0.141137
   2 C :   -0.090274
   3 C :    0.007029
   4 C :   -0.144605
   5 H :    0.005027
   6 C :    0.074985
   7 H :    0.042804
   8 H :    0.005156
   9 C :   -0.066372
  10 H :    0.022105
  11 H :    0.029154
  12 C :   -0.054063
  13 H :    0.029011
  14 H :    0.053517
  15 H :    0.021548
  16 S :    0.089083
  17 C :   -0.105857
  18 C :   -0.052811
  19 C :   -0.002149
  20 C :   -0.128017
  21 H :    0.021796
  22 C :   -0.000084
  23 H :    0.040602
  24 H :    0.035711
  25 C :   -0.051760
  26 H :    0.039530
  27 H :    0.015213
  28 C :   -0.014202
  29 H :    0.028392
  30 H :    0.014571
  31 H :    0.025419
  32 H :    0.065728
  33 H :    0.077224
Sum of atomic charges:    0.0000000

LOEWDIN ATOMIC CHARGES
----------------------
   0 S :    0.400474
   1 C :   -0.201130
   2 C :   -0.060927
   3 C :   -0.073652
   4 C :   -0.191812
   5 H :    0.029971
   6 C :   -0.034477
   7 H :    0.042316
   8 H :    0.021714
   9 C :   -0.029978
  10 H :    0.018459
  11 H :    0.022754
  12 C :   -0.059406
  13 H :    0.021741
  14 H :    0.031210
  15 H :    0.019527
  16 S :    0.373476
  17 C :   -0.187998
  18 C :   -0.086610
  19 C :   -0.048095
  20 C :   -0.178338
  21 H :    0.035808
  22 C :   -0.039439
  23 H :    0.033735
  24 H :    0.033606
  25 C :   -0.042282
  26 H :    0.028411
  27 H :    0.021358
  28 C :   -0.056610
  29 H :    0.025738
  30 H :    0.024747
  31 H :    0.021660
  32 H :    0.036201
  33 H :    0.047846

  Mayer bond orders larger than 0.100000
B(  0-S ,  1-C ) :   1.1421 B(  0-S ,  4-C ) :   1.1570 B(  1-C ,  2-C ) :   1.5512
B(  1-C ,  4-C ) :   0.1120 B(  1-C , 32-H ) :   0.9637 B(  2-C ,  3-C ) :   1.2846
B(  2-C ,  6-C ) :   1.0330 B(  3-C ,  4-C ) :   1.5373 B(  3-C ,  5-H ) :   0.9857
B(  4-C , 20-C ) :   1.0844 B(  6-C ,  7-H ) :   0.9339 B(  6-C ,  8-H ) :   0.9435
B(  6-C ,  9-C ) :   1.0651 B(  9-C , 10-H ) :   0.9600 B(  9-C , 11-H ) :   0.9615
B(  9-C , 12-C ) :   1.0612 B( 12-C , 13-H ) :   0.9782 B( 12-C , 14-H ) :   0.9807
B( 12-C , 15-H ) :   0.9810 B( 16-S , 17-C ) :   1.1419 B( 16-S , 20-C ) :   1.1107
B( 17-C , 18-C ) :   1.6661 B( 17-C , 33-H ) :   0.9508 B( 18-C , 19-C ) :   1.1993
B( 18-C , 21-H ) :   0.9888 B( 19-C , 20-C ) :   1.5981 B( 19-C , 22-C ) :   1.0366
B( 22-C , 23-H ) :   0.9261 B( 22-C , 24-H ) :   0.9359 B( 22-C , 25-C ) :   1.0910
B( 25-C , 26-H ) :   0.9534 B( 25-C , 27-H ) :   0.9333 B( 25-C , 28-C ) :   1.1072
B( 28-C , 29-H ) :   0.9682 B( 28-C , 30-H ) :   0.9682 B( 28-C , 31-H ) :   0.9709

Dispersion correction           -0.013339145
FINAL SINGLE POINT ENERGY     -1339.866701524555

DIPOLE MOMENT
-------------
                                X             Y             Z
Electronic contribution:      9.47209     -13.55809      22.82120
Nuclear contribution   :     -9.88469      13.72919     -23.52134
                        -----------------------------------------
Total Dipole Moment    :     -0.41260       0.17110      -0.70015
                        -----------------------------------------
Magnitude (a.u.)       :      0.83049
Magnitude (Debye)      :      2.11095

Rotational constants in cm-1:     0.017513     0.008171     0.006249
Rotational constants in MHz :   525.032594   244.965455   187.330148

                             ****ORCA TERMINATED NORMALLY****
TOTAL RUN TIME: 0 days 0 hours 0 minutes 21 seconds 13 msec
