                         Program Version 4.2.1 -  RELEASE  -
|  1> ! wB97X-D3 SP def2-SVP
|  2> %pal
|  3> nprocs 24
|  4> end
|  5>
|  6> * xyz 0 1
|  7> S 	 -42.5976 	 18.9544 	 -95.1549
|  8> C 	 -41.2313 	 19.4101 	 -93.976
|  9> C 	 -41.1737 	 18.4421 	 -93.0647
| 10> C 	 -42.1926 	 17.4612 	 -93.1098
| 11> C 	 -43.0692 	 17.6328 	 -94.1923
| 12> H 	 -42.4731 	 16.6265 	 -92.4173
| 13> C 	 -40.1257 	 18.3097 	 -91.9634
| 14> H 	 -40.6848 	 17.9401 	 -91.0921
| 15> H 	 -39.9013 	 19.3339 	 -91.597
| 16> C 	 -38.9299 	 17.4284 	 -92.2586
| 17> H 	 -38.4895 	 17.9507 	 -93.1072
| 18> H 	 -38.2193 	 17.4696 	 -91.4727
| 19> C 	 -39.2007 	 15.963 	 -92.6409
| 20> H 	 -38.2379 	 15.5139 	 -92.843
| 21> H 	 -39.6635 	 15.5126 	 -91.8066
| 22> H 	 -39.7902 	 15.8328 	 -93.5018
| 23> S 	 -45.6375 	 17.712 	 -95.2367
| 24> C 	 -46.6077 	 16.2567 	 -95.3128
| 25> C 	 -45.8604 	 15.1874 	 -94.9014
| 26> C 	 -44.5082 	 15.485 	 -94.5018
| 27> C 	 -44.2283 	 16.8519 	 -94.6475
| 28> H 	 -46.2617 	 14.1587 	 -94.7258
| 29> C 	 -43.5009 	 14.3969 	 -93.8779
| 30> H 	 -43.5482 	 14.5263 	 -92.8399
| 31> H 	 -42.4201 	 14.568 	 -94.1416
| 32> C 	 -43.8903 	 12.862 	 -94.1424
| 33> H 	 -44.8361 	 12.7504 	 -93.5358
| 34> H 	 -43.0267 	 12.2252 	 -93.8553
| 35> C 	 -44.3539 	 12.5094 	 -95.5325
| 36> H 	 -43.7779 	 11.7356 	 -96.0469
| 37> H 	 -44.48 	 13.4264 	 -96.0702
| 38> H 	 -45.3867 	 12.129 	 -95.5323
| 39> H 	 -40.3837 	 20.0376 	 -94.1981
| 40> H 	 -47.6509 	 16.122 	 -95.6715
| 41> *
| 42>
| 43>                          ****END OF INPUT****

CARTESIAN COORDINATES (ANGSTROEM)
---------------------------------
  S    -42.597600   18.954400  -95.154900
  C    -41.231300   19.410100  -93.976000
  C    -41.173700   18.442100  -93.064700
  C    -42.192600   17.461200  -93.109800
  C    -43.069200   17.632800  -94.192300
  H    -42.473100   16.626500  -92.417300
  C    -40.125700   18.309700  -91.963400
  H    -40.684800   17.940100  -91.092100
  H    -39.901300   19.333900  -91.597000
  C    -38.929900   17.428400  -92.258600
  H    -38.489500   17.950700  -93.107200
  H    -38.219300   17.469600  -91.472700
  C    -39.200700   15.963000  -92.640900
  H    -38.237900   15.513900  -92.843000
  H    -39.663500   15.512600  -91.806600
  H    -39.790200   15.832800  -93.501800
  S    -45.637500   17.712000  -95.236700
  C    -46.607700   16.256700  -95.312800
  C    -45.860400   15.187400  -94.901400
  C    -44.508200   15.485000  -94.501800
  C    -44.228300   16.851900  -94.647500
  H    -46.261700   14.158700  -94.725800
  C    -43.500900   14.396900  -93.877900
  H    -43.548200   14.526300  -92.839900
  H    -42.420100   14.568000  -94.141600
  C    -43.890300   12.862000  -94.142400
  H    -44.836100   12.750400  -93.535800
  H    -43.026700   12.225200  -93.855300
  C    -44.353900   12.509400  -95.532500
  H    -43.777900   11.735600  -96.046900
  H    -44.480000   13.426400  -96.070200
  H    -45.386700   12.129000  -95.532300
  H    -40.383700   20.037600  -94.198100
  H    -47.650900   16.122000  -95.671500

 Total Charge           Charge          ....    0
 Multiplicity           Mult            ....    1
 Number of Electrons    NEL             ....  134
 Basis Dimension        Dim             ....  322

ORBITAL ENERGIES
----------------

  NO   OCC          E(Eh)            E(eV)
   0   2.0000     -88.970521     -2421.0110
   1   2.0000     -88.963104     -2420.8091
   2   2.0000     -10.333378      -281.1855
   3   2.0000     -10.333098      -281.1779
   4   2.0000     -10.324310      -280.9388
   5   2.0000     -10.315225      -280.6915
   6   2.0000     -10.314374      -280.6684
   7   2.0000     -10.305208      -280.4190
   8   2.0000     -10.300910      -280.3020
   9   2.0000     -10.299123      -280.2534
  10   2.0000     -10.297865      -280.2191
  11   2.0000     -10.296484      -280.1816
  12   2.0000     -10.291719      -280.0519
  13   2.0000     -10.284110      -279.8449
  14   2.0000     -10.272276      -279.5228
  15   2.0000     -10.271139      -279.4919
  16   2.0000      -8.084998      -220.0040
  17   2.0000      -8.077532      -219.8008
  18   2.0000      -6.043640      -164.4558
  19   2.0000      -6.039468      -164.3423
  20   2.0000      -6.036156      -164.2522
  21   2.0000      -6.035657      -164.2386
  22   2.0000      -6.032091      -164.1416
  23   2.0000      -6.028138      -164.0340
  24   2.0000      -1.008438       -27.4410
  25   2.0000      -0.985114       -26.8063
  26   2.0000      -0.916156       -24.9299
  27   2.0000      -0.902560       -24.5599
  28   2.0000      -0.874328       -23.7917
  29   2.0000      -0.847855       -23.0713
  30   2.0000      -0.837618       -22.7927
  31   2.0000      -0.815212       -22.1831
  32   2.0000      -0.791653       -21.5420
  33   2.0000      -0.781395       -21.2628
  34   2.0000      -0.707711       -19.2578
  35   2.0000      -0.705752       -19.2045
  36   2.0000      -0.688374       -18.7316
  37   2.0000      -0.656283       -17.8584
  38   2.0000      -0.636543       -17.3212
  39   2.0000      -0.610178       -16.6038
  40   2.0000      -0.595018       -16.1913
  41   2.0000      -0.578244       -15.7348
  42   2.0000      -0.557730       -15.1766
  43   2.0000      -0.549563       -14.9544
  44   2.0000      -0.547006       -14.8848
  45   2.0000      -0.542307       -14.7569
  46   2.0000      -0.516474       -14.0540
  47   2.0000      -0.512540       -13.9469
  48   2.0000      -0.507038       -13.7972
  49   2.0000      -0.492470       -13.4008
  50   2.0000      -0.489781       -13.3276
  51   2.0000      -0.484697       -13.1893
  52   2.0000      -0.475581       -12.9412
  53   2.0000      -0.466461       -12.6930
  54   2.0000      -0.462870       -12.5953
  55   2.0000      -0.446993       -12.1633
  56   2.0000      -0.445740       -12.1292
  57   2.0000      -0.439597       -11.9620
  58   2.0000      -0.435946       -11.8627
  59   2.0000      -0.422736       -11.5032
  60   2.0000      -0.416924       -11.3451
  61   2.0000      -0.408338       -11.1114
  62   2.0000      -0.400362       -10.8944
  63   2.0000      -0.357895        -9.7388
  64   2.0000      -0.335003        -9.1159
  65   2.0000      -0.329864        -8.9760
  66   2.0000      -0.293503        -7.9866
  67   0.0000       0.021204         0.5770
  68   0.0000       0.076283         2.0758
  69   0.0000       0.096282         2.6200
  70   0.0000       0.120082         3.2676
  71   0.0000       0.129450         3.5225

MULLIKEN ATOMIC CHARGES
-----------------------
   0 S :    0.073292
   1 C :   -0.112364
   2 C :   -0.088757
   3 C :   -0.004875
   4 C :   -0.139703
   5 H :    0.025094
   6 C :    0.039369
   7 H :    0.016192
   8 H :    0.026703
   9 C :   -0.034770
  10 H :    0.013722
  11 H :    0.024455
  12 C :   -0.013969
  13 H :    0.030915
  14 H :    0.019238
  15 H :    0.036499
  16 S :    0.117009
  17 C :   -0.091981
  18 C :   -0.059219
  19 C :   -0.069047
  20 C :   -0.137170
  21 H :    0.029033
  22 C :    0.052759
  23 H :    0.037487
  24 H :    0.053571
  25 C :   -0.117804
  26 H :    0.040057
  27 H :    0.051455
  28 C :   -0.053766
  29 H :    0.041880
  30 H :    0.043377
  31 H :    0.021911
  32 H :    0.053717
  33 H :    0.075691
Sum of atomic charges:   -0.0000000

LOEWDIN ATOMIC CHARGES
----------------------
   0 S :    0.379999
   1 C :   -0.173027
   2 C :   -0.062781
   3 C :   -0.083698
   4 C :   -0.190013
   5 H :    0.039455
   6 C :   -0.035584
   7 H :    0.026831
   8 H :    0.033528
   9 C :   -0.034032
  10 H :    0.022931
  11 H :    0.020930
  12 C :   -0.051993
  13 H :    0.030008
  14 H :    0.018899
  15 H :    0.019907
  16 S :    0.413072
  17 C :   -0.195376
  18 C :   -0.083048
  19 C :   -0.055296
  20 C :   -0.203731
  21 H :    0.037724
  22 C :   -0.029202
  23 H :    0.022418
  24 H :    0.036017
  25 C :   -0.048656
  26 H :    0.030497
  27 H :    0.034295
  28 C :   -0.079080
  29 H :    0.027847
  30 H :    0.027320
  31 H :    0.025452
  32 H :    0.032729
  33 H :    0.045660

  Mayer bond orders larger than 0.100000
B(  0-S ,  1-C ) :   1.0828 B(  0-S ,  4-C ) :   1.1782 B(  1-C ,  2-C ) :   1.6757
B(  1-C , 32-H ) :   0.9648 B(  2-C ,  3-C ) :   1.2065 B(  2-C ,  6-C ) :   1.0027
B(  3-C ,  4-C ) :   1.5726 B(  3-C ,  5-H ) :   0.9865 B(  4-C , 20-C ) :   1.0247
B(  6-C ,  7-H ) :   0.9396 B(  6-C ,  8-H ) :   0.9452 B(  6-C ,  9-C ) :   1.0655
B(  9-C , 10-H ) :   0.9512 B(  9-C , 11-H ) :   0.9560 B(  9-C , 12-C ) :   1.0866
B( 12-C , 13-H ) :   0.9698 B( 12-C , 14-H ) :   0.9755 B( 12-C , 15-H ) :   0.9709
B( 16-S , 17-C ) :   1.1455 B( 16-S , 20-C ) :   1.1498 B( 17-C , 18-C ) :   1.6088
B( 17-C , 33-H ) :   0.9601 B( 18-C , 19-C ) :   1.2633 B( 18-C , 21-H ) :   0.9725
B( 19-C , 20-C ) :   1.6017 B( 19-C , 22-C ) :   1.0014 B( 22-C , 23-H ) :   0.9374
B( 22-C , 24-H ) :   0.9464 B( 22-C , 25-C ) :   1.0703 B( 25-C , 26-H ) :   0.9612
B( 25-C , 27-H ) :   0.9612 B( 25-C , 28-C ) :   1.0672 B( 28-C , 29-H ) :   0.9747
B( 28-C , 30-H ) :   0.9718 B( 28-C , 31-H ) :   0.9758

Dispersion correction           -0.014772292
FINAL SINGLE POINT ENERGY     -1339.856061203169

DIPOLE MOMENT
-------------
                                X             Y             Z
Electronic contribution:    -14.92697      21.75335      -9.86064
Nuclear contribution   :     15.21107     -22.40353      10.27356
                        -----------------------------------------
Total Dipole Moment    :      0.28410      -0.65018       0.41293
                        -----------------------------------------
Magnitude (a.u.)       :      0.82095
Magnitude (Debye)      :      2.08668

Rotational constants in cm-1:     0.018717     0.009378     0.006662
Rotational constants in MHz :   561.119103   281.142106   199.725824

                             ****ORCA TERMINATED NORMALLY****
TOTAL RUN TIME: 0 days 0 hours 0 minutes 22 seconds 171 msec
