                         Program Version 4.2.1 -  RELEASE  -
|  1> ! wB97X-D3 SP def2-SVP
|  2> %pal
|  3> nprocs 24
|  4> end
|  5>
|  6> * xyz 0 1
|  7> S 	 -63.9535 	 18.1746 	 -114.537
|  8> C 	 -62.6335 	 18.7474 	 -115.564
|  9> C 	 -63.1202 	 19.0349 	 -116.79
| 10> C 	 -64.5425 	 18.7799 	 -116.934
| 11> C 	 -65.1177 	 18.1465 	 -115.83
| 12> H 	 -65.2049 	 19.0973 	 -117.764
| 13> C 	 -62.3502 	 19.6874 	 -117.938
| 14> H 	 -61.336 	 20.0925 	 -117.66
| 15> H 	 -62.8598 	 20.5571 	 -118.251
| 16> C 	 -62.1736 	 18.7972 	 -119.141
| 17> H 	 -61.6548 	 17.9194 	 -118.836
| 18> H 	 -63.228 	 18.4086 	 -119.399
| 19> C 	 -61.6179 	 19.5551 	 -120.439
| 20> H 	 -62.3928 	 20.1818 	 -120.756
| 21> H 	 -60.6887 	 20.1622 	 -120.277
| 22> H 	 -61.3747 	 18.8305 	 -121.188
| 23> S 	 -67.1886 	 17.5574 	 -113.998
| 24> C 	 -68.7412 	 16.9905 	 -114.644
| 25> C 	 -68.7358 	 16.9667 	 -115.984
| 26> C 	 -67.5125 	 17.4115 	 -116.544
| 27> C 	 -66.4991 	 17.7171 	 -115.632
| 28> H 	 -69.7341 	 16.7692 	 -116.413
| 29> C 	 -67.4076 	 17.4791 	 -118.056
| 30> H 	 -67.8907 	 16.5603 	 -118.441
| 31> H 	 -66.3877 	 17.3817 	 -118.346
| 32> C 	 -68.0111 	 18.7386 	 -118.676
| 33> H 	 -67.7951 	 19.6543 	 -118.188
| 34> H 	 -69.0675 	 18.6466 	 -118.485
| 35> C 	 -67.8102 	 18.8459 	 -120.21
| 36> H 	 -66.767 	 18.9833 	 -120.385
| 37> H 	 -68.5307 	 19.5144 	 -120.569
| 38> H 	 -67.9883 	 17.835 	 -120.652
| 39> H 	 -61.6171 	 19.0312 	 -115.252
| 40> H 	 -69.6337 	 16.6423 	 -114.056
| 41> *
| 42>
| 43>                          ****END OF INPUT****

CARTESIAN COORDINATES (ANGSTROEM)
---------------------------------
  S    -63.953500   18.174600  -114.537000
  C    -62.633500   18.747400  -115.564000
  C    -63.120200   19.034900  -116.790000
  C    -64.542500   18.779900  -116.934000
  C    -65.117700   18.146500  -115.830000
  H    -65.204900   19.097300  -117.764000
  C    -62.350200   19.687400  -117.938000
  H    -61.336000   20.092500  -117.660000
  H    -62.859800   20.557100  -118.251000
  C    -62.173600   18.797200  -119.141000
  H    -61.654800   17.919400  -118.836000
  H    -63.228000   18.408600  -119.399000
  C    -61.617900   19.555100  -120.439000
  H    -62.392800   20.181800  -120.756000
  H    -60.688700   20.162200  -120.277000
  H    -61.374700   18.830500  -121.188000
  S    -67.188600   17.557400  -113.998000
  C    -68.741200   16.990500  -114.644000
  C    -68.735800   16.966700  -115.984000
  C    -67.512500   17.411500  -116.544000
  C    -66.499100   17.717100  -115.632000
  H    -69.734100   16.769200  -116.413000
  C    -67.407600   17.479100  -118.056000
  H    -67.890700   16.560300  -118.441000
  H    -66.387700   17.381700  -118.346000
  C    -68.011100   18.738600  -118.676000
  H    -67.795100   19.654300  -118.188000
  H    -69.067500   18.646600  -118.485000
  C    -67.810200   18.845900  -120.210000
  H    -66.767000   18.983300  -120.385000
  H    -68.530700   19.514400  -120.569000
  H    -67.988300   17.835000  -120.652000
  H    -61.617100   19.031200  -115.252000
  H    -69.633700   16.642300  -114.056000

 Total Charge           Charge          ....    0
 Multiplicity           Mult            ....    1
 Number of Electrons    NEL             ....  134
 Basis Dimension        Dim             ....  322

ORBITAL ENERGIES
----------------

  NO   OCC          E(Eh)            E(eV)
   0   2.0000     -88.965996     -2420.8878
   1   2.0000     -88.964910     -2420.8583
   2   2.0000     -10.336923      -281.2820
   3   2.0000     -10.335505      -281.2434
   4   2.0000     -10.321666      -280.8668
   5   2.0000     -10.316734      -280.7326
   6   2.0000     -10.306507      -280.4543
   7   2.0000     -10.303503      -280.3726
   8   2.0000     -10.300288      -280.2851
   9   2.0000     -10.292607      -280.0761
  10   2.0000     -10.291039      -280.0334
  11   2.0000     -10.290747      -280.0255
  12   2.0000     -10.289313      -279.9864
  13   2.0000     -10.282590      -279.8035
  14   2.0000     -10.282342      -279.7968
  15   2.0000     -10.278456      -279.6910
  16   2.0000      -8.079997      -219.8679
  17   2.0000      -8.079616      -219.8575
  18   2.0000      -6.038707      -164.3216
  19   2.0000      -6.038379      -164.3126
  20   2.0000      -6.034667      -164.2116
  21   2.0000      -6.034157      -164.1978
  22   2.0000      -6.030511      -164.0985
  23   2.0000      -6.030070      -164.0865
  24   2.0000      -1.007590       -27.4179
  25   2.0000      -0.986784       -26.8518
  26   2.0000      -0.912314       -24.8253
  27   2.0000      -0.910808       -24.7843
  28   2.0000      -0.874283       -23.7905
  29   2.0000      -0.851838       -23.1797
  30   2.0000      -0.839002       -22.8304
  31   2.0000      -0.819601       -22.3025
  32   2.0000      -0.784342       -21.3430
  33   2.0000      -0.775341       -21.0981
  34   2.0000      -0.713302       -19.4099
  35   2.0000      -0.701647       -19.0928
  36   2.0000      -0.697553       -18.9814
  37   2.0000      -0.660243       -17.9661
  38   2.0000      -0.637379       -17.3440
  39   2.0000      -0.621737       -16.9183
  40   2.0000      -0.595690       -16.2095
  41   2.0000      -0.574501       -15.6330
  42   2.0000      -0.566623       -15.4186
  43   2.0000      -0.557738       -15.1768
  44   2.0000      -0.539378       -14.6772
  45   2.0000      -0.520196       -14.1552
  46   2.0000      -0.517447       -14.0804
  47   2.0000      -0.513673       -13.9778
  48   2.0000      -0.509624       -13.8676
  49   2.0000      -0.504795       -13.7362
  50   2.0000      -0.488171       -13.2838
  51   2.0000      -0.483318       -13.1518
  52   2.0000      -0.474023       -12.8988
  53   2.0000      -0.467286       -12.7155
  54   2.0000      -0.462117       -12.5749
  55   2.0000      -0.448579       -12.2065
  56   2.0000      -0.447370       -12.1735
  57   2.0000      -0.441963       -12.0264
  58   2.0000      -0.438968       -11.9449
  59   2.0000      -0.418665       -11.3924
  60   2.0000      -0.417050       -11.3485
  61   2.0000      -0.415150       -11.2968
  62   2.0000      -0.408551       -11.1172
  63   2.0000      -0.366567        -9.9748
  64   2.0000      -0.334201        -9.0941
  65   2.0000      -0.326649        -8.8886
  66   2.0000      -0.288235        -7.8433
  67   0.0000       0.017652         0.4803
  68   0.0000       0.088125         2.3980
  69   0.0000       0.100078         2.7233
  70   0.0000       0.118186         3.2160
  71   0.0000       0.125074         3.4034

MULLIKEN ATOMIC CHARGES
-----------------------
   0 S :    0.088726
   1 C :   -0.118035
   2 C :   -0.066459
   3 C :   -0.026171
   4 C :   -0.115033
   5 H :    0.030196
   6 C :    0.084277
   7 H :    0.017430
   8 H :    0.010867
   9 C :   -0.115811
  10 H :    0.025595
  11 H :    0.028462
  12 C :   -0.028244
  13 H :    0.027253
  14 H :    0.039234
  15 H :    0.037047
  16 S :    0.087640
  17 C :   -0.109272
  18 C :   -0.033506
  19 C :   -0.066796
  20 C :   -0.096707
  21 H :    0.035100
  22 C :    0.053340
  23 H :    0.028015
  24 H :    0.005561
  25 C :   -0.076861
  26 H :    0.024481
  27 H :    0.008778
  28 C :    0.007048
  29 H :    0.024426
  30 H :    0.037699
  31 H :    0.020355
  32 H :    0.056664
  33 H :    0.074701
Sum of atomic charges:   -0.0000000

LOEWDIN ATOMIC CHARGES
----------------------
   0 S :    0.395175
   1 C :   -0.192105
   2 C :   -0.062760
   3 C :   -0.073499
   4 C :   -0.184115
   5 H :    0.036086
   6 C :   -0.033956
   7 H :    0.029796
   8 H :    0.022987
   9 C :   -0.039941
  10 H :    0.016984
  11 H :    0.026969
  12 C :   -0.059347
  13 H :    0.018472
  14 H :    0.029972
  15 H :    0.025891
  16 S :    0.374207
  17 C :   -0.175759
  18 C :   -0.084181
  19 C :   -0.051568
  20 C :   -0.186228
  21 H :    0.043533
  22 C :   -0.032170
  23 H :    0.034897
  24 H :    0.017112
  25 C :   -0.040382
  26 H :    0.018680
  27 H :    0.020603
  28 C :   -0.053185
  29 H :    0.020815
  30 H :    0.022768
  31 H :    0.029628
  32 H :    0.039515
  33 H :    0.045108

  Mayer bond orders larger than 0.100000
B(  0-S ,  1-C ) :   1.1123 B(  0-S ,  4-C ) :   1.1464 B(  1-C ,  2-C ) :   1.6469
B(  1-C , 32-H ) :   0.9661 B(  2-C ,  3-C ) :   1.2168 B(  2-C ,  6-C ) :   1.0229
B(  3-C ,  4-C ) :   1.5629 B(  3-C ,  5-H ) :   0.9826 B(  4-C , 20-C ) :   1.0944
B(  6-C ,  7-H ) :   0.9424 B(  6-C ,  8-H ) :   0.9380 B(  6-C ,  9-C ) :   1.0554
B(  9-C , 10-H ) :   0.9598 B(  9-C , 11-H ) :   0.9580 B(  9-C , 12-C ) :   1.0598
B( 12-C , 13-H ) :   0.9768 B( 12-C , 14-H ) :   0.9780 B( 12-C , 15-H ) :   0.9770
B( 16-S , 17-C ) :   1.1390 B( 16-S , 20-C ) :   1.1104 B( 17-C , 18-C ) :   1.6553
B( 17-C , 33-H ) :   0.9543 B( 18-C , 19-C ) :   1.2267 B( 18-C , 21-H ) :   0.9842
B( 19-C , 20-C ) :   1.5991 B( 19-C , 22-C ) :   1.0457 B( 22-C , 23-H ) :   0.9297
B( 22-C , 24-H ) :   0.9366 B( 22-C , 25-C ) :   1.0571 B( 25-C , 26-H ) :   0.9551
B( 25-C , 27-H ) :   0.9497 B( 25-C , 28-C ) :   1.0817 B( 28-C , 29-H ) :   0.9763
B( 28-C , 30-H ) :   0.9744 B( 28-C , 31-H ) :   0.9706

Dispersion correction           -0.014013618
FINAL SINGLE POINT ENERGY     -1339.871934635491

DIPOLE MOMENT
-------------
                                X             Y             Z
Electronic contribution:     -4.19219      -7.08666      32.83253
Nuclear contribution   :      3.94374       7.30993     -33.56709
                        -----------------------------------------
Total Dipole Moment    :     -0.24845       0.22326      -0.73456
                        -----------------------------------------
Magnitude (a.u.)       :      0.80694
Magnitude (Debye)      :      2.05107

Rotational constants in cm-1:     0.017385     0.009392     0.006287
Rotational constants in MHz :   521.198025   281.578228   188.470855

                             ****ORCA TERMINATED NORMALLY****
TOTAL RUN TIME: 0 days 0 hours 0 minutes 21 seconds 682 msec
