                         Program Version 4.2.1 -  RELEASE  -
|  1> ! wB97X-D3 SP def2-SVP
|  2> %pal
|  3> nprocs 24
|  4> end
|  5>
|  6> * xyz 0 1
|  7> S 	 -93.1676 	 3.67044 	 -3.68399
|  8> C 	 -91.4906 	 3.06274 	 -3.78297
|  9> C 	 -90.6705 	 3.67497 	 -2.85468
| 10> C 	 -91.4184 	 4.49602 	 -1.94947
| 11> C 	 -92.7889 	 4.34636 	 -2.12498
| 12> H 	 -90.9825 	 5.06945 	 -1.13318
| 13> C 	 -89.1741 	 3.35684 	 -2.674
| 14> H 	 -88.8597 	 3.92982 	 -1.83962
| 15> H 	 -88.7124 	 3.71394 	 -3.61972
| 16> C 	 -88.9576 	 1.86936 	 -2.30529
| 17> H 	 -89.5095 	 1.50906 	 -1.48448
| 18> H 	 -89.3801 	 1.34016 	 -3.17993
| 19> C 	 -87.4235 	 1.55102 	 -2.16516
| 20> H 	 -86.9949 	 2.19355 	 -1.37072
| 21> H 	 -87.2434 	 0.457958 	 -1.93227
| 22> H 	 -86.9705 	 1.87255 	 -3.10053
| 23> S 	 -95.2777 	 5.59516 	 -2.25832
| 24> C 	 -96.0595 	 6.08101 	 -0.77837
| 25> C 	 -95.2883 	 5.66143 	 0.270031
| 26> C 	 -94.0125 	 5.03714 	 -0.0145661
| 27> C 	 -93.8224 	 4.99468 	 -1.38918
| 28> H 	 -95.6074 	 5.88417 	 1.30624
| 29> C 	 -93.0708 	 4.5537 	 1.04739
| 30> H 	 -92.9198 	 5.34268 	 1.76597
| 31> H 	 -92.1125 	 4.40585 	 0.533547
| 32> C 	 -93.2096 	 3.26701 	 1.8388
| 33> H 	 -94.149 	 3.36038 	 2.45882
| 34> H 	 -92.299 	 3.00067 	 2.46706
| 35> C 	 -93.4295 	 2.08327 	 0.976781
| 36> H 	 -92.501 	 1.75016 	 0.569078
| 37> H 	 -94.0327 	 2.32122 	 0.114402
| 38> H 	 -93.9881 	 1.25012 	 1.48097
| 39> H 	 -91.3459 	 2.4144 	 -4.59892
| 40> H 	 -96.9145 	 6.7667 	 -0.711198
| 41> *
| 42>
| 43>                          ****END OF INPUT****

CARTESIAN COORDINATES (ANGSTROEM)
---------------------------------
  S    -93.167600    3.670440   -3.683990
  C    -91.490600    3.062740   -3.782970
  C    -90.670500    3.674970   -2.854680
  C    -91.418400    4.496020   -1.949470
  C    -92.788900    4.346360   -2.124980
  H    -90.982500    5.069450   -1.133180
  C    -89.174100    3.356840   -2.674000
  H    -88.859700    3.929820   -1.839620
  H    -88.712400    3.713940   -3.619720
  C    -88.957600    1.869360   -2.305290
  H    -89.509500    1.509060   -1.484480
  H    -89.380100    1.340160   -3.179930
  C    -87.423500    1.551020   -2.165160
  H    -86.994900    2.193550   -1.370720
  H    -87.243400    0.457958   -1.932270
  H    -86.970500    1.872550   -3.100530
  S    -95.277700    5.595160   -2.258320
  C    -96.059500    6.081010   -0.778370
  C    -95.288300    5.661430    0.270031
  C    -94.012500    5.037140   -0.014566
  C    -93.822400    4.994680   -1.389180
  H    -95.607400    5.884170    1.306240
  C    -93.070800    4.553700    1.047390
  H    -92.919800    5.342680    1.765970
  H    -92.112500    4.405850    0.533547
  C    -93.209600    3.267010    1.838800
  H    -94.149000    3.360380    2.458820
  H    -92.299000    3.000670    2.467060
  C    -93.429500    2.083270    0.976781
  H    -92.501000    1.750160    0.569078
  H    -94.032700    2.321220    0.114402
  H    -93.988100    1.250120    1.480970
  H    -91.345900    2.414400   -4.598920
  H    -96.914500    6.766700   -0.711198

 Total Charge           Charge          ....    0
 Multiplicity           Mult            ....    1
 Number of Electrons    NEL             ....  134
 Basis Dimension        Dim             ....  322

ORBITAL ENERGIES
----------------

  NO   OCC          E(Eh)            E(eV)
   0   2.0000     -88.964252     -2420.8404
   1   2.0000     -88.963063     -2420.8080
   2   2.0000     -10.329584      -281.0823
   3   2.0000     -10.328330      -281.0481
   4   2.0000     -10.319627      -280.8113
   5   2.0000     -10.312915      -280.6287
   6   2.0000     -10.307308      -280.4761
   7   2.0000     -10.305996      -280.4404
   8   2.0000     -10.297661      -280.2136
   9   2.0000     -10.296652      -280.1861
  10   2.0000     -10.296174      -280.1731
  11   2.0000     -10.289695      -279.9968
  12   2.0000     -10.289503      -279.9916
  13   2.0000     -10.289175      -279.9827
  14   2.0000     -10.288193      -279.9560
  15   2.0000     -10.264517      -279.3117
  16   2.0000      -8.078655      -219.8314
  17   2.0000      -8.078072      -219.8155
  18   2.0000      -6.037379      -164.2854
  19   2.0000      -6.036503      -164.2616
  20   2.0000      -6.033260      -164.1734
  21   2.0000      -6.032862      -164.1625
  22   2.0000      -6.029153      -164.0616
  23   2.0000      -6.028583      -164.0461
  24   2.0000      -1.008061       -27.4307
  25   2.0000      -0.981599       -26.7107
  26   2.0000      -0.915987       -24.9253
  27   2.0000      -0.911434       -24.8014
  28   2.0000      -0.870558       -23.6891
  29   2.0000      -0.854505       -23.2523
  30   2.0000      -0.842288       -22.9198
  31   2.0000      -0.810856       -22.0645
  32   2.0000      -0.784768       -21.3546
  33   2.0000      -0.771680       -20.9985
  34   2.0000      -0.708750       -19.2861
  35   2.0000      -0.703101       -19.1324
  36   2.0000      -0.689208       -18.7543
  37   2.0000      -0.659329       -17.9413
  38   2.0000      -0.642940       -17.4953
  39   2.0000      -0.618260       -16.8237
  40   2.0000      -0.595853       -16.2140
  41   2.0000      -0.571120       -15.5410
  42   2.0000      -0.558284       -15.1917
  43   2.0000      -0.553730       -15.0678
  44   2.0000      -0.552092       -15.0232
  45   2.0000      -0.525744       -14.3062
  46   2.0000      -0.522694       -14.2232
  47   2.0000      -0.512785       -13.9536
  48   2.0000      -0.506417       -13.7803
  49   2.0000      -0.499254       -13.5854
  50   2.0000      -0.490410       -13.3447
  51   2.0000      -0.481035       -13.0896
  52   2.0000      -0.470348       -12.7988
  53   2.0000      -0.463464       -12.6115
  54   2.0000      -0.455509       -12.3950
  55   2.0000      -0.452413       -12.3108
  56   2.0000      -0.444537       -12.0965
  57   2.0000      -0.434779       -11.8309
  58   2.0000      -0.430925       -11.7261
  59   2.0000      -0.423059       -11.5120
  60   2.0000      -0.414841       -11.2884
  61   2.0000      -0.414218       -11.2714
  62   2.0000      -0.404840       -11.0162
  63   2.0000      -0.358359        -9.7514
  64   2.0000      -0.333684        -9.0800
  65   2.0000      -0.326983        -8.8977
  66   2.0000      -0.282911        -7.6984
  67   0.0000       0.018080         0.4920
  68   0.0000       0.067999         1.8504
  69   0.0000       0.094588         2.5739
  70   0.0000       0.115804         3.1512
  71   0.0000       0.132312         3.6004

MULLIKEN ATOMIC CHARGES
-----------------------
   0 S :    0.082141
   1 C :   -0.136361
   2 C :   -0.066280
   3 C :    0.003478
   4 C :   -0.134370
   5 H :    0.034108
   6 C :    0.081592
   7 H :    0.006598
   8 H :    0.050884
   9 C :   -0.082647
  10 H :    0.029730
  11 H :    0.027892
  12 C :   -0.054792
  13 H :    0.034475
  14 H :    0.054113
  15 H :    0.030104
  16 S :    0.081632
  17 C :   -0.092877
  18 C :   -0.033811
  19 C :   -0.060659
  20 C :   -0.131285
  21 H :    0.022546
  22 C :    0.082367
  23 H :    0.029674
  24 H :   -0.004260
  25 C :   -0.073709
  26 H :    0.028047
  27 H :    0.047480
  28 C :   -0.055028
  29 H :    0.017541
  30 H :    0.031890
  31 H :    0.038342
  32 H :    0.037780
  33 H :    0.073666
Sum of atomic charges:   -0.0000000

LOEWDIN ATOMIC CHARGES
----------------------
   0 S :    0.386429
   1 C :   -0.176934
   2 C :   -0.055594
   3 C :   -0.067046
   4 C :   -0.184122
   5 H :    0.032662
   6 C :   -0.024628
   7 H :    0.019637
   8 H :    0.039779
   9 C :   -0.034758
  10 H :    0.018908
  11 H :    0.024373
  12 C :   -0.068946
  13 H :    0.025608
  14 H :    0.034209
  15 H :    0.023978
  16 S :    0.375995
  17 C :   -0.191163
  18 C :   -0.071958
  19 C :   -0.058005
  20 C :   -0.175811
  21 H :    0.031227
  22 C :   -0.039585
  23 H :    0.032732
  24 H :    0.030566
  25 C :   -0.046942
  26 H :    0.024691
  27 H :    0.037391
  28 C :   -0.071325
  29 H :    0.018357
  30 H :    0.025051
  31 H :    0.031959
  32 H :    0.012899
  33 H :    0.040367

  Mayer bond orders larger than 0.100000
B(  0-S ,  1-C ) :   1.1242 B(  0-S ,  4-C ) :   1.1490 B(  1-C ,  2-C ) :   1.5846
B(  1-C , 32-H ) :   0.9888 B(  2-C ,  3-C ) :   1.2452 B(  2-C ,  6-C ) :   1.0113
B(  3-C ,  4-C ) :   1.5498 B(  3-C ,  5-H ) :   0.9841 B(  4-C , 20-C ) :   1.0934
B(  6-C ,  7-H ) :   0.9433 B(  6-C ,  8-H ) :   0.9377 B(  6-C ,  9-C ) :   1.0587
B(  9-C , 10-H ) :   0.9612 B(  9-C , 11-H ) :   0.9576 B(  9-C , 12-C ) :   1.0704
B( 12-C , 13-H ) :   0.9767 B( 12-C , 14-H ) :   0.9751 B( 12-C , 15-H ) :   0.9758
B( 16-S , 17-C ) :   1.1300 B( 16-S , 20-C ) :   1.1213 B( 17-C , 18-C ) :   1.6281
B( 17-C , 33-H ) :   0.9663 B( 18-C , 19-C ) :   1.2255 B( 18-C , 21-H ) :   0.9819
B( 19-C , 20-C ) :   1.5891 B( 19-C , 22-C ) :   1.0485 B( 22-C , 23-H ) :   0.9273
B( 22-C , 24-H ) :   0.9183 B( 22-C , 25-C ) :   1.0811 B( 25-C , 26-H ) :   0.9530
B( 25-C , 27-H ) :   0.9548 B( 25-C , 28-C ) :   1.0795 B( 28-C , 29-H ) :   0.9734
B( 28-C , 30-H ) :   0.9728 B( 28-C , 31-H ) :   0.9725

Dispersion correction           -0.014673751
FINAL SINGLE POINT ENERGY     -1339.866876559727

DIPOLE MOMENT
-------------
                                X             Y             Z
Electronic contribution:    -21.48627      14.53280     -14.70299
Nuclear contribution   :     21.96974     -14.59741      15.13010
                        -----------------------------------------
Total Dipole Moment    :      0.48347      -0.06461       0.42711
                        -----------------------------------------
Magnitude (a.u.)       :      0.64834
Magnitude (Debye)      :      1.64795

Rotational constants in cm-1:     0.021349     0.008638     0.006797
Rotational constants in MHz :   640.027411   258.970584   203.776777

                             ****ORCA TERMINATED NORMALLY****
TOTAL RUN TIME: 0 days 0 hours 0 minutes 22 seconds 156 msec
