                         Program Version 4.2.1 -  RELEASE  -
|  1> ! wB97X-D3 SP def2-SVP
|  2> %pal
|  3> nprocs 24
|  4> end
|  5>
|  6> * xyz 0 1
|  7> S 	 -114.872 	 40.5073 	 -114.984
|  8> C 	 -114.524 	 40.6043 	 -116.669
|  9> C 	 -113.527 	 39.7086 	 -116.985
| 10> C 	 -113.132 	 38.8965 	 -115.877
| 11> C 	 -113.83 	 39.1623 	 -114.757
| 12> H 	 -112.335 	 38.2042 	 -115.914
| 13> C 	 -112.915 	 39.4865 	 -118.346
| 14> H 	 -113.444 	 40.11 	 -119.004
| 15> H 	 -112.997 	 38.3822 	 -118.541
| 16> C 	 -111.418 	 39.735 	 -118.662
| 17> H 	 -111.117 	 40.7929 	 -118.461
| 18> H 	 -110.797 	 39.0562 	 -118.062
| 19> C 	 -110.898 	 39.5489 	 -120.058
| 20> H 	 -111.11 	 38.5188 	 -120.374
| 21> H 	 -111.452 	 40.229 	 -120.67
| 22> H 	 -109.853 	 39.8469 	 -120.187
| 23> S 	 -114.105 	 39.3921 	 -112.089
| 24> C 	 -113.948 	 37.9412 	 -110.986
| 25> C 	 -113.709 	 36.8112 	 -111.767
| 26> C 	 -113.862 	 37.0733 	 -113.168
| 27> C 	 -113.913 	 38.4174 	 -113.525
| 28> H 	 -113.615 	 35.8487 	 -111.354
| 29> C 	 -113.631 	 36.0194 	 -114.209
| 30> H 	 -113.088 	 35.2432 	 -113.663
| 31> H 	 -112.786 	 36.302 	 -114.877
| 32> C 	 -114.856 	 35.5094 	 -115.043
| 33> H 	 -115.29 	 36.3486 	 -115.531
| 34> H 	 -115.549 	 35.1026 	 -114.222
| 35> C 	 -114.46 	 34.2751 	 -115.96
| 36> H 	 -115.361 	 33.9378 	 -116.587
| 37> H 	 -114.283 	 33.3783 	 -115.369
| 38> H 	 -113.557 	 34.6523 	 -116.536
| 39> H 	 -115.05 	 41.1967 	 -117.37
| 40> H 	 -114.071 	 37.9751 	 -109.864
| 41> *
| 42>
| 43>                          ****END OF INPUT****

CARTESIAN COORDINATES (ANGSTROEM)
---------------------------------
  S    -114.872000   40.507300  -114.984000
  C    -114.524000   40.604300  -116.669000
  C    -113.527000   39.708600  -116.985000
  C    -113.132000   38.896500  -115.877000
  C    -113.830000   39.162300  -114.757000
  H    -112.335000   38.204200  -115.914000
  C    -112.915000   39.486500  -118.346000
  H    -113.444000   40.110000  -119.004000
  H    -112.997000   38.382200  -118.541000
  C    -111.418000   39.735000  -118.662000
  H    -111.117000   40.792900  -118.461000
  H    -110.797000   39.056200  -118.062000
  C    -110.898000   39.548900  -120.058000
  H    -111.110000   38.518800  -120.374000
  H    -111.452000   40.229000  -120.670000
  H    -109.853000   39.846900  -120.187000
  S    -114.105000   39.392100  -112.089000
  C    -113.948000   37.941200  -110.986000
  C    -113.709000   36.811200  -111.767000
  C    -113.862000   37.073300  -113.168000
  C    -113.913000   38.417400  -113.525000
  H    -113.615000   35.848700  -111.354000
  C    -113.631000   36.019400  -114.209000
  H    -113.088000   35.243200  -113.663000
  H    -112.786000   36.302000  -114.877000
  C    -114.856000   35.509400  -115.043000
  H    -115.290000   36.348600  -115.531000
  H    -115.549000   35.102600  -114.222000
  C    -114.460000   34.275100  -115.960000
  H    -115.361000   33.937800  -116.587000
  H    -114.283000   33.378300  -115.369000
  H    -113.557000   34.652300  -116.536000
  H    -115.050000   41.196700  -117.370000
  H    -114.071000   37.975100  -109.864000

 Total Charge           Charge          ....    0
 Multiplicity           Mult            ....    1
 Number of Electrons    NEL             ....  134
 Basis Dimension        Dim             ....  322

ORBITAL ENERGIES
----------------

  NO   OCC          E(Eh)            E(eV)
   0   2.0000     -88.965456     -2420.8731
   1   2.0000     -88.963509     -2420.8201
   2   2.0000     -10.330749      -281.1140
   3   2.0000     -10.327344      -281.0213
   4   2.0000     -10.326079      -280.9869
   5   2.0000     -10.312462      -280.6163
   6   2.0000     -10.302595      -280.3479
   7   2.0000     -10.301990      -280.3314
   8   2.0000     -10.298348      -280.2323
   9   2.0000     -10.294943      -280.1396
  10   2.0000     -10.293538      -280.1014
  11   2.0000     -10.293329      -280.0957
  12   2.0000     -10.289521      -279.9921
  13   2.0000     -10.288435      -279.9625
  14   2.0000     -10.288313      -279.9592
  15   2.0000     -10.277820      -279.6737
  16   2.0000      -8.081592      -219.9113
  17   2.0000      -8.077408      -219.7974
  18   2.0000      -6.040077      -164.3588
  19   2.0000      -6.036094      -164.2505
  20   2.0000      -6.035898      -164.2451
  21   2.0000      -6.032271      -164.1464
  22   2.0000      -6.031956      -164.1379
  23   2.0000      -6.028104      -164.0331
  24   2.0000      -1.016941       -27.6724
  25   2.0000      -0.983434       -26.7606
  26   2.0000      -0.915003       -24.8985
  27   2.0000      -0.898176       -24.4406
  28   2.0000      -0.877787       -23.8858
  29   2.0000      -0.856855       -23.3162
  30   2.0000      -0.842517       -22.9261
  31   2.0000      -0.821650       -22.3582
  32   2.0000      -0.782771       -21.3003
  33   2.0000      -0.764347       -20.7989
  34   2.0000      -0.709245       -19.2995
  35   2.0000      -0.693822       -18.8798
  36   2.0000      -0.690523       -18.7901
  37   2.0000      -0.668711       -18.1966
  38   2.0000      -0.647455       -17.6182
  39   2.0000      -0.629371       -17.1261
  40   2.0000      -0.589698       -16.0465
  41   2.0000      -0.580317       -15.7912
  42   2.0000      -0.567662       -15.4469
  43   2.0000      -0.555505       -15.1161
  44   2.0000      -0.528429       -14.3793
  45   2.0000      -0.525808       -14.3080
  46   2.0000      -0.517669       -14.0865
  47   2.0000      -0.517000       -14.0683
  48   2.0000      -0.509419       -13.8620
  49   2.0000      -0.503998       -13.7145
  50   2.0000      -0.493898       -13.4396
  51   2.0000      -0.482469       -13.1286
  52   2.0000      -0.477770       -13.0008
  53   2.0000      -0.463482       -12.6120
  54   2.0000      -0.460364       -12.5271
  55   2.0000      -0.452849       -12.3226
  56   2.0000      -0.446494       -12.1497
  57   2.0000      -0.434295       -11.8178
  58   2.0000      -0.428162       -11.6509
  59   2.0000      -0.421411       -11.4672
  60   2.0000      -0.411943       -11.2095
  61   2.0000      -0.407841       -11.0979
  62   2.0000      -0.406837       -11.0706
  63   2.0000      -0.356413        -9.6985
  64   2.0000      -0.334880        -9.1126
  65   2.0000      -0.325861        -8.8671
  66   2.0000      -0.288312        -7.8454
  67   0.0000       0.022537         0.6133
  68   0.0000       0.073342         1.9957
  69   0.0000       0.095010         2.5853
  70   0.0000       0.109592         2.9821
  71   0.0000       0.138733         3.7751

MULLIKEN ATOMIC CHARGES
-----------------------
   0 S :    0.113759
   1 C :   -0.105801
   2 C :   -0.077500
   3 C :    0.001362
   4 C :   -0.079624
   5 H :   -0.000665
   6 C :    0.092924
   7 H :   -0.003619
   8 H :    0.034838
   9 C :   -0.101110
  10 H :    0.028144
  11 H :    0.022227
  12 C :   -0.034489
  13 H :    0.027224
  14 H :    0.014747
  15 H :    0.045790
  16 S :    0.072206
  17 C :   -0.115077
  18 C :    0.001027
  19 C :   -0.047766
  20 C :   -0.118231
  21 H :    0.011559
  22 C :   -0.000739
  23 H :    0.000839
  24 H :    0.014610
  25 C :   -0.058593
  26 H :    0.044465
  27 H :    0.037981
  28 C :   -0.080039
  29 H :    0.051733
  30 H :    0.038455
  31 H :    0.049549
  32 H :    0.034349
  33 H :    0.085464
Sum of atomic charges:    0.0000000

LOEWDIN ATOMIC CHARGES
----------------------
   0 S :    0.428707
   1 C :   -0.196833
   2 C :   -0.059333
   3 C :   -0.058500
   4 C :   -0.198415
   5 H :    0.024366
   6 C :   -0.030499
   7 H :    0.019999
   8 H :    0.039910
   9 C :   -0.047797
  10 H :    0.025827
  11 H :    0.018145
  12 C :   -0.061445
  13 H :    0.022593
  14 H :    0.018275
  15 H :    0.033700
  16 S :    0.371945
  17 C :   -0.169754
  18 C :   -0.061463
  19 C :   -0.065685
  20 C :   -0.187179
  21 H :    0.026471
  22 C :   -0.047380
  23 H :    0.026379
  24 H :    0.025544
  25 C :   -0.036402
  26 H :    0.021278
  27 H :    0.032364
  28 C :   -0.076551
  29 H :    0.036725
  30 H :    0.025008
  31 H :    0.032140
  32 H :    0.023530
  33 H :    0.044329

  Mayer bond orders larger than 0.100000
B(  0-S ,  1-C ) :   1.1362 B(  0-S ,  4-C ) :   1.1561 B(  1-C ,  2-C ) :   1.6079
B(  1-C , 32-H ) :   0.9742 B(  2-C ,  3-C ) :   1.2240 B(  2-C ,  6-C ) :   1.0419
B(  3-C ,  4-C ) :   1.5735 B(  3-C ,  5-H ) :   1.0145 B(  4-C , 20-C ) :   1.0341
B(  6-C ,  7-H ) :   0.9341 B(  6-C ,  8-H ) :   0.9325 B(  6-C ,  9-C ) :   1.0651
B(  9-C , 10-H ) :   0.9551 B(  9-C , 11-H ) :   0.9534 B(  9-C , 12-C ) :   1.0907
B( 12-C , 13-H ) :   0.9732 B( 12-C , 14-H ) :   0.9735 B( 12-C , 15-H ) :   0.9715
B( 16-S , 17-C ) :   1.1362 B( 16-S , 20-C ) :   1.1304 B( 17-C , 18-C ) :   1.6011
B( 17-C , 20-C ) :   0.1074 B( 17-C , 33-H ) :   0.9622 B( 18-C , 19-C ) :   1.2522
B( 18-C , 21-H ) :   0.9895 B( 19-C , 20-C ) :   1.5868 B( 19-C , 22-C ) :   1.0447
B( 22-C , 23-H ) :   0.9345 B( 22-C , 24-H ) :   0.9403 B( 22-C , 25-C ) :   1.0328
B( 25-C , 26-H ) :   0.9625 B( 25-C , 27-H ) :   0.9571 B( 25-C , 28-C ) :   1.0636
B( 28-C , 29-H ) :   0.9750 B( 28-C , 30-H ) :   0.9764 B( 28-C , 31-H ) :   0.9750

Dispersion correction           -0.013814336
FINAL SINGLE POINT ENERGY     -1339.857983068660

DIPOLE MOMENT
-------------
                                X             Y             Z
Electronic contribution:    -10.08939      16.71045      24.27321
Nuclear contribution   :     10.31883     -17.19897     -24.67970
                        -----------------------------------------
Total Dipole Moment    :      0.22944      -0.48852      -0.40649
                        -----------------------------------------
Magnitude (a.u.)       :      0.67567
Magnitude (Debye)      :      1.71741

Rotational constants in cm-1:     0.017851     0.008568     0.006636
Rotational constants in MHz :   535.152433   256.861105   198.952253

                             ****ORCA TERMINATED NORMALLY****
TOTAL RUN TIME: 0 days 0 hours 0 minutes 20 seconds 398 msec
