                         Program Version 4.2.1 -  RELEASE  -
|  1> ! wB97X-D3 SP def2-SVP
|  2> %pal
|  3> nprocs 24
|  4> end
|  5>
|  6> * xyz 0 1
|  7> S 	 -47.403 	 15.0846 	 21.4613
|  8> C 	 -48.66 	 15.4138 	 22.5723
|  9> C 	 -49.8767 	 15.424 	 21.9224
| 10> C 	 -49.7642 	 15.4153 	 20.4868
| 11> C 	 -48.4211 	 15.2623 	 20.0762
| 12> H 	 -50.5067 	 15.4369 	 19.7015
| 13> C 	 -51.2489 	 15.4169 	 22.6517
| 14> H 	 -51.9961 	 15.7943 	 21.9973
| 15> H 	 -51.0913 	 16.1797 	 23.4005
| 16> C 	 -51.681 	 14.0894 	 23.3543
| 17> H 	 -51.4122 	 14.1494 	 24.4263
| 18> H 	 -52.7374 	 14.0677 	 23.2732
| 19> C 	 -51.0844 	 12.7314 	 22.8075
| 20> H 	 -51.2773 	 12.6901 	 21.741
| 21> H 	 -50.0721 	 12.4415 	 22.8854
| 22> H 	 -51.6528 	 11.82 	 23.2676
| 23> S 	 -46.6529 	 13.6597 	 18.6816
| 24> C 	 -46.5915 	 13.7923 	 16.9595
| 25> C 	 -47.5345 	 14.6993 	 16.447
| 26> C 	 -48.3433 	 15.2654 	 17.5074
| 27> C 	 -47.9085 	 14.9145 	 18.7645
| 28> H 	 -47.7544 	 14.8823 	 15.4239
| 29> C 	 -49.4237 	 16.219 	 17.0425
| 30> H 	 -48.9593 	 16.9048 	 16.3262
| 31> H 	 -49.6295 	 16.8656 	 17.8262
| 32> C 	 -50.6921 	 15.5861 	 16.4421
| 33> H 	 -51.0491 	 14.5927 	 16.9214
| 34> H 	 -50.4093 	 15.3978 	 15.3951
| 35> C 	 -52.034 	 16.4694 	 16.4505
| 36> H 	 -52.7456 	 15.9436 	 15.8204
| 37> H 	 -51.8707 	 17.4476 	 15.8998
| 38> H 	 -52.5278 	 16.6579 	 17.4137
| 39> H 	 -48.6021 	 15.4645 	 23.6171
| 40> H 	 -45.8219 	 13.2817 	 16.3521
| 41> *
| 42>
| 43>                          ****END OF INPUT****

CARTESIAN COORDINATES (ANGSTROEM)
---------------------------------
  S    -47.403000   15.084600   21.461300
  C    -48.660000   15.413800   22.572300
  C    -49.876700   15.424000   21.922400
  C    -49.764200   15.415300   20.486800
  C    -48.421100   15.262300   20.076200
  H    -50.506700   15.436900   19.701500
  C    -51.248900   15.416900   22.651700
  H    -51.996100   15.794300   21.997300
  H    -51.091300   16.179700   23.400500
  C    -51.681000   14.089400   23.354300
  H    -51.412200   14.149400   24.426300
  H    -52.737400   14.067700   23.273200
  C    -51.084400   12.731400   22.807500
  H    -51.277300   12.690100   21.741000
  H    -50.072100   12.441500   22.885400
  H    -51.652800   11.820000   23.267600
  S    -46.652900   13.659700   18.681600
  C    -46.591500   13.792300   16.959500
  C    -47.534500   14.699300   16.447000
  C    -48.343300   15.265400   17.507400
  C    -47.908500   14.914500   18.764500
  H    -47.754400   14.882300   15.423900
  C    -49.423700   16.219000   17.042500
  H    -48.959300   16.904800   16.326200
  H    -49.629500   16.865600   17.826200
  C    -50.692100   15.586100   16.442100
  H    -51.049100   14.592700   16.921400
  H    -50.409300   15.397800   15.395100
  C    -52.034000   16.469400   16.450500
  H    -52.745600   15.943600   15.820400
  H    -51.870700   17.447600   15.899800
  H    -52.527800   16.657900   17.413700
  H    -48.602100   15.464500   23.617100
  H    -45.821900   13.281700   16.352100

 Total Charge           Charge          ....    0
 Multiplicity           Mult            ....    1
 Number of Electrons    NEL             ....  134
 Basis Dimension        Dim             ....  322

ORBITAL ENERGIES
----------------

  NO   OCC          E(Eh)            E(eV)
   0   2.0000     -88.967175     -2420.9199
   1   2.0000     -88.966166     -2420.8925
   2   2.0000     -10.328803      -281.0610
   3   2.0000     -10.328322      -281.0479
   4   2.0000     -10.321316      -280.8573
   5   2.0000     -10.306819      -280.4628
   6   2.0000     -10.304382      -280.3965
   7   2.0000     -10.303601      -280.3752
   8   2.0000     -10.301453      -280.3168
   9   2.0000     -10.297177      -280.2004
  10   2.0000     -10.294158      -280.1183
  11   2.0000     -10.292793      -280.0811
  12   2.0000     -10.290865      -280.0287
  13   2.0000     -10.290860      -280.0285
  14   2.0000     -10.288708      -279.9700
  15   2.0000     -10.280057      -279.7346
  16   2.0000      -8.081905      -219.9198
  17   2.0000      -8.081802      -219.9170
  18   2.0000      -6.040487      -164.3700
  19   2.0000      -6.040247      -164.3635
  20   2.0000      -6.036468      -164.2607
  21   2.0000      -6.036112      -164.2509
  22   2.0000      -6.032658      -164.1570
  23   2.0000      -6.032540      -164.1538
  24   2.0000      -1.009205       -27.4619
  25   2.0000      -0.984223       -26.7821
  26   2.0000      -0.906039       -24.6546
  27   2.0000      -0.902090       -24.5471
  28   2.0000      -0.866672       -23.5834
  29   2.0000      -0.848855       -23.0985
  30   2.0000      -0.840385       -22.8680
  31   2.0000      -0.809550       -22.0290
  32   2.0000      -0.785464       -21.3736
  33   2.0000      -0.776648       -21.1337
  34   2.0000      -0.706578       -19.2270
  35   2.0000      -0.702581       -19.1182
  36   2.0000      -0.693768       -18.8784
  37   2.0000      -0.667714       -18.1694
  38   2.0000      -0.642328       -17.4786
  39   2.0000      -0.609722       -16.5914
  40   2.0000      -0.592366       -16.1191
  41   2.0000      -0.569289       -15.4911
  42   2.0000      -0.560576       -15.2540
  43   2.0000      -0.551356       -15.0031
  44   2.0000      -0.534374       -14.5410
  45   2.0000      -0.522909       -14.2291
  46   2.0000      -0.514256       -13.9936
  47   2.0000      -0.509870       -13.8743
  48   2.0000      -0.502439       -13.6721
  49   2.0000      -0.500165       -13.6102
  50   2.0000      -0.489324       -13.3152
  51   2.0000      -0.482951       -13.1418
  52   2.0000      -0.471712       -12.8359
  53   2.0000      -0.469091       -12.7646
  54   2.0000      -0.463245       -12.6055
  55   2.0000      -0.451215       -12.2782
  56   2.0000      -0.443159       -12.0590
  57   2.0000      -0.435788       -11.8584
  58   2.0000      -0.430669       -11.7191
  59   2.0000      -0.421685       -11.4746
  60   2.0000      -0.417770       -11.3681
  61   2.0000      -0.415020       -11.2933
  62   2.0000      -0.409975       -11.1560
  63   2.0000      -0.357395        -9.7252
  64   2.0000      -0.331415        -9.0183
  65   2.0000      -0.328311        -8.9338
  66   2.0000      -0.282883        -7.6976
  67   0.0000       0.023952         0.6518
  68   0.0000       0.074685         2.0323
  69   0.0000       0.106411         2.8956
  70   0.0000       0.121940         3.3181
  71   0.0000       0.126623         3.4456

MULLIKEN ATOMIC CHARGES
-----------------------
   0 S :    0.104915
   1 C :   -0.074536
   2 C :   -0.135157
   3 C :    0.033198
   4 C :   -0.153586
   5 H :    0.003562
   6 C :    0.096666
   7 H :    0.013095
   8 H :    0.025899
   9 C :   -0.055966
  10 H :    0.034355
  11 H :    0.029386
  12 C :   -0.062805
  13 H :    0.022933
  14 H :    0.032800
  15 H :    0.038834
  16 S :    0.104895
  17 C :   -0.100422
  18 C :   -0.011322
  19 C :   -0.074995
  20 C :   -0.119362
  21 H :    0.009769
  22 C :    0.091268
  23 H :    0.029904
  24 H :   -0.002672
  25 C :   -0.106373
  26 H :    0.055602
  27 H :    0.033943
  28 C :   -0.079445
  29 H :    0.034089
  30 H :    0.037165
  31 H :    0.047874
  32 H :    0.024575
  33 H :    0.071916
Sum of atomic charges:   -0.0000000

LOEWDIN ATOMIC CHARGES
----------------------
   0 S :    0.433221
   1 C :   -0.207899
   2 C :   -0.056894
   3 C :   -0.065941
   4 C :   -0.197630
   5 H :    0.029079
   6 C :   -0.029440
   7 H :    0.023123
   8 H :    0.033645
   9 C :   -0.035883
  10 H :    0.026497
  11 H :    0.023904
  12 C :   -0.074749
  13 H :    0.023212
  14 H :    0.019513
  15 H :    0.036834
  16 S :    0.400511
  17 C :   -0.193359
  18 C :   -0.064353
  19 C :   -0.054503
  20 C :   -0.191457
  21 H :    0.025097
  22 C :   -0.035904
  23 H :    0.037236
  24 H :    0.016638
  25 C :   -0.043597
  26 H :    0.036165
  27 H :    0.025674
  28 C :   -0.074893
  29 H :    0.026193
  30 H :    0.029309
  31 H :    0.025589
  32 H :    0.020514
  33 H :    0.034549

  Mayer bond orders larger than 0.100000
B(  0-S ,  1-C ) :   1.1422 B(  0-S ,  4-C ) :   1.1714 B(  1-C ,  2-C ) :   1.5860
B(  1-C , 32-H ) :   0.9791 B(  2-C ,  3-C ) :   1.2639 B(  2-C ,  6-C ) :   1.0209
B(  3-C ,  4-C ) :   1.5230 B(  3-C ,  5-H ) :   0.9950 B(  4-C , 20-C ) :   1.0641
B(  6-C ,  7-H ) :   0.9449 B(  6-C ,  8-H ) :   0.9424 B(  6-C ,  9-C ) :   1.0539
B(  9-C , 10-H ) :   0.9588 B(  9-C , 11-H ) :   0.9597 B(  9-C , 12-C ) :   1.0833
B( 12-C , 13-H ) :   0.9755 B( 12-C , 14-H ) :   0.9755 B( 12-C , 15-H ) :   0.9751
B( 16-S , 17-C ) :   1.1594 B( 16-S , 20-C ) :   1.1196 B( 17-C , 18-C ) :   1.5932
B( 17-C , 33-H ) :   0.9632 B( 18-C , 19-C ) :   1.2356 B( 18-C , 21-H ) :   0.9939
B( 19-C , 20-C ) :   1.6228 B( 19-C , 22-C ) :   1.0470 B( 22-C , 23-H ) :   0.9347
B( 22-C , 24-H ) :   0.9340 B( 22-C , 25-C ) :   1.0345 B( 25-C , 26-H ) :   0.9632
B( 25-C , 27-H ) :   0.9551 B( 25-C , 28-C ) :   1.0760 B( 28-C , 29-H ) :   0.9756
B( 28-C , 30-H ) :   0.9749 B( 28-C , 31-H ) :   0.9787

Dispersion correction           -0.014464546
FINAL SINGLE POINT ENERGY     -1339.864350409416

DIPOLE MOMENT
-------------
                                X             Y             Z
Electronic contribution:     26.59970      -2.13424       2.06815
Nuclear contribution   :    -27.22146       2.19331      -2.28734
                        -----------------------------------------
Total Dipole Moment    :     -0.62176       0.05906      -0.21919
                        -----------------------------------------
Magnitude (a.u.)       :      0.66190
Magnitude (Debye)      :      1.68243

Rotational constants in cm-1:     0.017040     0.009394     0.006969
Rotational constants in MHz :   510.834546   281.635814   208.911421

                             ****ORCA TERMINATED NORMALLY****
TOTAL RUN TIME: 0 days 0 hours 0 minutes 21 seconds 553 msec
