                         Program Version 4.2.1 -  RELEASE  -
|  1> ! wB97X-D3 SP def2-SVP
|  2> %pal
|  3> nprocs 24
|  4> end
|  5>
|  6> * xyz 0 1
|  7> S 	 -70.7297 	 16.8167 	 -75.0442
|  8> C 	 -69.8352 	 15.5246 	 -75.79
|  9> C 	 -68.7333 	 16.0643 	 -76.384
| 10> C 	 -68.6417 	 17.4936 	 -76.2823
| 11> C 	 -69.6533 	 18.0663 	 -75.5665
| 12> H 	 -67.845 	 18.1501 	 -76.7801
| 13> C 	 -67.7737 	 15.3212 	 -77.2484
| 14> H 	 -67.7465 	 14.2412 	 -76.9671
| 15> H 	 -66.8158 	 15.7048 	 -77.1379
| 16> C 	 -68.0839 	 15.3819 	 -78.7534
| 17> H 	 -67.7098 	 14.4679 	 -79.1255
| 18> H 	 -69.1817 	 15.4128 	 -78.726
| 19> C 	 -67.6104 	 16.586 	 -79.5485
| 20> H 	 -68.0385 	 17.4781 	 -79.0708
| 21> H 	 -66.5267 	 16.6851 	 -79.6795
| 22> H 	 -68.062 	 16.6992 	 -80.5865
| 23> S 	 -71.5728 	 19.9189 	 -75.0796
| 24> C 	 -71.1116 	 21.5899 	 -74.9375
| 25> C 	 -69.822 	 21.7711 	 -75.1532
| 26> C 	 -69.1145 	 20.5398 	 -75.4516
| 27> C 	 -69.9728 	 19.4501 	 -75.4063
| 28> H 	 -69.4752 	 22.7804 	 -75.2263
| 29> C 	 -67.6148 	 20.5498 	 -75.5977
| 30> H 	 -67.176 	 19.5683 	 -75.4805
| 31> H 	 -67.1839 	 21.0669 	 -74.7114
| 32> C 	 -67.0711 	 21.0083 	 -76.9111
| 33> H 	 -67.6027 	 21.9366 	 -77.2243
| 34> H 	 -67.3411 	 20.2913 	 -77.6595
| 35> C 	 -65.5602 	 21.2008 	 -77.0695
| 36> H 	 -65.2758 	 21.9808 	 -76.3819
| 37> H 	 -65.3009 	 21.5607 	 -78.0765
| 38> H 	 -65.0354 	 20.3153 	 -76.7852
| 39> H 	 -70.0005 	 14.5292 	 -75.816
| 40> H 	 -71.7694 	 22.4686 	 -74.6738
| 41> *
| 42>
| 43>                          ****END OF INPUT****

CARTESIAN COORDINATES (ANGSTROEM)
---------------------------------
  S    -70.729700   16.816700  -75.044200
  C    -69.835200   15.524600  -75.790000
  C    -68.733300   16.064300  -76.384000
  C    -68.641700   17.493600  -76.282300
  C    -69.653300   18.066300  -75.566500
  H    -67.845000   18.150100  -76.780100
  C    -67.773700   15.321200  -77.248400
  H    -67.746500   14.241200  -76.967100
  H    -66.815800   15.704800  -77.137900
  C    -68.083900   15.381900  -78.753400
  H    -67.709800   14.467900  -79.125500
  H    -69.181700   15.412800  -78.726000
  C    -67.610400   16.586000  -79.548500
  H    -68.038500   17.478100  -79.070800
  H    -66.526700   16.685100  -79.679500
  H    -68.062000   16.699200  -80.586500
  S    -71.572800   19.918900  -75.079600
  C    -71.111600   21.589900  -74.937500
  C    -69.822000   21.771100  -75.153200
  C    -69.114500   20.539800  -75.451600
  C    -69.972800   19.450100  -75.406300
  H    -69.475200   22.780400  -75.226300
  C    -67.614800   20.549800  -75.597700
  H    -67.176000   19.568300  -75.480500
  H    -67.183900   21.066900  -74.711400
  C    -67.071100   21.008300  -76.911100
  H    -67.602700   21.936600  -77.224300
  H    -67.341100   20.291300  -77.659500
  C    -65.560200   21.200800  -77.069500
  H    -65.275800   21.980800  -76.381900
  H    -65.300900   21.560700  -78.076500
  H    -65.035400   20.315300  -76.785200
  H    -70.000500   14.529200  -75.816000
  H    -71.769400   22.468600  -74.673800

 Total Charge           Charge          ....    0
 Multiplicity           Mult            ....    1
 Number of Electrons    NEL             ....  134
 Basis Dimension        Dim             ....  322

ORBITAL ENERGIES
----------------

  NO   OCC          E(Eh)            E(eV)
   0   2.0000     -88.965902     -2420.8853
   1   2.0000     -88.964510     -2420.8474
   2   2.0000     -10.327395      -281.0227
   3   2.0000     -10.325660      -280.9755
   4   2.0000     -10.314718      -280.6777
   5   2.0000     -10.305714      -280.4327
   6   2.0000     -10.304816      -280.4083
   7   2.0000     -10.296186      -280.1735
   8   2.0000     -10.295880      -280.1651
   9   2.0000     -10.290166      -280.0097
  10   2.0000     -10.288087      -279.9531
  11   2.0000     -10.284342      -279.8512
  12   2.0000     -10.283988      -279.8415
  13   2.0000     -10.282757      -279.8081
  14   2.0000     -10.281181      -279.7652
  15   2.0000     -10.278478      -279.6916
  16   2.0000      -8.082023      -219.9230
  17   2.0000      -8.079838      -219.8636
  18   2.0000      -6.040603      -164.3732
  19   2.0000      -6.038534      -164.3169
  20   2.0000      -6.036404      -164.2589
  21   2.0000      -6.034157      -164.1978
  22   2.0000      -6.032540      -164.1538
  23   2.0000      -6.030454      -164.0970
  24   2.0000      -1.020329       -27.7646
  25   2.0000      -0.994894       -27.0724
  26   2.0000      -0.918493       -24.9935
  27   2.0000      -0.916887       -24.9498
  28   2.0000      -0.881302       -23.9815
  29   2.0000      -0.856076       -23.2950
  30   2.0000      -0.842237       -22.9184
  31   2.0000      -0.825582       -22.4652
  32   2.0000      -0.787250       -21.4222
  33   2.0000      -0.778253       -21.1773
  34   2.0000      -0.714165       -19.4334
  35   2.0000      -0.701779       -19.0964
  36   2.0000      -0.695101       -18.9147
  37   2.0000      -0.664715       -18.0878
  38   2.0000      -0.638873       -17.3846
  39   2.0000      -0.623124       -16.9561
  40   2.0000      -0.602890       -16.4055
  41   2.0000      -0.582966       -15.8633
  42   2.0000      -0.566535       -15.4162
  43   2.0000      -0.548583       -14.9277
  44   2.0000      -0.543322       -14.7846
  45   2.0000      -0.530871       -14.4457
  46   2.0000      -0.521449       -14.1894
  47   2.0000      -0.515816       -14.0361
  48   2.0000      -0.510133       -13.8814
  49   2.0000      -0.506024       -13.7696
  50   2.0000      -0.496850       -13.5200
  51   2.0000      -0.487855       -13.2752
  52   2.0000      -0.475496       -12.9389
  53   2.0000      -0.470494       -12.8028
  54   2.0000      -0.462500       -12.5853
  55   2.0000      -0.454453       -12.3663
  56   2.0000      -0.444442       -12.0939
  57   2.0000      -0.439404       -11.9568
  58   2.0000      -0.428428       -11.6581
  59   2.0000      -0.423468       -11.5232
  60   2.0000      -0.414408       -11.2766
  61   2.0000      -0.413370       -11.2484
  62   2.0000      -0.407391       -11.0857
  63   2.0000      -0.369087       -10.0434
  64   2.0000      -0.335323        -9.1246
  65   2.0000      -0.326531        -8.8854
  66   2.0000      -0.289243        -7.8707
  67   0.0000       0.024314         0.6616
  68   0.0000       0.092798         2.5252
  69   0.0000       0.108776         2.9600
  70   0.0000       0.120845         3.2884
  71   0.0000       0.127221         3.4619

MULLIKEN ATOMIC CHARGES
-----------------------
   0 S :    0.095936
   1 C :   -0.053335
   2 C :   -0.103285
   3 C :   -0.034918
   4 C :   -0.114059
   5 H :    0.033587
   6 C :    0.077782
   7 H :    0.023224
   8 H :   -0.000282
   9 C :   -0.037913
  10 H :    0.020769
  11 H :    0.027401
  12 C :   -0.075110
  13 H :    0.028794
  14 H :    0.037536
  15 H :    0.041012
  16 S :    0.109811
  17 C :   -0.101044
  18 C :   -0.015741
  19 C :   -0.055932
  20 C :   -0.101840
  21 H :    0.013540
  22 C :    0.051478
  23 H :    0.005745
  24 H :    0.031944
  25 C :   -0.092023
  26 H :    0.021297
  27 H :    0.018524
  28 C :   -0.007418
  29 H :    0.020853
  30 H :    0.041935
  31 H :    0.024151
  32 H :   -0.004532
  33 H :    0.072112
Sum of atomic charges:    0.0000000

LOEWDIN ATOMIC CHARGES
----------------------
   0 S :    0.412037
   1 C :   -0.184216
   2 C :   -0.062520
   3 C :   -0.079866
   4 C :   -0.190022
   5 H :    0.041275
   6 C :   -0.028735
   7 H :    0.034905
   8 H :    0.017219
   9 C :   -0.035723
  10 H :    0.017289
  11 H :    0.029107
  12 C :   -0.077660
  13 H :    0.026116
  14 H :    0.023036
  15 H :    0.037103
  16 S :    0.421786
  17 C :   -0.193390
  18 C :   -0.070063
  19 C :   -0.052088
  20 C :   -0.207202
  21 H :    0.032006
  22 C :   -0.041336
  23 H :    0.024692
  24 H :    0.035836
  25 C :   -0.045713
  26 H :    0.023144
  27 H :    0.017322
  28 C :   -0.056637
  29 H :    0.022316
  30 H :    0.032556
  31 H :    0.020389
  32 H :    0.010564
  33 H :    0.046472

  Mayer bond orders larger than 0.100000
B(  0-S ,  1-C ) :   1.1174 B(  0-S ,  4-C ) :   1.1460 B(  1-C ,  2-C ) :   1.6086
B(  1-C , 32-H ) :   0.9842 B(  2-C ,  3-C ) :   1.2365 B(  2-C ,  6-C ) :   1.0600
B(  3-C ,  4-C ) :   1.5690 B(  3-C ,  5-H ) :   0.9703 B(  4-C , 20-C ) :   1.0888
B(  6-C ,  7-H ) :   0.9387 B(  6-C ,  8-H ) :   0.9307 B(  6-C ,  9-C ) :   1.0534
B(  9-C , 10-H ) :   0.9581 B(  9-C , 11-H ) :   0.9547 B(  9-C , 12-C ) :   1.0868
B( 12-C , 13-H ) :   0.9679 B( 12-C , 14-H ) :   0.9753 B( 12-C , 15-H ) :   0.9689
B( 16-S , 17-C ) :   1.1292 B( 16-S , 20-C ) :   1.1346 B( 17-C , 18-C ) :   1.6710
B( 17-C , 33-H ) :   0.9548 B( 18-C , 19-C ) :   1.2135 B( 18-C , 21-H ) :   0.9917
B( 19-C , 20-C ) :   1.5954 B( 19-C , 22-C ) :   1.0494 B( 22-C , 23-H ) :   0.9239
B( 22-C , 24-H ) :   0.9341 B( 22-C , 25-C ) :   1.0627 B( 25-C , 26-H ) :   0.9535
B( 25-C , 27-H ) :   0.9462 B( 25-C , 28-C ) :   1.0869 B( 28-C , 29-H ) :   0.9742
B( 28-C , 30-H ) :   0.9727 B( 28-C , 31-H ) :   0.9719

Dispersion correction           -0.014602968
FINAL SINGLE POINT ENERGY     -1339.875852086388

DIPOLE MOMENT
-------------
                                X             Y             Z
Electronic contribution:    -25.29314      -1.14411      18.07460
Nuclear contribution   :     25.84936       1.36249     -18.41710
                        -----------------------------------------
Total Dipole Moment    :      0.55622       0.21839      -0.34250
                        -----------------------------------------
Magnitude (a.u.)       :      0.68875
Magnitude (Debye)      :      1.75067

Rotational constants in cm-1:     0.016127     0.010796     0.007122
Rotational constants in MHz :   483.482621   323.651181   213.509986

                             ****ORCA TERMINATED NORMALLY****
TOTAL RUN TIME: 0 days 0 hours 0 minutes 22 seconds 649 msec
