                         Program Version 4.2.1 -  RELEASE  -
|  1> ! wB97X-D3 SP def2-SVP
|  2> %pal
|  3> nprocs 24
|  4> end
|  5>
|  6> * xyz 0 1
|  7> S 	 -68.6346 	 22.4835 	 -113.713
|  8> C 	 -69.2793 	 22.5618 	 -112.114
|  9> C 	 -68.4533 	 22.0678 	 -111.123
| 10> C 	 -67.3313 	 21.4488 	 -111.751
| 11> C 	 -67.4552 	 21.3413 	 -113.148
| 12> H 	 -66.4621 	 20.9808 	 -111.331
| 13> C 	 -68.6025 	 22.2054 	 -109.611
| 14> H 	 -68.9173 	 21.2931 	 -109.066
| 15> H 	 -69.5133 	 22.8628 	 -109.52
| 16> C 	 -67.4417 	 22.8084 	 -108.834
| 17> H 	 -66.508 	 22.217 	 -108.818
| 18> H 	 -67.1202 	 23.6394 	 -109.483
| 19> C 	 -67.7362 	 23.2738 	 -107.45
| 20> H 	 -66.8409 	 23.7109 	 -106.92
| 21> H 	 -68.4677 	 24.0822 	 -107.493
| 22> H 	 -68.2269 	 22.5428 	 -106.767
| 23> S 	 -65.7753 	 21.8329 	 -115.295
| 24> C 	 -64.598 	 20.6563 	 -115.822
| 25> C 	 -64.8478 	 19.4744 	 -115.102
| 26> C 	 -65.8713 	 19.5855 	 -114.102
| 27> C 	 -66.4287 	 20.8267 	 -114.08
| 28> H 	 -64.346 	 18.5788 	 -115.294
| 29> C 	 -66.3977 	 18.4042 	 -113.234
| 30> H 	 -67.4581 	 18.5888 	 -112.966
| 31> H 	 -65.8869 	 18.5596 	 -112.26
| 32> C 	 -65.9558 	 16.9695 	 -113.584
| 33> H 	 -64.8979 	 16.8504 	 -113.803
| 34> H 	 -66.4661 	 16.6454 	 -114.475
| 35> C 	 -66.3125 	 15.8075 	 -112.677
| 36> H 	 -67.3481 	 15.6112 	 -112.5
| 37> H 	 -65.813 	 15.7537 	 -111.717
| 38> H 	 -65.9663 	 14.8906 	 -113.23
| 39> H 	 -70.0517 	 23.2578 	 -111.909
| 40> H 	 -63.8214 	 20.7509 	 -116.578
| 41> *
| 42>
| 43>                          ****END OF INPUT****

CARTESIAN COORDINATES (ANGSTROEM)
---------------------------------
  S    -68.634600   22.483500  -113.713000
  C    -69.279300   22.561800  -112.114000
  C    -68.453300   22.067800  -111.123000
  C    -67.331300   21.448800  -111.751000
  C    -67.455200   21.341300  -113.148000
  H    -66.462100   20.980800  -111.331000
  C    -68.602500   22.205400  -109.611000
  H    -68.917300   21.293100  -109.066000
  H    -69.513300   22.862800  -109.520000
  C    -67.441700   22.808400  -108.834000
  H    -66.508000   22.217000  -108.818000
  H    -67.120200   23.639400  -109.483000
  C    -67.736200   23.273800  -107.450000
  H    -66.840900   23.710900  -106.920000
  H    -68.467700   24.082200  -107.493000
  H    -68.226900   22.542800  -106.767000
  S    -65.775300   21.832900  -115.295000
  C    -64.598000   20.656300  -115.822000
  C    -64.847800   19.474400  -115.102000
  C    -65.871300   19.585500  -114.102000
  C    -66.428700   20.826700  -114.080000
  H    -64.346000   18.578800  -115.294000
  C    -66.397700   18.404200  -113.234000
  H    -67.458100   18.588800  -112.966000
  H    -65.886900   18.559600  -112.260000
  C    -65.955800   16.969500  -113.584000
  H    -64.897900   16.850400  -113.803000
  H    -66.466100   16.645400  -114.475000
  C    -66.312500   15.807500  -112.677000
  H    -67.348100   15.611200  -112.500000
  H    -65.813000   15.753700  -111.717000
  H    -65.966300   14.890600  -113.230000
  H    -70.051700   23.257800  -111.909000
  H    -63.821400   20.750900  -116.578000

 Total Charge           Charge          ....    0
 Multiplicity           Mult            ....    1
 Number of Electrons    NEL             ....  134
 Basis Dimension        Dim             ....  322

ORBITAL ENERGIES
----------------

  NO   OCC          E(Eh)            E(eV)
   0   2.0000     -88.968069     -2420.9442
   1   2.0000     -88.964794     -2420.8551
   2   2.0000     -10.329172      -281.0711
   3   2.0000     -10.320198      -280.8269
   4   2.0000     -10.318913      -280.7919
   5   2.0000     -10.311810      -280.5986
   6   2.0000     -10.307023      -280.4683
   7   2.0000     -10.301666      -280.3226
   8   2.0000     -10.300029      -280.2780
   9   2.0000     -10.297540      -280.2103
  10   2.0000     -10.296214      -280.1742
  11   2.0000     -10.291489      -280.0457
  12   2.0000     -10.288791      -279.9722
  13   2.0000     -10.287272      -279.9309
  14   2.0000     -10.285205      -279.8747
  15   2.0000     -10.277903      -279.6760
  16   2.0000      -8.083672      -219.9679
  17   2.0000      -8.080176      -219.8728
  18   2.0000      -6.041882      -164.4080
  19   2.0000      -6.038712      -164.3217
  20   2.0000      -6.038432      -164.3141
  21   2.0000      -6.034476      -164.2064
  22   2.0000      -6.034321      -164.2022
  23   2.0000      -6.030981      -164.1113
  24   2.0000      -1.012137       -27.5416
  25   2.0000      -0.989171       -26.9167
  26   2.0000      -0.915376       -24.9087
  27   2.0000      -0.905181       -24.6312
  28   2.0000      -0.870671       -23.6922
  29   2.0000      -0.856781       -23.3142
  30   2.0000      -0.847061       -23.0497
  31   2.0000      -0.814700       -22.1691
  32   2.0000      -0.783571       -21.3221
  33   2.0000      -0.775064       -21.0906
  34   2.0000      -0.706213       -19.2170
  35   2.0000      -0.702912       -19.1272
  36   2.0000      -0.691104       -18.8059
  37   2.0000      -0.658842       -17.9280
  38   2.0000      -0.647043       -17.6069
  39   2.0000      -0.619172       -16.8485
  40   2.0000      -0.594077       -16.1657
  41   2.0000      -0.573733       -15.6121
  42   2.0000      -0.565405       -15.3855
  43   2.0000      -0.558686       -15.2026
  44   2.0000      -0.532100       -14.4792
  45   2.0000      -0.523866       -14.2551
  46   2.0000      -0.513673       -13.9777
  47   2.0000      -0.512893       -13.9565
  48   2.0000      -0.502423       -13.6716
  49   2.0000      -0.499321       -13.5872
  50   2.0000      -0.492251       -13.3948
  51   2.0000      -0.478415       -13.0183
  52   2.0000      -0.475870       -12.9491
  53   2.0000      -0.466862       -12.7040
  54   2.0000      -0.463074       -12.6009
  55   2.0000      -0.451562       -12.2876
  56   2.0000      -0.448325       -12.1995
  57   2.0000      -0.437605       -11.9078
  58   2.0000      -0.433973       -11.8090
  59   2.0000      -0.431785       -11.7495
  60   2.0000      -0.417986       -11.3740
  61   2.0000      -0.410934       -11.1821
  62   2.0000      -0.406840       -11.0707
  63   2.0000      -0.347641        -9.4598
  64   2.0000      -0.332231        -9.0405
  65   2.0000      -0.326293        -8.8789
  66   2.0000      -0.290987        -7.9182
  67   0.0000       0.027352         0.7443
  68   0.0000       0.068066         1.8522
  69   0.0000       0.101612         2.7650
  70   0.0000       0.124803         3.3961
  71   0.0000       0.140658         3.8275

MULLIKEN ATOMIC CHARGES
-----------------------
   0 S :    0.108537
   1 C :   -0.090669
   2 C :   -0.072640
   3 C :    0.022414
   4 C :   -0.171030
   5 H :    0.013394
   6 C :    0.065632
   7 H :    0.041734
   8 H :    0.015190
   9 C :   -0.084760
  10 H :    0.034685
  11 H :    0.029379
  12 C :   -0.061648
  13 H :    0.047796
  14 H :    0.022299
  15 H :    0.035761
  16 S :    0.110186
  17 C :   -0.089428
  18 C :   -0.027992
  19 C :   -0.051425
  20 C :   -0.152781
  21 H :   -0.007471
  22 C :    0.078442
  23 H :    0.049516
  24 H :    0.027507
  25 C :   -0.078978
  26 H :    0.035572
  27 H :    0.025249
  28 C :   -0.054717
  29 H :    0.028778
  30 H :    0.027319
  31 H :    0.028296
  32 H :    0.034003
  33 H :    0.061849
Sum of atomic charges:   -0.0000000

LOEWDIN ATOMIC CHARGES
----------------------
   0 S :    0.422493
   1 C :   -0.192999
   2 C :   -0.062801
   3 C :   -0.050040
   4 C :   -0.195656
   5 H :    0.028015
   6 C :   -0.034626
   7 H :    0.032985
   8 H :    0.033921
   9 C :   -0.055060
  10 H :    0.026107
  11 H :    0.029550
  12 C :   -0.072264
  13 H :    0.036904
  14 H :    0.023305
  15 H :    0.028287
  16 S :    0.422801
  17 C :   -0.193662
  18 C :   -0.064620
  19 C :   -0.062180
  20 C :   -0.220433
  21 H :    0.017334
  22 C :   -0.037852
  23 H :    0.038528
  24 H :    0.035009
  25 C :   -0.047867
  26 H :    0.027514
  27 H :    0.024866
  28 C :   -0.063805
  29 H :    0.020369
  30 H :    0.018510
  31 H :    0.035490
  32 H :    0.016521
  33 H :    0.035359

  Mayer bond orders larger than 0.100000
B(  0-S ,  1-C ) :   1.1639 B(  0-S ,  4-C ) :   1.1559 B(  1-C ,  2-C ) :   1.6022
B(  1-C , 32-H ) :   0.9631 B(  2-C ,  3-C ) :   1.2428 B(  2-C ,  6-C ) :   1.0235
B(  3-C ,  4-C ) :   1.5597 B(  3-C ,  5-H ) :   0.9966 B(  4-C , 20-C ) :   1.0284
B(  6-C ,  7-H ) :   0.9348 B(  6-C ,  8-H ) :   0.9397 B(  6-C ,  9-C ) :   1.0567
B(  9-C , 10-H ) :   0.9481 B(  9-C , 11-H ) :   0.9520 B(  9-C , 12-C ) :   1.0939
B( 12-C , 13-H ) :   0.9715 B( 12-C , 14-H ) :   0.9720 B( 12-C , 15-H ) :   0.9727
B( 16-S , 17-C ) :   1.1585 B( 16-S , 20-C ) :   1.1511 B( 17-C , 18-C ) :   1.5722
B( 17-C , 33-H ) :   0.9706 B( 18-C , 19-C ) :   1.2779 B( 18-C , 21-H ) :   0.9933
B( 19-C , 20-C ) :   1.6039 B( 19-C , 22-C ) :   1.0262 B( 22-C , 23-H ) :   0.9382
B( 22-C , 24-H ) :   0.9250 B( 22-C , 25-C ) :   1.0587 B( 25-C , 26-H ) :   0.9481
B( 25-C , 27-H ) :   0.9542 B( 25-C , 28-C ) :   1.0930 B( 28-C , 29-H ) :   0.9755
B( 28-C , 30-H ) :   0.9740 B( 28-C , 31-H ) :   0.9718

Dispersion correction           -0.013272997
FINAL SINGLE POINT ENERGY     -1339.866204364655

DIPOLE MOMENT
-------------
                                X             Y             Z
Electronic contribution:     -1.31207      14.44892     -24.48460
Nuclear contribution   :      1.49826     -14.71315      25.00612
                        -----------------------------------------
Total Dipole Moment    :      0.18619      -0.26424       0.52152
                        -----------------------------------------
Magnitude (a.u.)       :      0.61358
Magnitude (Debye)      :      1.55959

Rotational constants in cm-1:     0.016634     0.007939     0.006249
Rotational constants in MHz :   498.674769   237.998670   187.328470

                             ****ORCA TERMINATED NORMALLY****
TOTAL RUN TIME: 0 days 0 hours 0 minutes 20 seconds 669 msec
