                         Program Version 4.2.1 -  RELEASE  -
|  1> ! wB97X-D3 SP def2-SVP
|  2> %pal
|  3> nprocs 24
|  4> end
|  5>
|  6> * xyz 0 1
|  7> S 	 -37.72 	 -52.0274 	 -75.7641
|  8> C 	 -36.1804 	 -52.2448 	 -76.5389
|  9> C 	 -35.1661 	 -51.4797 	 -75.9462
| 10> C 	 -35.6526 	 -50.7247 	 -74.8615
| 11> C 	 -37.0377 	 -50.7763 	 -74.7482
| 12> H 	 -35.2222 	 -49.9876 	 -74.3298
| 13> C 	 -33.7911 	 -51.5046 	 -76.548
| 14> H 	 -33.8104 	 -52.4343 	 -77.1512
| 15> H 	 -33.0539 	 -51.6761 	 -75.728
| 16> C 	 -33.4087 	 -50.2188 	 -77.4115
| 17> H 	 -32.5002 	 -50.485 	 -78.0282
| 18> H 	 -34.1421 	 -49.9105 	 -78.1902
| 19> C 	 -33.2025 	 -48.9598 	 -76.5555
| 20> H 	 -34.0865 	 -48.7908 	 -75.9057
| 21> H 	 -32.2307 	 -49.1328 	 -76.0194
| 22> H 	 -33.109 	 -48.0856 	 -77.2471
| 23> S 	 -38.8091 	 -50.8751 	 -72.7279
| 24> C 	 -39.6785 	 -49.4385 	 -72.2048
| 25> C 	 -39.2924 	 -48.2955 	 -72.8652
| 26> C 	 -38.4418 	 -48.6201 	 -73.9507
| 27> C 	 -37.9382 	 -49.9518 	 -73.9099
| 28> H 	 -39.6254 	 -47.3001 	 -72.6433
| 29> C 	 -38.0755 	 -47.5981 	 -74.9972
| 30> H 	 -39.0725 	 -47.1573 	 -75.1411
| 31> H 	 -37.8128 	 -48.0776 	 -76.0071
| 32> C 	 -37.0936 	 -46.4945 	 -74.6279
| 33> H 	 -36.2247 	 -46.807 	 -74.1285
| 34> H 	 -37.6867 	 -45.7521 	 -74.0374
| 35> C 	 -36.6311 	 -45.7779 	 -75.9234
| 36> H 	 -36.2896 	 -44.7796 	 -75.7036
| 37> H 	 -37.4969 	 -45.6731 	 -76.5868
| 38> H 	 -35.7948 	 -46.3199 	 -76.3755
| 39> H 	 -36.0612 	 -53.1143 	 -77.2009
| 40> H 	 -40.2094 	 -49.4214 	 -71.2909
| 41> *
| 42>
| 43>                          ****END OF INPUT****

CARTESIAN COORDINATES (ANGSTROEM)
---------------------------------
  S    -37.720000  -52.027400  -75.764100
  C    -36.180400  -52.244800  -76.538900
  C    -35.166100  -51.479700  -75.946200
  C    -35.652600  -50.724700  -74.861500
  C    -37.037700  -50.776300  -74.748200
  H    -35.222200  -49.987600  -74.329800
  C    -33.791100  -51.504600  -76.548000
  H    -33.810400  -52.434300  -77.151200
  H    -33.053900  -51.676100  -75.728000
  C    -33.408700  -50.218800  -77.411500
  H    -32.500200  -50.485000  -78.028200
  H    -34.142100  -49.910500  -78.190200
  C    -33.202500  -48.959800  -76.555500
  H    -34.086500  -48.790800  -75.905700
  H    -32.230700  -49.132800  -76.019400
  H    -33.109000  -48.085600  -77.247100
  S    -38.809100  -50.875100  -72.727900
  C    -39.678500  -49.438500  -72.204800
  C    -39.292400  -48.295500  -72.865200
  C    -38.441800  -48.620100  -73.950700
  C    -37.938200  -49.951800  -73.909900
  H    -39.625400  -47.300100  -72.643300
  C    -38.075500  -47.598100  -74.997200
  H    -39.072500  -47.157300  -75.141100
  H    -37.812800  -48.077600  -76.007100
  C    -37.093600  -46.494500  -74.627900
  H    -36.224700  -46.807000  -74.128500
  H    -37.686700  -45.752100  -74.037400
  C    -36.631100  -45.777900  -75.923400
  H    -36.289600  -44.779600  -75.703600
  H    -37.496900  -45.673100  -76.586800
  H    -35.794800  -46.319900  -76.375500
  H    -36.061200  -53.114300  -77.200900
  H    -40.209400  -49.421400  -71.290900

 Total Charge           Charge          ....    0
 Multiplicity           Mult            ....    1
 Number of Electrons    NEL             ....  134
 Basis Dimension        Dim             ....  322

ORBITAL ENERGIES
----------------

  NO   OCC          E(Eh)            E(eV)
   0   2.0000     -88.964502     -2420.8472
   1   2.0000     -88.964068     -2420.8354
   2   2.0000     -10.329849      -281.0895
   3   2.0000     -10.326591      -281.0008
   4   2.0000     -10.314284      -280.6659
   5   2.0000     -10.313116      -280.6342
   6   2.0000     -10.305268      -280.4206
   7   2.0000     -10.302106      -280.3346
   8   2.0000     -10.300068      -280.2791
   9   2.0000     -10.297012      -280.1959
  10   2.0000     -10.294120      -280.1172
  11   2.0000     -10.293447      -280.0989
  12   2.0000     -10.288122      -279.9540
  13   2.0000     -10.287732      -279.9434
  14   2.0000     -10.286167      -279.9008
  15   2.0000     -10.277678      -279.6698
  16   2.0000      -8.079628      -219.8579
  17   2.0000      -8.079067      -219.8426
  18   2.0000      -6.037846      -164.2982
  19   2.0000      -6.037457      -164.2875
  20   2.0000      -6.034024      -164.1941
  21   2.0000      -6.033433      -164.1781
  22   2.0000      -6.030731      -164.1045
  23   2.0000      -6.030044      -164.0858
  24   2.0000      -1.006124       -27.3780
  25   2.0000      -0.984810       -26.7980
  26   2.0000      -0.910813       -24.7845
  27   2.0000      -0.904447       -24.6113
  28   2.0000      -0.867593       -23.6084
  29   2.0000      -0.851040       -23.1580
  30   2.0000      -0.848732       -23.0952
  31   2.0000      -0.819908       -22.3108
  32   2.0000      -0.777978       -21.1699
  33   2.0000      -0.761975       -20.7344
  34   2.0000      -0.702348       -19.1119
  35   2.0000      -0.693488       -18.8708
  36   2.0000      -0.689609       -18.7652
  37   2.0000      -0.665023       -18.0962
  38   2.0000      -0.652838       -17.7646
  39   2.0000      -0.615364       -16.7449
  40   2.0000      -0.596061       -16.2196
  41   2.0000      -0.572244       -15.5716
  42   2.0000      -0.568863       -15.4796
  43   2.0000      -0.542017       -14.7490
  44   2.0000      -0.539679       -14.6854
  45   2.0000      -0.523383       -14.2420
  46   2.0000      -0.520923       -14.1750
  47   2.0000      -0.511624       -13.9220
  48   2.0000      -0.499538       -13.5931
  49   2.0000      -0.493890       -13.4394
  50   2.0000      -0.487214       -13.2578
  51   2.0000      -0.482870       -13.1396
  52   2.0000      -0.470491       -12.8027
  53   2.0000      -0.465952       -12.6792
  54   2.0000      -0.460050       -12.5186
  55   2.0000      -0.448128       -12.1942
  56   2.0000      -0.440893       -11.9973
  57   2.0000      -0.436237       -11.8706
  58   2.0000      -0.434550       -11.8247
  59   2.0000      -0.430095       -11.7035
  60   2.0000      -0.420943       -11.4544
  61   2.0000      -0.411832       -11.2065
  62   2.0000      -0.411153       -11.1880
  63   2.0000      -0.340687        -9.2706
  64   2.0000      -0.332908        -9.0589
  65   2.0000      -0.322697        -8.7810
  66   2.0000      -0.296388        -8.0651
  67   0.0000       0.036085         0.9819
  68   0.0000       0.055633         1.5139
  69   0.0000       0.111817         3.0427
  70   0.0000       0.116404         3.1675
  71   0.0000       0.127425         3.4674

MULLIKEN ATOMIC CHARGES
-----------------------
   0 S :    0.121981
   1 C :   -0.137240
   2 C :   -0.098552
   3 C :    0.114207
   4 C :   -0.190950
   5 H :   -0.034744
   6 C :    0.065360
   7 H :    0.023547
   8 H :    0.037148
   9 C :   -0.094068
  10 H :    0.040445
  11 H :    0.035958
  12 C :   -0.085173
  13 H :    0.048534
  14 H :    0.044471
  15 H :    0.043942
  16 S :    0.100133
  17 C :   -0.070223
  18 C :   -0.025660
  19 C :   -0.028646
  20 C :   -0.174103
  21 H :    0.017388
  22 C :    0.006056
  23 H :    0.027721
  24 H :    0.046719
  25 C :   -0.043086
  26 H :    0.025744
  27 H :    0.029379
  28 C :   -0.057300
  29 H :    0.025542
  30 H :    0.031252
  31 H :    0.043055
  32 H :    0.063256
  33 H :    0.047906
Sum of atomic charges:   -0.0000000

LOEWDIN ATOMIC CHARGES
----------------------
   0 S :    0.414117
   1 C :   -0.207113
   2 C :   -0.064194
   3 C :   -0.051777
   4 C :   -0.194250
   5 H :    0.011498
   6 C :   -0.034441
   7 H :    0.033776
   8 H :    0.034500
   9 C :   -0.047398
  10 H :    0.028211
  11 H :    0.027003
  12 C :   -0.074872
  13 H :    0.027379
  14 H :    0.030812
  15 H :    0.030660
  16 S :    0.413384
  17 C :   -0.174324
  18 C :   -0.065653
  19 C :   -0.053207
  20 C :   -0.213714
  21 H :    0.031844
  22 C :   -0.044866
  23 H :    0.035446
  24 H :    0.038553
  25 C :   -0.034816
  26 H :    0.015606
  27 H :    0.027627
  28 C :   -0.061697
  29 H :    0.021678
  30 H :    0.025258
  31 H :    0.026820
  32 H :    0.028913
  33 H :    0.019237

  Mayer bond orders larger than 0.100000
B(  0-S ,  1-C ) :   1.1558 B(  0-S ,  4-C ) :   1.1731 B(  1-C ,  2-C ) :   1.5851
B(  1-C ,  4-C ) :   0.1073 B(  1-C , 32-H ) :   0.9617 B(  2-C ,  3-C ) :   1.2443
B(  2-C ,  6-C ) :   1.0288 B(  3-C ,  4-C ) :   1.5676 B(  3-C ,  5-H ) :   1.0063
B(  4-C , 20-C ) :   1.0013 B(  6-C ,  7-H ) :   0.9395 B(  6-C ,  8-H ) :   0.9412
B(  6-C ,  9-C ) :   1.0439 B(  9-C , 10-H ) :   0.9585 B(  9-C , 11-H ) :   0.9606
B(  9-C , 12-C ) :   1.0696 B( 12-C , 13-H ) :   0.9696 B( 12-C , 14-H ) :   0.9758
B( 12-C , 15-H ) :   0.9733 B( 16-S , 17-C ) :   1.1652 B( 16-S , 20-C ) :   1.1580
B( 17-C , 18-C ) :   1.5978 B( 17-C , 20-C ) :   0.1042 B( 17-C , 33-H ) :   0.9670
B( 18-C , 19-C ) :   1.2575 B( 18-C , 21-H ) :   0.9906 B( 19-C , 20-C ) :   1.5728
B( 19-C , 22-C ) :   1.0366 B( 22-C , 23-H ) :   0.9245 B( 22-C , 24-H ) :   0.9462
B( 22-C , 25-C ) :   1.0615 B( 25-C , 26-H ) :   0.9640 B( 25-C , 27-H ) :   0.9513
B( 25-C , 28-C ) :   1.0843 B( 28-C , 29-H ) :   0.9738 B( 28-C , 30-H ) :   0.9728
B( 28-C , 31-H ) :   0.9776

Dispersion correction           -0.014774266
FINAL SINGLE POINT ENERGY     -1339.868563337320

DIPOLE MOMENT
-------------
                                X             Y             Z
Electronic contribution:    -18.79597     -21.27886      12.45356
Nuclear contribution   :     19.12454      21.79228     -12.61069
                        -----------------------------------------
Total Dipole Moment    :      0.32857       0.51342      -0.15713
                        -----------------------------------------
Magnitude (a.u.)       :      0.62949
Magnitude (Debye)      :      1.60003

Rotational constants in cm-1:     0.016801     0.010427     0.007109
Rotational constants in MHz :   503.685939   312.579598   213.115541

                             ****ORCA TERMINATED NORMALLY****
TOTAL RUN TIME: 0 days 0 hours 0 minutes 22 seconds 258 msec
