                         Program Version 4.2.1 -  RELEASE  -
|  1> ! wB97X-D3 SP def2-SVP
|  2> %pal
|  3> nprocs 24
|  4> end
|  5>
|  6> * xyz 0 1
|  7> S 	 -55.8084 	 20.3229 	 22.2097
|  8> C 	 -57.099 	 19.1096 	 22.5183
|  9> C 	 -56.5344 	 17.9018 	 22.8869
| 10> C 	 -55.1266 	 17.9501 	 22.8064
| 11> C 	 -54.5625 	 19.1985 	 22.4566
| 12> H 	 -54.4918 	 17.1744 	 23.1179
| 13> C 	 -57.2755 	 16.6709 	 23.2647
| 14> H 	 -56.5838 	 15.9029 	 23.539
| 15> H 	 -57.9022 	 16.1084 	 22.5089
| 16> C 	 -58.1268 	 16.931 	 24.4754
| 17> H 	 -58.9253 	 17.6399 	 24.2657
| 18> H 	 -58.561 	 15.9564 	 24.6901
| 19> C 	 -57.3492 	 17.4232 	 25.6863
| 20> H 	 -56.6715 	 16.6843 	 26.0499
| 21> H 	 -56.7777 	 18.3168 	 25.4831
| 22> H 	 -58.1361 	 17.5458 	 26.4679
| 23> S 	 -52.5794 	 18.8814 	 20.6613
| 24> C 	 -51.0683 	 19.6148 	 20.8393
| 25> C 	 -51.0035 	 20.4674 	 21.9098
| 26> C 	 -52.2114 	 20.4452 	 22.7012
| 27> C 	 -53.1429 	 19.5702 	 22.1149
| 28> H 	 -50.0503 	 21.003 	 22.1445
| 29> C 	 -52.4003 	 21.1858 	 24.0953
| 30> H 	 -53.4207 	 21.6109 	 24.1268
| 31> H 	 -51.8052 	 22.1118 	 24.038
| 32> C 	 -52.0311 	 20.2613 	 25.2592
| 33> H 	 -52.7505 	 19.4382 	 25.3742
| 34> H 	 -52.22 	 20.7592 	 26.2533
| 35> C 	 -50.4917 	 19.8444 	 25.4675
| 36> H 	 -49.9443 	 19.589 	 24.4965
| 37> H 	 -50.2282 	 19.0199 	 26.1818
| 38> H 	 -50.0394 	 20.7866 	 25.9886
| 39> H 	 -58.1065 	 19.3449 	 22.313
| 40> H 	 -50.2928 	 19.3926 	 20.1575
| 41> *
| 42>
| 43>                          ****END OF INPUT****

CARTESIAN COORDINATES (ANGSTROEM)
---------------------------------
  S    -55.808400   20.322900   22.209700
  C    -57.099000   19.109600   22.518300
  C    -56.534400   17.901800   22.886900
  C    -55.126600   17.950100   22.806400
  C    -54.562500   19.198500   22.456600
  H    -54.491800   17.174400   23.117900
  C    -57.275500   16.670900   23.264700
  H    -56.583800   15.902900   23.539000
  H    -57.902200   16.108400   22.508900
  C    -58.126800   16.931000   24.475400
  H    -58.925300   17.639900   24.265700
  H    -58.561000   15.956400   24.690100
  C    -57.349200   17.423200   25.686300
  H    -56.671500   16.684300   26.049900
  H    -56.777700   18.316800   25.483100
  H    -58.136100   17.545800   26.467900
  S    -52.579400   18.881400   20.661300
  C    -51.068300   19.614800   20.839300
  C    -51.003500   20.467400   21.909800
  C    -52.211400   20.445200   22.701200
  C    -53.142900   19.570200   22.114900
  H    -50.050300   21.003000   22.144500
  C    -52.400300   21.185800   24.095300
  H    -53.420700   21.610900   24.126800
  H    -51.805200   22.111800   24.038000
  C    -52.031100   20.261300   25.259200
  H    -52.750500   19.438200   25.374200
  H    -52.220000   20.759200   26.253300
  C    -50.491700   19.844400   25.467500
  H    -49.944300   19.589000   24.496500
  H    -50.228200   19.019900   26.181800
  H    -50.039400   20.786600   25.988600
  H    -58.106500   19.344900   22.313000
  H    -50.292800   19.392600   20.157500

 Total Charge           Charge          ....    0
 Multiplicity           Mult            ....    1
 Number of Electrons    NEL             ....  134
 Basis Dimension        Dim             ....  322

ORBITAL ENERGIES
----------------

  NO   OCC          E(Eh)            E(eV)
   0   2.0000     -88.965071     -2420.8627
   1   2.0000     -88.964571     -2420.8491
   2   2.0000     -10.331180      -281.1257
   3   2.0000     -10.326873      -281.0085
   4   2.0000     -10.313607      -280.6475
   5   2.0000     -10.310506      -280.5631
   6   2.0000     -10.307927      -280.4929
   7   2.0000     -10.304104      -280.3889
   8   2.0000     -10.299947      -280.2758
   9   2.0000     -10.297511      -280.2095
  10   2.0000     -10.297248      -280.2024
  11   2.0000     -10.296708      -280.1877
  12   2.0000     -10.289984      -280.0047
  13   2.0000     -10.287854      -279.9467
  14   2.0000     -10.279786      -279.7272
  15   2.0000     -10.270604      -279.4773
  16   2.0000      -8.081383      -219.9056
  17   2.0000      -8.079938      -219.8663
  18   2.0000      -6.039550      -164.3445
  19   2.0000      -6.038339      -164.3116
  20   2.0000      -6.035512      -164.2346
  21   2.0000      -6.034141      -164.1973
  22   2.0000      -6.032458      -164.1515
  23   2.0000      -6.031085      -164.1142
  24   2.0000      -1.010907       -27.5082
  25   2.0000      -0.989004       -26.9122
  26   2.0000      -0.921771       -25.0827
  27   2.0000      -0.896235       -24.3878
  28   2.0000      -0.864702       -23.5298
  29   2.0000      -0.845630       -23.0108
  30   2.0000      -0.837777       -22.7971
  31   2.0000      -0.809549       -22.0289
  32   2.0000      -0.785875       -21.3848
  33   2.0000      -0.774243       -21.0682
  34   2.0000      -0.702487       -19.1156
  35   2.0000      -0.697537       -18.9809
  36   2.0000      -0.685919       -18.6648
  37   2.0000      -0.659605       -17.9488
  38   2.0000      -0.646278       -17.5861
  39   2.0000      -0.612099       -16.6561
  40   2.0000      -0.594564       -16.1789
  41   2.0000      -0.582295       -15.8451
  42   2.0000      -0.549869       -14.9627
  43   2.0000      -0.544943       -14.8287
  44   2.0000      -0.542036       -14.7495
  45   2.0000      -0.537794       -14.6341
  46   2.0000      -0.515251       -14.0207
  47   2.0000      -0.505607       -13.7583
  48   2.0000      -0.500493       -13.6191
  49   2.0000      -0.493853       -13.4384
  50   2.0000      -0.480063       -13.0632
  51   2.0000      -0.478966       -13.0333
  52   2.0000      -0.472109       -12.8467
  53   2.0000      -0.464986       -12.6529
  54   2.0000      -0.459653       -12.5078
  55   2.0000      -0.450897       -12.2695
  56   2.0000      -0.438165       -11.9231
  57   2.0000      -0.435727       -11.8567
  58   2.0000      -0.428731       -11.6664
  59   2.0000      -0.423270       -11.5178
  60   2.0000      -0.417102       -11.3499
  61   2.0000      -0.415230       -11.2990
  62   2.0000      -0.403102       -10.9690
  63   2.0000      -0.338578        -9.2132
  64   2.0000      -0.330522        -8.9940
  65   2.0000      -0.327092        -8.9006
  66   2.0000      -0.303296        -8.2531
  67   0.0000       0.039579         1.0770
  68   0.0000       0.062833         1.7098
  69   0.0000       0.115083         3.1316
  70   0.0000       0.122587         3.3358
  71   0.0000       0.124387         3.3847

MULLIKEN ATOMIC CHARGES
-----------------------
   0 S :    0.111399
   1 C :   -0.139719
   2 C :   -0.064143
   3 C :    0.041827
   4 C :   -0.153531
   5 H :   -0.009766
   6 C :    0.087643
   7 H :   -0.001296
   8 H :    0.047463
   9 C :   -0.092941
  10 H :    0.030660
  11 H :    0.019925
  12 C :   -0.044043
  13 H :    0.017449
  14 H :    0.051538
  15 H :    0.036620
  16 S :    0.142149
  17 C :   -0.089706
  18 C :   -0.052869
  19 C :   -0.050523
  20 C :   -0.186001
  21 H :    0.038018
  22 C :    0.100758
  23 H :    0.034392
  24 H :    0.023412
  25 C :   -0.070541
  26 H :    0.036692
  27 H :    0.030827
  28 C :   -0.126972
  29 H :    0.056244
  30 H :    0.050228
  31 H :    0.043117
  32 H :    0.038496
  33 H :    0.043192
Sum of atomic charges:    0.0000000

LOEWDIN ATOMIC CHARGES
----------------------
   0 S :    0.421269
   1 C :   -0.177149
   2 C :   -0.061457
   3 C :   -0.066146
   4 C :   -0.214937
   5 H :    0.021341
   6 C :   -0.038097
   7 H :    0.024528
   8 H :    0.040895
   9 C :   -0.039558
  10 H :    0.020100
  11 H :    0.022712
  12 C :   -0.062106
  13 H :    0.018274
  14 H :    0.026598
  15 H :    0.032985
  16 S :    0.462868
  17 C :   -0.201764
  18 C :   -0.080758
  19 C :   -0.055184
  20 C :   -0.222610
  21 H :    0.039841
  22 C :   -0.028958
  23 H :    0.036074
  24 H :    0.031594
  25 C :   -0.051222
  26 H :    0.025531
  27 H :    0.029892
  28 C :   -0.087942
  29 H :    0.029887
  30 H :    0.032162
  31 H :    0.033995
  32 H :    0.017542
  33 H :    0.019799

  Mayer bond orders larger than 0.100000
B(  0-S ,  1-C ) :   1.1532 B(  0-S ,  4-C ) :   1.1950 B(  1-C ,  2-C ) :   1.5486
B(  1-C ,  4-C ) :   0.1047 B(  1-C , 32-H ) :   0.9837 B(  2-C ,  3-C ) :   1.2732
B(  2-C ,  6-C ) :   1.0218 B(  3-C ,  4-C ) :   1.5389 B(  3-C ,  5-H ) :   1.0057
B(  4-C , 20-C ) :   0.9744 B(  6-C ,  7-H ) :   0.9335 B(  6-C ,  8-H ) :   0.9378
B(  6-C ,  9-C ) :   1.0784 B(  9-C , 10-H ) :   0.9581 B(  9-C , 11-H ) :   0.9536
B(  9-C , 12-C ) :   1.0801 B( 12-C , 13-H ) :   0.9743 B( 12-C , 14-H ) :   0.9711
B( 12-C , 15-H ) :   0.9730 B( 16-S , 17-C ) :   1.1828 B( 16-S , 20-C ) :   1.1931
B( 17-C , 18-C ) :   1.5825 B( 17-C , 33-H ) :   0.9747 B( 18-C , 19-C ) :   1.2638
B( 18-C , 21-H ) :   0.9839 B( 19-C , 20-C ) :   1.5791 B( 19-C , 22-C ) :   1.0249
B( 22-C , 23-H ) :   0.9343 B( 22-C , 24-H ) :   0.9403 B( 22-C , 25-C ) :   1.0639
B( 25-C , 26-H ) :   0.9610 B( 25-C , 27-H ) :   0.9590 B( 25-C , 28-C ) :   1.0393
B( 28-C , 29-H ) :   0.9763 B( 28-C , 30-H ) :   0.9767 B( 28-C , 31-H ) :   0.9801

Dispersion correction           -0.014956083
FINAL SINGLE POINT ENERGY     -1339.871084377983

DIPOLE MOMENT
-------------
                                X             Y             Z
Electronic contribution:      1.49791       6.00777     -23.09281
Nuclear contribution   :     -1.46871      -6.23974      23.40578
                        -----------------------------------------
Total Dipole Moment    :      0.02920      -0.23197       0.31297
                        -----------------------------------------
Magnitude (a.u.)       :      0.39066
Magnitude (Debye)      :      0.99297

Rotational constants in cm-1:     0.020795     0.008419     0.007119
Rotational constants in MHz :   623.423990   252.401614   213.431901

                             ****ORCA TERMINATED NORMALLY****
TOTAL RUN TIME: 0 days 0 hours 0 minutes 21 seconds 667 msec
