                         Program Version 4.2.1 -  RELEASE  -
|  1> ! wB97X-D3 SP def2-SVP
|  2> %pal
|  3> nprocs 24
|  4> end
|  5>
|  6> * xyz 0 1
|  7> S 	 -143.106 	 9.43773 	 5.08045
|  8> C 	 -142.383 	 10.8556 	 4.40295
|  9> C 	 -141.627 	 10.6439 	 3.30487
| 10> C 	 -141.79 	 9.30371 	 2.82139
| 11> C 	 -142.588 	 8.51197 	 3.69496
| 12> H 	 -141.317 	 8.83745 	 1.98475
| 13> C 	 -140.803 	 11.6692 	 2.52696
| 14> H 	 -141.541 	 12.2985 	 1.9813
| 15> H 	 -140.262 	 11.1011 	 1.83251
| 16> C 	 -139.822 	 12.5388 	 3.35067
| 17> H 	 -140.334 	 12.9067 	 4.27162
| 18> H 	 -138.974 	 11.9275 	 3.70057
| 19> C 	 -139.321 	 13.758 	 2.52955
| 20> H 	 -138.788 	 13.4935 	 1.59648
| 21> H 	 -140.027 	 14.5008 	 2.25502
| 22> H 	 -138.663 	 14.3437 	 3.12893
| 23> S 	 -142.853 	 5.92901 	 4.62238
| 24> C 	 -143.895 	 4.74824 	 3.7564
| 25> C 	 -144.252 	 5.318 	 2.52955
| 26> C 	 -143.848 	 6.69775 	 2.36869
| 27> C 	 -143.08 	 7.14663 	 3.39988
| 28> H 	 -144.791 	 4.69417 	 1.78378
| 29> C 	 -144.192 	 7.4309 	 1.0896
| 30> H 	 -143.924 	 8.53346 	 1.06801
| 31> H 	 -145.305 	 7.33773 	 1.00488
| 32> C 	 -143.462 	 7.00338 	 -0.233866
| 33> H 	 -143.787 	 5.93568 	 -0.454592
| 34> H 	 -142.373 	 7.0145 	 -0.171412
| 35> C 	 -143.818 	 7.85271 	 -1.445
| 36> H 	 -144.027 	 8.94609 	 -1.26992
| 37> H 	 -144.724 	 7.44478 	 -1.83765
| 38> H 	 -143.136 	 7.6665 	 -2.32944
| 39> H 	 -142.531 	 11.7772 	 4.84425
| 40> H 	 -144.201 	 3.78759 	 4.05044
| 41> *
| 42>
| 43>                          ****END OF INPUT****

CARTESIAN COORDINATES (ANGSTROEM)
---------------------------------
  S    -143.106000    9.437730    5.080450
  C    -142.383000   10.855600    4.402950
  C    -141.627000   10.643900    3.304870
  C    -141.790000    9.303710    2.821390
  C    -142.588000    8.511970    3.694960
  H    -141.317000    8.837450    1.984750
  C    -140.803000   11.669200    2.526960
  H    -141.541000   12.298500    1.981300
  H    -140.262000   11.101100    1.832510
  C    -139.822000   12.538800    3.350670
  H    -140.334000   12.906700    4.271620
  H    -138.974000   11.927500    3.700570
  C    -139.321000   13.758000    2.529550
  H    -138.788000   13.493500    1.596480
  H    -140.027000   14.500800    2.255020
  H    -138.663000   14.343700    3.128930
  S    -142.853000    5.929010    4.622380
  C    -143.895000    4.748240    3.756400
  C    -144.252000    5.318000    2.529550
  C    -143.848000    6.697750    2.368690
  C    -143.080000    7.146630    3.399880
  H    -144.791000    4.694170    1.783780
  C    -144.192000    7.430900    1.089600
  H    -143.924000    8.533460    1.068010
  H    -145.305000    7.337730    1.004880
  C    -143.462000    7.003380   -0.233866
  H    -143.787000    5.935680   -0.454592
  H    -142.373000    7.014500   -0.171412
  C    -143.818000    7.852710   -1.445000
  H    -144.027000    8.946090   -1.269920
  H    -144.724000    7.444780   -1.837650
  H    -143.136000    7.666500   -2.329440
  H    -142.531000   11.777200    4.844250
  H    -144.201000    3.787590    4.050440

 Total Charge           Charge          ....    0
 Multiplicity           Mult            ....    1
 Number of Electrons    NEL             ....  134
 Basis Dimension        Dim             ....  322

ORBITAL ENERGIES
----------------

  NO   OCC          E(Eh)            E(eV)
   0   2.0000     -88.967688     -2420.9339
   1   2.0000     -88.963187     -2420.8114
   2   2.0000     -10.331285      -281.1286
   3   2.0000     -10.325837      -280.9803
   4   2.0000     -10.320304      -280.8298
   5   2.0000     -10.303835      -280.3816
   6   2.0000     -10.302520      -280.3458
   7   2.0000     -10.300187      -280.2824
   8   2.0000     -10.299269      -280.2574
   9   2.0000     -10.297910      -280.2204
  10   2.0000     -10.296246      -280.1751
  11   2.0000     -10.295892      -280.1655
  12   2.0000     -10.293830      -280.1094
  13   2.0000     -10.292427      -280.0712
  14   2.0000     -10.282646      -279.8050
  15   2.0000     -10.276753      -279.6447
  16   2.0000      -8.082850      -219.9455
  17   2.0000      -8.077470      -219.7991
  18   2.0000      -6.041251      -164.3908
  19   2.0000      -6.037345      -164.2845
  20   2.0000      -6.036200      -164.2534
  21   2.0000      -6.033650      -164.1840
  22   2.0000      -6.031942      -164.1375
  23   2.0000      -6.028115      -164.0333
  24   2.0000      -1.004677       -27.3386
  25   2.0000      -0.982866       -26.7451
  26   2.0000      -0.908248       -24.7147
  27   2.0000      -0.901882       -24.5415
  28   2.0000      -0.865999       -23.5650
  29   2.0000      -0.852332       -23.1931
  30   2.0000      -0.846653       -23.0386
  31   2.0000      -0.812466       -22.1083
  32   2.0000      -0.782865       -21.3028
  33   2.0000      -0.769889       -20.9498
  34   2.0000      -0.710135       -19.3238
  35   2.0000      -0.699384       -19.0312
  36   2.0000      -0.690004       -18.7760
  37   2.0000      -0.662941       -18.0395
  38   2.0000      -0.647504       -17.6195
  39   2.0000      -0.610493       -16.6124
  40   2.0000      -0.593430       -16.1481
  41   2.0000      -0.573124       -15.5955
  42   2.0000      -0.560739       -15.2585
  43   2.0000      -0.555620       -15.1192
  44   2.0000      -0.523644       -14.2491
  45   2.0000      -0.522516       -14.2184
  46   2.0000      -0.516700       -14.0601
  47   2.0000      -0.514036       -13.9876
  48   2.0000      -0.505990       -13.7687
  49   2.0000      -0.497925       -13.5492
  50   2.0000      -0.493140       -13.4190
  51   2.0000      -0.481453       -13.1010
  52   2.0000      -0.470408       -12.8005
  53   2.0000      -0.464641       -12.6435
  54   2.0000      -0.460305       -12.5255
  55   2.0000      -0.448431       -12.2024
  56   2.0000      -0.445119       -12.1123
  57   2.0000      -0.437496       -11.9049
  58   2.0000      -0.426747       -11.6124
  59   2.0000      -0.425907       -11.5895
  60   2.0000      -0.422898       -11.5076
  61   2.0000      -0.418299       -11.3825
  62   2.0000      -0.406471       -11.0606
  63   2.0000      -0.340393        -9.2626
  64   2.0000      -0.333401        -9.0723
  65   2.0000      -0.327110        -8.9011
  66   2.0000      -0.295739        -8.0475
  67   0.0000       0.033892         0.9223
  68   0.0000       0.065712         1.7881
  69   0.0000       0.110665         3.0114
  70   0.0000       0.125852         3.4246
  71   0.0000       0.126902         3.4532

MULLIKEN ATOMIC CHARGES
-----------------------
   0 S :    0.132576
   1 C :   -0.119417
   2 C :   -0.067031
   3 C :    0.016946
   4 C :   -0.146398
   5 H :    0.007345
   6 C :    0.109155
   7 H :    0.045292
   8 H :    0.003825
   9 C :   -0.093643
  10 H :    0.033730
  11 H :    0.041714
  12 C :   -0.036830
  13 H :    0.034747
  14 H :    0.020904
  15 H :    0.019528
  16 S :    0.090593
  17 C :   -0.077352
  18 C :   -0.054282
  19 C :    0.009736
  20 C :   -0.170165
  21 H :    0.036635
  22 C :    0.004766
  23 H :    0.038084
  24 H :    0.041799
  25 C :   -0.081274
  26 H :    0.029377
  27 H :    0.036103
  28 C :   -0.066667
  29 H :    0.046034
  30 H :    0.015892
  31 H :    0.042339
  32 H :    0.015234
  33 H :    0.040704
Sum of atomic charges:    0.0000000

LOEWDIN ATOMIC CHARGES
----------------------
   0 S :    0.424044
   1 C :   -0.188467
   2 C :   -0.065074
   3 C :   -0.055250
   4 C :   -0.197006
   5 H :    0.027178
   6 C :   -0.025813
   7 H :    0.039120
   8 H :    0.020760
   9 C :   -0.037224
  10 H :    0.025814
  11 H :    0.030470
  12 C :   -0.068340
  13 H :    0.028463
  14 H :    0.020824
  15 H :    0.023109
  16 S :    0.385464
  17 C :   -0.166631
  18 C :   -0.068151
  19 C :   -0.064443
  20 C :   -0.199614
  21 H :    0.036466
  22 C :   -0.040677
  23 H :    0.035628
  24 H :    0.036620
  25 C :   -0.044367
  26 H :    0.026023
  27 H :    0.021875
  28 C :   -0.079972
  29 H :    0.031061
  30 H :    0.020513
  31 H :    0.036005
  32 H :    0.009770
  33 H :    0.021824

  Mayer bond orders larger than 0.100000
B(  0-S ,  1-C ) :   1.1481 B(  0-S ,  4-C ) :   1.1674 B(  1-C ,  2-C ) :   1.6077
B(  1-C , 32-H ) :   0.9788 B(  2-C ,  3-C ) :   1.2402 B(  2-C ,  6-C ) :   1.0062
B(  3-C ,  4-C ) :   1.5578 B(  3-C ,  5-H ) :   1.0006 B(  4-C , 20-C ) :   1.0147
B(  6-C ,  7-H ) :   0.9423 B(  6-C ,  8-H ) :   0.9375 B(  6-C ,  9-C ) :   1.0589
B(  9-C , 10-H ) :   0.9605 B(  9-C , 11-H ) :   0.9568 B(  9-C , 12-C ) :   1.0791
B( 12-C , 13-H ) :   0.9753 B( 12-C , 14-H ) :   0.9746 B( 12-C , 15-H ) :   0.9726
B( 16-S , 17-C ) :   1.1337 B( 16-S , 20-C ) :   1.1291 B( 17-C , 18-C ) :   1.6301
B( 17-C , 33-H ) :   0.9763 B( 18-C , 19-C ) :   1.2118 B( 18-C , 21-H ) :   0.9807
B( 19-C , 20-C ) :   1.6301 B( 19-C , 22-C ) :   1.0455 B( 22-C , 23-H ) :   0.9381
B( 22-C , 24-H ) :   0.9354 B( 22-C , 25-C ) :   1.0504 B( 25-C , 26-H ) :   0.9537
B( 25-C , 27-H ) :   0.9615 B( 25-C , 28-C ) :   1.0757 B( 28-C , 29-H ) :   0.9724
B( 28-C , 30-H ) :   0.9748 B( 28-C , 31-H ) :   0.9724

Dispersion correction           -0.013694557
FINAL SINGLE POINT ENERGY     -1339.875123636932

DIPOLE MOMENT
-------------
                                X             Y             Z
Electronic contribution:     -7.45660     -16.66408      24.19044
Nuclear contribution   :      7.47733      16.96535     -24.82480
                        -----------------------------------------
Total Dipole Moment    :      0.02073       0.30127      -0.63436
                        -----------------------------------------
Magnitude (a.u.)       :      0.70257
Magnitude (Debye)      :      1.78579

Rotational constants in cm-1:     0.018650     0.007884     0.005973
Rotational constants in MHz :   559.115021   236.353417   179.071918

                             ****ORCA TERMINATED NORMALLY****
TOTAL RUN TIME: 0 days 0 hours 0 minutes 20 seconds 985 msec
