                         Program Version 4.2.1 -  RELEASE  -
|  1> ! wB97X-D3 SP def2-SVP
|  2> %pal
|  3> nprocs 24
|  4> end
|  5>
|  6> * xyz 0 1
|  7> S 	 -37.8196 	 -10.7185 	 20.6017
|  8> C 	 -36.9152 	 -10.9927 	 22.0473
|  9> C 	 -36.1487 	 -12.2064 	 21.9744
| 10> C 	 -36.4969 	 -12.8654 	 20.7571
| 11> C 	 -37.2626 	 -12.1473 	 19.8287
| 12> H 	 -36.0525 	 -13.8258 	 20.4735
| 13> C 	 -35.115 	 -12.6836 	 22.9651
| 14> H 	 -35.565 	 -13.4926 	 23.5587
| 15> H 	 -35.0899 	 -11.8286 	 23.6994
| 16> C 	 -33.7347 	 -13.1348 	 22.4445
| 17> H 	 -33.0019 	 -13.256 	 23.3256
| 18> H 	 -33.7567 	 -14.1202 	 21.9547
| 19> C 	 -33.1454 	 -12.1796 	 21.4347
| 20> H 	 -32.1788 	 -12.5518 	 21.128
| 21> H 	 -33.745 	 -12.1612 	 20.5489
| 22> H 	 -33.036 	 -11.1414 	 21.8078
| 23> S 	 -39.3743 	 -12.3816 	 17.9956
| 24> C 	 -39.0386 	 -13.0781 	 16.4278
| 25> C 	 -37.7545 	 -13.4293 	 16.2688
| 26> C 	 -36.9746 	 -13.1214 	 17.4369
| 27> C 	 -37.6857 	 -12.5216 	 18.4691
| 28> H 	 -37.5113 	 -13.8897 	 15.3874
| 29> C 	 -35.4758 	 -13.3677 	 17.4831
| 30> H 	 -35.2688 	 -14.084 	 16.692
| 31> H 	 -35.2768 	 -13.6844 	 18.4879
| 32> C 	 -34.5368 	 -12.156 	 17.2445
| 33> H 	 -34.9288 	 -11.3732 	 17.9287
| 34> H 	 -34.5532 	 -11.6867 	 16.2288
| 35> C 	 -33.0615 	 -12.5659 	 17.5527
| 36> H 	 -32.6209 	 -13.2909 	 16.8685
| 37> H 	 -33.0525 	 -13.182 	 18.4453
| 38> H 	 -32.3412 	 -11.7319 	 17.7176
| 39> H 	 -36.9136 	 -10.2217 	 22.8072
| 40> H 	 -39.834 	 -13.241 	 15.7695
| 41> *
| 42>
| 43>                          ****END OF INPUT****

CARTESIAN COORDINATES (ANGSTROEM)
---------------------------------
  S    -37.819600  -10.718500   20.601700
  C    -36.915200  -10.992700   22.047300
  C    -36.148700  -12.206400   21.974400
  C    -36.496900  -12.865400   20.757100
  C    -37.262600  -12.147300   19.828700
  H    -36.052500  -13.825800   20.473500
  C    -35.115000  -12.683600   22.965100
  H    -35.565000  -13.492600   23.558700
  H    -35.089900  -11.828600   23.699400
  C    -33.734700  -13.134800   22.444500
  H    -33.001900  -13.256000   23.325600
  H    -33.756700  -14.120200   21.954700
  C    -33.145400  -12.179600   21.434700
  H    -32.178800  -12.551800   21.128000
  H    -33.745000  -12.161200   20.548900
  H    -33.036000  -11.141400   21.807800
  S    -39.374300  -12.381600   17.995600
  C    -39.038600  -13.078100   16.427800
  C    -37.754500  -13.429300   16.268800
  C    -36.974600  -13.121400   17.436900
  C    -37.685700  -12.521600   18.469100
  H    -37.511300  -13.889700   15.387400
  C    -35.475800  -13.367700   17.483100
  H    -35.268800  -14.084000   16.692000
  H    -35.276800  -13.684400   18.487900
  C    -34.536800  -12.156000   17.244500
  H    -34.928800  -11.373200   17.928700
  H    -34.553200  -11.686700   16.228800
  C    -33.061500  -12.565900   17.552700
  H    -32.620900  -13.290900   16.868500
  H    -33.052500  -13.182000   18.445300
  H    -32.341200  -11.731900   17.717600
  H    -36.913600  -10.221700   22.807200
  H    -39.834000  -13.241000   15.769500

 Total Charge           Charge          ....    0
 Multiplicity           Mult            ....    1
 Number of Electrons    NEL             ....  134
 Basis Dimension        Dim             ....  322

ORBITAL ENERGIES
----------------

  NO   OCC          E(Eh)            E(eV)
   0   2.0000     -88.968244     -2420.9490
   1   2.0000     -88.962675     -2420.7974
   2   2.0000     -10.332625      -281.1650
   3   2.0000     -10.329500      -281.0800
   4   2.0000     -10.319734      -280.8142
   5   2.0000     -10.311406      -280.5876
   6   2.0000     -10.310161      -280.5537
   7   2.0000     -10.304691      -280.4049
   8   2.0000     -10.300735      -280.2972
   9   2.0000     -10.297697      -280.2146
  10   2.0000     -10.297159      -280.2000
  11   2.0000     -10.291851      -280.0555
  12   2.0000     -10.289422      -279.9894
  13   2.0000     -10.287636      -279.9408
  14   2.0000     -10.279771      -279.7268
  15   2.0000     -10.272111      -279.5184
  16   2.0000      -8.083758      -219.9702
  17   2.0000      -8.077790      -219.8078
  18   2.0000      -6.042120      -164.4144
  19   2.0000      -6.037896      -164.2995
  20   2.0000      -6.036320      -164.2566
  21   2.0000      -6.034902      -164.2180
  22   2.0000      -6.032234      -164.1454
  23   2.0000      -6.028528      -164.0446
  24   2.0000      -1.008662       -27.4471
  25   2.0000      -0.987642       -26.8751
  26   2.0000      -0.913624       -24.8610
  27   2.0000      -0.905092       -24.6288
  28   2.0000      -0.871662       -23.7191
  29   2.0000      -0.850131       -23.1332
  30   2.0000      -0.844875       -22.9902
  31   2.0000      -0.818618       -22.2757
  32   2.0000      -0.784281       -21.3414
  33   2.0000      -0.770528       -20.9671
  34   2.0000      -0.708661       -19.2836
  35   2.0000      -0.697702       -18.9854
  36   2.0000      -0.691906       -18.8277
  37   2.0000      -0.665708       -18.1148
  38   2.0000      -0.640710       -17.4346
  39   2.0000      -0.625531       -17.0216
  40   2.0000      -0.596902       -16.2425
  41   2.0000      -0.573282       -15.5998
  42   2.0000      -0.561995       -15.2927
  43   2.0000      -0.555832       -15.1250
  44   2.0000      -0.543667       -14.7939
  45   2.0000      -0.522315       -14.2129
  46   2.0000      -0.518941       -14.1211
  47   2.0000      -0.511131       -13.9086
  48   2.0000      -0.500695       -13.6246
  49   2.0000      -0.497300       -13.5322
  50   2.0000      -0.490486       -13.3468
  51   2.0000      -0.485759       -13.2182
  52   2.0000      -0.470282       -12.7970
  53   2.0000      -0.463629       -12.6160
  54   2.0000      -0.460084       -12.5195
  55   2.0000      -0.450461       -12.2577
  56   2.0000      -0.439375       -11.9560
  57   2.0000      -0.438975       -11.9451
  58   2.0000      -0.435745       -11.8572
  59   2.0000      -0.427070       -11.6212
  60   2.0000      -0.418713       -11.3937
  61   2.0000      -0.414725       -11.2852
  62   2.0000      -0.412583       -11.2270
  63   2.0000      -0.352614        -9.5951
  64   2.0000      -0.332187        -9.0393
  65   2.0000      -0.328923        -8.9504
  66   2.0000      -0.289755        -7.8846
  67   0.0000       0.027969         0.7611
  68   0.0000       0.071917         1.9570
  69   0.0000       0.114134         3.1057
  70   0.0000       0.115153         3.1335
  71   0.0000       0.125899         3.4259

MULLIKEN ATOMIC CHARGES
-----------------------
   0 S :    0.121058
   1 C :   -0.131296
   2 C :   -0.123662
   3 C :    0.022730
   4 C :   -0.174057
   5 H :    0.022033
   6 C :    0.080985
   7 H :    0.045972
   8 H :    0.024239
   9 C :   -0.105988
  10 H :    0.046365
  11 H :    0.033534
  12 C :   -0.026903
  13 H :    0.025412
  14 H :    0.028471
  15 H :    0.034611
  16 S :    0.092602
  17 C :   -0.072268
  18 C :    0.013916
  19 C :   -0.056585
  20 C :   -0.121562
  21 H :   -0.016057
  22 C :    0.099984
  23 H :    0.019065
  24 H :   -0.004494
  25 C :   -0.079747
  26 H :    0.041884
  27 H :    0.037446
  28 C :   -0.045773
  29 H :    0.024132
  30 H :    0.004113
  31 H :    0.048349
  32 H :    0.053589
  33 H :    0.037901
Sum of atomic charges:    0.0000000

LOEWDIN ATOMIC CHARGES
----------------------
   0 S :    0.440077
   1 C :   -0.208019
   2 C :   -0.061525
   3 C :   -0.070215
   4 C :   -0.210945
   5 H :    0.027821
   6 C :   -0.041350
   7 H :    0.038497
   8 H :    0.037668
   9 C :   -0.047340
  10 H :    0.036262
  11 H :    0.025760
  12 C :   -0.063785
  13 H :    0.023451
  14 H :    0.020127
  15 H :    0.028936
  16 S :    0.394436
  17 C :   -0.160663
  18 C :   -0.062157
  19 C :   -0.050679
  20 C :   -0.200558
  21 H :    0.021687
  22 C :   -0.028113
  23 H :    0.028797
  24 H :    0.023500
  25 C :   -0.039692
  26 H :    0.028154
  27 H :    0.027107
  28 C :   -0.074455
  29 H :    0.025182
  30 H :    0.018470
  31 H :    0.032333
  32 H :    0.023920
  33 H :    0.017310

  Mayer bond orders larger than 0.100000
B(  0-S ,  1-C ) :   1.1801 B(  0-S ,  4-C ) :   1.1776 B(  1-C ,  2-C ) :   1.5374
B(  1-C ,  4-C ) :   0.1124 B(  1-C , 32-H ) :   0.9684 B(  2-C ,  3-C ) :   1.2912
B(  2-C ,  6-C ) :   1.0228 B(  3-C ,  4-C ) :   1.5335 B(  3-C ,  5-H ) :   0.9793
B(  4-C , 20-C ) :   1.0359 B(  6-C ,  7-H ) :   0.9347 B(  6-C ,  8-H ) :   0.9381
B(  6-C ,  9-C ) :   1.0632 B(  9-C , 10-H ) :   0.9552 B(  9-C , 11-H ) :   0.9493
B(  9-C , 12-C ) :   1.0919 B( 12-C , 13-H ) :   0.9691 B( 12-C , 14-H ) :   0.9635
B( 12-C , 15-H ) :   0.9721 B( 16-S , 17-C ) :   1.1556 B( 16-S , 20-C ) :   1.1304
B( 17-C , 18-C ) :   1.6189 B( 17-C , 33-H ) :   0.9723 B( 18-C , 19-C ) :   1.2132
B( 18-C , 21-H ) :   1.0143 B( 19-C , 20-C ) :   1.6049 B( 19-C , 22-C ) :   1.0555
B( 22-C , 23-H ) :   0.9318 B( 22-C , 24-H ) :   0.9203 B( 22-C , 25-C ) :   1.0669
B( 25-C , 26-H ) :   0.9559 B( 25-C , 27-H ) :   0.9568 B( 25-C , 28-C ) :   1.0662
B( 28-C , 29-H ) :   0.9713 B( 28-C , 30-H ) :   0.9696 B( 28-C , 31-H ) :   0.9756

Dispersion correction           -0.016160767
FINAL SINGLE POINT ENERGY     -1339.887146863451

DIPOLE MOMENT
-------------
                                X             Y             Z
Electronic contribution:    -30.51128       5.93692      -3.04483
Nuclear contribution   :     31.07085      -6.25375       3.00880
                        -----------------------------------------
Total Dipole Moment    :      0.55956      -0.31683      -0.03603
                        -----------------------------------------
Magnitude (a.u.)       :      0.64404
Magnitude (Debye)      :      1.63702

Rotational constants in cm-1:     0.018461     0.010526     0.007462
Rotational constants in MHz :   553.433795   315.553779   223.711040

                             ****ORCA TERMINATED NORMALLY****
TOTAL RUN TIME: 0 days 0 hours 0 minutes 23 seconds 299 msec
