                         Program Version 4.2.1 -  RELEASE  -
|  1> ! wB97X-D3 SP def2-SVP
|  2> %pal
|  3> nprocs 24
|  4> end
|  5>
|  6> * xyz 0 1
|  7> S 	 -127.839 	 71.5558 	 -61.6074
|  8> C 	 -127.157 	 73.0785 	 -61.1045
|  9> C 	 -127.311 	 73.9955 	 -62.1409
| 10> C 	 -127.879 	 73.5036 	 -63.3458
| 11> C 	 -128.069 	 72.1417 	 -63.3173
| 12> H 	 -127.914 	 74.0478 	 -64.26
| 13> C 	 -126.911 	 75.4718 	 -62.1322
| 14> H 	 -126.271 	 75.6008 	 -61.2806
| 15> H 	 -127.81 	 76.0942 	 -62.017
| 16> C 	 -126.202 	 76.037 	 -63.457
| 17> H 	 -126.891 	 76.2372 	 -64.2641
| 18> H 	 -125.918 	 77.0625 	 -63.1605
| 19> C 	 -124.987 	 75.2056 	 -64.0082
| 20> H 	 -124.694 	 75.6489 	 -64.9541
| 21> H 	 -124.118 	 75.1561 	 -63.2602
| 22> H 	 -125.252 	 74.0932 	 -64.0949
| 23> S 	 -130.376 	 70.7096 	 -63.9588
| 24> C 	 -130.498 	 70.0529 	 -65.5401
| 25> C 	 -129.372 	 70.3057 	 -66.3277
| 26> C 	 -128.465 	 71.1738 	 -65.6642
| 27> C 	 -128.776 	 71.3779 	 -64.3362
| 28> H 	 -129.387 	 70.0453 	 -67.3411
| 29> C 	 -127.158 	 71.5891 	 -66.3042
| 30> H 	 -126.904 	 72.6615 	 -66.015
| 31> H 	 -127.302 	 71.6374 	 -67.371
| 32> C 	 -125.893 	 70.6381 	 -66.1276
| 33> H 	 -125.213 	 70.8479 	 -66.9825
| 34> H 	 -126.273 	 69.6625 	 -66.2212
| 35> C 	 -125.227 	 70.7747 	 -64.7852
| 36> H 	 -124.666 	 71.7075 	 -64.6055
| 37> H 	 -124.536 	 69.8789 	 -64.6383
| 38> H 	 -125.933 	 70.6889 	 -63.955
| 39> H 	 -126.672 	 73.2564 	 -60.1923
| 40> H 	 -131.277 	 69.4497 	 -65.8567
| 41> *
| 42>
| 43>                          ****END OF INPUT****

CARTESIAN COORDINATES (ANGSTROEM)
---------------------------------
  S    -127.839000   71.555800  -61.607400
  C    -127.157000   73.078500  -61.104500
  C    -127.311000   73.995500  -62.140900
  C    -127.879000   73.503600  -63.345800
  C    -128.069000   72.141700  -63.317300
  H    -127.914000   74.047800  -64.260000
  C    -126.911000   75.471800  -62.132200
  H    -126.271000   75.600800  -61.280600
  H    -127.810000   76.094200  -62.017000
  C    -126.202000   76.037000  -63.457000
  H    -126.891000   76.237200  -64.264100
  H    -125.918000   77.062500  -63.160500
  C    -124.987000   75.205600  -64.008200
  H    -124.694000   75.648900  -64.954100
  H    -124.118000   75.156100  -63.260200
  H    -125.252000   74.093200  -64.094900
  S    -130.376000   70.709600  -63.958800
  C    -130.498000   70.052900  -65.540100
  C    -129.372000   70.305700  -66.327700
  C    -128.465000   71.173800  -65.664200
  C    -128.776000   71.377900  -64.336200
  H    -129.387000   70.045300  -67.341100
  C    -127.158000   71.589100  -66.304200
  H    -126.904000   72.661500  -66.015000
  H    -127.302000   71.637400  -67.371000
  C    -125.893000   70.638100  -66.127600
  H    -125.213000   70.847900  -66.982500
  H    -126.273000   69.662500  -66.221200
  C    -125.227000   70.774700  -64.785200
  H    -124.666000   71.707500  -64.605500
  H    -124.536000   69.878900  -64.638300
  H    -125.933000   70.688900  -63.955000
  H    -126.672000   73.256400  -60.192300
  H    -131.277000   69.449700  -65.856700

 Total Charge           Charge          ....    0
 Multiplicity           Mult            ....    1
 Number of Electrons    NEL             ....  134
 Basis Dimension        Dim             ....  322

ORBITAL ENERGIES
----------------

  NO   OCC          E(Eh)            E(eV)
   0   2.0000     -88.966979     -2420.9146
   1   2.0000     -88.966701     -2420.9070
   2   2.0000     -10.334383      -281.2129
   3   2.0000     -10.325381      -280.9679
   4   2.0000     -10.315968      -280.7118
   5   2.0000     -10.312190      -280.6090
   6   2.0000     -10.301692      -280.3233
   7   2.0000     -10.301459      -280.3170
   8   2.0000     -10.296851      -280.1916
   9   2.0000     -10.295982      -280.1679
  10   2.0000     -10.293108      -280.0897
  11   2.0000     -10.292064      -280.0613
  12   2.0000     -10.291399      -280.0432
  13   2.0000     -10.290181      -280.0101
  14   2.0000     -10.284674      -279.8602
  15   2.0000     -10.273606      -279.5590
  16   2.0000      -8.081906      -219.9198
  17   2.0000      -8.080203      -219.8735
  18   2.0000      -6.040297      -164.3648
  19   2.0000      -6.038838      -164.3251
  20   2.0000      -6.036360      -164.2577
  21   2.0000      -6.034885      -164.2176
  22   2.0000      -6.032805      -164.1610
  23   2.0000      -6.030881      -164.1086
  24   2.0000      -1.005003       -27.3475
  25   2.0000      -0.983250       -26.7556
  26   2.0000      -0.902711       -24.5640
  27   2.0000      -0.898780       -24.4570
  28   2.0000      -0.870577       -23.6896
  29   2.0000      -0.850830       -23.1523
  30   2.0000      -0.840492       -22.8709
  31   2.0000      -0.814525       -22.1643
  32   2.0000      -0.779715       -21.2171
  33   2.0000      -0.768539       -20.9130
  34   2.0000      -0.708363       -19.2755
  35   2.0000      -0.697755       -18.9869
  36   2.0000      -0.693788       -18.8789
  37   2.0000      -0.664620       -18.0852
  38   2.0000      -0.643708       -17.5162
  39   2.0000      -0.622310       -16.9339
  40   2.0000      -0.596032       -16.2188
  41   2.0000      -0.563929       -15.3453
  42   2.0000      -0.550400       -14.9771
  43   2.0000      -0.543124       -14.7791
  44   2.0000      -0.536034       -14.5862
  45   2.0000      -0.530215       -14.4279
  46   2.0000      -0.519211       -14.1284
  47   2.0000      -0.509561       -13.8659
  48   2.0000      -0.506841       -13.7918
  49   2.0000      -0.499752       -13.5989
  50   2.0000      -0.491055       -13.3623
  51   2.0000      -0.480545       -13.0763
  52   2.0000      -0.473026       -12.8717
  53   2.0000      -0.464435       -12.6379
  54   2.0000      -0.452502       -12.3132
  55   2.0000      -0.447532       -12.1780
  56   2.0000      -0.442601       -12.0438
  57   2.0000      -0.431093       -11.7306
  58   2.0000      -0.427744       -11.6395
  59   2.0000      -0.426259       -11.5991
  60   2.0000      -0.417807       -11.3691
  61   2.0000      -0.414967       -11.2918
  62   2.0000      -0.408181       -11.1072
  63   2.0000      -0.349265        -9.5040
  64   2.0000      -0.333426        -9.0730
  65   2.0000      -0.324457        -8.8289
  66   2.0000      -0.292375        -7.9559
  67   0.0000       0.029767         0.8100
  68   0.0000       0.058847         1.6013
  69   0.0000       0.112146         3.0517
  70   0.0000       0.122669         3.3380
  71   0.0000       0.124211         3.3800

MULLIKEN ATOMIC CHARGES
-----------------------
   0 S :    0.091838
   1 C :   -0.092641
   2 C :   -0.113139
   3 C :    0.064277
   4 C :   -0.173471
   5 H :    0.017069
   6 C :    0.083222
   7 H :    0.013015
   8 H :    0.047987
   9 C :   -0.110993
  10 H :    0.030234
  11 H :    0.032376
  12 C :   -0.089982
  13 H :    0.045344
  14 H :    0.042538
  15 H :    0.057774
  16 S :    0.121975
  17 C :   -0.071868
  18 C :   -0.013297
  19 C :   -0.043825
  20 C :   -0.144347
  21 H :    0.003969
  22 C :    0.034100
  23 H :    0.023883
  24 H :    0.010285
  25 C :   -0.020459
  26 H :    0.035910
  27 H :    0.014827
  28 C :   -0.074584
  29 H :    0.043556
  30 H :    0.034559
  31 H :    0.034452
  32 H :    0.032622
  33 H :    0.032793
Sum of atomic charges:    0.0000000

LOEWDIN ATOMIC CHARGES
----------------------
   0 S :    0.377481
   1 C :   -0.190397
   2 C :   -0.065635
   3 C :   -0.049986
   4 C :   -0.167789
   5 H :    0.029811
   6 C :   -0.028838
   7 H :    0.023144
   8 H :    0.038787
   9 C :   -0.047039
  10 H :    0.018452
  11 H :    0.028425
  12 C :   -0.078975
  13 H :    0.025910
  14 H :    0.032971
  15 H :    0.033697
  16 S :    0.416216
  17 C :   -0.178518
  18 C :   -0.065087
  19 C :   -0.059389
  20 C :   -0.195854
  21 H :    0.024198
  22 C :   -0.037137
  23 H :    0.031327
  24 H :    0.025203
  25 C :   -0.030243
  26 H :    0.028634
  27 H :    0.019064
  28 C :   -0.075448
  29 H :    0.024643
  30 H :    0.032907
  31 H :    0.023629
  32 H :    0.021683
  33 H :    0.014154

  Mayer bond orders larger than 0.100000
B(  0-S ,  1-C ) :   1.1278 B(  0-S ,  4-C ) :   1.1279 B(  1-C ,  2-C ) :   1.6061
B(  1-C , 32-H ) :   0.9768 B(  2-C ,  3-C ) :   1.2390 B(  2-C ,  6-C ) :   1.0269
B(  3-C ,  4-C ) :   1.5839 B(  3-C ,  5-H ) :   0.9858 B(  4-C , 20-C ) :   1.0370
B(  6-C ,  7-H ) :   0.9446 B(  6-C ,  8-H ) :   0.9365 B(  6-C ,  9-C ) :   1.0644
B(  9-C , 10-H ) :   0.9555 B(  9-C , 11-H ) :   0.9550 B(  9-C , 12-C ) :   1.0642
B( 12-C , 13-H ) :   0.9744 B( 12-C , 14-H ) :   0.9749 B( 12-C , 15-H ) :   0.9670
B( 16-S , 17-C ) :   1.1741 B( 16-S , 20-C ) :   1.1382 B( 17-C , 18-C ) :   1.5960
B( 17-C , 33-H ) :   0.9734 B( 18-C , 19-C ) :   1.2467 B( 18-C , 21-H ) :   0.9951
B( 19-C , 20-C ) :   1.5937 B( 19-C , 22-C ) :   1.0641 B( 22-C , 23-H ) :   0.9322
B( 22-C , 24-H ) :   0.9288 B( 22-C , 25-C ) :   1.0613 B( 25-C , 26-H ) :   0.9556
B( 25-C , 27-H ) :   0.9503 B( 25-C , 28-C ) :   1.0894 B( 28-C , 29-H ) :   0.9712
B( 28-C , 30-H ) :   0.9683 B( 28-C , 31-H ) :   0.9669

Dispersion correction           -0.016648572
FINAL SINGLE POINT ENERGY     -1339.876609447988

DIPOLE MOMENT
-------------
                                X             Y             Z
Electronic contribution:    -21.53934     -12.89728      10.20942
Nuclear contribution   :     21.77701      13.33142     -10.59533
                        -----------------------------------------
Total Dipole Moment    :      0.23767       0.43414      -0.38592
                        -----------------------------------------
Magnitude (a.u.)       :      0.62761
Magnitude (Debye)      :      1.59526

Rotational constants in cm-1:     0.018910     0.010219     0.008362
Rotational constants in MHz :   566.896631   306.350108   250.682703

                             ****ORCA TERMINATED NORMALLY****
TOTAL RUN TIME: 0 days 0 hours 0 minutes 23 seconds 555 msec
