                         Program Version 4.2.1 -  RELEASE  -
|  1> ! wB97X-D3 SP def2-SVP
|  2> %pal
|  3> nprocs 24
|  4> end
|  5>
|  6> * xyz 0 1
|  7> S 	 -62.4637 	 10.867 	 21.6776
|  8> C 	 -61.4165 	 12.1582 	 21.0597
|  9> C 	 -60.1072 	 11.8748 	 21.4196
| 10> C 	 -59.9836 	 10.5632 	 21.9219
| 11> C 	 -61.1173 	 9.84154 	 22.012
| 12> H 	 -58.9737 	 10.1186 	 22.1382
| 13> C 	 -58.9307 	 12.7549 	 21.1479
| 14> H 	 -59.2789 	 13.5143 	 20.4145
| 15> H 	 -58.137 	 12.186 	 20.6492
| 16> C 	 -58.4223 	 13.5023 	 22.3199
| 17> H 	 -57.88 	 14.3783 	 21.9663
| 18> H 	 -59.2884 	 13.9371 	 22.7514
| 19> C 	 -57.6339 	 12.9269 	 23.4545
| 20> H 	 -58.1977 	 12.1919 	 24.0549
| 21> H 	 -56.7762 	 12.4562 	 22.9955
| 22> H 	 -57.3313 	 13.7367 	 24.1302
| 23> S 	 -60.2361 	 7.92571 	 23.7728
| 24> C 	 -60.7413 	 6.32313 	 23.6218
| 25> C 	 -61.7751 	 6.17902 	 22.7634
| 26> C 	 -61.9968 	 7.40663 	 22.0015
| 27> C 	 -61.1888 	 8.40831 	 22.4155
| 28> H 	 -62.2565 	 5.18399 	 22.5272
| 29> C 	 -63.0007 	 7.41393 	 20.8501
| 30> H 	 -62.7873 	 6.57604 	 20.2074
| 31> H 	 -62.7604 	 8.20528 	 20.1603
| 32> C 	 -64.4682 	 7.36186 	 21.1724
| 33> H 	 -64.6608 	 6.81421 	 22.0838
| 34> H 	 -65.0643 	 6.88043 	 20.4257
| 35> C 	 -65.0608 	 8.77857 	 21.4168
| 36> H 	 -66.0532 	 8.75288 	 21.6594
| 37> H 	 -64.8749 	 9.50911 	 20.6396
| 38> H 	 -64.6806 	 9.12847 	 22.3647
| 39> H 	 -61.8499 	 13.067 	 20.4932
| 40> H 	 -60.356 	 5.47484 	 24.1519
| 41> *
| 42>
| 43>                          ****END OF INPUT****

CARTESIAN COORDINATES (ANGSTROEM)
---------------------------------
  S    -62.463700   10.867000   21.677600
  C    -61.416500   12.158200   21.059700
  C    -60.107200   11.874800   21.419600
  C    -59.983600   10.563200   21.921900
  C    -61.117300    9.841540   22.012000
  H    -58.973700   10.118600   22.138200
  C    -58.930700   12.754900   21.147900
  H    -59.278900   13.514300   20.414500
  H    -58.137000   12.186000   20.649200
  C    -58.422300   13.502300   22.319900
  H    -57.880000   14.378300   21.966300
  H    -59.288400   13.937100   22.751400
  C    -57.633900   12.926900   23.454500
  H    -58.197700   12.191900   24.054900
  H    -56.776200   12.456200   22.995500
  H    -57.331300   13.736700   24.130200
  S    -60.236100    7.925710   23.772800
  C    -60.741300    6.323130   23.621800
  C    -61.775100    6.179020   22.763400
  C    -61.996800    7.406630   22.001500
  C    -61.188800    8.408310   22.415500
  H    -62.256500    5.183990   22.527200
  C    -63.000700    7.413930   20.850100
  H    -62.787300    6.576040   20.207400
  H    -62.760400    8.205280   20.160300
  C    -64.468200    7.361860   21.172400
  H    -64.660800    6.814210   22.083800
  H    -65.064300    6.880430   20.425700
  C    -65.060800    8.778570   21.416800
  H    -66.053200    8.752880   21.659400
  H    -64.874900    9.509110   20.639600
  H    -64.680600    9.128470   22.364700
  H    -61.849900   13.067000   20.493200
  H    -60.356000    5.474840   24.151900

 Total Charge           Charge          ....    0
 Multiplicity           Mult            ....    1
 Number of Electrons    NEL             ....  134
 Basis Dimension        Dim             ....  322

ORBITAL ENERGIES
----------------

  NO   OCC          E(Eh)            E(eV)
   0   2.0000     -88.963499     -2420.8199
   1   2.0000     -88.962916     -2420.8040
   2   2.0000     -10.325484      -280.9707
   3   2.0000     -10.323196      -280.9084
   4   2.0000     -10.321612      -280.8653
   5   2.0000     -10.309167      -280.5267
   6   2.0000     -10.301485      -280.3176
   7   2.0000     -10.297717      -280.2151
   8   2.0000     -10.294802      -280.1358
   9   2.0000     -10.289218      -279.9839
  10   2.0000     -10.288583      -279.9666
  11   2.0000     -10.283350      -279.8242
  12   2.0000     -10.279061      -279.7075
  13   2.0000     -10.274726      -279.5895
  14   2.0000     -10.272362      -279.5252
  15   2.0000     -10.259187      -279.1667
  16   2.0000      -8.079965      -219.8670
  17   2.0000      -8.077326      -219.7952
  18   2.0000      -6.038459      -164.3148
  19   2.0000      -6.035881      -164.2447
  20   2.0000      -6.034313      -164.2020
  21   2.0000      -6.031867      -164.1354
  22   2.0000      -6.030550      -164.0996
  23   2.0000      -6.028008      -164.0304
  24   2.0000      -1.015394       -27.6303
  25   2.0000      -0.993540       -27.0356
  26   2.0000      -0.920598       -25.0508
  27   2.0000      -0.909525       -24.7494
  28   2.0000      -0.870183       -23.6789
  29   2.0000      -0.849621       -23.1194
  30   2.0000      -0.846659       -23.0388
  31   2.0000      -0.816189       -22.2096
  32   2.0000      -0.789502       -21.4835
  33   2.0000      -0.777108       -21.1462
  34   2.0000      -0.705370       -19.1941
  35   2.0000      -0.695821       -18.9342
  36   2.0000      -0.690694       -18.7947
  37   2.0000      -0.661534       -18.0013
  38   2.0000      -0.630397       -17.1540
  39   2.0000      -0.618843       -16.8396
  40   2.0000      -0.602763       -16.4020
  41   2.0000      -0.576063       -15.6755
  42   2.0000      -0.554061       -15.0768
  43   2.0000      -0.548107       -14.9147
  44   2.0000      -0.543910       -14.8005
  45   2.0000      -0.536268       -14.5926
  46   2.0000      -0.518592       -14.1116
  47   2.0000      -0.512656       -13.9501
  48   2.0000      -0.504601       -13.7309
  49   2.0000      -0.496588       -13.5129
  50   2.0000      -0.489730       -13.3262
  51   2.0000      -0.479347       -13.0437
  52   2.0000      -0.473003       -12.8711
  53   2.0000      -0.470177       -12.7942
  54   2.0000      -0.460918       -12.5422
  55   2.0000      -0.448940       -12.2163
  56   2.0000      -0.445379       -12.1194
  57   2.0000      -0.437307       -11.8997
  58   2.0000      -0.428284       -11.6542
  59   2.0000      -0.416476       -11.3329
  60   2.0000      -0.415595       -11.3089
  61   2.0000      -0.412776       -11.2322
  62   2.0000      -0.402545       -10.9538
  63   2.0000      -0.349856        -9.5201
  64   2.0000      -0.329860        -8.9759
  65   2.0000      -0.328134        -8.9290
  66   2.0000      -0.298326        -8.1179
  67   0.0000       0.031778         0.8647
  68   0.0000       0.085175         2.3177
  69   0.0000       0.111800         3.0422
  70   0.0000       0.121064         3.2943
  71   0.0000       0.130349         3.5470

MULLIKEN ATOMIC CHARGES
-----------------------
   0 S :    0.100292
   1 C :   -0.175441
   2 C :   -0.073085
   3 C :   -0.018879
   4 C :   -0.109514
   5 H :    0.027426
   6 C :    0.078878
   7 H :    0.017959
   8 H :    0.026609
   9 C :   -0.068326
  10 H :    0.020021
  11 H :    0.002122
  12 C :   -0.026762
  13 H :    0.038572
  14 H :    0.022058
  15 H :    0.038940
  16 S :    0.118142
  17 C :   -0.072861
  18 C :   -0.050763
  19 C :   -0.076050
  20 C :   -0.139179
  21 H :    0.040014
  22 C :    0.084229
  23 H :    0.015413
  24 H :    0.014506
  25 C :   -0.047418
  26 H :    0.020436
  27 H :    0.022106
  28 C :   -0.015953
  29 H :    0.001146
  30 H :    0.035302
  31 H :    0.015576
  32 H :    0.085771
  33 H :    0.048712
Sum of atomic charges:    0.0000000

LOEWDIN ATOMIC CHARGES
----------------------
   0 S :    0.425597
   1 C :   -0.204640
   2 C :   -0.067028
   3 C :   -0.079973
   4 C :   -0.197525
   5 H :    0.035890
   6 C :   -0.031715
   7 H :    0.039100
   8 H :    0.028370
   9 C :   -0.052103
  10 H :    0.026135
  11 H :    0.020115
  12 C :   -0.061845
  13 H :    0.026480
  14 H :    0.020790
  15 H :    0.033205
  16 S :    0.435889
  17 C :   -0.198648
  18 C :   -0.077235
  19 C :   -0.056690
  20 C :   -0.200686
  21 H :    0.041044
  22 C :   -0.035378
  23 H :    0.032141
  24 H :    0.026662
  25 C :   -0.033379
  26 H :    0.024588
  27 H :    0.020304
  28 C :   -0.064401
  29 H :    0.011826
  30 H :    0.017712
  31 H :    0.018395
  32 H :    0.047649
  33 H :    0.029355

  Mayer bond orders larger than 0.100000
B(  0-S ,  1-C ) :   1.1342 B(  0-S ,  4-C ) :   1.1484 B(  1-C ,  2-C ) :   1.5922
B(  1-C , 32-H ) :   0.9586 B(  2-C ,  3-C ) :   1.2541 B(  2-C ,  6-C ) :   1.0323
B(  3-C ,  4-C ) :   1.5642 B(  3-C ,  5-H ) :   0.9863 B(  4-C , 20-C ) :   1.0211
B(  6-C ,  7-H ) :   0.9274 B(  6-C ,  8-H ) :   0.9417 B(  6-C ,  9-C ) :   1.0840
B(  9-C , 10-H ) :   0.9504 B(  9-C , 11-H ) :   0.9388 B(  9-C , 12-C ) :   1.0925
B( 12-C , 13-H ) :   0.9719 B( 12-C , 14-H ) :   0.9734 B( 12-C , 15-H ) :   0.9675
B( 16-S , 17-C ) :   1.1567 B( 16-S , 20-C ) :   1.1338 B( 17-C , 18-C ) :   1.6345
B( 17-C , 33-H ) :   0.9667 B( 18-C , 19-C ) :   1.2146 B( 18-C , 21-H ) :   0.9794
B( 19-C , 20-C ) :   1.6406 B( 19-C , 22-C ) :   1.0482 B( 22-C , 23-H ) :   0.9297
B( 22-C , 24-H ) :   0.9334 B( 22-C , 25-C ) :   1.0636 B( 25-C , 26-H ) :   0.9567
B( 25-C , 27-H ) :   0.9556 B( 25-C , 28-C ) :   1.0870 B( 28-C , 29-H ) :   0.9657
B( 28-C , 30-H ) :   0.9752 B( 28-C , 31-H ) :   0.9689

Dispersion correction           -0.014911970
FINAL SINGLE POINT ENERGY     -1339.875163885806

DIPOLE MOMENT
-------------
                                X             Y             Z
Electronic contribution:     -0.14089      -8.13577       4.49414
Nuclear contribution   :      0.22429       8.11175      -4.72884
                        -----------------------------------------
Total Dipole Moment    :      0.08340      -0.02402      -0.23470
                        -----------------------------------------
Magnitude (a.u.)       :      0.25024
Magnitude (Debye)      :      0.63605

Rotational constants in cm-1:     0.021972     0.008996     0.006776
Rotational constants in MHz :   658.698174   269.701603   203.139704

                             ****ORCA TERMINATED NORMALLY****
TOTAL RUN TIME: 0 days 0 hours 0 minutes 20 seconds 723 msec
