                         Program Version 4.2.1 -  RELEASE  -
|  1> ! wB97X-D3 SP def2-SVP
|  2> %pal
|  3> nprocs 24
|  4> end
|  5>
|  6> * xyz 0 1
|  7> S 	 20.5902 	 -24.9962 	 -118.418
|  8> C 	 22.0862 	 -25.6309 	 -119.142
|  9> C 	 23.1992 	 -25.0196 	 -118.628
| 10> C 	 22.8794 	 -23.9931 	 -117.66
| 11> C 	 21.5281 	 -23.9102 	 -117.517
| 12> H 	 23.5734 	 -23.3037 	 -117.165
| 13> C 	 24.661 	 -25.2634 	 -119.016
| 14> H 	 24.7678 	 -25.4564 	 -120.089
| 15> H 	 25.0773 	 -26.1864 	 -118.519
| 16> C 	 25.6954 	 -24.1706 	 -118.635
| 17> H 	 25.2717 	 -23.2175 	 -118.734
| 18> H 	 25.9906 	 -24.1471 	 -117.617
| 19> C 	 26.9699 	 -24.3026 	 -119.505
| 20> H 	 27.7775 	 -23.6724 	 -119.169
| 21> H 	 27.378 	 -25.3456 	 -119.355
| 22> H 	 26.7385 	 -24.0576 	 -120.545
| 23> S 	 20.5609 	 -23.4156 	 -115.042
| 24> C 	 19.5127 	 -22.1232 	 -114.689
| 25> C 	 19.39 	 -21.309 	 -115.793
| 26> C 	 20.2578 	 -21.7159 	 -116.893
| 27> C 	 20.8492 	 -22.9503 	 -116.692
| 28> H 	 18.7046 	 -20.403 	 -115.759
| 29> C 	 20.1218 	 -20.997 	 -118.243
| 30> H 	 19.0774 	 -21.0157 	 -118.622
| 31> H 	 20.6859 	 -21.6769 	 -118.927
| 32> C 	 20.7327 	 -19.6112 	 -118.435
| 33> H 	 21.8472 	 -19.6578 	 -118.364
| 34> H 	 20.3728 	 -18.9212 	 -117.706
| 35> C 	 20.4515 	 -19.1869 	 -119.909
| 36> H 	 20.76 	 -18.1593 	 -120.117
| 37> H 	 19.4146 	 -19.2814 	 -120.22
| 38> H 	 20.9342 	 -19.8824 	 -120.628
| 39> H 	 22.0733 	 -26.4539 	 -119.858
| 40> H 	 19.094 	 -21.8035 	 -113.805
| 41> *
| 42>
| 43>                          ****END OF INPUT****

CARTESIAN COORDINATES (ANGSTROEM)
---------------------------------
  S     20.590200  -24.996200  -118.418000
  C     22.086200  -25.630900  -119.142000
  C     23.199200  -25.019600  -118.628000
  C     22.879400  -23.993100  -117.660000
  C     21.528100  -23.910200  -117.517000
  H     23.573400  -23.303700  -117.165000
  C     24.661000  -25.263400  -119.016000
  H     24.767800  -25.456400  -120.089000
  H     25.077300  -26.186400  -118.519000
  C     25.695400  -24.170600  -118.635000
  H     25.271700  -23.217500  -118.734000
  H     25.990600  -24.147100  -117.617000
  C     26.969900  -24.302600  -119.505000
  H     27.777500  -23.672400  -119.169000
  H     27.378000  -25.345600  -119.355000
  H     26.738500  -24.057600  -120.545000
  S     20.560900  -23.415600  -115.042000
  C     19.512700  -22.123200  -114.689000
  C     19.390000  -21.309000  -115.793000
  C     20.257800  -21.715900  -116.893000
  C     20.849200  -22.950300  -116.692000
  H     18.704600  -20.403000  -115.759000
  C     20.121800  -20.997000  -118.243000
  H     19.077400  -21.015700  -118.622000
  H     20.685900  -21.676900  -118.927000
  C     20.732700  -19.611200  -118.435000
  H     21.847200  -19.657800  -118.364000
  H     20.372800  -18.921200  -117.706000
  C     20.451500  -19.186900  -119.909000
  H     20.760000  -18.159300  -120.117000
  H     19.414600  -19.281400  -120.220000
  H     20.934200  -19.882400  -120.628000
  H     22.073300  -26.453900  -119.858000
  H     19.094000  -21.803500  -113.805000

 Total Charge           Charge          ....    0
 Multiplicity           Mult            ....    1
 Number of Electrons    NEL             ....  134
 Basis Dimension        Dim             ....  322

ORBITAL ENERGIES
----------------

  NO   OCC          E(Eh)            E(eV)
   0   2.0000     -88.968711     -2420.9617
   1   2.0000     -88.959340     -2420.7067
   2   2.0000     -10.322704      -280.8951
   3   2.0000     -10.321081      -280.8509
   4   2.0000     -10.316062      -280.7143
   5   2.0000     -10.305823      -280.4357
   6   2.0000     -10.305478      -280.4263
   7   2.0000     -10.303149      -280.3629
   8   2.0000     -10.298975      -280.2494
   9   2.0000     -10.295709      -280.1605
  10   2.0000     -10.294224      -280.1201
  11   2.0000     -10.290023      -280.0058
  12   2.0000     -10.287054      -279.9250
  13   2.0000     -10.284247      -279.8486
  14   2.0000     -10.281930      -279.7855
  15   2.0000     -10.278309      -279.6870
  16   2.0000      -8.084097      -219.9795
  17   2.0000      -8.075328      -219.7409
  18   2.0000      -6.042494      -164.4246
  19   2.0000      -6.038579      -164.3181
  20   2.0000      -6.034855      -164.2168
  21   2.0000      -6.033795      -164.1879
  22   2.0000      -6.029464      -164.0701
  23   2.0000      -6.026227      -163.9820
  24   2.0000      -1.014384       -27.6028
  25   2.0000      -0.987719       -26.8772
  26   2.0000      -0.911559       -24.8048
  27   2.0000      -0.903541       -24.5866
  28   2.0000      -0.873933       -23.7809
  29   2.0000      -0.850348       -23.1391
  30   2.0000      -0.842789       -22.9335
  31   2.0000      -0.814463       -22.1627
  32   2.0000      -0.778885       -21.1945
  33   2.0000      -0.766557       -20.8591
  34   2.0000      -0.715450       -19.4684
  35   2.0000      -0.699384       -19.0312
  36   2.0000      -0.692761       -18.8510
  37   2.0000      -0.655433       -17.8352
  38   2.0000      -0.645315       -17.5599
  39   2.0000      -0.622519       -16.9396
  40   2.0000      -0.592086       -16.1115
  41   2.0000      -0.572001       -15.5649
  42   2.0000      -0.567563       -15.4442
  43   2.0000      -0.559123       -15.2145
  44   2.0000      -0.526512       -14.3271
  45   2.0000      -0.518191       -14.1007
  46   2.0000      -0.514386       -13.9971
  47   2.0000      -0.511661       -13.9230
  48   2.0000      -0.506000       -13.7690
  49   2.0000      -0.496116       -13.5000
  50   2.0000      -0.490811       -13.3557
  51   2.0000      -0.478702       -13.0262
  52   2.0000      -0.470388       -12.7999
  53   2.0000      -0.461476       -12.5574
  54   2.0000      -0.459524       -12.5043
  55   2.0000      -0.451841       -12.2952
  56   2.0000      -0.441914       -12.0251
  57   2.0000      -0.435211       -11.8427
  58   2.0000      -0.432640       -11.7727
  59   2.0000      -0.428535       -11.6610
  60   2.0000      -0.423432       -11.5222
  61   2.0000      -0.414428       -11.2772
  62   2.0000      -0.409041       -11.1306
  63   2.0000      -0.337289        -9.1781
  64   2.0000      -0.324289        -8.8244
  65   2.0000      -0.319980        -8.7071
  66   2.0000      -0.318332        -8.6623
  67   0.0000       0.049581         1.3492
  68   0.0000       0.058532         1.5927
  69   0.0000       0.115397         3.1401
  70   0.0000       0.118556         3.2261
  71   0.0000       0.127072         3.4578

MULLIKEN ATOMIC CHARGES
-----------------------
   0 S :    0.134967
   1 C :   -0.144902
   2 C :   -0.044722
   3 C :    0.024976
   4 C :   -0.160580
   5 H :    0.030498
   6 C :    0.041080
   7 H :    0.030690
   8 H :    0.045778
   9 C :   -0.074134
  10 H :    0.014814
  11 H :    0.022484
  12 C :   -0.057774
  13 H :    0.029677
  14 H :    0.036267
  15 H :    0.044402
  16 S :    0.114289
  17 C :   -0.043608
  18 C :   -0.078935
  19 C :    0.015692
  20 C :   -0.187484
  21 H :    0.043213
  22 C :   -0.020731
  23 H :    0.043064
  24 H :    0.023356
  25 C :   -0.046331
  26 H :    0.037053
  27 H :    0.027479
  28 C :   -0.057501
  29 H :    0.036868
  30 H :    0.019755
  31 H :    0.029496
  32 H :    0.047275
  33 H :    0.023528
Sum of atomic charges:    0.0000000

LOEWDIN ATOMIC CHARGES
----------------------
   0 S :    0.426942
   1 C :   -0.189921
   2 C :   -0.058238
   3 C :   -0.058749
   4 C :   -0.216240
   5 H :    0.040544
   6 C :   -0.034160
   7 H :    0.031121
   8 H :    0.040888
   9 C :   -0.042636
  10 H :    0.012969
  11 H :    0.019287
  12 C :   -0.062358
  13 H :    0.023766
  14 H :    0.031250
  15 H :    0.026364
  16 S :    0.430690
  17 C :   -0.195385
  18 C :   -0.081255
  19 C :   -0.060781
  20 C :   -0.210300
  21 H :    0.039962
  22 C :   -0.041341
  23 H :    0.034367
  24 H :    0.030910
  25 C :   -0.036742
  26 H :    0.031617
  27 H :    0.016407
  28 C :   -0.069214
  29 H :    0.024738
  30 H :    0.020354
  31 H :    0.029244
  32 H :    0.028126
  33 H :    0.017777

  Mayer bond orders larger than 0.100000
B(  0-S ,  1-C ) :   1.1208 B(  0-S ,  4-C ) :   1.1707 B(  1-C ,  2-C ) :   1.6479
B(  1-C , 32-H ) :   0.9736 B(  2-C ,  3-C ) :   1.2161 B(  2-C ,  6-C ) :   1.0054
B(  3-C ,  4-C ) :   1.5964 B(  3-C ,  5-H ) :   0.9899 B(  4-C , 20-C ) :   0.9852
B(  6-C ,  7-H ) :   0.9537 B(  6-C ,  8-H ) :   0.9282 B(  6-C ,  9-C ) :   1.0687
B(  9-C , 10-H ) :   0.9546 B(  9-C , 11-H ) :   0.9481 B(  9-C , 12-C ) :   1.0856
B( 12-C , 13-H ) :   0.9727 B( 12-C , 14-H ) :   0.9742 B( 12-C , 15-H ) :   0.9764
B( 16-S , 17-C ) :   1.1602 B( 16-S , 20-C ) :   1.1542 B( 17-C , 18-C ) :   1.6137
B( 17-C , 33-H ) :   0.9752 B( 18-C , 19-C ) :   1.2330 B( 18-C , 21-H ) :   0.9784
B( 19-C , 20-C ) :   1.6035 B( 19-C , 22-C ) :   1.0343 B( 22-C , 23-H ) :   0.9519
B( 22-C , 24-H ) :   0.9389 B( 22-C , 25-C ) :   1.0598 B( 25-C , 26-H ) :   0.9522
B( 25-C , 27-H ) :   0.9611 B( 25-C , 28-C ) :   1.0738 B( 28-C , 29-H ) :   0.9749
B( 28-C , 30-H ) :   0.9752 B( 28-C , 31-H ) :   0.9740

Dispersion correction           -0.013486068
FINAL SINGLE POINT ENERGY     -1339.876158919925

DIPOLE MOMENT
-------------
                                X             Y             Z
Electronic contribution:    -17.39906     -13.42255      16.01126
Nuclear contribution   :     17.73497      13.68686     -16.29751
                        -----------------------------------------
Total Dipole Moment    :      0.33591       0.26431      -0.28625
                        -----------------------------------------
Magnitude (a.u.)       :      0.51443
Magnitude (Debye)      :      1.30757

Rotational constants in cm-1:     0.016587     0.008272     0.006931
Rotational constants in MHz :   497.279601   247.977518   207.790387

                             ****ORCA TERMINATED NORMALLY****
TOTAL RUN TIME: 0 days 0 hours 0 minutes 19 seconds 803 msec
