                         Program Version 4.2.1 -  RELEASE  -
|  1> ! wB97X-D3 SP def2-SVP
|  2> %pal
|  3> nprocs 24
|  4> end
|  5>
|  6> * xyz 0 1
|  7> S 	 -99.4599 	 49.2552 	 -93.8449
|  8> C 	 -99.1464 	 47.5903 	 -93.4998
|  9> C 	 -97.7665 	 47.3259 	 -93.6767
| 10> C 	 -97.0567 	 48.4102 	 -94.2174
| 11> C 	 -97.834 	 49.5403 	 -94.379
| 12> H 	 -96.0318 	 48.57 	 -94.4299
| 13> C 	 -97.0824 	 46.06 	 -93.4224
| 14> H 	 -96.6491 	 45.7326 	 -94.3637
| 15> H 	 -97.7795 	 45.232 	 -93.3131
| 16> C 	 -96.0544 	 45.9107 	 -92.3977
| 17> H 	 -95.4066 	 46.7497 	 -92.5416
| 18> H 	 -96.5713 	 45.9209 	 -91.4067
| 19> C 	 -95.4145 	 44.5045 	 -92.5395
| 20> H 	 -94.359 	 44.6111 	 -92.6702
| 21> H 	 -95.5084 	 43.9334 	 -91.5883
| 22> H 	 -95.7523 	 43.8581 	 -93.3337
| 23> S 	 -97.1218 	 52.2601 	 -94.1992
| 24> C 	 -96.5636 	 53.0565 	 -95.6331
| 25> C 	 -96.5515 	 52.2034 	 -96.709
| 26> C 	 -97.1437 	 50.9664 	 -96.4293
| 27> C 	 -97.4602 	 50.8043 	 -95.082
| 28> H 	 -96.1409 	 52.521 	 -97.6945
| 29> C 	 -97.3861 	 49.8988 	 -97.4775
| 30> H 	 -96.8493 	 49.0496 	 -97.1762
| 31> H 	 -96.8923 	 50.0732 	 -98.442
| 32> C 	 -98.878 	 49.4298 	 -97.5911
| 33> H 	 -99.4762 	 50.327 	 -97.7252
| 34> H 	 -99.2958 	 48.9629 	 -96.7109
| 35> C 	 -99.1472 	 48.5721 	 -98.8804
| 36> H 	 -99.0699 	 49.2158 	 -99.7966
| 37> H 	 -100.161 	 48.2736 	 -98.79
| 38> H 	 -98.4282 	 47.6997 	 -98.9918
| 39> H 	 -99.7233 	 46.753 	 -93.0839
| 40> H 	 -96.1004 	 54.0222 	 -95.572
| 41> *
| 42>
| 43>                          ****END OF INPUT****

CARTESIAN COORDINATES (ANGSTROEM)
---------------------------------
  S    -99.459900   49.255200  -93.844900
  C    -99.146400   47.590300  -93.499800
  C    -97.766500   47.325900  -93.676700
  C    -97.056700   48.410200  -94.217400
  C    -97.834000   49.540300  -94.379000
  H    -96.031800   48.570000  -94.429900
  C    -97.082400   46.060000  -93.422400
  H    -96.649100   45.732600  -94.363700
  H    -97.779500   45.232000  -93.313100
  C    -96.054400   45.910700  -92.397700
  H    -95.406600   46.749700  -92.541600
  H    -96.571300   45.920900  -91.406700
  C    -95.414500   44.504500  -92.539500
  H    -94.359000   44.611100  -92.670200
  H    -95.508400   43.933400  -91.588300
  H    -95.752300   43.858100  -93.333700
  S    -97.121800   52.260100  -94.199200
  C    -96.563600   53.056500  -95.633100
  C    -96.551500   52.203400  -96.709000
  C    -97.143700   50.966400  -96.429300
  C    -97.460200   50.804300  -95.082000
  H    -96.140900   52.521000  -97.694500
  C    -97.386100   49.898800  -97.477500
  H    -96.849300   49.049600  -97.176200
  H    -96.892300   50.073200  -98.442000
  C    -98.878000   49.429800  -97.591100
  H    -99.476200   50.327000  -97.725200
  H    -99.295800   48.962900  -96.710900
  C    -99.147200   48.572100  -98.880400
  H    -99.069900   49.215800  -99.796600
  H    -100.161000   48.273600  -98.790000
  H    -98.428200   47.699700  -98.991800
  H    -99.723300   46.753000  -93.083900
  H    -96.100400   54.022200  -95.572000

 Total Charge           Charge          ....    0
 Multiplicity           Mult            ....    1
 Number of Electrons    NEL             ....  134
 Basis Dimension        Dim             ....  322

ORBITAL ENERGIES
----------------

  NO   OCC          E(Eh)            E(eV)
   0   2.0000     -88.970259     -2421.0038
   1   2.0000     -88.965993     -2420.8877
   2   2.0000     -10.328241      -281.0457
   3   2.0000     -10.324253      -280.9372
   4   2.0000     -10.317337      -280.7490
   5   2.0000     -10.314683      -280.6768
   6   2.0000     -10.300866      -280.3008
   7   2.0000     -10.297721      -280.2152
   8   2.0000     -10.293982      -280.1135
   9   2.0000     -10.289219      -279.9839
  10   2.0000     -10.285050      -279.8705
  11   2.0000     -10.284234      -279.8482
  12   2.0000     -10.281236      -279.7667
  13   2.0000     -10.280347      -279.7425
  14   2.0000     -10.278499      -279.6922
  15   2.0000     -10.278125      -279.6820
  16   2.0000      -8.084605      -219.9933
  17   2.0000      -8.081286      -219.9030
  18   2.0000      -6.043046      -164.4396
  19   2.0000      -6.039615      -164.3463
  20   2.0000      -6.038941      -164.3279
  21   2.0000      -6.035663      -164.2387
  22   2.0000      -6.035616      -164.2375
  23   2.0000      -6.032322      -164.1478
  24   2.0000      -1.010034       -27.4844
  25   2.0000      -0.990837       -26.9620
  26   2.0000      -0.926030       -25.1986
  27   2.0000      -0.900255       -24.4972
  28   2.0000      -0.866551       -23.5801
  29   2.0000      -0.853449       -23.2235
  30   2.0000      -0.847367       -23.0580
  31   2.0000      -0.815394       -22.1880
  32   2.0000      -0.781859       -21.2755
  33   2.0000      -0.769991       -20.9525
  34   2.0000      -0.708935       -19.2911
  35   2.0000      -0.698824       -19.0160
  36   2.0000      -0.690565       -18.7912
  37   2.0000      -0.659024       -17.9330
  38   2.0000      -0.647129       -17.6093
  39   2.0000      -0.623572       -16.9682
  40   2.0000      -0.600520       -16.3410
  41   2.0000      -0.575763       -15.6673
  42   2.0000      -0.566791       -15.4232
  43   2.0000      -0.553491       -15.0613
  44   2.0000      -0.523833       -14.2542
  45   2.0000      -0.521599       -14.1934
  46   2.0000      -0.517605       -14.0848
  47   2.0000      -0.513336       -13.9686
  48   2.0000      -0.501181       -13.6378
  49   2.0000      -0.498291       -13.5592
  50   2.0000      -0.492089       -13.3904
  51   2.0000      -0.482705       -13.1351
  52   2.0000      -0.468353       -12.7445
  53   2.0000      -0.464592       -12.6422
  54   2.0000      -0.457592       -12.4517
  55   2.0000      -0.448570       -12.2062
  56   2.0000      -0.443737       -12.0747
  57   2.0000      -0.440718       -11.9926
  58   2.0000      -0.434500       -11.8234
  59   2.0000      -0.427144       -11.6232
  60   2.0000      -0.420016       -11.4292
  61   2.0000      -0.411574       -11.1995
  62   2.0000      -0.406023       -11.0484
  63   2.0000      -0.339196        -9.2300
  64   2.0000      -0.333239        -9.0679
  65   2.0000      -0.322808        -8.7841
  66   2.0000      -0.302999        -8.2450
  67   0.0000       0.040842         1.1114
  68   0.0000       0.055769         1.5176
  69   0.0000       0.118550         3.2259
  70   0.0000       0.128614         3.4998
  71   0.0000       0.130080         3.5396

MULLIKEN ATOMIC CHARGES
-----------------------
   0 S :    0.128751
   1 C :   -0.098695
   2 C :   -0.089878
   3 C :    0.067987
   4 C :   -0.194381
   5 H :    0.003792
   6 C :    0.022257
   7 H :    0.018018
   8 H :   -0.003912
   9 C :   -0.023748
  10 H :    0.024323
  11 H :    0.035871
  12 C :   -0.056011
  13 H :    0.027724
  14 H :    0.037067
  15 H :    0.033277
  16 S :    0.118427
  17 C :   -0.096611
  18 C :   -0.049050
  19 C :   -0.021670
  20 C :   -0.179785
  21 H :    0.031598
  22 C :    0.126457
  23 H :    0.001971
  24 H :    0.009589
  25 C :   -0.091195
  26 H :    0.026529
  27 H :    0.040857
  28 C :   -0.064195
  29 H :    0.035971
  30 H :    0.031446
  31 H :    0.041448
  32 H :    0.049107
  33 H :    0.056662
Sum of atomic charges:   -0.0000000

LOEWDIN ATOMIC CHARGES
----------------------
   0 S :    0.436733
   1 C :   -0.217232
   2 C :   -0.063969
   3 C :   -0.056272
   4 C :   -0.198557
   5 H :    0.030274
   6 C :   -0.050360
   7 H :    0.030668
   8 H :    0.023946
   9 C :   -0.033481
  10 H :    0.020050
  11 H :    0.031577
  12 C :   -0.066157
  13 H :    0.025714
  14 H :    0.033143
  15 H :    0.023598
  16 S :    0.425610
  17 C :   -0.187396
  18 C :   -0.077350
  19 C :   -0.051501
  20 C :   -0.219861
  21 H :    0.039667
  22 C :   -0.033508
  23 H :    0.024412
  24 H :    0.030430
  25 C :   -0.035124
  26 H :    0.022965
  27 H :    0.017600
  28 C :   -0.067611
  29 H :    0.027499
  30 H :    0.021597
  31 H :    0.027996
  32 H :    0.038832
  33 H :    0.026067

  Mayer bond orders larger than 0.100000
B(  0-S ,  1-C ) :   1.1459 B(  0-S ,  4-C ) :   1.1733 B(  1-C ,  2-C ) :   1.5828
B(  1-C ,  4-C ) :   0.1043 B(  1-C , 32-H ) :   0.9616 B(  2-C ,  3-C ) :   1.2399
B(  2-C ,  6-C ) :   1.0362 B(  3-C ,  4-C ) :   1.5804 B(  3-C ,  5-H ) :   1.0008
B(  4-C , 20-C ) :   0.9823 B(  6-C ,  7-H ) :   0.9329 B(  6-C ,  8-H ) :   0.9273
B(  6-C ,  9-C ) :   1.0723 B(  9-C , 10-H ) :   0.9605 B(  9-C , 11-H ) :   0.9566
B(  9-C , 12-C ) :   1.0547 B( 12-C , 13-H ) :   0.9742 B( 12-C , 14-H ) :   0.9781
B( 12-C , 15-H ) :   0.9784 B( 16-S , 17-C ) :   1.1811 B( 16-S , 20-C ) :   1.1634
B( 17-C , 18-C ) :   1.5670 B( 17-C , 20-C ) :   0.1025 B( 17-C , 33-H ) :   0.9694
B( 18-C , 19-C ) :   1.2851 B( 18-C , 21-H ) :   0.9879 B( 19-C , 20-C ) :   1.5601
B( 19-C , 22-C ) :   1.0441 B( 22-C , 23-H ) :   0.9118 B( 22-C , 24-H ) :   0.9403
B( 22-C , 25-C ) :   1.0456 B( 25-C , 26-H ) :   0.9594 B( 25-C , 27-H ) :   0.9554
B( 25-C , 28-C ) :   1.0826 B( 28-C , 29-H ) :   0.9774 B( 28-C , 30-H ) :   0.9751
B( 28-C , 31-H ) :   0.9763

Dispersion correction           -0.014636726
FINAL SINGLE POINT ENERGY     -1339.868490117004

DIPOLE MOMENT
-------------
                                X             Y             Z
Electronic contribution:     -5.99459      23.68335       9.10322
Nuclear contribution   :      6.41313     -24.12076      -9.35060
                        -----------------------------------------
Total Dipole Moment    :      0.41854      -0.43741      -0.24739
                        -----------------------------------------
Magnitude (a.u.)       :      0.65399
Magnitude (Debye)      :      1.66230

Rotational constants in cm-1:     0.018199     0.008303     0.007257
Rotational constants in MHz :   545.600093   248.913211   217.554665

                             ****ORCA TERMINATED NORMALLY****
TOTAL RUN TIME: 0 days 0 hours 0 minutes 22 seconds 24 msec
