                         Program Version 4.2.1 -  RELEASE  -
|  1> ! wB97X-D3 SP def2-SVP
|  2> %pal
|  3> nprocs 24
|  4> end
|  5>
|  6> * xyz 0 1
|  7> S 	 -84.6797 	 1.42785 	 -116.8
|  8> C 	 -84.8271 	 -0.304723 	 -116.726
|  9> C 	 -84.8748 	 -0.842273 	 -117.99
| 10> C 	 -84.7892 	 0.123641 	 -119.015
| 11> C 	 -84.6391 	 1.40611 	 -118.533
| 12> H 	 -84.7045 	 -0.0748729 	 -120.105
| 13> C 	 -84.974 	 -2.38598 	 -118.171
| 14> H 	 -84.7289 	 -2.71472 	 -117.192
| 15> H 	 -84.2311 	 -2.69634 	 -118.858
| 16> C 	 -86.3512 	 -3.02015 	 -118.336
| 17> H 	 -86.1836 	 -4.08124 	 -118.552
| 18> H 	 -86.8223 	 -2.9828 	 -117.348
| 19> C 	 -87.2093 	 -2.44773 	 -119.472
| 20> H 	 -87.9641 	 -3.15488 	 -119.751
| 21> H 	 -87.6741 	 -1.52834 	 -119.369
| 22> H 	 -86.6604 	 -2.25525 	 -120.402
| 23> S 	 -82.9972 	 3.21971 	 -119.694
| 24> C 	 -83.6234 	 4.5945 	 -120.516
| 25> C 	 -84.965 	 4.70137 	 -120.322
| 26> C 	 -85.5371 	 3.55744 	 -119.725
| 27> C 	 -84.5392 	 2.66341 	 -119.261
| 28> H 	 -85.5619 	 5.55026 	 -120.597
| 29> C 	 -87.0559 	 3.41407 	 -119.579
| 30> H 	 -87.4427 	 3.86771 	 -118.689
| 31> H 	 -87.1403 	 2.35451 	 -119.342
| 32> C 	 -87.8719 	 3.77399 	 -120.788
| 33> H 	 -87.527 	 3.245 	 -121.616
| 34> H 	 -87.7585 	 4.81394 	 -121.062
| 35> C 	 -89.3637 	 3.42677 	 -120.622
| 36> H 	 -89.881 	 4.04702 	 -119.921
| 37> H 	 -89.4491 	 2.40144 	 -120.331
| 38> H 	 -89.9245 	 3.6484 	 -121.572
| 39> H 	 -84.9665 	 -0.964542 	 -115.858
| 40> H 	 -83.066 	 5.37067 	 -120.991
| 41> *
| 42>
| 43>                          ****END OF INPUT****

CARTESIAN COORDINATES (ANGSTROEM)
---------------------------------
  S    -84.679700    1.427850  -116.800000
  C    -84.827100   -0.304723  -116.726000
  C    -84.874800   -0.842273  -117.990000
  C    -84.789200    0.123641  -119.015000
  C    -84.639100    1.406110  -118.533000
  H    -84.704500   -0.074873  -120.105000
  C    -84.974000   -2.385980  -118.171000
  H    -84.728900   -2.714720  -117.192000
  H    -84.231100   -2.696340  -118.858000
  C    -86.351200   -3.020150  -118.336000
  H    -86.183600   -4.081240  -118.552000
  H    -86.822300   -2.982800  -117.348000
  C    -87.209300   -2.447730  -119.472000
  H    -87.964100   -3.154880  -119.751000
  H    -87.674100   -1.528340  -119.369000
  H    -86.660400   -2.255250  -120.402000
  S    -82.997200    3.219710  -119.694000
  C    -83.623400    4.594500  -120.516000
  C    -84.965000    4.701370  -120.322000
  C    -85.537100    3.557440  -119.725000
  C    -84.539200    2.663410  -119.261000
  H    -85.561900    5.550260  -120.597000
  C    -87.055900    3.414070  -119.579000
  H    -87.442700    3.867710  -118.689000
  H    -87.140300    2.354510  -119.342000
  C    -87.871900    3.773990  -120.788000
  H    -87.527000    3.245000  -121.616000
  H    -87.758500    4.813940  -121.062000
  C    -89.363700    3.426770  -120.622000
  H    -89.881000    4.047020  -119.921000
  H    -89.449100    2.401440  -120.331000
  H    -89.924500    3.648400  -121.572000
  H    -84.966500   -0.964542  -115.858000
  H    -83.066000    5.370670  -120.991000

 Total Charge           Charge          ....    0
 Multiplicity           Mult            ....    1
 Number of Electrons    NEL             ....  134
 Basis Dimension        Dim             ....  322

ORBITAL ENERGIES
----------------

  NO   OCC          E(Eh)            E(eV)
   0   2.0000     -88.966091     -2420.8904
   1   2.0000     -88.964869     -2420.8572
   2   2.0000     -10.325933      -280.9829
   3   2.0000     -10.321272      -280.8561
   4   2.0000     -10.312139      -280.6076
   5   2.0000     -10.309111      -280.5252
   6   2.0000     -10.300635      -280.2945
   7   2.0000     -10.297004      -280.1957
   8   2.0000     -10.295312      -280.1497
   9   2.0000     -10.289217      -279.9838
  10   2.0000     -10.285375      -279.8793
  11   2.0000     -10.284745      -279.8621
  12   2.0000     -10.283704      -279.8338
  13   2.0000     -10.277590      -279.6674
  14   2.0000     -10.276144      -279.6281
  15   2.0000     -10.268134      -279.4101
  16   2.0000      -8.081120      -219.8984
  17   2.0000      -8.080977      -219.8946
  18   2.0000      -6.039532      -164.3440
  19   2.0000      -6.039290      -164.3374
  20   2.0000      -6.035518      -164.2348
  21   2.0000      -6.035118      -164.2239
  22   2.0000      -6.032041      -164.1402
  23   2.0000      -6.032031      -164.1399
  24   2.0000      -1.013016       -27.5656
  25   2.0000      -0.990977       -26.9659
  26   2.0000      -0.912531       -24.8312
  27   2.0000      -0.911060       -24.7912
  28   2.0000      -0.870924       -23.6990
  29   2.0000      -0.850120       -23.1329
  30   2.0000      -0.845192       -22.9988
  31   2.0000      -0.818859       -22.2823
  32   2.0000      -0.788802       -21.4644
  33   2.0000      -0.771861       -21.0034
  34   2.0000      -0.708923       -19.2908
  35   2.0000      -0.704981       -19.1835
  36   2.0000      -0.697639       -18.9837
  37   2.0000      -0.656011       -17.8510
  38   2.0000      -0.637787       -17.3551
  39   2.0000      -0.615882       -16.7590
  40   2.0000      -0.598877       -16.2963
  41   2.0000      -0.576231       -15.6800
  42   2.0000      -0.568779       -15.4773
  43   2.0000      -0.552351       -15.0302
  44   2.0000      -0.540064       -14.6959
  45   2.0000      -0.526487       -14.3264
  46   2.0000      -0.518112       -14.0985
  47   2.0000      -0.508923       -13.8485
  48   2.0000      -0.504967       -13.7409
  49   2.0000      -0.496468       -13.5096
  50   2.0000      -0.495751       -13.4901
  51   2.0000      -0.479884       -13.0583
  52   2.0000      -0.472700       -12.8628
  53   2.0000      -0.464040       -12.6272
  54   2.0000      -0.464001       -12.6261
  55   2.0000      -0.450646       -12.2627
  56   2.0000      -0.444007       -12.0820
  57   2.0000      -0.434884       -11.8338
  58   2.0000      -0.432372       -11.7655
  59   2.0000      -0.425831       -11.5875
  60   2.0000      -0.423296       -11.5185
  61   2.0000      -0.416181       -11.3249
  62   2.0000      -0.413682       -11.2568
  63   2.0000      -0.338363        -9.2073
  64   2.0000      -0.331686        -9.0256
  65   2.0000      -0.317719        -8.6456
  66   2.0000      -0.311795        -8.4844
  67   0.0000       0.050928         1.3858
  68   0.0000       0.054420         1.4809
  69   0.0000       0.122124         3.3232
  70   0.0000       0.126181         3.4336
  71   0.0000       0.136371         3.7109

MULLIKEN ATOMIC CHARGES
-----------------------
   0 S :    0.129199
   1 C :   -0.118744
   2 C :   -0.129348
   3 C :    0.051457
   4 C :   -0.200811
   5 H :    0.026457
   6 C :    0.105720
   7 H :   -0.005725
   8 H :    0.027405
   9 C :   -0.051470
  10 H :    0.032270
  11 H :    0.027748
  12 C :   -0.027675
  13 H :    0.024227
  14 H :    0.021192
  15 H :    0.014494
  16 S :    0.135136
  17 C :   -0.077787
  18 C :   -0.031239
  19 C :   -0.037935
  20 C :   -0.191223
  21 H :    0.011632
  22 C :    0.106028
  23 H :    0.027068
  24 H :    0.013421
  25 C :   -0.064031
  26 H :    0.014917
  27 H :    0.022251
  28 C :   -0.038238
  29 H :    0.021749
  30 H :    0.028980
  31 H :    0.035797
  32 H :    0.051336
  33 H :    0.045740
Sum of atomic charges:   -0.0000000

LOEWDIN ATOMIC CHARGES
----------------------
   0 S :    0.423838
   1 C :   -0.207383
   2 C :   -0.067756
   3 C :   -0.065142
   4 C :   -0.208098
   5 H :    0.040156
   6 C :   -0.022990
   7 H :    0.025793
   8 H :    0.024189
   9 C :   -0.035475
  10 H :    0.029781
  11 H :    0.025657
  12 C :   -0.068983
  13 H :    0.025175
  14 H :    0.016657
  15 H :    0.027059
  16 S :    0.453526
  17 C :   -0.195035
  18 C :   -0.071713
  19 C :   -0.049999
  20 C :   -0.234996
  21 H :    0.028609
  22 C :   -0.032449
  23 H :    0.029391
  24 H :    0.031870
  25 C :   -0.036416
  26 H :    0.018956
  27 H :    0.020094
  28 C :   -0.059181
  29 H :    0.019164
  30 H :    0.022062
  31 H :    0.033032
  32 H :    0.034231
  33 H :    0.026377

  Mayer bond orders larger than 0.100000
B(  0-S ,  1-C ) :   1.1442 B(  0-S ,  4-C ) :   1.1706 B(  1-C ,  2-C ) :   1.6219
B(  1-C ,  4-C ) :   0.1013 B(  1-C , 32-H ) :   0.9582 B(  2-C ,  3-C ) :   1.2496
B(  2-C ,  6-C ) :   1.0092 B(  3-C ,  4-C ) :   1.5818 B(  3-C ,  5-H ) :   0.9931
B(  4-C , 20-C ) :   0.9900 B(  6-C ,  7-H ) :   0.9355 B(  6-C ,  8-H ) :   0.9432
B(  6-C ,  9-C ) :   1.0812 B(  9-C , 10-H ) :   0.9529 B(  9-C , 11-H ) :   0.9570
B(  9-C , 12-C ) :   1.0757 B( 12-C , 13-H ) :   0.9744 B( 12-C , 14-H ) :   0.9732
B( 12-C , 15-H ) :   0.9726 B( 16-S , 17-C ) :   1.1742 B( 16-S , 20-C ) :   1.1859
B( 17-C , 18-C ) :   1.5748 B( 17-C , 20-C ) :   0.1045 B( 17-C , 33-H ) :   0.9698
B( 18-C , 19-C ) :   1.2884 B( 18-C , 21-H ) :   0.9890 B( 19-C , 20-C ) :   1.5574
B( 19-C , 22-C ) :   1.0327 B( 22-C , 23-H ) :   0.9312 B( 22-C , 24-H ) :   0.9241
B( 22-C , 25-C ) :   1.0705 B( 25-C , 26-H ) :   0.9538 B( 25-C , 27-H ) :   0.9494
B( 25-C , 28-C ) :   1.0919 B( 28-C , 29-H ) :   0.9747 B( 28-C , 30-H ) :   0.9753
B( 28-C , 31-H ) :   0.9735

Dispersion correction           -0.014168915
FINAL SINGLE POINT ENERGY     -1339.880317619803

DIPOLE MOMENT
-------------
                                X             Y             Z
Electronic contribution:     23.65801      12.08130       8.91476
Nuclear contribution   :    -24.08042     -12.28831      -9.13948
                        -----------------------------------------
Total Dipole Moment    :     -0.42242      -0.20701      -0.22471
                        -----------------------------------------
Magnitude (a.u.)       :      0.52133
Magnitude (Debye)      :      1.32511

Rotational constants in cm-1:     0.017050     0.009004     0.006891
Rotational constants in MHz :   511.160866   269.943928   206.574597

                             ****ORCA TERMINATED NORMALLY****
TOTAL RUN TIME: 0 days 0 hours 0 minutes 21 seconds 518 msec
