                         Program Version 4.2.1 -  RELEASE  -
|  1> ! wB97X-D3 SP def2-SVP
|  2> %pal
|  3> nprocs 24
|  4> end
|  5>
|  6> * xyz 0 1
|  7> S 	 34.9696 	 -29.3921 	 -112.72
|  8> C 	 34.9694 	 -28.6798 	 -111.1
|  9> C 	 35.8055 	 -29.4208 	 -110.238
| 10> C 	 36.538 	 -30.3693 	 -110.906
| 11> C 	 36.32 	 -30.4651 	 -112.27
| 12> H 	 37.0252 	 -31.1563 	 -110.437
| 13> C 	 35.9206 	 -29.1776 	 -108.765
| 14> H 	 35.7656 	 -28.123 	 -108.554
| 15> H 	 36.9464 	 -29.5168 	 -108.44
| 16> C 	 34.8943 	 -29.9388 	 -107.941
| 17> H 	 33.9296 	 -29.4117 	 -108
| 18> H 	 34.8414 	 -30.9309 	 -108.362
| 19> C 	 35.2182 	 -29.8305 	 -106.437
| 20> H 	 34.324 	 -30.0299 	 -105.818
| 21> H 	 36.0408 	 -30.4599 	 -106.067
| 22> H 	 35.4941 	 -28.7666 	 -106.143
| 23> S 	 35.7498 	 -32.6261 	 -114.021
| 24> C 	 37.095 	 -33.6136 	 -114.537
| 25> C 	 38.2773 	 -33.131 	 -114.05
| 26> C 	 38.1046 	 -31.9955 	 -113.217
| 27> C 	 36.8212 	 -31.5252 	 -113.1
| 28> H 	 39.1651 	 -33.6733 	 -114.415
| 29> C 	 39.3031 	 -31.3253 	 -112.514
| 30> H 	 39.5791 	 -31.9556 	 -111.673
| 31> H 	 38.9371 	 -30.3551 	 -112.265
| 32> C 	 40.5854 	 -31.1714 	 -113.38
| 33> H 	 40.3402 	 -30.5949 	 -114.275
| 34> H 	 40.9154 	 -32.1209 	 -113.713
| 35> C 	 41.7705 	 -30.3687 	 -112.813
| 36> H 	 41.3781 	 -29.4505 	 -112.456
| 37> H 	 42.4768 	 -30.3385 	 -113.664
| 38> H 	 42.2995 	 -30.9328 	 -112.034
| 39> H 	 34.2446 	 -27.9844 	 -110.708
| 40> H 	 36.9957 	 -34.4377 	 -115.149
| 41> *
| 42>
| 43>                          ****END OF INPUT****

CARTESIAN COORDINATES (ANGSTROEM)
---------------------------------
  S     34.969600  -29.392100  -112.720000
  C     34.969400  -28.679800  -111.100000
  C     35.805500  -29.420800  -110.238000
  C     36.538000  -30.369300  -110.906000
  C     36.320000  -30.465100  -112.270000
  H     37.025200  -31.156300  -110.437000
  C     35.920600  -29.177600  -108.765000
  H     35.765600  -28.123000  -108.554000
  H     36.946400  -29.516800  -108.440000
  C     34.894300  -29.938800  -107.941000
  H     33.929600  -29.411700  -108.000000
  H     34.841400  -30.930900  -108.362000
  C     35.218200  -29.830500  -106.437000
  H     34.324000  -30.029900  -105.818000
  H     36.040800  -30.459900  -106.067000
  H     35.494100  -28.766600  -106.143000
  S     35.749800  -32.626100  -114.021000
  C     37.095000  -33.613600  -114.537000
  C     38.277300  -33.131000  -114.050000
  C     38.104600  -31.995500  -113.217000
  C     36.821200  -31.525200  -113.100000
  H     39.165100  -33.673300  -114.415000
  C     39.303100  -31.325300  -112.514000
  H     39.579100  -31.955600  -111.673000
  H     38.937100  -30.355100  -112.265000
  C     40.585400  -31.171400  -113.380000
  H     40.340200  -30.594900  -114.275000
  H     40.915400  -32.120900  -113.713000
  C     41.770500  -30.368700  -112.813000
  H     41.378100  -29.450500  -112.456000
  H     42.476800  -30.338500  -113.664000
  H     42.299500  -30.932800  -112.034000
  H     34.244600  -27.984400  -110.708000
  H     36.995700  -34.437700  -115.149000

 Total Charge           Charge          ....    0
 Multiplicity           Mult            ....    1
 Number of Electrons    NEL             ....  134
 Basis Dimension        Dim             ....  322

ORBITAL ENERGIES
----------------

  NO   OCC          E(Eh)            E(eV)
   0   2.0000     -88.971947     -2421.0498
   1   2.0000     -88.962582     -2420.7949
   2   2.0000     -10.331395      -281.1316
   3   2.0000     -10.326281      -280.9924
   4   2.0000     -10.318043      -280.7682
   5   2.0000     -10.311691      -280.5954
   6   2.0000     -10.301991      -280.3314
   7   2.0000     -10.297426      -280.2072
   8   2.0000     -10.292785      -280.0809
   9   2.0000     -10.292725      -280.0793
  10   2.0000     -10.288054      -279.9522
  11   2.0000     -10.286862      -279.9197
  12   2.0000     -10.286652      -279.9140
  13   2.0000     -10.285503      -279.8828
  14   2.0000     -10.278860      -279.7020
  15   2.0000     -10.276961      -279.6503
  16   2.0000      -8.085376      -220.0143
  17   2.0000      -8.076974      -219.7856
  18   2.0000      -6.043814      -164.4606
  19   2.0000      -6.040152      -164.3609
  20   2.0000      -6.036202      -164.2534
  21   2.0000      -6.035553      -164.2357
  22   2.0000      -6.031531      -164.1263
  23   2.0000      -6.027675      -164.0214
  24   2.0000      -1.006642       -27.3921
  25   2.0000      -0.984724       -26.7957
  26   2.0000      -0.916428       -24.9373
  27   2.0000      -0.903602       -24.5883
  28   2.0000      -0.873475       -23.7685
  29   2.0000      -0.854797       -23.2602
  30   2.0000      -0.845615       -23.0103
  31   2.0000      -0.816041       -22.2056
  32   2.0000      -0.781365       -21.2620
  33   2.0000      -0.769725       -20.9453
  34   2.0000      -0.710424       -19.3316
  35   2.0000      -0.699674       -19.0391
  36   2.0000      -0.695495       -18.9254
  37   2.0000      -0.654007       -17.7964
  38   2.0000      -0.643266       -17.5042
  39   2.0000      -0.626541       -17.0490
  40   2.0000      -0.594332       -16.1726
  41   2.0000      -0.572944       -15.5906
  42   2.0000      -0.571742       -15.5579
  43   2.0000      -0.569301       -15.4915
  44   2.0000      -0.535233       -14.5644
  45   2.0000      -0.524962       -14.2849
  46   2.0000      -0.518574       -14.1111
  47   2.0000      -0.511341       -13.9143
  48   2.0000      -0.505101       -13.7445
  49   2.0000      -0.496495       -13.5103
  50   2.0000      -0.491726       -13.3805
  51   2.0000      -0.475363       -12.9353
  52   2.0000      -0.471688       -12.8353
  53   2.0000      -0.469431       -12.7739
  54   2.0000      -0.459562       -12.5053
  55   2.0000      -0.449218       -12.2238
  56   2.0000      -0.443341       -12.0639
  57   2.0000      -0.434822       -11.8321
  58   2.0000      -0.430201       -11.7064
  59   2.0000      -0.429212       -11.6795
  60   2.0000      -0.418896       -11.3987
  61   2.0000      -0.416623       -11.3369
  62   2.0000      -0.408495       -11.1157
  63   2.0000      -0.351300        -9.5594
  64   2.0000      -0.333602        -9.0778
  65   2.0000      -0.330501        -8.9934
  66   2.0000      -0.287957        -7.8357
  67   0.0000       0.020803         0.5661
  68   0.0000       0.068150         1.8544
  69   0.0000       0.110348         3.0027
  70   0.0000       0.125232         3.4077
  71   0.0000       0.129885         3.5343

MULLIKEN ATOMIC CHARGES
-----------------------
   0 S :    0.110956
   1 C :   -0.104490
   2 C :   -0.089845
   3 C :    0.042701
   4 C :   -0.169694
   5 H :   -0.002257
   6 C :    0.043270
   7 H :    0.024726
   8 H :    0.032391
   9 C :   -0.057521
  10 H :    0.028805
  11 H :    0.035663
  12 C :   -0.075697
  13 H :    0.038928
  14 H :    0.040166
  15 H :    0.029763
  16 S :    0.090048
  17 C :   -0.071158
  18 C :   -0.043160
  19 C :   -0.056423
  20 C :   -0.125389
  21 H :    0.032788
  22 C :    0.113306
  23 H :    0.034303
  24 H :    0.024132
  25 C :   -0.120679
  26 H :    0.027151
  27 H :    0.013914
  28 C :   -0.020611
  29 H :    0.032996
  30 H :    0.038985
  31 H :    0.026553
  32 H :    0.046653
  33 H :    0.028726
Sum of atomic charges:   -0.0000000

LOEWDIN ATOMIC CHARGES
----------------------
   0 S :    0.398033
   1 C :   -0.191286
   2 C :   -0.063870
   3 C :   -0.053237
   4 C :   -0.183132
   5 H :    0.024283
   6 C :   -0.033387
   7 H :    0.030109
   8 H :    0.034290
   9 C :   -0.039177
  10 H :    0.028088
  11 H :    0.023864
  12 C :   -0.074849
  13 H :    0.027964
  14 H :    0.023934
  15 H :    0.030809
  16 S :    0.380930
  17 C :   -0.164427
  18 C :   -0.078778
  19 C :   -0.054168
  20 C :   -0.191879
  21 H :    0.040129
  22 C :   -0.024961
  23 H :    0.030875
  24 H :    0.024873
  25 C :   -0.042288
  26 H :    0.025211
  27 H :    0.010675
  28 C :   -0.056382
  29 H :    0.020861
  30 H :    0.033839
  31 H :    0.021766
  32 H :    0.026884
  33 H :    0.014406

  Mayer bond orders larger than 0.100000
B(  0-S ,  1-C ) :   1.1491 B(  0-S ,  4-C ) :   1.1482 B(  1-C ,  2-C ) :   1.5627
B(  1-C ,  4-C ) :   0.1105 B(  1-C , 32-H ) :   0.9667 B(  2-C ,  3-C ) :   1.3076
B(  2-C ,  6-C ) :   1.0268 B(  3-C ,  4-C ) :   1.5197 B(  3-C ,  5-H ) :   0.9962
B(  4-C , 20-C ) :   1.0801 B(  6-C ,  7-H ) :   0.9333 B(  6-C ,  8-H ) :   0.9491
B(  6-C ,  9-C ) :   1.0652 B(  9-C , 10-H ) :   0.9535 B(  9-C , 11-H ) :   0.9600
B(  9-C , 12-C ) :   1.0739 B( 12-C , 13-H ) :   0.9769 B( 12-C , 14-H ) :   0.9767
B( 12-C , 15-H ) :   0.9696 B( 16-S , 17-C ) :   1.1571 B( 16-S , 20-C ) :   1.1055
B( 17-C , 18-C ) :   1.6231 B( 17-C , 33-H ) :   0.9741 B( 18-C , 19-C ) :   1.2138
B( 18-C , 21-H ) :   0.9920 B( 19-C , 20-C ) :   1.6232 B( 19-C , 22-C ) :   1.0370
B( 22-C , 23-H ) :   0.9305 B( 22-C , 24-H ) :   0.9298 B( 22-C , 25-C ) :   1.0695
B( 25-C , 26-H ) :   0.9609 B( 25-C , 27-H ) :   0.9504 B( 25-C , 28-C ) :   1.0887
B( 28-C , 29-H ) :   0.9758 B( 28-C , 30-H ) :   0.9742 B( 28-C , 31-H ) :   0.9753

Dispersion correction           -0.013451370
FINAL SINGLE POINT ENERGY     -1339.872995515060

DIPOLE MOMENT
-------------
                                X             Y             Z
Electronic contribution:    -16.70398      -4.54883     -20.78314
Nuclear contribution   :     17.03300       4.38394      21.29085
                        -----------------------------------------
Total Dipole Moment    :      0.32902      -0.16489       0.50771
                        -----------------------------------------
Magnitude (a.u.)       :      0.62707
Magnitude (Debye)      :      1.59389

Rotational constants in cm-1:     0.017068     0.007886     0.006446
Rotational constants in MHz :   511.679719   236.424814   193.258585

                             ****ORCA TERMINATED NORMALLY****
TOTAL RUN TIME: 0 days 0 hours 0 minutes 19 seconds 987 msec
