                         Program Version 4.2.1 -  RELEASE  -
|  1> ! wB97X-D3 SP def2-SVP
|  2> %pal
|  3> nprocs 24
|  4> end
|  5>
|  6> * xyz 0 1
|  7> S 	 -46.4634 	 21.2352 	 28.4774
|  8> C 	 -45.0291 	 20.2193 	 28.8766
|  9> C 	 -44.4352 	 20.6205 	 30.1061
| 10> C 	 -45.1968 	 21.5866 	 30.7557
| 11> C 	 -46.3099 	 22.0026 	 30.0658
| 12> H 	 -44.9348 	 21.8572 	 31.7888
| 13> C 	 -43.183 	 20.0215 	 30.6692
| 14> H 	 -43.0212 	 19.0664 	 30.1524
| 15> H 	 -43.33 	 19.6777 	 31.7574
| 16> C 	 -41.9811 	 20.9185 	 30.3896
| 17> H 	 -42.0557 	 21.3961 	 29.3817
| 18> H 	 -41.9744 	 21.7275 	 31.0926
| 19> C 	 -40.6194 	 20.1702 	 30.6621
| 20> H 	 -40.5269 	 19.8198 	 31.6802
| 21> H 	 -40.4085 	 19.308 	 30.0529
| 22> H 	 -39.752 	 20.823 	 30.515
| 23> S 	 -47.932 	 22.5347 	 32.1719
| 24> C 	 -49.0583 	 23.8782 	 32.0389
| 25> C 	 -48.7332 	 24.7418 	 31.0039
| 26> C 	 -47.8861 	 24.0617 	 30.048
| 27> C 	 -47.4031 	 22.8554 	 30.5631
| 28> H 	 -49.1997 	 25.7815 	 30.8721
| 29> C 	 -47.4289 	 24.7311 	 28.7027
| 30> H 	 -48.3659 	 24.9369 	 28.274
| 31> H 	 -46.9385 	 23.9703 	 28.1028
| 32> C 	 -46.5166 	 25.924 	 28.9727
| 33> H 	 -46.9697 	 26.5471 	 29.7577
| 34> H 	 -46.3687 	 26.5515 	 28.0469
| 35> C 	 -45.0737 	 25.6213 	 29.3906
| 36> H 	 -44.5531 	 25.0002 	 28.6145
| 37> H 	 -45.0751 	 24.887 	 30.288
| 38> H 	 -44.5133 	 26.5391 	 29.546
| 39> H 	 -44.5468 	 19.4535 	 28.3213
| 40> H 	 -49.5492 	 24.3453 	 32.9046
| 41> *
| 42>
| 43>                          ****END OF INPUT****

CARTESIAN COORDINATES (ANGSTROEM)
---------------------------------
  S    -46.463400   21.235200   28.477400
  C    -45.029100   20.219300   28.876600
  C    -44.435200   20.620500   30.106100
  C    -45.196800   21.586600   30.755700
  C    -46.309900   22.002600   30.065800
  H    -44.934800   21.857200   31.788800
  C    -43.183000   20.021500   30.669200
  H    -43.021200   19.066400   30.152400
  H    -43.330000   19.677700   31.757400
  C    -41.981100   20.918500   30.389600
  H    -42.055700   21.396100   29.381700
  H    -41.974400   21.727500   31.092600
  C    -40.619400   20.170200   30.662100
  H    -40.526900   19.819800   31.680200
  H    -40.408500   19.308000   30.052900
  H    -39.752000   20.823000   30.515000
  S    -47.932000   22.534700   32.171900
  C    -49.058300   23.878200   32.038900
  C    -48.733200   24.741800   31.003900
  C    -47.886100   24.061700   30.048000
  C    -47.403100   22.855400   30.563100
  H    -49.199700   25.781500   30.872100
  C    -47.428900   24.731100   28.702700
  H    -48.365900   24.936900   28.274000
  H    -46.938500   23.970300   28.102800
  C    -46.516600   25.924000   28.972700
  H    -46.969700   26.547100   29.757700
  H    -46.368700   26.551500   28.046900
  C    -45.073700   25.621300   29.390600
  H    -44.553100   25.000200   28.614500
  H    -45.075100   24.887000   30.288000
  H    -44.513300   26.539100   29.546000
  H    -44.546800   19.453500   28.321300
  H    -49.549200   24.345300   32.904600

 Total Charge           Charge          ....    0
 Multiplicity           Mult            ....    1
 Number of Electrons    NEL             ....  134
 Basis Dimension        Dim             ....  322

ORBITAL ENERGIES
----------------

  NO   OCC          E(Eh)            E(eV)
   0   2.0000     -88.973531     -2421.0929
   1   2.0000     -88.968611     -2420.9590
   2   2.0000     -10.332859      -281.1714
   3   2.0000     -10.325783      -280.9788
   4   2.0000     -10.316691      -280.7314
   5   2.0000     -10.316077      -280.7147
   6   2.0000     -10.306659      -280.4584
   7   2.0000     -10.305023      -280.4139
   8   2.0000     -10.299435      -280.2619
   9   2.0000     -10.298405      -280.2338
  10   2.0000     -10.293042      -280.0879
  11   2.0000     -10.292464      -280.0722
  12   2.0000     -10.290655      -280.0229
  13   2.0000     -10.290186      -280.0102
  14   2.0000     -10.281341      -279.7695
  15   2.0000     -10.279208      -279.7115
  16   2.0000      -8.086305      -220.0395
  17   2.0000      -8.083438      -219.9615
  18   2.0000      -6.044868      -164.4892
  19   2.0000      -6.041916      -164.4089
  20   2.0000      -6.041194      -164.3892
  21   2.0000      -6.038149      -164.3064
  22   2.0000      -6.037025      -164.2758
  23   2.0000      -6.034009      -164.1937
  24   2.0000      -1.005775       -27.3685
  25   2.0000      -0.981068       -26.6962
  26   2.0000      -0.911386       -24.8001
  27   2.0000      -0.905683       -24.6449
  28   2.0000      -0.863833       -23.5061
  29   2.0000      -0.851090       -23.1593
  30   2.0000      -0.840567       -22.8730
  31   2.0000      -0.812047       -22.0969
  32   2.0000      -0.783090       -21.3090
  33   2.0000      -0.768469       -20.9111
  34   2.0000      -0.706842       -19.2341
  35   2.0000      -0.699280       -19.0284
  36   2.0000      -0.687406       -18.7053
  37   2.0000      -0.660064       -17.9613
  38   2.0000      -0.628853       -17.1119
  39   2.0000      -0.622110       -16.9285
  40   2.0000      -0.592013       -16.1095
  41   2.0000      -0.567025       -15.4295
  42   2.0000      -0.558150       -15.1880
  43   2.0000      -0.551405       -15.0045
  44   2.0000      -0.537108       -14.6155
  45   2.0000      -0.520335       -14.1590
  46   2.0000      -0.515535       -14.0284
  47   2.0000      -0.510234       -13.8842
  48   2.0000      -0.499282       -13.5862
  49   2.0000      -0.489371       -13.3164
  50   2.0000      -0.486179       -13.2296
  51   2.0000      -0.475274       -12.9329
  52   2.0000      -0.463251       -12.6057
  53   2.0000      -0.459381       -12.5004
  54   2.0000      -0.457358       -12.4453
  55   2.0000      -0.452264       -12.3067
  56   2.0000      -0.448543       -12.2055
  57   2.0000      -0.443859       -12.0780
  58   2.0000      -0.437586       -11.9073
  59   2.0000      -0.427652       -11.6370
  60   2.0000      -0.423062       -11.5121
  61   2.0000      -0.416481       -11.3330
  62   2.0000      -0.401965       -10.9380
  63   2.0000      -0.343735        -9.3535
  64   2.0000      -0.337956        -9.1963
  65   2.0000      -0.330340        -8.9890
  66   2.0000      -0.288082        -7.8391
  67   0.0000       0.027159         0.7390
  68   0.0000       0.061288         1.6677
  69   0.0000       0.095809         2.6071
  70   0.0000       0.108524         2.9531
  71   0.0000       0.128295         3.4911

MULLIKEN ATOMIC CHARGES
-----------------------
   0 S :    0.115095
   1 C :   -0.098866
   2 C :   -0.121819
   3 C :    0.017404
   4 C :   -0.138756
   5 H :    0.018133
   6 C :    0.038287
   7 H :    0.014750
   8 H :    0.048192
   9 C :   -0.062482
  10 H :    0.048857
  11 H :    0.026213
  12 C :   -0.050344
  13 H :    0.025209
  14 H :    0.027455
  15 H :    0.031706
  16 S :    0.114983
  17 C :   -0.085837
  18 C :   -0.084723
  19 C :   -0.110029
  20 C :   -0.129130
  21 H :    0.060042
  22 C :    0.148791
  23 H :    0.023655
  24 H :    0.009316
  25 C :   -0.089606
  26 H :    0.029826
  27 H :    0.038560
  28 C :   -0.082548
  29 H :    0.033467
  30 H :    0.046206
  31 H :    0.044734
  32 H :    0.028541
  33 H :    0.064719
Sum of atomic charges:    0.0000000

LOEWDIN ATOMIC CHARGES
----------------------
   0 S :    0.393476
   1 C :   -0.187369
   2 C :   -0.059068
   3 C :   -0.075892
   4 C :   -0.178809
   5 H :    0.034679
   6 C :   -0.040552
   7 H :    0.028699
   8 H :    0.041123
   9 C :   -0.036362
  10 H :    0.034401
  11 H :    0.021936
  12 C :   -0.068879
  13 H :    0.024453
  14 H :    0.019984
  15 H :    0.027565
  16 S :    0.421253
  17 C :   -0.200599
  18 C :   -0.072358
  19 C :   -0.056371
  20 C :   -0.211888
  21 H :    0.047308
  22 C :   -0.022411
  23 H :    0.026846
  24 H :    0.018642
  25 C :   -0.046762
  26 H :    0.023198
  27 H :    0.029812
  28 C :   -0.074493
  29 H :    0.027172
  30 H :    0.033732
  31 H :    0.026264
  32 H :    0.019581
  33 H :    0.031687

  Mayer bond orders larger than 0.100000
B(  0-S ,  1-C ) :   1.1260 B(  0-S ,  4-C ) :   1.1493 B(  1-C ,  2-C ) :   1.6026
B(  1-C ,  4-C ) :   0.1068 B(  1-C , 32-H ) :   0.9664 B(  2-C ,  3-C ) :   1.2681
B(  2-C ,  6-C ) :   1.0366 B(  3-C ,  4-C ) :   1.5608 B(  3-C ,  5-H ) :   0.9857
B(  4-C , 20-C ) :   1.0186 B(  6-C ,  7-H ) :   0.9409 B(  6-C ,  8-H ) :   0.9381
B(  6-C ,  9-C ) :   1.0452 B(  9-C , 10-H ) :   0.9580 B(  9-C , 11-H ) :   0.9542
B(  9-C , 12-C ) :   1.0747 B( 12-C , 13-H ) :   0.9733 B( 12-C , 14-H ) :   0.9792
B( 12-C , 15-H ) :   0.9762 B( 16-S , 17-C ) :   1.1469 B( 16-S , 20-C ) :   1.1531
B( 17-C , 18-C ) :   1.6319 B( 17-C , 33-H ) :   0.9567 B( 18-C , 19-C ) :   1.2504
B( 18-C , 21-H ) :   0.9681 B( 19-C , 20-C ) :   1.5783 B( 19-C , 22-C ) :   1.0170
B( 22-C , 23-H ) :   0.9310 B( 22-C , 24-H ) :   0.9315 B( 22-C , 25-C ) :   1.0673
B( 25-C , 26-H ) :   0.9571 B( 25-C , 27-H ) :   0.9541 B( 25-C , 28-C ) :   1.0763
B( 28-C , 29-H ) :   0.9730 B( 28-C , 30-H ) :   0.9735 B( 28-C , 31-H ) :   0.9727

Dispersion correction           -0.015123551
FINAL SINGLE POINT ENERGY     -1339.868294281598

DIPOLE MOMENT
-------------
                                X             Y             Z
Electronic contribution:    -23.12746      -6.32908       2.33841
Nuclear contribution   :     23.63553       6.60842      -2.22988
                        -----------------------------------------
Total Dipole Moment    :      0.50807       0.27934       0.10853
                        -----------------------------------------
Magnitude (a.u.)       :      0.58987
Magnitude (Debye)      :      1.49934

Rotational constants in cm-1:     0.020675     0.007997     0.007385
Rotational constants in MHz :   619.810349   239.747946   221.403886

                             ****ORCA TERMINATED NORMALLY****
TOTAL RUN TIME: 0 days 0 hours 0 minutes 20 seconds 773 msec
