                         Program Version 4.2.1 -  RELEASE  -
|  1> ! wB97X-D3 SP def2-SVP
|  2> %pal
|  3> nprocs 24
|  4> end
|  5>
|  6> * xyz 0 1
|  7> S 	 26.8489 	 -4.23863 	 -113.574
|  8> C 	 26.7782 	 -4.63613 	 -115.243
|  9> C 	 25.5113 	 -4.88186 	 -115.676
| 10> C 	 24.5918 	 -4.99542 	 -114.551
| 11> C 	 25.1853 	 -4.74924 	 -113.37
| 12> H 	 23.581 	 -5.33446 	 -114.604
| 13> C 	 25.0479 	 -5.40763 	 -117.05
| 14> H 	 25.8517 	 -5.48562 	 -117.777
| 15> H 	 24.3666 	 -4.60276 	 -117.437
| 16> C 	 24.229 	 -6.70447 	 -116.97
| 17> H 	 23.3058 	 -6.65569 	 -116.269
| 18> H 	 23.8558 	 -6.96972 	 -117.967
| 19> C 	 25.2437 	 -7.87147 	 -116.584
| 20> H 	 26.0626 	 -7.88814 	 -117.313
| 21> H 	 25.7205 	 -7.68633 	 -115.653
| 22> H 	 24.8851 	 -8.91367 	 -116.455
| 23> S 	 24.4169 	 -3.27811 	 -111.157
| 24> C 	 23.4247 	 -3.99029 	 -109.905
| 25> C 	 23.1106 	 -5.29847 	 -110.24
| 26> C 	 23.6676 	 -5.77813 	 -111.482
| 27> C 	 24.5072 	 -4.76141 	 -112.054
| 28> H 	 22.5693 	 -5.89082 	 -109.533
| 29> C 	 23.4406 	 -7.18287 	 -112.093
| 30> H 	 23.7406 	 -7.1707 	 -113.166
| 31> H 	 22.3164 	 -7.26432 	 -112.213
| 32> C 	 23.9561 	 -8.4887 	 -111.247
| 33> H 	 23.7007 	 -8.24071 	 -110.268
| 34> H 	 25.0919 	 -8.45867 	 -111.259
| 35> C 	 23.2814 	 -9.71571 	 -111.879
| 36> H 	 23.4115 	 -10.6755 	 -111.391
| 37> H 	 23.6861 	 -9.84889 	 -112.859
| 38> H 	 22.2248 	 -9.53934 	 -111.984
| 39> H 	 27.6015 	 -4.69734 	 -115.969
| 40> H 	 22.9819 	 -3.52964 	 -109.047
| 41> *
| 42>
| 43>                          ****END OF INPUT****

CARTESIAN COORDINATES (ANGSTROEM)
---------------------------------
  S     26.848900   -4.238630  -113.574000
  C     26.778200   -4.636130  -115.243000
  C     25.511300   -4.881860  -115.676000
  C     24.591800   -4.995420  -114.551000
  C     25.185300   -4.749240  -113.370000
  H     23.581000   -5.334460  -114.604000
  C     25.047900   -5.407630  -117.050000
  H     25.851700   -5.485620  -117.777000
  H     24.366600   -4.602760  -117.437000
  C     24.229000   -6.704470  -116.970000
  H     23.305800   -6.655690  -116.269000
  H     23.855800   -6.969720  -117.967000
  C     25.243700   -7.871470  -116.584000
  H     26.062600   -7.888140  -117.313000
  H     25.720500   -7.686330  -115.653000
  H     24.885100   -8.913670  -116.455000
  S     24.416900   -3.278110  -111.157000
  C     23.424700   -3.990290  -109.905000
  C     23.110600   -5.298470  -110.240000
  C     23.667600   -5.778130  -111.482000
  C     24.507200   -4.761410  -112.054000
  H     22.569300   -5.890820  -109.533000
  C     23.440600   -7.182870  -112.093000
  H     23.740600   -7.170700  -113.166000
  H     22.316400   -7.264320  -112.213000
  C     23.956100   -8.488700  -111.247000
  H     23.700700   -8.240710  -110.268000
  H     25.091900   -8.458670  -111.259000
  C     23.281400   -9.715710  -111.879000
  H     23.411500  -10.675500  -111.391000
  H     23.686100   -9.848890  -112.859000
  H     22.224800   -9.539340  -111.984000
  H     27.601500   -4.697340  -115.969000
  H     22.981900   -3.529640  -109.047000

 Total Charge           Charge          ....    0
 Multiplicity           Mult            ....    1
 Number of Electrons    NEL             ....  134
 Basis Dimension        Dim             ....  322

ORBITAL ENERGIES
----------------

  NO   OCC          E(Eh)            E(eV)
   0   2.0000     -88.967740     -2420.9353
   1   2.0000     -88.965434     -2420.8725
   2   2.0000     -10.330605      -281.1100
   3   2.0000     -10.326465      -280.9974
   4   2.0000     -10.315421      -280.6969
   5   2.0000     -10.312134      -280.6074
   6   2.0000     -10.311574      -280.5922
   7   2.0000     -10.304517      -280.4002
   8   2.0000     -10.304235      -280.3925
   9   2.0000     -10.301394      -280.3152
  10   2.0000     -10.301126      -280.3079
  11   2.0000     -10.296282      -280.1761
  12   2.0000     -10.294041      -280.1151
  13   2.0000     -10.289801      -279.9997
  14   2.0000     -10.278867      -279.7022
  15   2.0000     -10.278192      -279.6838
  16   2.0000      -8.082382      -219.9328
  17   2.0000      -8.080912      -219.8928
  18   2.0000      -6.040897      -164.3812
  19   2.0000      -6.039494      -164.3430
  20   2.0000      -6.036765      -164.2687
  21   2.0000      -6.035489      -164.2340
  22   2.0000      -6.033276      -164.1738
  23   2.0000      -6.031365      -164.1218
  24   2.0000      -1.008288       -27.4369
  25   2.0000      -0.983601       -26.7651
  26   2.0000      -0.908447       -24.7201
  27   2.0000      -0.896065       -24.3832
  28   2.0000      -0.869159       -23.6510
  29   2.0000      -0.849190       -23.1076
  30   2.0000      -0.840378       -22.8678
  31   2.0000      -0.814466       -22.1627
  32   2.0000      -0.780037       -21.2259
  33   2.0000      -0.767748       -20.8915
  34   2.0000      -0.712268       -19.3818
  35   2.0000      -0.702965       -19.1287
  36   2.0000      -0.692626       -18.8473
  37   2.0000      -0.654534       -17.8108
  38   2.0000      -0.639129       -17.3916
  39   2.0000      -0.627563       -17.0769
  40   2.0000      -0.590647       -16.0723
  41   2.0000      -0.565682       -15.3930
  42   2.0000      -0.555910       -15.1271
  43   2.0000      -0.548608       -14.9284
  44   2.0000      -0.535834       -14.5808
  45   2.0000      -0.522853       -14.2275
  46   2.0000      -0.513636       -13.9767
  47   2.0000      -0.509243       -13.8572
  48   2.0000      -0.500444       -13.6178
  49   2.0000      -0.495208       -13.4753
  50   2.0000      -0.489106       -13.3093
  51   2.0000      -0.478345       -13.0164
  52   2.0000      -0.467361       -12.7176
  53   2.0000      -0.459566       -12.5054
  54   2.0000      -0.458529       -12.4772
  55   2.0000      -0.452382       -12.3099
  56   2.0000      -0.446290       -12.1442
  57   2.0000      -0.440974       -11.9995
  58   2.0000      -0.433281       -11.7902
  59   2.0000      -0.429581       -11.6895
  60   2.0000      -0.427441       -11.6313
  61   2.0000      -0.418305       -11.3826
  62   2.0000      -0.413297       -11.2464
  63   2.0000      -0.349910        -9.5215
  64   2.0000      -0.328769        -8.9463
  65   2.0000      -0.327198        -8.9035
  66   2.0000      -0.294426        -8.0117
  67   0.0000       0.037928         1.0321
  68   0.0000       0.068931         1.8757
  69   0.0000       0.113897         3.0993
  70   0.0000       0.119705         3.2573
  71   0.0000       0.128617         3.4998

MULLIKEN ATOMIC CHARGES
-----------------------
   0 S :    0.119046
   1 C :   -0.116746
   2 C :   -0.085180
   3 C :    0.036553
   4 C :   -0.158139
   5 H :    0.004673
   6 C :    0.049847
   7 H :    0.022676
   8 H :    0.046283
   9 C :   -0.096023
  10 H :    0.051662
  11 H :    0.037235
  12 C :   -0.060982
  13 H :    0.022702
  14 H :    0.029824
  15 H :    0.037713
  16 S :    0.116935
  17 C :   -0.085695
  18 C :   -0.040973
  19 C :   -0.029166
  20 C :   -0.153548
  21 H :    0.012497
  22 C :   -0.011865
  23 H :    0.022923
  24 H :    0.034100
  25 C :   -0.036774
  26 H :    0.013537
  27 H :    0.051108
  28 C :   -0.023676
  29 H :    0.037448
  30 H :    0.026197
  31 H :    0.026084
  32 H :    0.048393
  33 H :    0.051332
Sum of atomic charges:   -0.0000000

LOEWDIN ATOMIC CHARGES
----------------------
   0 S :    0.408429
   1 C :   -0.208075
   2 C :   -0.065103
   3 C :   -0.055786
   4 C :   -0.191096
   5 H :    0.026293
   6 C :   -0.032689
   7 H :    0.027016
   8 H :    0.040049
   9 C :   -0.042197
  10 H :    0.031956
  11 H :    0.025744
  12 C :   -0.072973
  13 H :    0.024537
  14 H :    0.019441
  15 H :    0.026941
  16 S :    0.419227
  17 C :   -0.193252
  18 C :   -0.069382
  19 C :   -0.060012
  20 C :   -0.203683
  21 H :    0.025752
  22 C :   -0.041472
  23 H :    0.028710
  24 H :    0.034242
  25 C :   -0.027672
  26 H :    0.010781
  27 H :    0.035459
  28 C :   -0.063402
  29 H :    0.026560
  30 H :    0.026329
  31 H :    0.024776
  32 H :    0.034667
  33 H :    0.029883

  Mayer bond orders larger than 0.100000
B(  0-S ,  1-C ) :   1.1282 B(  0-S ,  4-C ) :   1.1327 B(  1-C ,  2-C ) :   1.6636
B(  1-C , 32-H ) :   0.9600 B(  2-C ,  3-C ) :   1.1875 B(  2-C ,  6-C ) :   1.0186
B(  3-C ,  4-C ) :   1.6331 B(  3-C ,  5-H ) :   0.9937 B(  4-C , 20-C ) :   1.0094
B(  6-C ,  7-H ) :   0.9518 B(  6-C ,  8-H ) :   0.9304 B(  6-C ,  9-C ) :   1.0740
B(  9-C , 10-H ) :   0.9515 B(  9-C , 11-H ) :   0.9553 B(  9-C , 12-C ) :   1.0501
B( 12-C , 13-H ) :   0.9746 B( 12-C , 14-H ) :   0.9781 B( 12-C , 15-H ) :   0.9786
B( 16-S , 17-C ) :   1.1477 B( 16-S , 20-C ) :   1.1728 B( 17-C , 18-C ) :   1.6085
B( 17-C , 20-C ) :   0.1015 B( 17-C , 33-H ) :   0.9702 B( 18-C , 19-C ) :   1.2542
B( 18-C , 21-H ) :   0.9892 B( 19-C , 20-C ) :   1.5586 B( 19-C , 22-C ) :   1.0408
B( 22-C , 23-H ) :   0.9352 B( 22-C , 24-H ) :   0.9410 B( 22-C , 25-C ) :   1.0304
B( 25-C , 26-H ) :   0.9630 B( 25-C , 27-H ) :   0.9589 B( 25-C , 28-C ) :   1.0646
B( 28-C , 29-H ) :   0.9746 B( 28-C , 30-H ) :   0.9752 B( 28-C , 31-H ) :   0.9757

Dispersion correction           -0.014949575
FINAL SINGLE POINT ENERGY     -1339.873032662634

DIPOLE MOMENT
-------------
                                X             Y             Z
Electronic contribution:      8.99657      26.98859      12.27323
Nuclear contribution   :     -9.38321     -27.56715     -12.59018
                        -----------------------------------------
Total Dipole Moment    :     -0.38665      -0.57856      -0.31695
                        -----------------------------------------
Magnitude (a.u.)       :      0.76465
Magnitude (Debye)      :      1.94358

Rotational constants in cm-1:     0.015791     0.010581     0.007193
Rotational constants in MHz :   473.389858   317.214378   215.629399

                             ****ORCA TERMINATED NORMALLY****
TOTAL RUN TIME: 0 days 0 hours 0 minutes 22 seconds 322 msec
