                         Program Version 4.2.1 -  RELEASE  -
|  1> ! wB97X-D3 SP def2-SVP
|  2> %pal
|  3> nprocs 24
|  4> end
|  5>
|  6> * xyz 0 1
|  7> S 	 -67.9946 	 9.24557 	 -102.206
|  8> C 	 -67.2011 	 7.64735 	 -102.005
|  9> C 	 -67.8513 	 6.68947 	 -102.838
| 10> C 	 -69.0283 	 7.17123 	 -103.511
| 11> C 	 -69.2317 	 8.50618 	 -103.233
| 12> H 	 -69.7097 	 6.61077 	 -104.184
| 13> C 	 -67.4714 	 5.20524 	 -102.883
| 14> H 	 -66.4334 	 5.14089 	 -102.548
| 15> H 	 -67.3039 	 4.83313 	 -103.946
| 16> C 	 -68.3513 	 4.21056 	 -102.016
| 17> H 	 -69.341 	 4.4367 	 -102.234
| 18> H 	 -68.1879 	 3.17821 	 -102.242
| 19> C 	 -67.9024 	 4.21807 	 -100.507
| 20> H 	 -68.456 	 3.45311 	 -99.8592
| 21> H 	 -66.8811 	 3.92608 	 -100.428
| 22> H 	 -68.0962 	 5.19112 	 -100.095
| 23> S 	 -69.982 	 10.9515 	 -104.507
| 24> C 	 -71.6652 	 11.1262 	 -105.077
| 25> C 	 -72.3938 	 10.0022 	 -104.685
| 26> C 	 -71.636 	 8.95247 	 -104.057
| 27> C 	 -70.3121 	 9.33826 	 -103.843
| 28> H 	 -73.4965 	 9.9293 	 -104.82
| 29> C 	 -72.4161 	 7.6929 	 -103.754
| 30> H 	 -71.7501 	 6.98416 	 -103.224
| 31> H 	 -72.7118 	 7.20833 	 -104.71
| 32> C 	 -73.6934 	 8.02597 	 -102.945
| 33> H 	 -74.4569 	 8.49769 	 -103.597
| 34> H 	 -73.4474 	 8.78868 	 -102.233
| 35> C 	 -74.2943 	 6.81493 	 -102.22
| 36> H 	 -74.9686 	 7.23067 	 -101.459
| 37> H 	 -73.5475 	 6.10925 	 -101.806
| 38> H 	 -74.8805 	 6.17368 	 -102.908
| 39> H 	 -66.3599 	 7.46592 	 -101.328
| 40> H 	 -72.1975 	 11.8973 	 -105.647
| 41> *
| 42>
| 43>                          ****END OF INPUT****

CARTESIAN COORDINATES (ANGSTROEM)
---------------------------------
  S    -67.994600    9.245570  -102.206000
  C    -67.201100    7.647350  -102.005000
  C    -67.851300    6.689470  -102.838000
  C    -69.028300    7.171230  -103.511000
  C    -69.231700    8.506180  -103.233000
  H    -69.709700    6.610770  -104.184000
  C    -67.471400    5.205240  -102.883000
  H    -66.433400    5.140890  -102.548000
  H    -67.303900    4.833130  -103.946000
  C    -68.351300    4.210560  -102.016000
  H    -69.341000    4.436700  -102.234000
  H    -68.187900    3.178210  -102.242000
  C    -67.902400    4.218070  -100.507000
  H    -68.456000    3.453110  -99.859200
  H    -66.881100    3.926080  -100.428000
  H    -68.096200    5.191120  -100.095000
  S    -69.982000   10.951500  -104.507000
  C    -71.665200   11.126200  -105.077000
  C    -72.393800   10.002200  -104.685000
  C    -71.636000    8.952470  -104.057000
  C    -70.312100    9.338260  -103.843000
  H    -73.496500    9.929300  -104.820000
  C    -72.416100    7.692900  -103.754000
  H    -71.750100    6.984160  -103.224000
  H    -72.711800    7.208330  -104.710000
  C    -73.693400    8.025970  -102.945000
  H    -74.456900    8.497690  -103.597000
  H    -73.447400    8.788680  -102.233000
  C    -74.294300    6.814930  -102.220000
  H    -74.968600    7.230670  -101.459000
  H    -73.547500    6.109250  -101.806000
  H    -74.880500    6.173680  -102.908000
  H    -66.359900    7.465920  -101.328000
  H    -72.197500   11.897300  -105.647000

 Total Charge           Charge          ....    0
 Multiplicity           Mult            ....    1
 Number of Electrons    NEL             ....  134
 Basis Dimension        Dim             ....  322

ORBITAL ENERGIES
----------------

  NO   OCC          E(Eh)            E(eV)
   0   2.0000     -88.971405     -2421.0350
   1   2.0000     -88.970568     -2421.0122
   2   2.0000     -10.336880      -281.2808
   3   2.0000     -10.333788      -281.1967
   4   2.0000     -10.325806      -280.9795
   5   2.0000     -10.322727      -280.8957
   6   2.0000     -10.312537      -280.6184
   7   2.0000     -10.303148      -280.3629
   8   2.0000     -10.300624      -280.2942
   9   2.0000     -10.299137      -280.2538
  10   2.0000     -10.298410      -280.2340
  11   2.0000     -10.295321      -280.1499
  12   2.0000     -10.288897      -279.9751
  13   2.0000     -10.286615      -279.9130
  14   2.0000     -10.283702      -279.8338
  15   2.0000     -10.280602      -279.7494
  16   2.0000      -8.084874      -220.0006
  17   2.0000      -8.083769      -219.9705
  18   2.0000      -6.043481      -164.4515
  19   2.0000      -6.042600      -164.4275
  20   2.0000      -6.039611      -164.3462
  21   2.0000      -6.038500      -164.3159
  22   2.0000      -6.035567      -164.2361
  23   2.0000      -6.034266      -164.2007
  24   2.0000      -0.997902       -27.1543
  25   2.0000      -0.975104       -26.5339
  26   2.0000      -0.909521       -24.7493
  27   2.0000      -0.900412       -24.5015
  28   2.0000      -0.860785       -23.4232
  29   2.0000      -0.850215       -23.1355
  30   2.0000      -0.842803       -22.9338
  31   2.0000      -0.810126       -22.0446
  32   2.0000      -0.777694       -21.1621
  33   2.0000      -0.767329       -20.8801
  34   2.0000      -0.708802       -19.2875
  35   2.0000      -0.701538       -19.0898
  36   2.0000      -0.694955       -18.9107
  37   2.0000      -0.652112       -17.7449
  38   2.0000      -0.639797       -17.4098
  39   2.0000      -0.617759       -16.8101
  40   2.0000      -0.591917       -16.1069
  41   2.0000      -0.566256       -15.4086
  42   2.0000      -0.563472       -15.3328
  43   2.0000      -0.543255       -14.7827
  44   2.0000      -0.533839       -14.5265
  45   2.0000      -0.529313       -14.4034
  46   2.0000      -0.516137       -14.0448
  47   2.0000      -0.511772       -13.9260
  48   2.0000      -0.496335       -13.5060
  49   2.0000      -0.494151       -13.4465
  50   2.0000      -0.483744       -13.1634
  51   2.0000      -0.477856       -13.0031
  52   2.0000      -0.475533       -12.9399
  53   2.0000      -0.464073       -12.6281
  54   2.0000      -0.461561       -12.5597
  55   2.0000      -0.447508       -12.1773
  56   2.0000      -0.439986       -11.9726
  57   2.0000      -0.434591       -11.8258
  58   2.0000      -0.431372       -11.7382
  59   2.0000      -0.429561       -11.6890
  60   2.0000      -0.420679       -11.4473
  61   2.0000      -0.418941       -11.4000
  62   2.0000      -0.410210       -11.1624
  63   2.0000      -0.351100        -9.5539
  64   2.0000      -0.333648        -9.0790
  65   2.0000      -0.328754        -8.9458
  66   2.0000      -0.287941        -7.8353
  67   0.0000       0.025964         0.7065
  68   0.0000       0.068682         1.8689
  69   0.0000       0.101546         2.7632
  70   0.0000       0.115185         3.1343
  71   0.0000       0.125974         3.4279

MULLIKEN ATOMIC CHARGES
-----------------------
   0 S :    0.101692
   1 C :   -0.123565
   2 C :   -0.087878
   3 C :    0.010416
   4 C :   -0.140307
   5 H :    0.040370
   6 C :    0.011126
   7 H :    0.007541
   8 H :    0.044158
   9 C :   -0.013373
  10 H :    0.016136
  11 H :    0.024005
  12 C :   -0.078086
  13 H :    0.040598
  14 H :    0.027794
  15 H :    0.038332
  16 S :    0.108665
  17 C :   -0.091379
  18 C :   -0.064028
  19 C :   -0.055409
  20 C :   -0.138073
  21 H :    0.032601
  22 C :    0.063275
  23 H :    0.020222
  24 H :    0.046617
  25 C :   -0.111512
  26 H :    0.038042
  27 H :    0.038447
  28 C :   -0.044639
  29 H :    0.043615
  30 H :    0.038268
  31 H :    0.029055
  32 H :    0.063042
  33 H :    0.064233
Sum of atomic charges:    0.0000000

LOEWDIN ATOMIC CHARGES
----------------------
   0 S :    0.381383
   1 C :   -0.191557
   2 C :   -0.056682
   3 C :   -0.069823
   4 C :   -0.173422
   5 H :    0.042482
   6 C :   -0.042757
   7 H :    0.025156
   8 H :    0.039066
   9 C :   -0.027612
  10 H :    0.011619
  11 H :    0.023265
  12 C :   -0.063888
  13 H :    0.033007
  14 H :    0.019640
  15 H :    0.020256
  16 S :    0.383824
  17 C :   -0.188655
  18 C :   -0.072652
  19 C :   -0.061218
  20 C :   -0.194310
  21 H :    0.034390
  22 C :   -0.034713
  23 H :    0.026795
  24 H :    0.037415
  25 C :   -0.042379
  26 H :    0.026125
  27 H :    0.024356
  28 C :   -0.068395
  29 H :    0.031529
  30 H :    0.028105
  31 H :    0.025739
  32 H :    0.033213
  33 H :    0.040695

  Mayer bond orders larger than 0.100000
B(  0-S ,  1-C ) :   1.1190 B(  0-S ,  4-C ) :   1.1497 B(  1-C ,  2-C ) :   1.6072
B(  1-C , 32-H ) :   0.9687 B(  2-C ,  3-C ) :   1.2236 B(  2-C ,  6-C ) :   1.0350
B(  3-C ,  4-C ) :   1.5818 B(  3-C ,  5-H ) :   0.9837 B(  4-C , 20-C ) :   1.0280
B(  6-C ,  7-H ) :   0.9423 B(  6-C ,  8-H ) :   0.9449 B(  6-C ,  9-C ) :   1.0455
B(  9-C , 10-H ) :   0.9647 B(  9-C , 11-H ) :   0.9591 B(  9-C , 12-C ) :   1.0657
B( 12-C , 13-H ) :   0.9767 B( 12-C , 14-H ) :   0.9763 B( 12-C , 15-H ) :   0.9812
B( 16-S , 17-C ) :   1.1278 B( 16-S , 20-C ) :   1.1226 B( 17-C , 18-C ) :   1.6338
B( 17-C , 33-H ) :   0.9635 B( 18-C , 19-C ) :   1.2340 B( 18-C , 21-H ) :   0.9763
B( 19-C , 20-C ) :   1.6106 B( 19-C , 22-C ) :   1.0462 B( 22-C , 23-H ) :   0.9330
B( 22-C , 24-H ) :   0.9313 B( 22-C , 25-C ) :   1.0561 B( 25-C , 26-H ) :   0.9444
B( 25-C , 27-H ) :   0.9653 B( 25-C , 28-C ) :   1.0854 B( 28-C , 29-H ) :   0.9751
B( 28-C , 30-H ) :   0.9761 B( 28-C , 31-H ) :   0.9738

Dispersion correction           -0.013918230
FINAL SINGLE POINT ENERGY     -1339.872961056475

DIPOLE MOMENT
-------------
                                X             Y             Z
Electronic contribution:     11.84406      26.80438      -8.70793
Nuclear contribution   :    -12.27647     -27.45307       8.68697
                        -----------------------------------------
Total Dipole Moment    :     -0.43240      -0.64869      -0.02095
                        -----------------------------------------
Magnitude (a.u.)       :      0.77988
Magnitude (Debye)      :      1.98229

Rotational constants in cm-1:     0.017210     0.008991     0.006466
Rotational constants in MHz :   515.940843   269.540459   193.842912

                             ****ORCA TERMINATED NORMALLY****
TOTAL RUN TIME: 0 days 0 hours 0 minutes 20 seconds 184 msec
