                         Program Version 4.2.1 -  RELEASE  -
|  1> ! wB97X-D3 SP def2-SVP
|  2> %pal
|  3> nprocs 24
|  4> end
|  5>
|  6> * xyz 0 1
|  7> S 	 -140.871 	 23.5999 	 -21.1896
|  8> C 	 -141.701 	 22.1987 	 -20.6895
|  9> C 	 -142.848 	 22.5135 	 -19.9863
| 10> C 	 -142.984 	 23.9222 	 -19.8289
| 11> C 	 -141.942 	 24.6549 	 -20.3476
| 12> H 	 -143.752 	 24.5046 	 -19.3521
| 13> C 	 -143.826 	 21.5204 	 -19.3781
| 14> H 	 -144.251 	 21.8396 	 -18.437
| 15> H 	 -143.196 	 20.6194 	 -19.0913
| 16> C 	 -144.857 	 21.0678 	 -20.4497
| 17> H 	 -145.409 	 21.9955 	 -20.5975
| 18> H 	 -144.245 	 20.8786 	 -21.3346
| 19> C 	 -145.762 	 19.8711 	 -19.9793
| 20> H 	 -145.176 	 18.9051 	 -20.0273
| 21> H 	 -146.18 	 19.9125 	 -18.9988
| 22> H 	 -146.623 	 19.8377 	 -20.6326
| 23> S 	 -141.605 	 26.7519 	 -22.1032
| 24> C 	 -141.702 	 28.3767 	 -21.4742
| 25> C 	 -141.796 	 28.4252 	 -20.1088
| 26> C 	 -141.909 	 27.1174 	 -19.5453
| 27> C 	 -141.824 	 26.111 	 -20.4553
| 28> H 	 -141.602 	 29.3547 	 -19.5745
| 29> C 	 -141.996 	 26.7318 	 -18.039
| 30> H 	 -141.667 	 25.7509 	 -17.8762
| 31> H 	 -143.017 	 26.8127 	 -17.8823
| 32> C 	 -141.306 	 27.6694 	 -17.091
| 33> H 	 -141.744 	 28.6878 	 -17.1899
| 34> H 	 -140.333 	 27.8419 	 -17.4424
| 35> C 	 -141.388 	 27.228 	 -15.5316
| 36> H 	 -140.979 	 27.9752 	 -14.8588
| 37> H 	 -140.731 	 26.429 	 -15.2822
| 38> H 	 -142.427 	 26.9688 	 -15.3114
| 39> H 	 -141.253 	 21.2086 	 -20.8885
| 40> H 	 -141.479 	 29.2544 	 -22.1159
| 41> *
| 42>
| 43>                          ****END OF INPUT****

CARTESIAN COORDINATES (ANGSTROEM)
---------------------------------
  S    -140.871000   23.599900  -21.189600
  C    -141.701000   22.198700  -20.689500
  C    -142.848000   22.513500  -19.986300
  C    -142.984000   23.922200  -19.828900
  C    -141.942000   24.654900  -20.347600
  H    -143.752000   24.504600  -19.352100
  C    -143.826000   21.520400  -19.378100
  H    -144.251000   21.839600  -18.437000
  H    -143.196000   20.619400  -19.091300
  C    -144.857000   21.067800  -20.449700
  H    -145.409000   21.995500  -20.597500
  H    -144.245000   20.878600  -21.334600
  C    -145.762000   19.871100  -19.979300
  H    -145.176000   18.905100  -20.027300
  H    -146.180000   19.912500  -18.998800
  H    -146.623000   19.837700  -20.632600
  S    -141.605000   26.751900  -22.103200
  C    -141.702000   28.376700  -21.474200
  C    -141.796000   28.425200  -20.108800
  C    -141.909000   27.117400  -19.545300
  C    -141.824000   26.111000  -20.455300
  H    -141.602000   29.354700  -19.574500
  C    -141.996000   26.731800  -18.039000
  H    -141.667000   25.750900  -17.876200
  H    -143.017000   26.812700  -17.882300
  C    -141.306000   27.669400  -17.091000
  H    -141.744000   28.687800  -17.189900
  H    -140.333000   27.841900  -17.442400
  C    -141.388000   27.228000  -15.531600
  H    -140.979000   27.975200  -14.858800
  H    -140.731000   26.429000  -15.282200
  H    -142.427000   26.968800  -15.311400
  H    -141.253000   21.208600  -20.888500
  H    -141.479000   29.254400  -22.115900

 Total Charge           Charge          ....    0
 Multiplicity           Mult            ....    1
 Number of Electrons    NEL             ....  134
 Basis Dimension        Dim             ....  322

ORBITAL ENERGIES
----------------

  NO   OCC          E(Eh)            E(eV)
   0   2.0000     -88.963652     -2420.8241
   1   2.0000     -88.962259     -2420.7861
   2   2.0000     -10.324148      -280.9344
   3   2.0000     -10.323233      -280.9095
   4   2.0000     -10.318831      -280.7897
   5   2.0000     -10.314076      -280.6603
   6   2.0000     -10.302477      -280.3446
   7   2.0000     -10.302265      -280.3389
   8   2.0000     -10.295909      -280.1659
   9   2.0000     -10.293446      -280.0989
  10   2.0000     -10.290882      -280.0291
  11   2.0000     -10.290012      -280.0055
  12   2.0000     -10.286251      -279.9031
  13   2.0000     -10.283064      -279.8164
  14   2.0000     -10.282345      -279.7968
  15   2.0000     -10.280575      -279.7487
  16   2.0000      -8.079908      -219.8655
  17   2.0000      -8.076976      -219.7857
  18   2.0000      -6.038240      -164.3089
  19   2.0000      -6.035518      -164.2348
  20   2.0000      -6.034054      -164.1950
  21   2.0000      -6.031598      -164.1281
  22   2.0000      -6.030923      -164.1097
  23   2.0000      -6.027592      -164.0191
  24   2.0000      -1.012428       -27.5496
  25   2.0000      -0.988406       -26.8959
  26   2.0000      -0.907605       -24.6972
  27   2.0000      -0.907028       -24.6815
  28   2.0000      -0.869212       -23.6525
  29   2.0000      -0.849122       -23.1058
  30   2.0000      -0.841269       -22.8921
  31   2.0000      -0.815091       -22.1798
  32   2.0000      -0.784798       -21.3554
  33   2.0000      -0.773242       -21.0410
  34   2.0000      -0.709837       -19.3156
  35   2.0000      -0.700625       -19.0650
  36   2.0000      -0.694934       -18.9101
  37   2.0000      -0.658484       -17.9183
  38   2.0000      -0.646567       -17.5940
  39   2.0000      -0.615984       -16.7618
  40   2.0000      -0.596526       -16.2323
  41   2.0000      -0.573158       -15.5964
  42   2.0000      -0.569302       -15.4915
  43   2.0000      -0.553726       -15.0677
  44   2.0000      -0.527002       -14.3405
  45   2.0000      -0.520504       -14.1636
  46   2.0000      -0.517832       -14.0909
  47   2.0000      -0.509333       -13.8597
  48   2.0000      -0.504154       -13.7187
  49   2.0000      -0.495813       -13.4917
  50   2.0000      -0.486720       -13.2443
  51   2.0000      -0.481289       -13.0965
  52   2.0000      -0.473654       -12.8888
  53   2.0000      -0.466986       -12.7073
  54   2.0000      -0.461302       -12.5527
  55   2.0000      -0.451770       -12.2933
  56   2.0000      -0.448240       -12.1972
  57   2.0000      -0.440010       -11.9733
  58   2.0000      -0.434528       -11.8241
  59   2.0000      -0.423622       -11.5273
  60   2.0000      -0.419436       -11.4134
  61   2.0000      -0.418301       -11.3826
  62   2.0000      -0.409585       -11.1454
  63   2.0000      -0.349713        -9.5162
  64   2.0000      -0.331932        -9.0323
  65   2.0000      -0.329845        -8.9755
  66   2.0000      -0.293510        -7.9868
  67   0.0000       0.035230         0.9587
  68   0.0000       0.068774         1.8714
  69   0.0000       0.115774         3.1504
  70   0.0000       0.128780         3.5043
  71   0.0000       0.141385         3.8473

MULLIKEN ATOMIC CHARGES
-----------------------
   0 S :    0.112174
   1 C :   -0.137920
   2 C :   -0.077334
   3 C :    0.039374
   4 C :   -0.172755
   5 H :    0.004823
   6 C :    0.039843
   7 H :    0.024604
   8 H :    0.022733
   9 C :   -0.072333
  10 H :    0.028541
  11 H :    0.036860
  12 C :   -0.032509
  13 H :    0.041999
  14 H :    0.026757
  15 H :    0.035479
  16 S :    0.094688
  17 C :   -0.102251
  18 C :   -0.042643
  19 C :   -0.061159
  20 C :   -0.156856
  21 H :    0.028385
  22 C :    0.144580
  23 H :    0.028782
  24 H :    0.014143
  25 C :   -0.103891
  26 H :    0.026424
  27 H :    0.017192
  28 C :   -0.039118
  29 H :    0.031589
  30 H :    0.027785
  31 H :    0.038447
  32 H :    0.063495
  33 H :    0.070069
Sum of atomic charges:   -0.0000000

LOEWDIN ATOMIC CHARGES
----------------------
   0 S :    0.434519
   1 C :   -0.212645
   2 C :   -0.066059
   3 C :   -0.061936
   4 C :   -0.207070
   5 H :    0.030456
   6 C :   -0.034561
   7 H :    0.023658
   8 H :    0.030830
   9 C :   -0.036502
  10 H :    0.024188
  11 H :    0.027677
  12 C :   -0.068537
  13 H :    0.033756
  14 H :    0.021560
  15 H :    0.026680
  16 S :    0.385388
  17 C :   -0.182961
  18 C :   -0.079772
  19 C :   -0.051578
  20 C :   -0.189295
  21 H :    0.036140
  22 C :   -0.017992
  23 H :    0.025067
  24 H :    0.023651
  25 C :   -0.037303
  26 H :    0.023706
  27 H :    0.014088
  28 C :   -0.062341
  29 H :    0.028397
  30 H :    0.021903
  31 H :    0.027359
  32 H :    0.034191
  33 H :    0.035338

  Mayer bond orders larger than 0.100000
B(  0-S ,  1-C ) :   1.1658 B(  0-S ,  4-C ) :   1.1693 B(  1-C ,  2-C ) :   1.5729
B(  1-C , 32-H ) :   0.9689 B(  2-C ,  3-C ) :   1.2531 B(  2-C ,  6-C ) :   1.0181
B(  3-C ,  4-C ) :   1.5598 B(  3-C ,  5-H ) :   1.0002 B(  4-C , 20-C ) :   1.0176
B(  6-C ,  7-H ) :   0.9486 B(  6-C ,  8-H ) :   0.9445 B(  6-C ,  9-C ) :   1.0438
B(  9-C , 10-H ) :   0.9601 B(  9-C , 11-H ) :   0.9606 B(  9-C , 12-C ) :   1.0662
B( 12-C , 13-H ) :   0.9758 B( 12-C , 14-H ) :   0.9760 B( 12-C , 15-H ) :   0.9763
B( 16-S , 17-C ) :   1.1586 B( 16-S , 20-C ) :   1.1190 B( 17-C , 18-C ) :   1.6262
B( 17-C , 33-H ) :   0.9583 B( 18-C , 19-C ) :   1.2183 B( 18-C , 21-H ) :   0.9880
B( 19-C , 20-C ) :   1.6618 B( 19-C , 22-C ) :   1.0116 B( 22-C , 23-H ) :   0.9427
B( 22-C , 24-H ) :   0.9163 B( 22-C , 25-C ) :   1.0742 B( 25-C , 26-H ) :   0.9487
B( 25-C , 27-H ) :   0.9647 B( 25-C , 28-C ) :   1.0690 B( 28-C , 29-H ) :   0.9757
B( 28-C , 30-H ) :   0.9773 B( 28-C , 31-H ) :   0.9779

Dispersion correction           -0.013538197
FINAL SINGLE POINT ENERGY     -1339.877773523335

DIPOLE MOMENT
-------------
                                X             Y             Z
Electronic contribution:     12.51730       8.38995     -21.03958
Nuclear contribution   :    -12.72200      -8.44488      21.57542
                        -----------------------------------------
Total Dipole Moment    :     -0.20470      -0.05493       0.53584
                        -----------------------------------------
Magnitude (a.u.)       :      0.57623
Magnitude (Debye)      :      1.46467

Rotational constants in cm-1:     0.018303     0.007591     0.006164
Rotational constants in MHz :   548.723950   227.581022   184.788171

                             ****ORCA TERMINATED NORMALLY****
TOTAL RUN TIME: 0 days 0 hours 0 minutes 20 seconds 797 msec
