                         Program Version 4.2.1 -  RELEASE  -
|  1> ! wB97X-D3 SP def2-SVP
|  2> %pal
|  3> nprocs 24
|  4> end
|  5>
|  6> * xyz 0 1
|  7> S 	 -110.095 	 35.9001 	 -11.8642
|  8> C 	 -108.951 	 36.9402 	 -12.5968
|  9> C 	 -108.027 	 36.3516 	 -13.3533
| 10> C 	 -108.242 	 34.943 	 -13.3432
| 11> C 	 -109.285 	 34.5036 	 -12.5525
| 12> H 	 -107.65 	 34.201 	 -13.8849
| 13> C 	 -107.035 	 37.0816 	 -14.1988
| 14> H 	 -107.523 	 38.0187 	 -14.28
| 15> H 	 -106.913 	 36.5993 	 -15.1542
| 16> C 	 -105.605 	 37.2479 	 -13.5141
| 17> H 	 -105.693 	 37.6514 	 -12.4976
| 18> H 	 -105.126 	 36.2641 	 -13.4345
| 19> C 	 -104.625 	 38.0805 	 -14.3117
| 20> H 	 -103.581 	 38.1361 	 -13.8418
| 21> H 	 -104.465 	 37.7185 	 -15.3277
| 22> H 	 -104.969 	 39.1203 	 -14.4026
| 23> S 	 -111.466 	 32.7523 	 -12.6653
| 24> C 	 -111.207 	 31.0533 	 -12.3011
| 25> C 	 -109.952 	 30.8581 	 -11.8791
| 26> C 	 -109.23 	 32.0387 	 -11.8333
| 27> C 	 -109.829 	 33.1585 	 -12.3544
| 28> H 	 -109.476 	 30.0136 	 -11.5369
| 29> C 	 -107.783 	 31.9725 	 -11.3059
| 30> H 	 -107.799 	 31.3737 	 -10.4141
| 31> H 	 -107.437 	 32.923 	 -10.9937
| 32> C 	 -106.919 	 31.3781 	 -12.3859
| 33> H 	 -106.987 	 31.5993 	 -13.5019
| 34> H 	 -106.991 	 30.2864 	 -12.3645
| 35> C 	 -105.497 	 31.515 	 -12.0318
| 36> H 	 -105.142 	 32.5728 	 -11.9088
| 37> H 	 -104.841 	 31.1655 	 -12.8097
| 38> H 	 -105.235 	 31.0518 	 -11.0797
| 39> H 	 -108.977 	 38.029 	 -12.4159
| 40> H 	 -112.039 	 30.3186 	 -12.3131
| 41> *
| 42>
| 43>                          ****END OF INPUT****

CARTESIAN COORDINATES (ANGSTROEM)
---------------------------------
  S    -110.095000   35.900100  -11.864200
  C    -108.951000   36.940200  -12.596800
  C    -108.027000   36.351600  -13.353300
  C    -108.242000   34.943000  -13.343200
  C    -109.285000   34.503600  -12.552500
  H    -107.650000   34.201000  -13.884900
  C    -107.035000   37.081600  -14.198800
  H    -107.523000   38.018700  -14.280000
  H    -106.913000   36.599300  -15.154200
  C    -105.605000   37.247900  -13.514100
  H    -105.693000   37.651400  -12.497600
  H    -105.126000   36.264100  -13.434500
  C    -104.625000   38.080500  -14.311700
  H    -103.581000   38.136100  -13.841800
  H    -104.465000   37.718500  -15.327700
  H    -104.969000   39.120300  -14.402600
  S    -111.466000   32.752300  -12.665300
  C    -111.207000   31.053300  -12.301100
  C    -109.952000   30.858100  -11.879100
  C    -109.230000   32.038700  -11.833300
  C    -109.829000   33.158500  -12.354400
  H    -109.476000   30.013600  -11.536900
  C    -107.783000   31.972500  -11.305900
  H    -107.799000   31.373700  -10.414100
  H    -107.437000   32.923000  -10.993700
  C    -106.919000   31.378100  -12.385900
  H    -106.987000   31.599300  -13.501900
  H    -106.991000   30.286400  -12.364500
  C    -105.497000   31.515000  -12.031800
  H    -105.142000   32.572800  -11.908800
  H    -104.841000   31.165500  -12.809700
  H    -105.235000   31.051800  -11.079700
  H    -108.977000   38.029000  -12.415900
  H    -112.039000   30.318600  -12.313100

 Total Charge           Charge          ....    0
 Multiplicity           Mult            ....    1
 Number of Electrons    NEL             ....  134
 Basis Dimension        Dim             ....  322

ORBITAL ENERGIES
----------------

  NO   OCC          E(Eh)            E(eV)
   0   2.0000     -88.962492     -2420.7925
   1   2.0000     -88.960720     -2420.7442
   2   2.0000     -10.328067      -281.0410
   3   2.0000     -10.319053      -280.7957
   4   2.0000     -10.317836      -280.7626
   5   2.0000     -10.306790      -280.4620
   6   2.0000     -10.293714      -280.1062
   7   2.0000     -10.292602      -280.0759
   8   2.0000     -10.292439      -280.0715
   9   2.0000     -10.291483      -280.0455
  10   2.0000     -10.290079      -280.0073
  11   2.0000     -10.285299      -279.8772
  12   2.0000     -10.284989      -279.8688
  13   2.0000     -10.283278      -279.8222
  14   2.0000     -10.279476      -279.7188
  15   2.0000     -10.271456      -279.5005
  16   2.0000      -8.078276      -219.8211
  17   2.0000      -8.076307      -219.7675
  18   2.0000      -6.036681      -164.2664
  19   2.0000      -6.034833      -164.2162
  20   2.0000      -6.032697      -164.1580
  21   2.0000      -6.030652      -164.1024
  22   2.0000      -6.029032      -164.0583
  23   2.0000      -6.027034      -164.0039
  24   2.0000      -1.014823       -27.6147
  25   2.0000      -0.996332       -27.1116
  26   2.0000      -0.919454       -25.0196
  27   2.0000      -0.911159       -24.7939
  28   2.0000      -0.874270       -23.7901
  29   2.0000      -0.854384       -23.2490
  30   2.0000      -0.850896       -23.1541
  31   2.0000      -0.820641       -22.3308
  32   2.0000      -0.782407       -21.2904
  33   2.0000      -0.769571       -20.9411
  34   2.0000      -0.704218       -19.1628
  35   2.0000      -0.696309       -18.9475
  36   2.0000      -0.695708       -18.9312
  37   2.0000      -0.670532       -18.2461
  38   2.0000      -0.643297       -17.5050
  39   2.0000      -0.619264       -16.8510
  40   2.0000      -0.603983       -16.4352
  41   2.0000      -0.577102       -15.7037
  42   2.0000      -0.565850       -15.3976
  43   2.0000      -0.557468       -15.1695
  44   2.0000      -0.539290       -14.6748
  45   2.0000      -0.523908       -14.2563
  46   2.0000      -0.520832       -14.1726
  47   2.0000      -0.509888       -13.8748
  48   2.0000      -0.508306       -13.8317
  49   2.0000      -0.501134       -13.6365
  50   2.0000      -0.491568       -13.3762
  51   2.0000      -0.480497       -13.0750
  52   2.0000      -0.472023       -12.8444
  53   2.0000      -0.466767       -12.7014
  54   2.0000      -0.462138       -12.5754
  55   2.0000      -0.449386       -12.2284
  56   2.0000      -0.444911       -12.1066
  57   2.0000      -0.439894       -11.9701
  58   2.0000      -0.431168       -11.7327
  59   2.0000      -0.427855       -11.6425
  60   2.0000      -0.423377       -11.5207
  61   2.0000      -0.414472       -11.2784
  62   2.0000      -0.403696       -10.9851
  63   2.0000      -0.348471        -9.4824
  64   2.0000      -0.331312        -9.0154
  65   2.0000      -0.328741        -8.9455
  66   2.0000      -0.296128        -8.0580
  67   0.0000       0.039422         1.0727
  68   0.0000       0.073940         2.0120
  69   0.0000       0.117409         3.1949
  70   0.0000       0.126532         3.4431
  71   0.0000       0.134578         3.6621

MULLIKEN ATOMIC CHARGES
-----------------------
   0 S :    0.113989
   1 C :   -0.139966
   2 C :   -0.075262
   3 C :    0.031147
   4 C :   -0.173166
   5 H :    0.004056
   6 C :    0.107851
   7 H :    0.010604
   8 H :    0.026321
   9 C :   -0.079387
  10 H :    0.033958
  11 H :    0.030227
  12 C :   -0.064819
  13 H :    0.045283
  14 H :    0.027770
  15 H :    0.028573
  16 S :    0.097825
  17 C :   -0.091105
  18 C :    0.036537
  19 C :   -0.075755
  20 C :   -0.144635
  21 H :   -0.022231
  22 C :    0.123435
  23 H :    0.019622
  24 H :    0.014616
  25 C :   -0.093069
  26 H :    0.050468
  27 H :    0.022019
  28 C :   -0.049679
  29 H :    0.019450
  30 H :    0.023405
  31 H :    0.021435
  32 H :    0.050432
  33 H :    0.070054
Sum of atomic charges:    0.0000000

LOEWDIN ATOMIC CHARGES
----------------------
   0 S :    0.412784
   1 C :   -0.202828
   2 C :   -0.074591
   3 C :   -0.056250
   4 C :   -0.189656
   5 H :    0.030482
   6 C :   -0.018341
   7 H :    0.027241
   8 H :    0.031469
   9 C :   -0.040421
  10 H :    0.026171
  11 H :    0.025058
  12 C :   -0.076187
  13 H :    0.035629
  14 H :    0.022148
  15 H :    0.022325
  16 S :    0.412561
  17 C :   -0.174545
  18 C :   -0.067395
  19 C :   -0.052679
  20 C :   -0.221690
  21 H :    0.020619
  22 C :   -0.017197
  23 H :    0.031560
  24 H :    0.022562
  25 C :   -0.054263
  26 H :    0.036624
  27 H :    0.027274
  28 C :   -0.070458
  29 H :    0.021274
  30 H :    0.021396
  31 H :    0.021493
  32 H :    0.030786
  33 H :    0.037044

  Mayer bond orders larger than 0.100000
B(  0-S ,  1-C ) :   1.1493 B(  0-S ,  4-C ) :   1.1448 B(  1-C ,  2-C ) :   1.6419
B(  1-C , 32-H ) :   0.9527 B(  2-C ,  3-C ) :   1.2275 B(  2-C ,  6-C ) :   1.0194
B(  3-C ,  4-C ) :   1.6019 B(  3-C ,  5-H ) :   0.9955 B(  4-C , 20-C ) :   1.0237
B(  6-C ,  7-H ) :   0.9376 B(  6-C ,  8-H ) :   0.9382 B(  6-C ,  9-C ) :   1.0551
B(  9-C , 10-H ) :   0.9574 B(  9-C , 11-H ) :   0.9568 B(  9-C , 12-C ) :   1.0886
B( 12-C , 13-H ) :   0.9729 B( 12-C , 14-H ) :   0.9719 B( 12-C , 15-H ) :   0.9748
B( 16-S , 17-C ) :   1.1660 B( 16-S , 20-C ) :   1.1365 B( 17-C , 18-C ) :   1.5484
B( 17-C , 33-H ) :   0.9661 B( 18-C , 19-C ) :   1.2901 B( 18-C , 21-H ) :   1.0058
B( 19-C , 20-C ) :   1.5926 B( 19-C , 22-C ) :   1.0421 B( 22-C , 23-H ) :   0.9242
B( 22-C , 24-H ) :   0.9409 B( 22-C , 25-C ) :   1.0578 B( 25-C , 26-H ) :   0.9589
B( 25-C , 27-H ) :   0.9425 B( 25-C , 28-C ) :   1.1008 B( 28-C , 29-H ) :   0.9710
B( 28-C , 30-H ) :   0.9711 B( 28-C , 31-H ) :   0.9674

Dispersion correction           -0.014026865
FINAL SINGLE POINT ENERGY     -1339.876248679202

DIPOLE MOMENT
-------------
                                X             Y             Z
Electronic contribution:    -31.79954      -2.21731       4.81137
Nuclear contribution   :     32.44934       2.05899      -4.87022
                        -----------------------------------------
Total Dipole Moment    :      0.64980      -0.15832      -0.05884
                        -----------------------------------------
Magnitude (a.u.)       :      0.67140
Magnitude (Debye)      :      1.70655

Rotational constants in cm-1:     0.019212     0.008613     0.006369
Rotational constants in MHz :   575.969760   258.206941   190.932165

                             ****ORCA TERMINATED NORMALLY****
TOTAL RUN TIME: 0 days 0 hours 0 minutes 21 seconds 900 msec
