                         Program Version 4.2.1 -  RELEASE  -
|  1> ! wB97X-D3 SP def2-SVP
|  2> %pal
|  3> nprocs 24
|  4> end
|  5>
|  6> * xyz 0 1
|  7> S 	 -38.9173 	 8.93197 	 31.1768
|  8> C 	 -39.5895 	 9.2621 	 32.7773
|  9> C 	 -39.5084 	 8.14081 	 33.5909
| 10> C 	 -39.2543 	 6.95014 	 32.7712
| 11> C 	 -39.0677 	 7.24056 	 31.4652
| 12> H 	 -39.2373 	 5.97992 	 33.2443
| 13> C 	 -39.9493 	 8.14645 	 35.0691
| 14> H 	 -39.6259 	 9.10061 	 35.5702
| 15> H 	 -39.2342 	 7.43169 	 35.474
| 16> C 	 -41.4277 	 7.8482 	 35.3309
| 17> H 	 -42.0396 	 8.57875 	 34.7745
| 18> H 	 -41.6352 	 6.81546 	 35.0153
| 19> C 	 -41.8082 	 8.02164 	 36.7014
| 20> H 	 -41.4861 	 9.02822 	 36.9689
| 21> H 	 -42.9122 	 7.80875 	 36.7194
| 22> H 	 -41.182 	 7.44468 	 37.453
| 23> S 	 -37.2459 	 6.29934 	 29.6336
| 24> C 	 -37.5852 	 4.85174 	 28.7509
| 25> C 	 -38.707 	 4.22657 	 29.2225
| 26> C 	 -39.3638 	 4.91306 	 30.2778
| 27> C 	 -38.7542 	 6.15696 	 30.5035
| 28> H 	 -39.1434 	 3.38692 	 28.7091
| 29> C 	 -40.697 	 4.38131 	 30.8598
| 30> H 	 -41.5706 	 4.58681 	 30.1454
| 31> H 	 -40.8739 	 5.04246 	 31.7102
| 32> C 	 -40.7447 	 2.91561 	 31.4108
| 33> H 	 -40.6985 	 2.2387 	 30.5275
| 34> H 	 -41.6795 	 2.68106 	 31.9575
| 35> C 	 -39.5883 	 2.56267 	 32.4183
| 36> H 	 -39.9738 	 2.23692 	 33.3903
| 37> H 	 -38.9607 	 3.39927 	 32.7524
| 38> H 	 -38.9578 	 1.74691 	 31.9554
| 39> H 	 -39.829 	 10.2453 	 33.1866
| 40> H 	 -36.8617 	 4.51373 	 28.0222
| 41> *
| 42>
| 43>                          ****END OF INPUT****

CARTESIAN COORDINATES (ANGSTROEM)
---------------------------------
  S    -38.917300    8.931970   31.176800
  C    -39.589500    9.262100   32.777300
  C    -39.508400    8.140810   33.590900
  C    -39.254300    6.950140   32.771200
  C    -39.067700    7.240560   31.465200
  H    -39.237300    5.979920   33.244300
  C    -39.949300    8.146450   35.069100
  H    -39.625900    9.100610   35.570200
  H    -39.234200    7.431690   35.474000
  C    -41.427700    7.848200   35.330900
  H    -42.039600    8.578750   34.774500
  H    -41.635200    6.815460   35.015300
  C    -41.808200    8.021640   36.701400
  H    -41.486100    9.028220   36.968900
  H    -42.912200    7.808750   36.719400
  H    -41.182000    7.444680   37.453000
  S    -37.245900    6.299340   29.633600
  C    -37.585200    4.851740   28.750900
  C    -38.707000    4.226570   29.222500
  C    -39.363800    4.913060   30.277800
  C    -38.754200    6.156960   30.503500
  H    -39.143400    3.386920   28.709100
  C    -40.697000    4.381310   30.859800
  H    -41.570600    4.586810   30.145400
  H    -40.873900    5.042460   31.710200
  C    -40.744700    2.915610   31.410800
  H    -40.698500    2.238700   30.527500
  H    -41.679500    2.681060   31.957500
  C    -39.588300    2.562670   32.418300
  H    -39.973800    2.236920   33.390300
  H    -38.960700    3.399270   32.752400
  H    -38.957800    1.746910   31.955400
  H    -39.829000   10.245300   33.186600
  H    -36.861700    4.513730   28.022200

 Total Charge           Charge          ....    0
 Multiplicity           Mult            ....    1
 Number of Electrons    NEL             ....  134
 Basis Dimension        Dim             ....  322

ORBITAL ENERGIES
----------------

  NO   OCC          E(Eh)            E(eV)
   0   2.0000     -88.967485     -2420.9283
   1   2.0000     -88.962989     -2420.8060
   2   2.0000     -10.328867      -281.0628
   3   2.0000     -10.326292      -280.9927
   4   2.0000     -10.314701      -280.6773
   5   2.0000     -10.312376      -280.6140
   6   2.0000     -10.305101      -280.4160
   7   2.0000     -10.303506      -280.3727
   8   2.0000     -10.300070      -280.2791
   9   2.0000     -10.298291      -280.2307
  10   2.0000     -10.297735      -280.2156
  11   2.0000     -10.293487      -280.1000
  12   2.0000     -10.289083      -279.9802
  13   2.0000     -10.285119      -279.8723
  14   2.0000     -10.283512      -279.8286
  15   2.0000     -10.281501      -279.7739
  16   2.0000      -8.082438      -219.9343
  17   2.0000      -8.078549      -219.8285
  18   2.0000      -6.041053      -164.3854
  19   2.0000      -6.037171      -164.2798
  20   2.0000      -6.036868      -164.2715
  21   2.0000      -6.033003      -164.1663
  22   2.0000      -6.032806      -164.1610
  23   2.0000      -6.029421      -164.0689
  24   2.0000      -1.008332       -27.4381
  25   2.0000      -0.985468       -26.8159
  26   2.0000      -0.923055       -25.1176
  27   2.0000      -0.897632       -24.4258
  28   2.0000      -0.871473       -23.7140
  29   2.0000      -0.852547       -23.1990
  30   2.0000      -0.843815       -22.9614
  31   2.0000      -0.812490       -22.1090
  32   2.0000      -0.779946       -21.2234
  33   2.0000      -0.770202       -20.9583
  34   2.0000      -0.702117       -19.1056
  35   2.0000      -0.693165       -18.8620
  36   2.0000      -0.691418       -18.8144
  37   2.0000      -0.656758       -17.8713
  38   2.0000      -0.636055       -17.3079
  39   2.0000      -0.622387       -16.9360
  40   2.0000      -0.595194       -16.1960
  41   2.0000      -0.573369       -15.6022
  42   2.0000      -0.563602       -15.3364
  43   2.0000      -0.544434       -14.8148
  44   2.0000      -0.541798       -14.7431
  45   2.0000      -0.539539       -14.6816
  46   2.0000      -0.518983       -14.1223
  47   2.0000      -0.506104       -13.7718
  48   2.0000      -0.501577       -13.6486
  49   2.0000      -0.495805       -13.4915
  50   2.0000      -0.491133       -13.3644
  51   2.0000      -0.474597       -12.9144
  52   2.0000      -0.469723       -12.7818
  53   2.0000      -0.465741       -12.6735
  54   2.0000      -0.456874       -12.4322
  55   2.0000      -0.443680       -12.0731
  56   2.0000      -0.440071       -11.9750
  57   2.0000      -0.437889       -11.9156
  58   2.0000      -0.431271       -11.7355
  59   2.0000      -0.424960       -11.5637
  60   2.0000      -0.421815       -11.4782
  61   2.0000      -0.411700       -11.2029
  62   2.0000      -0.409691       -11.1483
  63   2.0000      -0.347623        -9.4593
  64   2.0000      -0.331419        -9.0184
  65   2.0000      -0.328319        -8.9340
  66   2.0000      -0.291853        -7.9417
  67   0.0000       0.032150         0.8748
  68   0.0000       0.069699         1.8966
  69   0.0000       0.106507         2.8982
  70   0.0000       0.121792         3.3141
  71   0.0000       0.128485         3.4963

MULLIKEN ATOMIC CHARGES
-----------------------
   0 S :    0.115451
   1 C :   -0.118133
   2 C :   -0.102726
   3 C :    0.021477
   4 C :   -0.118226
   5 H :    0.009092
   6 C :    0.015949
   7 H :    0.022586
   8 H :    0.025251
   9 C :   -0.031957
  10 H :    0.031400
  11 H :    0.026634
  12 C :   -0.038324
  13 H :    0.013653
  14 H :    0.055043
  15 H :    0.026663
  16 S :    0.098684
  17 C :   -0.096384
  18 C :   -0.017667
  19 C :   -0.045473
  20 C :   -0.159409
  21 H :    0.017627
  22 C :    0.041161
  23 H :    0.058168
  24 H :    0.015137
  25 C :   -0.084525
  26 H :    0.037303
  27 H :    0.043682
  28 C :   -0.091804
  29 H :    0.029238
  30 H :    0.043006
  31 H :    0.051565
  32 H :    0.046487
  33 H :    0.059371
Sum of atomic charges:    0.0000000

LOEWDIN ATOMIC CHARGES
----------------------
   0 S :    0.403212
   1 C :   -0.191679
   2 C :   -0.058846
   3 C :   -0.060801
   4 C :   -0.203802
   5 H :    0.028174
   6 C :   -0.039062
   7 H :    0.031341
   8 H :    0.030652
   9 C :   -0.046709
  10 H :    0.031710
  11 H :    0.025191
  12 C :   -0.071645
  13 H :    0.022013
  14 H :    0.038927
  15 H :    0.027811
  16 S :    0.410545
  17 C :   -0.189123
  18 C :   -0.070810
  19 C :   -0.062294
  20 C :   -0.187818
  21 H :    0.030615
  22 C :   -0.038605
  23 H :    0.042925
  24 H :    0.025060
  25 C :   -0.045155
  26 H :    0.023329
  27 H :    0.031179
  28 C :   -0.079486
  29 H :    0.024848
  30 H :    0.026051
  31 H :    0.037070
  32 H :    0.028433
  33 H :    0.026749

  Mayer bond orders larger than 0.100000
B(  0-S ,  1-C ) :   1.1221 B(  0-S ,  4-C ) :   1.1419 B(  1-C ,  2-C ) :   1.6336
B(  1-C , 32-H ) :   0.9685 B(  2-C ,  3-C ) :   1.2174 B(  2-C ,  6-C ) :   1.0292
B(  3-C ,  4-C ) :   1.5768 B(  3-C ,  5-H ) :   0.9977 B(  4-C , 20-C ) :   1.0180
B(  6-C ,  7-H ) :   0.9414 B(  6-C ,  8-H ) :   0.9329 B(  6-C ,  9-C ) :   1.0665
B(  9-C , 10-H ) :   0.9502 B(  9-C , 11-H ) :   0.9473 B(  9-C , 12-C ) :   1.0954
B( 12-C , 13-H ) :   0.9674 B( 12-C , 14-H ) :   0.9694 B( 12-C , 15-H ) :   0.9681
B( 16-S , 17-C ) :   1.1554 B( 16-S , 20-C ) :   1.1672 B( 17-C , 18-C ) :   1.5960
B( 17-C , 33-H ) :   0.9716 B( 18-C , 19-C ) :   1.2469 B( 18-C , 21-H ) :   0.9944
B( 19-C , 20-C ) :   1.5966 B( 19-C , 22-C ) :   1.0307 B( 22-C , 23-H ) :   0.9429
B( 22-C , 24-H ) :   0.9352 B( 22-C , 25-C ) :   1.0647 B( 25-C , 26-H ) :   0.9651
B( 25-C , 27-H ) :   0.9653 B( 25-C , 28-C ) :   1.0437 B( 28-C , 29-H ) :   0.9807
B( 28-C , 30-H ) :   0.9803 B( 28-C , 31-H ) :   0.9781

Dispersion correction           -0.014335930
FINAL SINGLE POINT ENERGY     -1339.864203695875

DIPOLE MOMENT
-------------
                                X             Y             Z
Electronic contribution:     16.36932      13.02084     -22.70294
Nuclear contribution   :    -16.70678     -13.35250      23.20291
                        -----------------------------------------
Total Dipole Moment    :     -0.33745      -0.33166       0.49997
                        -----------------------------------------
Magnitude (a.u.)       :      0.68836
Magnitude (Debye)      :      1.74968

Rotational constants in cm-1:     0.018340     0.008945     0.006456
Rotational constants in MHz :   549.809980   268.159614   193.554034

                             ****ORCA TERMINATED NORMALLY****
TOTAL RUN TIME: 0 days 0 hours 0 minutes 21 seconds 666 msec
