                         Program Version 4.2.1 -  RELEASE  -
|  1> ! wB97X-D3 SP def2-SVP
|  2> %pal
|  3> nprocs 24
|  4> end
|  5>
|  6> * xyz 0 1
|  7> S 	 -75.3823 	 -3.10194 	 11.8675
|  8> C 	 -76.1676 	 -2.10876 	 10.7524
|  9> C 	 -77.1038 	 -1.21061 	 11.2819
| 10> C 	 -77.1888 	 -1.38735 	 12.7294
| 11> C 	 -76.279 	 -2.35607 	 13.1924
| 12> H 	 -77.8195 	 -0.856111 	 13.3811
| 13> C 	 -77.9328 	 -0.250734 	 10.5233
| 14> H 	 -77.488 	 -0.168969 	 9.50513
| 15> H 	 -77.9746 	 0.714388 	 11.074
| 16> C 	 -79.4135 	 -0.678861 	 10.346
| 17> H 	 -79.7856 	 0.148053 	 9.74319
| 18> H 	 -79.5172 	 -1.54696 	 9.63338
| 19> C 	 -80.2715 	 -0.958238 	 11.638
| 20> H 	 -80.4228 	 -0.161659 	 12.4317
| 21> H 	 -81.1429 	 -1.38809 	 11.2519
| 22> H 	 -79.8705 	 -1.83929 	 12.1521
| 23> S 	 -76.3826 	 -4.63823 	 14.8861
| 24> C 	 -76.407 	 -4.25376 	 16.6119
| 25> C 	 -75.9795 	 -3.01882 	 16.8683
| 26> C 	 -75.6652 	 -2.20564 	 15.6837
| 27> C 	 -76.0973 	 -2.90151 	 14.5389
| 28> H 	 -75.9871 	 -2.67673 	 17.8645
| 29> C 	 -75.4734 	 -0.666875 	 15.939
| 30> H 	 -75.6889 	 -0.546181 	 17.0341
| 31> H 	 -76.1491 	 -0.157475 	 15.2753
| 32> C 	 -74.0498 	 -0.18304 	 15.8433
| 33> H 	 -73.6269 	 -0.607153 	 16.7446
| 34> H 	 -73.9584 	 0.881187 	 15.9396
| 35> C 	 -73.1737 	 -0.727308 	 14.6434
| 36> H 	 -72.2126 	 -0.220499 	 14.7181
| 37> H 	 -73.5832 	 -0.432716 	 13.6139
| 38> H 	 -73.1701 	 -1.74245 	 14.6088
| 39> H 	 -76.1171 	 -2.21775 	 9.71349
| 40> H 	 -76.6758 	 -4.96606 	 17.4649
| 41> *
| 42>
| 43>                          ****END OF INPUT****

CARTESIAN COORDINATES (ANGSTROEM)
---------------------------------
  S    -75.382300   -3.101940   11.867500
  C    -76.167600   -2.108760   10.752400
  C    -77.103800   -1.210610   11.281900
  C    -77.188800   -1.387350   12.729400
  C    -76.279000   -2.356070   13.192400
  H    -77.819500   -0.856111   13.381100
  C    -77.932800   -0.250734   10.523300
  H    -77.488000   -0.168969    9.505130
  H    -77.974600    0.714388   11.074000
  C    -79.413500   -0.678861   10.346000
  H    -79.785600    0.148053    9.743190
  H    -79.517200   -1.546960    9.633380
  C    -80.271500   -0.958238   11.638000
  H    -80.422800   -0.161659   12.431700
  H    -81.142900   -1.388090   11.251900
  H    -79.870500   -1.839290   12.152100
  S    -76.382600   -4.638230   14.886100
  C    -76.407000   -4.253760   16.611900
  C    -75.979500   -3.018820   16.868300
  C    -75.665200   -2.205640   15.683700
  C    -76.097300   -2.901510   14.538900
  H    -75.987100   -2.676730   17.864500
  C    -75.473400   -0.666875   15.939000
  H    -75.688900   -0.546181   17.034100
  H    -76.149100   -0.157475   15.275300
  C    -74.049800   -0.183040   15.843300
  H    -73.626900   -0.607153   16.744600
  H    -73.958400    0.881187   15.939600
  C    -73.173700   -0.727308   14.643400
  H    -72.212600   -0.220499   14.718100
  H    -73.583200   -0.432716   13.613900
  H    -73.170100   -1.742450   14.608800
  H    -76.117100   -2.217750    9.713490
  H    -76.675800   -4.966060   17.464900

 Total Charge           Charge          ....    0
 Multiplicity           Mult            ....    1
 Number of Electrons    NEL             ....  134
 Basis Dimension        Dim             ....  322

ORBITAL ENERGIES
----------------

  NO   OCC          E(Eh)            E(eV)
   0   2.0000     -88.966983     -2420.9147
   1   2.0000     -88.964847     -2420.8566
   2   2.0000     -10.332736      -281.1680
   3   2.0000     -10.330599      -281.1099
   4   2.0000     -10.317386      -280.7503
   5   2.0000     -10.309945      -280.5479
   6   2.0000     -10.305446      -280.4254
   7   2.0000     -10.300238      -280.2837
   8   2.0000     -10.298063      -280.2245
   9   2.0000     -10.296504      -280.1821
  10   2.0000     -10.295663      -280.1592
  11   2.0000     -10.295638      -280.1586
  12   2.0000     -10.287212      -279.9293
  13   2.0000     -10.282514      -279.8014
  14   2.0000     -10.280135      -279.7367
  15   2.0000     -10.268817      -279.4287
  16   2.0000      -8.082502      -219.9361
  17   2.0000      -8.078855      -219.8368
  18   2.0000      -6.040894      -164.3811
  19   2.0000      -6.037591      -164.2912
  20   2.0000      -6.036849      -164.2710
  21   2.0000      -6.033741      -164.1864
  22   2.0000      -6.033419      -164.1777
  23   2.0000      -6.029123      -164.0608
  24   2.0000      -1.001317       -27.2472
  25   2.0000      -0.979935       -26.6654
  26   2.0000      -0.909917       -24.7601
  27   2.0000      -0.903658       -24.5898
  28   2.0000      -0.866626       -23.5821
  29   2.0000      -0.846532       -23.0353
  30   2.0000      -0.837718       -22.7955
  31   2.0000      -0.814580       -22.1659
  32   2.0000      -0.786180       -21.3930
  33   2.0000      -0.773247       -21.0411
  34   2.0000      -0.707354       -19.2481
  35   2.0000      -0.699577       -19.0365
  36   2.0000      -0.683930       -18.6107
  37   2.0000      -0.655328       -17.8324
  38   2.0000      -0.642340       -17.4790
  39   2.0000      -0.612446       -16.6655
  40   2.0000      -0.586028       -15.9466
  41   2.0000      -0.571741       -15.5579
  42   2.0000      -0.558307       -15.1923
  43   2.0000      -0.545635       -14.8475
  44   2.0000      -0.536910       -14.6101
  45   2.0000      -0.531777       -14.4704
  46   2.0000      -0.522381       -14.2147
  47   2.0000      -0.503858       -13.7107
  48   2.0000      -0.499110       -13.5815
  49   2.0000      -0.491296       -13.3688
  50   2.0000      -0.488345       -13.2885
  51   2.0000      -0.477874       -13.0036
  52   2.0000      -0.473877       -12.8948
  53   2.0000      -0.463629       -12.6160
  54   2.0000      -0.458714       -12.4822
  55   2.0000      -0.450029       -12.2459
  56   2.0000      -0.440912       -11.9978
  57   2.0000      -0.436564       -11.8795
  58   2.0000      -0.430925       -11.7261
  59   2.0000      -0.423864       -11.5339
  60   2.0000      -0.415304       -11.3010
  61   2.0000      -0.413489       -11.2516
  62   2.0000      -0.410577       -11.1724
  63   2.0000      -0.342018        -9.3068
  64   2.0000      -0.329462        -8.9651
  65   2.0000      -0.324188        -8.8216
  66   2.0000      -0.293950        -7.9988
  67   0.0000       0.031955         0.8695
  68   0.0000       0.062515         1.7011
  69   0.0000       0.107714         2.9310
  70   0.0000       0.114756         3.1227
  71   0.0000       0.129361         3.5201

MULLIKEN ATOMIC CHARGES
-----------------------
   0 S :    0.123898
   1 C :   -0.082396
   2 C :   -0.110425
   3 C :    0.060819
   4 C :   -0.181032
   5 H :   -0.002531
   6 C :    0.056494
   7 H :    0.029144
   8 H :    0.038328
   9 C :   -0.098701
  10 H :    0.030571
  11 H :    0.031445
  12 C :   -0.049044
  13 H :    0.054639
  14 H :    0.021837
  15 H :    0.039375
  16 S :    0.102838
  17 C :   -0.106700
  18 C :   -0.024712
  19 C :   -0.033028
  20 C :   -0.169946
  21 H :    0.005806
  22 C :    0.083685
  23 H :    0.029260
  24 H :    0.027108
  25 C :   -0.076639
  26 H :    0.014386
  27 H :    0.028691
  28 C :   -0.034245
  29 H :    0.036508
  30 H :    0.033970
  31 H :    0.024017
  32 H :    0.020052
  33 H :    0.076527
Sum of atomic charges:    0.0000000

LOEWDIN ATOMIC CHARGES
----------------------
   0 S :    0.428265
   1 C :   -0.212799
   2 C :   -0.062644
   3 C :   -0.046593
   4 C :   -0.191447
   5 H :    0.021596
   6 C :   -0.040802
   7 H :    0.037388
   8 H :    0.037610
   9 C :   -0.040376
  10 H :    0.022376
  11 H :    0.029398
  12 C :   -0.075867
  13 H :    0.033837
  14 H :    0.023542
  15 H :    0.031597
  16 S :    0.366862
  17 C :   -0.187819
  18 C :   -0.073594
  19 C :   -0.046129
  20 C :   -0.189539
  21 H :    0.023514
  22 C :   -0.022960
  23 H :    0.038041
  24 H :    0.023584
  25 C :   -0.041010
  26 H :    0.021949
  27 H :    0.021390
  28 C :   -0.059751
  29 H :    0.027543
  30 H :    0.031958
  31 H :    0.008230
  32 H :    0.014743
  33 H :    0.047910

  Mayer bond orders larger than 0.100000
B(  0-S ,  1-C ) :   1.1552 B(  0-S ,  4-C ) :   1.1547 B(  1-C ,  2-C ) :   1.6104
B(  1-C , 32-H ) :   0.9633 B(  2-C ,  3-C ) :   1.2310 B(  2-C ,  6-C ) :   1.0444
B(  3-C ,  4-C ) :   1.5751 B(  3-C ,  5-H ) :   0.9949 B(  4-C , 20-C ) :   1.0470
B(  6-C ,  7-H ) :   0.9347 B(  6-C ,  8-H ) :   0.9355 B(  6-C ,  9-C ) :   1.0715
B(  9-C , 10-H ) :   0.9586 B(  9-C , 11-H ) :   0.9542 B(  9-C , 12-C ) :   1.0703
B( 12-C , 13-H ) :   0.9750 B( 12-C , 14-H ) :   0.9678 B( 12-C , 15-H ) :   0.9643
B( 16-S , 17-C ) :   1.1085 B( 16-S , 20-C ) :   1.1181 B( 17-C , 18-C ) :   1.7101
B( 17-C , 33-H ) :   0.9513 B( 18-C , 19-C ) :   1.1726 B( 18-C , 21-H ) :   0.9857
B( 19-C , 20-C ) :   1.6140 B( 19-C , 22-C ) :   1.0229 B( 22-C , 23-H ) :   0.9498
B( 22-C , 24-H ) :   0.9406 B( 22-C , 25-C ) :   1.0608 B( 25-C , 26-H ) :   0.9546
B( 25-C , 27-H ) :   0.9582 B( 25-C , 28-C ) :   1.0846 B( 28-C , 29-H ) :   0.9755
B( 28-C , 30-H ) :   0.9754 B( 28-C , 31-H ) :   0.9705

Dispersion correction           -0.015357689
FINAL SINGLE POINT ENERGY     -1339.851992840173

DIPOLE MOMENT
-------------
                                X             Y             Z
Electronic contribution:      5.79203     -19.41508       1.60252
Nuclear contribution   :     -6.18048      19.91162      -1.48700
                        -----------------------------------------
Total Dipole Moment    :     -0.38845       0.49655       0.11552
                        -----------------------------------------
Magnitude (a.u.)       :      0.64093
Magnitude (Debye)      :      1.62912

Rotational constants in cm-1:     0.018817     0.008769     0.008074
Rotational constants in MHz :   564.128464   262.888533   242.051869

                             ****ORCA TERMINATED NORMALLY****
TOTAL RUN TIME: 0 days 0 hours 0 minutes 22 seconds 187 msec
