                         Program Version 4.2.1 -  RELEASE  -
|  1> ! wB97X-D3 SP def2-SVP
|  2> %pal
|  3> nprocs 24
|  4> end
|  5>
|  6> * xyz 0 1
|  7> S 	 -100.36 	 -1.98822 	 -105.528
|  8> C 	 -99.5655 	 -3.51982 	 -105.851
|  9> C 	 -100.442 	 -4.49318 	 -106.186
| 10> C 	 -101.813 	 -3.97717 	 -106.236
| 11> C 	 -101.973 	 -2.70834 	 -105.747
| 12> H 	 -102.654 	 -4.46169 	 -106.627
| 13> C 	 -100.077 	 -5.86021 	 -106.564
| 14> H 	 -99.0919 	 -6.08156 	 -106.25
| 15> H 	 -100.067 	 -5.72559 	 -107.613
| 16> C 	 -100.996 	 -7.05712 	 -106.175
| 17> H 	 -101.961 	 -6.70895 	 -106.503
| 18> H 	 -100.819 	 -7.87479 	 -106.779
| 19> C 	 -100.87 	 -7.57453 	 -104.719
| 20> H 	 -101.746 	 -8.24884 	 -104.561
| 21> H 	 -100.031 	 -8.261 	 -104.424
| 22> H 	 -100.976 	 -6.80571 	 -103.9
| 23> S 	 -102.993 	 -0.273326 	 -106.2
| 24> C 	 -104.733 	 0.00674026 	 -106.219
| 25> C 	 -105.418 	 -1.15246 	 -105.805
| 26> C 	 -104.537 	 -2.26711 	 -105.604
| 27> C 	 -103.209 	 -1.94775 	 -105.74
| 28> H 	 -106.485 	 -1.07042 	 -105.765
| 29> C 	 -105.15 	 -3.59397 	 -105.418
| 30> H 	 -105.729 	 -3.45111 	 -104.489
| 31> H 	 -104.392 	 -4.33441 	 -105.112
| 32> C 	 -105.993 	 -4.19046 	 -106.542
| 33> H 	 -105.323 	 -4.44937 	 -107.395
| 34> H 	 -106.611 	 -3.37489 	 -106.857
| 35> C 	 -106.898 	 -5.43293 	 -106.126
| 36> H 	 -106.181 	 -6.18447 	 -105.864
| 37> H 	 -107.429 	 -5.94164 	 -106.969
| 38> H 	 -107.676 	 -5.19906 	 -105.36
| 39> H 	 -98.4687 	 -3.61006 	 -105.73
| 40> H 	 -105.208 	 1.02355 	 -106.338
| 41> *
| 42>
| 43>                          ****END OF INPUT****

CARTESIAN COORDINATES (ANGSTROEM)
---------------------------------
  S    -100.360000   -1.988220  -105.528000
  C    -99.565500   -3.519820  -105.851000
  C    -100.442000   -4.493180  -106.186000
  C    -101.813000   -3.977170  -106.236000
  C    -101.973000   -2.708340  -105.747000
  H    -102.654000   -4.461690  -106.627000
  C    -100.077000   -5.860210  -106.564000
  H    -99.091900   -6.081560  -106.250000
  H    -100.067000   -5.725590  -107.613000
  C    -100.996000   -7.057120  -106.175000
  H    -101.961000   -6.708950  -106.503000
  H    -100.819000   -7.874790  -106.779000
  C    -100.870000   -7.574530  -104.719000
  H    -101.746000   -8.248840  -104.561000
  H    -100.031000   -8.261000  -104.424000
  H    -100.976000   -6.805710  -103.900000
  S    -102.993000   -0.273326  -106.200000
  C    -104.733000    0.006740  -106.219000
  C    -105.418000   -1.152460  -105.805000
  C    -104.537000   -2.267110  -105.604000
  C    -103.209000   -1.947750  -105.740000
  H    -106.485000   -1.070420  -105.765000
  C    -105.150000   -3.593970  -105.418000
  H    -105.729000   -3.451110  -104.489000
  H    -104.392000   -4.334410  -105.112000
  C    -105.993000   -4.190460  -106.542000
  H    -105.323000   -4.449370  -107.395000
  H    -106.611000   -3.374890  -106.857000
  C    -106.898000   -5.432930  -106.126000
  H    -106.181000   -6.184470  -105.864000
  H    -107.429000   -5.941640  -106.969000
  H    -107.676000   -5.199060  -105.360000
  H    -98.468700   -3.610060  -105.730000
  H    -105.208000    1.023550  -106.338000

 Total Charge           Charge          ....    0
 Multiplicity           Mult            ....    1
 Number of Electrons    NEL             ....  134
 Basis Dimension        Dim             ....  322

ORBITAL ENERGIES
----------------

  NO   OCC          E(Eh)            E(eV)
   0   2.0000     -88.963752     -2420.8268
   1   2.0000     -88.960758     -2420.7453
   2   2.0000     -10.330516      -281.1076
   3   2.0000     -10.327170      -281.0166
   4   2.0000     -10.324903      -280.9549
   5   2.0000     -10.312149      -280.6078
   6   2.0000     -10.303827      -280.3814
   7   2.0000     -10.300037      -280.2782
   8   2.0000     -10.297359      -280.2054
   9   2.0000     -10.294028      -280.1147
  10   2.0000     -10.290848      -280.0282
  11   2.0000     -10.290299      -280.0133
  12   2.0000     -10.289784      -279.9993
  13   2.0000     -10.289521      -279.9921
  14   2.0000     -10.288603      -279.9671
  15   2.0000     -10.283295      -279.8227
  16   2.0000      -8.078542      -219.8283
  17   2.0000      -8.075287      -219.7397
  18   2.0000      -6.037148      -164.2792
  19   2.0000      -6.034114      -164.1966
  20   2.0000      -6.033001      -164.1663
  21   2.0000      -6.029929      -164.0827
  22   2.0000      -6.029219      -164.0634
  23   2.0000      -6.025628      -163.9657
  24   2.0000      -1.007419       -27.4133
  25   2.0000      -0.983279       -26.7564
  26   2.0000      -0.915643       -24.9159
  27   2.0000      -0.909365       -24.7451
  28   2.0000      -0.871844       -23.7241
  29   2.0000      -0.850531       -23.1441
  30   2.0000      -0.842443       -22.9240
  31   2.0000      -0.817762       -22.2524
  32   2.0000      -0.781891       -21.2763
  33   2.0000      -0.774106       -21.0645
  34   2.0000      -0.717511       -19.5245
  35   2.0000      -0.704306       -19.1651
  36   2.0000      -0.692581       -18.8461
  37   2.0000      -0.666013       -18.1231
  38   2.0000      -0.640069       -17.4172
  39   2.0000      -0.625521       -17.0213
  40   2.0000      -0.594396       -16.1743
  41   2.0000      -0.565935       -15.3999
  42   2.0000      -0.560802       -15.2602
  43   2.0000      -0.558757       -15.2045
  44   2.0000      -0.542414       -14.7598
  45   2.0000      -0.522462       -14.2169
  46   2.0000      -0.520662       -14.1679
  47   2.0000      -0.511894       -13.9294
  48   2.0000      -0.505593       -13.7579
  49   2.0000      -0.499107       -13.5814
  50   2.0000      -0.491181       -13.3657
  51   2.0000      -0.481375       -13.0989
  52   2.0000      -0.474191       -12.9034
  53   2.0000      -0.464684       -12.6447
  54   2.0000      -0.458252       -12.4697
  55   2.0000      -0.452895       -12.3239
  56   2.0000      -0.446506       -12.1500
  57   2.0000      -0.440373       -11.9832
  58   2.0000      -0.436497       -11.8777
  59   2.0000      -0.423846       -11.5334
  60   2.0000      -0.417479       -11.3602
  61   2.0000      -0.413436       -11.2502
  62   2.0000      -0.411274       -11.1913
  63   2.0000      -0.357621        -9.7314
  64   2.0000      -0.330641        -8.9972
  65   2.0000      -0.320644        -8.7252
  66   2.0000      -0.288223        -7.8430
  67   0.0000       0.025220         0.6863
  68   0.0000       0.080694         2.1958
  69   0.0000       0.101045         2.7496
  70   0.0000       0.118418         3.2223
  71   0.0000       0.125575         3.4171

MULLIKEN ATOMIC CHARGES
-----------------------
   0 S :    0.080938
   1 C :   -0.148052
   2 C :   -0.057622
   3 C :   -0.003032
   4 C :   -0.097533
   5 H :   -0.008146
   6 C :    0.084378
   7 H :    0.003329
   8 H :    0.034461
   9 C :   -0.003731
  10 H :    0.010588
  11 H :    0.009882
  12 C :   -0.098966
  13 H :    0.032225
  14 H :    0.047168
  15 H :    0.050060
  16 S :    0.089678
  17 C :   -0.121825
  18 C :   -0.043815
  19 C :   -0.033773
  20 C :   -0.120150
  21 H :    0.021997
  22 C :    0.025535
  23 H :    0.030400
  24 H :    0.016688
  25 C :   -0.053448
  26 H :    0.037279
  27 H :    0.018169
  28 C :   -0.066368
  29 H :    0.029574
  30 H :    0.039468
  31 H :    0.051782
  32 H :    0.061034
  33 H :    0.081830
Sum of atomic charges:   -0.0000000

LOEWDIN ATOMIC CHARGES
----------------------
   0 S :    0.371350
   1 C :   -0.196108
   2 C :   -0.059435
   3 C :   -0.060050
   4 C :   -0.175235
   5 H :    0.017713
   6 C :   -0.029310
   7 H :    0.023308
   8 H :    0.038416
   9 C :   -0.029838
  10 H :    0.021320
  11 H :    0.019101
  12 C :   -0.081554
  13 H :    0.031660
  14 H :    0.033044
  15 H :    0.031808
  16 S :    0.398613
  17 C :   -0.189492
  18 C :   -0.067649
  19 C :   -0.061852
  20 C :   -0.188635
  21 H :    0.030364
  22 C :   -0.044832
  23 H :    0.037720
  24 H :    0.026339
  25 C :   -0.035842
  26 H :    0.028702
  27 H :    0.016478
  28 C :   -0.070949
  29 H :    0.022627
  30 H :    0.032425
  31 H :    0.032385
  32 H :    0.035404
  33 H :    0.042006

  Mayer bond orders larger than 0.100000
B(  0-S ,  1-C ) :   1.1106 B(  0-S ,  4-C ) :   1.1240 B(  1-C ,  2-C ) :   1.6505
B(  1-C , 32-H ) :   0.9643 B(  2-C ,  3-C ) :   1.1794 B(  2-C ,  6-C ) :   1.0219
B(  3-C ,  4-C ) :   1.6132 B(  3-C ,  5-H ) :   0.9955 B(  4-C , 20-C ) :   1.0599
B(  6-C ,  7-H ) :   0.9383 B(  6-C ,  8-H ) :   0.9253 B(  6-C ,  9-C ) :   1.0814
B(  9-C , 10-H ) :   0.9548 B(  9-C , 11-H ) :   0.9476 B(  9-C , 12-C ) :   1.0655
B( 12-C , 13-H ) :   0.9724 B( 12-C , 14-H ) :   0.9749 B( 12-C , 15-H ) :   0.9789
B( 16-S , 17-C ) :   1.1564 B( 16-S , 20-C ) :   1.1277 B( 17-C , 18-C ) :   1.6142
B( 17-C , 33-H ) :   0.9592 B( 18-C , 19-C ) :   1.2104 B( 18-C , 21-H ) :   0.9936
B( 19-C , 20-C ) :   1.6127 B( 19-C , 22-C ) :   1.0583 B( 22-C , 23-H ) :   0.9247
B( 22-C , 24-H ) :   0.9281 B( 22-C , 25-C ) :   1.0561 B( 25-C , 26-H ) :   0.9532
B( 25-C , 27-H ) :   0.9554 B( 25-C , 28-C ) :   1.0691 B( 28-C , 29-H ) :   0.9770
B( 28-C , 30-H ) :   0.9757 B( 28-C , 31-H ) :   0.9766

Dispersion correction           -0.013951822
FINAL SINGLE POINT ENERGY     -1339.865232722827

DIPOLE MOMENT
-------------
                                X             Y             Z
Electronic contribution:     11.61929      29.93938      -0.03378
Nuclear contribution   :    -12.00381     -30.66087      -0.18169
                        -----------------------------------------
Total Dipole Moment    :     -0.38452      -0.72149      -0.21547
                        -----------------------------------------
Magnitude (a.u.)       :      0.84547
Magnitude (Debye)      :      2.14902

Rotational constants in cm-1:     0.015876     0.010252     0.006528
Rotational constants in MHz :   475.936587   307.334010   195.696241

                             ****ORCA TERMINATED NORMALLY****
TOTAL RUN TIME: 0 days 0 hours 0 minutes 21 seconds 748 msec
