                         Program Version 4.2.1 -  RELEASE  -
|  1> ! wB97X-D3 SP def2-SVP
|  2> %pal
|  3> nprocs 24
|  4> end
|  5>
|  6> * xyz 0 1
|  7> S 	 28.5392 	 -31.5838 	 -130.663
|  8> C 	 28.3356 	 -30.6242 	 -132.043
|  9> C 	 28.9486 	 -29.3498 	 -131.85
| 10> C 	 29.786 	 -29.2506 	 -130.68
| 11> C 	 29.7435 	 -30.3966 	 -129.929
| 12> H 	 30.3534 	 -28.3363 	 -130.399
| 13> C 	 28.8313 	 -28.1646 	 -132.813
| 14> H 	 29.8035 	 -27.5763 	 -132.663
| 15> H 	 28.0937 	 -27.5293 	 -132.39
| 16> C 	 28.5647 	 -28.552 	 -134.255
| 17> H 	 29.4328 	 -29.1468 	 -134.681
| 18> H 	 27.504 	 -29.0467 	 -134.294
| 19> C 	 28.5606 	 -27.3518 	 -135.267
| 20> H 	 28.2307 	 -26.3946 	 -134.856
| 21> H 	 29.4918 	 -27.0938 	 -135.705
| 22> H 	 27.8499 	 -27.4893 	 -136.099
| 23> S 	 29.8044 	 -32.0695 	 -127.732
| 24> C 	 30.652 	 -31.6062 	 -126.301
| 25> C 	 31.5065 	 -30.5151 	 -126.559
| 26> C 	 31.1779 	 -29.9105 	 -127.815
| 27> C 	 30.3123 	 -30.6599 	 -128.627
| 28> H 	 32.277 	 -30.2253 	 -125.866
| 29> C 	 31.8203 	 -28.5022 	 -128.113
| 30> H 	 32.0684 	 -27.9905 	 -127.168
| 31> H 	 31.0418 	 -27.9219 	 -128.561
| 32> C 	 33.0761 	 -28.4711 	 -128.983
| 33> H 	 33.0029 	 -29.2177 	 -129.771
| 34> H 	 33.8903 	 -28.9632 	 -128.457
| 35> C 	 33.3999 	 -27.0518 	 -129.588
| 36> H 	 32.8102 	 -26.7837 	 -130.505
| 37> H 	 34.4354 	 -27.034 	 -129.928
| 38> H 	 33.3655 	 -26.3072 	 -128.838
| 39> H 	 27.6628 	 -30.813 	 -132.901
| 40> H 	 30.7065 	 -32.3691 	 -125.406
| 41> *
| 42>
| 43>                          ****END OF INPUT****

CARTESIAN COORDINATES (ANGSTROEM)
---------------------------------
  S     28.539200  -31.583800  -130.663000
  C     28.335600  -30.624200  -132.043000
  C     28.948600  -29.349800  -131.850000
  C     29.786000  -29.250600  -130.680000
  C     29.743500  -30.396600  -129.929000
  H     30.353400  -28.336300  -130.399000
  C     28.831300  -28.164600  -132.813000
  H     29.803500  -27.576300  -132.663000
  H     28.093700  -27.529300  -132.390000
  C     28.564700  -28.552000  -134.255000
  H     29.432800  -29.146800  -134.681000
  H     27.504000  -29.046700  -134.294000
  C     28.560600  -27.351800  -135.267000
  H     28.230700  -26.394600  -134.856000
  H     29.491800  -27.093800  -135.705000
  H     27.849900  -27.489300  -136.099000
  S     29.804400  -32.069500  -127.732000
  C     30.652000  -31.606200  -126.301000
  C     31.506500  -30.515100  -126.559000
  C     31.177900  -29.910500  -127.815000
  C     30.312300  -30.659900  -128.627000
  H     32.277000  -30.225300  -125.866000
  C     31.820300  -28.502200  -128.113000
  H     32.068400  -27.990500  -127.168000
  H     31.041800  -27.921900  -128.561000
  C     33.076100  -28.471100  -128.983000
  H     33.002900  -29.217700  -129.771000
  H     33.890300  -28.963200  -128.457000
  C     33.399900  -27.051800  -129.588000
  H     32.810200  -26.783700  -130.505000
  H     34.435400  -27.034000  -129.928000
  H     33.365500  -26.307200  -128.838000
  H     27.662800  -30.813000  -132.901000
  H     30.706500  -32.369100  -125.406000

 Total Charge           Charge          ....    0
 Multiplicity           Mult            ....    1
 Number of Electrons    NEL             ....  134
 Basis Dimension        Dim             ....  322

ORBITAL ENERGIES
----------------

  NO   OCC          E(Eh)            E(eV)
   0   2.0000     -88.966560     -2420.9032
   1   2.0000     -88.966344     -2420.8973
   2   2.0000     -10.337412      -281.2953
   3   2.0000     -10.330832      -281.1162
   4   2.0000     -10.327745      -281.0322
   5   2.0000     -10.316103      -280.7154
   6   2.0000     -10.309646      -280.5397
   7   2.0000     -10.305779      -280.4345
   8   2.0000     -10.304198      -280.3915
   9   2.0000     -10.299683      -280.2686
  10   2.0000     -10.299455      -280.2624
  11   2.0000     -10.295594      -280.1573
  12   2.0000     -10.295211      -280.1469
  13   2.0000     -10.288355      -279.9604
  14   2.0000     -10.285562      -279.8844
  15   2.0000     -10.278285      -279.6864
  16   2.0000      -8.081633      -219.9124
  17   2.0000      -8.080746      -219.8883
  18   2.0000      -6.040166      -164.3613
  19   2.0000      -6.039441      -164.3415
  20   2.0000      -6.035994      -164.2477
  21   2.0000      -6.035409      -164.2318
  22   2.0000      -6.032406      -164.1501
  23   2.0000      -6.031268      -164.1191
  24   2.0000      -1.005016       -27.3479
  25   2.0000      -0.980939       -26.6927
  26   2.0000      -0.906199       -24.6589
  27   2.0000      -0.903936       -24.5973
  28   2.0000      -0.869882       -23.6707
  29   2.0000      -0.852611       -23.2007
  30   2.0000      -0.843891       -22.9634
  31   2.0000      -0.811567       -22.0839
  32   2.0000      -0.783226       -21.3127
  33   2.0000      -0.764611       -20.8061
  34   2.0000      -0.710275       -19.3276
  35   2.0000      -0.705230       -19.1903
  36   2.0000      -0.686931       -18.6923
  37   2.0000      -0.666114       -18.1259
  38   2.0000      -0.631382       -17.1808
  39   2.0000      -0.615933       -16.7604
  40   2.0000      -0.591681       -16.1005
  41   2.0000      -0.567656       -15.4467
  42   2.0000      -0.561909       -15.2903
  43   2.0000      -0.556069       -15.1314
  44   2.0000      -0.525519       -14.3001
  45   2.0000      -0.518382       -14.1059
  46   2.0000      -0.515842       -14.0368
  47   2.0000      -0.506567       -13.7844
  48   2.0000      -0.502699       -13.6791
  49   2.0000      -0.497901       -13.5486
  50   2.0000      -0.495405       -13.4806
  51   2.0000      -0.485909       -13.2223
  52   2.0000      -0.477523       -12.9941
  53   2.0000      -0.468067       -12.7367
  54   2.0000      -0.458628       -12.4799
  55   2.0000      -0.452754       -12.3201
  56   2.0000      -0.443221       -12.0606
  57   2.0000      -0.436530       -11.8786
  58   2.0000      -0.428556       -11.6616
  59   2.0000      -0.422300       -11.4914
  60   2.0000      -0.417913       -11.3720
  61   2.0000      -0.414327       -11.2744
  62   2.0000      -0.406857       -11.0711
  63   2.0000      -0.369118       -10.0442
  64   2.0000      -0.333548        -9.0763
  65   2.0000      -0.324231        -8.8228
  66   2.0000      -0.274830        -7.4785
  67   0.0000       0.015453         0.4205
  68   0.0000       0.081674         2.2225
  69   0.0000       0.092704         2.5226
  70   0.0000       0.113522         3.0891
  71   0.0000       0.131056         3.5662

MULLIKEN ATOMIC CHARGES
-----------------------
   0 S :    0.097973
   1 C :   -0.110038
   2 C :   -0.126759
   3 C :   -0.034706
   4 C :   -0.076692
   5 H :    0.028033
   6 C :    0.068421
   7 H :    0.029591
   8 H :    0.034506
   9 C :   -0.134494
  10 H :    0.060954
  11 H :    0.057059
  12 C :   -0.037346
  13 H :    0.013350
  14 H :    0.025942
  15 H :    0.030595
  16 S :    0.100340
  17 C :   -0.136641
  18 C :   -0.021517
  19 C :   -0.096123
  20 C :   -0.097765
  21 H :    0.026400
  22 C :    0.045958
  23 H :    0.026198
  24 H :    0.020354
  25 C :   -0.058182
  26 H :    0.023022
  27 H :    0.016632
  28 C :   -0.040458
  29 H :    0.046125
  30 H :    0.029481
  31 H :    0.026761
  32 H :    0.063651
  33 H :    0.099377
Sum of atomic charges:    0.0000000

LOEWDIN ATOMIC CHARGES
----------------------
   0 S :    0.387538
   1 C :   -0.228074
   2 C :   -0.061972
   3 C :   -0.070478
   4 C :   -0.154318
   5 H :    0.040577
   6 C :   -0.041233
   7 H :    0.035028
   8 H :    0.028888
   9 C :   -0.051943
  10 H :    0.041767
  11 H :    0.038105
  12 C :   -0.073667
  13 H :    0.021572
  14 H :    0.019022
  15 H :    0.029504
  16 S :    0.419160
  17 C :   -0.211882
  18 C :   -0.070980
  19 C :   -0.055398
  20 C :   -0.201935
  21 H :    0.032515
  22 C :   -0.029892
  23 H :    0.031456
  24 H :    0.020548
  25 C :   -0.048463
  26 H :    0.024708
  27 H :    0.024806
  28 C :   -0.064353
  29 H :    0.032428
  30 H :    0.029911
  31 H :    0.018269
  32 H :    0.037510
  33 H :    0.051276

  Mayer bond orders larger than 0.100000
B(  0-S ,  1-C ) :   1.1399 B(  0-S ,  4-C ) :   1.1198 B(  1-C ,  2-C ) :   1.5985
B(  1-C , 32-H ) :   0.9602 B(  2-C ,  3-C ) :   1.2539 B(  2-C ,  6-C ) :   1.0116
B(  3-C ,  4-C ) :   1.5747 B(  3-C ,  5-H ) :   0.9771 B(  4-C , 20-C ) :   1.1162
B(  6-C ,  7-H ) :   0.9487 B(  6-C ,  8-H ) :   0.9222 B(  6-C ,  9-C ) :   1.0811
B(  9-C , 10-H ) :   0.9627 B(  9-C , 11-H ) :   0.9449 B(  9-C , 12-C ) :   1.0641
B( 12-C , 13-H ) :   0.9744 B( 12-C , 14-H ) :   0.9800 B( 12-C , 15-H ) :   0.9767
B( 16-S , 17-C ) :   1.1803 B( 16-S , 20-C ) :   1.1353 B( 17-C , 18-C ) :   1.5615
B( 17-C , 20-C ) :   0.1013 B( 17-C , 33-H ) :   0.9513 B( 18-C , 19-C ) :   1.2797
B( 18-C , 21-H ) :   0.9919 B( 19-C , 20-C ) :   1.5579 B( 19-C , 22-C ) :   1.0265
B( 22-C , 23-H ) :   0.9354 B( 22-C , 24-H ) :   0.9418 B( 22-C , 25-C ) :   1.0584
B( 25-C , 26-H ) :   0.9562 B( 25-C , 27-H ) :   0.9519 B( 25-C , 28-C ) :   1.0661
B( 28-C , 29-H ) :   0.9764 B( 28-C , 30-H ) :   0.9722 B( 28-C , 31-H ) :   0.9774

Dispersion correction           -0.013790448
FINAL SINGLE POINT ENERGY     -1339.859170484546

DIPOLE MOMENT
-------------
                                X             Y             Z
Electronic contribution:     -9.94435     -25.46959      17.19725
Nuclear contribution   :     10.27377      26.13843     -17.31844
                        -----------------------------------------
Total Dipole Moment    :      0.32942       0.66884      -0.12119
                        -----------------------------------------
Magnitude (a.u.)       :      0.75535
Magnitude (Debye)      :      1.91995

Rotational constants in cm-1:     0.018873     0.008358     0.005941
Rotational constants in MHz :   565.795479   250.556378   178.098733

                             ****ORCA TERMINATED NORMALLY****
TOTAL RUN TIME: 0 days 0 hours 0 minutes 20 seconds 903 msec
