                         Program Version 4.2.1 -  RELEASE  -
|  1> ! wB97X-D3 SP def2-SVP
|  2> %pal
|  3> nprocs 24
|  4> end
|  5>
|  6> * xyz 0 1
|  7> S 	 -49.4254 	 10.3517 	 30.1739
|  8> C 	 -47.733 	 10.3034 	 29.8272
|  9> C 	 -47.1456 	 11.5424 	 30.1661
| 10> C 	 -48.0518 	 12.4162 	 30.8826
| 11> C 	 -49.2945 	 11.8902 	 31.1109
| 12> H 	 -47.8829 	 13.4515 	 31.2359
| 13> C 	 -45.7682 	 11.9197 	 29.7428
| 14> H 	 -45.1998 	 11.0316 	 29.3704
| 15> H 	 -45.3193 	 12.2775 	 30.6762
| 16> C 	 -45.5622 	 12.9748 	 28.6786
| 17> H 	 -46.3055 	 13.7801 	 28.8872
| 18> H 	 -44.6072 	 13.4915 	 28.7577
| 19> C 	 -45.8428 	 12.5045 	 27.2927
| 20> H 	 -45.5163 	 13.2076 	 26.561
| 21> H 	 -45.4264 	 11.5 	 27.0621
| 22> H 	 -46.9109 	 12.536 	 26.9879
| 23> S 	 -51.8638 	 12.6314 	 30.4035
| 24> C 	 -52.7781 	 13.5604 	 31.608
| 25> C 	 -52.0233 	 13.9549 	 32.6674
| 26> C 	 -50.7042 	 13.4624 	 32.6814
| 27> C 	 -50.4791 	 12.617 	 31.5951
| 28> H 	 -52.4522 	 14.7162 	 33.3017
| 29> C 	 -49.6685 	 13.8408 	 33.7079
| 30> H 	 -48.8133 	 13.3051 	 33.3807
| 31> H 	 -49.9329 	 13.3274 	 34.6924
| 32> C 	 -49.2672 	 15.3906 	 33.9406
| 33> H 	 -48.4947 	 15.2814 	 34.7288
| 34> H 	 -50.1414 	 15.9281 	 34.3524
| 35> C 	 -48.8327 	 16.1959 	 32.7093
| 36> H 	 -47.775 	 16.4532 	 32.7821
| 37> H 	 -49.509 	 17.1021 	 32.6575
| 38> H 	 -49.0643 	 15.6135 	 31.7863
| 39> H 	 -47.0924 	 9.51379 	 29.495
| 40> H 	 -53.7655 	 13.9705 	 31.2666
| 41> *
| 42>
| 43>                          ****END OF INPUT****

CARTESIAN COORDINATES (ANGSTROEM)
---------------------------------
  S    -49.425400   10.351700   30.173900
  C    -47.733000   10.303400   29.827200
  C    -47.145600   11.542400   30.166100
  C    -48.051800   12.416200   30.882600
  C    -49.294500   11.890200   31.110900
  H    -47.882900   13.451500   31.235900
  C    -45.768200   11.919700   29.742800
  H    -45.199800   11.031600   29.370400
  H    -45.319300   12.277500   30.676200
  C    -45.562200   12.974800   28.678600
  H    -46.305500   13.780100   28.887200
  H    -44.607200   13.491500   28.757700
  C    -45.842800   12.504500   27.292700
  H    -45.516300   13.207600   26.561000
  H    -45.426400   11.500000   27.062100
  H    -46.910900   12.536000   26.987900
  S    -51.863800   12.631400   30.403500
  C    -52.778100   13.560400   31.608000
  C    -52.023300   13.954900   32.667400
  C    -50.704200   13.462400   32.681400
  C    -50.479100   12.617000   31.595100
  H    -52.452200   14.716200   33.301700
  C    -49.668500   13.840800   33.707900
  H    -48.813300   13.305100   33.380700
  H    -49.932900   13.327400   34.692400
  C    -49.267200   15.390600   33.940600
  H    -48.494700   15.281400   34.728800
  H    -50.141400   15.928100   34.352400
  C    -48.832700   16.195900   32.709300
  H    -47.775000   16.453200   32.782100
  H    -49.509000   17.102100   32.657500
  H    -49.064300   15.613500   31.786300
  H    -47.092400    9.513790   29.495000
  H    -53.765500   13.970500   31.266600

 Total Charge           Charge          ....    0
 Multiplicity           Mult            ....    1
 Number of Electrons    NEL             ....  134
 Basis Dimension        Dim             ....  322

ORBITAL ENERGIES
----------------

  NO   OCC          E(Eh)            E(eV)
   0   2.0000     -88.966179     -2420.8928
   1   2.0000     -88.964439     -2420.8455
   2   2.0000     -10.335586      -281.2456
   3   2.0000     -10.333880      -281.1992
   4   2.0000     -10.320463      -280.8341
   5   2.0000     -10.315773      -280.7065
   6   2.0000     -10.305957      -280.4393
   7   2.0000     -10.304718      -280.4056
   8   2.0000     -10.299912      -280.2749
   9   2.0000     -10.299873      -280.2738
  10   2.0000     -10.297820      -280.2179
  11   2.0000     -10.291961      -280.0585
  12   2.0000     -10.291501      -280.0460
  13   2.0000     -10.288271      -279.9581
  14   2.0000     -10.285642      -279.8865
  15   2.0000     -10.273864      -279.5660
  16   2.0000      -8.080171      -219.8726
  17   2.0000      -8.078088      -219.8159
  18   2.0000      -6.038831      -164.3249
  19   2.0000      -6.036565      -164.2633
  20   2.0000      -6.034848      -164.2166
  21   2.0000      -6.033058      -164.1678
  22   2.0000      -6.030715      -164.1041
  23   2.0000      -6.028626      -164.0473
  24   2.0000      -1.001190       -27.2438
  25   2.0000      -0.979974       -26.6664
  26   2.0000      -0.916245       -24.9323
  27   2.0000      -0.900460       -24.5028
  28   2.0000      -0.870285       -23.6817
  29   2.0000      -0.852462       -23.1967
  30   2.0000      -0.845612       -23.0103
  31   2.0000      -0.816749       -22.2249
  32   2.0000      -0.782833       -21.3020
  33   2.0000      -0.770693       -20.9716
  34   2.0000      -0.708959       -19.2918
  35   2.0000      -0.694449       -18.8969
  36   2.0000      -0.693730       -18.8774
  37   2.0000      -0.654838       -17.8190
  38   2.0000      -0.640037       -17.4163
  39   2.0000      -0.618043       -16.8178
  40   2.0000      -0.594141       -16.1674
  41   2.0000      -0.565186       -15.3795
  42   2.0000      -0.561579       -15.2813
  43   2.0000      -0.548612       -14.9285
  44   2.0000      -0.543593       -14.7919
  45   2.0000      -0.538654       -14.6575
  46   2.0000      -0.522287       -14.2121
  47   2.0000      -0.513077       -13.9615
  48   2.0000      -0.499056       -13.5800
  49   2.0000      -0.493010       -13.4155
  50   2.0000      -0.484721       -13.1899
  51   2.0000      -0.480634       -13.0787
  52   2.0000      -0.469162       -12.7665
  53   2.0000      -0.466672       -12.6988
  54   2.0000      -0.456397       -12.4192
  55   2.0000      -0.448246       -12.1974
  56   2.0000      -0.439438       -11.9577
  57   2.0000      -0.435370       -11.8470
  58   2.0000      -0.434498       -11.8233
  59   2.0000      -0.425087       -11.5672
  60   2.0000      -0.418018       -11.3748
  61   2.0000      -0.413451       -11.2506
  62   2.0000      -0.408048       -11.1035
  63   2.0000      -0.354614        -9.6495
  64   2.0000      -0.333358        -9.0711
  65   2.0000      -0.322651        -8.7798
  66   2.0000      -0.287148        -7.8137
  67   0.0000       0.024347         0.6625
  68   0.0000       0.058251         1.5851
  69   0.0000       0.096293         2.6203
  70   0.0000       0.118409         3.2221
  71   0.0000       0.128315         3.4916

MULLIKEN ATOMIC CHARGES
-----------------------
   0 S :    0.100415
   1 C :   -0.084181
   2 C :   -0.113420
   3 C :    0.026700
   4 C :   -0.146378
   5 H :    0.023031
   6 C :    0.053164
   7 H :    0.019393
   8 H :    0.027849
   9 C :   -0.058164
  10 H :    0.021860
  11 H :    0.033524
  12 C :   -0.049894
  13 H :    0.018132
  14 H :    0.030292
  15 H :    0.036974
  16 S :    0.079514
  17 C :   -0.111102
  18 C :   -0.024670
  19 C :   -0.037691
  20 C :   -0.152854
  21 H :    0.018731
  22 C :    0.045412
  23 H :    0.007259
  24 H :    0.050386
  25 C :   -0.092328
  26 H :    0.045195
  27 H :    0.037882
  28 C :   -0.074607
  29 H :    0.048550
  30 H :    0.045212
  31 H :    0.055206
  32 H :    0.045606
  33 H :    0.075001
Sum of atomic charges:   -0.0000000

LOEWDIN ATOMIC CHARGES
----------------------
   0 S :    0.390310
   1 C :   -0.200298
   2 C :   -0.062981
   3 C :   -0.065270
   4 C :   -0.181358
   5 H :    0.035067
   6 C :   -0.038933
   7 H :    0.030487
   8 H :    0.033033
   9 C :   -0.047855
  10 H :    0.029351
  11 H :    0.026871
  12 C :   -0.074216
  13 H :    0.024344
  14 H :    0.024574
  15 H :    0.034168
  16 S :    0.357020
  17 C :   -0.175775
  18 C :   -0.073321
  19 C :   -0.063859
  20 C :   -0.164332
  21 H :    0.033966
  22 C :   -0.038023
  23 H :    0.021234
  24 H :    0.044141
  25 C :   -0.041466
  26 H :    0.030600
  27 H :    0.024117
  28 C :   -0.077154
  29 H :    0.029305
  30 H :    0.037799
  31 H :    0.031963
  32 H :    0.030941
  33 H :    0.035551

  Mayer bond orders larger than 0.100000
B(  0-S ,  1-C ) :   1.1365 B(  0-S ,  4-C ) :   1.1321 B(  1-C ,  2-C ) :   1.5987
B(  1-C , 32-H ) :   0.9676 B(  2-C ,  3-C ) :   1.2311 B(  2-C ,  6-C ) :   1.0419
B(  3-C ,  4-C ) :   1.5758 B(  3-C ,  5-H ) :   0.9789 B(  4-C , 20-C ) :   1.0411
B(  6-C ,  7-H ) :   0.9435 B(  6-C ,  8-H ) :   0.9303 B(  6-C ,  9-C ) :   1.0784
B(  9-C , 10-H ) :   0.9487 B(  9-C , 11-H ) :   0.9553 B(  9-C , 12-C ) :   1.0797
B( 12-C , 13-H ) :   0.9666 B( 12-C , 14-H ) :   0.9752 B( 12-C , 15-H ) :   0.9718
B( 16-S , 17-C ) :   1.1317 B( 16-S , 20-C ) :   1.1335 B( 17-C , 18-C ) :   1.6391
B( 17-C , 33-H ) :   0.9592 B( 18-C , 19-C ) :   1.2079 B( 18-C , 21-H ) :   0.9934
B( 19-C , 20-C ) :   1.6085 B( 19-C , 22-C ) :   1.0491 B( 22-C , 23-H ) :   0.9303
B( 22-C , 24-H ) :   0.9332 B( 22-C , 25-C ) :   1.0554 B( 25-C , 26-H ) :   0.9625
B( 25-C , 27-H ) :   0.9678 B( 25-C , 28-C ) :   1.0470 B( 28-C , 29-H ) :   0.9774
B( 28-C , 30-H ) :   0.9787 B( 28-C , 31-H ) :   0.9752

Dispersion correction           -0.014702175
FINAL SINGLE POINT ENERGY     -1339.860305825657

DIPOLE MOMENT
-------------
                                X             Y             Z
Electronic contribution:    -19.90245     -16.28888      -0.87573
Nuclear contribution   :     20.36843      16.99400       0.98327
                        -----------------------------------------
Total Dipole Moment    :      0.46598       0.70512       0.10755
                        -----------------------------------------
Magnitude (a.u.)       :      0.85200
Magnitude (Debye)      :      2.16561

Rotational constants in cm-1:     0.018539     0.008993     0.007129
Rotational constants in MHz :   555.775678   269.603653   213.710278

                             ****ORCA TERMINATED NORMALLY****
TOTAL RUN TIME: 0 days 0 hours 0 minutes 21 seconds 873 msec
