                         Program Version 4.2.1 -  RELEASE  -
|  1> ! wB97X-D3 SP def2-SVP
|  2> %pal
|  3> nprocs 24
|  4> end
|  5>
|  6> * xyz 0 1
|  7> S 	 -110.015 	 54.9359 	 -89.8884
|  8> C 	 -110.033 	 53.7647 	 -91.1751
|  9> C 	 -109.579 	 52.5534 	 -90.7233
| 10> C 	 -109.46 	 52.4784 	 -89.2955
| 11> C 	 -109.698 	 53.6838 	 -88.5923
| 12> H 	 -109.287 	 51.5347 	 -88.8038
| 13> C 	 -109.401 	 51.26 	 -91.5855
| 14> H 	 -108.435 	 50.8453 	 -91.2552
| 15> H 	 -109.184 	 51.5495 	 -92.5855
| 16> C 	 -110.559 	 50.1947 	 -91.6033
| 17> H 	 -110.576 	 49.628 	 -90.7321
| 18> H 	 -111.539 	 50.5877 	 -91.6034
| 19> C 	 -110.395 	 49.2297 	 -92.8256
| 20> H 	 -111.196 	 48.5307 	 -92.7486
| 21> H 	 -110.435 	 49.7615 	 -93.798
| 22> H 	 -109.475 	 48.6605 	 -92.7918
| 23> S 	 -111.052 	 54.9499 	 -86.5279
| 24> C 	 -110.297 	 55.1023 	 -84.93
| 25> C 	 -109.082 	 54.4152 	 -84.9509
| 26> C 	 -108.805 	 53.61 	 -86.0882
| 27> C 	 -109.74 	 53.9054 	 -87.1373
| 28> H 	 -108.435 	 54.3193 	 -84.0559
| 29> C 	 -107.499 	 52.8056 	 -86.2156
| 30> H 	 -106.859 	 53.1285 	 -85.4155
| 31> H 	 -107.054 	 52.8489 	 -87.2285
| 32> C 	 -107.602 	 51.3154 	 -86.0911
| 33> H 	 -106.605 	 50.8697 	 -86.2263
| 34> H 	 -108.278 	 50.9288 	 -86.9145
| 35> C 	 -108.329 	 50.7821 	 -84.7862
| 36> H 	 -109.305 	 51.2463 	 -84.6967
| 37> H 	 -107.805 	 51.0383 	 -83.8809
| 38> H 	 -108.373 	 49.7631 	 -84.8696
| 39> H 	 -110.222 	 53.9758 	 -92.2626
| 40> H 	 -110.74 	 55.492 	 -84.0716
| 41> *
| 42>
| 43>                          ****END OF INPUT****

CARTESIAN COORDINATES (ANGSTROEM)
---------------------------------
  S    -110.015000   54.935900  -89.888400
  C    -110.033000   53.764700  -91.175100
  C    -109.579000   52.553400  -90.723300
  C    -109.460000   52.478400  -89.295500
  C    -109.698000   53.683800  -88.592300
  H    -109.287000   51.534700  -88.803800
  C    -109.401000   51.260000  -91.585500
  H    -108.435000   50.845300  -91.255200
  H    -109.184000   51.549500  -92.585500
  C    -110.559000   50.194700  -91.603300
  H    -110.576000   49.628000  -90.732100
  H    -111.539000   50.587700  -91.603400
  C    -110.395000   49.229700  -92.825600
  H    -111.196000   48.530700  -92.748600
  H    -110.435000   49.761500  -93.798000
  H    -109.475000   48.660500  -92.791800
  S    -111.052000   54.949900  -86.527900
  C    -110.297000   55.102300  -84.930000
  C    -109.082000   54.415200  -84.950900
  C    -108.805000   53.610000  -86.088200
  C    -109.740000   53.905400  -87.137300
  H    -108.435000   54.319300  -84.055900
  C    -107.499000   52.805600  -86.215600
  H    -106.859000   53.128500  -85.415500
  H    -107.054000   52.848900  -87.228500
  C    -107.602000   51.315400  -86.091100
  H    -106.605000   50.869700  -86.226300
  H    -108.278000   50.928800  -86.914500
  C    -108.329000   50.782100  -84.786200
  H    -109.305000   51.246300  -84.696700
  H    -107.805000   51.038300  -83.880900
  H    -108.373000   49.763100  -84.869600
  H    -110.222000   53.975800  -92.262600
  H    -110.740000   55.492000  -84.071600

 Total Charge           Charge          ....    0
 Multiplicity           Mult            ....    1
 Number of Electrons    NEL             ....  134
 Basis Dimension        Dim             ....  322

ORBITAL ENERGIES
----------------

  NO   OCC          E(Eh)            E(eV)
   0   2.0000     -88.970312     -2421.0053
   1   2.0000     -88.966677     -2420.9064
   2   2.0000     -10.342288      -281.4280
   3   2.0000     -10.340676      -281.3841
   4   2.0000     -10.321682      -280.8672
   5   2.0000     -10.318351      -280.7766
   6   2.0000     -10.313857      -280.6543
   7   2.0000     -10.301197      -280.3098
   8   2.0000     -10.301002      -280.3045
   9   2.0000     -10.297930      -280.2209
  10   2.0000     -10.295716      -280.1607
  11   2.0000     -10.293529      -280.1012
  12   2.0000     -10.292190      -280.0647
  13   2.0000     -10.283995      -279.8417
  14   2.0000     -10.279824      -279.7282
  15   2.0000     -10.268408      -279.4176
  16   2.0000      -8.083838      -219.9724
  17   2.0000      -8.080139      -219.8717
  18   2.0000      -6.042413      -164.4224
  19   2.0000      -6.038955      -164.3283
  20   2.0000      -6.038330      -164.3113
  21   2.0000      -6.034762      -164.2142
  22   2.0000      -6.034732      -164.2134
  23   2.0000      -6.030702      -164.1037
  24   2.0000      -0.996076       -27.1046
  25   2.0000      -0.977366       -26.5955
  26   2.0000      -0.910525       -24.7767
  27   2.0000      -0.900614       -24.5069
  28   2.0000      -0.866815       -23.5872
  29   2.0000      -0.845900       -23.0181
  30   2.0000      -0.842110       -22.9150
  31   2.0000      -0.810838       -22.0640
  32   2.0000      -0.787851       -21.4385
  33   2.0000      -0.770633       -20.9700
  34   2.0000      -0.713677       -19.4201
  35   2.0000      -0.707019       -19.2390
  36   2.0000      -0.686894       -18.6913
  37   2.0000      -0.663209       -18.0468
  38   2.0000      -0.634886       -17.2761
  39   2.0000      -0.617276       -16.7969
  40   2.0000      -0.592950       -16.1350
  41   2.0000      -0.562886       -15.3169
  42   2.0000      -0.559893       -15.2355
  43   2.0000      -0.554767       -15.0960
  44   2.0000      -0.549012       -14.9394
  45   2.0000      -0.526658       -14.3311
  46   2.0000      -0.513809       -13.9815
  47   2.0000      -0.508415       -13.8347
  48   2.0000      -0.502861       -13.6836
  49   2.0000      -0.499035       -13.5794
  50   2.0000      -0.489508       -13.3202
  51   2.0000      -0.480647       -13.0791
  52   2.0000      -0.473309       -12.8794
  53   2.0000      -0.467226       -12.7139
  54   2.0000      -0.459303       -12.4983
  55   2.0000      -0.446680       -12.1548
  56   2.0000      -0.444210       -12.0876
  57   2.0000      -0.436794       -11.8858
  58   2.0000      -0.433235       -11.7889
  59   2.0000      -0.427416       -11.6306
  60   2.0000      -0.419377       -11.4118
  61   2.0000      -0.412551       -11.2261
  62   2.0000      -0.411469       -11.1967
  63   2.0000      -0.351059        -9.5528
  64   2.0000      -0.334785        -9.1100
  65   2.0000      -0.327042        -8.8993
  66   2.0000      -0.287304        -7.8180
  67   0.0000       0.015198         0.4136
  68   0.0000       0.066919         1.8210
  69   0.0000       0.111279         3.0281
  70   0.0000       0.117489         3.1970
  71   0.0000       0.120643         3.2829

MULLIKEN ATOMIC CHARGES
-----------------------
   0 S :    0.104516
   1 C :   -0.141767
   2 C :   -0.092995
   3 C :    0.024697
   4 C :   -0.122761
   5 H :    0.004762
   6 C :    0.064219
   7 H :    0.027594
   8 H :    0.002263
   9 C :   -0.015514
  10 H :    0.008742
  11 H :    0.022535
  12 C :   -0.063835
  13 H :    0.027191
  14 H :    0.040453
  15 H :    0.030820
  16 S :    0.107384
  17 C :   -0.070219
  18 C :   -0.048295
  19 C :   -0.038781
  20 C :   -0.176450
  21 H :    0.030605
  22 C :    0.104711
  23 H :    0.016807
  24 H :    0.043879
  25 C :   -0.133924
  26 H :    0.039342
  27 H :    0.031947
  28 C :   -0.027738
  29 H :    0.043614
  30 H :    0.018453
  31 H :    0.021131
  32 H :    0.071447
  33 H :    0.045164
Sum of atomic charges:    0.0000000

LOEWDIN ATOMIC CHARGES
----------------------
   0 S :    0.379806
   1 C :   -0.205211
   2 C :   -0.072795
   3 C :   -0.062282
   4 C :   -0.175654
   5 H :    0.024388
   6 C :   -0.027946
   7 H :    0.033497
   8 H :    0.020464
   9 C :   -0.028495
  10 H :    0.015235
  11 H :    0.022251
  12 C :   -0.059995
  13 H :    0.022472
  14 H :    0.027552
  15 H :    0.023057
  16 S :    0.398651
  17 C :   -0.172944
  18 C :   -0.072420
  19 C :   -0.049982
  20 C :   -0.188102
  21 H :    0.033741
  22 C :   -0.032048
  23 H :    0.028045
  24 H :    0.042648
  25 C :   -0.040994
  26 H :    0.025912
  27 H :    0.023838
  28 C :   -0.059673
  29 H :    0.028807
  30 H :    0.018636
  31 H :    0.013776
  32 H :    0.044649
  33 H :    0.021115

  Mayer bond orders larger than 0.100000
B(  0-S ,  1-C ) :   1.1365 B(  0-S ,  4-C ) :   1.1270 B(  1-C ,  2-C ) :   1.6152
B(  1-C , 32-H ) :   0.9584 B(  2-C ,  3-C ) :   1.2540 B(  2-C ,  6-C ) :   1.0230
B(  3-C ,  4-C ) :   1.5491 B(  3-C ,  5-H ) :   0.9915 B(  4-C , 20-C ) :   1.0855
B(  6-C ,  7-H ) :   0.9397 B(  6-C ,  8-H ) :   0.9482 B(  6-C ,  9-C ) :   1.0454
B(  9-C , 10-H ) :   0.9530 B(  9-C , 11-H ) :   0.9599 B(  9-C , 12-C ) :   1.0830
B( 12-C , 13-H ) :   0.9754 B( 12-C , 14-H ) :   0.9781 B( 12-C , 15-H ) :   0.9782
B( 16-S , 17-C ) :   1.1493 B( 16-S , 20-C ) :   1.1561 B( 17-C , 18-C ) :   1.5715
B( 17-C , 20-C ) :   0.1116 B( 17-C , 33-H ) :   0.9789 B( 18-C , 19-C ) :   1.2978
B( 18-C , 21-H ) :   0.9716 B( 19-C , 20-C ) :   1.5067 B( 19-C , 22-C ) :   1.0401
B( 22-C , 23-H ) :   0.9346 B( 22-C , 24-H ) :   0.9307 B( 22-C , 25-C ) :   1.0722
B( 25-C , 26-H ) :   0.9557 B( 25-C , 27-H ) :   0.9530 B( 25-C , 28-C ) :   1.0713
B( 28-C , 29-H ) :   0.9723 B( 28-C , 30-H ) :   0.9770 B( 28-C , 31-H ) :   0.9766

Dispersion correction           -0.014109251
FINAL SINGLE POINT ENERGY     -1339.862094769009

DIPOLE MOMENT
-------------
                                X             Y             Z
Electronic contribution:     -8.46773      27.74946       4.57104
Nuclear contribution   :      8.74294     -28.41192      -4.51484
                        -----------------------------------------
Total Dipole Moment    :      0.27521      -0.66246       0.05620
                        -----------------------------------------
Magnitude (a.u.)       :      0.71955
Magnitude (Debye)      :      1.82894

Rotational constants in cm-1:     0.018768     0.008084     0.006269
Rotational constants in MHz :   562.638526   242.339085   187.937872

                             ****ORCA TERMINATED NORMALLY****
TOTAL RUN TIME: 0 days 0 hours 0 minutes 21 seconds 286 msec
