                         Program Version 4.2.1 -  RELEASE  -
|  1> ! wB97X-D3 SP def2-SVP
|  2> %pal
|  3> nprocs 24
|  4> end
|  5>
|  6> * xyz 0 1
|  7> S 	 -41.0135 	 -45.9567 	 -74.5545
|  8> C 	 -42.0871 	 -44.6162 	 -74.3929
|  9> C 	 -41.444 	 -43.4599 	 -74.9118
| 10> C 	 -40.2103 	 -43.697 	 -75.5142
| 11> C 	 -39.9726 	 -45.0474 	 -75.5709
| 12> H 	 -39.4843 	 -42.9008 	 -75.7873
| 13> C 	 -41.9834 	 -42.0673 	 -74.622
| 14> H 	 -41.3077 	 -41.5644 	 -73.797
| 15> H 	 -42.8839 	 -42.2678 	 -74.0803
| 16> C 	 -42.3034 	 -41.1773 	 -75.8269
| 17> H 	 -41.4239 	 -40.6611 	 -76.1884
| 18> H 	 -42.585 	 -41.8459 	 -76.6854
| 19> C 	 -43.3536 	 -40.0861 	 -75.5104
| 20> H 	 -43.4463 	 -39.4473 	 -76.368
| 21> H 	 -44.2914 	 -40.5252 	 -75.1515
| 22> H 	 -43.0749 	 -39.4181 	 -74.6963
| 23> S 	 -37.7313 	 -46.5795 	 -75.0332
| 24> C 	 -36.3532 	 -46.3471 	 -76.1385
| 25> C 	 -36.8085 	 -45.8584 	 -77.3279
| 26> C 	 -38.209 	 -45.4314 	 -77.3479
| 27> C 	 -38.756 	 -45.5701 	 -76.0986
| 28> H 	 -36.2052 	 -45.7977 	 -78.2355
| 29> C 	 -38.7724 	 -44.658 	 -78.5398
| 30> H 	 -37.9096 	 -44.2204 	 -79.0884
| 31> H 	 -39.2886 	 -43.8366 	 -78.0246
| 32> C 	 -39.6517 	 -45.4766 	 -79.5261
| 33> H 	 -40.521 	 -45.8934 	 -78.9924
| 34> H 	 -39.0993 	 -46.3389 	 -79.9198
| 35> C 	 -40.1676 	 -44.5337 	 -80.6288
| 36> H 	 -40.7871 	 -43.7385 	 -80.1685
| 37> H 	 -40.7886 	 -45.2035 	 -81.2764
| 38> H 	 -39.348 	 -44.0992 	 -81.0748
| 39> H 	 -42.9279 	 -44.5122 	 -73.8043
| 40> H 	 -35.3157 	 -46.5688 	 -75.9703
| 41> *
| 42>
| 43>                          ****END OF INPUT****

CARTESIAN COORDINATES (ANGSTROEM)
---------------------------------
  S    -41.013500  -45.956700  -74.554500
  C    -42.087100  -44.616200  -74.392900
  C    -41.444000  -43.459900  -74.911800
  C    -40.210300  -43.697000  -75.514200
  C    -39.972600  -45.047400  -75.570900
  H    -39.484300  -42.900800  -75.787300
  C    -41.983400  -42.067300  -74.622000
  H    -41.307700  -41.564400  -73.797000
  H    -42.883900  -42.267800  -74.080300
  C    -42.303400  -41.177300  -75.826900
  H    -41.423900  -40.661100  -76.188400
  H    -42.585000  -41.845900  -76.685400
  C    -43.353600  -40.086100  -75.510400
  H    -43.446300  -39.447300  -76.368000
  H    -44.291400  -40.525200  -75.151500
  H    -43.074900  -39.418100  -74.696300
  S    -37.731300  -46.579500  -75.033200
  C    -36.353200  -46.347100  -76.138500
  C    -36.808500  -45.858400  -77.327900
  C    -38.209000  -45.431400  -77.347900
  C    -38.756000  -45.570100  -76.098600
  H    -36.205200  -45.797700  -78.235500
  C    -38.772400  -44.658000  -78.539800
  H    -37.909600  -44.220400  -79.088400
  H    -39.288600  -43.836600  -78.024600
  C    -39.651700  -45.476600  -79.526100
  H    -40.521000  -45.893400  -78.992400
  H    -39.099300  -46.338900  -79.919800
  C    -40.167600  -44.533700  -80.628800
  H    -40.787100  -43.738500  -80.168500
  H    -40.788600  -45.203500  -81.276400
  H    -39.348000  -44.099200  -81.074800
  H    -42.927900  -44.512200  -73.804300
  H    -35.315700  -46.568800  -75.970300

 Total Charge           Charge          ....    0
 Multiplicity           Mult            ....    1
 Number of Electrons    NEL             ....  134
 Basis Dimension        Dim             ....  322

ORBITAL ENERGIES
----------------

  NO   OCC          E(Eh)            E(eV)
   0   2.0000     -88.970759     -2421.0174
   1   2.0000     -88.960635     -2420.7420
   2   2.0000     -10.323631      -280.9203
   3   2.0000     -10.323154      -280.9073
   4   2.0000     -10.316974      -280.7391
   5   2.0000     -10.308559      -280.5102
   6   2.0000     -10.301068      -280.3063
   7   2.0000     -10.298317      -280.2315
   8   2.0000     -10.295753      -280.1617
   9   2.0000     -10.294748      -280.1343
  10   2.0000     -10.293491      -280.1001
  11   2.0000     -10.292323      -280.0683
  12   2.0000     -10.290504      -280.0188
  13   2.0000     -10.287065      -279.9253
  14   2.0000     -10.279445      -279.7179
  15   2.0000     -10.276241      -279.6307
  16   2.0000      -8.086187      -220.0363
  17   2.0000      -8.074775      -219.7258
  18   2.0000      -6.044573      -164.4812
  19   2.0000      -6.040663      -164.3748
  20   2.0000      -6.036989      -164.2748
  21   2.0000      -6.033625      -164.1833
  22   2.0000      -6.029622      -164.0744
  23   2.0000      -6.024946      -163.9471
  24   2.0000      -1.013801       -27.5869
  25   2.0000      -0.981413       -26.7056
  26   2.0000      -0.909253       -24.7420
  27   2.0000      -0.904273       -24.6065
  28   2.0000      -0.872246       -23.7350
  29   2.0000      -0.856044       -23.2941
  30   2.0000      -0.844934       -22.9918
  31   2.0000      -0.815232       -22.1836
  32   2.0000      -0.778208       -21.1761
  33   2.0000      -0.767200       -20.8766
  34   2.0000      -0.712674       -19.3928
  35   2.0000      -0.697747       -18.9867
  36   2.0000      -0.694225       -18.8908
  37   2.0000      -0.659744       -17.9525
  38   2.0000      -0.639983       -17.4148
  39   2.0000      -0.621636       -16.9156
  40   2.0000      -0.588682       -16.0189
  41   2.0000      -0.566064       -15.4034
  42   2.0000      -0.562076       -15.2949
  43   2.0000      -0.556899       -15.1540
  44   2.0000      -0.530224       -14.4281
  45   2.0000      -0.526949       -14.3390
  46   2.0000      -0.520259       -14.1570
  47   2.0000      -0.508790       -13.8449
  48   2.0000      -0.504056       -13.7161
  49   2.0000      -0.499930       -13.6038
  50   2.0000      -0.491093       -13.3633
  51   2.0000      -0.484376       -13.1805
  52   2.0000      -0.473226       -12.8771
  53   2.0000      -0.469051       -12.7635
  54   2.0000      -0.455440       -12.3931
  55   2.0000      -0.448537       -12.2053
  56   2.0000      -0.441619       -12.0171
  57   2.0000      -0.438495       -11.9321
  58   2.0000      -0.436591       -11.8802
  59   2.0000      -0.422890       -11.5074
  60   2.0000      -0.421833       -11.4787
  61   2.0000      -0.413836       -11.2611
  62   2.0000      -0.408400       -11.1131
  63   2.0000      -0.349032        -9.4976
  64   2.0000      -0.332454        -9.0465
  65   2.0000      -0.324082        -8.8187
  66   2.0000      -0.285950        -7.7811
  67   0.0000       0.025993         0.7073
  68   0.0000       0.063402         1.7253
  69   0.0000       0.098578         2.6825
  70   0.0000       0.116491         3.1699
  71   0.0000       0.130438         3.5494

MULLIKEN ATOMIC CHARGES
-----------------------
   0 S :    0.125797
   1 C :   -0.070649
   2 C :   -0.133742
   3 C :    0.003670
   4 C :   -0.143396
   5 H :    0.049451
   6 C :    0.055007
   7 H :    0.055733
   8 H :   -0.007605
   9 C :   -0.072159
  10 H :    0.023979
  11 H :    0.042230
  12 C :   -0.045623
  13 H :    0.034010
  14 H :    0.034172
  15 H :    0.026207
  16 S :    0.085008
  17 C :   -0.075613
  18 C :   -0.036244
  19 C :   -0.034136
  20 C :   -0.160798
  21 H :    0.020767
  22 C :    0.046344
  23 H :    0.021653
  24 H :    0.018860
  25 C :   -0.087951
  26 H :    0.037545
  27 H :    0.032796
  28 C :   -0.010669
  29 H :    0.035619
  30 H :    0.045407
  31 H :    0.014067
  32 H :    0.017766
  33 H :    0.052499
Sum of atomic charges:    0.0000000

LOEWDIN ATOMIC CHARGES
----------------------
   0 S :    0.440154
   1 C :   -0.206990
   2 C :   -0.060349
   3 C :   -0.067121
   4 C :   -0.201965
   5 H :    0.045343
   6 C :   -0.041687
   7 H :    0.045182
   8 H :    0.020297
   9 C :   -0.046201
  10 H :    0.020754
  11 H :    0.032231
  12 C :   -0.063820
  13 H :    0.025360
  14 H :    0.024990
  15 H :    0.026056
  16 S :    0.354859
  17 C :   -0.171818
  18 C :   -0.069225
  19 C :   -0.055832
  20 C :   -0.180269
  21 H :    0.029601
  22 C :   -0.035131
  23 H :    0.030035
  24 H :    0.031593
  25 C :   -0.037975
  26 H :    0.027526
  27 H :    0.024233
  28 C :   -0.056949
  29 H :    0.030042
  30 H :    0.033844
  31 H :    0.010329
  32 H :    0.012259
  33 H :    0.030644

  Mayer bond orders larger than 0.100000
B(  0-S ,  1-C ) :   1.1434 B(  0-S ,  4-C ) :   1.1751 B(  1-C ,  2-C ) :   1.5660
B(  1-C ,  4-C ) :   0.1042 B(  1-C , 32-H ) :   0.9744 B(  2-C ,  3-C ) :   1.2933
B(  2-C ,  6-C ) :   1.0383 B(  3-C ,  4-C ) :   1.5201 B(  3-C ,  5-H ) :   0.9833
B(  4-C , 20-C ) :   1.0689 B(  6-C ,  7-H ) :   0.9327 B(  6-C ,  8-H ) :   0.9371
B(  6-C ,  9-C ) :   1.0460 B(  9-C , 10-H ) :   0.9508 B(  9-C , 11-H ) :   0.9599
B(  9-C , 12-C ) :   1.0857 B( 12-C , 13-H ) :   0.9751 B( 12-C , 14-H ) :   0.9770
B( 12-C , 15-H ) :   0.9734 B( 16-S , 17-C ) :   1.1115 B( 16-S , 20-C ) :   1.0993
B( 17-C , 18-C ) :   1.6616 B( 17-C , 33-H ) :   0.9717 B( 18-C , 19-C ) :   1.1957
B( 18-C , 21-H ) :   0.9810 B( 19-C , 20-C ) :   1.6399 B( 19-C , 22-C ) :   1.0290
B( 22-C , 23-H ) :   0.9381 B( 22-C , 24-H ) :   0.9320 B( 22-C , 25-C ) :   1.0615
B( 25-C , 26-H ) :   0.9565 B( 25-C , 27-H ) :   0.9561 B( 25-C , 28-C ) :   1.0775
B( 28-C , 29-H ) :   0.9748 B( 28-C , 30-H ) :   0.9750 B( 28-C , 31-H ) :   0.9746

Dispersion correction           -0.013739913
FINAL SINGLE POINT ENERGY     -1339.861043391738

DIPOLE MOMENT
-------------
                                X             Y             Z
Electronic contribution:     12.02485     -22.36227      17.10343
Nuclear contribution   :    -11.98555      22.99581     -17.39297
                        -----------------------------------------
Total Dipole Moment    :      0.03930       0.63354      -0.28955
                        -----------------------------------------
Magnitude (a.u.)       :      0.69768
Magnitude (Debye)      :      1.77337

Rotational constants in cm-1:     0.016997     0.008835     0.006748
Rotational constants in MHz :   509.543572   264.873795   202.305974

                             ****ORCA TERMINATED NORMALLY****
TOTAL RUN TIME: 0 days 0 hours 0 minutes 21 seconds 324 msec
