                         Program Version 4.2.1 -  RELEASE  -
|  1> ! wB97X-D3 SP def2-SVP
|  2> %pal
|  3> nprocs 24
|  4> end
|  5>
|  6> * xyz 0 1
|  7> S 	 -135.897 	 66.9033 	 -58.9526
|  8> C 	 -135.253 	 65.302 	 -59.1331
|  9> C 	 -135.627 	 64.4795 	 -58.0746
| 10> C 	 -136.42 	 65.2268 	 -57.1078
| 11> C 	 -136.697 	 66.535 	 -57.41
| 12> H 	 -136.745 	 64.7306 	 -56.2275
| 13> C 	 -135.148 	 63.0536 	 -57.8362
| 14> H 	 -134.685 	 62.992 	 -56.8956
| 15> H 	 -134.388 	 62.9567 	 -58.5532
| 16> C 	 -136.189 	 61.9084 	 -57.7416
| 17> H 	 -136.797 	 61.6598 	 -58.6193
| 18> H 	 -135.53 	 61.0389 	 -57.7173
| 19> C 	 -137.17 	 61.9577 	 -56.5137
| 20> H 	 -136.605 	 62.1987 	 -55.5401
| 21> H 	 -137.916 	 62.7531 	 -56.6421
| 22> H 	 -137.647 	 61.048 	 -56.388
| 23> S 	 -138.877 	 68.2195 	 -57.1939
| 24> C 	 -139.122 	 69.1457 	 -55.6595
| 25> C 	 -138.087 	 68.9109 	 -54.8051
| 26> C 	 -137.183 	 67.9038 	 -55.2144
| 27> C 	 -137.406 	 67.5121 	 -56.5418
| 28> H 	 -138.095 	 69.3662 	 -53.8944
| 29> C 	 -136.101 	 67.3533 	 -54.2855
| 30> H 	 -135.466 	 68.0704 	 -53.7649
| 31> H 	 -135.394 	 66.9248 	 -55.0442
| 32> C 	 -136.689 	 66.3794 	 -53.2174
| 33> H 	 -137.587 	 65.9285 	 -53.4985
| 34> H 	 -137.045 	 66.9308 	 -52.2807
| 35> C 	 -135.745 	 65.3308 	 -52.7153
| 36> H 	 -135.843 	 64.4664 	 -53.3921
| 37> H 	 -136.11 	 65.029 	 -51.7585
| 38> H 	 -134.689 	 65.6062 	 -52.7157
| 39> H 	 -134.669 	 65.1042 	 -59.9332
| 40> H 	 -139.816 	 69.9276 	 -55.5273
| 41> *
| 42>
| 43>                          ****END OF INPUT****

CARTESIAN COORDINATES (ANGSTROEM)
---------------------------------
  S    -135.897000   66.903300  -58.952600
  C    -135.253000   65.302000  -59.133100
  C    -135.627000   64.479500  -58.074600
  C    -136.420000   65.226800  -57.107800
  C    -136.697000   66.535000  -57.410000
  H    -136.745000   64.730600  -56.227500
  C    -135.148000   63.053600  -57.836200
  H    -134.685000   62.992000  -56.895600
  H    -134.388000   62.956700  -58.553200
  C    -136.189000   61.908400  -57.741600
  H    -136.797000   61.659800  -58.619300
  H    -135.530000   61.038900  -57.717300
  C    -137.170000   61.957700  -56.513700
  H    -136.605000   62.198700  -55.540100
  H    -137.916000   62.753100  -56.642100
  H    -137.647000   61.048000  -56.388000
  S    -138.877000   68.219500  -57.193900
  C    -139.122000   69.145700  -55.659500
  C    -138.087000   68.910900  -54.805100
  C    -137.183000   67.903800  -55.214400
  C    -137.406000   67.512100  -56.541800
  H    -138.095000   69.366200  -53.894400
  C    -136.101000   67.353300  -54.285500
  H    -135.466000   68.070400  -53.764900
  H    -135.394000   66.924800  -55.044200
  C    -136.689000   66.379400  -53.217400
  H    -137.587000   65.928500  -53.498500
  H    -137.045000   66.930800  -52.280700
  C    -135.745000   65.330800  -52.715300
  H    -135.843000   64.466400  -53.392100
  H    -136.110000   65.029000  -51.758500
  H    -134.689000   65.606200  -52.715700
  H    -134.669000   65.104200  -59.933200
  H    -139.816000   69.927600  -55.527300

 Total Charge           Charge          ....    0
 Multiplicity           Mult            ....    1
 Number of Electrons    NEL             ....  134
 Basis Dimension        Dim             ....  322

ORBITAL ENERGIES
----------------

  NO   OCC          E(Eh)            E(eV)
   0   2.0000     -88.963901     -2420.8308
   1   2.0000     -88.963066     -2420.8081
   2   2.0000     -10.332102      -281.1508
   3   2.0000     -10.331957      -281.1468
   4   2.0000     -10.315558      -280.7006
   5   2.0000     -10.310269      -280.5567
   6   2.0000     -10.304848      -280.4092
   7   2.0000     -10.302655      -280.3495
   8   2.0000     -10.296202      -280.1739
   9   2.0000     -10.293235      -280.0932
  10   2.0000     -10.291600      -280.0487
  11   2.0000     -10.289713      -279.9973
  12   2.0000     -10.285942      -279.8947
  13   2.0000     -10.285489      -279.8824
  14   2.0000     -10.284123      -279.8452
  15   2.0000     -10.275121      -279.6002
  16   2.0000      -8.077816      -219.8085
  17   2.0000      -8.077778      -219.8075
  18   2.0000      -6.036392      -164.2586
  19   2.0000      -6.036373      -164.2581
  20   2.0000      -6.032414      -164.1503
  21   2.0000      -6.032227      -164.1452
  22   2.0000      -6.028604      -164.0466
  23   2.0000      -6.028469      -164.0430
  24   2.0000      -1.000250       -27.2182
  25   2.0000      -0.980423       -26.6787
  26   2.0000      -0.908415       -24.7192
  27   2.0000      -0.906077       -24.6556
  28   2.0000      -0.870166       -23.6784
  29   2.0000      -0.851995       -23.1840
  30   2.0000      -0.841972       -22.9112
  31   2.0000      -0.821640       -22.3580
  32   2.0000      -0.785882       -21.3849
  33   2.0000      -0.771046       -20.9812
  34   2.0000      -0.706467       -19.2239
  35   2.0000      -0.702516       -19.1164
  36   2.0000      -0.698115       -18.9967
  37   2.0000      -0.664490       -18.0817
  38   2.0000      -0.651032       -17.7155
  39   2.0000      -0.621768       -16.9192
  40   2.0000      -0.596652       -16.2357
  41   2.0000      -0.576090       -15.6762
  42   2.0000      -0.559825       -15.2336
  43   2.0000      -0.550982       -14.9930
  44   2.0000      -0.536539       -14.6000
  45   2.0000      -0.535226       -14.5643
  46   2.0000      -0.519710       -14.1420
  47   2.0000      -0.510961       -13.9040
  48   2.0000      -0.509419       -13.8620
  49   2.0000      -0.499320       -13.5872
  50   2.0000      -0.490266       -13.3408
  51   2.0000      -0.479503       -13.0479
  52   2.0000      -0.474969       -12.9246
  53   2.0000      -0.465416       -12.6646
  54   2.0000      -0.460158       -12.5215
  55   2.0000      -0.446472       -12.1491
  56   2.0000      -0.444910       -12.1066
  57   2.0000      -0.438627       -11.9357
  58   2.0000      -0.432824       -11.7777
  59   2.0000      -0.429682       -11.6923
  60   2.0000      -0.420643       -11.4463
  61   2.0000      -0.411162       -11.1883
  62   2.0000      -0.402788       -10.9604
  63   2.0000      -0.345177        -9.3927
  64   2.0000      -0.329319        -8.9612
  65   2.0000      -0.325476        -8.8567
  66   2.0000      -0.299185        -8.1412
  67   0.0000       0.034531         0.9396
  68   0.0000       0.065736         1.7888
  69   0.0000       0.109223         2.9721
  70   0.0000       0.117399         3.1946
  71   0.0000       0.128650         3.5008

MULLIKEN ATOMIC CHARGES
-----------------------
   0 S :    0.101544
   1 C :   -0.100477
   2 C :   -0.089549
   3 C :    0.039014
   4 C :   -0.130935
   5 H :   -0.013627
   6 C :    0.122729
   7 H :    0.016915
   8 H :    0.003009
   9 C :   -0.075062
  10 H :    0.031098
  11 H :    0.025227
  12 C :   -0.067255
  13 H :    0.034344
  14 H :    0.053622
  15 H :    0.028515
  16 S :    0.092557
  17 C :   -0.074088
  18 C :    0.013036
  19 C :   -0.029626
  20 C :   -0.169858
  21 H :   -0.017348
  22 C :    0.049959
  23 H :    0.031873
  24 H :    0.043364
  25 C :   -0.076405
  26 H :    0.017631
  27 H :    0.027675
  28 C :   -0.029810
  29 H :    0.024688
  30 H :    0.025017
  31 H :    0.037531
  32 H :    0.010286
  33 H :    0.044406
Sum of atomic charges:    0.0000000

LOEWDIN ATOMIC CHARGES
----------------------
   0 S :    0.399372
   1 C :   -0.178052
   2 C :   -0.059590
   3 C :   -0.056439
   4 C :   -0.195877
   5 H :    0.021512
   6 C :   -0.023804
   7 H :    0.029194
   8 H :    0.025626
   9 C :   -0.038963
  10 H :    0.024861
  11 H :    0.025383
  12 C :   -0.064137
  13 H :    0.029278
  14 H :    0.029243
  15 H :    0.017751
  16 S :    0.379643
  17 C :   -0.157192
  18 C :   -0.056251
  19 C :   -0.051401
  20 C :   -0.192929
  21 H :    0.017588
  22 C :   -0.035592
  23 H :    0.031486
  24 H :    0.038268
  25 C :   -0.042986
  26 H :    0.015219
  27 H :    0.029432
  28 C :   -0.061088
  29 H :    0.024607
  30 H :    0.023606
  31 H :    0.026412
  32 H :    0.004475
  33 H :    0.021345

  Mayer bond orders larger than 0.100000
B(  0-S ,  1-C ) :   1.1551 B(  0-S ,  4-C ) :   1.1370 B(  1-C ,  2-C ) :   1.5885
B(  1-C , 32-H ) :   0.9858 B(  2-C ,  3-C ) :   1.2414 B(  2-C ,  6-C ) :   1.0237
B(  3-C ,  4-C ) :   1.5757 B(  3-C ,  5-H ) :   1.0007 B(  4-C , 20-C ) :   1.0098
B(  6-C ,  7-H ) :   0.9369 B(  6-C ,  8-H ) :   0.9372 B(  6-C ,  9-C ) :   1.0576
B(  9-C , 10-H ) :   0.9573 B(  9-C , 11-H ) :   0.9572 B(  9-C , 12-C ) :   1.0708
B( 12-C , 13-H ) :   0.9743 B( 12-C , 14-H ) :   0.9710 B( 12-C , 15-H ) :   0.9716
B( 16-S , 17-C ) :   1.1291 B( 16-S , 20-C ) :   1.1485 B( 17-C , 18-C ) :   1.6355
B( 17-C , 20-C ) :   0.1028 B( 17-C , 33-H ) :   0.9695 B( 18-C , 19-C ) :   1.2258
B( 18-C , 21-H ) :   1.0005 B( 19-C , 20-C ) :   1.6025 B( 19-C , 22-C ) :   1.0421
B( 22-C , 23-H ) :   0.9374 B( 22-C , 24-H ) :   0.9446 B( 22-C , 25-C ) :   1.0312
B( 25-C , 26-H ) :   0.9612 B( 25-C , 27-H ) :   0.9568 B( 25-C , 28-C ) :   1.0865
B( 28-C , 29-H ) :   0.9772 B( 28-C , 30-H ) :   0.9729 B( 28-C , 31-H ) :   0.9753

Dispersion correction           -0.014906039
FINAL SINGLE POINT ENERGY     -1339.860690511242

DIPOLE MOMENT
-------------
                                X             Y             Z
Electronic contribution:     -6.81918      22.41203     -18.66135
Nuclear contribution   :      7.07377     -22.90882      19.23766
                        -----------------------------------------
Total Dipole Moment    :      0.25459      -0.49679       0.57631
                        -----------------------------------------
Magnitude (a.u.)       :      0.80234
Magnitude (Debye)      :      2.03939

Rotational constants in cm-1:     0.016382     0.009896     0.007395
Rotational constants in MHz :   491.126089   296.676562   221.685479

                             ****ORCA TERMINATED NORMALLY****
TOTAL RUN TIME: 0 days 0 hours 0 minutes 22 seconds 290 msec
