                         Program Version 4.2.1 -  RELEASE  -
|  1> ! wB97X-D3 SP def2-SVP
|  2> %pal
|  3> nprocs 24
|  4> end
|  5>
|  6> * xyz 0 1
|  7> S 	 -37.4369 	 -43.5939 	 -79.6468
|  8> C 	 -37.6812 	 -42.1737 	 -78.5815
|  9> C 	 -36.4684 	 -41.8545 	 -77.971
| 10> C 	 -35.3599 	 -42.5603 	 -78.4413
| 11> C 	 -35.6899 	 -43.5896 	 -79.3102
| 12> H 	 -34.4025 	 -42.5165 	 -78.0852
| 13> C 	 -36.2731 	 -40.868 	 -76.9232
| 14> H 	 -35.684 	 -41.1558 	 -76.076
| 15> H 	 -37.2818 	 -40.8032 	 -76.4738
| 16> C 	 -35.7081 	 -39.4673 	 -77.3743
| 17> H 	 -34.6553 	 -39.5911 	 -77.6475
| 18> H 	 -36.2025 	 -39.0094 	 -78.2055
| 19> C 	 -35.6227 	 -38.4872 	 -76.2154
| 20> H 	 -34.8278 	 -38.6694 	 -75.5059
| 21> H 	 -35.4327 	 -37.4295 	 -76.531
| 22> H 	 -36.5837 	 -38.5336 	 -75.6667
| 23> S 	 -35.0054 	 -46.2969 	 -79.7307
| 24> C 	 -33.7603 	 -46.6747 	 -80.9345
| 25> C 	 -33.3163 	 -45.4933 	 -81.4802
| 26> C 	 -33.8382 	 -44.2201 	 -80.8943
| 27> C 	 -34.8206 	 -44.5136 	 -80.0071
| 28> H 	 -32.7128 	 -45.5541 	 -82.3617
| 29> C 	 -33.3705 	 -42.9058 	 -81.3404
| 30> H 	 -32.4257 	 -42.9474 	 -81.8431
| 31> H 	 -33.0508 	 -42.5596 	 -80.3749
| 32> C 	 -34.3997 	 -41.9263 	 -82.0107
| 33> H 	 -35.2835 	 -41.811 	 -81.3943
| 34> H 	 -34.7661 	 -42.3797 	 -82.9873
| 35> C 	 -33.8632 	 -40.4766 	 -82.2625
| 36> H 	 -33.6022 	 -40.2023 	 -81.306
| 37> H 	 -34.7464 	 -39.9559 	 -82.6914
| 38> H 	 -33.0789 	 -40.5918 	 -82.9127
| 39> H 	 -38.6388 	 -41.7088 	 -78.4063
| 40> H 	 -33.5607 	 -47.6195 	 -81.447
| 41> *
| 42>
| 43>                          ****END OF INPUT****

CARTESIAN COORDINATES (ANGSTROEM)
---------------------------------
  S    -37.436900  -43.593900  -79.646800
  C    -37.681200  -42.173700  -78.581500
  C    -36.468400  -41.854500  -77.971000
  C    -35.359900  -42.560300  -78.441300
  C    -35.689900  -43.589600  -79.310200
  H    -34.402500  -42.516500  -78.085200
  C    -36.273100  -40.868000  -76.923200
  H    -35.684000  -41.155800  -76.076000
  H    -37.281800  -40.803200  -76.473800
  C    -35.708100  -39.467300  -77.374300
  H    -34.655300  -39.591100  -77.647500
  H    -36.202500  -39.009400  -78.205500
  C    -35.622700  -38.487200  -76.215400
  H    -34.827800  -38.669400  -75.505900
  H    -35.432700  -37.429500  -76.531000
  H    -36.583700  -38.533600  -75.666700
  S    -35.005400  -46.296900  -79.730700
  C    -33.760300  -46.674700  -80.934500
  C    -33.316300  -45.493300  -81.480200
  C    -33.838200  -44.220100  -80.894300
  C    -34.820600  -44.513600  -80.007100
  H    -32.712800  -45.554100  -82.361700
  C    -33.370500  -42.905800  -81.340400
  H    -32.425700  -42.947400  -81.843100
  H    -33.050800  -42.559600  -80.374900
  C    -34.399700  -41.926300  -82.010700
  H    -35.283500  -41.811000  -81.394300
  H    -34.766100  -42.379700  -82.987300
  C    -33.863200  -40.476600  -82.262500
  H    -33.602200  -40.202300  -81.306000
  H    -34.746400  -39.955900  -82.691400
  H    -33.078900  -40.591800  -82.912700
  H    -38.638800  -41.708800  -78.406300
  H    -33.560700  -47.619500  -81.447000

 Total Charge           Charge          ....    0
 Multiplicity           Mult            ....    1
 Number of Electrons    NEL             ....  134
 Basis Dimension        Dim             ....  322

ORBITAL ENERGIES
----------------

  NO   OCC          E(Eh)            E(eV)
   0   2.0000     -88.968026     -2420.9431
   1   2.0000     -88.961503     -2420.7656
   2   2.0000     -10.331550      -281.1358
   3   2.0000     -10.325918      -280.9825
   4   2.0000     -10.320249      -280.8282
   5   2.0000     -10.318428      -280.7787
   6   2.0000     -10.306132      -280.4441
   7   2.0000     -10.298427      -280.2344
   8   2.0000     -10.294155      -280.1182
   9   2.0000     -10.289991      -280.0049
  10   2.0000     -10.289074      -279.9799
  11   2.0000     -10.288829      -279.9733
  12   2.0000     -10.288523      -279.9649
  13   2.0000     -10.286755      -279.9168
  14   2.0000     -10.280869      -279.7567
  15   2.0000     -10.269252      -279.4406
  16   2.0000      -8.081393      -219.9059
  17   2.0000      -8.075040      -219.7330
  18   2.0000      -6.039926      -164.3547
  19   2.0000      -6.036020      -164.2484
  20   2.0000      -6.033993      -164.1933
  21   2.0000      -6.032264      -164.1463
  22   2.0000      -6.029772      -164.0784
  23   2.0000      -6.025328      -163.9575
  24   2.0000      -1.001973       -27.2651
  25   2.0000      -0.977952       -26.6114
  26   2.0000      -0.913425       -24.8556
  27   2.0000      -0.907667       -24.6989
  28   2.0000      -0.869967       -23.6730
  29   2.0000      -0.855620       -23.2826
  30   2.0000      -0.847854       -23.0713
  31   2.0000      -0.816712       -22.2239
  32   2.0000      -0.783902       -21.3311
  33   2.0000      -0.769241       -20.9321
  34   2.0000      -0.710769       -19.3410
  35   2.0000      -0.702798       -19.1241
  36   2.0000      -0.693344       -18.8669
  37   2.0000      -0.659190       -17.9375
  38   2.0000      -0.649770       -17.6811
  39   2.0000      -0.622852       -16.9487
  40   2.0000      -0.590251       -16.0615
  41   2.0000      -0.576182       -15.6787
  42   2.0000      -0.568775       -15.4772
  43   2.0000      -0.555469       -15.1151
  44   2.0000      -0.534761       -14.5516
  45   2.0000      -0.528989       -14.3945
  46   2.0000      -0.523762       -14.2523
  47   2.0000      -0.516019       -14.0416
  48   2.0000      -0.512206       -13.9378
  49   2.0000      -0.497624       -13.5410
  50   2.0000      -0.490971       -13.3600
  51   2.0000      -0.487043       -13.2531
  52   2.0000      -0.472483       -12.8569
  53   2.0000      -0.460391       -12.5279
  54   2.0000      -0.453307       -12.3351
  55   2.0000      -0.448756       -12.2113
  56   2.0000      -0.436367       -11.8742
  57   2.0000      -0.435435       -11.8488
  58   2.0000      -0.430883       -11.7249
  59   2.0000      -0.427271       -11.6266
  60   2.0000      -0.419242       -11.4082
  61   2.0000      -0.415281       -11.3004
  62   2.0000      -0.409821       -11.1518
  63   2.0000      -0.339611        -9.2413
  64   2.0000      -0.333298        -9.0695
  65   2.0000      -0.322415        -8.7734
  66   2.0000      -0.298122        -8.1123
  67   0.0000       0.028554         0.7770
  68   0.0000       0.061925         1.6851
  69   0.0000       0.113894         3.0992
  70   0.0000       0.116971         3.1829
  71   0.0000       0.124445         3.3863

MULLIKEN ATOMIC CHARGES
-----------------------
   0 S :    0.107409
   1 C :   -0.129489
   2 C :   -0.046018
   3 C :    0.065902
   4 C :   -0.175365
   5 H :   -0.017054
   6 C :    0.044210
   7 H :    0.023014
   8 H :    0.014350
   9 C :   -0.050727
  10 H :    0.024105
  11 H :    0.030386
  12 C :   -0.069044
  13 H :    0.029327
  14 H :    0.039400
  15 H :    0.029367
  16 S :    0.089537
  17 C :   -0.084748
  18 C :   -0.047370
  19 C :   -0.022432
  20 C :   -0.175350
  21 H :    0.012769
  22 C :    0.116476
  23 H :    0.004441
  24 H :    0.007944
  25 C :   -0.120223
  26 H :    0.043278
  27 H :    0.035284
  28 C :    0.018249
  29 H :    0.016351
  30 H :    0.049682
  31 H :    0.018051
  32 H :    0.049358
  33 H :    0.068930
Sum of atomic charges:    0.0000000

LOEWDIN ATOMIC CHARGES
----------------------
   0 S :    0.387192
   1 C :   -0.185238
   2 C :   -0.064530
   3 C :   -0.050248
   4 C :   -0.173823
   5 H :    0.019135
   6 C :   -0.036095
   7 H :    0.030679
   8 H :    0.031958
   9 C :   -0.035051
  10 H :    0.024646
  11 H :    0.021798
  12 C :   -0.072505
  13 H :    0.021404
  14 H :    0.031737
  15 H :    0.024503
  16 S :    0.358104
  17 C :   -0.186331
  18 C :   -0.066692
  19 C :   -0.043768
  20 C :   -0.187811
  21 H :    0.024019
  22 C :   -0.041463
  23 H :    0.028757
  24 H :    0.035591
  25 C :   -0.032390
  26 H :    0.022194
  27 H :    0.025518
  28 C :   -0.044130
  29 H :    0.014477
  30 H :    0.038418
  31 H :    0.011618
  32 H :    0.028403
  33 H :    0.039925

  Mayer bond orders larger than 0.100000
B(  0-S ,  1-C ) :   1.1314 B(  0-S ,  4-C ) :   1.1505 B(  1-C ,  2-C ) :   1.5835
B(  1-C ,  4-C ) :   0.1090 B(  1-C , 32-H ) :   0.9727 B(  2-C ,  3-C ) :   1.2353
B(  2-C ,  6-C ) :   1.0445 B(  3-C ,  4-C ) :   1.5719 B(  3-C ,  5-H ) :   1.0109
B(  4-C , 20-C ) :   1.0374 B(  6-C ,  7-H ) :   0.9408 B(  6-C ,  8-H ) :   0.9334
B(  6-C ,  9-C ) :   1.0522 B(  9-C , 10-H ) :   0.9541 B(  9-C , 11-H ) :   0.9603
B(  9-C , 12-C ) :   1.0812 B( 12-C , 13-H ) :   0.9753 B( 12-C , 14-H ) :   0.9739
B( 12-C , 15-H ) :   0.9754 B( 16-S , 17-C ) :   1.1140 B( 16-S , 20-C ) :   1.1031
B( 17-C , 18-C ) :   1.6843 B( 17-C , 33-H ) :   0.9598 B( 18-C , 19-C ) :   1.1715
B( 18-C , 21-H ) :   0.9843 B( 19-C , 20-C ) :   1.6541 B( 19-C , 22-C ) :   1.0430
B( 22-C , 23-H ) :   0.9230 B( 22-C , 24-H ) :   0.9125 B( 22-C , 25-C ) :   1.0489
B( 25-C , 26-H ) :   0.9583 B( 25-C , 27-H ) :   0.9590 B( 25-C , 28-C ) :   1.0650
B( 28-C , 29-H ) :   0.9798 B( 28-C , 30-H ) :   0.9751 B( 28-C , 31-H ) :   0.9796

Dispersion correction           -0.014823073
FINAL SINGLE POINT ENERGY     -1339.853746469772

DIPOLE MOMENT
-------------
                                X             Y             Z
Electronic contribution:     -7.79826     -29.33611      -2.43596
Nuclear contribution   :      8.13860      29.96549       2.37023
                        -----------------------------------------
Total Dipole Moment    :      0.34033       0.62938      -0.06573
                        -----------------------------------------
Magnitude (a.u.)       :      0.71852
Magnitude (Debye)      :      1.82633

Rotational constants in cm-1:     0.019591     0.008577     0.007047
Rotational constants in MHz :   587.328490   257.140082   211.259558

                             ****ORCA TERMINATED NORMALLY****
TOTAL RUN TIME: 0 days 0 hours 0 minutes 20 seconds 984 msec
