                         Program Version 4.2.1 -  RELEASE  -
|  1> ! wB97X-D3 SP def2-SVP
|  2> %pal
|  3> nprocs 24
|  4> end
|  5>
|  6> * xyz 0 1
|  7> S 	 -145.167 	 17.6087 	 -4.7542
|  8> C 	 -143.726 	 16.7049 	 -4.88526
|  9> C 	 -143.844 	 15.4169 	 -4.31816
| 10> C 	 -145.173 	 15.2538 	 -3.83342
| 11> C 	 -146.082 	 16.2716 	 -4.05007
| 12> H 	 -145.643 	 14.3066 	 -3.51766
| 13> C 	 -142.7 	 14.4568 	 -4.46147
| 14> H 	 -142.048 	 14.4373 	 -3.62169
| 15> H 	 -142.081 	 14.7093 	 -5.34596
| 16> C 	 -143.029 	 12.9383 	 -4.58573
| 17> H 	 -142.144 	 12.262 	 -4.65709
| 18> H 	 -143.688 	 12.635 	 -3.75427
| 19> C 	 -143.827 	 12.6681 	 -5.93346
| 20> H 	 -143.149 	 12.4952 	 -6.72315
| 21> H 	 -144.462 	 11.7385 	 -5.89899
| 22> H 	 -144.529 	 13.5381 	 -6.07233
| 23> S 	 -147.945 	 17.6659 	 -2.57618
| 24> C 	 -149.565 	 17.0948 	 -2.48055
| 25> C 	 -149.664 	 15.8007 	 -2.9154
| 26> C 	 -148.395 	 15.353 	 -3.46125
| 27> C 	 -147.415 	 16.3186 	 -3.5003
| 28> H 	 -150.526 	 15.2029 	 -2.70291
| 29> C 	 -148.399 	 14.0087 	 -4.19874
| 30> H 	 -147.45 	 13.727 	 -4.53825
| 31> H 	 -148.965 	 14.1546 	 -5.12353
| 32> C 	 -148.803 	 12.8252 	 -3.27793
| 33> H 	 -149.833 	 12.9921 	 -2.83931
| 34> H 	 -148.155 	 12.6582 	 -2.38348
| 35> C 	 -148.723 	 11.5308 	 -4.08007
| 36> H 	 -149.653 	 11.4555 	 -4.64572
| 37> H 	 -148.931 	 10.6576 	 -3.4579
| 38> H 	 -147.905 	 11.421 	 -4.70343
| 39> H 	 -142.854 	 17.0115 	 -5.48175
| 40> H 	 -150.264 	 17.5542 	 -1.76216
| 41> *
| 42>
| 43>                          ****END OF INPUT****

CARTESIAN COORDINATES (ANGSTROEM)
---------------------------------
  S    -145.167000   17.608700   -4.754200
  C    -143.726000   16.704900   -4.885260
  C    -143.844000   15.416900   -4.318160
  C    -145.173000   15.253800   -3.833420
  C    -146.082000   16.271600   -4.050070
  H    -145.643000   14.306600   -3.517660
  C    -142.700000   14.456800   -4.461470
  H    -142.048000   14.437300   -3.621690
  H    -142.081000   14.709300   -5.345960
  C    -143.029000   12.938300   -4.585730
  H    -142.144000   12.262000   -4.657090
  H    -143.688000   12.635000   -3.754270
  C    -143.827000   12.668100   -5.933460
  H    -143.149000   12.495200   -6.723150
  H    -144.462000   11.738500   -5.898990
  H    -144.529000   13.538100   -6.072330
  S    -147.945000   17.665900   -2.576180
  C    -149.565000   17.094800   -2.480550
  C    -149.664000   15.800700   -2.915400
  C    -148.395000   15.353000   -3.461250
  C    -147.415000   16.318600   -3.500300
  H    -150.526000   15.202900   -2.702910
  C    -148.399000   14.008700   -4.198740
  H    -147.450000   13.727000   -4.538250
  H    -148.965000   14.154600   -5.123530
  C    -148.803000   12.825200   -3.277930
  H    -149.833000   12.992100   -2.839310
  H    -148.155000   12.658200   -2.383480
  C    -148.723000   11.530800   -4.080070
  H    -149.653000   11.455500   -4.645720
  H    -148.931000   10.657600   -3.457900
  H    -147.905000   11.421000   -4.703430
  H    -142.854000   17.011500   -5.481750
  H    -150.264000   17.554200   -1.762160

 Total Charge           Charge          ....    0
 Multiplicity           Mult            ....    1
 Number of Electrons    NEL             ....  134
 Basis Dimension        Dim             ....  322

ORBITAL ENERGIES
----------------

  NO   OCC          E(Eh)            E(eV)
   0   2.0000     -88.970182     -2421.0017
   1   2.0000     -88.962246     -2420.7858
   2   2.0000     -10.331233      -281.1272
   3   2.0000     -10.325494      -280.9710
   4   2.0000     -10.318438      -280.7790
   5   2.0000     -10.314682      -280.6768
   6   2.0000     -10.308344      -280.5043
   7   2.0000     -10.302217      -280.3376
   8   2.0000     -10.298570      -280.2383
   9   2.0000     -10.296036      -280.1694
  10   2.0000     -10.295507      -280.1550
  11   2.0000     -10.295456      -280.1536
  12   2.0000     -10.293436      -280.0986
  13   2.0000     -10.288658      -279.9686
  14   2.0000     -10.279502      -279.7195
  15   2.0000     -10.271971      -279.5145
  16   2.0000      -8.085070      -220.0060
  17   2.0000      -8.078418      -219.8249
  18   2.0000      -6.043515      -164.4524
  19   2.0000      -6.039341      -164.3388
  20   2.0000      -6.036898      -164.2723
  21   2.0000      -6.036086      -164.2502
  22   2.0000      -6.032749      -164.1594
  23   2.0000      -6.029078      -164.0596
  24   2.0000      -1.013837       -27.5879
  25   2.0000      -0.991504       -26.9802
  26   2.0000      -0.910259       -24.7694
  27   2.0000      -0.909459       -24.7476
  28   2.0000      -0.875737       -23.8300
  29   2.0000      -0.851905       -23.1815
  30   2.0000      -0.842023       -22.9126
  31   2.0000      -0.819220       -22.2921
  32   2.0000      -0.783113       -21.3096
  33   2.0000      -0.771705       -20.9992
  34   2.0000      -0.709124       -19.2962
  35   2.0000      -0.700696       -19.0669
  36   2.0000      -0.688057       -18.7230
  37   2.0000      -0.660056       -17.9610
  38   2.0000      -0.641303       -17.4508
  39   2.0000      -0.623343       -16.9620
  40   2.0000      -0.602670       -16.3995
  41   2.0000      -0.573816       -15.6143
  42   2.0000      -0.562676       -15.3112
  43   2.0000      -0.551882       -15.0175
  44   2.0000      -0.544068       -14.8048
  45   2.0000      -0.530208       -14.4277
  46   2.0000      -0.522633       -14.2216
  47   2.0000      -0.513274       -13.9669
  48   2.0000      -0.507228       -13.8024
  49   2.0000      -0.497994       -13.5511
  50   2.0000      -0.493477       -13.4282
  51   2.0000      -0.480753       -13.0820
  52   2.0000      -0.470874       -12.8131
  53   2.0000      -0.467962       -12.7339
  54   2.0000      -0.464815       -12.6483
  55   2.0000      -0.453152       -12.3309
  56   2.0000      -0.443083       -12.0569
  57   2.0000      -0.434054       -11.8112
  58   2.0000      -0.426506       -11.6058
  59   2.0000      -0.419290       -11.4095
  60   2.0000      -0.418522       -11.3886
  61   2.0000      -0.414777       -11.2867
  62   2.0000      -0.406710       -11.0672
  63   2.0000      -0.359031        -9.7697
  64   2.0000      -0.331476        -9.0199
  65   2.0000      -0.328106        -8.9282
  66   2.0000      -0.290594        -7.9075
  67   0.0000       0.027553         0.7497
  68   0.0000       0.070142         1.9087
  69   0.0000       0.109258         2.9731
  70   0.0000       0.118035         3.2119
  71   0.0000       0.127013         3.4562

MULLIKEN ATOMIC CHARGES
-----------------------
   0 S :    0.128714
   1 C :   -0.134018
   2 C :   -0.076704
   3 C :    0.017028
   4 C :   -0.177281
   5 H :    0.021192
   6 C :    0.083621
   7 H :    0.037462
   8 H :    0.030520
   9 C :   -0.121845
  10 H :    0.043294
  11 H :    0.039616
  12 C :   -0.093312
  13 H :    0.028197
  14 H :    0.034415
  15 H :    0.054845
  16 S :    0.106407
  17 C :   -0.096536
  18 C :   -0.027819
  19 C :   -0.052523
  20 C :   -0.120540
  21 H :    0.021210
  22 C :    0.078362
  23 H :   -0.015508
  24 H :    0.048375
  25 C :   -0.128078
  26 H :    0.032924
  27 H :    0.041111
  28 C :   -0.007700
  29 H :    0.016496
  30 H :    0.023121
  31 H :    0.027983
  32 H :    0.065747
  33 H :    0.071225
Sum of atomic charges:    0.0000000

LOEWDIN ATOMIC CHARGES
----------------------
   0 S :    0.426997
   1 C :   -0.206595
   2 C :   -0.067889
   3 C :   -0.063515
   4 C :   -0.197761
   5 H :    0.032133
   6 C :   -0.033333
   7 H :    0.031337
   8 H :    0.035831
   9 C :   -0.043631
  10 H :    0.030242
  11 H :    0.022539
  12 C :   -0.076829
  13 H :    0.015604
  14 H :    0.026977
  15 H :    0.031115
  16 S :    0.426110
  17 C :   -0.196695
  18 C :   -0.067727
  19 C :   -0.058185
  20 C :   -0.207997
  21 H :    0.029509
  22 C :   -0.028232
  23 H :    0.013530
  24 H :    0.039151
  25 C :   -0.041586
  26 H :    0.024357
  27 H :    0.028247
  28 C :   -0.065906
  29 H :    0.028673
  30 H :    0.028825
  31 H :    0.014523
  32 H :    0.035552
  33 H :    0.034630

  Mayer bond orders larger than 0.100000
B(  0-S ,  1-C ) :   1.1820 B(  0-S ,  4-C ) :   1.1472 B(  1-C ,  2-C ) :   1.5521
B(  1-C ,  4-C ) :   0.1064 B(  1-C , 32-H ) :   0.9637 B(  2-C ,  3-C ) :   1.2786
B(  2-C ,  6-C ) :   1.0203 B(  3-C ,  4-C ) :   1.5531 B(  3-C ,  5-H ) :   0.9801
B(  4-C , 20-C ) :   1.0629 B(  6-C ,  7-H ) :   0.9307 B(  6-C ,  8-H ) :   0.9479
B(  6-C ,  9-C ) :   1.0695 B(  9-C , 10-H ) :   0.9609 B(  9-C , 11-H ) :   0.9573
B(  9-C , 12-C ) :   1.0591 B( 12-C , 13-H ) :   0.9793 B( 12-C , 14-H ) :   0.9779
B( 12-C , 15-H ) :   0.9778 B( 16-S , 17-C ) :   1.1636 B( 16-S , 20-C ) :   1.1451
B( 17-C , 18-C ) :   1.6081 B( 17-C , 33-H ) :   0.9598 B( 18-C , 19-C ) :   1.2398
B( 18-C , 21-H ) :   0.9930 B( 19-C , 20-C ) :   1.5891 B( 19-C , 22-C ) :   1.0432
B( 22-C , 23-H ) :   0.9345 B( 22-C , 24-H ) :   0.9457 B( 22-C , 25-C ) :   1.0407
B( 25-C , 26-H ) :   0.9574 B( 25-C , 27-H ) :   0.9601 B( 25-C , 28-C ) :   1.0863
B( 28-C , 29-H ) :   0.9694 B( 28-C , 30-H ) :   0.9689 B( 28-C , 31-H ) :   0.9762

Dispersion correction           -0.014507141
FINAL SINGLE POINT ENERGY     -1339.863728274727

DIPOLE MOMENT
-------------
                                X             Y             Z
Electronic contribution:     -2.94578      31.60847       6.00404
Nuclear contribution   :      3.01709     -32.34636      -6.02882
                        -----------------------------------------
Total Dipole Moment    :      0.07132      -0.73789      -0.02479
                        -----------------------------------------
Magnitude (a.u.)       :      0.74174
Magnitude (Debye)      :      1.88537

Rotational constants in cm-1:     0.016198     0.010562     0.006782
Rotational constants in MHz :   485.602754   316.640569   203.314569

                             ****ORCA TERMINATED NORMALLY****
TOTAL RUN TIME: 0 days 0 hours 0 minutes 22 seconds 190 msec
