                         Program Version 4.2.1 -  RELEASE  -
|  1> ! wB97X-D3 SP def2-SVP
|  2> %pal
|  3> nprocs 24
|  4> end
|  5>
|  6> * xyz 0 1
|  7> S 	 -105.082 	 -2.57994 	 -110.057
|  8> C 	 -106.827 	 -2.5203 	 -110.218
|  9> C 	 -107.471 	 -1.69129 	 -109.336
| 10> C 	 -106.483 	 -1.07117 	 -108.533
| 11> C 	 -105.176 	 -1.34984 	 -108.82
| 12> H 	 -106.688 	 -0.499776 	 -107.597
| 13> C 	 -108.947 	 -1.34725 	 -109.253
| 14> H 	 -109.185 	 -2.10158 	 -108.508
| 15> H 	 -109.384 	 -1.60281 	 -110.259
| 16> C 	 -109.242 	 0.138436 	 -108.783
| 17> H 	 -108.768 	 0.356041 	 -107.793
| 18> H 	 -108.832 	 0.896011 	 -109.455
| 19> C 	 -110.71 	 0.530765 	 -108.585
| 20> H 	 -111.288 	 -0.253152 	 -108.163
| 21> H 	 -110.899 	 1.43179 	 -107.919
| 22> H 	 -111.097 	 0.756047 	 -109.568
| 23> S 	 -102.894 	 -1.83167 	 -107.433
| 24> C 	 -102.404 	 -0.66118 	 -106.234
| 25> C 	 -102.94 	 0.590826 	 -106.493
| 26> C 	 -103.89 	 0.530485 	 -107.579
| 27> C 	 -104.005 	 -0.720557 	 -108.153
| 28> H 	 -102.582 	 1.44692 	 -105.988
| 29> C 	 -104.679 	 1.76705 	 -108.117
| 30> H 	 -105.691 	 1.68625 	 -107.672
| 31> H 	 -104.811 	 1.77157 	 -109.239
| 32> C 	 -104.092 	 3.11674 	 -107.78
| 33> H 	 -103.783 	 3.17416 	 -106.7
| 34> H 	 -104.888 	 3.88888 	 -107.871
| 35> C 	 -102.787 	 3.48769 	 -108.633
| 36> H 	 -101.991 	 2.85375 	 -108.29
| 37> H 	 -102.419 	 4.54229 	 -108.399
| 38> H 	 -102.968 	 3.32864 	 -109.688
| 39> H 	 -107.369 	 -3.15254 	 -110.931
| 40> H 	 -101.633 	 -0.881287 	 -105.526
| 41> *
| 42>
| 43>                          ****END OF INPUT****

CARTESIAN COORDINATES (ANGSTROEM)
---------------------------------
  S    -105.082000   -2.579940  -110.057000
  C    -106.827000   -2.520300  -110.218000
  C    -107.471000   -1.691290  -109.336000
  C    -106.483000   -1.071170  -108.533000
  C    -105.176000   -1.349840  -108.820000
  H    -106.688000   -0.499776  -107.597000
  C    -108.947000   -1.347250  -109.253000
  H    -109.185000   -2.101580  -108.508000
  H    -109.384000   -1.602810  -110.259000
  C    -109.242000    0.138436  -108.783000
  H    -108.768000    0.356041  -107.793000
  H    -108.832000    0.896011  -109.455000
  C    -110.710000    0.530765  -108.585000
  H    -111.288000   -0.253152  -108.163000
  H    -110.899000    1.431790  -107.919000
  H    -111.097000    0.756047  -109.568000
  S    -102.894000   -1.831670  -107.433000
  C    -102.404000   -0.661180  -106.234000
  C    -102.940000    0.590826  -106.493000
  C    -103.890000    0.530485  -107.579000
  C    -104.005000   -0.720557  -108.153000
  H    -102.582000    1.446920  -105.988000
  C    -104.679000    1.767050  -108.117000
  H    -105.691000    1.686250  -107.672000
  H    -104.811000    1.771570  -109.239000
  C    -104.092000    3.116740  -107.780000
  H    -103.783000    3.174160  -106.700000
  H    -104.888000    3.888880  -107.871000
  C    -102.787000    3.487690  -108.633000
  H    -101.991000    2.853750  -108.290000
  H    -102.419000    4.542290  -108.399000
  H    -102.968000    3.328640  -109.688000
  H    -107.369000   -3.152540  -110.931000
  H    -101.633000   -0.881287  -105.526000

 Total Charge           Charge          ....    0
 Multiplicity           Mult            ....    1
 Number of Electrons    NEL             ....  134
 Basis Dimension        Dim             ....  322

ORBITAL ENERGIES
----------------

  NO   OCC          E(Eh)            E(eV)
   0   2.0000     -88.964390     -2420.8441
   1   2.0000     -88.962237     -2420.7855
   2   2.0000     -10.326496      -280.9982
   3   2.0000     -10.322584      -280.8918
   4   2.0000     -10.319966      -280.8205
   5   2.0000     -10.310605      -280.5658
   6   2.0000     -10.308280      -280.5026
   7   2.0000     -10.306703      -280.4596
   8   2.0000     -10.298458      -280.2353
   9   2.0000     -10.297984      -280.2224
  10   2.0000     -10.297976      -280.2222
  11   2.0000     -10.297723      -280.2153
  12   2.0000     -10.294160      -280.1183
  13   2.0000     -10.288098      -279.9534
  14   2.0000     -10.282995      -279.8145
  15   2.0000     -10.280169      -279.7376
  16   2.0000      -8.079219      -219.8467
  17   2.0000      -8.077991      -219.8133
  18   2.0000      -6.037707      -164.2943
  19   2.0000      -6.036391      -164.2585
  20   2.0000      -6.033869      -164.1899
  21   2.0000      -6.032293      -164.1470
  22   2.0000      -6.029876      -164.0813
  23   2.0000      -6.028854      -164.0534
  24   2.0000      -1.008013       -27.4294
  25   2.0000      -0.986281       -26.8381
  26   2.0000      -0.907935       -24.7062
  27   2.0000      -0.902236       -24.5511
  28   2.0000      -0.869081       -23.6489
  29   2.0000      -0.850306       -23.1380
  30   2.0000      -0.839835       -22.8531
  31   2.0000      -0.813408       -22.1340
  32   2.0000      -0.782490       -21.2926
  33   2.0000      -0.773052       -21.0358
  34   2.0000      -0.708524       -19.2799
  35   2.0000      -0.694834       -18.9074
  36   2.0000      -0.689362       -18.7585
  37   2.0000      -0.656196       -17.8560
  38   2.0000      -0.635749       -17.2996
  39   2.0000      -0.618240       -16.8232
  40   2.0000      -0.600226       -16.3330
  41   2.0000      -0.566577       -15.4173
  42   2.0000      -0.564262       -15.3543
  43   2.0000      -0.548383       -14.9223
  44   2.0000      -0.531979       -14.4759
  45   2.0000      -0.525229       -14.2922
  46   2.0000      -0.522442       -14.2164
  47   2.0000      -0.508746       -13.8437
  48   2.0000      -0.500960       -13.6318
  49   2.0000      -0.498409       -13.5624
  50   2.0000      -0.483295       -13.1511
  51   2.0000      -0.478850       -13.0302
  52   2.0000      -0.473041       -12.8721
  53   2.0000      -0.462309       -12.5801
  54   2.0000      -0.456296       -12.4164
  55   2.0000      -0.451021       -12.2729
  56   2.0000      -0.446161       -12.1407
  57   2.0000      -0.437162       -11.8958
  58   2.0000      -0.430397       -11.7117
  59   2.0000      -0.426724       -11.6118
  60   2.0000      -0.421054       -11.4575
  61   2.0000      -0.416604       -11.3364
  62   2.0000      -0.411562       -11.1992
  63   2.0000      -0.349218        -9.5027
  64   2.0000      -0.330688        -8.9985
  65   2.0000      -0.325955        -8.8697
  66   2.0000      -0.288971        -7.8633
  67   0.0000       0.030338         0.8255
  68   0.0000       0.072056         1.9607
  69   0.0000       0.105870         2.8809
  70   0.0000       0.124453         3.3865
  71   0.0000       0.131098         3.5674

MULLIKEN ATOMIC CHARGES
-----------------------
   0 S :    0.106916
   1 C :   -0.148672
   2 C :   -0.083721
   3 C :   -0.033648
   4 C :   -0.124317
   5 H :    0.033291
   6 C :    0.088022
   7 H :    0.051744
   8 H :    0.042527
   9 C :   -0.112630
  10 H :    0.036469
  11 H :    0.041830
  12 C :   -0.044785
  13 H :    0.023466
  14 H :    0.044116
  15 H :    0.027540
  16 S :    0.095858
  17 C :   -0.092179
  18 C :   -0.013102
  19 C :   -0.090626
  20 C :   -0.106239
  21 H :    0.011640
  22 C :    0.056017
  23 H :    0.037127
  24 H :    0.051076
  25 C :   -0.114083
  26 H :    0.027891
  27 H :    0.035060
  28 C :   -0.060214
  29 H :    0.031094
  30 H :    0.045041
  31 H :    0.040127
  32 H :    0.042500
  33 H :    0.054863
Sum of atomic charges:   -0.0000000

LOEWDIN ATOMIC CHARGES
----------------------
   0 S :    0.394303
   1 C :   -0.200654
   2 C :   -0.067246
   3 C :   -0.073119
   4 C :   -0.193928
   5 H :    0.035817
   6 C :   -0.028444
   7 H :    0.042968
   8 H :    0.039056
   9 C :   -0.045704
  10 H :    0.027296
  11 H :    0.028561
  12 C :   -0.068112
  13 H :    0.018349
  14 H :    0.036007
  15 H :    0.022146
  16 S :    0.415841
  17 C :   -0.172345
  18 C :   -0.070344
  19 C :   -0.053749
  20 C :   -0.209876
  21 H :    0.026129
  22 C :   -0.037972
  23 H :    0.034024
  24 H :    0.040731
  25 C :   -0.050440
  26 H :    0.022446
  27 H :    0.026727
  28 C :   -0.067104
  29 H :    0.021560
  30 H :    0.034113
  31 H :    0.023023
  32 H :    0.025767
  33 H :    0.024177

  Mayer bond orders larger than 0.100000
B(  0-S ,  1-C ) :   1.1366 B(  0-S ,  4-C ) :   1.1351 B(  1-C ,  2-C ) :   1.6388
B(  1-C , 32-H ) :   0.9617 B(  2-C ,  3-C ) :   1.2422 B(  2-C ,  6-C ) :   0.9862
B(  3-C ,  4-C ) :   1.6184 B(  3-C ,  5-H ) :   0.9737 B(  4-C , 20-C ) :   0.9926
B(  6-C ,  7-H ) :   0.9275 B(  6-C ,  8-H ) :   0.9489 B(  6-C ,  9-C ) :   1.0643
B(  9-C , 10-H ) :   0.9505 B(  9-C , 11-H ) :   0.9634 B(  9-C , 12-C ) :   1.0813
B( 12-C , 13-H ) :   0.9754 B( 12-C , 14-H ) :   0.9759 B( 12-C , 15-H ) :   0.9774
B( 16-S , 17-C ) :   1.1848 B( 16-S , 20-C ) :   1.1399 B( 17-C , 18-C ) :   1.5784
B( 17-C , 33-H ) :   0.9686 B( 18-C , 19-C ) :   1.2470 B( 18-C , 21-H ) :   0.9976
B( 19-C , 20-C ) :   1.6173 B( 19-C , 22-C ) :   1.0039 B( 22-C , 23-H ) :   0.9285
B( 22-C , 24-H ) :   0.9494 B( 22-C , 25-C ) :   1.0836 B( 25-C , 26-H ) :   0.9494
B( 25-C , 27-H ) :   0.9561 B( 25-C , 28-C ) :   1.0613 B( 28-C , 29-H ) :   0.9771
B( 28-C , 30-H ) :   0.9766 B( 28-C , 31-H ) :   0.9775

Dispersion correction           -0.014187806
FINAL SINGLE POINT ENERGY     -1339.871232729178

DIPOLE MOMENT
-------------
                                X             Y             Z
Electronic contribution:     17.29353     -23.82883      -1.75336
Nuclear contribution   :    -17.75826      24.34232       2.05473
                        -----------------------------------------
Total Dipole Moment    :     -0.46473       0.51349       0.30137
                        -----------------------------------------
Magnitude (a.u.)       :      0.75530
Magnitude (Debye)      :      1.91982

Rotational constants in cm-1:     0.016508     0.009061     0.006717
Rotational constants in MHz :   494.894425   271.642227   201.373940

                             ****ORCA TERMINATED NORMALLY****
TOTAL RUN TIME: 0 days 0 hours 0 minutes 21 seconds 451 msec
