                         Program Version 4.2.1 -  RELEASE  -
|  1> ! wB97X-D3 SP def2-SVP
|  2> %pal
|  3> nprocs 24
|  4> end
|  5>
|  6> * xyz 0 1
|  7> S 	 -103.551 	 39.9702 	 -91.013
|  8> C 	 -103.188 	 38.7832 	 -89.7677
|  9> C 	 -102.364 	 37.8027 	 -90.2417
| 10> C 	 -102.007 	 38.0144 	 -91.6076
| 11> C 	 -102.446 	 39.1604 	 -92.129
| 12> H 	 -101.309 	 37.4225 	 -92.1703
| 13> C 	 -101.879 	 36.6579 	 -89.3789
| 14> H 	 -102.508 	 35.7899 	 -89.3763
| 15> H 	 -101.894 	 36.9231 	 -88.3264
| 16> C 	 -100.423 	 36.2994 	 -89.6811
| 17> H 	 -100.506 	 35.8213 	 -90.5951
| 18> H 	 -99.8156 	 37.2074 	 -89.7429
| 19> C 	 -99.7994 	 35.3094 	 -88.638
| 20> H 	 -99.1208 	 34.7257 	 -89.1702
| 21> H 	 -99.344 	 35.7388 	 -87.7589
| 22> H 	 -100.462 	 34.4668 	 -88.4177
| 23> S 	 -102.744 	 39.1413 	 -94.8463
| 24> C 	 -101.663 	 40.1313 	 -95.7899
| 25> C 	 -100.883 	 40.9914 	 -95.0163
| 26> C 	 -101.143 	 40.809 	 -93.6143
| 27> C 	 -102.028 	 39.7586 	 -93.3677
| 28> H 	 -100.281 	 41.776 	 -95.4737
| 29> C 	 -100.414 	 41.6553 	 -92.5718
| 30> H 	 -101.27 	 41.7725 	 -91.961
| 31> H 	 -100.294 	 42.6599 	 -93.0437
| 32> C 	 -99.2392 	 41.0322 	 -91.7773
| 33> H 	 -98.3427 	 40.686 	 -92.3207
| 34> H 	 -99.6616 	 40.0963 	 -91.279
| 35> C 	 -98.6628 	 42.0051 	 -90.7357
| 36> H 	 -97.8216 	 41.604 	 -90.2353
| 37> H 	 -99.4371 	 42.1446 	 -90.0017
| 38> H 	 -98.5762 	 42.9982 	 -91.138
| 39> H 	 -103.552 	 38.7966 	 -88.7419
| 40> H 	 -101.605 	 40.0425 	 -96.8312
| 41> *
| 42>
| 43>                          ****END OF INPUT****

CARTESIAN COORDINATES (ANGSTROEM)
---------------------------------
  S    -103.551000   39.970200  -91.013000
  C    -103.188000   38.783200  -89.767700
  C    -102.364000   37.802700  -90.241700
  C    -102.007000   38.014400  -91.607600
  C    -102.446000   39.160400  -92.129000
  H    -101.309000   37.422500  -92.170300
  C    -101.879000   36.657900  -89.378900
  H    -102.508000   35.789900  -89.376300
  H    -101.894000   36.923100  -88.326400
  C    -100.423000   36.299400  -89.681100
  H    -100.506000   35.821300  -90.595100
  H    -99.815600   37.207400  -89.742900
  C    -99.799400   35.309400  -88.638000
  H    -99.120800   34.725700  -89.170200
  H    -99.344000   35.738800  -87.758900
  H    -100.462000   34.466800  -88.417700
  S    -102.744000   39.141300  -94.846300
  C    -101.663000   40.131300  -95.789900
  C    -100.883000   40.991400  -95.016300
  C    -101.143000   40.809000  -93.614300
  C    -102.028000   39.758600  -93.367700
  H    -100.281000   41.776000  -95.473700
  C    -100.414000   41.655300  -92.571800
  H    -101.270000   41.772500  -91.961000
  H    -100.294000   42.659900  -93.043700
  C    -99.239200   41.032200  -91.777300
  H    -98.342700   40.686000  -92.320700
  H    -99.661600   40.096300  -91.279000
  C    -98.662800   42.005100  -90.735700
  H    -97.821600   41.604000  -90.235300
  H    -99.437100   42.144600  -90.001700
  H    -98.576200   42.998200  -91.138000
  H    -103.552000   38.796600  -88.741900
  H    -101.605000   40.042500  -96.831200

 Total Charge           Charge          ....    0
 Multiplicity           Mult            ....    1
 Number of Electrons    NEL             ....  134
 Basis Dimension        Dim             ....  322

ORBITAL ENERGIES
----------------

  NO   OCC          E(Eh)            E(eV)
   0   2.0000     -88.965233     -2420.8671
   1   2.0000     -88.963398     -2420.8171
   2   2.0000     -10.322346      -280.8853
   3   2.0000     -10.321569      -280.8642
   4   2.0000     -10.313808      -280.6530
   5   2.0000     -10.312333      -280.6128
   6   2.0000     -10.304241      -280.3926
   7   2.0000     -10.297877      -280.2195
   8   2.0000     -10.294277      -280.1215
   9   2.0000     -10.292034      -280.0605
  10   2.0000     -10.290281      -280.0128
  11   2.0000     -10.288736      -279.9707
  12   2.0000     -10.285850      -279.8922
  13   2.0000     -10.283034      -279.8156
  14   2.0000     -10.274843      -279.5927
  15   2.0000     -10.268084      -279.4088
  16   2.0000      -8.080070      -219.8699
  17   2.0000      -8.077763      -219.8071
  18   2.0000      -6.038436      -164.3142
  19   2.0000      -6.036350      -164.2574
  20   2.0000      -6.034589      -164.2095
  21   2.0000      -6.032321      -164.1478
  22   2.0000      -6.030961      -164.1108
  23   2.0000      -6.028455      -164.0426
  24   2.0000      -1.008128       -27.4326
  25   2.0000      -0.983350       -26.7583
  26   2.0000      -0.913280       -24.8516
  27   2.0000      -0.903686       -24.5905
  28   2.0000      -0.871726       -23.7209
  29   2.0000      -0.852378       -23.1944
  30   2.0000      -0.845539       -23.0083
  31   2.0000      -0.817493       -22.2451
  32   2.0000      -0.784973       -21.3602
  33   2.0000      -0.771257       -20.9870
  34   2.0000      -0.713876       -19.4256
  35   2.0000      -0.699341       -19.0300
  36   2.0000      -0.687858       -18.7176
  37   2.0000      -0.665824       -18.1180
  38   2.0000      -0.643420       -17.5083
  39   2.0000      -0.622073       -16.9275
  40   2.0000      -0.590473       -16.0676
  41   2.0000      -0.579238       -15.7619
  42   2.0000      -0.563489       -15.3333
  43   2.0000      -0.555373       -15.1125
  44   2.0000      -0.536960       -14.6114
  45   2.0000      -0.518012       -14.0958
  46   2.0000      -0.512822       -13.9546
  47   2.0000      -0.509825       -13.8730
  48   2.0000      -0.505484       -13.7549
  49   2.0000      -0.503800       -13.7091
  50   2.0000      -0.493192       -13.4204
  51   2.0000      -0.479850       -13.0574
  52   2.0000      -0.472659       -12.8617
  53   2.0000      -0.464842       -12.6490
  54   2.0000      -0.458694       -12.4817
  55   2.0000      -0.450261       -12.2522
  56   2.0000      -0.444149       -12.0859
  57   2.0000      -0.443215       -12.0605
  58   2.0000      -0.437819       -11.9137
  59   2.0000      -0.425415       -11.5761
  60   2.0000      -0.420408       -11.4399
  61   2.0000      -0.409243       -11.1361
  62   2.0000      -0.402297       -10.9471
  63   2.0000      -0.337687        -9.1889
  64   2.0000      -0.330811        -9.0018
  65   2.0000      -0.321963        -8.7611
  66   2.0000      -0.305970        -8.3259
  67   0.0000       0.039939         1.0868
  68   0.0000       0.061566         1.6753
  69   0.0000       0.108250         2.9456
  70   0.0000       0.124825         3.3967
  71   0.0000       0.131466         3.5774

MULLIKEN ATOMIC CHARGES
-----------------------
   0 S :    0.105859
   1 C :   -0.127752
   2 C :   -0.074947
   3 C :    0.058134
   4 C :   -0.168646
   5 H :    0.007505
   6 C :    0.085700
   7 H :    0.030531
   8 H :    0.007737
   9 C :   -0.115368
  10 H :    0.024299
  11 H :    0.044803
  12 C :   -0.002958
  13 H :    0.004671
  14 H :    0.048641
  15 H :    0.013718
  16 S :    0.119796
  17 C :   -0.080034
  18 C :   -0.035230
  19 C :   -0.046616
  20 C :   -0.204103
  21 H :    0.024929
  22 C :    0.104080
  23 H :    0.006645
  24 H :    0.022530
  25 C :   -0.083752
  26 H :    0.034757
  27 H :    0.045395
  28 C :   -0.006633
  29 H :    0.031927
  30 H :    0.013898
  31 H :    0.024160
  32 H :    0.047462
  33 H :    0.038864
Sum of atomic charges:   -0.0000000

LOEWDIN ATOMIC CHARGES
----------------------
   0 S :    0.387117
   1 C :   -0.188445
   2 C :   -0.065091
   3 C :   -0.055253
   4 C :   -0.192239
   5 H :    0.031353
   6 C :   -0.031707
   7 H :    0.027873
   8 H :    0.026534
   9 C :   -0.032268
  10 H :    0.013877
  11 H :    0.028822
  12 C :   -0.065440
  13 H :    0.021380
  14 H :    0.027067
  15 H :    0.029157
  16 S :    0.412455
  17 C :   -0.175945
  18 C :   -0.071662
  19 C :   -0.045918
  20 C :   -0.210825
  21 H :    0.034747
  22 C :   -0.037053
  23 H :    0.025359
  24 H :    0.033873
  25 C :   -0.040577
  26 H :    0.023880
  27 H :    0.034679
  28 C :   -0.061507
  29 H :    0.021967
  30 H :    0.023387
  31 H :    0.024100
  32 H :    0.031274
  33 H :    0.015028

  Mayer bond orders larger than 0.100000
B(  0-S ,  1-C ) :   1.1251 B(  0-S ,  4-C ) :   1.1256 B(  1-C ,  2-C ) :   1.6512
B(  1-C , 32-H ) :   0.9674 B(  2-C ,  3-C ) :   1.2063 B(  2-C ,  6-C ) :   1.0189
B(  3-C ,  4-C ) :   1.6325 B(  3-C ,  5-H ) :   0.9936 B(  4-C , 20-C ) :   1.0253
B(  6-C ,  7-H ) :   0.9315 B(  6-C ,  8-H ) :   0.9439 B(  6-C ,  9-C ) :   1.0631
B(  9-C , 10-H ) :   0.9501 B(  9-C , 11-H ) :   0.9639 B(  9-C , 12-C ) :   1.0903
B( 12-C , 13-H ) :   0.9671 B( 12-C , 14-H ) :   0.9779 B( 12-C , 15-H ) :   0.9651
B( 16-S , 17-C ) :   1.1671 B( 16-S , 20-C ) :   1.1484 B( 17-C , 18-C ) :   1.5959
B( 17-C , 20-C ) :   0.1019 B( 17-C , 33-H ) :   0.9739 B( 18-C , 19-C ) :   1.2476
B( 18-C , 21-H ) :   0.9895 B( 19-C , 20-C ) :   1.5946 B( 19-C , 22-C ) :   1.0158
B( 22-C , 23-H ) :   0.9178 B( 22-C , 24-H ) :   0.9328 B( 22-C , 25-C ) :   1.0532
B( 25-C , 26-H ) :   0.9635 B( 25-C , 27-H ) :   0.9521 B( 25-C , 28-C ) :   1.0793
B( 28-C , 29-H ) :   0.9745 B( 28-C , 30-H ) :   0.9734 B( 28-C , 31-H ) :   0.9730

Dispersion correction           -0.014687426
FINAL SINGLE POINT ENERGY     -1339.866458590758

DIPOLE MOMENT
-------------
                                X             Y             Z
Electronic contribution:    -21.20421       5.33250     -17.72504
Nuclear contribution   :     21.72396      -5.52843      17.98729
                        -----------------------------------------
Total Dipole Moment    :      0.51975      -0.19593       0.26225
                        -----------------------------------------
Magnitude (a.u.)       :      0.61425
Magnitude (Debye)      :      1.56130

Rotational constants in cm-1:     0.016960     0.008837     0.007659
Rotational constants in MHz :   508.443913   264.934516   229.600983

                             ****ORCA TERMINATED NORMALLY****
TOTAL RUN TIME: 0 days 0 hours 0 minutes 20 seconds 942 msec
