                         Program Version 4.2.1 -  RELEASE  -
|  1> ! wB97X-D3 SP def2-SVP
|  2> %pal
|  3> nprocs 24
|  4> end
|  5>
|  6> * xyz 0 1
|  7> S 	 -88.3053 	 -46.4282 	 -81.4208
|  8> C 	 -88.3908 	 -45.6841 	 -79.874
|  9> C 	 -87.4784 	 -46.2352 	 -78.9696
| 10> C 	 -86.7445 	 -47.3249 	 -79.5277
| 11> C 	 -87.0604 	 -47.5725 	 -80.83
| 12> H 	 -86.0143 	 -48.0237 	 -79.0432
| 13> C 	 -87.1801 	 -45.7277 	 -77.5382
| 14> H 	 -87.8265 	 -44.8861 	 -77.4385
| 15> H 	 -86.2182 	 -45.3212 	 -77.5448
| 16> C 	 -87.2501 	 -46.641 	 -76.2953
| 17> H 	 -86.7387 	 -47.5593 	 -76.7052
| 18> H 	 -86.7013 	 -46.2634 	 -75.439
| 19> C 	 -88.6732 	 -47.0672 	 -75.8743
| 20> H 	 -89.125 	 -46.2981 	 -75.2053
| 21> H 	 -89.3628 	 -47.1333 	 -76.7136
| 22> H 	 -88.8465 	 -47.9659 	 -75.2644
| 23> S 	 -86.0682 	 -48.0655 	 -83.4102
| 24> C 	 -85.261 	 -49.5814 	 -83.6683
| 25> C 	 -85.599 	 -50.4888 	 -82.6522
| 26> C 	 -86.323 	 -49.8414 	 -81.587
| 27> C 	 -86.5013 	 -48.5467 	 -81.7428
| 28> H 	 -85.3813 	 -51.5511 	 -82.7929
| 29> C 	 -86.9944 	 -50.6575 	 -80.4497
| 30> H 	 -87.0888 	 -49.965 	 -79.6271
| 31> H 	 -86.2762 	 -51.4503 	 -80.2269
| 32> C 	 -88.3521 	 -51.3043 	 -80.9245
| 33> H 	 -88.0518 	 -51.6102 	 -81.9519
| 34> H 	 -89.211 	 -50.6381 	 -81.1088
| 35> C 	 -88.7782 	 -52.509 	 -80.0806
| 36> H 	 -89.5227 	 -53.1504 	 -80.4978
| 37> H 	 -89.0981 	 -52.1578 	 -79.0939
| 38> H 	 -87.9344 	 -53.1481 	 -79.7712
| 39> H 	 -89.0682 	 -44.8518 	 -79.6953
| 40> H 	 -84.904 	 -49.8342 	 -84.6883
| 41> *
| 42>
| 43>                          ****END OF INPUT****

CARTESIAN COORDINATES (ANGSTROEM)
---------------------------------
  S    -88.305300  -46.428200  -81.420800
  C    -88.390800  -45.684100  -79.874000
  C    -87.478400  -46.235200  -78.969600
  C    -86.744500  -47.324900  -79.527700
  C    -87.060400  -47.572500  -80.830000
  H    -86.014300  -48.023700  -79.043200
  C    -87.180100  -45.727700  -77.538200
  H    -87.826500  -44.886100  -77.438500
  H    -86.218200  -45.321200  -77.544800
  C    -87.250100  -46.641000  -76.295300
  H    -86.738700  -47.559300  -76.705200
  H    -86.701300  -46.263400  -75.439000
  C    -88.673200  -47.067200  -75.874300
  H    -89.125000  -46.298100  -75.205300
  H    -89.362800  -47.133300  -76.713600
  H    -88.846500  -47.965900  -75.264400
  S    -86.068200  -48.065500  -83.410200
  C    -85.261000  -49.581400  -83.668300
  C    -85.599000  -50.488800  -82.652200
  C    -86.323000  -49.841400  -81.587000
  C    -86.501300  -48.546700  -81.742800
  H    -85.381300  -51.551100  -82.792900
  C    -86.994400  -50.657500  -80.449700
  H    -87.088800  -49.965000  -79.627100
  H    -86.276200  -51.450300  -80.226900
  C    -88.352100  -51.304300  -80.924500
  H    -88.051800  -51.610200  -81.951900
  H    -89.211000  -50.638100  -81.108800
  C    -88.778200  -52.509000  -80.080600
  H    -89.522700  -53.150400  -80.497800
  H    -89.098100  -52.157800  -79.093900
  H    -87.934400  -53.148100  -79.771200
  H    -89.068200  -44.851800  -79.695300
  H    -84.904000  -49.834200  -84.688300

 Total Charge           Charge          ....    0
 Multiplicity           Mult            ....    1
 Number of Electrons    NEL             ....  134
 Basis Dimension        Dim             ....  322

ORBITAL ENERGIES
----------------

  NO   OCC          E(Eh)            E(eV)
   0   2.0000     -88.966648     -2420.9056
   1   2.0000     -88.961616     -2420.7686
   2   2.0000     -10.330237      -281.1000
   3   2.0000     -10.323600      -280.9194
   4   2.0000     -10.320759      -280.8421
   5   2.0000     -10.318453      -280.7794
   6   2.0000     -10.308398      -280.5058
   7   2.0000     -10.300576      -280.2929
   8   2.0000     -10.298805      -280.2447
   9   2.0000     -10.298333      -280.2319
  10   2.0000     -10.295512      -280.1551
  11   2.0000     -10.295209      -280.1469
  12   2.0000     -10.292032      -280.0604
  13   2.0000     -10.288175      -279.9555
  14   2.0000     -10.278959      -279.7047
  15   2.0000     -10.276885      -279.6483
  16   2.0000      -8.081583      -219.9111
  17   2.0000      -8.076582      -219.7750
  18   2.0000      -6.039987      -164.3564
  19   2.0000      -6.036158      -164.2522
  20   2.0000      -6.035123      -164.2240
  21   2.0000      -6.032352      -164.1486
  22   2.0000      -6.031289      -164.1197
  23   2.0000      -6.027047      -164.0043
  24   2.0000      -1.009713       -27.4757
  25   2.0000      -0.986003       -26.8305
  26   2.0000      -0.907046       -24.6820
  27   2.0000      -0.902529       -24.5591
  28   2.0000      -0.872226       -23.7345
  29   2.0000      -0.850437       -23.1416
  30   2.0000      -0.844731       -22.9863
  31   2.0000      -0.814724       -22.1698
  32   2.0000      -0.782753       -21.2998
  33   2.0000      -0.773938       -21.0599
  34   2.0000      -0.708249       -19.2724
  35   2.0000      -0.699194       -19.0260
  36   2.0000      -0.693889       -18.8817
  37   2.0000      -0.664033       -18.0693
  38   2.0000      -0.645131       -17.5549
  39   2.0000      -0.619638       -16.8612
  40   2.0000      -0.590024       -16.0554
  41   2.0000      -0.565770       -15.3954
  42   2.0000      -0.560346       -15.2478
  43   2.0000      -0.545823       -14.8526
  44   2.0000      -0.541714       -14.7408
  45   2.0000      -0.524814       -14.2809
  46   2.0000      -0.521859       -14.2005
  47   2.0000      -0.513910       -13.9842
  48   2.0000      -0.501914       -13.6578
  49   2.0000      -0.497159       -13.5284
  50   2.0000      -0.492013       -13.3883
  51   2.0000      -0.477304       -12.9881
  52   2.0000      -0.466616       -12.6973
  53   2.0000      -0.460961       -12.5434
  54   2.0000      -0.457051       -12.4370
  55   2.0000      -0.450683       -12.2637
  56   2.0000      -0.446380       -12.1466
  57   2.0000      -0.444104       -12.0847
  58   2.0000      -0.438502       -11.9323
  59   2.0000      -0.427674       -11.6376
  60   2.0000      -0.417568       -11.3626
  61   2.0000      -0.409788       -11.1509
  62   2.0000      -0.405212       -11.0264
  63   2.0000      -0.356124        -9.6906
  64   2.0000      -0.333551        -9.0764
  65   2.0000      -0.328175        -8.9301
  66   2.0000      -0.291944        -7.9442
  67   0.0000       0.028416         0.7732
  68   0.0000       0.063377         1.7246
  69   0.0000       0.107019         2.9121
  70   0.0000       0.121688         3.3113
  71   0.0000       0.128464         3.4957

MULLIKEN ATOMIC CHARGES
-----------------------
   0 S :    0.102349
   1 C :   -0.121198
   2 C :   -0.106561
   3 C :    0.016164
   4 C :   -0.166528
   5 H :    0.044674
   6 C :    0.113248
   7 H :   -0.003379
   8 H :    0.025011
   9 C :   -0.066463
  10 H :    0.030113
  11 H :    0.041416
  12 C :   -0.075042
  13 H :    0.023726
  14 H :    0.032991
  15 H :    0.036617
  16 S :    0.090178
  17 C :   -0.104915
  18 C :   -0.044987
  19 C :   -0.080201
  20 C :   -0.133523
  21 H :    0.031397
  22 C :    0.104058
  23 H :    0.014271
  24 H :    0.022654
  25 C :   -0.073210
  26 H :    0.022432
  27 H :    0.044225
  28 C :   -0.034048
  29 H :    0.038422
  30 H :    0.025088
  31 H :    0.019494
  32 H :    0.055049
  33 H :    0.076477
Sum of atomic charges:    0.0000000

LOEWDIN ATOMIC CHARGES
----------------------
   0 S :    0.397274
   1 C :   -0.202629
   2 C :   -0.062765
   3 C :   -0.068211
   4 C :   -0.171532
   5 H :    0.043566
   6 C :   -0.025312
   7 H :    0.021004
   8 H :    0.029329
   9 C :   -0.040596
  10 H :    0.028378
  11 H :    0.027980
  12 C :   -0.079460
  13 H :    0.026526
  14 H :    0.025205
  15 H :    0.027786
  16 S :    0.381873
  17 C :   -0.186553
  18 C :   -0.074217
  19 C :   -0.063773
  20 C :   -0.189430
  21 H :    0.034733
  22 C :   -0.017612
  23 H :    0.021853
  24 H :    0.029439
  25 C :   -0.040726
  26 H :    0.025127
  27 H :    0.031021
  28 C :   -0.069893
  29 H :    0.023875
  30 H :    0.026582
  31 H :    0.025427
  32 H :    0.029957
  33 H :    0.035775

  Mayer bond orders larger than 0.100000
B(  0-S ,  1-C ) :   1.1463 B(  0-S ,  4-C ) :   1.1345 B(  1-C ,  2-C ) :   1.6129
B(  1-C , 32-H ) :   0.9664 B(  2-C ,  3-C ) :   1.2200 B(  2-C ,  6-C ) :   1.0166
B(  3-C ,  4-C ) :   1.6219 B(  3-C ,  5-H ) :   0.9754 B(  4-C , 20-C ) :   1.0373
B(  6-C ,  7-H ) :   0.9373 B(  6-C ,  8-H ) :   0.9346 B(  6-C ,  9-C ) :   1.0641
B(  9-C , 10-H ) :   0.9576 B(  9-C , 11-H ) :   0.9584 B(  9-C , 12-C ) :   1.0628
B( 12-C , 13-H ) :   0.9741 B( 12-C , 14-H ) :   0.9795 B( 12-C , 15-H ) :   0.9778
B( 16-S , 17-C ) :   1.1599 B( 16-S , 20-C ) :   1.1038 B( 17-C , 18-C ) :   1.6084
B( 17-C , 33-H ) :   0.9621 B( 18-C , 19-C ) :   1.2076 B( 18-C , 21-H ) :   0.9905
B( 19-C , 20-C ) :   1.6619 B( 19-C , 22-C ) :   1.0427 B( 22-C , 23-H ) :   0.9252
B( 22-C , 24-H ) :   0.9348 B( 22-C , 25-C ) :   1.0518 B( 25-C , 26-H ) :   0.9581
B( 25-C , 27-H ) :   0.9568 B( 25-C , 28-C ) :   1.0767 B( 28-C , 29-H ) :   0.9759
B( 28-C , 30-H ) :   0.9726 B( 28-C , 31-H ) :   0.9737

Dispersion correction           -0.014112769
FINAL SINGLE POINT ENERGY     -1339.871942090718

DIPOLE MOMENT
-------------
                                X             Y             Z
Electronic contribution:      6.94031      12.65047     -25.09748
Nuclear contribution   :     -6.99330     -12.99270      25.52453
                        -----------------------------------------
Total Dipole Moment    :     -0.05299      -0.34224       0.42705
                        -----------------------------------------
Magnitude (a.u.)       :      0.54983
Magnitude (Debye)      :      1.39755

Rotational constants in cm-1:     0.017629     0.008986     0.006914
Rotational constants in MHz :   528.489265   269.383573   207.281646

                             ****ORCA TERMINATED NORMALLY****
TOTAL RUN TIME: 0 days 0 hours 0 minutes 21 seconds 342 msec
