                         Program Version 4.2.1 -  RELEASE  -
|  1> ! wB97X-D3 SP def2-SVP
|  2> %pal
|  3> nprocs 24
|  4> end
|  5>
|  6> * xyz 0 1
|  7> S 	 -106.343 	 55.0238 	 -11.9674
|  8> C 	 -105.006 	 55.5482 	 -13.1007
|  9> C 	 -104.186 	 54.497 	 -13.3325
| 10> C 	 -104.721 	 53.2314 	 -12.9062
| 11> C 	 -105.841 	 53.3371 	 -12.1237
| 12> H 	 -104.402 	 52.2919 	 -13.1755
| 13> C 	 -102.813 	 54.6151 	 -13.9498
| 14> H 	 -102.744 	 55.5905 	 -14.4007
| 15> H 	 -102.645 	 53.9014 	 -14.7864
| 16> C 	 -101.738 	 54.3784 	 -12.9034
| 17> H 	 -101.871 	 55.1269 	 -12.144
| 18> H 	 -101.773 	 53.4146 	 -12.3794
| 19> C 	 -100.314 	 54.7723 	 -13.4114
| 20> H 	 -100.42 	 55.7319 	 -13.9298
| 21> H 	 -99.5239 	 54.8922 	 -12.5937
| 22> H 	 -99.8463 	 53.9818 	 -14.0594
| 23> S 	 -108.322 	 52.448 	 -11.4274
| 24> C 	 -108.461 	 50.8732 	 -10.6372
| 25> C 	 -107.278 	 50.3337 	 -10.3233
| 26> C 	 -106.189 	 51.0812 	 -10.9263
| 27> C 	 -106.601 	 52.2644 	 -11.5778
| 28> H 	 -107.268 	 49.4417 	 -9.70491
| 29> C 	 -104.746 	 50.7388 	 -10.7329
| 30> H 	 -104.161 	 51.6196 	 -10.9135
| 31> H 	 -104.448 	 49.9807 	 -11.48
| 32> C 	 -104.385 	 50.1016 	 -9.37398
| 33> H 	 -104.897 	 49.0868 	 -9.35394
| 34> H 	 -104.712 	 50.729 	 -8.59735
| 35> C 	 -102.865 	 49.8975 	 -9.11593
| 36> H 	 -102.684 	 49.4857 	 -8.14034
| 37> H 	 -102.166 	 50.8043 	 -9.31358
| 38> H 	 -102.43 	 49.1944 	 -9.75497
| 39> H 	 -104.813 	 56.5594 	 -13.3953
| 40> H 	 -109.421 	 50.4974 	 -10.3564
| 41> *
| 42>
| 43>                          ****END OF INPUT****

CARTESIAN COORDINATES (ANGSTROEM)
---------------------------------
  S    -106.343000   55.023800  -11.967400
  C    -105.006000   55.548200  -13.100700
  C    -104.186000   54.497000  -13.332500
  C    -104.721000   53.231400  -12.906200
  C    -105.841000   53.337100  -12.123700
  H    -104.402000   52.291900  -13.175500
  C    -102.813000   54.615100  -13.949800
  H    -102.744000   55.590500  -14.400700
  H    -102.645000   53.901400  -14.786400
  C    -101.738000   54.378400  -12.903400
  H    -101.871000   55.126900  -12.144000
  H    -101.773000   53.414600  -12.379400
  C    -100.314000   54.772300  -13.411400
  H    -100.420000   55.731900  -13.929800
  H    -99.523900   54.892200  -12.593700
  H    -99.846300   53.981800  -14.059400
  S    -108.322000   52.448000  -11.427400
  C    -108.461000   50.873200  -10.637200
  C    -107.278000   50.333700  -10.323300
  C    -106.189000   51.081200  -10.926300
  C    -106.601000   52.264400  -11.577800
  H    -107.268000   49.441700   -9.704910
  C    -104.746000   50.738800  -10.732900
  H    -104.161000   51.619600  -10.913500
  H    -104.448000   49.980700  -11.480000
  C    -104.385000   50.101600   -9.373980
  H    -104.897000   49.086800   -9.353940
  H    -104.712000   50.729000   -8.597350
  C    -102.865000   49.897500   -9.115930
  H    -102.684000   49.485700   -8.140340
  H    -102.166000   50.804300   -9.313580
  H    -102.430000   49.194400   -9.754970
  H    -104.813000   56.559400  -13.395300
  H    -109.421000   50.497400  -10.356400

 Total Charge           Charge          ....    0
 Multiplicity           Mult            ....    1
 Number of Electrons    NEL             ....  134
 Basis Dimension        Dim             ....  322

ORBITAL ENERGIES
----------------

  NO   OCC          E(Eh)            E(eV)
   0   2.0000     -88.963303     -2420.8146
   1   2.0000     -88.962430     -2420.7908
   2   2.0000     -10.329179      -281.0713
   3   2.0000     -10.325434      -280.9693
   4   2.0000     -10.316173      -280.7173
   5   2.0000     -10.315177      -280.6902
   6   2.0000     -10.308987      -280.5218
   7   2.0000     -10.301325      -280.3133
   8   2.0000     -10.295937      -280.1667
   9   2.0000     -10.294185      -280.1190
  10   2.0000     -10.291038      -280.0334
  11   2.0000     -10.289694      -279.9968
  12   2.0000     -10.287998      -279.9507
  13   2.0000     -10.287577      -279.9392
  14   2.0000     -10.286810      -279.9183
  15   2.0000     -10.280634      -279.7503
  16   2.0000      -8.077590      -219.8024
  17   2.0000      -8.076880      -219.7831
  18   2.0000      -6.036118      -164.2511
  19   2.0000      -6.035729      -164.2405
  20   2.0000      -6.032126      -164.1425
  21   2.0000      -6.031724      -164.1315
  22   2.0000      -6.028195      -164.0355
  23   2.0000      -6.027168      -164.0076
  24   2.0000      -1.007969       -27.4282
  25   2.0000      -0.982125       -26.7250
  26   2.0000      -0.915357       -24.9081
  27   2.0000      -0.908003       -24.7080
  28   2.0000      -0.876337       -23.8463
  29   2.0000      -0.849960       -23.1286
  30   2.0000      -0.839344       -22.8397
  31   2.0000      -0.821961       -22.3667
  32   2.0000      -0.781113       -21.2552
  33   2.0000      -0.770608       -20.9693
  34   2.0000      -0.713060       -19.4033
  35   2.0000      -0.703330       -19.1386
  36   2.0000      -0.696653       -18.9569
  37   2.0000      -0.656537       -17.8653
  38   2.0000      -0.643986       -17.5238
  39   2.0000      -0.623630       -16.9698
  40   2.0000      -0.599502       -16.3133
  41   2.0000      -0.571944       -15.5634
  42   2.0000      -0.571077       -15.5398
  43   2.0000      -0.563869       -15.3437
  44   2.0000      -0.529292       -14.4028
  45   2.0000      -0.525202       -14.2915
  46   2.0000      -0.520104       -14.1528
  47   2.0000      -0.511641       -13.9225
  48   2.0000      -0.508076       -13.8254
  49   2.0000      -0.498476       -13.5642
  50   2.0000      -0.489695       -13.3253
  51   2.0000      -0.476984       -12.9794
  52   2.0000      -0.470298       -12.7975
  53   2.0000      -0.465379       -12.6636
  54   2.0000      -0.457670       -12.4538
  55   2.0000      -0.454811       -12.3760
  56   2.0000      -0.448444       -12.2028
  57   2.0000      -0.441886       -12.0243
  58   2.0000      -0.428389       -11.6570
  59   2.0000      -0.423812       -11.5325
  60   2.0000      -0.421856       -11.4793
  61   2.0000      -0.417289       -11.3550
  62   2.0000      -0.410518       -11.1708
  63   2.0000      -0.359318        -9.7775
  64   2.0000      -0.329321        -8.9613
  65   2.0000      -0.328260        -8.9324
  66   2.0000      -0.288127        -7.8403
  67   0.0000       0.023071         0.6278
  68   0.0000       0.079778         2.1709
  69   0.0000       0.098280         2.6743
  70   0.0000       0.125652         3.4192
  71   0.0000       0.133858         3.6425

MULLIKEN ATOMIC CHARGES
-----------------------
   0 S :    0.079528
   1 C :   -0.118516
   2 C :   -0.066296
   3 C :    0.031659
   4 C :   -0.120559
   5 H :   -0.015064
   6 C :    0.084395
   7 H :    0.006092
   8 H :    0.033122
   9 C :   -0.071843
  10 H :    0.023146
  11 H :    0.040580
  12 C :   -0.090778
  13 H :    0.036415
  14 H :    0.044417
  15 H :    0.038992
  16 S :    0.092313
  17 C :   -0.076197
  18 C :   -0.024246
  19 C :   -0.043217
  20 C :   -0.135569
  21 H :    0.027325
  22 C :    0.060435
  23 H :    0.021205
  24 H :    0.036168
  25 C :   -0.094676
  26 H :    0.042643
  27 H :    0.031989
  28 C :   -0.038471
  29 H :    0.031696
  30 H :    0.038933
  31 H :    0.006876
  32 H :    0.041535
  33 H :    0.045969
Sum of atomic charges:    0.0000000

LOEWDIN ATOMIC CHARGES
----------------------
   0 S :    0.351856
   1 C :   -0.168005
   2 C :   -0.054311
   3 C :   -0.057046
   4 C :   -0.172919
   5 H :    0.017646
   6 C :   -0.028740
   7 H :    0.025854
   8 H :    0.032356
   9 C :   -0.042918
  10 H :    0.024824
  11 H :    0.026111
  12 C :   -0.075163
  13 H :    0.025374
  14 H :    0.032559
  15 H :    0.025044
  16 S :    0.396043
  17 C :   -0.162360
  18 C :   -0.072325
  19 C :   -0.045821
  20 C :   -0.205171
  21 H :    0.037958
  22 C :   -0.038621
  23 H :    0.025204
  24 H :    0.034710
  25 C :   -0.036007
  26 H :    0.031300
  27 H :    0.018295
  28 C :   -0.069423
  29 H :    0.025672
  30 H :    0.035957
  31 H :    0.013112
  32 H :    0.025821
  33 H :    0.023134

  Mayer bond orders larger than 0.100000
B(  0-S ,  1-C ) :   1.0871 B(  0-S ,  4-C ) :   1.1177 B(  1-C ,  2-C ) :   1.6719
B(  1-C , 32-H ) :   0.9709 B(  2-C ,  3-C ) :   1.1699 B(  2-C ,  6-C ) :   1.0393
B(  3-C ,  4-C ) :   1.5948 B(  3-C ,  5-H ) :   1.0096 B(  4-C , 20-C ) :   1.1038
B(  6-C ,  7-H ) :   0.9341 B(  6-C ,  8-H ) :   0.9387 B(  6-C ,  9-C ) :   1.0585
B(  9-C , 10-H ) :   0.9535 B(  9-C , 11-H ) :   0.9579 B(  9-C , 12-C ) :   1.0723
B( 12-C , 13-H ) :   0.9736 B( 12-C , 14-H ) :   0.9777 B( 12-C , 15-H ) :   0.9766
B( 16-S , 17-C ) :   1.1458 B( 16-S , 20-C ) :   1.1242 B( 17-C , 18-C ) :   1.6349
B( 17-C , 33-H ) :   0.9676 B( 18-C , 19-C ) :   1.2115 B( 18-C , 21-H ) :   0.9930
B( 19-C , 20-C ) :   1.5719 B( 19-C , 22-C ) :   1.0590 B( 22-C , 23-H ) :   0.9285
B( 22-C , 24-H ) :   0.9214 B( 22-C , 25-C ) :   1.0736 B( 25-C , 26-H ) :   0.9439
B( 25-C , 27-H ) :   0.9622 B( 25-C , 28-C ) :   1.0855 B( 28-C , 29-H ) :   0.9740
B( 28-C , 30-H ) :   0.9734 B( 28-C , 31-H ) :   0.9722

Dispersion correction           -0.013755278
FINAL SINGLE POINT ENERGY     -1339.875956429106

DIPOLE MOMENT
-------------
                                X             Y             Z
Electronic contribution:    -31.56136       7.84987      -2.22381
Nuclear contribution   :     32.18344      -8.26188       2.33119
                        -----------------------------------------
Total Dipole Moment    :      0.62208      -0.41201       0.10738
                        -----------------------------------------
Magnitude (a.u.)       :      0.75383
Magnitude (Debye)      :      1.91609

Rotational constants in cm-1:     0.016926     0.009330     0.006361
Rotational constants in MHz :   507.423734   279.694157   190.709662

                             ****ORCA TERMINATED NORMALLY****
TOTAL RUN TIME: 0 days 0 hours 0 minutes 21 seconds 434 msec
