                         Program Version 4.2.1 -  RELEASE  -
|  1> ! wB97X-D3 SP def2-SVP
|  2> %pal
|  3> nprocs 24
|  4> end
|  5>
|  6> * xyz 0 1
|  7> S 	 33.9288 	 -32.3302 	 -129.549
|  8> C 	 35.1776 	 -32.0584 	 -128.336
|  9> C 	 34.8099 	 -32.5679 	 -127.121
| 10> C 	 33.5363 	 -33.1358 	 -127.197
| 11> C 	 32.9695 	 -33.1621 	 -128.434
| 12> H 	 32.9372 	 -33.5443 	 -126.354
| 13> C 	 35.4932 	 -32.4967 	 -125.793
| 14> H 	 36.1564 	 -33.3134 	 -125.694
| 15> H 	 34.7306 	 -32.4128 	 -125.051
| 16> C 	 36.4947 	 -31.2321 	 -125.772
| 17> H 	 37.3636 	 -31.3248 	 -126.409
| 18> H 	 36.0614 	 -30.3587 	 -126.173
| 19> C 	 37.0611 	 -30.9721 	 -124.416
| 20> H 	 37.7082 	 -31.7829 	 -124.136
| 21> H 	 37.5835 	 -30.0623 	 -124.48
| 22> H 	 36.1738 	 -30.9089 	 -123.803
| 23> S 	 31.8514 	 -35.3677 	 -129.546
| 24> C 	 30.1627 	 -35.6823 	 -129.259
| 25> C 	 29.5278 	 -34.6515 	 -128.626
| 26> C 	 30.4478 	 -33.59 	 -128.39
| 27> C 	 31.7371 	 -33.8563 	 -128.761
| 28> H 	 28.4699 	 -34.6551 	 -128.431
| 29> C 	 29.9992 	 -32.2774 	 -127.846
| 30> H 	 28.9572 	 -31.9861 	 -128.02
| 31> H 	 30.408 	 -31.4435 	 -128.287
| 32> C 	 30.1591 	 -32.2021 	 -126.25
| 33> H 	 29.7775 	 -31.2289 	 -125.906
| 34> H 	 31.2212 	 -32.189 	 -125.892
| 35> C 	 29.2607 	 -33.2164 	 -125.621
| 36> H 	 28.3929 	 -33.3532 	 -126.108
| 37> H 	 29.0281 	 -32.9631 	 -124.539
| 38> H 	 29.6898 	 -34.1801 	 -125.683
| 39> H 	 36.0409 	 -31.4708 	 -128.598
| 40> H 	 29.6105 	 -36.5165 	 -129.622
| 41> *
| 42>
| 43>                          ****END OF INPUT****

CARTESIAN COORDINATES (ANGSTROEM)
---------------------------------
  S     33.928800  -32.330200  -129.549000
  C     35.177600  -32.058400  -128.336000
  C     34.809900  -32.567900  -127.121000
  C     33.536300  -33.135800  -127.197000
  C     32.969500  -33.162100  -128.434000
  H     32.937200  -33.544300  -126.354000
  C     35.493200  -32.496700  -125.793000
  H     36.156400  -33.313400  -125.694000
  H     34.730600  -32.412800  -125.051000
  C     36.494700  -31.232100  -125.772000
  H     37.363600  -31.324800  -126.409000
  H     36.061400  -30.358700  -126.173000
  C     37.061100  -30.972100  -124.416000
  H     37.708200  -31.782900  -124.136000
  H     37.583500  -30.062300  -124.480000
  H     36.173800  -30.908900  -123.803000
  S     31.851400  -35.367700  -129.546000
  C     30.162700  -35.682300  -129.259000
  C     29.527800  -34.651500  -128.626000
  C     30.447800  -33.590000  -128.390000
  C     31.737100  -33.856300  -128.761000
  H     28.469900  -34.655100  -128.431000
  C     29.999200  -32.277400  -127.846000
  H     28.957200  -31.986100  -128.020000
  H     30.408000  -31.443500  -128.287000
  C     30.159100  -32.202100  -126.250000
  H     29.777500  -31.228900  -125.906000
  H     31.221200  -32.189000  -125.892000
  C     29.260700  -33.216400  -125.621000
  H     28.392900  -33.353200  -126.108000
  H     29.028100  -32.963100  -124.539000
  H     29.689800  -34.180100  -125.683000
  H     36.040900  -31.470800  -128.598000
  H     29.610500  -36.516500  -129.622000

 Total Charge           Charge          ....    0
 Multiplicity           Mult            ....    1
 Number of Electrons    NEL             ....  134
 Basis Dimension        Dim             ....  322

ORBITAL ENERGIES
----------------

  NO   OCC          E(Eh)            E(eV)
   0   2.0000     -88.963589     -2420.8223
   1   2.0000     -88.962973     -2420.8056
   2   2.0000     -10.317782      -280.7611
   3   2.0000     -10.316511      -280.7265
   4   2.0000     -10.311681      -280.5951
   5   2.0000     -10.311078      -280.5787
   6   2.0000     -10.296517      -280.1825
   7   2.0000     -10.294906      -280.1386
   8   2.0000     -10.292695      -280.0785
   9   2.0000     -10.290208      -280.0108
  10   2.0000     -10.286065      -279.8981
  11   2.0000     -10.285101      -279.8718
  12   2.0000     -10.282342      -279.7968
  13   2.0000     -10.279411      -279.7170
  14   2.0000     -10.268176      -279.4113
  15   2.0000     -10.262616      -279.2600
  16   2.0000      -8.079472      -219.8536
  17   2.0000      -8.078858      -219.8369
  18   2.0000      -6.037874      -164.2989
  19   2.0000      -6.037123      -164.2785
  20   2.0000      -6.033818      -164.1885
  21   2.0000      -6.033181      -164.1712
  22   2.0000      -6.030270      -164.0920
  23   2.0000      -6.029841      -164.0803
  24   2.0000      -1.017251       -27.6808
  25   2.0000      -0.993867       -27.0445
  26   2.0000      -0.916279       -24.9332
  27   2.0000      -0.907627       -24.6978
  28   2.0000      -0.875426       -23.8216
  29   2.0000      -0.857062       -23.3218
  30   2.0000      -0.849869       -23.1261
  31   2.0000      -0.817078       -22.2338
  32   2.0000      -0.785993       -21.3880
  33   2.0000      -0.773934       -21.0598
  34   2.0000      -0.712799       -19.3962
  35   2.0000      -0.700188       -19.0531
  36   2.0000      -0.688185       -18.7265
  37   2.0000      -0.665628       -18.1127
  38   2.0000      -0.647221       -17.6118
  39   2.0000      -0.617595       -16.8056
  40   2.0000      -0.603132       -16.4121
  41   2.0000      -0.577618       -15.7178
  42   2.0000      -0.571356       -15.5474
  43   2.0000      -0.547955       -14.9106
  44   2.0000      -0.543986       -14.8026
  45   2.0000      -0.530544       -14.4368
  46   2.0000      -0.522135       -14.2080
  47   2.0000      -0.521623       -14.1941
  48   2.0000      -0.504681       -13.7331
  49   2.0000      -0.499690       -13.5973
  50   2.0000      -0.488504       -13.2929
  51   2.0000      -0.485059       -13.1991
  52   2.0000      -0.480994       -13.0885
  53   2.0000      -0.465726       -12.6730
  54   2.0000      -0.464607       -12.6426
  55   2.0000      -0.446556       -12.1514
  56   2.0000      -0.441564       -12.0156
  57   2.0000      -0.429113       -11.6768
  58   2.0000      -0.426491       -11.6054
  59   2.0000      -0.425027       -11.5656
  60   2.0000      -0.423516       -11.5245
  61   2.0000      -0.418818       -11.3966
  62   2.0000      -0.411344       -11.1932
  63   2.0000      -0.340138        -9.2556
  64   2.0000      -0.331386        -9.0175
  65   2.0000      -0.322250        -8.7689
  66   2.0000      -0.304487        -8.2855
  67   0.0000       0.047301         1.2871
  68   0.0000       0.063670         1.7325
  69   0.0000       0.120069         3.2672
  70   0.0000       0.122343         3.3291
  71   0.0000       0.138222         3.7612

MULLIKEN ATOMIC CHARGES
-----------------------
   0 S :    0.117094
   1 C :   -0.152482
   2 C :   -0.055402
   3 C :    0.010028
   4 C :   -0.175328
   5 H :    0.025022
   6 C :    0.136543
   7 H :    0.036261
   8 H :    0.026811
   9 C :   -0.143468
  10 H :    0.017740
  11 H :    0.015767
  12 C :    0.017406
  13 H :    0.028764
  14 H :    0.024348
  15 H :    0.021899
  16 S :    0.125137
  17 C :   -0.078952
  18 C :   -0.033760
  19 C :   -0.013176
  20 C :   -0.163513
  21 H :    0.018587
  22 C :    0.090234
  23 H :    0.013808
  24 H :    0.001549
  25 C :   -0.103162
  26 H :    0.016401
  27 H :    0.035416
  28 C :    0.002676
  29 H :   -0.011539
  30 H :    0.039212
  31 H :    0.023895
  32 H :    0.044233
  33 H :    0.041949
Sum of atomic charges:    0.0000000

LOEWDIN ATOMIC CHARGES
----------------------
   0 S :    0.426904
   1 C :   -0.191786
   2 C :   -0.065647
   3 C :   -0.066534
   4 C :   -0.219976
   5 H :    0.035735
   6 C :   -0.011022
   7 H :    0.034237
   8 H :    0.028685
   9 C :   -0.039319
  10 H :    0.019081
  11 H :    0.013390
  12 C :   -0.053154
  13 H :    0.023261
  14 H :    0.022356
  15 H :    0.023343
  16 S :    0.431887
  17 C :   -0.181141
  18 C :   -0.068229
  19 C :   -0.057469
  20 C :   -0.214807
  21 H :    0.032430
  22 C :   -0.026842
  23 H :    0.032847
  24 H :    0.018566
  25 C :   -0.036789
  26 H :    0.019951
  27 H :    0.023858
  28 C :   -0.061511
  29 H :    0.005549
  30 H :    0.034539
  31 H :    0.021345
  32 H :    0.022699
  33 H :    0.023564

  Mayer bond orders larger than 0.100000
B(  0-S ,  1-C ) :   1.1434 B(  0-S ,  4-C ) :   1.1740 B(  1-C ,  2-C ) :   1.5819
B(  1-C , 32-H ) :   0.9754 B(  2-C ,  3-C ) :   1.2641 B(  2-C ,  6-C ) :   1.0151
B(  3-C ,  4-C ) :   1.5868 B(  3-C ,  5-H ) :   0.9846 B(  4-C , 20-C ) :   0.9844
B(  6-C ,  7-H ) :   0.9204 B(  6-C ,  8-H ) :   0.9486 B(  6-C ,  9-C ) :   1.0683
B(  9-C , 10-H ) :   0.9481 B(  9-C , 11-H ) :   0.9625 B(  9-C , 12-C ) :   1.0922
B( 12-C , 13-H ) :   0.9740 B( 12-C , 14-H ) :   0.9694 B( 12-C , 15-H ) :   0.9764
B( 16-S , 17-C ) :   1.1661 B( 16-S , 20-C ) :   1.1535 B( 17-C , 18-C ) :   1.6059
B( 17-C , 33-H ) :   0.9680 B( 18-C , 19-C ) :   1.2396 B( 18-C , 21-H ) :   0.9951
B( 19-C , 20-C ) :   1.6198 B( 19-C , 22-C ) :   1.0439 B( 22-C , 23-H ) :   0.9426
B( 22-C , 24-H ) :   0.9325 B( 22-C , 25-C ) :   1.0668 B( 25-C , 26-H ) :   0.9563
B( 25-C , 27-H ) :   0.9579 B( 25-C , 28-C ) :   1.0736 B( 28-C , 29-H ) :   0.9668
B( 28-C , 30-H ) :   0.9718 B( 28-C , 31-H ) :   0.9662

Dispersion correction           -0.014971029
FINAL SINGLE POINT ENERGY     -1339.858592881914

DIPOLE MOMENT
-------------
                                X             Y             Z
Electronic contribution:     -1.52865     -11.71268     -24.90389
Nuclear contribution   :      1.43644      11.95218      25.36395
                        -----------------------------------------
Total Dipole Moment    :     -0.09221       0.23950       0.46006
                        -----------------------------------------
Magnitude (a.u.)       :      0.52680
Magnitude (Debye)      :      1.33901

Rotational constants in cm-1:     0.021719     0.008183     0.006747
Rotational constants in MHz :   651.128104   245.315658   202.277503

                             ****ORCA TERMINATED NORMALLY****
TOTAL RUN TIME: 0 days 0 hours 0 minutes 22 seconds 351 msec
