                         Program Version 4.2.1 -  RELEASE  -
|  1> ! wB97X-D3 SP def2-SVP
|  2> %pal
|  3> nprocs 24
|  4> end
|  5>
|  6> * xyz 0 1
|  7> S 	 -134.158 	 24.2847 	 -24.0987
|  8> C 	 -134.224 	 22.7329 	 -23.3869
|  9> C 	 -133.15 	 21.9776 	 -23.8378
| 10> C 	 -132.227 	 22.6973 	 -24.619
| 11> C 	 -132.553 	 24.0211 	 -24.8381
| 12> H 	 -131.292 	 22.3678 	 -25.1365
| 13> C 	 -132.982 	 20.4914 	 -23.535
| 14> H 	 -133.296 	 20.2233 	 -22.506
| 15> H 	 -131.928 	 20.2462 	 -23.7232
| 16> C 	 -134.042 	 19.5881 	 -24.2628
| 17> H 	 -135.033 	 20.0994 	 -23.9885
| 18> H 	 -133.942 	 19.7702 	 -25.3294
| 19> C 	 -133.827 	 18.0398 	 -24.2013
| 20> H 	 -132.92 	 17.7669 	 -24.5465
| 21> H 	 -133.874 	 17.8046 	 -23.1905
| 22> H 	 -134.581 	 17.6481 	 -24.8817
| 23> S 	 -132.424 	 25.8499 	 -26.95
| 24> C 	 -131.059 	 26.8591 	 -27.0758
| 25> C 	 -130.227 	 26.6735 	 -25.9721
| 26> C 	 -130.645 	 25.6054 	 -25.1042
| 27> C 	 -131.799 	 25.0211 	 -25.5215
| 28> H 	 -129.372 	 27.3251 	 -25.7747
| 29> C 	 -130.013 	 25.385 	 -23.7764
| 30> H 	 -130.622 	 24.7306 	 -23.1535
| 31> H 	 -130.069 	 26.4017 	 -23.4308
| 32> C 	 -128.559 	 24.9151 	 -23.7235
| 33> H 	 -128.203 	 24.9221 	 -22.7299
| 34> H 	 -127.992 	 25.763 	 -24.1228
| 35> C 	 -128.205 	 23.5383 	 -24.33
| 36> H 	 -128.452 	 23.6043 	 -25.3697
| 37> H 	 -128.935 	 22.8213 	 -23.8834
| 38> H 	 -127.144 	 23.2343 	 -24.2588
| 39> H 	 -135.047 	 22.2485 	 -22.769
| 40> H 	 -130.879 	 27.5437 	 -27.853
| 41> *
| 42>
| 43>                          ****END OF INPUT****

CARTESIAN COORDINATES (ANGSTROEM)
---------------------------------
  S    -134.158000   24.284700  -24.098700
  C    -134.224000   22.732900  -23.386900
  C    -133.150000   21.977600  -23.837800
  C    -132.227000   22.697300  -24.619000
  C    -132.553000   24.021100  -24.838100
  H    -131.292000   22.367800  -25.136500
  C    -132.982000   20.491400  -23.535000
  H    -133.296000   20.223300  -22.506000
  H    -131.928000   20.246200  -23.723200
  C    -134.042000   19.588100  -24.262800
  H    -135.033000   20.099400  -23.988500
  H    -133.942000   19.770200  -25.329400
  C    -133.827000   18.039800  -24.201300
  H    -132.920000   17.766900  -24.546500
  H    -133.874000   17.804600  -23.190500
  H    -134.581000   17.648100  -24.881700
  S    -132.424000   25.849900  -26.950000
  C    -131.059000   26.859100  -27.075800
  C    -130.227000   26.673500  -25.972100
  C    -130.645000   25.605400  -25.104200
  C    -131.799000   25.021100  -25.521500
  H    -129.372000   27.325100  -25.774700
  C    -130.013000   25.385000  -23.776400
  H    -130.622000   24.730600  -23.153500
  H    -130.069000   26.401700  -23.430800
  C    -128.559000   24.915100  -23.723500
  H    -128.203000   24.922100  -22.729900
  H    -127.992000   25.763000  -24.122800
  C    -128.205000   23.538300  -24.330000
  H    -128.452000   23.604300  -25.369700
  H    -128.935000   22.821300  -23.883400
  H    -127.144000   23.234300  -24.258800
  H    -135.047000   22.248500  -22.769000
  H    -130.879000   27.543700  -27.853000

 Total Charge           Charge          ....    0
 Multiplicity           Mult            ....    1
 Number of Electrons    NEL             ....  134
 Basis Dimension        Dim             ....  322

ORBITAL ENERGIES
----------------

  NO   OCC          E(Eh)            E(eV)
   0   2.0000     -88.965187     -2420.8658
   1   2.0000     -88.964319     -2420.8422
   2   2.0000     -10.327265      -281.0192
   3   2.0000     -10.320779      -280.8427
   4   2.0000     -10.317804      -280.7617
   5   2.0000     -10.317609      -280.7564
   6   2.0000     -10.300515      -280.2913
   7   2.0000     -10.299124      -280.2534
   8   2.0000     -10.295992      -280.1682
   9   2.0000     -10.295902      -280.1657
  10   2.0000     -10.293765      -280.1076
  11   2.0000     -10.290852      -280.0283
  12   2.0000     -10.286539      -279.9110
  13   2.0000     -10.281838      -279.7830
  14   2.0000     -10.280814      -279.7552
  15   2.0000     -10.270782      -279.4822
  16   2.0000      -8.079920      -219.8658
  17   2.0000      -8.079896      -219.8651
  18   2.0000      -6.038393      -164.3130
  19   2.0000      -6.038350      -164.3119
  20   2.0000      -6.034304      -164.2018
  21   2.0000      -6.034213      -164.1993
  22   2.0000      -6.030820      -164.1070
  23   2.0000      -6.030714      -164.1041
  24   2.0000      -1.011636       -27.5280
  25   2.0000      -0.989661       -26.9300
  26   2.0000      -0.913989       -24.8709
  27   2.0000      -0.904875       -24.6229
  28   2.0000      -0.874653       -23.8005
  29   2.0000      -0.851521       -23.1711
  30   2.0000      -0.848478       -23.0883
  31   2.0000      -0.816010       -22.2048
  32   2.0000      -0.786424       -21.3997
  33   2.0000      -0.772761       -21.0279
  34   2.0000      -0.708814       -19.2878
  35   2.0000      -0.701786       -19.0966
  36   2.0000      -0.695024       -18.9126
  37   2.0000      -0.661402       -17.9977
  38   2.0000      -0.640699       -17.4343
  39   2.0000      -0.615004       -16.7351
  40   2.0000      -0.597326       -16.2541
  41   2.0000      -0.566860       -15.4251
  42   2.0000      -0.559728       -15.2310
  43   2.0000      -0.556504       -15.1432
  44   2.0000      -0.546533       -14.8719
  45   2.0000      -0.525617       -14.3028
  46   2.0000      -0.522205       -14.2099
  47   2.0000      -0.517388       -14.0788
  48   2.0000      -0.508982       -13.8501
  49   2.0000      -0.500362       -13.6155
  50   2.0000      -0.488341       -13.2884
  51   2.0000      -0.485156       -13.2018
  52   2.0000      -0.479324       -13.0431
  53   2.0000      -0.466387       -12.6910
  54   2.0000      -0.464432       -12.6378
  55   2.0000      -0.450984       -12.2719
  56   2.0000      -0.444800       -12.1036
  57   2.0000      -0.441001       -12.0003
  58   2.0000      -0.428724       -11.6662
  59   2.0000      -0.418498       -11.3879
  60   2.0000      -0.413413       -11.2495
  61   2.0000      -0.411261       -11.1910
  62   2.0000      -0.404543       -11.0082
  63   2.0000      -0.344098        -9.3634
  64   2.0000      -0.330577        -8.9955
  65   2.0000      -0.326244        -8.8776
  66   2.0000      -0.297436        -8.0936
  67   0.0000       0.036260         0.9867
  68   0.0000       0.058177         1.5831
  69   0.0000       0.113811         3.0970
  70   0.0000       0.125802         3.4232
  71   0.0000       0.130828         3.5600

MULLIKEN ATOMIC CHARGES
-----------------------
   0 S :    0.118328
   1 C :   -0.137574
   2 C :   -0.083725
   3 C :    0.021949
   4 C :   -0.189772
   5 H :    0.029310
   6 C :    0.060937
   7 H :    0.025284
   8 H :    0.023564
   9 C :   -0.150868
  10 H :    0.033442
  11 H :    0.019758
  12 C :    0.053901
  13 H :    0.004712
  14 H :    0.015863
  15 H :    0.043862
  16 S :    0.116280
  17 C :   -0.069965
  18 C :   -0.050084
  19 C :   -0.013006
  20 C :   -0.186401
  21 H :    0.023854
  22 C :    0.060766
  23 H :    0.035858
  24 H :    0.033855
  25 C :   -0.056366
  26 H :    0.015423
  27 H :    0.010070
  28 C :   -0.051247
  29 H :    0.032254
  30 H :    0.035369
  31 H :    0.050756
  32 H :    0.077311
  33 H :    0.046303
Sum of atomic charges:   -0.0000000

LOEWDIN ATOMIC CHARGES
----------------------
   0 S :    0.411258
   1 C :   -0.221677
   2 C :   -0.074232
   3 C :   -0.067151
   4 C :   -0.188048
   5 H :    0.041834
   6 C :   -0.037536
   7 H :    0.030670
   8 H :    0.026353
   9 C :   -0.047714
  10 H :    0.028432
  11 H :    0.016231
  12 C :   -0.041641
  13 H :    0.012365
  14 H :    0.015977
  15 H :    0.036524
  16 S :    0.417767
  17 C :   -0.183866
  18 C :   -0.076201
  19 C :   -0.049154
  20 C :   -0.210113
  21 H :    0.030916
  22 C :   -0.026632
  23 H :    0.030156
  24 H :    0.040924
  25 C :   -0.042105
  26 H :    0.018229
  27 H :    0.019276
  28 C :   -0.067131
  29 H :    0.021434
  30 H :    0.029902
  31 H :    0.033171
  32 H :    0.048354
  33 H :    0.023428

  Mayer bond orders larger than 0.100000
B(  0-S ,  1-C ) :   1.1594 B(  0-S ,  4-C ) :   1.1413 B(  1-C ,  2-C ) :   1.5765
B(  1-C ,  4-C ) :   0.1059 B(  1-C , 32-H ) :   0.9567 B(  2-C ,  3-C ) :   1.2589
B(  2-C ,  6-C ) :   1.0315 B(  3-C ,  4-C ) :   1.5712 B(  3-C ,  5-H ) :   0.9881
B(  4-C , 20-C ) :   1.0582 B(  6-C ,  7-H ) :   0.9439 B(  6-C ,  8-H ) :   0.9460
B(  6-C ,  9-C ) :   1.0396 B(  9-C , 10-H ) :   0.9595 B(  9-C , 11-H ) :   0.9606
B(  9-C , 12-C ) :   1.0605 B( 12-C , 13-H ) :   0.9708 B( 12-C , 14-H ) :   0.9774
B( 12-C , 15-H ) :   0.9748 B( 16-S , 17-C ) :   1.1741 B( 16-S , 20-C ) :   1.1241
B( 17-C , 18-C ) :   1.5865 B( 17-C , 33-H ) :   0.9761 B( 18-C , 19-C ) :   1.2384
B( 18-C , 21-H ) :   0.9882 B( 19-C , 20-C ) :   1.5931 B( 19-C , 22-C ) :   1.0339
B( 22-C , 23-H ) :   0.9317 B( 22-C , 24-H ) :   0.9309 B( 22-C , 25-C ) :   1.0842
B( 25-C , 26-H ) :   0.9524 B( 25-C , 27-H ) :   0.9517 B( 25-C , 28-C ) :   1.0649
B( 28-C , 29-H ) :   0.9760 B( 28-C , 30-H ) :   0.9710 B( 28-C , 31-H ) :   0.9732

Dispersion correction           -0.014641634
FINAL SINGLE POINT ENERGY     -1339.860750282230

DIPOLE MOMENT
-------------
                                X             Y             Z
Electronic contribution:    -12.37512      21.54654      -9.05355
Nuclear contribution   :     12.82511     -21.75526       9.21766
                        -----------------------------------------
Total Dipole Moment    :      0.44998      -0.20872       0.16412
                        -----------------------------------------
Magnitude (a.u.)       :      0.52248
Magnitude (Debye)      :      1.32803

Rotational constants in cm-1:     0.020255     0.007931     0.006616
Rotational constants in MHz :   607.216483   237.756707   198.354451

                             ****ORCA TERMINATED NORMALLY****
TOTAL RUN TIME: 0 days 0 hours 0 minutes 21 seconds 694 msec
