                         Program Version 4.2.1 -  RELEASE  -
|  1> ! wB97X-D3 SP def2-SVP
|  2> %pal
|  3> nprocs 24
|  4> end
|  5>
|  6> * xyz 0 1
|  7> S 	 11.9418 	 -16.6322 	 -119.984
|  8> C 	 10.5956 	 -15.6351 	 -120.477
|  9> C 	 9.72268 	 -15.3826 	 -119.379
| 10> C 	 10.1202 	 -16.0629 	 -118.163
| 11> C 	 11.2282 	 -16.8572 	 -118.379
| 12> H 	 9.62953 	 -16.1128 	 -117.206
| 13> C 	 8.5205 	 -14.5191 	 -119.521
| 14> H 	 7.90789 	 -14.6623 	 -118.68
| 15> H 	 8.01409 	 -14.7088 	 -120.418
| 16> C 	 8.9307 	 -13.023 	 -119.324
| 17> H 	 9.61697 	 -12.8669 	 -118.494
| 18> H 	 9.48101 	 -12.7638 	 -120.219
| 19> C 	 7.79346 	 -11.9805 	 -119.252
| 20> H 	 6.98313 	 -12.1143 	 -120.029
| 21> H 	 7.24654 	 -12.0225 	 -118.349
| 22> H 	 8.18613 	 -10.9449 	 -119.291
| 23> S 	 12.5453 	 -17.2118 	 -116.022
| 24> C 	 12.9953 	 -18.8203 	 -115.56
| 25> C 	 12.5957 	 -19.7152 	 -116.507
| 26> C 	 11.8392 	 -19.1603 	 -117.578
| 27> C 	 11.7789 	 -17.8191 	 -117.484
| 28> H 	 12.9379 	 -20.6818 	 -116.285
| 29> C 	 11.3644 	 -20.0081 	 -118.728
| 30> H 	 10.604 	 -19.5109 	 -119.376
| 31> H 	 11.045 	 -20.9755 	 -118.387
| 32> C 	 12.5188 	 -20.2113 	 -119.708
| 33> H 	 12.8022 	 -19.3393 	 -120.208
| 34> H 	 12.116 	 -20.7465 	 -120.587
| 35> C 	 13.7707 	 -20.9836 	 -119.304
| 36> H 	 14.3322 	 -20.2862 	 -118.745
| 37> H 	 14.3707 	 -21.2784 	 -120.159
| 38> H 	 13.4305 	 -21.9305 	 -118.778
| 39> H 	 10.4481 	 -15.0678 	 -121.384
| 40> H 	 13.6929 	 -19.1128 	 -114.767
| 41> *
| 42>
| 43>                          ****END OF INPUT****

CARTESIAN COORDINATES (ANGSTROEM)
---------------------------------
  S     11.941800  -16.632200  -119.984000
  C     10.595600  -15.635100  -120.477000
  C      9.722680  -15.382600  -119.379000
  C     10.120200  -16.062900  -118.163000
  C     11.228200  -16.857200  -118.379000
  H      9.629530  -16.112800  -117.206000
  C      8.520500  -14.519100  -119.521000
  H      7.907890  -14.662300  -118.680000
  H      8.014090  -14.708800  -120.418000
  C      8.930700  -13.023000  -119.324000
  H      9.616970  -12.866900  -118.494000
  H      9.481010  -12.763800  -120.219000
  C      7.793460  -11.980500  -119.252000
  H      6.983130  -12.114300  -120.029000
  H      7.246540  -12.022500  -118.349000
  H      8.186130  -10.944900  -119.291000
  S     12.545300  -17.211800  -116.022000
  C     12.995300  -18.820300  -115.560000
  C     12.595700  -19.715200  -116.507000
  C     11.839200  -19.160300  -117.578000
  C     11.778900  -17.819100  -117.484000
  H     12.937900  -20.681800  -116.285000
  C     11.364400  -20.008100  -118.728000
  H     10.604000  -19.510900  -119.376000
  H     11.045000  -20.975500  -118.387000
  C     12.518800  -20.211300  -119.708000
  H     12.802200  -19.339300  -120.208000
  H     12.116000  -20.746500  -120.587000
  C     13.770700  -20.983600  -119.304000
  H     14.332200  -20.286200  -118.745000
  H     14.370700  -21.278400  -120.159000
  H     13.430500  -21.930500  -118.778000
  H     10.448100  -15.067800  -121.384000
  H     13.692900  -19.112800  -114.767000

 Total Charge           Charge          ....    0
 Multiplicity           Mult            ....    1
 Number of Electrons    NEL             ....  134
 Basis Dimension        Dim             ....  322

ORBITAL ENERGIES
----------------

  NO   OCC          E(Eh)            E(eV)
   0   2.0000     -88.970474     -2421.0097
   1   2.0000     -88.960994     -2420.7517
   2   2.0000     -10.326734      -281.0047
   3   2.0000     -10.316972      -280.7391
   4   2.0000     -10.315152      -280.6896
   5   2.0000     -10.312371      -280.6139
   6   2.0000     -10.305455      -280.4257
   7   2.0000     -10.298576      -280.2385
   8   2.0000     -10.297566      -280.2110
   9   2.0000     -10.291323      -280.0411
  10   2.0000     -10.286396      -279.9071
  11   2.0000     -10.284996      -279.8690
  12   2.0000     -10.283743      -279.8349
  13   2.0000     -10.280017      -279.7335
  14   2.0000     -10.273089      -279.5450
  15   2.0000     -10.272351      -279.5249
  16   2.0000      -8.084097      -219.9795
  17   2.0000      -8.076223      -219.7652
  18   2.0000      -6.042632      -164.4284
  19   2.0000      -6.038710      -164.3217
  20   2.0000      -6.034946      -164.2192
  21   2.0000      -6.034717      -164.2130
  22   2.0000      -6.030682      -164.1032
  23   2.0000      -6.026944      -164.0015
  24   2.0000      -1.010631       -27.5007
  25   2.0000      -0.982681       -26.7401
  26   2.0000      -0.913259       -24.8510
  27   2.0000      -0.910998       -24.7895
  28   2.0000      -0.871734       -23.7211
  29   2.0000      -0.849190       -23.1076
  30   2.0000      -0.846254       -23.0277
  31   2.0000      -0.817832       -22.2543
  32   2.0000      -0.787494       -21.4288
  33   2.0000      -0.771654       -20.9978
  34   2.0000      -0.708119       -19.2689
  35   2.0000      -0.702138       -19.1061
  36   2.0000      -0.688813       -18.7436
  37   2.0000      -0.663474       -18.0540
  38   2.0000      -0.642080       -17.4719
  39   2.0000      -0.616789       -16.7837
  40   2.0000      -0.595721       -16.2104
  41   2.0000      -0.571767       -15.5586
  42   2.0000      -0.564764       -15.3680
  43   2.0000      -0.553066       -15.0497
  44   2.0000      -0.541818       -14.7436
  45   2.0000      -0.522726       -14.2241
  46   2.0000      -0.521818       -14.1994
  47   2.0000      -0.511892       -13.9293
  48   2.0000      -0.506966       -13.7952
  49   2.0000      -0.501883       -13.6569
  50   2.0000      -0.492174       -13.3927
  51   2.0000      -0.480250       -13.0683
  52   2.0000      -0.473590       -12.8870
  53   2.0000      -0.469143       -12.7660
  54   2.0000      -0.458249       -12.4696
  55   2.0000      -0.448177       -12.1955
  56   2.0000      -0.438154       -11.9228
  57   2.0000      -0.437966       -11.9176
  58   2.0000      -0.436145       -11.8681
  59   2.0000      -0.426501       -11.6057
  60   2.0000      -0.418004       -11.3745
  61   2.0000      -0.413375       -11.2485
  62   2.0000      -0.401964       -10.9380
  63   2.0000      -0.342716        -9.3258
  64   2.0000      -0.331853        -9.0302
  65   2.0000      -0.323575        -8.8049
  66   2.0000      -0.297604        -8.0982
  67   0.0000       0.036620         0.9965
  68   0.0000       0.063848         1.7374
  69   0.0000       0.111226         3.0266
  70   0.0000       0.115639         3.1467
  71   0.0000       0.133240         3.6256

MULLIKEN ATOMIC CHARGES
-----------------------
   0 S :    0.125099
   1 C :   -0.106830
   2 C :   -0.135427
   3 C :    0.058216
   4 C :   -0.175419
   5 H :    0.017329
   6 C :    0.138769
   7 H :    0.000542
   8 H :    0.022571
   9 C :   -0.097168
  10 H :    0.037051
  11 H :    0.017297
  12 C :   -0.047187
  13 H :    0.031179
  14 H :    0.017571
  15 H :    0.040429
  16 S :    0.108060
  17 C :   -0.096257
  18 C :   -0.045396
  19 C :    0.018066
  20 C :   -0.197539
  21 H :   -0.003513
  22 C :    0.126315
  23 H :    0.040963
  24 H :    0.016506
  25 C :   -0.099558
  26 H :    0.001162
  27 H :    0.013214
  28 C :   -0.035143
  29 H :    0.036370
  30 H :    0.032890
  31 H :    0.032928
  32 H :    0.045764
  33 H :    0.061144
Sum of atomic charges:    0.0000000

LOEWDIN ATOMIC CHARGES
----------------------
   0 S :    0.417137
   1 C :   -0.211631
   2 C :   -0.050675
   3 C :   -0.055178
   4 C :   -0.186093
   5 H :    0.034873
   6 C :   -0.023873
   7 H :    0.023873
   8 H :    0.026053
   9 C :   -0.036041
  10 H :    0.027578
  11 H :    0.018389
  12 C :   -0.073023
  13 H :    0.029412
  14 H :    0.014445
  15 H :    0.032224
  16 S :    0.400358
  17 C :   -0.190418
  18 C :   -0.068668
  19 C :   -0.052331
  20 C :   -0.203416
  21 H :    0.024016
  22 C :   -0.022694
  23 H :    0.042240
  24 H :    0.027800
  25 C :   -0.046645
  26 H :    0.003041
  27 H :    0.022666
  28 C :   -0.063889
  29 H :    0.019356
  30 H :    0.027697
  31 H :    0.029091
  32 H :    0.028116
  33 H :    0.036209

  Mayer bond orders larger than 0.100000
B(  0-S ,  1-C ) :   1.1331 B(  0-S ,  4-C ) :   1.1489 B(  1-C ,  2-C ) :   1.5991
B(  1-C , 32-H ) :   0.9667 B(  2-C ,  3-C ) :   1.2299 B(  2-C ,  6-C ) :   1.0484
B(  3-C ,  4-C ) :   1.5878 B(  3-C ,  5-H ) :   0.9913 B(  4-C , 20-C ) :   1.0252
B(  6-C ,  7-H ) :   0.9327 B(  6-C ,  8-H ) :   0.9384 B(  6-C ,  9-C ) :   1.0471
B(  9-C , 10-H ) :   0.9589 B(  9-C , 11-H ) :   0.9592 B(  9-C , 12-C ) :   1.0792
B( 12-C , 13-H ) :   0.9733 B( 12-C , 14-H ) :   0.9752 B( 12-C , 15-H ) :   0.9740
B( 16-S , 17-C ) :   1.1403 B( 16-S , 20-C ) :   1.1347 B( 17-C , 18-C ) :   1.6572
B( 17-C , 33-H ) :   0.9610 B( 18-C , 19-C ) :   1.1815 B( 18-C , 21-H ) :   0.9972
B( 19-C , 20-C ) :   1.6250 B( 19-C , 22-C ) :   1.0638 B( 22-C , 23-H ) :   0.9224
B( 22-C , 24-H ) :   0.9270 B( 22-C , 25-C ) :   1.0786 B( 25-C , 26-H ) :   0.9447
B( 25-C , 27-H ) :   0.9517 B( 25-C , 28-C ) :   1.0850 B( 28-C , 29-H ) :   0.9722
B( 28-C , 30-H ) :   0.9699 B( 28-C , 31-H ) :   0.9722

Dispersion correction           -0.014953541
FINAL SINGLE POINT ENERGY     -1339.870525730142

DIPOLE MOMENT
-------------
                                X             Y             Z
Electronic contribution:      9.49608      -2.24869       9.01978
Nuclear contribution   :     -9.73578       2.17844      -9.15518
                        -----------------------------------------
Total Dipole Moment    :     -0.23970      -0.07025      -0.13541
                        -----------------------------------------
Magnitude (a.u.)       :      0.28412
Magnitude (Debye)      :      0.72218

Rotational constants in cm-1:     0.026434     0.007421     0.006309
Rotational constants in MHz :   792.467251   222.463482   189.130288

                             ****ORCA TERMINATED NORMALLY****
TOTAL RUN TIME: 0 days 0 hours 0 minutes 21 seconds 606 msec
