                         Program Version 4.2.1 -  RELEASE  -
|  1> ! wB97X-D3 SP def2-SVP
|  2> %pal
|  3> nprocs 24
|  4> end
|  5>
|  6> * xyz 0 1
|  7> S 	 26.7163 	 -7.54964 	 -118.747
|  8> C 	 28.1049 	 -6.90807 	 -119.574
|  9> C 	 29.1127 	 -6.44229 	 -118.674
| 10> C 	 28.7585 	 -6.81266 	 -117.308
| 11> C 	 27.5189 	 -7.46632 	 -117.137
| 12> H 	 29.3736 	 -6.62254 	 -116.441
| 13> C 	 30.4268 	 -5.78223 	 -119.029
| 14> H 	 30.2978 	 -4.78235 	 -118.684
| 15> H 	 30.4771 	 -5.79835 	 -120.103
| 16> C 	 31.7098 	 -6.35801 	 -118.384
| 17> H 	 32.4719 	 -5.67328 	 -118.501
| 18> H 	 31.5043 	 -6.57636 	 -117.353
| 19> C 	 32.2701 	 -7.61722 	 -119.071
| 20> H 	 33.246 	 -7.80829 	 -118.773
| 21> H 	 31.7026 	 -8.51439 	 -118.872
| 22> H 	 32.3537 	 -7.49959 	 -120.101
| 23> S 	 25.3565 	 -6.87103 	 -115.518
| 24> C 	 25.4353 	 -7.42776 	 -113.823
| 25> C 	 26.4768 	 -8.36165 	 -113.58
| 26> C 	 27.3282 	 -8.42013 	 -114.735
| 27> C 	 26.9035 	 -7.60937 	 -115.86
| 28> H 	 26.742 	 -8.75574 	 -112.541
| 29> C 	 28.4934 	 -9.37769 	 -114.789
| 30> H 	 29.2758 	 -8.6527 	 -114.684
| 31> H 	 28.5084 	 -9.83233 	 -115.756
| 32> C 	 28.6655 	 -10.3183 	 -113.714
| 33> H 	 27.923 	 -11.0545 	 -113.61
| 34> H 	 28.7896 	 -9.73948 	 -112.758
| 35> C 	 30.0258 	 -11.0783 	 -113.904
| 36> H 	 30.91 	 -10.4861 	 -113.843
| 37> H 	 30.0221 	 -11.6776 	 -114.829
| 38> H 	 30.1287 	 -11.8386 	 -113.049
| 39> H 	 28.1227 	 -6.67668 	 -120.643
| 40> H 	 24.6978 	 -7.21491 	 -113.068
| 41> *
| 42>
| 43>                          ****END OF INPUT****

CARTESIAN COORDINATES (ANGSTROEM)
---------------------------------
  S     26.716300   -7.549640  -118.747000
  C     28.104900   -6.908070  -119.574000
  C     29.112700   -6.442290  -118.674000
  C     28.758500   -6.812660  -117.308000
  C     27.518900   -7.466320  -117.137000
  H     29.373600   -6.622540  -116.441000
  C     30.426800   -5.782230  -119.029000
  H     30.297800   -4.782350  -118.684000
  H     30.477100   -5.798350  -120.103000
  C     31.709800   -6.358010  -118.384000
  H     32.471900   -5.673280  -118.501000
  H     31.504300   -6.576360  -117.353000
  C     32.270100   -7.617220  -119.071000
  H     33.246000   -7.808290  -118.773000
  H     31.702600   -8.514390  -118.872000
  H     32.353700   -7.499590  -120.101000
  S     25.356500   -6.871030  -115.518000
  C     25.435300   -7.427760  -113.823000
  C     26.476800   -8.361650  -113.580000
  C     27.328200   -8.420130  -114.735000
  C     26.903500   -7.609370  -115.860000
  H     26.742000   -8.755740  -112.541000
  C     28.493400   -9.377690  -114.789000
  H     29.275800   -8.652700  -114.684000
  H     28.508400   -9.832330  -115.756000
  C     28.665500  -10.318300  -113.714000
  H     27.923000  -11.054500  -113.610000
  H     28.789600   -9.739480  -112.758000
  C     30.025800  -11.078300  -113.904000
  H     30.910000  -10.486100  -113.843000
  H     30.022100  -11.677600  -114.829000
  H     30.128700  -11.838600  -113.049000
  H     28.122700   -6.676680  -120.643000
  H     24.697800   -7.214910  -113.068000

 Total Charge           Charge          ....    0
 Multiplicity           Mult            ....    1
 Number of Electrons    NEL             ....  134
 Basis Dimension        Dim             ....  322

ORBITAL ENERGIES
----------------

  NO   OCC          E(Eh)            E(eV)
   0   2.0000     -88.970218     -2421.0027
   1   2.0000     -88.968645     -2420.9599
   2   2.0000     -10.332147      -281.1520
   3   2.0000     -10.326478      -280.9977
   4   2.0000     -10.322828      -280.8984
   5   2.0000     -10.320586      -280.8374
   6   2.0000     -10.308430      -280.5066
   7   2.0000     -10.306216      -280.4464
   8   2.0000     -10.304029      -280.3869
   9   2.0000     -10.298750      -280.2432
  10   2.0000     -10.290776      -280.0262
  11   2.0000     -10.284131      -279.8454
  12   2.0000     -10.283606      -279.8311
  13   2.0000     -10.282763      -279.8082
  14   2.0000     -10.277717      -279.6709
  15   2.0000     -10.263813      -279.2925
  16   2.0000      -8.083860      -219.9730
  17   2.0000      -8.082411      -219.9336
  18   2.0000      -6.042364      -164.4211
  19   2.0000      -6.041078      -164.3861
  20   2.0000      -6.038537      -164.3169
  21   2.0000      -6.036966      -164.2742
  22   2.0000      -6.034687      -164.2122
  23   2.0000      -6.033148      -164.1703
  24   2.0000      -0.995798       -27.0970
  25   2.0000      -0.971954       -26.4482
  26   2.0000      -0.922419       -25.1003
  27   2.0000      -0.911997       -24.8167
  28   2.0000      -0.868458       -23.6319
  29   2.0000      -0.848537       -23.0899
  30   2.0000      -0.844426       -22.9780
  31   2.0000      -0.810158       -22.0455
  32   2.0000      -0.783307       -21.3149
  33   2.0000      -0.766532       -20.8584
  34   2.0000      -0.714218       -19.4349
  35   2.0000      -0.703657       -19.1475
  36   2.0000      -0.695695       -18.9308
  37   2.0000      -0.645829       -17.5739
  38   2.0000      -0.637101       -17.3364
  39   2.0000      -0.617415       -16.8007
  40   2.0000      -0.594362       -16.1734
  41   2.0000      -0.586168       -15.9505
  42   2.0000      -0.566936       -15.4271
  43   2.0000      -0.554175       -15.0799
  44   2.0000      -0.543649       -14.7934
  45   2.0000      -0.525544       -14.3008
  46   2.0000      -0.515801       -14.0356
  47   2.0000      -0.508608       -13.8399
  48   2.0000      -0.502429       -13.6718
  49   2.0000      -0.497683       -13.5426
  50   2.0000      -0.484097       -13.1730
  51   2.0000      -0.478007       -13.0072
  52   2.0000      -0.470253       -12.7962
  53   2.0000      -0.467002       -12.7078
  54   2.0000      -0.458447       -12.4750
  55   2.0000      -0.450676       -12.2635
  56   2.0000      -0.445335       -12.1182
  57   2.0000      -0.440905       -11.9976
  58   2.0000      -0.431048       -11.7294
  59   2.0000      -0.429527       -11.6880
  60   2.0000      -0.428005       -11.6466
  61   2.0000      -0.417834       -11.3698
  62   2.0000      -0.408466       -11.1149
  63   2.0000      -0.346172        -9.4198
  64   2.0000      -0.330121        -8.9830
  65   2.0000      -0.321557        -8.7500
  66   2.0000      -0.280572        -7.6347
  67   0.0000       0.024018         0.6536
  68   0.0000       0.057702         1.5702
  69   0.0000       0.111283         3.0282
  70   0.0000       0.120586         3.2813
  71   0.0000       0.127604         3.4723

MULLIKEN ATOMIC CHARGES
-----------------------
   0 S :    0.107965
   1 C :   -0.122847
   2 C :   -0.116934
   3 C :    0.009116
   4 C :   -0.158233
   5 H :    0.019920
   6 C :    0.099749
   7 H :    0.035203
   8 H :    0.009324
   9 C :   -0.043354
  10 H :    0.014015
  11 H :    0.026411
  12 C :   -0.008628
  13 H :    0.009913
  14 H :    0.034173
  15 H :    0.006388
  16 S :    0.118882
  17 C :   -0.091872
  18 C :   -0.060618
  19 C :   -0.097560
  20 C :   -0.149628
  21 H :    0.058337
  22 C :    0.121056
  23 H :    0.017953
  24 H :    0.035893
  25 C :   -0.076225
  26 H :    0.026541
  27 H :    0.030130
  28 C :   -0.069462
  29 H :    0.030231
  30 H :    0.036838
  31 H :    0.034077
  32 H :    0.059668
  33 H :    0.053578
Sum of atomic charges:    0.0000000

LOEWDIN ATOMIC CHARGES
----------------------
   0 S :    0.392020
   1 C :   -0.208237
   2 C :   -0.059593
   3 C :   -0.052605
   4 C :   -0.194051
   5 H :    0.026694
   6 C :   -0.026094
   7 H :    0.034509
   8 H :    0.026511
   9 C :   -0.024227
  10 H :    0.017133
  11 H :    0.022071
  12 C :   -0.052925
  13 H :    0.018012
  14 H :    0.026675
  15 H :    0.016083
  16 S :    0.406600
  17 C :   -0.175851
  18 C :   -0.085038
  19 C :   -0.046487
  20 C :   -0.217681
  21 H :    0.048889
  22 C :   -0.039543
  23 H :    0.036998
  24 H :    0.031676
  25 C :   -0.038641
  26 H :    0.018118
  27 H :    0.029857
  28 C :   -0.062187
  29 H :    0.017825
  30 H :    0.025715
  31 H :    0.031484
  32 H :    0.031593
  33 H :    0.024696

  Mayer bond orders larger than 0.100000
B(  0-S ,  1-C ) :   1.1505 B(  0-S ,  4-C ) :   1.1244 B(  1-C ,  2-C ) :   1.5857
B(  1-C , 32-H ) :   0.9605 B(  2-C ,  3-C ) :   1.2554 B(  2-C ,  6-C ) :   1.0247
B(  3-C ,  4-C ) :   1.5532 B(  3-C ,  5-H ) :   0.9835 B(  4-C , 20-C ) :   1.1080
B(  6-C ,  7-H ) :   0.9263 B(  6-C ,  8-H ) :   0.9422 B(  6-C ,  9-C ) :   1.0810
B(  9-C , 10-H ) :   0.9524 B(  9-C , 11-H ) :   0.9562 B(  9-C , 12-C ) :   1.0819
B( 12-C , 13-H ) :   0.9719 B( 12-C , 14-H ) :   0.9777 B( 12-C , 15-H ) :   0.9717
B( 16-S , 17-C ) :   1.1745 B( 16-S , 20-C ) :   1.1291 B( 17-C , 18-C ) :   1.5692
B( 17-C , 20-C ) :   0.1067 B( 17-C , 33-H ) :   0.9633 B( 18-C , 19-C ) :   1.2974
B( 18-C , 21-H ) :   0.9650 B( 19-C , 20-C ) :   1.5428 B( 19-C , 22-C ) :   1.0117
B( 22-C , 23-H ) :   0.9110 B( 22-C , 24-H ) :   0.9326 B( 22-C , 25-C ) :   1.1193
B( 25-C , 26-H ) :   0.9488 B( 25-C , 27-H ) :   0.9362 B( 25-C , 28-C ) :   1.0819
B( 28-C , 29-H ) :   0.9778 B( 28-C , 30-H ) :   0.9752 B( 28-C , 31-H ) :   0.9751

Dispersion correction           -0.013712592
FINAL SINGLE POINT ENERGY     -1339.850940686871

DIPOLE MOMENT
-------------
                                X             Y             Z
Electronic contribution:    -28.72676       9.64170      -4.35498
Nuclear contribution   :     29.45469      -9.60861       4.56921
                        -----------------------------------------
Total Dipole Moment    :      0.72793       0.03309       0.21423
                        -----------------------------------------
Magnitude (a.u.)       :      0.75952
Magnitude (Debye)      :      1.93055

Rotational constants in cm-1:     0.015980     0.009311     0.006617
Rotational constants in MHz :   479.074366   279.148700   198.357743

                             ****ORCA TERMINATED NORMALLY****
TOTAL RUN TIME: 0 days 0 hours 0 minutes 21 seconds 357 msec
