                         Program Version 4.2.1 -  RELEASE  -
|  1> ! wB97X-D3 SP def2-SVP
|  2> %pal
|  3> nprocs 24
|  4> end
|  5>
|  6> * xyz 0 1
|  7> S 	 -54.8347 	 8.13449 	 24.3773
|  8> C 	 -54.6549 	 9.09973 	 22.8834
|  9> C 	 -55.6774 	 8.7292 	 22.0114
| 10> C 	 -56.4659 	 7.64857 	 22.3998
| 11> C 	 -56.1657 	 7.23597 	 23.6766
| 12> H 	 -57.246 	 7.23047 	 21.7673
| 13> C 	 -55.9601 	 9.6518 	 20.7743
| 14> H 	 -54.9795 	 10.0432 	 20.5078
| 15> H 	 -56.5236 	 10.5596 	 21.0194
| 16> C 	 -56.6483 	 8.97138 	 19.5891
| 17> H 	 -56.0597 	 8.02182 	 19.3299
| 18> H 	 -57.7248 	 8.79524 	 19.8558
| 19> C 	 -56.6341 	 9.87035 	 18.3022
| 20> H 	 -57.3887 	 10.6111 	 18.4827
| 21> H 	 -55.7159 	 10.4741 	 18.0688
| 22> H 	 -56.8756 	 9.3154 	 17.4607
| 23> S 	 -57.5969 	 6.43262 	 25.9563
| 24> C 	 -57.9294 	 4.79838 	 26.2522
| 25> C 	 -57.6169 	 4.10266 	 25.1102
| 26> C 	 -56.9871 	 4.81639 	 24.016
| 27> C 	 -56.7249 	 6.08559 	 24.3884
| 28> H 	 -57.8776 	 3.04696 	 25.0334
| 29> C 	 -56.6499 	 4.17523 	 22.7346
| 30> H 	 -56.0709 	 3.26725 	 22.9385
| 31> H 	 -55.9397 	 4.82817 	 22.127
| 32> C 	 -57.8529 	 3.80895 	 21.9017
| 33> H 	 -58.5356 	 4.65806 	 21.8872
| 34> H 	 -58.444 	 2.98565 	 22.231
| 35> C 	 -57.422 	 3.48969 	 20.4441
| 36> H 	 -56.6928 	 4.18075 	 19.9953
| 37> H 	 -58.3642 	 3.45917 	 19.8593
| 38> H 	 -57.0642 	 2.45466 	 20.4435
| 39> H 	 -54.1488 	 10.0832 	 22.8679
| 40> H 	 -58.4475 	 4.25463 	 27.0641
| 41> *
| 42>
| 43>                          ****END OF INPUT****

CARTESIAN COORDINATES (ANGSTROEM)
---------------------------------
  S    -54.834700    8.134490   24.377300
  C    -54.654900    9.099730   22.883400
  C    -55.677400    8.729200   22.011400
  C    -56.465900    7.648570   22.399800
  C    -56.165700    7.235970   23.676600
  H    -57.246000    7.230470   21.767300
  C    -55.960100    9.651800   20.774300
  H    -54.979500   10.043200   20.507800
  H    -56.523600   10.559600   21.019400
  C    -56.648300    8.971380   19.589100
  H    -56.059700    8.021820   19.329900
  H    -57.724800    8.795240   19.855800
  C    -56.634100    9.870350   18.302200
  H    -57.388700   10.611100   18.482700
  H    -55.715900   10.474100   18.068800
  H    -56.875600    9.315400   17.460700
  S    -57.596900    6.432620   25.956300
  C    -57.929400    4.798380   26.252200
  C    -57.616900    4.102660   25.110200
  C    -56.987100    4.816390   24.016000
  C    -56.724900    6.085590   24.388400
  H    -57.877600    3.046960   25.033400
  C    -56.649900    4.175230   22.734600
  H    -56.070900    3.267250   22.938500
  H    -55.939700    4.828170   22.127000
  C    -57.852900    3.808950   21.901700
  H    -58.535600    4.658060   21.887200
  H    -58.444000    2.985650   22.231000
  C    -57.422000    3.489690   20.444100
  H    -56.692800    4.180750   19.995300
  H    -58.364200    3.459170   19.859300
  H    -57.064200    2.454660   20.443500
  H    -54.148800   10.083200   22.867900
  H    -58.447500    4.254630   27.064100

 Total Charge           Charge          ....    0
 Multiplicity           Mult            ....    1
 Number of Electrons    NEL             ....  134
 Basis Dimension        Dim             ....  322

ORBITAL ENERGIES
----------------

  NO   OCC          E(Eh)            E(eV)
   0   2.0000     -88.966888     -2420.9121
   1   2.0000     -88.958565     -2420.6856
   2   2.0000     -10.331983      -281.1475
   3   2.0000     -10.325842      -280.9804
   4   2.0000     -10.316578      -280.7284
   5   2.0000     -10.315795      -280.7070
   6   2.0000     -10.302566      -280.3471
   7   2.0000     -10.300433      -280.2890
   8   2.0000     -10.299547      -280.2649
   9   2.0000     -10.294705      -280.1332
  10   2.0000     -10.294566      -280.1294
  11   2.0000     -10.292797      -280.0812
  12   2.0000     -10.289088      -279.9803
  13   2.0000     -10.285191      -279.8743
  14   2.0000     -10.282833      -279.8101
  15   2.0000     -10.277735      -279.6714
  16   2.0000      -8.080906      -219.8926
  17   2.0000      -8.073568      -219.6930
  18   2.0000      -6.039417      -164.3409
  19   2.0000      -6.035404      -164.2317
  20   2.0000      -6.032195      -164.1444
  21   2.0000      -6.031789      -164.1333
  22   2.0000      -6.028146      -164.0342
  23   2.0000      -6.024044      -163.9226
  24   2.0000      -1.006661       -27.3926
  25   2.0000      -0.985261       -26.8103
  26   2.0000      -0.917150       -24.9569
  27   2.0000      -0.906091       -24.6560
  28   2.0000      -0.869821       -23.6690
  29   2.0000      -0.851429       -23.1686
  30   2.0000      -0.843502       -22.9529
  31   2.0000      -0.812821       -22.1180
  32   2.0000      -0.781951       -21.2780
  33   2.0000      -0.772336       -21.0163
  34   2.0000      -0.710460       -19.3326
  35   2.0000      -0.700204       -19.0535
  36   2.0000      -0.684853       -18.6358
  37   2.0000      -0.654560       -17.8115
  38   2.0000      -0.639053       -17.3895
  39   2.0000      -0.623525       -16.9670
  40   2.0000      -0.598166       -16.2769
  41   2.0000      -0.572718       -15.5844
  42   2.0000      -0.570924       -15.5356
  43   2.0000      -0.557136       -15.1604
  44   2.0000      -0.528684       -14.3862
  45   2.0000      -0.523927       -14.2568
  46   2.0000      -0.516548       -14.0560
  47   2.0000      -0.512615       -13.9490
  48   2.0000      -0.506431       -13.7807
  49   2.0000      -0.495608       -13.4862
  50   2.0000      -0.489545       -13.3212
  51   2.0000      -0.483073       -13.1451
  52   2.0000      -0.471411       -12.8277
  53   2.0000      -0.469309       -12.7705
  54   2.0000      -0.460314       -12.5258
  55   2.0000      -0.447560       -12.1787
  56   2.0000      -0.443024       -12.0553
  57   2.0000      -0.436010       -11.8644
  58   2.0000      -0.432653       -11.7731
  59   2.0000      -0.427781       -11.6405
  60   2.0000      -0.419597       -11.4178
  61   2.0000      -0.411023       -11.1845
  62   2.0000      -0.408290       -11.1101
  63   2.0000      -0.342247        -9.3130
  64   2.0000      -0.336376        -9.1533
  65   2.0000      -0.321823        -8.7572
  66   2.0000      -0.299039        -8.1373
  67   0.0000       0.027634         0.7520
  68   0.0000       0.069095         1.8802
  69   0.0000       0.113460         3.0874
  70   0.0000       0.119218         3.2441
  71   0.0000       0.126283         3.4363

MULLIKEN ATOMIC CHARGES
-----------------------
   0 S :    0.111779
   1 C :   -0.135058
   2 C :   -0.091946
   3 C :    0.030073
   4 C :   -0.146902
   5 H :    0.016987
   6 C :    0.058600
   7 H :    0.015969
   8 H :    0.040039
   9 C :   -0.150447
  10 H :    0.048338
  11 H :    0.052472
  12 C :   -0.020586
  13 H :    0.020278
  14 H :    0.036478
  15 H :    0.025891
  16 S :    0.085725
  17 C :   -0.066600
  18 C :   -0.068509
  19 C :    0.010434
  20 C :   -0.162168
  21 H :    0.010856
  22 C :    0.044182
  23 H :    0.030336
  24 H :    0.037998
  25 C :   -0.081135
  26 H :    0.025701
  27 H :    0.027331
  28 C :   -0.059987
  29 H :    0.044424
  30 H :    0.035768
  31 H :    0.032404
  32 H :    0.071041
  33 H :    0.070234
Sum of atomic charges:   -0.0000000

LOEWDIN ATOMIC CHARGES
----------------------
   0 S :    0.402951
   1 C :   -0.202958
   2 C :   -0.059775
   3 C :   -0.067490
   4 C :   -0.186507
   5 H :    0.035986
   6 C :   -0.034470
   7 H :    0.027113
   8 H :    0.031782
   9 C :   -0.049977
  10 H :    0.030976
  11 H :    0.031146
  12 C :   -0.062890
  13 H :    0.022172
  14 H :    0.031078
  15 H :    0.016498
  16 S :    0.385611
  17 C :   -0.205806
  18 C :   -0.080062
  19 C :   -0.054729
  20 C :   -0.176217
  21 H :    0.024665
  22 C :   -0.037741
  23 H :    0.034573
  24 H :    0.039051
  25 C :   -0.037696
  26 H :    0.020467
  27 H :    0.022264
  28 C :   -0.065342
  29 H :    0.025766
  30 H :    0.029828
  31 H :    0.025959
  32 H :    0.036650
  33 H :    0.047126

  Mayer bond orders larger than 0.100000
B(  0-S ,  1-C ) :   1.1276 B(  0-S ,  4-C ) :   1.1811 B(  1-C ,  2-C ) :   1.6059
B(  1-C ,  4-C ) :   0.1120 B(  1-C , 32-H ) :   0.9618 B(  2-C ,  3-C ) :   1.2745
B(  2-C ,  6-C ) :   0.9973 B(  3-C ,  4-C ) :   1.5333 B(  3-C ,  5-H ) :   0.9990
B(  4-C , 20-C ) :   1.0052 B(  6-C ,  7-H ) :   0.9431 B(  6-C ,  8-H ) :   0.9420
B(  6-C ,  9-C ) :   1.0700 B(  9-C , 10-H ) :   0.9629 B(  9-C , 11-H ) :   0.9473
B(  9-C , 12-C ) :   1.0723 B( 12-C , 13-H ) :   0.9748 B( 12-C , 14-H ) :   0.9779
B( 12-C , 15-H ) :   0.9763 B( 16-S , 17-C ) :   1.1416 B( 16-S , 20-C ) :   1.1164
B( 17-C , 18-C ) :   1.6310 B( 17-C , 33-H ) :   0.9620 B( 18-C , 19-C ) :   1.2029
B( 18-C , 21-H ) :   0.9837 B( 19-C , 20-C ) :   1.6352 B( 19-C , 22-C ) :   1.0620
B( 22-C , 23-H ) :   0.9230 B( 22-C , 24-H ) :   0.9395 B( 22-C , 25-C ) :   1.0565
B( 25-C , 26-H ) :   0.9587 B( 25-C , 27-H ) :   0.9500 B( 25-C , 28-C ) :   1.0870
B( 28-C , 29-H ) :   0.9763 B( 28-C , 30-H ) :   0.9752 B( 28-C , 31-H ) :   0.9748

Dispersion correction           -0.014031504
FINAL SINGLE POINT ENERGY     -1339.872668964876

DIPOLE MOMENT
-------------
                                X             Y             Z
Electronic contribution:      5.13334       3.33640      31.46902
Nuclear contribution   :     -5.49162      -3.51467     -32.17257
                        -----------------------------------------
Total Dipole Moment    :     -0.35828      -0.17828      -0.70355
                        -----------------------------------------
Magnitude (a.u.)       :      0.80940
Magnitude (Debye)      :      2.05734

Rotational constants in cm-1:     0.017060     0.009071     0.006547
Rotational constants in MHz :   511.457042   271.928176   196.281342

                             ****ORCA TERMINATED NORMALLY****
TOTAL RUN TIME: 0 days 0 hours 0 minutes 20 seconds 340 msec
