                         Program Version 4.2.1 -  RELEASE  -
|  1> ! wB97X-D3 SP def2-SVP
|  2> %pal
|  3> nprocs 24
|  4> end
|  5>
|  6> * xyz 0 1
|  7> S 	 -100.003 	 7.48218 	 2.44359
|  8> C 	 -101.217 	 7.62542 	 1.20151
|  9> C 	 -100.635 	 7.75924 	 -0.0521672
| 10> C 	 -99.2219 	 7.93044 	 0.024421
| 11> C 	 -98.7424 	 7.83462 	 1.3606
| 12> H 	 -98.5741 	 8.12388 	 -0.77271
| 13> C 	 -101.393 	 7.82835 	 -1.35013
| 14> H 	 -102.45 	 7.81756 	 -0.967909
| 15> H 	 -101.027 	 6.92831 	 -1.86229
| 16> C 	 -101.155 	 8.99639 	 -2.26229
| 17> H 	 -101.729 	 9.84964 	 -1.8053
| 18> H 	 -100.045 	 9.19023 	 -2.39165
| 19> C 	 -101.904 	 8.8053 	 -3.60046
| 20> H 	 -102.89 	 8.34688 	 -3.36962
| 21> H 	 -102.02 	 9.78333 	 -4.11033
| 22> H 	 -101.311 	 8.23844 	 -4.26285
| 23> S 	 -96.7997 	 6.66603 	 2.78149
| 24> C 	 -95.1358 	 7.36876 	 2.7202
| 25> C 	 -95.0525 	 8.49765 	 2.02375
| 26> C 	 -96.3068 	 8.87338 	 1.52699
| 27> C 	 -97.3761 	 8.00608 	 1.86652
| 28> H 	 -94.0427 	 9.05337 	 2.03346
| 29> C 	 -96.4059 	 10.0131 	 0.47946
| 30> H 	 -97.1983 	 9.67671 	 -0.231977
| 31> H 	 -95.461 	 10.1629 	 -0.0690541
| 32> C 	 -96.8702 	 11.3577 	 1.06261
| 33> H 	 -97.101 	 12.0041 	 0.264018
| 34> H 	 -95.989 	 11.7498 	 1.60326
| 35> C 	 -97.9945 	 11.2206 	 2.02719
| 36> H 	 -98.2923 	 12.2454 	 2.34697
| 37> H 	 -97.687 	 10.5672 	 2.83915
| 38> H 	 -98.7736 	 10.8617 	 1.36295
| 39> H 	 -102.256 	 7.5117 	 1.31656
| 40> H 	 -94.293 	 7.01836 	 3.30119
| 41> *
| 42>
| 43>                          ****END OF INPUT****

CARTESIAN COORDINATES (ANGSTROEM)
---------------------------------
  S    -100.003000    7.482180    2.443590
  C    -101.217000    7.625420    1.201510
  C    -100.635000    7.759240   -0.052167
  C    -99.221900    7.930440    0.024421
  C    -98.742400    7.834620    1.360600
  H    -98.574100    8.123880   -0.772710
  C    -101.393000    7.828350   -1.350130
  H    -102.450000    7.817560   -0.967909
  H    -101.027000    6.928310   -1.862290
  C    -101.155000    8.996390   -2.262290
  H    -101.729000    9.849640   -1.805300
  H    -100.045000    9.190230   -2.391650
  C    -101.904000    8.805300   -3.600460
  H    -102.890000    8.346880   -3.369620
  H    -102.020000    9.783330   -4.110330
  H    -101.311000    8.238440   -4.262850
  S    -96.799700    6.666030    2.781490
  C    -95.135800    7.368760    2.720200
  C    -95.052500    8.497650    2.023750
  C    -96.306800    8.873380    1.526990
  C    -97.376100    8.006080    1.866520
  H    -94.042700    9.053370    2.033460
  C    -96.405900   10.013100    0.479460
  H    -97.198300    9.676710   -0.231977
  H    -95.461000   10.162900   -0.069054
  C    -96.870200   11.357700    1.062610
  H    -97.101000   12.004100    0.264018
  H    -95.989000   11.749800    1.603260
  C    -97.994500   11.220600    2.027190
  H    -98.292300   12.245400    2.346970
  H    -97.687000   10.567200    2.839150
  H    -98.773600   10.861700    1.362950
  H    -102.256000    7.511700    1.316560
  H    -94.293000    7.018360    3.301190

 Total Charge           Charge          ....    0
 Multiplicity           Mult            ....    1
 Number of Electrons    NEL             ....  134
 Basis Dimension        Dim             ....  322

ORBITAL ENERGIES
----------------

  NO   OCC          E(Eh)            E(eV)
   0   2.0000     -88.968777     -2420.9635
   1   2.0000     -88.966480     -2420.9010
   2   2.0000     -10.331660      -281.1388
   3   2.0000     -10.329048      -281.0677
   4   2.0000     -10.314030      -280.6590
   5   2.0000     -10.309371      -280.5322
   6   2.0000     -10.305517      -280.4274
   7   2.0000     -10.299939      -280.2756
   8   2.0000     -10.295509      -280.1550
   9   2.0000     -10.294963      -280.1402
  10   2.0000     -10.294661      -280.1320
  11   2.0000     -10.292448      -280.0718
  12   2.0000     -10.291111      -280.0354
  13   2.0000     -10.281278      -279.7678
  14   2.0000     -10.271872      -279.5118
  15   2.0000     -10.264377      -279.3079
  16   2.0000      -8.084305      -219.9851
  17   2.0000      -8.081026      -219.8959
  18   2.0000      -6.042752      -164.4316
  19   2.0000      -6.039590      -164.3456
  20   2.0000      -6.038527      -164.3167
  21   2.0000      -6.035613      -164.2374
  22   2.0000      -6.035268      -164.2280
  23   2.0000      -6.031669      -164.1301
  24   2.0000      -1.011283       -27.5184
  25   2.0000      -0.987744       -26.8779
  26   2.0000      -0.920183       -25.0394
  27   2.0000      -0.909035       -24.7361
  28   2.0000      -0.877633       -23.8816
  29   2.0000      -0.850997       -23.1568
  30   2.0000      -0.843328       -22.9481
  31   2.0000      -0.815537       -22.1919
  32   2.0000      -0.782119       -21.2825
  33   2.0000      -0.768905       -20.9230
  34   2.0000      -0.709972       -19.3193
  35   2.0000      -0.691464       -18.8157
  36   2.0000      -0.680826       -18.5262
  37   2.0000      -0.655640       -17.8409
  38   2.0000      -0.641035       -17.4434
  39   2.0000      -0.623113       -16.9558
  40   2.0000      -0.590331       -16.0637
  41   2.0000      -0.578884       -15.7522
  42   2.0000      -0.569996       -15.5104
  43   2.0000      -0.556324       -15.1383
  44   2.0000      -0.546214       -14.8633
  45   2.0000      -0.527211       -14.3461
  46   2.0000      -0.516693       -14.0599
  47   2.0000      -0.509338       -13.8598
  48   2.0000      -0.506607       -13.7855
  49   2.0000      -0.499309       -13.5869
  50   2.0000      -0.494987       -13.4693
  51   2.0000      -0.472645       -12.8613
  52   2.0000      -0.470104       -12.7922
  53   2.0000      -0.462903       -12.5962
  54   2.0000      -0.460899       -12.5417
  55   2.0000      -0.448208       -12.1964
  56   2.0000      -0.445652       -12.1268
  57   2.0000      -0.435034       -11.8379
  58   2.0000      -0.427494       -11.6327
  59   2.0000      -0.426953       -11.6180
  60   2.0000      -0.414418       -11.2769
  61   2.0000      -0.412449       -11.2233
  62   2.0000      -0.404804       -11.0153
  63   2.0000      -0.354978        -9.6595
  64   2.0000      -0.331383        -9.0174
  65   2.0000      -0.326915        -8.8958
  66   2.0000      -0.288876        -7.8607
  67   0.0000       0.027019         0.7352
  68   0.0000       0.071818         1.9543
  69   0.0000       0.101315         2.7569
  70   0.0000       0.120266         3.2726
  71   0.0000       0.128107         3.4860

MULLIKEN ATOMIC CHARGES
-----------------------
   0 S :    0.126214
   1 C :   -0.106140
   2 C :   -0.092804
   3 C :    0.040576
   4 C :   -0.154341
   5 H :   -0.004284
   6 C :    0.061726
   7 H :    0.025995
   8 H :    0.041259
   9 C :   -0.114921
  10 H :    0.036601
  11 H :    0.046240
  12 C :   -0.038417
  13 H :    0.041416
  14 H :    0.038561
  15 H :    0.024041
  16 S :    0.098350
  17 C :   -0.090523
  18 C :   -0.054489
  19 C :   -0.070940
  20 C :   -0.132432
  21 H :    0.057740
  22 C :    0.046026
  23 H :    0.012680
  24 H :    0.032175
  25 C :   -0.066330
  26 H :    0.018949
  27 H :    0.014111
  28 C :   -0.032538
  29 H :    0.032035
  30 H :    0.059279
  31 H :    0.030419
  32 H :    0.025618
  33 H :    0.048149
Sum of atomic charges:   -0.0000000

LOEWDIN ATOMIC CHARGES
----------------------
   0 S :    0.440376
   1 C :   -0.206293
   2 C :   -0.057582
   3 C :   -0.064061
   4 C :   -0.206690
   5 H :    0.016630
   6 C :   -0.040740
   7 H :    0.036732
   8 H :    0.037650
   9 C :   -0.049205
  10 H :    0.031595
  11 H :    0.029155
  12 C :   -0.062488
  13 H :    0.031533
  14 H :    0.030347
  15 H :    0.015738
  16 S :    0.396826
  17 C :   -0.166452
  18 C :   -0.082564
  19 C :   -0.060191
  20 C :   -0.209476
  21 H :    0.056058
  22 C :   -0.032954
  23 H :    0.026889
  24 H :    0.031248
  25 C :   -0.041277
  26 H :    0.015589
  27 H :    0.017225
  28 C :   -0.063077
  29 H :    0.028470
  30 H :    0.028761
  31 H :    0.027066
  32 H :    0.017919
  33 H :    0.027244

  Mayer bond orders larger than 0.100000
B(  0-S ,  1-C ) :   1.1390 B(  0-S ,  4-C ) :   1.1949 B(  1-C ,  2-C ) :   1.5959
B(  1-C ,  4-C ) :   0.1033 B(  1-C , 32-H ) :   0.9710 B(  2-C ,  3-C ) :   1.2568
B(  2-C ,  6-C ) :   1.0169 B(  3-C ,  4-C ) :   1.5272 B(  3-C ,  5-H ) :   0.9995
B(  4-C , 20-C ) :   1.0056 B(  6-C ,  7-H ) :   0.9361 B(  6-C ,  8-H ) :   0.9299
B(  6-C ,  9-C ) :   1.0822 B(  9-C , 10-H ) :   0.9559 B(  9-C , 11-H ) :   0.9525
B(  9-C , 12-C ) :   1.0739 B( 12-C , 13-H ) :   0.9712 B( 12-C , 14-H ) :   0.9764
B( 12-C , 15-H ) :   0.9767 B( 16-S , 17-C ) :   1.1339 B( 16-S , 20-C ) :   1.1528
B( 17-C , 18-C ) :   1.6573 B( 17-C , 20-C ) :   0.1039 B( 17-C , 33-H ) :   0.9599
B( 18-C , 19-C ) :   1.2419 B( 18-C , 21-H ) :   0.9733 B( 19-C , 20-C ) :   1.5907
B( 19-C , 22-C ) :   1.0223 B( 22-C , 23-H ) :   0.9370 B( 22-C , 24-H ) :   0.9458
B( 22-C , 25-C ) :   1.0695 B( 25-C , 26-H ) :   0.9564 B( 25-C , 27-H ) :   0.9508
B( 25-C , 28-C ) :   1.0936 B( 28-C , 29-H ) :   0.9695 B( 28-C , 30-H ) :   0.9631
B( 28-C , 31-H ) :   0.9748

Dispersion correction           -0.015095490
FINAL SINGLE POINT ENERGY     -1339.861731180950

DIPOLE MOMENT
-------------
                                X             Y             Z
Electronic contribution:      7.26065     -17.42924      20.68103
Nuclear contribution   :     -7.18511      17.75060     -21.23958
                        -----------------------------------------
Total Dipole Moment    :      0.07553       0.32136      -0.55855
                        -----------------------------------------
Magnitude (a.u.)       :      0.64881
Magnitude (Debye)      :      1.64915

Rotational constants in cm-1:     0.020562     0.008694     0.007285
Rotational constants in MHz :   616.425510   260.650626   218.406553

                             ****ORCA TERMINATED NORMALLY****
TOTAL RUN TIME: 0 days 0 hours 0 minutes 22 seconds 939 msec
