                         Program Version 4.2.1 -  RELEASE  -
|  1> ! wB97X-D3 SP def2-SVP
|  2> %pal
|  3> nprocs 24
|  4> end
|  5>
|  6> * xyz 0 1
|  7> S 	 -121.473 	 34.6087 	 -114.861
|  8> C 	 -120.318 	 34.1933 	 -116.195
|  9> C 	 -119.02 	 33.987 	 -115.767
| 10> C 	 -118.924 	 34.2866 	 -114.362
| 11> C 	 -120.13 	 34.5352 	 -113.733
| 12> H 	 -117.987 	 34.3066 	 -113.728
| 13> C 	 -117.875 	 33.7249 	 -116.659
| 14> H 	 -117.046 	 34.3549 	 -116.337
| 15> H 	 -118.119 	 33.9319 	 -117.701
| 16> C 	 -117.408 	 32.2467 	 -116.637
| 17> H 	 -117.194 	 31.8494 	 -115.669
| 18> H 	 -118.352 	 31.7178 	 -116.872
| 19> C 	 -116.252 	 31.9464 	 -117.659
| 20> H 	 -115.299 	 31.9182 	 -117.091
| 21> H 	 -116.34 	 31.0083 	 -118.137
| 22> H 	 -116.109 	 32.6881 	 -118.478
| 23> S 	 -120.773 	 33.2019 	 -111.424
| 24> C 	 -120.759 	 34.0814 	 -109.86
| 25> C 	 -120.593 	 35.4373 	 -110.135
| 26> C 	 -120.374 	 35.7542 	 -111.514
| 27> C 	 -120.466 	 34.6769 	 -112.319
| 28> H 	 -120.67 	 36.1925 	 -109.375
| 29> C 	 -119.925 	 37.1845 	 -111.879
| 30> H 	 -119.789 	 37.2425 	 -112.933
| 31> H 	 -118.906 	 37.4018 	 -111.419
| 32> C 	 -120.886 	 38.2665 	 -111.4
| 33> H 	 -121.057 	 38.3123 	 -110.411
| 34> H 	 -121.88 	 38.075 	 -111.833
| 35> C 	 -120.385 	 39.6098 	 -111.924
| 36> H 	 -119.545 	 39.8304 	 -111.26
| 37> H 	 -121.082 	 40.4073 	 -111.673
| 38> H 	 -120.1 	 39.5825 	 -112.977
| 39> H 	 -120.654 	 34.0817 	 -117.196
| 40> H 	 -120.873 	 33.6197 	 -108.901
| 41> *
| 42>
| 43>                          ****END OF INPUT****

CARTESIAN COORDINATES (ANGSTROEM)
---------------------------------
  S    -121.473000   34.608700  -114.861000
  C    -120.318000   34.193300  -116.195000
  C    -119.020000   33.987000  -115.767000
  C    -118.924000   34.286600  -114.362000
  C    -120.130000   34.535200  -113.733000
  H    -117.987000   34.306600  -113.728000
  C    -117.875000   33.724900  -116.659000
  H    -117.046000   34.354900  -116.337000
  H    -118.119000   33.931900  -117.701000
  C    -117.408000   32.246700  -116.637000
  H    -117.194000   31.849400  -115.669000
  H    -118.352000   31.717800  -116.872000
  C    -116.252000   31.946400  -117.659000
  H    -115.299000   31.918200  -117.091000
  H    -116.340000   31.008300  -118.137000
  H    -116.109000   32.688100  -118.478000
  S    -120.773000   33.201900  -111.424000
  C    -120.759000   34.081400  -109.860000
  C    -120.593000   35.437300  -110.135000
  C    -120.374000   35.754200  -111.514000
  C    -120.466000   34.676900  -112.319000
  H    -120.670000   36.192500  -109.375000
  C    -119.925000   37.184500  -111.879000
  H    -119.789000   37.242500  -112.933000
  H    -118.906000   37.401800  -111.419000
  C    -120.886000   38.266500  -111.400000
  H    -121.057000   38.312300  -110.411000
  H    -121.880000   38.075000  -111.833000
  C    -120.385000   39.609800  -111.924000
  H    -119.545000   39.830400  -111.260000
  H    -121.082000   40.407300  -111.673000
  H    -120.100000   39.582500  -112.977000
  H    -120.654000   34.081700  -117.196000
  H    -120.873000   33.619700  -108.901000

 Total Charge           Charge          ....    0
 Multiplicity           Mult            ....    1
 Number of Electrons    NEL             ....  134
 Basis Dimension        Dim             ....  322

ORBITAL ENERGIES
----------------

  NO   OCC          E(Eh)            E(eV)
   0   2.0000     -88.963886     -2420.8304
   1   2.0000     -88.961928     -2420.7771
   2   2.0000     -10.328094      -281.0417
   3   2.0000     -10.322820      -280.8982
   4   2.0000     -10.320601      -280.8378
   5   2.0000     -10.315582      -280.7012
   6   2.0000     -10.302702      -280.3508
   7   2.0000     -10.301402      -280.3154
   8   2.0000     -10.298513      -280.2368
   9   2.0000     -10.293853      -280.1100
  10   2.0000     -10.293622      -280.1037
  11   2.0000     -10.292596      -280.0758
  12   2.0000     -10.288567      -279.9661
  13   2.0000     -10.282425      -279.7990
  14   2.0000     -10.275754      -279.6175
  15   2.0000     -10.275528      -279.6113
  16   2.0000      -8.077862      -219.8098
  17   2.0000      -8.076203      -219.7647
  18   2.0000      -6.036388      -164.2585
  19   2.0000      -6.034919      -164.2185
  20   2.0000      -6.032565      -164.1544
  21   2.0000      -6.030770      -164.1056
  22   2.0000      -6.028562      -164.0455
  23   2.0000      -6.026759      -163.9965
  24   2.0000      -1.002535       -27.2804
  25   2.0000      -0.978185       -26.6178
  26   2.0000      -0.912763       -24.8376
  27   2.0000      -0.910916       -24.7873
  28   2.0000      -0.865050       -23.5392
  29   2.0000      -0.847909       -23.0728
  30   2.0000      -0.841547       -22.8997
  31   2.0000      -0.811909       -22.0932
  32   2.0000      -0.781167       -21.2566
  33   2.0000      -0.769928       -20.9508
  34   2.0000      -0.707047       -19.2397
  35   2.0000      -0.704844       -19.1798
  36   2.0000      -0.697259       -18.9734
  37   2.0000      -0.663309       -18.0496
  38   2.0000      -0.643843       -17.5198
  39   2.0000      -0.614454       -16.7201
  40   2.0000      -0.599837       -16.3224
  41   2.0000      -0.570116       -15.5137
  42   2.0000      -0.567621       -15.4457
  43   2.0000      -0.556497       -15.1431
  44   2.0000      -0.532040       -14.4775
  45   2.0000      -0.520160       -14.1543
  46   2.0000      -0.516954       -14.0670
  47   2.0000      -0.509059       -13.8522
  48   2.0000      -0.505711       -13.7611
  49   2.0000      -0.496879       -13.5208
  50   2.0000      -0.488028       -13.2799
  51   2.0000      -0.475454       -12.9378
  52   2.0000      -0.467485       -12.7209
  53   2.0000      -0.464412       -12.6373
  54   2.0000      -0.456494       -12.4218
  55   2.0000      -0.449820       -12.2402
  56   2.0000      -0.446017       -12.1367
  57   2.0000      -0.440412       -11.9842
  58   2.0000      -0.439462       -11.9584
  59   2.0000      -0.426348       -11.6015
  60   2.0000      -0.416388       -11.3305
  61   2.0000      -0.413777       -11.2594
  62   2.0000      -0.413110       -11.2413
  63   2.0000      -0.335303        -9.1241
  64   2.0000      -0.326078        -8.8730
  65   2.0000      -0.319277        -8.6880
  66   2.0000      -0.313665        -8.5353
  67   0.0000       0.047627         1.2960
  68   0.0000       0.052315         1.4236
  69   0.0000       0.108301         2.9470
  70   0.0000       0.119585         3.2541
  71   0.0000       0.124281         3.3819

MULLIKEN ATOMIC CHARGES
-----------------------
   0 S :    0.099597
   1 C :   -0.114585
   2 C :   -0.073905
   3 C :    0.037951
   4 C :   -0.203203
   5 H :    0.034782
   6 C :    0.072641
   7 H :    0.030687
   8 H :    0.023122
   9 C :   -0.089950
  10 H :    0.026457
  11 H :    0.024597
  12 C :   -0.042101
  13 H :    0.037297
  14 H :    0.030813
  15 H :    0.034386
  16 S :    0.101305
  17 C :   -0.094080
  18 C :   -0.018077
  19 C :    0.004487
  20 C :   -0.179697
  21 H :    0.012988
  22 C :    0.071952
  23 H :    0.016798
  24 H :    0.040456
  25 C :   -0.068455
  26 H :    0.002360
  27 H :    0.028229
  28 C :   -0.032272
  29 H :    0.019369
  30 H :    0.030650
  31 H :    0.042929
  32 H :    0.034739
  33 H :    0.057732
Sum of atomic charges:   -0.0000000

LOEWDIN ATOMIC CHARGES
----------------------
   0 S :    0.377322
   1 C :   -0.167549
   2 C :   -0.062456
   3 C :   -0.062920
   4 C :   -0.193393
   5 H :    0.043192
   6 C :   -0.028998
   7 H :    0.031265
   8 H :    0.031705
   9 C :   -0.039274
  10 H :    0.019503
  11 H :    0.025280
  12 C :   -0.069256
  13 H :    0.031405
  14 H :    0.021785
  15 H :    0.028550
  16 S :    0.386660
  17 C :   -0.164303
  18 C :   -0.065137
  19 C :   -0.057270
  20 C :   -0.211550
  21 H :    0.025490
  22 C :   -0.021983
  23 H :    0.023980
  24 H :    0.038361
  25 C :   -0.034519
  26 H :    0.004285
  27 H :    0.026692
  28 C :   -0.060291
  29 H :    0.025043
  30 H :    0.025673
  31 H :    0.027821
  32 H :    0.017210
  33 H :    0.027675

  Mayer bond orders larger than 0.100000
B(  0-S ,  1-C ) :   1.1250 B(  0-S ,  4-C ) :   1.1471 B(  1-C ,  2-C ) :   1.6323
B(  1-C , 32-H ) :   0.9723 B(  2-C ,  3-C ) :   1.1981 B(  2-C ,  6-C ) :   1.0406
B(  3-C ,  4-C ) :   1.6358 B(  3-C ,  5-H ) :   0.9835 B(  4-C , 20-C ) :   0.9827
B(  6-C ,  7-H ) :   0.9374 B(  6-C ,  8-H ) :   0.9412 B(  6-C ,  9-C ) :   1.0482
B(  9-C , 10-H ) :   0.9645 B(  9-C , 11-H ) :   0.9599 B(  9-C , 12-C ) :   1.0566
B( 12-C , 13-H ) :   0.9777 B( 12-C , 14-H ) :   0.9781 B( 12-C , 15-H ) :   0.9782
B( 16-S , 17-C ) :   1.1416 B( 16-S , 20-C ) :   1.1317 B( 17-C , 18-C ) :   1.6162
B( 17-C , 33-H ) :   0.9747 B( 18-C , 19-C ) :   1.2211 B( 18-C , 21-H ) :   0.9889
B( 19-C , 20-C ) :   1.6543 B( 19-C , 22-C ) :   1.0355 B( 22-C , 23-H ) :   0.9320
B( 22-C , 24-H ) :   0.9394 B( 22-C , 25-C ) :   1.0583 B( 25-C , 26-H ) :   0.9559
B( 25-C , 27-H ) :   0.9518 B( 25-C , 28-C ) :   1.0931 B( 28-C , 29-H ) :   0.9730
B( 28-C , 30-H ) :   0.9716 B( 28-C , 31-H ) :   0.9745

Dispersion correction           -0.013515636
FINAL SINGLE POINT ENERGY     -1339.876703391259

DIPOLE MOMENT
-------------
                                X             Y             Z
Electronic contribution:    -15.55393     -10.23265       8.56074
Nuclear contribution   :     16.04462      10.51258      -8.54539
                        -----------------------------------------
Total Dipole Moment    :      0.49068       0.27993       0.01535
                        -----------------------------------------
Magnitude (a.u.)       :      0.56513
Magnitude (Debye)      :      1.43644

Rotational constants in cm-1:     0.020040     0.007126     0.006241
Rotational constants in MHz :   600.795122   213.632064   187.111697

                             ****ORCA TERMINATED NORMALLY****
TOTAL RUN TIME: 0 days 0 hours 0 minutes 20 seconds 732 msec
