                         Program Version 4.2.1 -  RELEASE  -
|  1> ! wB97X-D3 SP def2-SVP
|  2> %pal
|  3> nprocs 24
|  4> end
|  5>
|  6> * xyz 0 1
|  7> S 	 -84.6233 	 1.01548 	 -113.52
|  8> C 	 -84.1376 	 0.404038 	 -115.06
|  9> C 	 -85.0977 	 0.0432723 	 -115.957
| 10> C 	 -86.3354 	 0.100334 	 -115.242
| 11> C 	 -86.2317 	 0.478759 	 -113.903
| 12> H 	 -87.3508 	 -0.280035 	 -115.509
| 13> C 	 -84.8779 	 -0.44106 	 -117.409
| 14> H 	 -85.3702 	 -1.37551 	 -117.654
| 15> H 	 -83.847 	 -0.717082 	 -117.535
| 16> C 	 -85.3141 	 0.477646 	 -118.539
| 17> H 	 -84.9198 	 0.148066 	 -119.52
| 18> H 	 -86.4199 	 0.277912 	 -118.648
| 19> C 	 -84.8958 	 1.96177 	 -118.299
| 20> H 	 -85.3504 	 2.24923 	 -117.323
| 21> H 	 -83.8356 	 2.01444 	 -118.454
| 22> H 	 -85.2677 	 2.73123 	 -118.976
| 23> S 	 -88.2948 	 -0.704937 	 -112.448
| 24> C 	 -89.5021 	 0.330126 	 -111.741
| 25> C 	 -89.0297 	 1.6265 	 -111.774
| 26> C 	 -87.8544 	 1.82074 	 -112.544
| 27> C 	 -87.3685 	 0.623367 	 -113.003
| 28> H 	 -89.57 	 2.39395 	 -111.222
| 29> C 	 -87.2521 	 3.1887 	 -112.889
| 30> H 	 -86.3591 	 3.30243 	 -112.265
| 31> H 	 -87.9868 	 3.93321 	 -112.602
| 32> C 	 -87.0701 	 3.39288 	 -114.436
| 33> H 	 -86.3122 	 2.82759 	 -114.872
| 34> H 	 -86.7572 	 4.34177 	 -114.582
| 35> C 	 -88.3836 	 3.06226 	 -115.187
| 36> H 	 -88.5978 	 2.04572 	 -115.315
| 37> H 	 -88.5009 	 3.62445 	 -116.094
| 38> H 	 -89.2364 	 3.54347 	 -114.658
| 39> H 	 -83.1104 	 0.266755 	 -115.396
| 40> H 	 -90.4088 	 -0.0433556 	 -111.26
| 41> *
| 42>
| 43>                          ****END OF INPUT****

CARTESIAN COORDINATES (ANGSTROEM)
---------------------------------
  S    -84.623300    1.015480  -113.520000
  C    -84.137600    0.404038  -115.060000
  C    -85.097700    0.043272  -115.957000
  C    -86.335400    0.100334  -115.242000
  C    -86.231700    0.478759  -113.903000
  H    -87.350800   -0.280035  -115.509000
  C    -84.877900   -0.441060  -117.409000
  H    -85.370200   -1.375510  -117.654000
  H    -83.847000   -0.717082  -117.535000
  C    -85.314100    0.477646  -118.539000
  H    -84.919800    0.148066  -119.520000
  H    -86.419900    0.277912  -118.648000
  C    -84.895800    1.961770  -118.299000
  H    -85.350400    2.249230  -117.323000
  H    -83.835600    2.014440  -118.454000
  H    -85.267700    2.731230  -118.976000
  S    -88.294800   -0.704937  -112.448000
  C    -89.502100    0.330126  -111.741000
  C    -89.029700    1.626500  -111.774000
  C    -87.854400    1.820740  -112.544000
  C    -87.368500    0.623367  -113.003000
  H    -89.570000    2.393950  -111.222000
  C    -87.252100    3.188700  -112.889000
  H    -86.359100    3.302430  -112.265000
  H    -87.986800    3.933210  -112.602000
  C    -87.070100    3.392880  -114.436000
  H    -86.312200    2.827590  -114.872000
  H    -86.757200    4.341770  -114.582000
  C    -88.383600    3.062260  -115.187000
  H    -88.597800    2.045720  -115.315000
  H    -88.500900    3.624450  -116.094000
  H    -89.236400    3.543470  -114.658000
  H    -83.110400    0.266755  -115.396000
  H    -90.408800   -0.043356  -111.260000

 Total Charge           Charge          ....    0
 Multiplicity           Mult            ....    1
 Number of Electrons    NEL             ....  134
 Basis Dimension        Dim             ....  322

ORBITAL ENERGIES
----------------

  NO   OCC          E(Eh)            E(eV)
   0   2.0000     -88.971853     -2421.0472
   1   2.0000     -88.963329     -2420.8153
   2   2.0000     -10.323871      -280.9268
   3   2.0000     -10.315177      -280.6902
   4   2.0000     -10.314658      -280.6761
   5   2.0000     -10.312351      -280.6133
   6   2.0000     -10.304909      -280.4108
   7   2.0000     -10.297790      -280.2171
   8   2.0000     -10.295202      -280.1467
   9   2.0000     -10.293990      -280.1137
  10   2.0000     -10.293569      -280.1022
  11   2.0000     -10.292207      -280.0652
  12   2.0000     -10.290626      -280.0222
  13   2.0000     -10.277716      -279.6709
  14   2.0000     -10.269922      -279.4588
  15   2.0000     -10.266402      -279.3630
  16   2.0000      -8.086471      -220.0441
  17   2.0000      -8.078724      -219.8333
  18   2.0000      -6.044819      -164.4879
  19   2.0000      -6.041198      -164.3893
  20   2.0000      -6.037212      -164.2809
  21   2.0000      -6.037125      -164.2785
  22   2.0000      -6.033074      -164.1683
  23   2.0000      -6.029635      -164.0747
  24   2.0000      -1.012562       -27.5532
  25   2.0000      -0.990274       -26.9467
  26   2.0000      -0.912310       -24.8252
  27   2.0000      -0.903479       -24.5849
  28   2.0000      -0.866939       -23.5906
  29   2.0000      -0.849414       -23.1137
  30   2.0000      -0.842631       -22.9292
  31   2.0000      -0.809589       -22.0300
  32   2.0000      -0.787527       -21.4297
  33   2.0000      -0.774817       -21.0838
  34   2.0000      -0.713350       -19.4112
  35   2.0000      -0.698136       -18.9973
  36   2.0000      -0.688149       -18.7255
  37   2.0000      -0.662537       -18.0285
  38   2.0000      -0.637039       -17.3347
  39   2.0000      -0.613612       -16.6972
  40   2.0000      -0.588353       -16.0099
  41   2.0000      -0.567961       -15.4550
  42   2.0000      -0.558829       -15.2065
  43   2.0000      -0.555118       -15.1055
  44   2.0000      -0.551397       -15.0043
  45   2.0000      -0.543901       -14.8003
  46   2.0000      -0.509660       -13.8686
  47   2.0000      -0.503300       -13.6955
  48   2.0000      -0.497698       -13.5430
  49   2.0000      -0.487743       -13.2722
  50   2.0000      -0.485068       -13.1994
  51   2.0000      -0.474539       -12.9129
  52   2.0000      -0.472236       -12.8502
  53   2.0000      -0.465625       -12.6703
  54   2.0000      -0.460334       -12.5263
  55   2.0000      -0.446301       -12.1445
  56   2.0000      -0.440982       -11.9997
  57   2.0000      -0.438232       -11.9249
  58   2.0000      -0.431145       -11.7320
  59   2.0000      -0.422962       -11.5094
  60   2.0000      -0.421111       -11.4590
  61   2.0000      -0.413900       -11.2628
  62   2.0000      -0.412466       -11.2238
  63   2.0000      -0.337934        -9.1956
  64   2.0000      -0.334278        -9.0962
  65   2.0000      -0.328807        -8.9473
  66   2.0000      -0.297050        -8.0832
  67   0.0000       0.037957         1.0329
  68   0.0000       0.066259         1.8030
  69   0.0000       0.110204         2.9988
  70   0.0000       0.121989         3.3195
  71   0.0000       0.128436         3.4949

MULLIKEN ATOMIC CHARGES
-----------------------
   0 S :    0.133087
   1 C :   -0.104825
   2 C :   -0.074458
   3 C :   -0.001074
   4 C :   -0.209140
   5 H :    0.027990
   6 C :    0.110126
   7 H :    0.028842
   8 H :    0.007502
   9 C :   -0.113063
  10 H :    0.030854
  11 H :    0.035084
  12 C :   -0.053568
  13 H :    0.060883
  14 H :    0.031678
  15 H :    0.027104
  16 S :    0.121576
  17 C :   -0.120184
  18 C :   -0.030653
  19 C :   -0.057926
  20 C :   -0.166928
  21 H :    0.016618
  22 C :    0.081999
  23 H :    0.042696
  24 H :    0.015659
  25 C :    0.018163
  26 H :    0.018120
  27 H :   -0.007545
  28 C :   -0.028323
  29 H :    0.031631
  30 H :    0.019667
  31 H :    0.009078
  32 H :    0.034954
  33 H :    0.064378
Sum of atomic charges:   -0.0000000

LOEWDIN ATOMIC CHARGES
----------------------
   0 S :    0.427115
   1 C :   -0.190960
   2 C :   -0.065396
   3 C :   -0.058977
   4 C :   -0.199147
   5 H :    0.034800
   6 C :   -0.028743
   7 H :    0.034666
   8 H :    0.025190
   9 C :   -0.045938
  10 H :    0.025738
  11 H :    0.025723
  12 C :   -0.071702
  13 H :    0.033813
  14 H :    0.024814
  15 H :    0.025138
  16 S :    0.427033
  17 C :   -0.196580
  18 C :   -0.072451
  19 C :   -0.064813
  20 C :   -0.221122
  21 H :    0.030362
  22 C :   -0.024381
  23 H :    0.030305
  24 H :    0.028416
  25 C :   -0.023248
  26 H :    0.010983
  27 H :    0.010566
  28 C :   -0.058704
  29 H :    0.016932
  30 H :    0.024482
  31 H :    0.027160
  32 H :    0.025622
  33 H :    0.033301

  Mayer bond orders larger than 0.100000
B(  0-S ,  1-C ) :   1.1549 B(  0-S ,  4-C ) :   1.1369 B(  1-C ,  2-C ) :   1.6359
B(  1-C , 32-H ) :   0.9524 B(  2-C ,  3-C ) :   1.2052 B(  2-C ,  6-C ) :   1.0170
B(  3-C ,  4-C ) :   1.6262 B(  3-C ,  5-H ) :   0.9796 B(  4-C , 20-C ) :   1.0136
B(  6-C ,  7-H ) :   0.9439 B(  6-C ,  8-H ) :   0.9356 B(  6-C ,  9-C ) :   1.0636
B(  9-C , 10-H ) :   0.9573 B(  9-C , 11-H ) :   0.9611 B(  9-C , 12-C ) :   1.0688
B( 12-C , 13-H ) :   0.9684 B( 12-C , 14-H ) :   0.9760 B( 12-C , 15-H ) :   0.9733
B( 16-S , 17-C ) :   1.1612 B( 16-S , 20-C ) :   1.1645 B( 17-C , 18-C ) :   1.5796
B( 17-C , 33-H ) :   0.9704 B( 18-C , 19-C ) :   1.2749 B( 18-C , 21-H ) :   0.9877
B( 19-C , 20-C ) :   1.5681 B( 19-C , 22-C ) :   1.0245 B( 22-C , 23-H ) :   0.9351
B( 22-C , 24-H ) :   0.9365 B( 22-C , 25-C ) :   1.0697 B( 25-C , 26-H ) :   0.9494
B( 25-C , 27-H ) :   0.9463 B( 25-C , 28-C ) :   1.0787 B( 28-C , 29-H ) :   0.9704
B( 28-C , 30-H ) :   0.9708 B( 28-C , 31-H ) :   0.9717

Dispersion correction           -0.017421989
FINAL SINGLE POINT ENERGY     -1339.864667787344

DIPOLE MOMENT
-------------
                                X             Y             Z
Electronic contribution:      0.17296     -12.52136      21.96497
Nuclear contribution   :     -0.19718      12.77449     -22.39162
                        -----------------------------------------
Total Dipole Moment    :     -0.02422       0.25313      -0.42665
                        -----------------------------------------
Magnitude (a.u.)       :      0.49668
Magnitude (Debye)      :      1.26246

Rotational constants in cm-1:     0.022943     0.009311     0.008584
Rotational constants in MHz :   687.818750   279.141242   257.335754

                             ****ORCA TERMINATED NORMALLY****
TOTAL RUN TIME: 0 days 0 hours 0 minutes 26 seconds 266 msec
