                         Program Version 4.2.1 -  RELEASE  -
|  1> ! wB97X-D3 SP def2-SVP
|  2> %pal
|  3> nprocs 24
|  4> end
|  5>
|  6> * xyz 0 1
|  7> S 	 -127.17 	 59.3585 	 -58.7486
|  8> C 	 -125.423 	 59.4533 	 -58.7825
|  9> C 	 -124.996 	 60.5708 	 -58.0478
| 10> C 	 -126.106 	 61.0745 	 -57.3004
| 11> C 	 -127.314 	 60.3596 	 -57.2798
| 12> H 	 -126.017 	 61.9859 	 -56.7021
| 13> C 	 -123.614 	 61.2638 	 -57.9391
| 14> H 	 -122.997 	 60.6438 	 -58.6328
| 15> H 	 -123.178 	 61.2647 	 -56.9215
| 16> C 	 -123.353 	 62.6357 	 -58.5149
| 17> H 	 -123.587 	 62.5702 	 -59.5393
| 18> H 	 -124.159 	 63.2783 	 -58.0382
| 19> C 	 -121.981 	 63.1928 	 -58.2726
| 20> H 	 -121.582 	 63.145 	 -57.2972
| 21> H 	 -121.178 	 62.7369 	 -58.8832
| 22> H 	 -122.011 	 64.3134 	 -58.5533
| 23> S 	 -130.063 	 60.7106 	 -57.499
| 24> C 	 -130.918 	 61.1231 	 -56.0313
| 25> C 	 -130.045 	 61.2641 	 -55.0181
| 26> C 	 -128.643 	 61.1659 	 -55.3152
| 27> C 	 -128.508 	 60.649 	 -56.5612
| 28> H 	 -130.465 	 61.4407 	 -54.0929
| 29> C 	 -127.595 	 61.3796 	 -54.2432
| 30> H 	 -128.142 	 61.7915 	 -53.3558
| 31> H 	 -126.822 	 62.0822 	 -54.4913
| 32> C 	 -126.838 	 60.1071 	 -53.7628
| 33> H 	 -126.146 	 59.8764 	 -54.5915
| 34> H 	 -127.566 	 59.2802 	 -53.6017
| 35> C 	 -126.147 	 60.2943 	 -52.3874
| 36> H 	 -125.227 	 60.6929 	 -52.4552
| 37> H 	 -125.843 	 59.3673 	 -51.9612
| 38> H 	 -126.854 	 60.8493 	 -51.7878
| 39> H 	 -124.816 	 59.0564 	 -59.5979
| 40> H 	 -131.957 	 61.368 	 -56.0157
| 41> *
| 42>
| 43>                          ****END OF INPUT****

CARTESIAN COORDINATES (ANGSTROEM)
---------------------------------
  S    -127.170000   59.358500  -58.748600
  C    -125.423000   59.453300  -58.782500
  C    -124.996000   60.570800  -58.047800
  C    -126.106000   61.074500  -57.300400
  C    -127.314000   60.359600  -57.279800
  H    -126.017000   61.985900  -56.702100
  C    -123.614000   61.263800  -57.939100
  H    -122.997000   60.643800  -58.632800
  H    -123.178000   61.264700  -56.921500
  C    -123.353000   62.635700  -58.514900
  H    -123.587000   62.570200  -59.539300
  H    -124.159000   63.278300  -58.038200
  C    -121.981000   63.192800  -58.272600
  H    -121.582000   63.145000  -57.297200
  H    -121.178000   62.736900  -58.883200
  H    -122.011000   64.313400  -58.553300
  S    -130.063000   60.710600  -57.499000
  C    -130.918000   61.123100  -56.031300
  C    -130.045000   61.264100  -55.018100
  C    -128.643000   61.165900  -55.315200
  C    -128.508000   60.649000  -56.561200
  H    -130.465000   61.440700  -54.092900
  C    -127.595000   61.379600  -54.243200
  H    -128.142000   61.791500  -53.355800
  H    -126.822000   62.082200  -54.491300
  C    -126.838000   60.107100  -53.762800
  H    -126.146000   59.876400  -54.591500
  H    -127.566000   59.280200  -53.601700
  C    -126.147000   60.294300  -52.387400
  H    -125.227000   60.692900  -52.455200
  H    -125.843000   59.367300  -51.961200
  H    -126.854000   60.849300  -51.787800
  H    -124.816000   59.056400  -59.597900
  H    -131.957000   61.368000  -56.015700

 Total Charge           Charge          ....    0
 Multiplicity           Mult            ....    1
 Number of Electrons    NEL             ....  134
 Basis Dimension        Dim             ....  322

ORBITAL ENERGIES
----------------

  NO   OCC          E(Eh)            E(eV)
   0   2.0000     -88.965164     -2420.8652
   1   2.0000     -88.963220     -2420.8123
   2   2.0000     -10.332833      -281.1707
   3   2.0000     -10.330257      -281.1006
   4   2.0000     -10.320706      -280.8407
   5   2.0000     -10.313879      -280.6549
   6   2.0000     -10.308735      -280.5149
   7   2.0000     -10.306161      -280.4449
   8   2.0000     -10.298500      -280.2364
   9   2.0000     -10.297124      -280.1990
  10   2.0000     -10.294999      -280.1412
  11   2.0000     -10.288186      -279.9558
  12   2.0000     -10.287851      -279.9467
  13   2.0000     -10.286435      -279.9081
  14   2.0000     -10.286311      -279.9047
  15   2.0000     -10.267039      -279.3803
  16   2.0000      -8.079318      -219.8494
  17   2.0000      -8.077608      -219.8029
  18   2.0000      -6.037985      -164.3019
  19   2.0000      -6.036350      -164.2574
  20   2.0000      -6.034188      -164.1986
  21   2.0000      -6.032360      -164.1489
  22   2.0000      -6.029635      -164.0747
  23   2.0000      -6.027949      -164.0288
  24   2.0000      -1.007480       -27.4149
  25   2.0000      -0.984192       -26.7812
  26   2.0000      -0.916246       -24.9323
  27   2.0000      -0.908191       -24.7131
  28   2.0000      -0.877348       -23.8738
  29   2.0000      -0.854435       -23.2503
  30   2.0000      -0.842629       -22.9291
  31   2.0000      -0.813047       -22.1241
  32   2.0000      -0.788325       -21.4514
  33   2.0000      -0.778645       -21.1880
  34   2.0000      -0.714394       -19.4396
  35   2.0000      -0.698519       -19.0077
  36   2.0000      -0.692253       -18.8372
  37   2.0000      -0.666326       -18.1316
  38   2.0000      -0.635460       -17.2917
  39   2.0000      -0.621598       -16.9145
  40   2.0000      -0.602801       -16.4030
  41   2.0000      -0.578706       -15.7474
  42   2.0000      -0.575186       -15.6516
  43   2.0000      -0.560002       -15.2384
  44   2.0000      -0.527872       -14.3641
  45   2.0000      -0.524621       -14.2757
  46   2.0000      -0.519314       -14.1313
  47   2.0000      -0.516924       -14.0662
  48   2.0000      -0.503070       -13.6892
  49   2.0000      -0.499346       -13.5879
  50   2.0000      -0.493541       -13.4299
  51   2.0000      -0.487105       -13.2548
  52   2.0000      -0.472110       -12.8468
  53   2.0000      -0.465200       -12.6587
  54   2.0000      -0.464694       -12.6450
  55   2.0000      -0.448762       -12.2114
  56   2.0000      -0.440044       -11.9742
  57   2.0000      -0.437207       -11.8970
  58   2.0000      -0.432229       -11.7615
  59   2.0000      -0.427705       -11.6385
  60   2.0000      -0.418718       -11.3939
  61   2.0000      -0.412705       -11.2303
  62   2.0000      -0.402125       -10.9424
  63   2.0000      -0.360188        -9.8012
  64   2.0000      -0.332444        -9.0462
  65   2.0000      -0.322636        -8.7794
  66   2.0000      -0.285685        -7.7739
  67   0.0000       0.012672         0.3448
  68   0.0000       0.064075         1.7436
  69   0.0000       0.102162         2.7800
  70   0.0000       0.120327         3.2743
  71   0.0000       0.125959         3.4275

MULLIKEN ATOMIC CHARGES
-----------------------
   0 S :    0.091964
   1 C :   -0.100864
   2 C :   -0.088214
   3 C :   -0.003239
   4 C :   -0.136842
   5 H :    0.014312
   6 C :    0.022777
   7 H :    0.013340
   8 H :    0.041576
   9 C :   -0.052219
  10 H :    0.021691
  11 H :    0.028641
  12 C :   -0.058138
  13 H :    0.023176
  14 H :    0.035340
  15 H :    0.049821
  16 S :    0.080719
  17 C :   -0.072297
  18 C :   -0.008100
  19 C :   -0.011286
  20 C :   -0.125813
  21 H :   -0.015471
  22 C :    0.040524
  23 H :    0.017879
  24 H :    0.032290
  25 C :   -0.110340
  26 H :    0.048355
  27 H :    0.038962
  28 C :    0.020894
  29 H :   -0.001053
  30 H :    0.019573
  31 H :    0.029048
  32 H :    0.059290
  33 H :    0.053704
Sum of atomic charges:   -0.0000000

LOEWDIN ATOMIC CHARGES
----------------------
   0 S :    0.392361
   1 C :   -0.195223
   2 C :   -0.067761
   3 C :   -0.064954
   4 C :   -0.184702
   5 H :    0.024300
   6 C :   -0.038972
   7 H :    0.030299
   8 H :    0.032046
   9 C :   -0.044504
  10 H :    0.020825
  11 H :    0.026316
  12 C :   -0.069123
  13 H :    0.018240
  14 H :    0.029341
  15 H :    0.043022
  16 S :    0.366203
  17 C :   -0.171427
  18 C :   -0.061806
  19 C :   -0.048421
  20 C :   -0.167394
  21 H :    0.017581
  22 C :   -0.032856
  23 H :    0.031359
  24 H :    0.027308
  25 C :   -0.036388
  26 H :    0.026870
  27 H :    0.027472
  28 C :   -0.055241
  29 H :    0.009827
  30 H :    0.028295
  31 H :    0.025924
  32 H :    0.031821
  33 H :    0.029362

  Mayer bond orders larger than 0.100000
B(  0-S ,  1-C ) :   1.1513 B(  0-S ,  4-C ) :   1.1295 B(  1-C ,  2-C ) :   1.5842
B(  1-C ,  4-C ) :   0.1098 B(  1-C , 32-H ) :   0.9605 B(  2-C ,  3-C ) :   1.2731
B(  2-C ,  6-C ) :   1.0174 B(  3-C ,  4-C ) :   1.5205 B(  3-C ,  5-H ) :   0.9859
B(  4-C , 20-C ) :   1.1303 B(  6-C ,  7-H ) :   0.9408 B(  6-C ,  8-H ) :   0.9473
B(  6-C ,  9-C ) :   1.0660 B(  9-C , 10-H ) :   0.9514 B(  9-C , 11-H ) :   0.9527
B(  9-C , 12-C ) :   1.0853 B( 12-C , 13-H ) :   0.9740 B( 12-C , 14-H ) :   0.9725
B( 12-C , 15-H ) :   0.9710 B( 16-S , 17-C ) :   1.1234 B( 16-S , 20-C ) :   1.1076
B( 17-C , 18-C ) :   1.6569 B( 17-C , 33-H ) :   0.9693 B( 18-C , 19-C ) :   1.1929
B( 18-C , 21-H ) :   0.9980 B( 19-C , 20-C ) :   1.6247 B( 19-C , 22-C ) :   1.0525
B( 22-C , 23-H ) :   0.9327 B( 22-C , 24-H ) :   0.9312 B( 22-C , 25-C ) :   1.0606
B( 25-C , 26-H ) :   0.9516 B( 25-C , 27-H ) :   0.9618 B( 25-C , 28-C ) :   1.0813
B( 28-C , 29-H ) :   0.9697 B( 28-C , 30-H ) :   0.9696 B( 28-C , 31-H ) :   0.9754

Dispersion correction           -0.013778672
FINAL SINGLE POINT ENERGY     -1339.836583912002

DIPOLE MOMENT
-------------
                                X             Y             Z
Electronic contribution:    -25.21871     -10.00040     -14.53457
Nuclear contribution   :     25.69328      10.52532      14.96854
                        -----------------------------------------
Total Dipole Moment    :      0.47457       0.52492       0.43397
                        -----------------------------------------
Magnitude (a.u.)       :      0.83011
Magnitude (Debye)      :      2.10997

Rotational constants in cm-1:     0.016952     0.008606     0.006702
Rotational constants in MHz :   508.222019   258.007933   200.916882

                             ****ORCA TERMINATED NORMALLY****
TOTAL RUN TIME: 0 days 0 hours 0 minutes 20 seconds 329 msec
