                         Program Version 4.2.1 -  RELEASE  -
|  1> ! wB97X-D3 SP def2-SVP
|  2> %pal
|  3> nprocs 24
|  4> end
|  5>
|  6> * xyz 0 1
|  7> S 	 -63.5164 	 6.91995 	 -75.2204
|  8> C 	 -63.9292 	 5.64845 	 -74.138
|  9> C 	 -65.0221 	 4.99565 	 -74.6191
| 10> C 	 -65.6582 	 5.64974 	 -75.7499
| 11> C 	 -64.843 	 6.61805 	 -76.2984
| 12> H 	 -66.5704 	 5.34475 	 -76.3241
| 13> C 	 -65.5563 	 3.71963 	 -74.0583
| 14> H 	 -66.5746 	 3.97614 	 -73.6872
| 15> H 	 -64.9738 	 3.50402 	 -73.1631
| 16> C 	 -65.5037 	 2.52927 	 -75.0731
| 17> H 	 -66.1352 	 1.61376 	 -74.7741
| 18> H 	 -66.0389 	 3.07286 	 -75.8675
| 19> C 	 -64.1262 	 2.0865 	 -75.445
| 20> H 	 -63.7192 	 1.80711 	 -74.4729
| 21> H 	 -64.0898 	 1.21822 	 -76.1532
| 22> H 	 -63.5857 	 2.96999 	 -75.8587
| 23> S 	 -65.2214 	 9.14499 	 -77.2176
| 24> C 	 -65.5486 	 9.41809 	 -78.858
| 25> C 	 -65.7918 	 8.24517 	 -79.4932
| 26> C 	 -65.5315 	 7.08314 	 -78.7271
| 27> C 	 -65.1285 	 7.45545 	 -77.4912
| 28> H 	 -66.0946 	 8.26738 	 -80.4946
| 29> C 	 -65.671 	 5.66976 	 -79.3264
| 30> H 	 -66.44 	 5.61878 	 -80.0918
| 31> H 	 -66.0561 	 5.02532 	 -78.5761
| 32> C 	 -64.2901 	 5.18583 	 -79.9607
| 33> H 	 -63.5322 	 5.21569 	 -79.2053
| 34> H 	 -63.9937 	 5.81845 	 -80.7788
| 35> C 	 -64.4028 	 3.74389 	 -80.4568
| 36> H 	 -63.4286 	 3.41775 	 -81.002
| 37> H 	 -65.1712 	 3.72681 	 -81.2481
| 38> H 	 -64.5133 	 2.98686 	 -79.6702
| 39> H 	 -63.2218 	 5.47705 	 -73.3071
| 40> H 	 -65.7357 	 10.4351 	 -79.1685
| 41> *
| 42>
| 43>                          ****END OF INPUT****

CARTESIAN COORDINATES (ANGSTROEM)
---------------------------------
  S    -63.516400    6.919950  -75.220400
  C    -63.929200    5.648450  -74.138000
  C    -65.022100    4.995650  -74.619100
  C    -65.658200    5.649740  -75.749900
  C    -64.843000    6.618050  -76.298400
  H    -66.570400    5.344750  -76.324100
  C    -65.556300    3.719630  -74.058300
  H    -66.574600    3.976140  -73.687200
  H    -64.973800    3.504020  -73.163100
  C    -65.503700    2.529270  -75.073100
  H    -66.135200    1.613760  -74.774100
  H    -66.038900    3.072860  -75.867500
  C    -64.126200    2.086500  -75.445000
  H    -63.719200    1.807110  -74.472900
  H    -64.089800    1.218220  -76.153200
  H    -63.585700    2.969990  -75.858700
  S    -65.221400    9.144990  -77.217600
  C    -65.548600    9.418090  -78.858000
  C    -65.791800    8.245170  -79.493200
  C    -65.531500    7.083140  -78.727100
  C    -65.128500    7.455450  -77.491200
  H    -66.094600    8.267380  -80.494600
  C    -65.671000    5.669760  -79.326400
  H    -66.440000    5.618780  -80.091800
  H    -66.056100    5.025320  -78.576100
  C    -64.290100    5.185830  -79.960700
  H    -63.532200    5.215690  -79.205300
  H    -63.993700    5.818450  -80.778800
  C    -64.402800    3.743890  -80.456800
  H    -63.428600    3.417750  -81.002000
  H    -65.171200    3.726810  -81.248100
  H    -64.513300    2.986860  -79.670200
  H    -63.221800    5.477050  -73.307100
  H    -65.735700   10.435100  -79.168500

 Total Charge           Charge          ....    0
 Multiplicity           Mult            ....    1
 Number of Electrons    NEL             ....  134
 Basis Dimension        Dim             ....  322

ORBITAL ENERGIES
----------------

  NO   OCC          E(Eh)            E(eV)
   0   2.0000     -88.961059     -2420.7535
   1   2.0000     -88.959716     -2420.7169
   2   2.0000     -10.328607      -281.0557
   3   2.0000     -10.320669      -280.8397
   4   2.0000     -10.313836      -280.6537
   5   2.0000     -10.309058      -280.5237
   6   2.0000     -10.301631      -280.3216
   7   2.0000     -10.299966      -280.2763
   8   2.0000     -10.298219      -280.2288
   9   2.0000     -10.296201      -280.1739
  10   2.0000     -10.291987      -280.0592
  11   2.0000     -10.291390      -280.0430
  12   2.0000     -10.286838      -279.9191
  13   2.0000     -10.285999      -279.8963
  14   2.0000     -10.284698      -279.8609
  15   2.0000     -10.280967      -279.7593
  16   2.0000      -8.078082      -219.8158
  17   2.0000      -8.075760      -219.7526
  18   2.0000      -6.036291      -164.2558
  19   2.0000      -6.034133      -164.1971
  20   2.0000      -6.032361      -164.1489
  21   2.0000      -6.030006      -164.0848
  22   2.0000      -6.028914      -164.0551
  23   2.0000      -6.026646      -163.9934
  24   2.0000      -1.018405       -27.7122
  25   2.0000      -0.995808       -27.0973
  26   2.0000      -0.913988       -24.8709
  27   2.0000      -0.905413       -24.6375
  28   2.0000      -0.871751       -23.7216
  29   2.0000      -0.855127       -23.2692
  30   2.0000      -0.845043       -22.9948
  31   2.0000      -0.817380       -22.2420
  32   2.0000      -0.781565       -21.2675
  33   2.0000      -0.771546       -20.9948
  34   2.0000      -0.703432       -19.1413
  35   2.0000      -0.697234       -18.9727
  36   2.0000      -0.685837       -18.6626
  37   2.0000      -0.666062       -18.1245
  38   2.0000      -0.643659       -17.5149
  39   2.0000      -0.620240       -16.8776
  40   2.0000      -0.602752       -16.4017
  41   2.0000      -0.569538       -15.4979
  42   2.0000      -0.565929       -15.3997
  43   2.0000      -0.550379       -14.9766
  44   2.0000      -0.541645       -14.7389
  45   2.0000      -0.524069       -14.2607
  46   2.0000      -0.516396       -14.0519
  47   2.0000      -0.513612       -13.9761
  48   2.0000      -0.506376       -13.7792
  49   2.0000      -0.494972       -13.4689
  50   2.0000      -0.492012       -13.3883
  51   2.0000      -0.485126       -13.2010
  52   2.0000      -0.472162       -12.8482
  53   2.0000      -0.465766       -12.6741
  54   2.0000      -0.460606       -12.5337
  55   2.0000      -0.447031       -12.1643
  56   2.0000      -0.443492       -12.0680
  57   2.0000      -0.437606       -11.9079
  58   2.0000      -0.434084       -11.8120
  59   2.0000      -0.428668       -11.6646
  60   2.0000      -0.420039       -11.4298
  61   2.0000      -0.409859       -11.1528
  62   2.0000      -0.406363       -11.0577
  63   2.0000      -0.348356        -9.4792
  64   2.0000      -0.332722        -9.0538
  65   2.0000      -0.324438        -8.8284
  66   2.0000      -0.301562        -8.2059
  67   0.0000       0.037909         1.0316
  68   0.0000       0.078858         2.1458
  69   0.0000       0.114077         3.1042
  70   0.0000       0.123417         3.3584
  71   0.0000       0.124569         3.3897

MULLIKEN ATOMIC CHARGES
-----------------------
   0 S :    0.093129
   1 C :   -0.135811
   2 C :   -0.120372
   3 C :    0.018154
   4 C :   -0.164247
   5 H :    0.043099
   6 C :    0.070231
   7 H :    0.043135
   8 H :    0.004973
   9 C :   -0.094877
  10 H :    0.045034
  11 H :    0.015272
  12 C :   -0.048074
  13 H :    0.025937
  14 H :    0.050152
  15 H :    0.052791
  16 S :    0.116902
  17 C :   -0.082047
  18 C :   -0.024777
  19 C :   -0.027698
  20 C :   -0.166726
  21 H :   -0.007407
  22 C :    0.107687
  23 H :    0.013955
  24 H :   -0.002666
  25 C :   -0.047427
  26 H :    0.030361
  27 H :    0.030709
  28 C :   -0.079639
  29 H :    0.039061
  30 H :    0.031906
  31 H :    0.044108
  32 H :    0.070236
  33 H :    0.054936
Sum of atomic charges:   -0.0000000

LOEWDIN ATOMIC CHARGES
----------------------
   0 S :    0.412320
   1 C :   -0.207829
   2 C :   -0.072116
   3 C :   -0.074585
   4 C :   -0.196365
   5 H :    0.039401
   6 C :   -0.034694
   7 H :    0.038930
   8 H :    0.019995
   9 C :   -0.050950
  10 H :    0.031393
  11 H :    0.017790
  12 C :   -0.069732
  13 H :    0.025809
  14 H :    0.032827
  15 H :    0.033974
  16 S :    0.440899
  17 C :   -0.195125
  18 C :   -0.066389
  19 C :   -0.056446
  20 C :   -0.209448
  21 H :    0.021338
  22 C :   -0.019988
  23 H :    0.027978
  24 H :    0.020375
  25 C :   -0.028689
  26 H :    0.022294
  27 H :    0.024552
  28 C :   -0.074762
  29 H :    0.034331
  30 H :    0.023291
  31 H :    0.025718
  32 H :    0.037100
  33 H :    0.026803

  Mayer bond orders larger than 0.100000
B(  0-S ,  1-C ) :   1.1381 B(  0-S ,  4-C ) :   1.1716 B(  1-C ,  2-C ) :   1.6054
B(  1-C , 32-H ) :   0.9715 B(  2-C ,  3-C ) :   1.2151 B(  2-C ,  6-C ) :   1.0290
B(  3-C ,  4-C ) :   1.5915 B(  3-C ,  5-H ) :   0.9751 B(  4-C , 20-C ) :   0.9894
B(  6-C ,  7-H ) :   0.9380 B(  6-C ,  8-H ) :   0.9431 B(  6-C ,  9-C ) :   1.0435
B(  9-C , 10-H ) :   0.9568 B(  9-C , 11-H ) :   0.9560 B(  9-C , 12-C ) :   1.0699
B( 12-C , 13-H ) :   0.9729 B( 12-C , 14-H ) :   0.9723 B( 12-C , 15-H ) :   0.9722
B( 16-S , 17-C ) :   1.1653 B( 16-S , 20-C ) :   1.1808 B( 17-C , 18-C ) :   1.5872
B( 17-C , 33-H ) :   0.9731 B( 18-C , 19-C ) :   1.2442 B( 18-C , 21-H ) :   1.0040
B( 19-C , 20-C ) :   1.6123 B( 19-C , 22-C ) :   1.0410 B( 22-C , 23-H ) :   0.9348
B( 22-C , 24-H ) :   0.9286 B( 22-C , 25-C ) :   1.0562 B( 25-C , 26-H ) :   0.9585
B( 25-C , 27-H ) :   0.9571 B( 25-C , 28-C ) :   1.0870 B( 28-C , 29-H ) :   0.9727
B( 28-C , 30-H ) :   0.9737 B( 28-C , 31-H ) :   0.9757

Dispersion correction           -0.014897735
FINAL SINGLE POINT ENERGY     -1339.881317381522

DIPOLE MOMENT
-------------
                                X             Y             Z
Electronic contribution:      1.59238      28.45455       8.60224
Nuclear contribution   :     -1.83746     -28.88282      -8.86940
                        -----------------------------------------
Total Dipole Moment    :     -0.24508      -0.42827      -0.26716
                        -----------------------------------------
Magnitude (a.u.)       :      0.56112
Magnitude (Debye)      :      1.42626

Rotational constants in cm-1:     0.017560     0.010349     0.007337
Rotational constants in MHz :   526.450333   310.255817   219.969371

                             ****ORCA TERMINATED NORMALLY****
TOTAL RUN TIME: 0 days 0 hours 0 minutes 22 seconds 571 msec
