                         Program Version 4.2.1 -  RELEASE  -
|  1> ! wB97X-D3 SP def2-SVP
|  2> %pal
|  3> nprocs 24
|  4> end
|  5>
|  6> * xyz 0 1
|  7> S 	 -46.5679 	 10.2238 	 -24.0956
|  8> C 	 -46.9744 	 8.75555 	 -23.1935
|  9> C 	 -47.168 	 9.08739 	 -21.8257
| 10> C 	 -47.1736 	 10.5039 	 -21.6095
| 11> C 	 -46.9184 	 11.2977 	 -22.7405
| 12> H 	 -47.3741 	 11.022 	 -20.7047
| 13> C 	 -47.5138 	 8.0932 	 -20.6495
| 14> H 	 -47.2387 	 7.11082 	 -21.0486
| 15> H 	 -48.5694 	 8.12768 	 -20.3953
| 16> C 	 -46.6738 	 8.37499 	 -19.3322
| 17> H 	 -46.822 	 9.36934 	 -19.0567
| 18> H 	 -47.1355 	 7.73877 	 -18.6404
| 19> C 	 -45.1608 	 8.00598 	 -19.3345
| 20> H 	 -44.8743 	 8.01818 	 -20.3504
| 21> H 	 -44.5452 	 8.80383 	 -18.951
| 22> H 	 -45.1188 	 7.0124 	 -18.9053
| 23> S 	 -47.8131 	 13.4749 	 -24.0446
| 24> C 	 -47.4834 	 15.0987 	 -23.536
| 25> C 	 -46.6856 	 15.0473 	 -22.3617
| 26> C 	 -46.4407 	 13.7183 	 -21.8955
| 27> C 	 -46.9404 	 12.7498 	 -22.7384
| 28> H 	 -46.4636 	 15.9966 	 -21.9239
| 29> C 	 -45.7363 	 13.4949 	 -20.5827
| 30> H 	 -44.8654 	 14.1826 	 -20.5602
| 31> H 	 -45.2878 	 12.4876 	 -20.5183
| 32> C 	 -46.5388 	 13.876 	 -19.2726
| 33> H 	 -47.4376 	 13.289 	 -19.1181
| 34> H 	 -46.8475 	 14.9254 	 -19.431
| 35> C 	 -45.6182 	 13.8703 	 -18.0438
| 36> H 	 -45.0656 	 12.8832 	 -18.016
| 37> H 	 -46.2606 	 14.0295 	 -17.2119
| 38> H 	 -44.9176 	 14.6376 	 -18.1552
| 39> H 	 -46.9323 	 7.7632 	 -23.577
| 40> H 	 -47.7392 	 16.0458 	 -23.9745
| 41> *
| 42>
| 43>                          ****END OF INPUT****

CARTESIAN COORDINATES (ANGSTROEM)
---------------------------------
  S    -46.567900   10.223800  -24.095600
  C    -46.974400    8.755550  -23.193500
  C    -47.168000    9.087390  -21.825700
  C    -47.173600   10.503900  -21.609500
  C    -46.918400   11.297700  -22.740500
  H    -47.374100   11.022000  -20.704700
  C    -47.513800    8.093200  -20.649500
  H    -47.238700    7.110820  -21.048600
  H    -48.569400    8.127680  -20.395300
  C    -46.673800    8.374990  -19.332200
  H    -46.822000    9.369340  -19.056700
  H    -47.135500    7.738770  -18.640400
  C    -45.160800    8.005980  -19.334500
  H    -44.874300    8.018180  -20.350400
  H    -44.545200    8.803830  -18.951000
  H    -45.118800    7.012400  -18.905300
  S    -47.813100   13.474900  -24.044600
  C    -47.483400   15.098700  -23.536000
  C    -46.685600   15.047300  -22.361700
  C    -46.440700   13.718300  -21.895500
  C    -46.940400   12.749800  -22.738400
  H    -46.463600   15.996600  -21.923900
  C    -45.736300   13.494900  -20.582700
  H    -44.865400   14.182600  -20.560200
  H    -45.287800   12.487600  -20.518300
  C    -46.538800   13.876000  -19.272600
  H    -47.437600   13.289000  -19.118100
  H    -46.847500   14.925400  -19.431000
  C    -45.618200   13.870300  -18.043800
  H    -45.065600   12.883200  -18.016000
  H    -46.260600   14.029500  -17.211900
  H    -44.917600   14.637600  -18.155200
  H    -46.932300    7.763200  -23.577000
  H    -47.739200   16.045800  -23.974500

 Total Charge           Charge          ....    0
 Multiplicity           Mult            ....    1
 Number of Electrons    NEL             ....  134
 Basis Dimension        Dim             ....  322

ORBITAL ENERGIES
----------------

  NO   OCC          E(Eh)            E(eV)
   0   2.0000     -88.970361     -2421.0066
   1   2.0000     -88.966274     -2420.8954
   2   2.0000     -10.333643      -281.1927
   3   2.0000     -10.327052      -281.0134
   4   2.0000     -10.320598      -280.8377
   5   2.0000     -10.319271      -280.8016
   6   2.0000     -10.309723      -280.5418
   7   2.0000     -10.305385      -280.4238
   8   2.0000     -10.300310      -280.2857
   9   2.0000     -10.296033      -280.1693
  10   2.0000     -10.295580      -280.1570
  11   2.0000     -10.292912      -280.0844
  12   2.0000     -10.291021      -280.0329
  13   2.0000     -10.279742      -279.7260
  14   2.0000     -10.277797      -279.6731
  15   2.0000     -10.272079      -279.5175
  16   2.0000      -8.083934      -219.9750
  17   2.0000      -8.081411      -219.9064
  18   2.0000      -6.042563      -164.4265
  19   2.0000      -6.039918      -164.3545
  20   2.0000      -6.038499      -164.3159
  21   2.0000      -6.035608      -164.2372
  22   2.0000      -6.034723      -164.2132
  23   2.0000      -6.032388      -164.1496
  24   2.0000      -1.006848       -27.3977
  25   2.0000      -0.979212       -26.6457
  26   2.0000      -0.907506       -24.6945
  27   2.0000      -0.902367       -24.5546
  28   2.0000      -0.869391       -23.6573
  29   2.0000      -0.855351       -23.2753
  30   2.0000      -0.841824       -22.9072
  31   2.0000      -0.812464       -22.1083
  32   2.0000      -0.781084       -21.2544
  33   2.0000      -0.772733       -21.0271
  34   2.0000      -0.709536       -19.3074
  35   2.0000      -0.698516       -19.0076
  36   2.0000      -0.695933       -18.9373
  37   2.0000      -0.664846       -18.0914
  38   2.0000      -0.640739       -17.4354
  39   2.0000      -0.620647       -16.8887
  40   2.0000      -0.593402       -16.1473
  41   2.0000      -0.572337       -15.5741
  42   2.0000      -0.566517       -15.4157
  43   2.0000      -0.552059       -15.0223
  44   2.0000      -0.543349       -14.7853
  45   2.0000      -0.527101       -14.3431
  46   2.0000      -0.520365       -14.1599
  47   2.0000      -0.514937       -14.0122
  48   2.0000      -0.509146       -13.8546
  49   2.0000      -0.504560       -13.7298
  50   2.0000      -0.487708       -13.2712
  51   2.0000      -0.477388       -12.9904
  52   2.0000      -0.469084       -12.7644
  53   2.0000      -0.466720       -12.7001
  54   2.0000      -0.461656       -12.5623
  55   2.0000      -0.444647       -12.0995
  56   2.0000      -0.442603       -12.0438
  57   2.0000      -0.438005       -11.9187
  58   2.0000      -0.435392       -11.8476
  59   2.0000      -0.424834       -11.5603
  60   2.0000      -0.423031       -11.5113
  61   2.0000      -0.417926       -11.3723
  62   2.0000      -0.408482       -11.1153
  63   2.0000      -0.348246        -9.4762
  64   2.0000      -0.331310        -9.0154
  65   2.0000      -0.328708        -8.9446
  66   2.0000      -0.290750        -7.9117
  67   0.0000       0.025210         0.6860
  68   0.0000       0.071465         1.9446
  69   0.0000       0.114791         3.1236
  70   0.0000       0.117228         3.1899
  71   0.0000       0.122924         3.3449

MULLIKEN ATOMIC CHARGES
-----------------------
   0 S :    0.119231
   1 C :   -0.119399
   2 C :   -0.083855
   3 C :    0.021460
   4 C :   -0.137874
   5 H :   -0.002319
   6 C :    0.052874
   7 H :    0.016248
   8 H :    0.051716
   9 C :   -0.072520
  10 H :    0.014964
  11 H :    0.016617
  12 C :   -0.017166
  13 H :    0.017711
  14 H :    0.033277
  15 H :    0.043371
  16 S :    0.116729
  17 C :   -0.089643
  18 C :   -0.054919
  19 C :    0.009612
  20 C :   -0.165591
  21 H :    0.012942
  22 C :    0.015817
  23 H :    0.022218
  24 H :    0.030281
  25 C :   -0.095027
  26 H :    0.035497
  27 H :    0.024913
  28 C :   -0.009564
  29 H :    0.036672
  30 H :    0.035315
  31 H :    0.020294
  32 H :    0.046015
  33 H :    0.054102
Sum of atomic charges:    0.0000000

LOEWDIN ATOMIC CHARGES
----------------------
   0 S :    0.400691
   1 C :   -0.193698
   2 C :   -0.062416
   3 C :   -0.063094
   4 C :   -0.194533
   5 H :    0.023066
   6 C :   -0.021907
   7 H :    0.025123
   8 H :    0.033987
   9 C :   -0.030607
  10 H :    0.010835
  11 H :    0.017137
  12 C :   -0.061114
  13 H :    0.021878
  14 H :    0.030142
  15 H :    0.030786
  16 S :    0.431508
  17 C :   -0.193927
  18 C :   -0.068193
  19 C :   -0.060350
  20 C :   -0.204437
  21 H :    0.026464
  22 C :   -0.038871
  23 H :    0.033546
  24 H :    0.027928
  25 C :   -0.036198
  26 H :    0.018231
  27 H :    0.024520
  28 C :   -0.055367
  29 H :    0.031625
  30 H :    0.024977
  31 H :    0.016375
  32 H :    0.025034
  33 H :    0.030860

  Mayer bond orders larger than 0.100000
B(  0-S ,  1-C ) :   1.1428 B(  0-S ,  4-C ) :   1.1495 B(  1-C ,  2-C ) :   1.5765
B(  1-C ,  4-C ) :   0.1048 B(  1-C , 32-H ) :   0.9740 B(  2-C ,  3-C ) :   1.2503
B(  2-C ,  6-C ) :   1.0110 B(  3-C ,  4-C ) :   1.5510 B(  3-C ,  5-H ) :   0.9983
B(  4-C , 20-C ) :   1.0574 B(  6-C ,  7-H ) :   0.9469 B(  6-C ,  8-H ) :   0.9486
B(  6-C ,  9-C ) :   1.0679 B(  9-C , 10-H ) :   0.9619 B(  9-C , 11-H ) :   0.9642
B(  9-C , 12-C ) :   1.0619 B( 12-C , 13-H ) :   0.9796 B( 12-C , 14-H ) :   0.9748
B( 12-C , 15-H ) :   0.9803 B( 16-S , 17-C ) :   1.1694 B( 16-S , 20-C ) :   1.1499
B( 17-C , 18-C ) :   1.5877 B( 17-C , 20-C ) :   0.1027 B( 17-C , 33-H ) :   0.9704
B( 18-C , 19-C ) :   1.2443 B( 18-C , 21-H ) :   0.9942 B( 19-C , 20-C ) :   1.5721
B( 19-C , 22-C ) :   1.0551 B( 22-C , 23-H ) :   0.9338 B( 22-C , 24-H ) :   0.9341
B( 22-C , 25-C ) :   1.0524 B( 25-C , 26-H ) :   0.9598 B( 25-C , 27-H ) :   0.9534
B( 25-C , 28-C ) :   1.0771 B( 28-C , 29-H ) :   0.9750 B( 28-C , 30-H ) :   0.9738
B( 28-C , 31-H ) :   0.9758

Dispersion correction           -0.014275579
FINAL SINGLE POINT ENERGY     -1339.868699337530

DIPOLE MOMENT
-------------
                                X             Y             Z
Electronic contribution:     -7.66582       5.48786     -30.40295
Nuclear contribution   :      7.70170      -5.40753      31.12172
                        -----------------------------------------
Total Dipole Moment    :      0.03588       0.08033       0.71877
                        -----------------------------------------
Magnitude (a.u.)       :      0.72413
Magnitude (Debye)      :      1.84059

Rotational constants in cm-1:     0.016087     0.010264     0.006701
Rotational constants in MHz :   482.275114   307.705463   200.879620

                             ****ORCA TERMINATED NORMALLY****
TOTAL RUN TIME: 0 days 0 hours 0 minutes 21 seconds 569 msec
