                         Program Version 4.2.1 -  RELEASE  -
|  1> ! wB97X-D3 SP def2-SVP
|  2> %pal
|  3> nprocs 24
|  4> end
|  5>
|  6> * xyz 0 1
|  7> S 	 3.29461 	 -14.1722 	 -107.421
|  8> C 	 2.4792 	 -15.0975 	 -108.664
|  9> C 	 1.5654 	 -15.9947 	 -108.211
| 10> C 	 1.57361 	 -16.0891 	 -106.772
| 11> C 	 2.42372 	 -15.1279 	 -106.204
| 12> H 	 0.917818 	 -16.6354 	 -106.159
| 13> C 	 0.662727 	 -16.934 	 -109.044
| 14> H 	 0.701366 	 -17.9001 	 -108.545
| 15> H 	 1.16622 	 -17.1976 	 -109.978
| 16> C 	 -0.785534 	 -16.4398 	 -109.261
| 17> H 	 -1.34241 	 -15.9191 	 -108.427
| 18> H 	 -0.721676 	 -15.7225 	 -110.056
| 19> C 	 -1.66741 	 -17.4888 	 -109.828
| 20> H 	 -2.752 	 -17.1342 	 -109.887
| 21> H 	 -1.25913 	 -17.8319 	 -110.771
| 22> H 	 -1.81545 	 -18.2772 	 -109.16
| 23> S 	 4.07835 	 -14.8284 	 -104.021
| 24> C 	 3.41167 	 -14.5029 	 -102.441
| 25> C 	 2.0707 	 -14.1429 	 -102.548
| 26> C 	 1.53665 	 -14.3788 	 -103.818
| 27> C 	 2.50703 	 -14.679 	 -104.819
| 28> H 	 1.54054 	 -13.8243 	 -101.65
| 29> C 	 0.086933 	 -14.1612 	 -104.211
| 30> H 	 0.012982 	 -14.2376 	 -105.255
| 31> H 	 -0.186624 	 -13.0735 	 -104.07
| 32> C 	 -0.993981 	 -14.989 	 -103.471
| 33> H 	 -1.94607 	 -14.7051 	 -103.872
| 34> H 	 -1.17335 	 -14.7324 	 -102.452
| 35> C 	 -0.71229 	 -16.4288 	 -103.498
| 36> H 	 -1.06865 	 -16.9191 	 -104.38
| 37> H 	 -1.27014 	 -16.933 	 -102.677
| 38> H 	 0.355585 	 -16.6708 	 -103.346
| 39> H 	 2.43046 	 -14.8126 	 -109.667
| 40> H 	 3.96028 	 -14.3094 	 -101.482
| 41> *
| 42>
| 43>                          ****END OF INPUT****

CARTESIAN COORDINATES (ANGSTROEM)
---------------------------------
  S      3.294610  -14.172200  -107.421000
  C      2.479200  -15.097500  -108.664000
  C      1.565400  -15.994700  -108.211000
  C      1.573610  -16.089100  -106.772000
  C      2.423720  -15.127900  -106.204000
  H      0.917818  -16.635400  -106.159000
  C      0.662727  -16.934000  -109.044000
  H      0.701366  -17.900100  -108.545000
  H      1.166220  -17.197600  -109.978000
  C     -0.785534  -16.439800  -109.261000
  H     -1.342410  -15.919100  -108.427000
  H     -0.721676  -15.722500  -110.056000
  C     -1.667410  -17.488800  -109.828000
  H     -2.752000  -17.134200  -109.887000
  H     -1.259130  -17.831900  -110.771000
  H     -1.815450  -18.277200  -109.160000
  S      4.078350  -14.828400  -104.021000
  C      3.411670  -14.502900  -102.441000
  C      2.070700  -14.142900  -102.548000
  C      1.536650  -14.378800  -103.818000
  C      2.507030  -14.679000  -104.819000
  H      1.540540  -13.824300  -101.650000
  C      0.086933  -14.161200  -104.211000
  H      0.012982  -14.237600  -105.255000
  H     -0.186624  -13.073500  -104.070000
  C     -0.993981  -14.989000  -103.471000
  H     -1.946070  -14.705100  -103.872000
  H     -1.173350  -14.732400  -102.452000
  C     -0.712290  -16.428800  -103.498000
  H     -1.068650  -16.919100  -104.380000
  H     -1.270140  -16.933000  -102.677000
  H      0.355585  -16.670800  -103.346000
  H      2.430460  -14.812600  -109.667000
  H      3.960280  -14.309400  -101.482000

 Total Charge           Charge          ....    0
 Multiplicity           Mult            ....    1
 Number of Electrons    NEL             ....  134
 Basis Dimension        Dim             ....  322

ORBITAL ENERGIES
----------------

  NO   OCC          E(Eh)            E(eV)
   0   2.0000     -88.967645     -2420.9327
   1   2.0000     -88.965567     -2420.8762
   2   2.0000     -10.333645      -281.1928
   3   2.0000     -10.328667      -281.0573
   4   2.0000     -10.321670      -280.8669
   5   2.0000     -10.306675      -280.4589
   6   2.0000     -10.305527      -280.4276
   7   2.0000     -10.302296      -280.3397
   8   2.0000     -10.298055      -280.2243
   9   2.0000     -10.295854      -280.1644
  10   2.0000     -10.293456      -280.0992
  11   2.0000     -10.288466      -279.9634
  12   2.0000     -10.287626      -279.9405
  13   2.0000     -10.277559      -279.6666
  14   2.0000     -10.275883      -279.6210
  15   2.0000     -10.270963      -279.4871
  16   2.0000      -8.082108      -219.9253
  17   2.0000      -8.079928      -219.8660
  18   2.0000      -6.040668      -164.3749
  19   2.0000      -6.038421      -164.3138
  20   2.0000      -6.036762      -164.2686
  21   2.0000      -6.034308      -164.2019
  22   2.0000      -6.032730      -164.1589
  23   2.0000      -6.030899      -164.1091
  24   2.0000      -1.002741       -27.2860
  25   2.0000      -0.981558       -26.7095
  26   2.0000      -0.914484       -24.8844
  27   2.0000      -0.911856       -24.8129
  28   2.0000      -0.872031       -23.7292
  29   2.0000      -0.853052       -23.2127
  30   2.0000      -0.849209       -23.1081
  31   2.0000      -0.814498       -22.1636
  32   2.0000      -0.784029       -21.3345
  33   2.0000      -0.771229       -20.9862
  34   2.0000      -0.708965       -19.2919
  35   2.0000      -0.701073       -19.0772
  36   2.0000      -0.696367       -18.9491
  37   2.0000      -0.654342       -17.8055
  38   2.0000      -0.643226       -17.5031
  39   2.0000      -0.620588       -16.8871
  40   2.0000      -0.593299       -16.1445
  41   2.0000      -0.568854       -15.4793
  42   2.0000      -0.566116       -15.4048
  43   2.0000      -0.554857       -15.0984
  44   2.0000      -0.541358       -14.7311
  45   2.0000      -0.530899       -14.4465
  46   2.0000      -0.523715       -14.2510
  47   2.0000      -0.509005       -13.8507
  48   2.0000      -0.504780       -13.7358
  49   2.0000      -0.499018       -13.5790
  50   2.0000      -0.489174       -13.3111
  51   2.0000      -0.479809       -13.0563
  52   2.0000      -0.466790       -12.7020
  53   2.0000      -0.465048       -12.6546
  54   2.0000      -0.459125       -12.4934
  55   2.0000      -0.453232       -12.3331
  56   2.0000      -0.445999       -12.1362
  57   2.0000      -0.438003       -11.9187
  58   2.0000      -0.427329       -11.6282
  59   2.0000      -0.426103       -11.5949
  60   2.0000      -0.418962       -11.4005
  61   2.0000      -0.413637       -11.2556
  62   2.0000      -0.410327       -11.1656
  63   2.0000      -0.343376        -9.3437
  64   2.0000      -0.334447        -9.1008
  65   2.0000      -0.328605        -8.9418
  66   2.0000      -0.292045        -7.9470
  67   0.0000       0.028981         0.7886
  68   0.0000       0.060966         1.6590
  69   0.0000       0.109999         2.9932
  70   0.0000       0.120018         3.2658
  71   0.0000       0.126380         3.4390

MULLIKEN ATOMIC CHARGES
-----------------------
   0 S :    0.108351
   1 C :   -0.071840
   2 C :   -0.108507
   3 C :    0.071429
   4 C :   -0.156960
   5 H :   -0.015402
   6 C :    0.053641
   7 H :    0.022194
   8 H :    0.022199
   9 C :   -0.062477
  10 H :    0.042008
  11 H :    0.020095
  12 C :   -0.035644
  13 H :    0.035527
  14 H :    0.030940
  15 H :    0.012013
  16 S :    0.106842
  17 C :   -0.109468
  18 C :   -0.042526
  19 C :   -0.044299
  20 C :   -0.152898
  21 H :    0.025794
  22 C :    0.059435
  23 H :    0.012770
  24 H :    0.036057
  25 C :   -0.024696
  26 H :    0.010752
  27 H :    0.010301
  28 C :   -0.063717
  29 H :    0.026763
  30 H :    0.025869
  31 H :    0.053996
  32 H :    0.024766
  33 H :    0.076691
Sum of atomic charges:    0.0000000

LOEWDIN ATOMIC CHARGES
----------------------
   0 S :    0.396488
   1 C :   -0.190487
   2 C :   -0.057455
   3 C :   -0.047160
   4 C :   -0.183582
   5 H :    0.023028
   6 C :   -0.029824
   7 H :    0.029817
   8 H :    0.032347
   9 C :   -0.047067
  10 H :    0.032702
  11 H :    0.022757
  12 C :   -0.064518
  13 H :    0.036745
  14 H :    0.024149
  15 H :    0.012383
  16 S :    0.409469
  17 C :   -0.196664
  18 C :   -0.076976
  19 C :   -0.056150
  20 C :   -0.206874
  21 H :    0.035353
  22 C :   -0.030461
  23 H :    0.022243
  24 H :    0.040160
  25 C :   -0.044444
  26 H :    0.024312
  27 H :    0.019804
  28 C :   -0.070468
  29 H :    0.018039
  30 H :    0.030381
  31 H :    0.032085
  32 H :    0.016928
  33 H :    0.042941

  Mayer bond orders larger than 0.100000
B(  0-S ,  1-C ) :   1.1217 B(  0-S ,  4-C ) :   1.1515 B(  1-C ,  2-C ) :   1.6757
B(  1-C , 32-H ) :   0.9615 B(  2-C ,  3-C ) :   1.2092 B(  2-C ,  6-C ) :   1.0120
B(  3-C ,  4-C ) :   1.5885 B(  3-C ,  5-H ) :   1.0031 B(  4-C , 20-C ) :   1.0124
B(  6-C ,  7-H ) :   0.9495 B(  6-C ,  8-H ) :   0.9415 B(  6-C ,  9-C ) :   1.0441
B(  9-C , 10-H ) :   0.9605 B(  9-C , 11-H ) :   0.9523 B(  9-C , 12-C ) :   1.0945
B( 12-C , 13-H ) :   0.9692 B( 12-C , 14-H ) :   0.9715 B( 12-C , 15-H ) :   0.9739
B( 16-S , 17-C ) :   1.1774 B( 16-S , 20-C ) :   1.1483 B( 17-C , 18-C ) :   1.5773
B( 17-C , 20-C ) :   0.1153 B( 17-C , 33-H ) :   0.9570 B( 18-C , 19-C ) :   1.2709
B( 18-C , 21-H ) :   0.9898 B( 19-C , 20-C ) :   1.5420 B( 19-C , 22-C ) :   1.0472
B( 22-C , 23-H ) :   0.9382 B( 22-C , 24-H ) :   0.9355 B( 22-C , 25-C ) :   1.0660
B( 25-C , 26-H ) :   0.9480 B( 25-C , 27-H ) :   0.9560 B( 25-C , 28-C ) :   1.0856
B( 28-C , 29-H ) :   0.9706 B( 28-C , 30-H ) :   0.9703 B( 28-C , 31-H ) :   0.9689

Dispersion correction           -0.014877285
FINAL SINGLE POINT ENERGY     -1339.865655522885

DIPOLE MOMENT
-------------
                                X             Y             Z
Electronic contribution:     28.83519      11.53959       5.55027
Nuclear contribution   :    -29.66051     -11.62671      -5.53236
                        -----------------------------------------
Total Dipole Moment    :     -0.82532      -0.08712       0.01791
                        -----------------------------------------
Magnitude (a.u.)       :      0.83010
Magnitude (Debye)      :      2.10995

Rotational constants in cm-1:     0.019171     0.009060     0.006685
Rotational constants in MHz :   574.722018   271.603709   200.419546

                             ****ORCA TERMINATED NORMALLY****
TOTAL RUN TIME: 0 days 0 hours 0 minutes 22 seconds 175 msec
