                         Program Version 4.2.1 -  RELEASE  -
|  1> ! wB97X-D3 SP def2-SVP
|  2> %pal
|  3> nprocs 24
|  4> end
|  5>
|  6> * xyz 0 1
|  7> S 	 29.6395 	 1.84116 	 -115.936
|  8> C 	 27.9897 	 2.47746 	 -115.771
|  9> C 	 27.2882 	 1.88171 	 -114.744
| 10> C 	 28.0893 	 0.966124 	 -114.017
| 11> C 	 29.3981 	 0.898297 	 -114.487
| 12> H 	 27.7602 	 0.393294 	 -113.148
| 13> C 	 25.7884 	 2.17869 	 -114.447
| 14> H 	 25.1499 	 1.48526 	 -114.934
| 15> H 	 25.487 	 3.13902 	 -114.917
| 16> C 	 25.5353 	 2.12293 	 -112.954
| 17> H 	 26.1387 	 1.47804 	 -112.396
| 18> H 	 25.8315 	 3.04391 	 -112.55
| 19> C 	 24.0103 	 1.92233 	 -112.549
| 20> H 	 23.3143 	 1.55398 	 -113.361
| 21> H 	 23.9462 	 1.17994 	 -111.799
| 22> H 	 23.5405 	 2.83932 	 -112.101
| 23> S 	 31.2904 	 -1.11119 	 -114.665
| 24> C 	 32.1731 	 -1.53197 	 -113.173
| 25> C 	 31.8068 	 -0.821588 	 -112.069
| 26> C 	 30.7656 	 0.134433 	 -112.39
| 27> C 	 30.3924 	 0.10481 	 -113.744
| 28> H 	 32.3538 	 -1.04746 	 -111.247
| 29> C 	 30.2192 	 0.923284 	 -111.3
| 30> H 	 29.964 	 0.234588 	 -110.572
| 31> H 	 29.2903 	 1.39867 	 -111.66
| 32> C 	 31.1767 	 1.97943 	 -110.649
| 33> H 	 31.4288 	 2.84004 	 -111.29
| 34> H 	 32.1553 	 1.48854 	 -110.397
| 35> C 	 30.7063 	 2.51125 	 -109.321
| 36> H 	 30.2817 	 1.70205 	 -108.817
| 37> H 	 29.7903 	 3.06268 	 -109.505
| 38> H 	 31.4553 	 3.00396 	 -108.653
| 39> H 	 27.4709 	 3.13802 	 -116.52
| 40> H 	 32.7945 	 -2.45099 	 -113.13
| 41> *
| 42>
| 43>                          ****END OF INPUT****

CARTESIAN COORDINATES (ANGSTROEM)
---------------------------------
  S     29.639500    1.841160  -115.936000
  C     27.989700    2.477460  -115.771000
  C     27.288200    1.881710  -114.744000
  C     28.089300    0.966124  -114.017000
  C     29.398100    0.898297  -114.487000
  H     27.760200    0.393294  -113.148000
  C     25.788400    2.178690  -114.447000
  H     25.149900    1.485260  -114.934000
  H     25.487000    3.139020  -114.917000
  C     25.535300    2.122930  -112.954000
  H     26.138700    1.478040  -112.396000
  H     25.831500    3.043910  -112.550000
  C     24.010300    1.922330  -112.549000
  H     23.314300    1.553980  -113.361000
  H     23.946200    1.179940  -111.799000
  H     23.540500    2.839320  -112.101000
  S     31.290400   -1.111190  -114.665000
  C     32.173100   -1.531970  -113.173000
  C     31.806800   -0.821588  -112.069000
  C     30.765600    0.134433  -112.390000
  C     30.392400    0.104810  -113.744000
  H     32.353800   -1.047460  -111.247000
  C     30.219200    0.923284  -111.300000
  H     29.964000    0.234588  -110.572000
  H     29.290300    1.398670  -111.660000
  C     31.176700    1.979430  -110.649000
  H     31.428800    2.840040  -111.290000
  H     32.155300    1.488540  -110.397000
  C     30.706300    2.511250  -109.321000
  H     30.281700    1.702050  -108.817000
  H     29.790300    3.062680  -109.505000
  H     31.455300    3.003960  -108.653000
  H     27.470900    3.138020  -116.520000
  H     32.794500   -2.450990  -113.130000

 Total Charge           Charge          ....    0
 Multiplicity           Mult            ....    1
 Number of Electrons    NEL             ....  134
 Basis Dimension        Dim             ....  322

ORBITAL ENERGIES
----------------

  NO   OCC          E(Eh)            E(eV)
   0   2.0000     -88.971888     -2421.0482
   1   2.0000     -88.962995     -2420.8062
   2   2.0000     -10.330444      -281.1057
   3   2.0000     -10.330294      -281.1016
   4   2.0000     -10.318667      -280.7852
   5   2.0000     -10.317160      -280.7442
   6   2.0000     -10.306471      -280.4533
   7   2.0000     -10.301638      -280.3218
   8   2.0000     -10.295420      -280.1526
   9   2.0000     -10.293632      -280.1040
  10   2.0000     -10.288972      -279.9772
  11   2.0000     -10.288249      -279.9575
  12   2.0000     -10.286167      -279.9008
  13   2.0000     -10.284867      -279.8655
  14   2.0000     -10.281302      -279.7685
  15   2.0000     -10.272043      -279.5165
  16   2.0000      -8.085859      -220.0274
  17   2.0000      -8.077266      -219.7936
  18   2.0000      -6.044390      -164.4762
  19   2.0000      -6.040592      -164.3729
  20   2.0000      -6.036525      -164.2622
  21   2.0000      -6.035765      -164.2415
  22   2.0000      -6.031973      -164.1383
  23   2.0000      -6.027949      -164.0288
  24   2.0000      -1.002401       -27.2767
  25   2.0000      -0.980467       -26.6799
  26   2.0000      -0.913413       -24.8552
  27   2.0000      -0.909423       -24.7467
  28   2.0000      -0.868190       -23.6246
  29   2.0000      -0.856688       -23.3117
  30   2.0000      -0.844774       -22.9875
  31   2.0000      -0.816103       -22.2073
  32   2.0000      -0.783136       -21.3102
  33   2.0000      -0.768636       -20.9157
  34   2.0000      -0.715905       -19.4808
  35   2.0000      -0.700939       -19.0735
  36   2.0000      -0.690347       -18.7853
  37   2.0000      -0.663289       -18.0490
  38   2.0000      -0.635087       -17.2816
  39   2.0000      -0.624987       -17.0067
  40   2.0000      -0.594526       -16.1779
  41   2.0000      -0.575334       -15.6556
  42   2.0000      -0.561937       -15.2911
  43   2.0000      -0.555988       -15.1292
  44   2.0000      -0.532031       -14.4773
  45   2.0000      -0.524828       -14.2813
  46   2.0000      -0.519560       -14.1380
  47   2.0000      -0.511800       -13.9268
  48   2.0000      -0.496916       -13.5218
  49   2.0000      -0.495877       -13.4935
  50   2.0000      -0.488148       -13.2832
  51   2.0000      -0.484460       -13.1828
  52   2.0000      -0.466335       -12.6896
  53   2.0000      -0.461889       -12.5686
  54   2.0000      -0.456009       -12.4086
  55   2.0000      -0.454999       -12.3812
  56   2.0000      -0.447457       -12.1759
  57   2.0000      -0.446345       -12.1457
  58   2.0000      -0.430818       -11.7232
  59   2.0000      -0.429286       -11.6815
  60   2.0000      -0.419048       -11.4029
  61   2.0000      -0.417730       -11.3670
  62   2.0000      -0.411930       -11.2092
  63   2.0000      -0.345336        -9.3971
  64   2.0000      -0.334862        -9.1121
  65   2.0000      -0.328041        -8.9265
  66   2.0000      -0.291385        -7.9290
  67   0.0000       0.032238         0.8772
  68   0.0000       0.067807         1.8451
  69   0.0000       0.106718         2.9039
  70   0.0000       0.119702         3.2573
  71   0.0000       0.128738         3.5031

MULLIKEN ATOMIC CHARGES
-----------------------
   0 S :    0.128588
   1 C :   -0.149112
   2 C :   -0.090191
   3 C :   -0.003500
   4 C :   -0.136864
   5 H :    0.029248
   6 C :    0.126450
   7 H :    0.028394
   8 H :    0.025611
   9 C :   -0.058447
  10 H :    0.009359
  11 H :    0.015602
  12 C :   -0.082339
  13 H :    0.040770
  14 H :    0.021064
  15 H :    0.043640
  16 S :    0.086712
  17 C :   -0.108397
  18 C :    0.000214
  19 C :   -0.021548
  20 C :   -0.171482
  21 H :   -0.015334
  22 C :    0.110614
  23 H :    0.007949
  24 H :    0.017241
  25 C :   -0.110075
  26 H :    0.042034
  27 H :    0.026800
  28 C :   -0.007321
  29 H :   -0.007280
  30 H :    0.015052
  31 H :    0.056217
  32 H :    0.062031
  33 H :    0.068299
Sum of atomic charges:    0.0000000

LOEWDIN ATOMIC CHARGES
----------------------
   0 S :    0.403385
   1 C :   -0.202915
   2 C :   -0.062050
   3 C :   -0.067124
   4 C :   -0.197720
   5 H :    0.032769
   6 C :   -0.020374
   7 H :    0.024887
   8 H :    0.034488
   9 C :   -0.036652
  10 H :    0.014956
  11 H :    0.023823
  12 C :   -0.072662
  13 H :    0.030859
  14 H :    0.018371
  15 H :    0.031544
  16 S :    0.371386
  17 C :   -0.167318
  18 C :   -0.058340
  19 C :   -0.046230
  20 C :   -0.188812
  21 H :    0.018971
  22 C :   -0.031021
  23 H :    0.025064
  24 H :    0.031546
  25 C :   -0.038786
  26 H :    0.027485
  27 H :    0.024904
  28 C :   -0.070968
  29 H :    0.013864
  30 H :    0.024860
  31 H :    0.036168
  32 H :    0.038485
  33 H :    0.033155

  Mayer bond orders larger than 0.100000
B(  0-S ,  1-C ) :   1.1239 B(  0-S ,  4-C ) :   1.1557 B(  1-C ,  2-C ) :   1.6352
B(  1-C , 32-H ) :   0.9574 B(  2-C ,  3-C ) :   1.2502 B(  2-C ,  6-C ) :   1.0049
B(  3-C ,  4-C ) :   1.5577 B(  3-C ,  5-H ) :   0.9870 B(  4-C , 20-C ) :   1.0374
B(  6-C ,  7-H ) :   0.9419 B(  6-C ,  8-H ) :   0.9435 B(  6-C ,  9-C ) :   1.0462
B(  9-C , 10-H ) :   0.9693 B(  9-C , 11-H ) :   0.9552 B(  9-C , 12-C ) :   1.0550
B( 12-C , 13-H ) :   0.9815 B( 12-C , 14-H ) :   0.9801 B( 12-C , 15-H ) :   0.9811
B( 16-S , 17-C ) :   1.1343 B( 16-S , 20-C ) :   1.1247 B( 17-C , 18-C ) :   1.6682
B( 17-C , 33-H ) :   0.9572 B( 18-C , 19-C ) :   1.1673 B( 18-C , 21-H ) :   1.0076
B( 19-C , 20-C ) :   1.6184 B( 19-C , 22-C ) :   1.0731 B( 22-C , 23-H ) :   0.9175
B( 22-C , 24-H ) :   0.9181 B( 22-C , 25-C ) :   1.0578 B( 25-C , 26-H ) :   0.9567
B( 25-C , 27-H ) :   0.9582 B( 25-C , 28-C ) :   1.0816 B( 28-C , 29-H ) :   0.9648
B( 28-C , 30-H ) :   0.9668 B( 28-C , 31-H ) :   0.9732

Dispersion correction           -0.013712573
FINAL SINGLE POINT ENERGY     -1339.855002828634

DIPOLE MOMENT
-------------
                                X             Y             Z
Electronic contribution:     17.51465     -10.47707     -23.88965
Nuclear contribution   :    -17.91703      10.48747      24.53566
                        -----------------------------------------
Total Dipole Moment    :     -0.40237       0.01040       0.64600
                        -----------------------------------------
Magnitude (a.u.)       :      0.76114
Magnitude (Debye)      :      1.93466

Rotational constants in cm-1:     0.015511     0.009154     0.006805
Rotational constants in MHz :   465.020025   274.418088   204.005061

                             ****ORCA TERMINATED NORMALLY****
TOTAL RUN TIME: 0 days 0 hours 0 minutes 21 seconds 351 msec
