                         Program Version 4.2.1 -  RELEASE  -
|  1> ! wB97X-D3 SP def2-SVP
|  2> %pal
|  3> nprocs 24
|  4> end
|  5>
|  6> * xyz 0 1
|  7> S 	 -101.963 	 -1.32376 	 -112.302
|  8> C 	 -103.203 	 -2.04504 	 -113.208
|  9> C 	 -104.393 	 -1.28357 	 -113.26
| 10> C 	 -104.281 	 -0.225907 	 -112.291
| 11> C 	 -103.058 	 -0.0922114 	 -111.685
| 12> H 	 -104.925 	 0.643598 	 -112.1
| 13> C 	 -105.678 	 -1.51649 	 -114.038
| 14> H 	 -105.5 	 -2.35641 	 -114.678
| 15> H 	 -106.028 	 -0.662606 	 -114.626
| 16> C 	 -106.669 	 -2.06354 	 -113.046
| 17> H 	 -106.255 	 -3.00458 	 -112.584
| 18> H 	 -106.787 	 -1.18378 	 -112.335
| 19> C 	 -108.091 	 -2.28598 	 -113.562
| 20> H 	 -108.13 	 -3.13261 	 -114.29
| 21> H 	 -108.795 	 -2.51263 	 -112.752
| 22> H 	 -108.455 	 -1.35873 	 -113.998
| 23> S 	 -101.841 	 0.168669 	 -109.245
| 24> C 	 -101.906 	 1.65253 	 -108.488
| 25> C 	 -102.76 	 2.56642 	 -109.027
| 26> C 	 -103.054 	 2.20206 	 -110.382
| 27> C 	 -102.635 	 0.90896 	 -110.709
| 28> H 	 -103.099 	 3.4183 	 -108.559
| 29> C 	 -103.903 	 3.23072 	 -111.148
| 30> H 	 -104.772 	 3.50743 	 -110.488
| 31> H 	 -104.396 	 2.72623 	 -111.949
| 32> C 	 -103.19 	 4.45487 	 -111.688
| 33> H 	 -102.345 	 4.77846 	 -111.036
| 34> H 	 -103.877 	 5.32647 	 -111.799
| 35> C 	 -102.761 	 4.1286 	 -113.2
| 36> H 	 -103.712 	 3.97683 	 -113.703
| 37> H 	 -102.33 	 3.2201 	 -113.371
| 38> H 	 -102.25 	 4.98053 	 -113.633
| 39> H 	 -103.03 	 -2.98487 	 -113.668
| 40> H 	 -101.529 	 1.75493 	 -107.469
| 41> *
| 42>
| 43>                          ****END OF INPUT****

CARTESIAN COORDINATES (ANGSTROEM)
---------------------------------
  S    -101.963000   -1.323760  -112.302000
  C    -103.203000   -2.045040  -113.208000
  C    -104.393000   -1.283570  -113.260000
  C    -104.281000   -0.225907  -112.291000
  C    -103.058000   -0.092211  -111.685000
  H    -104.925000    0.643598  -112.100000
  C    -105.678000   -1.516490  -114.038000
  H    -105.500000   -2.356410  -114.678000
  H    -106.028000   -0.662606  -114.626000
  C    -106.669000   -2.063540  -113.046000
  H    -106.255000   -3.004580  -112.584000
  H    -106.787000   -1.183780  -112.335000
  C    -108.091000   -2.285980  -113.562000
  H    -108.130000   -3.132610  -114.290000
  H    -108.795000   -2.512630  -112.752000
  H    -108.455000   -1.358730  -113.998000
  S    -101.841000    0.168669  -109.245000
  C    -101.906000    1.652530  -108.488000
  C    -102.760000    2.566420  -109.027000
  C    -103.054000    2.202060  -110.382000
  C    -102.635000    0.908960  -110.709000
  H    -103.099000    3.418300  -108.559000
  C    -103.903000    3.230720  -111.148000
  H    -104.772000    3.507430  -110.488000
  H    -104.396000    2.726230  -111.949000
  C    -103.190000    4.454870  -111.688000
  H    -102.345000    4.778460  -111.036000
  H    -103.877000    5.326470  -111.799000
  C    -102.761000    4.128600  -113.200000
  H    -103.712000    3.976830  -113.703000
  H    -102.330000    3.220100  -113.371000
  H    -102.250000    4.980530  -113.633000
  H    -103.030000   -2.984870  -113.668000
  H    -101.529000    1.754930  -107.469000

 Total Charge           Charge          ....    0
 Multiplicity           Mult            ....    1
 Number of Electrons    NEL             ....  134
 Basis Dimension        Dim             ....  322

ORBITAL ENERGIES
----------------

  NO   OCC          E(Eh)            E(eV)
   0   2.0000     -88.963643     -2420.8238
   1   2.0000     -88.962478     -2420.7921
   2   2.0000     -10.331047      -281.1221
   3   2.0000     -10.325600      -280.9739
   4   2.0000     -10.312175      -280.6086
   5   2.0000     -10.311192      -280.5818
   6   2.0000     -10.309334      -280.5313
   7   2.0000     -10.306946      -280.4663
   8   2.0000     -10.296016      -280.1688
   9   2.0000     -10.295828      -280.1637
  10   2.0000     -10.291815      -280.0545
  11   2.0000     -10.290969      -280.0315
  12   2.0000     -10.290271      -280.0125
  13   2.0000     -10.285401      -279.8800
  14   2.0000     -10.279931      -279.7311
  15   2.0000     -10.270763      -279.4817
  16   2.0000      -8.079327      -219.8497
  17   2.0000      -8.078392      -219.8242
  18   2.0000      -6.037653      -164.2929
  19   2.0000      -6.036668      -164.2661
  20   2.0000      -6.033732      -164.1862
  21   2.0000      -6.033026      -164.1670
  22   2.0000      -6.030199      -164.0901
  23   2.0000      -6.028989      -164.0571
  24   2.0000      -1.008038       -27.4301
  25   2.0000      -0.988599       -26.9011
  26   2.0000      -0.918013       -24.9804
  27   2.0000      -0.909508       -24.7490
  28   2.0000      -0.869343       -23.6560
  29   2.0000      -0.852087       -23.1865
  30   2.0000      -0.845557       -23.0088
  31   2.0000      -0.811321       -22.0772
  32   2.0000      -0.785123       -21.3643
  33   2.0000      -0.772391       -21.0178
  34   2.0000      -0.708022       -19.2662
  35   2.0000      -0.691337       -18.8122
  36   2.0000      -0.685822       -18.6622
  37   2.0000      -0.665344       -18.1049
  38   2.0000      -0.647927       -17.6310
  39   2.0000      -0.620844       -16.8940
  40   2.0000      -0.601811       -16.3761
  41   2.0000      -0.576915       -15.6986
  42   2.0000      -0.563531       -15.3344
  43   2.0000      -0.554715       -15.0945
  44   2.0000      -0.532504       -14.4902
  45   2.0000      -0.518623       -14.1125
  46   2.0000      -0.515572       -14.0294
  47   2.0000      -0.511437       -13.9169
  48   2.0000      -0.506019       -13.7695
  49   2.0000      -0.497983       -13.5508
  50   2.0000      -0.495263       -13.4768
  51   2.0000      -0.484605       -13.1868
  52   2.0000      -0.465940       -12.6789
  53   2.0000      -0.464031       -12.6269
  54   2.0000      -0.458802       -12.4846
  55   2.0000      -0.455450       -12.3934
  56   2.0000      -0.444605       -12.0983
  57   2.0000      -0.440262       -11.9801
  58   2.0000      -0.435709       -11.8562
  59   2.0000      -0.426837       -11.6148
  60   2.0000      -0.418355       -11.3840
  61   2.0000      -0.411037       -11.1849
  62   2.0000      -0.405109       -11.0236
  63   2.0000      -0.348438        -9.4815
  64   2.0000      -0.332130        -9.0377
  65   2.0000      -0.326115        -8.8740
  66   2.0000      -0.287533        -7.8242
  67   0.0000       0.027470         0.7475
  68   0.0000       0.075099         2.0435
  69   0.0000       0.097816         2.6617
  70   0.0000       0.107531         2.9261
  71   0.0000       0.136967         3.7270

MULLIKEN ATOMIC CHARGES
-----------------------
   0 S :    0.117777
   1 C :   -0.114568
   2 C :   -0.095501
   3 C :    0.012628
   4 C :   -0.169818
   5 H :    0.015418
   6 C :    0.119183
   7 H :    0.003524
   8 H :    0.040341
   9 C :   -0.152828
  10 H :    0.048370
  11 H :    0.036896
  12 C :   -0.021797
  13 H :    0.032745
  14 H :    0.037912
  15 H :    0.021818
  16 S :    0.097009
  17 C :   -0.065027
  18 C :   -0.007867
  19 C :   -0.073522
  20 C :   -0.109786
  21 H :   -0.008319
  22 C :    0.052771
  23 H :    0.039395
  24 H :   -0.010269
  25 C :   -0.073463
  26 H :    0.045192
  27 H :    0.035293
  28 C :   -0.030924
  29 H :    0.016068
  30 H :    0.023231
  31 H :    0.040615
  32 H :    0.038624
  33 H :    0.058875
Sum of atomic charges:   -0.0000000

LOEWDIN ATOMIC CHARGES
----------------------
   0 S :    0.420047
   1 C :   -0.206538
   2 C :   -0.055074
   3 C :   -0.070555
   4 C :   -0.201101
   5 H :    0.031837
   6 C :   -0.031431
   7 H :    0.024970
   8 H :    0.033999
   9 C :   -0.047763
  10 H :    0.033276
  11 H :    0.028827
  12 C :   -0.070812
  13 H :    0.024379
  14 H :    0.028808
  15 H :    0.022464
  16 S :    0.411573
  17 C :   -0.195895
  18 C :   -0.063669
  19 C :   -0.043601
  20 C :   -0.184672
  21 H :    0.018670
  22 C :   -0.036174
  23 H :    0.039246
  24 H :    0.016622
  25 C :   -0.038103
  26 H :    0.026617
  27 H :    0.028876
  28 C :   -0.054645
  29 H :    0.025031
  30 H :    0.012736
  31 H :    0.025461
  32 H :    0.018536
  33 H :    0.028058

  Mayer bond orders larger than 0.100000
B(  0-S ,  1-C ) :   1.1687 B(  0-S ,  4-C ) :   1.1444 B(  1-C ,  2-C ) :   1.5783
B(  1-C , 32-H ) :   0.9729 B(  2-C ,  3-C ) :   1.2319 B(  2-C ,  6-C ) :   1.0382
B(  3-C ,  4-C ) :   1.6126 B(  3-C ,  5-H ) :   0.9732 B(  4-C , 20-C ) :   1.0321
B(  6-C ,  7-H ) :   0.9289 B(  6-C ,  8-H ) :   0.9395 B(  6-C ,  9-C ) :   1.0584
B(  9-C , 10-H ) :   0.9541 B(  9-C , 11-H ) :   0.9591 B(  9-C , 12-C ) :   1.0844
B( 12-C , 13-H ) :   0.9728 B( 12-C , 14-H ) :   0.9730 B( 12-C , 15-H ) :   0.9708
B( 16-S , 17-C ) :   1.1870 B( 16-S , 20-C ) :   1.1197 B( 17-C , 18-C ) :   1.5917
B( 17-C , 33-H ) :   0.9600 B( 18-C , 19-C ) :   1.2390 B( 18-C , 21-H ) :   1.0075
B( 19-C , 20-C ) :   1.6095 B( 19-C , 22-C ) :   1.0350 B( 22-C , 23-H ) :   0.9389
B( 22-C , 24-H ) :   0.9334 B( 22-C , 25-C ) :   1.0569 B( 25-C , 26-H ) :   0.9626
B( 25-C , 27-H ) :   0.9561 B( 25-C , 28-C ) :   1.0646 B( 28-C , 29-H ) :   0.9726
B( 28-C , 30-H ) :   0.9820 B( 28-C , 31-H ) :   0.9770

Dispersion correction           -0.013825149
FINAL SINGLE POINT ENERGY     -1339.852417400219

DIPOLE MOMENT
-------------
                                X             Y             Z
Electronic contribution:     21.23094      -9.33214      13.24584
Nuclear contribution   :    -21.87273       9.66407     -13.31304
                        -----------------------------------------
Total Dipole Moment    :     -0.64180       0.33193      -0.06720
                        -----------------------------------------
Magnitude (a.u.)       :      0.72567
Magnitude (Debye)      :      1.84450

Rotational constants in cm-1:     0.017681     0.008287     0.007016
Rotational constants in MHz :   530.062611   248.443399   210.325217

                             ****ORCA TERMINATED NORMALLY****
TOTAL RUN TIME: 0 days 0 hours 0 minutes 21 seconds 588 msec
