                         Program Version 4.2.1 -  RELEASE  -
|  1> ! wB97X-D3 SP def2-SVP
|  2> %pal
|  3> nprocs 24
|  4> end
|  5>
|  6> * xyz 0 1
|  7> S 	 -41.4239 	 -11.4209 	 4.28986
|  8> C 	 -41.3497 	 -12.1796 	 5.79602
|  9> C 	 -40.8303 	 -11.2419 	 6.68485
| 10> C 	 -40.6315 	 -9.93925 	 6.12427
| 11> C 	 -40.9556 	 -9.85761 	 4.80441
| 12> H 	 -40.378 	 -9.06529 	 6.70642
| 13> C 	 -40.6639 	 -11.5792 	 8.22688
| 14> H 	 -40.1754 	 -12.551 	 8.2545
| 15> H 	 -41.6153 	 -11.7199 	 8.63217
| 16> C 	 -39.8154 	 -10.6111 	 9.01907
| 17> H 	 -40.1342 	 -9.51197 	 8.86429
| 18> H 	 -39.8953 	 -10.8603 	 10.0892
| 19> C 	 -38.3148 	 -10.5207 	 8.68205
| 20> H 	 -37.9404 	 -11.5769 	 8.87163
| 21> H 	 -38.143 	 -10.2851 	 7.59574
| 22> H 	 -37.7667 	 -9.77315 	 9.26926
| 23> S 	 -39.6688 	 -8.91704 	 2.51154
| 24> C 	 -39.7681 	 -7.15864 	 2.12408
| 25> C 	 -40.4585 	 -6.46895 	 3.11379
| 26> C 	 -40.9958 	 -7.29242 	 4.16108
| 27> C 	 -40.701 	 -8.62817 	 3.9469
| 28> H 	 -40.3117 	 -5.40447 	 3.06425
| 29> C 	 -41.865 	 -6.68175 	 5.32261
| 30> H 	 -42.1845 	 -7.40831 	 6.03615
| 31> H 	 -42.7966 	 -6.28739 	 4.89195
| 32> C 	 -41.2175 	 -5.60211 	 6.12282
| 33> H 	 -41.0671 	 -4.85798 	 5.37109
| 34> H 	 -40.2096 	 -5.86275 	 6.51718
| 35> C 	 -42.0986 	 -5.02677 	 7.2466
| 36> H 	 -41.6233 	 -4.12906 	 7.69243
| 37> H 	 -42.285 	 -5.83641 	 7.96258
| 38> H 	 -43.0595 	 -4.71611 	 6.91646
| 39> H 	 -41.8354 	 -13.0594 	 6.21248
| 40> H 	 -39.2737 	 -6.71433 	 1.27587
| 41> *
| 42>
| 43>                          ****END OF INPUT****

CARTESIAN COORDINATES (ANGSTROEM)
---------------------------------
  S    -41.423900  -11.420900    4.289860
  C    -41.349700  -12.179600    5.796020
  C    -40.830300  -11.241900    6.684850
  C    -40.631500   -9.939250    6.124270
  C    -40.955600   -9.857610    4.804410
  H    -40.378000   -9.065290    6.706420
  C    -40.663900  -11.579200    8.226880
  H    -40.175400  -12.551000    8.254500
  H    -41.615300  -11.719900    8.632170
  C    -39.815400  -10.611100    9.019070
  H    -40.134200   -9.511970    8.864290
  H    -39.895300  -10.860300   10.089200
  C    -38.314800  -10.520700    8.682050
  H    -37.940400  -11.576900    8.871630
  H    -38.143000  -10.285100    7.595740
  H    -37.766700   -9.773150    9.269260
  S    -39.668800   -8.917040    2.511540
  C    -39.768100   -7.158640    2.124080
  C    -40.458500   -6.468950    3.113790
  C    -40.995800   -7.292420    4.161080
  C    -40.701000   -8.628170    3.946900
  H    -40.311700   -5.404470    3.064250
  C    -41.865000   -6.681750    5.322610
  H    -42.184500   -7.408310    6.036150
  H    -42.796600   -6.287390    4.891950
  C    -41.217500   -5.602110    6.122820
  H    -41.067100   -4.857980    5.371090
  H    -40.209600   -5.862750    6.517180
  C    -42.098600   -5.026770    7.246600
  H    -41.623300   -4.129060    7.692430
  H    -42.285000   -5.836410    7.962580
  H    -43.059500   -4.716110    6.916460
  H    -41.835400  -13.059400    6.212480
  H    -39.273700   -6.714330    1.275870

 Total Charge           Charge          ....    0
 Multiplicity           Mult            ....    1
 Number of Electrons    NEL             ....  134
 Basis Dimension        Dim             ....  322

ORBITAL ENERGIES
----------------

  NO   OCC          E(Eh)            E(eV)
   0   2.0000     -88.967037     -2420.9162
   1   2.0000     -88.966523     -2420.9022
   2   2.0000     -10.339577      -281.3542
   3   2.0000     -10.330006      -281.0938
   4   2.0000     -10.323077      -280.9052
   5   2.0000     -10.313337      -280.6402
   6   2.0000     -10.310842      -280.5723
   7   2.0000     -10.302770      -280.3526
   8   2.0000     -10.298653      -280.2406
   9   2.0000     -10.293906      -280.1114
  10   2.0000     -10.293701      -280.1058
  11   2.0000     -10.291902      -280.0569
  12   2.0000     -10.290547      -280.0200
  13   2.0000     -10.284836      -279.8646
  14   2.0000     -10.284524      -279.8561
  15   2.0000     -10.281843      -279.7832
  16   2.0000      -8.082528      -219.9368
  17   2.0000      -8.080453      -219.8803
  18   2.0000      -6.041004      -164.3841
  19   2.0000      -6.039052      -164.3310
  20   2.0000      -6.036560      -164.2632
  21   2.0000      -6.035275      -164.2282
  22   2.0000      -6.033498      -164.1798
  23   2.0000      -6.031052      -164.1133
  24   2.0000      -1.012297       -27.5460
  25   2.0000      -0.981607       -26.7109
  26   2.0000      -0.913778       -24.8652
  27   2.0000      -0.908213       -24.7137
  28   2.0000      -0.868728       -23.6393
  29   2.0000      -0.847998       -23.0752
  30   2.0000      -0.839703       -22.8495
  31   2.0000      -0.818772       -22.2799
  32   2.0000      -0.784817       -21.3560
  33   2.0000      -0.776622       -21.1330
  34   2.0000      -0.703478       -19.1426
  35   2.0000      -0.697302       -18.9745
  36   2.0000      -0.684371       -18.6227
  37   2.0000      -0.656666       -17.8688
  38   2.0000      -0.637765       -17.3545
  39   2.0000      -0.625301       -17.0153
  40   2.0000      -0.599194       -16.3049
  41   2.0000      -0.574142       -15.6232
  42   2.0000      -0.571371       -15.5478
  43   2.0000      -0.557297       -15.1648
  44   2.0000      -0.535002       -14.5582
  45   2.0000      -0.526259       -14.3202
  46   2.0000      -0.519193       -14.1280
  47   2.0000      -0.512954       -13.9582
  48   2.0000      -0.506664       -13.7870
  49   2.0000      -0.499821       -13.6008
  50   2.0000      -0.484328       -13.1792
  51   2.0000      -0.481921       -13.1137
  52   2.0000      -0.472588       -12.8598
  53   2.0000      -0.470791       -12.8109
  54   2.0000      -0.460858       -12.5406
  55   2.0000      -0.448286       -12.1985
  56   2.0000      -0.444548       -12.0968
  57   2.0000      -0.440174       -11.9777
  58   2.0000      -0.435616       -11.8537
  59   2.0000      -0.421996       -11.4831
  60   2.0000      -0.414848       -11.2886
  61   2.0000      -0.410116       -11.1598
  62   2.0000      -0.402780       -10.9602
  63   2.0000      -0.350525        -9.5383
  64   2.0000      -0.334152        -9.0927
  65   2.0000      -0.327542        -8.9129
  66   2.0000      -0.297420        -8.0932
  67   0.0000       0.033147         0.9020
  68   0.0000       0.065405         1.7797
  69   0.0000       0.105031         2.8580
  70   0.0000       0.120009         3.2656
  71   0.0000       0.126635         3.4459

MULLIKEN ATOMIC CHARGES
-----------------------
   0 S :    0.124120
   1 C :   -0.103018
   2 C :   -0.153566
   3 C :    0.030045
   4 C :   -0.138235
   5 H :    0.004829
   6 C :    0.118157
   7 H :    0.022232
   8 H :    0.029996
   9 C :   -0.122103
  10 H :    0.033773
  11 H :    0.037309
  12 C :   -0.086111
  13 H :    0.032459
  14 H :    0.049941
  15 H :    0.046302
  16 S :    0.092071
  17 C :   -0.107782
  18 C :   -0.035620
  19 C :   -0.011145
  20 C :   -0.149421
  21 H :    0.029625
  22 C :    0.081381
  23 H :    0.005430
  24 H :    0.036125
  25 C :   -0.104319
  26 H :    0.015694
  27 H :    0.037442
  28 C :   -0.026830
  29 H :    0.045298
  30 H :    0.032156
  31 H :    0.016214
  32 H :    0.058348
  33 H :    0.059201
Sum of atomic charges:    0.0000000

LOEWDIN ATOMIC CHARGES
----------------------
   0 S :    0.453013
   1 C :   -0.230369
   2 C :   -0.060940
   3 C :   -0.073826
   4 C :   -0.211144
   5 H :    0.028110
   6 C :   -0.026871
   7 H :    0.031361
   8 H :    0.025125
   9 C :   -0.054833
  10 H :    0.026052
  11 H :    0.028468
  12 C :   -0.074034
  13 H :    0.027181
  14 H :    0.030208
  15 H :    0.027747
  16 S :    0.365448
  17 C :   -0.164068
  18 C :   -0.070969
  19 C :   -0.055810
  20 C :   -0.168270
  21 H :    0.033065
  22 C :   -0.025468
  23 H :    0.019668
  24 H :    0.036017
  25 C :   -0.046473
  26 H :    0.016302
  27 H :    0.027416
  28 C :   -0.060085
  29 H :    0.033971
  30 H :    0.026458
  31 H :    0.018547
  32 H :    0.041288
  33 H :    0.027715

  Mayer bond orders larger than 0.100000
B(  0-S ,  1-C ) :   1.1594 B(  0-S ,  4-C ) :   1.1852 B(  1-C ,  2-C ) :   1.5815
B(  1-C ,  4-C ) :   0.1002 B(  1-C , 32-H ) :   0.9698 B(  2-C ,  3-C ) :   1.2956
B(  2-C ,  6-C ) :   0.9818 B(  3-C ,  4-C ) :   1.5293 B(  3-C ,  5-H ) :   0.9936
B(  4-C , 20-C ) :   0.9957 B(  6-C ,  7-H ) :   0.9409 B(  6-C ,  8-H ) :   0.9407
B(  6-C ,  9-C ) :   1.0860 B(  9-C , 10-H ) :   0.9503 B(  9-C , 11-H ) :   0.9534
B(  9-C , 12-C ) :   1.0709 B( 12-C , 13-H ) :   0.9736 B( 12-C , 14-H ) :   0.9741
B( 12-C , 15-H ) :   0.9752 B( 16-S , 17-C ) :   1.1293 B( 16-S , 20-C ) :   1.1390
B( 17-C , 18-C ) :   1.6552 B( 17-C , 33-H ) :   0.9683 B( 18-C , 19-C ) :   1.1959
B( 18-C , 21-H ) :   0.9832 B( 19-C , 20-C ) :   1.6538 B( 19-C , 22-C ) :   1.0246
B( 22-C , 23-H ) :   0.9394 B( 22-C , 24-H ) :   0.9384 B( 22-C , 25-C ) :   1.0569
B( 25-C , 26-H ) :   0.9526 B( 25-C , 27-H ) :   0.9562 B( 25-C , 28-C ) :   1.0887
B( 28-C , 29-H ) :   0.9736 B( 28-C , 30-H ) :   0.9744 B( 28-C , 31-H ) :   0.9714

Dispersion correction           -0.014013322
FINAL SINGLE POINT ENERGY     -1339.866088898925

DIPOLE MOMENT
-------------
                                X             Y             Z
Electronic contribution:     -0.96727     -12.85318     -26.93897
Nuclear contribution   :      0.87903      13.28852      27.59148
                        -----------------------------------------
Total Dipole Moment    :     -0.08824       0.43534       0.65251
                        -----------------------------------------
Magnitude (a.u.)       :      0.78935
Magnitude (Debye)      :      2.00637

Rotational constants in cm-1:     0.015137     0.009913     0.007117
Rotational constants in MHz :   453.795668   297.173985   213.349872

                             ****ORCA TERMINATED NORMALLY****
TOTAL RUN TIME: 0 days 0 hours 0 minutes 21 seconds 582 msec
