                         Program Version 4.2.1 -  RELEASE  -
|  1> ! wB97X-D3 SP def2-SVP
|  2> %pal
|  3> nprocs 24
|  4> end
|  5>
|  6> * xyz 0 1
|  7> S 	 -135.334 	 9.73202 	 -3.37079
|  8> C 	 -135.395 	 10.8007 	 -1.99805
|  9> C 	 -135.568 	 10.1373 	 -0.811895
| 10> C 	 -135.884 	 8.7726 	 -1.05498
| 11> C 	 -135.866 	 8.3816 	 -2.39409
| 12> H 	 -136.285 	 8.12226 	 -0.306845
| 13> C 	 -135.695 	 10.7644 	 0.560349
| 14> H 	 -136.684 	 10.5066 	 1.04471
| 15> H 	 -135.563 	 11.8739 	 0.437236
| 16> C 	 -134.639 	 10.4119 	 1.54914
| 17> H 	 -134.434 	 9.35695 	 1.46562
| 18> H 	 -133.735 	 10.9463 	 1.18662
| 19> C 	 -134.927 	 10.8057 	 3.04548
| 20> H 	 -135.828 	 10.225 	 3.22797
| 21> H 	 -134.2 	 10.3863 	 3.76541
| 22> H 	 -135.235 	 11.8222 	 3.18639
| 23> S 	 -135.101 	 6.27435 	 -3.97762
| 24> C 	 -136.159 	 4.89962 	 -4.23448
| 25> C 	 -137.328 	 5.08474 	 -3.56335
| 26> C 	 -137.409 	 6.35873 	 -2.87442
| 27> C 	 -136.276 	 7.13277 	 -3.02637
| 28> H 	 -138.117 	 4.26359 	 -3.52098
| 29> C 	 -138.713 	 6.78456 	 -2.27657
| 30> H 	 -138.688 	 6.80543 	 -1.15705
| 31> H 	 -139.359 	 6.00152 	 -2.5276
| 32> C 	 -139.246 	 8.13386 	 -2.78899
| 33> H 	 -139.092 	 8.25193 	 -3.87468
| 34> H 	 -138.652 	 8.89684 	 -2.38659
| 35> C 	 -140.747 	 8.17996 	 -2.50678
| 36> H 	 -141.326 	 7.50409 	 -3.0656
| 37> H 	 -141.061 	 9.14471 	 -2.71232
| 38> H 	 -140.87 	 7.92309 	 -1.40315
| 39> H 	 -135.019 	 11.8266 	 -1.9878
| 40> H 	 -135.923 	 3.90458 	 -4.6236
| 41> *
| 42>
| 43>                          ****END OF INPUT****

CARTESIAN COORDINATES (ANGSTROEM)
---------------------------------
  S    -135.334000    9.732020   -3.370790
  C    -135.395000   10.800700   -1.998050
  C    -135.568000   10.137300   -0.811895
  C    -135.884000    8.772600   -1.054980
  C    -135.866000    8.381600   -2.394090
  H    -136.285000    8.122260   -0.306845
  C    -135.695000   10.764400    0.560349
  H    -136.684000   10.506600    1.044710
  H    -135.563000   11.873900    0.437236
  C    -134.639000   10.411900    1.549140
  H    -134.434000    9.356950    1.465620
  H    -133.735000   10.946300    1.186620
  C    -134.927000   10.805700    3.045480
  H    -135.828000   10.225000    3.227970
  H    -134.200000   10.386300    3.765410
  H    -135.235000   11.822200    3.186390
  S    -135.101000    6.274350   -3.977620
  C    -136.159000    4.899620   -4.234480
  C    -137.328000    5.084740   -3.563350
  C    -137.409000    6.358730   -2.874420
  C    -136.276000    7.132770   -3.026370
  H    -138.117000    4.263590   -3.520980
  C    -138.713000    6.784560   -2.276570
  H    -138.688000    6.805430   -1.157050
  H    -139.359000    6.001520   -2.527600
  C    -139.246000    8.133860   -2.788990
  H    -139.092000    8.251930   -3.874680
  H    -138.652000    8.896840   -2.386590
  C    -140.747000    8.179960   -2.506780
  H    -141.326000    7.504090   -3.065600
  H    -141.061000    9.144710   -2.712320
  H    -140.870000    7.923090   -1.403150
  H    -135.019000   11.826600   -1.987800
  H    -135.923000    3.904580   -4.623600

 Total Charge           Charge          ....    0
 Multiplicity           Mult            ....    1
 Number of Electrons    NEL             ....  134
 Basis Dimension        Dim             ....  322

ORBITAL ENERGIES
----------------

  NO   OCC          E(Eh)            E(eV)
   0   2.0000     -88.968238     -2420.9488
   1   2.0000     -88.964271     -2420.8409
   2   2.0000     -10.333623      -281.1922
   3   2.0000     -10.325659      -280.9755
   4   2.0000     -10.317133      -280.7435
   5   2.0000     -10.315241      -280.6920
   6   2.0000     -10.301667      -280.3226
   7   2.0000     -10.301034      -280.3054
   8   2.0000     -10.299227      -280.2562
   9   2.0000     -10.298051      -280.2242
  10   2.0000     -10.295658      -280.1591
  11   2.0000     -10.285908      -279.8938
  12   2.0000     -10.284860      -279.8653
  13   2.0000     -10.283320      -279.8234
  14   2.0000     -10.276397      -279.6350
  15   2.0000     -10.270488      -279.4742
  16   2.0000      -8.083171      -219.9543
  17   2.0000      -8.079242      -219.8473
  18   2.0000      -6.041667      -164.4021
  19   2.0000      -6.037858      -164.2985
  20   2.0000      -6.037620      -164.2920
  21   2.0000      -6.033952      -164.1922
  22   2.0000      -6.033626      -164.1833
  23   2.0000      -6.029943      -164.0831
  24   2.0000      -1.010111       -27.4865
  25   2.0000      -0.988459       -26.8973
  26   2.0000      -0.917296       -24.9609
  27   2.0000      -0.911331       -24.7986
  28   2.0000      -0.872617       -23.7451
  29   2.0000      -0.851124       -23.1603
  30   2.0000      -0.846835       -23.0436
  31   2.0000      -0.817113       -22.2348
  32   2.0000      -0.784064       -21.3355
  33   2.0000      -0.770869       -20.9764
  34   2.0000      -0.714316       -19.4375
  35   2.0000      -0.698185       -18.9986
  36   2.0000      -0.691008       -18.8033
  37   2.0000      -0.658700       -17.9241
  38   2.0000      -0.640679       -17.4338
  39   2.0000      -0.625109       -17.0101
  40   2.0000      -0.594540       -16.1782
  41   2.0000      -0.573278       -15.5997
  42   2.0000      -0.565894       -15.3987
  43   2.0000      -0.562046       -15.2941
  44   2.0000      -0.528063       -14.3693
  45   2.0000      -0.523377       -14.2418
  46   2.0000      -0.518555       -14.1106
  47   2.0000      -0.512171       -13.9369
  48   2.0000      -0.505307       -13.7501
  49   2.0000      -0.498672       -13.5696
  50   2.0000      -0.490647       -13.3512
  51   2.0000      -0.487204       -13.2575
  52   2.0000      -0.473368       -12.8810
  53   2.0000      -0.470424       -12.8009
  54   2.0000      -0.460727       -12.5370
  55   2.0000      -0.451955       -12.2983
  56   2.0000      -0.446208       -12.1419
  57   2.0000      -0.435528       -11.8513
  58   2.0000      -0.430900       -11.7254
  59   2.0000      -0.424346       -11.5470
  60   2.0000      -0.418629       -11.3915
  61   2.0000      -0.414155       -11.2697
  62   2.0000      -0.409778       -11.1506
  63   2.0000      -0.348419        -9.4810
  64   2.0000      -0.334704        -9.1077
  65   2.0000      -0.326805        -8.8928
  66   2.0000      -0.298118        -8.1122
  67   0.0000       0.031671         0.8618
  68   0.0000       0.064139         1.7453
  69   0.0000       0.111794         3.0421
  70   0.0000       0.116077         3.1586
  71   0.0000       0.136179         3.7056

MULLIKEN ATOMIC CHARGES
-----------------------
   0 S :    0.117379
   1 C :   -0.116059
   2 C :   -0.081637
   3 C :    0.049192
   4 C :   -0.177115
   5 H :    0.002775
   6 C :    0.034184
   7 H :    0.037259
   8 H :    0.025560
   9 C :   -0.095310
  10 H :    0.024967
  11 H :    0.024925
  12 C :   -0.028262
  13 H :    0.013069
  14 H :    0.051334
  15 H :    0.034292
  16 S :    0.103867
  17 C :   -0.082366
  18 C :   -0.071971
  19 C :   -0.055561
  20 C :   -0.136298
  21 H :    0.045653
  22 C :    0.085449
  23 H :    0.033865
  24 H :   -0.011287
  25 C :   -0.071454
  26 H :    0.031041
  27 H :    0.031258
  28 C :   -0.004108
  29 H :    0.025412
  30 H :    0.016786
  31 H :    0.028293
  32 H :    0.052422
  33 H :    0.062447
Sum of atomic charges:    0.0000000

LOEWDIN ATOMIC CHARGES
----------------------
   0 S :    0.413475
   1 C :   -0.198135
   2 C :   -0.068361
   3 C :   -0.056137
   4 C :   -0.193954
   5 H :    0.026674
   6 C :   -0.037206
   7 H :    0.033516
   8 H :    0.034844
   9 C :   -0.045766
  10 H :    0.019003
  11 H :    0.023045
  12 C :   -0.065592
  13 H :    0.023673
  14 H :    0.035303
  15 H :    0.023177
  16 S :    0.408553
  17 C :   -0.191553
  18 C :   -0.080599
  19 C :   -0.057379
  20 C :   -0.209040
  21 H :    0.042693
  22 C :   -0.031364
  23 H :    0.034503
  24 H :    0.018685
  25 C :   -0.032093
  26 H :    0.027372
  27 H :    0.018483
  28 C :   -0.051456
  29 H :    0.018572
  30 H :    0.016113
  31 H :    0.031215
  32 H :    0.031048
  33 H :    0.038691

  Mayer bond orders larger than 0.100000
B(  0-S ,  1-C ) :   1.1449 B(  0-S ,  4-C ) :   1.1554 B(  1-C ,  2-C ) :   1.6294
B(  1-C ,  4-C ) :   0.1015 B(  1-C , 32-H ) :   0.9548 B(  2-C ,  3-C ) :   1.2326
B(  2-C ,  6-C ) :   1.0310 B(  3-C ,  4-C ) :   1.5823 B(  3-C ,  5-H ) :   0.9999
B(  4-C , 20-C ) :   1.0174 B(  6-C ,  7-H ) :   0.9445 B(  6-C ,  8-H ) :   0.9409
B(  6-C ,  9-C ) :   1.0539 B(  9-C , 10-H ) :   0.9621 B(  9-C , 11-H ) :   0.9529
B(  9-C , 12-C ) :   1.0706 B( 12-C , 13-H ) :   0.9719 B( 12-C , 14-H ) :   0.9744
B( 12-C , 15-H ) :   0.9760 B( 16-S , 17-C ) :   1.1466 B( 16-S , 20-C ) :   1.1370
B( 17-C , 18-C ) :   1.6365 B( 17-C , 33-H ) :   0.9602 B( 18-C , 19-C ) :   1.2466
B( 18-C , 21-H ) :   0.9707 B( 19-C , 20-C ) :   1.6010 B( 19-C , 22-C ) :   1.0498
B( 22-C , 23-H ) :   0.9141 B( 22-C , 24-H ) :   0.9342 B( 22-C , 25-C ) :   1.0660
B( 25-C , 26-H ) :   0.9565 B( 25-C , 27-H ) :   0.9513 B( 25-C , 28-C ) :   1.0856
B( 28-C , 29-H ) :   0.9762 B( 28-C , 30-H ) :   0.9718 B( 28-C , 31-H ) :   0.9723

Dispersion correction           -0.014279458
FINAL SINGLE POINT ENERGY     -1339.874577997440

DIPOLE MOMENT
-------------
                                X             Y             Z
Electronic contribution:     14.25819      -8.27113     -22.02893
Nuclear contribution   :    -14.67608       8.21271      22.57130
                        -----------------------------------------
Total Dipole Moment    :     -0.41789      -0.05843       0.54237
                        -----------------------------------------
Magnitude (a.u.)       :      0.68717
Magnitude (Debye)      :      1.74666

Rotational constants in cm-1:     0.018475     0.008070     0.006987
Rotational constants in MHz :   553.866410   241.933617   209.469857

                             ****ORCA TERMINATED NORMALLY****
TOTAL RUN TIME: 0 days 0 hours 0 minutes 21 seconds 658 msec
