                         Program Version 4.2.1 -  RELEASE  -
|  1> ! wB97X-D3 SP def2-SVP
|  2> %pal
|  3> nprocs 24
|  4> end
|  5>
|  6> * xyz 0 1
|  7> S 	 -51.0755 	 17.7238 	 24.4379
|  8> C 	 -49.3871 	 17.3447 	 24.0216
|  9> C 	 -48.5476 	 17.8406 	 24.978
| 10> C 	 -49.1841 	 18.691 	 25.9677
| 11> C 	 -50.5678 	 18.7404 	 25.7409
| 12> H 	 -48.7247 	 19.2941 	 26.6986
| 13> C 	 -47.0665 	 17.7084 	 24.9271
| 14> H 	 -46.6288 	 18.4506 	 25.6187
| 15> H 	 -46.7139 	 17.9616 	 23.9893
| 16> C 	 -46.593 	 16.3232 	 25.3474
| 17> H 	 -46.9772 	 15.5009 	 24.7893
| 18> H 	 -45.5332 	 16.4383 	 25.1455
| 19> C 	 -46.8548 	 15.932 	 26.82
| 20> H 	 -45.998 	 15.2607 	 27.1482
| 21> H 	 -46.7714 	 16.8294 	 27.5263
| 22> H 	 -47.8644 	 15.498 	 26.8695
| 23> S 	 -51.5739 	 21.2572 	 26.0733
| 24> C 	 -52.6806 	 21.5013 	 27.4057
| 25> C 	 -52.9854 	 20.3485 	 28.0777
| 26> C 	 -52.3086 	 19.1962 	 27.5702
| 27> C 	 -51.5374 	 19.5417 	 26.4757
| 28> H 	 -53.7227 	 20.3326 	 28.8323
| 29> C 	 -52.6124 	 17.8655 	 28.1592
| 30> H 	 -52.4243 	 17.1352 	 27.4034
| 31> H 	 -53.7347 	 17.8727 	 28.3385
| 32> C 	 -52.0772 	 17.4323 	 29.5129
| 33> H 	 -52.6054 	 16.5412 	 29.9066
| 34> H 	 -52.3188 	 18.1561 	 30.2914
| 35> C 	 -50.6178 	 17.1877 	 29.65
| 36> H 	 -50.0702 	 18.1039 	 29.8915
| 37> H 	 -50.2313 	 16.633 	 28.7814
| 38> H 	 -50.4541 	 16.5351 	 30.4739
| 39> H 	 -49.1611 	 16.7872 	 23.1707
| 40> H 	 -53.2031 	 22.4879 	 27.4561
| 41> *
| 42>
| 43>                          ****END OF INPUT****

CARTESIAN COORDINATES (ANGSTROEM)
---------------------------------
  S    -51.075500   17.723800   24.437900
  C    -49.387100   17.344700   24.021600
  C    -48.547600   17.840600   24.978000
  C    -49.184100   18.691000   25.967700
  C    -50.567800   18.740400   25.740900
  H    -48.724700   19.294100   26.698600
  C    -47.066500   17.708400   24.927100
  H    -46.628800   18.450600   25.618700
  H    -46.713900   17.961600   23.989300
  C    -46.593000   16.323200   25.347400
  H    -46.977200   15.500900   24.789300
  H    -45.533200   16.438300   25.145500
  C    -46.854800   15.932000   26.820000
  H    -45.998000   15.260700   27.148200
  H    -46.771400   16.829400   27.526300
  H    -47.864400   15.498000   26.869500
  S    -51.573900   21.257200   26.073300
  C    -52.680600   21.501300   27.405700
  C    -52.985400   20.348500   28.077700
  C    -52.308600   19.196200   27.570200
  C    -51.537400   19.541700   26.475700
  H    -53.722700   20.332600   28.832300
  C    -52.612400   17.865500   28.159200
  H    -52.424300   17.135200   27.403400
  H    -53.734700   17.872700   28.338500
  C    -52.077200   17.432300   29.512900
  H    -52.605400   16.541200   29.906600
  H    -52.318800   18.156100   30.291400
  C    -50.617800   17.187700   29.650000
  H    -50.070200   18.103900   29.891500
  H    -50.231300   16.633000   28.781400
  H    -50.454100   16.535100   30.473900
  H    -49.161100   16.787200   23.170700
  H    -53.203100   22.487900   27.456100

 Total Charge           Charge          ....    0
 Multiplicity           Mult            ....    1
 Number of Electrons    NEL             ....  134
 Basis Dimension        Dim             ....  322

ORBITAL ENERGIES
----------------

  NO   OCC          E(Eh)            E(eV)
   0   2.0000     -88.963894     -2420.8306
   1   2.0000     -88.962591     -2420.7952
   2   2.0000     -10.325072      -280.9595
   3   2.0000     -10.322488      -280.8892
   4   2.0000     -10.317735      -280.7599
   5   2.0000     -10.307585      -280.4836
   6   2.0000     -10.300841      -280.3001
   7   2.0000     -10.297023      -280.1962
   8   2.0000     -10.292518      -280.0737
   9   2.0000     -10.290787      -280.0266
  10   2.0000     -10.288660      -279.9687
  11   2.0000     -10.286286      -279.9041
  12   2.0000     -10.282198      -279.7928
  13   2.0000     -10.281876      -279.7841
  14   2.0000     -10.280107      -279.7359
  15   2.0000     -10.266679      -279.3705
  16   2.0000      -8.078805      -219.8355
  17   2.0000      -8.077275      -219.7938
  18   2.0000      -6.037209      -164.2808
  19   2.0000      -6.035694      -164.2396
  20   2.0000      -6.033419      -164.1777
  21   2.0000      -6.031761      -164.1326
  22   2.0000      -6.029539      -164.0721
  23   2.0000      -6.028177      -164.0350
  24   2.0000      -1.004251       -27.3271
  25   2.0000      -0.981616       -26.7111
  26   2.0000      -0.914843       -24.8941
  27   2.0000      -0.912883       -24.8408
  28   2.0000      -0.865189       -23.5430
  29   2.0000      -0.856424       -23.3045
  30   2.0000      -0.842265       -22.9192
  31   2.0000      -0.811264       -22.0756
  32   2.0000      -0.786288       -21.3960
  33   2.0000      -0.772902       -21.0317
  34   2.0000      -0.703678       -19.1481
  35   2.0000      -0.696333       -18.9482
  36   2.0000      -0.687558       -18.7094
  37   2.0000      -0.661377       -17.9970
  38   2.0000      -0.648500       -17.6466
  39   2.0000      -0.610845       -16.6219
  40   2.0000      -0.598405       -16.2834
  41   2.0000      -0.573771       -15.6131
  42   2.0000      -0.552616       -15.0374
  43   2.0000      -0.550165       -14.9707
  44   2.0000      -0.546720       -14.8770
  45   2.0000      -0.535917       -14.5830
  46   2.0000      -0.522384       -14.2148
  47   2.0000      -0.519772       -14.1437
  48   2.0000      -0.501212       -13.6387
  49   2.0000      -0.497762       -13.5448
  50   2.0000      -0.487275       -13.2594
  51   2.0000      -0.477234       -12.9862
  52   2.0000      -0.468273       -12.7423
  53   2.0000      -0.461665       -12.5626
  54   2.0000      -0.454301       -12.3621
  55   2.0000      -0.444441       -12.0938
  56   2.0000      -0.441866       -12.0238
  57   2.0000      -0.434404       -11.8207
  58   2.0000      -0.432990       -11.7823
  59   2.0000      -0.423426       -11.5220
  60   2.0000      -0.420731       -11.4487
  61   2.0000      -0.410626       -11.1737
  62   2.0000      -0.407412       -11.0862
  63   2.0000      -0.334708        -9.1079
  64   2.0000      -0.325963        -8.8699
  65   2.0000      -0.323561        -8.8045
  66   2.0000      -0.305281        -8.3071
  67   0.0000       0.049143         1.3372
  68   0.0000       0.053184         1.4472
  69   0.0000       0.111298         3.0286
  70   0.0000       0.115525         3.1436
  71   0.0000       0.121092         3.2951

MULLIKEN ATOMIC CHARGES
-----------------------
   0 S :    0.103813
   1 C :   -0.116997
   2 C :   -0.075845
   3 C :    0.070887
   4 C :   -0.182771
   5 H :   -0.000272
   6 C :    0.097138
   7 H :    0.017112
   8 H :    0.011914
   9 C :   -0.067622
  10 H :    0.027042
  11 H :    0.023414
  12 C :   -0.099615
  13 H :    0.049656
  14 H :    0.033341
  15 H :    0.060190
  16 S :    0.112344
  17 C :   -0.112742
  18 C :   -0.007991
  19 C :    0.015792
  20 C :   -0.203847
  21 H :    0.000612
  22 C :    0.073478
  23 H :    0.013827
  24 H :    0.034417
  25 C :   -0.075647
  26 H :    0.026593
  27 H :    0.012388
  28 C :   -0.026201
  29 H :    0.038183
  30 H :    0.032639
  31 H :    0.014369
  32 H :    0.025441
  33 H :    0.074959
Sum of atomic charges:   -0.0000000

LOEWDIN ATOMIC CHARGES
----------------------
   0 S :    0.400443
   1 C :   -0.182125
   2 C :   -0.057553
   3 C :   -0.054838
   4 C :   -0.200817
   5 H :    0.025573
   6 C :   -0.026623
   7 H :    0.032263
   8 H :    0.021552
   9 C :   -0.039508
  10 H :    0.019806
  11 H :    0.022143
  12 C :   -0.075158
  13 H :    0.036370
  14 H :    0.027218
  15 H :    0.030411
  16 S :    0.401372
  17 C :   -0.186504
  18 C :   -0.064001
  19 C :   -0.052519
  20 C :   -0.202685
  21 H :    0.023875
  22 C :   -0.033169
  23 H :    0.024236
  24 H :    0.045748
  25 C :   -0.048643
  26 H :    0.029228
  27 H :    0.022823
  28 C :   -0.066621
  29 H :    0.027827
  30 H :    0.027535
  31 H :    0.022684
  32 H :    0.014556
  33 H :    0.035102

  Mayer bond orders larger than 0.100000
B(  0-S ,  1-C ) :   1.1194 B(  0-S ,  4-C ) :   1.1758 B(  1-C ,  2-C ) :   1.6138
B(  1-C , 32-H ) :   0.9864 B(  2-C ,  3-C ) :   1.2105 B(  2-C ,  6-C ) :   1.0232
B(  3-C ,  4-C ) :   1.5828 B(  3-C ,  5-H ) :   1.0037 B(  4-C , 20-C ) :   0.9909
B(  6-C ,  7-H ) :   0.9391 B(  6-C ,  8-H ) :   0.9385 B(  6-C ,  9-C ) :   1.0757
B(  9-C , 10-H ) :   0.9610 B(  9-C , 11-H ) :   0.9595 B(  9-C , 12-C ) :   1.0615
B( 12-C , 13-H ) :   0.9751 B( 12-C , 14-H ) :   0.9771 B( 12-C , 15-H ) :   0.9750
B( 16-S , 17-C ) :   1.1488 B( 16-S , 20-C ) :   1.1481 B( 17-C , 18-C ) :   1.6199
B( 17-C , 33-H ) :   0.9603 B( 18-C , 19-C ) :   1.2175 B( 18-C , 21-H ) :   0.9960
B( 19-C , 20-C ) :   1.6131 B( 19-C , 22-C ) :   1.0461 B( 22-C , 23-H ) :   0.9289
B( 22-C , 24-H ) :   0.9292 B( 22-C , 25-C ) :   1.0817 B( 25-C , 26-H ) :   0.9533
B( 25-C , 27-H ) :   0.9485 B( 25-C , 28-C ) :   1.0887 B( 28-C , 29-H ) :   0.9746
B( 28-C , 30-H ) :   0.9733 B( 28-C , 31-H ) :   0.9677

Dispersion correction           -0.015277381
FINAL SINGLE POINT ENERGY     -1339.877571435635

DIPOLE MOMENT
-------------
                                X             Y             Z
Electronic contribution:    -13.98860      16.39736     -15.50919
Nuclear contribution   :     14.19656     -16.57966      15.82960
                        -----------------------------------------
Total Dipole Moment    :      0.20795      -0.18230       0.32041
                        -----------------------------------------
Magnitude (a.u.)       :      0.42325
Magnitude (Debye)      :      1.07581

Rotational constants in cm-1:     0.019207     0.009361     0.007578
Rotational constants in MHz :   575.799930   280.641868   227.184481

                             ****ORCA TERMINATED NORMALLY****
TOTAL RUN TIME: 0 days 0 hours 0 minutes 22 seconds 297 msec
