                         Program Version 4.2.1 -  RELEASE  -
|  1> ! wB97X-D3 SP def2-SVP
|  2> %pal
|  3> nprocs 24
|  4> end
|  5>
|  6> * xyz 0 1
|  7> S 	 -45.3757 	 -9.84271 	 -19.8913
|  8> C 	 -45.6586 	 -11.5662 	 -19.9682
|  9> C 	 -45.5659 	 -12.1833 	 -18.7006
| 10> C 	 -45.1475 	 -11.1947 	 -17.767
| 11> C 	 -44.9685 	 -9.92596 	 -18.3003
| 12> H 	 -44.877 	 -11.5704 	 -16.8086
| 13> C 	 -45.469 	 -13.6422 	 -18.3531
| 14> H 	 -46.3523 	 -14.0109 	 -17.7892
| 15> H 	 -44.6208 	 -13.9038 	 -17.6573
| 16> C 	 -45.3434 	 -14.5738 	 -19.521
| 17> H 	 -46.1931 	 -14.5362 	 -20.1799
| 18> H 	 -44.4249 	 -14.356 	 -20.1469
| 19> C 	 -45.2762 	 -16.0662 	 -19.0079
| 20> H 	 -46.2302 	 -16.5167 	 -18.7613
| 21> H 	 -44.9162 	 -16.6799 	 -19.8081
| 22> H 	 -44.6904 	 -16.2046 	 -18.0541
| 23> S 	 -42.8748 	 -8.22448 	 -18.7895
| 24> C 	 -42.2638 	 -7.14894 	 -17.5576
| 25> C 	 -43.1251 	 -7.22405 	 -16.4438
| 26> C 	 -44.1974 	 -8.15558 	 -16.6092
| 27> C 	 -44.2239 	 -8.75709 	 -17.8463
| 28> H 	 -43.0865 	 -6.53578 	 -15.6165
| 29> C 	 -45.2446 	 -8.37462 	 -15.4954
| 30> H 	 -46.1142 	 -8.8271 	 -16.0179
| 31> H 	 -45.6419 	 -7.41132 	 -15.1621
| 32> C 	 -44.8573 	 -9.25609 	 -14.3314
| 33> H 	 -44.0913 	 -8.86802 	 -13.8216
| 34> H 	 -44.5101 	 -10.1837 	 -14.7694
| 35> C 	 -46.0713 	 -9.39175 	 -13.3715
| 36> H 	 -46.8335 	 -10.0085 	 -13.8058
| 37> H 	 -46.42 	 -8.36625 	 -13.1879
| 38> H 	 -45.6933 	 -9.74762 	 -12.3907
| 39> H 	 -45.8916 	 -12.0456 	 -20.9101
| 40> H 	 -41.2874 	 -6.56082 	 -17.6256
| 41> *
| 42>
| 43>                          ****END OF INPUT****

CARTESIAN COORDINATES (ANGSTROEM)
---------------------------------
  S    -45.375700   -9.842710  -19.891300
  C    -45.658600  -11.566200  -19.968200
  C    -45.565900  -12.183300  -18.700600
  C    -45.147500  -11.194700  -17.767000
  C    -44.968500   -9.925960  -18.300300
  H    -44.877000  -11.570400  -16.808600
  C    -45.469000  -13.642200  -18.353100
  H    -46.352300  -14.010900  -17.789200
  H    -44.620800  -13.903800  -17.657300
  C    -45.343400  -14.573800  -19.521000
  H    -46.193100  -14.536200  -20.179900
  H    -44.424900  -14.356000  -20.146900
  C    -45.276200  -16.066200  -19.007900
  H    -46.230200  -16.516700  -18.761300
  H    -44.916200  -16.679900  -19.808100
  H    -44.690400  -16.204600  -18.054100
  S    -42.874800   -8.224480  -18.789500
  C    -42.263800   -7.148940  -17.557600
  C    -43.125100   -7.224050  -16.443800
  C    -44.197400   -8.155580  -16.609200
  C    -44.223900   -8.757090  -17.846300
  H    -43.086500   -6.535780  -15.616500
  C    -45.244600   -8.374620  -15.495400
  H    -46.114200   -8.827100  -16.017900
  H    -45.641900   -7.411320  -15.162100
  C    -44.857300   -9.256090  -14.331400
  H    -44.091300   -8.868020  -13.821600
  H    -44.510100  -10.183700  -14.769400
  C    -46.071300   -9.391750  -13.371500
  H    -46.833500  -10.008500  -13.805800
  H    -46.420000   -8.366250  -13.187900
  H    -45.693300   -9.747620  -12.390700
  H    -45.891600  -12.045600  -20.910100
  H    -41.287400   -6.560820  -17.625600

 Total Charge           Charge          ....    0
 Multiplicity           Mult            ....    1
 Number of Electrons    NEL             ....  134
 Basis Dimension        Dim             ....  322

ORBITAL ENERGIES
----------------

  NO   OCC          E(Eh)            E(eV)
   0   2.0000     -88.966193     -2420.8932
   1   2.0000     -88.965539     -2420.8754
   2   2.0000     -10.326578      -281.0005
   3   2.0000     -10.322647      -280.8935
   4   2.0000     -10.321790      -280.8702
   5   2.0000     -10.314854      -280.6814
   6   2.0000     -10.303593      -280.3750
   7   2.0000     -10.298828      -280.2453
   8   2.0000     -10.298153      -280.2270
   9   2.0000     -10.295163      -280.1456
  10   2.0000     -10.291837      -280.0551
  11   2.0000     -10.290798      -280.0269
  12   2.0000     -10.287839      -279.9463
  13   2.0000     -10.282237      -279.7939
  14   2.0000     -10.279904      -279.7304
  15   2.0000     -10.273308      -279.5509
  16   2.0000      -8.083298      -219.9577
  17   2.0000      -8.080506      -219.8818
  18   2.0000      -6.041524      -164.3982
  19   2.0000      -6.038999      -164.3295
  20   2.0000      -6.037341      -164.2844
  21   2.0000      -6.034787      -164.2149
  22   2.0000      -6.034323      -164.2023
  23   2.0000      -6.031418      -164.1232
  24   2.0000      -1.018969       -27.7275
  25   2.0000      -0.987191       -26.8628
  26   2.0000      -0.918954       -25.0060
  27   2.0000      -0.910170       -24.7670
  28   2.0000      -0.868875       -23.6433
  29   2.0000      -0.851907       -23.1816
  30   2.0000      -0.844848       -22.9895
  31   2.0000      -0.807500       -21.9732
  32   2.0000      -0.782063       -21.2810
  33   2.0000      -0.769062       -20.9272
  34   2.0000      -0.708721       -19.2853
  35   2.0000      -0.704499       -19.1704
  36   2.0000      -0.688266       -18.7287
  37   2.0000      -0.665058       -18.0972
  38   2.0000      -0.639594       -17.4042
  39   2.0000      -0.626006       -17.0345
  40   2.0000      -0.594499       -16.1771
  41   2.0000      -0.572227       -15.5711
  42   2.0000      -0.571195       -15.5430
  43   2.0000      -0.563850       -15.3431
  44   2.0000      -0.526265       -14.3204
  45   2.0000      -0.524920       -14.2838
  46   2.0000      -0.516609       -14.0576
  47   2.0000      -0.514527       -14.0010
  48   2.0000      -0.505737       -13.7618
  49   2.0000      -0.489894       -13.3307
  50   2.0000      -0.488513       -13.2931
  51   2.0000      -0.477812       -13.0019
  52   2.0000      -0.474093       -12.9007
  53   2.0000      -0.462122       -12.5750
  54   2.0000      -0.455262       -12.3883
  55   2.0000      -0.452155       -12.3038
  56   2.0000      -0.443784       -12.0760
  57   2.0000      -0.437400       -11.9023
  58   2.0000      -0.436929       -11.8894
  59   2.0000      -0.426622       -11.6090
  60   2.0000      -0.422373       -11.4934
  61   2.0000      -0.420673       -11.4471
  62   2.0000      -0.412824       -11.2335
  63   2.0000      -0.346419        -9.4265
  64   2.0000      -0.333180        -9.0663
  65   2.0000      -0.328537        -8.9399
  66   2.0000      -0.290628        -7.9084
  67   0.0000       0.032060         0.8724
  68   0.0000       0.069531         1.8920
  69   0.0000       0.115875         3.1531
  70   0.0000       0.117014         3.1841
  71   0.0000       0.134689         3.6651

MULLIKEN ATOMIC CHARGES
-----------------------
   0 S :    0.124645
   1 C :   -0.146840
   2 C :   -0.038774
   3 C :    0.025332
   4 C :   -0.131290
   5 H :   -0.010682
   6 C :    0.010153
   7 H :    0.039386
   8 H :    0.043887
   9 C :   -0.103328
  10 H :    0.032309
  11 H :    0.047571
  12 C :   -0.061354
  13 H :    0.026938
  14 H :    0.032107
  15 H :    0.034705
  16 S :    0.112141
  17 C :   -0.129519
  18 C :   -0.018422
  19 C :   -0.056793
  20 C :   -0.121138
  21 H :    0.016671
  22 C :    0.017805
  23 H :    0.024637
  24 H :    0.018811
  25 C :    0.000695
  26 H :   -0.008453
  27 H :    0.017037
  28 C :   -0.040311
  29 H :    0.041519
  30 H :    0.024987
  31 H :    0.036012
  32 H :    0.046350
  33 H :    0.093207
Sum of atomic charges:    0.0000000

LOEWDIN ATOMIC CHARGES
----------------------
   0 S :    0.464744
   1 C :   -0.202825
   2 C :   -0.059023
   3 C :   -0.059954
   4 C :   -0.224894
   5 H :    0.022256
   6 C :   -0.043728
   7 H :    0.038377
   8 H :    0.039115
   9 C :   -0.042028
  10 H :    0.021340
  11 H :    0.030586
  12 C :   -0.069032
  13 H :    0.022371
  14 H :    0.024306
  15 H :    0.028877
  16 S :    0.421163
  17 C :   -0.203636
  18 C :   -0.072239
  19 C :   -0.060798
  20 C :   -0.219648
  21 H :    0.027650
  22 C :   -0.032500
  23 H :    0.031948
  24 H :    0.025734
  25 C :   -0.028118
  26 H :    0.004308
  27 H :    0.021594
  28 C :   -0.055593
  29 H :    0.023847
  30 H :    0.026118
  31 H :    0.028973
  32 H :    0.020903
  33 H :    0.049810

  Mayer bond orders larger than 0.100000
B(  0-S ,  1-C ) :   1.1612 B(  0-S ,  4-C ) :   1.1946 B(  1-C ,  2-C ) :   1.5666
B(  1-C , 32-H ) :   0.9679 B(  2-C ,  3-C ) :   1.2990 B(  2-C ,  6-C ) :   1.0166
B(  3-C ,  4-C ) :   1.5116 B(  3-C ,  5-H ) :   1.0062 B(  4-C , 20-C ) :   0.9984
B(  6-C ,  7-H ) :   0.9256 B(  6-C ,  8-H ) :   0.9501 B(  6-C ,  9-C ) :   1.0886
B(  9-C , 10-H ) :   0.9476 B(  9-C , 11-H ) :   0.9572 B(  9-C , 12-C ) :   1.0731
B( 12-C , 13-H ) :   0.9756 B( 12-C , 14-H ) :   0.9743 B( 12-C , 15-H ) :   0.9762
B( 16-S , 17-C ) :   1.1722 B( 16-S , 20-C ) :   1.1404 B( 17-C , 18-C ) :   1.5585
B( 17-C , 20-C ) :   0.1005 B( 17-C , 33-H ) :   0.9605 B( 18-C , 19-C ) :   1.2772
B( 18-C , 21-H ) :   0.9904 B( 19-C , 20-C ) :   1.5982 B( 19-C , 22-C ) :   1.0367
B( 22-C , 23-H ) :   0.9390 B( 22-C , 24-H ) :   0.9377 B( 22-C , 25-C ) :   1.0646
B( 25-C , 26-H ) :   0.9498 B( 25-C , 27-H ) :   0.9496 B( 25-C , 28-C ) :   1.0810
B( 28-C , 29-H ) :   0.9785 B( 28-C , 30-H ) :   0.9725 B( 28-C , 31-H ) :   0.9756

Dispersion correction           -0.013647634
FINAL SINGLE POINT ENERGY     -1339.868806682018

DIPOLE MOMENT
-------------
                                X             Y             Z
Electronic contribution:      7.58697      20.73623     -17.10017
Nuclear contribution   :     -7.54051     -21.11961      17.51247
                        -----------------------------------------
Total Dipole Moment    :      0.04646      -0.38338       0.41230
                        -----------------------------------------
Magnitude (a.u.)       :      0.56492
Magnitude (Debye)      :      1.43591

Rotational constants in cm-1:     0.018455     0.008148     0.006323
Rotational constants in MHz :   553.252246   244.257798   189.564271

                             ****ORCA TERMINATED NORMALLY****
TOTAL RUN TIME: 0 days 0 hours 0 minutes 21 seconds 233 msec
