                         Program Version 4.2.1 -  RELEASE  -
|  1> ! wB97X-D3 SP def2-SVP
|  2> %pal
|  3> nprocs 24
|  4> end
|  5>
|  6> * xyz 0 1
|  7> S 	 -104.175 	 1.18307 	 -113.288
|  8> C 	 -104.004 	 2.41177 	 -114.531
|  9> C 	 -104.986 	 2.35393 	 -115.501
| 10> C 	 -105.995 	 1.47071 	 -115.213
| 11> C 	 -105.718 	 0.691026 	 -114.073
| 12> H 	 -106.886 	 1.29798 	 -115.66
| 13> C 	 -105.084 	 3.46021 	 -116.549
| 14> H 	 -105.603 	 2.96562 	 -117.388
| 15> H 	 -104.094 	 3.73949 	 -116.955
| 16> C 	 -105.726 	 4.76087 	 -116.032
| 17> H 	 -105.375 	 5.06383 	 -114.961
| 18> H 	 -105.474 	 5.45982 	 -116.748
| 19> C 	 -107.197 	 4.72013 	 -115.884
| 20> H 	 -107.741 	 4.53518 	 -116.815
| 21> H 	 -107.612 	 3.91876 	 -115.228
| 22> H 	 -107.687 	 5.54007 	 -115.253
| 23> S 	 -105.743 	 -1.99314 	 -113.609
| 24> C 	 -107.215 	 -2.726 	 -112.963
| 25> C 	 -108.281 	 -1.85416 	 -112.921
| 26> C 	 -107.916 	 -0.557824 	 -113.446
| 27> C 	 -106.556 	 -0.452512 	 -113.758
| 28> H 	 -109.211 	 -2.18181 	 -112.482
| 29> C 	 -108.841 	 0.634272 	 -113.456
| 30> H 	 -108.279 	 1.60334 	 -113.342
| 31> H 	 -109.385 	 0.523099 	 -112.482
| 32> C 	 -109.771 	 0.72485 	 -114.697
| 33> H 	 -109.205 	 0.695468 	 -115.629
| 34> H 	 -110.207 	 1.70344 	 -114.743
| 35> C 	 -110.881 	 -0.338813 	 -114.654
| 36> H 	 -111.459 	 -0.460048 	 -113.714
| 37> H 	 -110.533 	 -1.33444 	 -115.035
| 38> H 	 -111.647 	 -0.104616 	 -115.442
| 39> H 	 -103.247 	 3.12026 	 -114.523
| 40> H 	 -107.319 	 -3.69316 	 -112.481
| 41> *
| 42>
| 43>                          ****END OF INPUT****

CARTESIAN COORDINATES (ANGSTROEM)
---------------------------------
  S    -104.175000    1.183070  -113.288000
  C    -104.004000    2.411770  -114.531000
  C    -104.986000    2.353930  -115.501000
  C    -105.995000    1.470710  -115.213000
  C    -105.718000    0.691026  -114.073000
  H    -106.886000    1.297980  -115.660000
  C    -105.084000    3.460210  -116.549000
  H    -105.603000    2.965620  -117.388000
  H    -104.094000    3.739490  -116.955000
  C    -105.726000    4.760870  -116.032000
  H    -105.375000    5.063830  -114.961000
  H    -105.474000    5.459820  -116.748000
  C    -107.197000    4.720130  -115.884000
  H    -107.741000    4.535180  -116.815000
  H    -107.612000    3.918760  -115.228000
  H    -107.687000    5.540070  -115.253000
  S    -105.743000   -1.993140  -113.609000
  C    -107.215000   -2.726000  -112.963000
  C    -108.281000   -1.854160  -112.921000
  C    -107.916000   -0.557824  -113.446000
  C    -106.556000   -0.452512  -113.758000
  H    -109.211000   -2.181810  -112.482000
  C    -108.841000    0.634272  -113.456000
  H    -108.279000    1.603340  -113.342000
  H    -109.385000    0.523099  -112.482000
  C    -109.771000    0.724850  -114.697000
  H    -109.205000    0.695468  -115.629000
  H    -110.207000    1.703440  -114.743000
  C    -110.881000   -0.338813  -114.654000
  H    -111.459000   -0.460048  -113.714000
  H    -110.533000   -1.334440  -115.035000
  H    -111.647000   -0.104616  -115.442000
  H    -103.247000    3.120260  -114.523000
  H    -107.319000   -3.693160  -112.481000

 Total Charge           Charge          ....    0
 Multiplicity           Mult            ....    1
 Number of Electrons    NEL             ....  134
 Basis Dimension        Dim             ....  322

ORBITAL ENERGIES
----------------

  NO   OCC          E(Eh)            E(eV)
   0   2.0000     -88.974069     -2421.1075
   1   2.0000     -88.962690     -2420.7979
   2   2.0000     -10.330897      -281.1180
   3   2.0000     -10.323163      -280.9076
   4   2.0000     -10.314010      -280.6585
   5   2.0000     -10.310360      -280.5592
   6   2.0000     -10.302285      -280.3394
   7   2.0000     -10.296681      -280.1869
   8   2.0000     -10.295828      -280.1637
   9   2.0000     -10.294889      -280.1382
  10   2.0000     -10.294120      -280.1172
  11   2.0000     -10.289935      -280.0034
  12   2.0000     -10.289735      -279.9979
  13   2.0000     -10.286339      -279.9055
  14   2.0000     -10.285603      -279.8855
  15   2.0000     -10.281424      -279.7718
  16   2.0000      -8.087382      -220.0689
  17   2.0000      -8.077284      -219.7941
  18   2.0000      -6.045740      -164.5129
  19   2.0000      -6.042127      -164.4146
  20   2.0000      -6.038361      -164.3122
  21   2.0000      -6.035891      -164.2449
  22   2.0000      -6.031825      -164.1343
  23   2.0000      -6.027938      -164.0285
  24   2.0000      -1.003184       -27.2980
  25   2.0000      -0.981057       -26.6959
  26   2.0000      -0.914190       -24.8764
  27   2.0000      -0.903748       -24.5922
  28   2.0000      -0.869916       -23.6716
  29   2.0000      -0.856205       -23.2985
  30   2.0000      -0.843060       -22.9408
  31   2.0000      -0.815902       -22.2018
  32   2.0000      -0.781175       -21.2569
  33   2.0000      -0.766015       -20.8443
  34   2.0000      -0.711221       -19.3533
  35   2.0000      -0.702578       -19.1181
  36   2.0000      -0.692705       -18.8495
  37   2.0000      -0.662900       -18.0384
  38   2.0000      -0.648558       -17.6482
  39   2.0000      -0.614602       -16.7242
  40   2.0000      -0.586693       -15.9647
  41   2.0000      -0.576348       -15.6832
  42   2.0000      -0.550232       -14.9726
  43   2.0000      -0.543652       -14.7935
  44   2.0000      -0.540035       -14.6951
  45   2.0000      -0.538710       -14.6590
  46   2.0000      -0.525284       -14.2937
  47   2.0000      -0.512792       -13.9538
  48   2.0000      -0.506125       -13.7724
  49   2.0000      -0.492513       -13.4020
  50   2.0000      -0.486332       -13.2338
  51   2.0000      -0.482858       -13.1392
  52   2.0000      -0.471442       -12.8286
  53   2.0000      -0.463160       -12.6032
  54   2.0000      -0.455287       -12.3890
  55   2.0000      -0.444928       -12.1071
  56   2.0000      -0.441195       -12.0055
  57   2.0000      -0.440367       -11.9830
  58   2.0000      -0.434483       -11.8229
  59   2.0000      -0.422979       -11.5098
  60   2.0000      -0.422043       -11.4844
  61   2.0000      -0.408817       -11.1245
  62   2.0000      -0.408000       -11.1023
  63   2.0000      -0.346608        -9.4317
  64   2.0000      -0.334416        -9.0999
  65   2.0000      -0.327996        -8.9252
  66   2.0000      -0.285511        -7.7691
  67   0.0000       0.025771         0.7013
  68   0.0000       0.065228         1.7749
  69   0.0000       0.112415         3.0590
  70   0.0000       0.119849         3.2613
  71   0.0000       0.129570         3.5258

MULLIKEN ATOMIC CHARGES
-----------------------
   0 S :    0.129780
   1 C :   -0.102146
   2 C :   -0.030075
   3 C :    0.066448
   4 C :   -0.150127
   5 H :   -0.052849
   6 C :    0.033846
   7 H :    0.029452
   8 H :    0.026741
   9 C :   -0.002946
  10 H :    0.045223
  11 H :    0.020614
  12 C :   -0.098448
  13 H :    0.027226
  14 H :    0.020342
  15 H :    0.039136
  16 S :    0.105118
  17 C :   -0.095073
  18 C :   -0.033702
  19 C :   -0.023711
  20 C :   -0.179338
  21 H :    0.019075
  22 C :   -0.001943
  23 H :    0.042692
  24 H :    0.034474
  25 C :   -0.026747
  26 H :    0.033159
  27 H :    0.023086
  28 C :   -0.091273
  29 H :    0.043191
  30 H :    0.044392
  31 H :    0.030139
  32 H :    0.019924
  33 H :    0.054322
Sum of atomic charges:    0.0000000

LOEWDIN ATOMIC CHARGES
----------------------
   0 S :    0.396767
   1 C :   -0.176001
   2 C :   -0.065598
   3 C :   -0.039094
   4 C :   -0.182373
   5 H :    0.012356
   6 C :   -0.029896
   7 H :    0.032403
   8 H :    0.031772
   9 C :   -0.039183
  10 H :    0.042317
  11 H :    0.016638
  12 C :   -0.087335
  13 H :    0.021428
  14 H :    0.026266
  15 H :    0.036452
  16 S :    0.394943
  17 C :   -0.186005
  18 C :   -0.068580
  19 C :   -0.060436
  20 C :   -0.197616
  21 H :    0.032926
  22 C :   -0.041042
  23 H :    0.034341
  24 H :    0.035134
  25 C :   -0.039085
  26 H :    0.025723
  27 H :    0.021369
  28 C :   -0.079731
  29 H :    0.027700
  30 H :    0.030883
  31 H :    0.030058
  32 H :    0.011767
  33 H :    0.030731

  Mayer bond orders larger than 0.100000
B(  0-S ,  1-C ) :   1.1487 B(  0-S ,  4-C ) :   1.1461 B(  1-C ,  2-C ) :   1.5681
B(  1-C ,  4-C ) :   0.1085 B(  1-C , 32-H ) :   0.9768 B(  2-C ,  3-C ) :   1.2632
B(  2-C ,  6-C ) :   1.0329 B(  3-C ,  4-C ) :   1.5203 B(  3-C ,  5-H ) :   1.0156
B(  4-C , 20-C ) :   1.0704 B(  6-C ,  7-H ) :   0.9408 B(  6-C ,  8-H ) :   0.9410
B(  6-C ,  9-C ) :   1.0569 B(  9-C , 10-H ) :   0.9527 B(  9-C , 11-H ) :   0.9527
B(  9-C , 12-C ) :   1.0865 B( 12-C , 13-H ) :   0.9717 B( 12-C , 14-H ) :   0.9666
B( 12-C , 15-H ) :   0.9686 B( 16-S , 17-C ) :   1.1382 B( 16-S , 20-C ) :   1.1322
B( 17-C , 18-C ) :   1.6447 B( 17-C , 33-H ) :   0.9616 B( 18-C , 19-C ) :   1.2199
B( 18-C , 21-H ) :   0.9899 B( 19-C , 20-C ) :   1.6046 B( 19-C , 22-C ) :   1.0325
B( 22-C , 23-H ) :   0.9373 B( 22-C , 24-H ) :   0.9447 B( 22-C , 25-C ) :   1.0635
B( 25-C , 26-H ) :   0.9490 B( 25-C , 27-H ) :   0.9560 B( 25-C , 28-C ) :   1.0762
B( 28-C , 29-H ) :   0.9766 B( 28-C , 30-H ) :   0.9729 B( 28-C , 31-H ) :   0.9712

Dispersion correction           -0.015653461
FINAL SINGLE POINT ENERGY     -1339.860937788140

DIPOLE MOMENT
-------------
                                X             Y             Z
Electronic contribution:     21.34219     -17.15713      10.74067
Nuclear contribution   :    -21.80033      17.61530     -10.90458
                        -----------------------------------------
Total Dipole Moment    :     -0.45814       0.45817      -0.16391
                        -----------------------------------------
Magnitude (a.u.)       :      0.66834
Magnitude (Debye)      :      1.69879

Rotational constants in cm-1:     0.018224     0.010104     0.007002
Rotational constants in MHz :   546.335546   302.900226   209.924497

                             ****ORCA TERMINATED NORMALLY****
TOTAL RUN TIME: 0 days 0 hours 0 minutes 22 seconds 656 msec
