                         Program Version 4.2.1 -  RELEASE  -
|  1> ! wB97X-D3 SP def2-SVP
|  2> %pal
|  3> nprocs 24
|  4> end
|  5>
|  6> * xyz 0 1
|  7> S 	 -92.9811 	 -32.7909 	 -65.4004
|  8> C 	 -94.6807 	 -32.717 	 -65.2862
|  9> C 	 -95.2133 	 -31.6606 	 -65.9923
| 10> C 	 -94.1923 	 -30.7398 	 -66.5272
| 11> C 	 -92.9374 	 -31.1912 	 -66.2081
| 12> H 	 -94.3803 	 -29.7934 	 -67.0674
| 13> C 	 -96.6391 	 -31.4172 	 -66.2209
| 14> H 	 -96.829 	 -30.4198 	 -66.5281
| 15> H 	 -97.2332 	 -31.4333 	 -65.3213
| 16> C 	 -97.254 	 -32.4972 	 -67.0824
| 17> H 	 -97.2879 	 -33.4858 	 -66.6317
| 18> H 	 -98.352 	 -32.2196 	 -67.1658
| 19> C 	 -96.6651 	 -32.5896 	 -68.5288
| 20> H 	 -95.6482 	 -32.9756 	 -68.4549
| 21> H 	 -97.1898 	 -33.2341 	 -69.2155
| 22> H 	 -96.6974 	 -31.5543 	 -68.9763
| 23> S 	 -91.156 	 -29.263 	 -65.2701
| 24> C 	 -89.7047 	 -28.9331 	 -66.2011
| 25> C 	 -89.7024 	 -29.6748 	 -67.3532
| 26> C 	 -90.8238 	 -30.5223 	 -67.4842
| 27> C 	 -91.6605 	 -30.5197 	 -66.3508
| 28> H 	 -88.8296 	 -29.6655 	 -68.068
| 29> C 	 -91.0651 	 -31.5677 	 -68.6181
| 30> H 	 -92.0446 	 -32.025 	 -68.4354
| 31> H 	 -90.2341 	 -32.3668 	 -68.6252
| 32> C 	 -91.1535 	 -30.9552 	 -69.985
| 33> H 	 -90.2766 	 -30.3749 	 -70.2136
| 34> H 	 -91.903 	 -30.1583 	 -69.9839
| 35> C 	 -91.417 	 -31.952 	 -71.1491
| 36> H 	 -92.0559 	 -32.7544 	 -70.7962
| 37> H 	 -90.4713 	 -32.4521 	 -71.4002
| 38> H 	 -91.7889 	 -31.3483 	 -71.9975
| 39> H 	 -95.3217 	 -33.5753 	 -65.0762
| 40> H 	 -88.9405 	 -28.2221 	 -65.9016
| 41> *
| 42>
| 43>                          ****END OF INPUT****

CARTESIAN COORDINATES (ANGSTROEM)
---------------------------------
  S    -92.981100  -32.790900  -65.400400
  C    -94.680700  -32.717000  -65.286200
  C    -95.213300  -31.660600  -65.992300
  C    -94.192300  -30.739800  -66.527200
  C    -92.937400  -31.191200  -66.208100
  H    -94.380300  -29.793400  -67.067400
  C    -96.639100  -31.417200  -66.220900
  H    -96.829000  -30.419800  -66.528100
  H    -97.233200  -31.433300  -65.321300
  C    -97.254000  -32.497200  -67.082400
  H    -97.287900  -33.485800  -66.631700
  H    -98.352000  -32.219600  -67.165800
  C    -96.665100  -32.589600  -68.528800
  H    -95.648200  -32.975600  -68.454900
  H    -97.189800  -33.234100  -69.215500
  H    -96.697400  -31.554300  -68.976300
  S    -91.156000  -29.263000  -65.270100
  C    -89.704700  -28.933100  -66.201100
  C    -89.702400  -29.674800  -67.353200
  C    -90.823800  -30.522300  -67.484200
  C    -91.660500  -30.519700  -66.350800
  H    -88.829600  -29.665500  -68.068000
  C    -91.065100  -31.567700  -68.618100
  H    -92.044600  -32.025000  -68.435400
  H    -90.234100  -32.366800  -68.625200
  C    -91.153500  -30.955200  -69.985000
  H    -90.276600  -30.374900  -70.213600
  H    -91.903000  -30.158300  -69.983900
  C    -91.417000  -31.952000  -71.149100
  H    -92.055900  -32.754400  -70.796200
  H    -90.471300  -32.452100  -71.400200
  H    -91.788900  -31.348300  -71.997500
  H    -95.321700  -33.575300  -65.076200
  H    -88.940500  -28.222100  -65.901600

 Total Charge           Charge          ....    0
 Multiplicity           Mult            ....    1
 Number of Electrons    NEL             ....  134
 Basis Dimension        Dim             ....  322

ORBITAL ENERGIES
----------------

  NO   OCC          E(Eh)            E(eV)
   0   2.0000     -88.965716     -2420.8802
   1   2.0000     -88.963949     -2420.8321
   2   2.0000     -10.330156      -281.0978
   3   2.0000     -10.322264      -280.8831
   4   2.0000     -10.318951      -280.7929
   5   2.0000     -10.309237      -280.5286
   6   2.0000     -10.303424      -280.3704
   7   2.0000     -10.302308      -280.3400
   8   2.0000     -10.299483      -280.2632
   9   2.0000     -10.297275      -280.2031
  10   2.0000     -10.294480      -280.1271
  11   2.0000     -10.291652      -280.0501
  12   2.0000     -10.283104      -279.8175
  13   2.0000     -10.279457      -279.7183
  14   2.0000     -10.279373      -279.7160
  15   2.0000     -10.277997      -279.6785
  16   2.0000      -8.080582      -219.8838
  17   2.0000      -8.078907      -219.8382
  18   2.0000      -6.039028      -164.3303
  19   2.0000      -6.037428      -164.2868
  20   2.0000      -6.034958      -164.2196
  21   2.0000      -6.033435      -164.1781
  22   2.0000      -6.031504      -164.1256
  23   2.0000      -6.029578      -164.0732
  24   2.0000      -1.006358       -27.3844
  25   2.0000      -0.985523       -26.8174
  26   2.0000      -0.916993       -24.9527
  27   2.0000      -0.905085       -24.6286
  28   2.0000      -0.870523       -23.6881
  29   2.0000      -0.844747       -22.9867
  30   2.0000      -0.843475       -22.9521
  31   2.0000      -0.815043       -22.1785
  32   2.0000      -0.782095       -21.2819
  33   2.0000      -0.768318       -20.9070
  34   2.0000      -0.704365       -19.1668
  35   2.0000      -0.699439       -19.0327
  36   2.0000      -0.693468       -18.8702
  37   2.0000      -0.649818       -17.6825
  38   2.0000      -0.641807       -17.4644
  39   2.0000      -0.612305       -16.6617
  40   2.0000      -0.597522       -16.2594
  41   2.0000      -0.577461       -15.7135
  42   2.0000      -0.559718       -15.2307
  43   2.0000      -0.551904       -15.0181
  44   2.0000      -0.537431       -14.6242
  45   2.0000      -0.527267       -14.3477
  46   2.0000      -0.513716       -13.9789
  47   2.0000      -0.510176       -13.8826
  48   2.0000      -0.507817       -13.8184
  49   2.0000      -0.496963       -13.5230
  50   2.0000      -0.487354       -13.2616
  51   2.0000      -0.473237       -12.8774
  52   2.0000      -0.471756       -12.8371
  53   2.0000      -0.464710       -12.6454
  54   2.0000      -0.460381       -12.5276
  55   2.0000      -0.446321       -12.1450
  56   2.0000      -0.442288       -12.0353
  57   2.0000      -0.440796       -11.9947
  58   2.0000      -0.435876       -11.8608
  59   2.0000      -0.419303       -11.4098
  60   2.0000      -0.414639       -11.2829
  61   2.0000      -0.410897       -11.1811
  62   2.0000      -0.409280       -11.1371
  63   2.0000      -0.340804        -9.2738
  64   2.0000      -0.332389        -9.0448
  65   2.0000      -0.314937        -8.5699
  66   2.0000      -0.309788        -8.4298
  67   0.0000       0.046279         1.2593
  68   0.0000       0.048231         1.3124
  69   0.0000       0.110703         3.0124
  70   0.0000       0.121069         3.2945
  71   0.0000       0.129023         3.5109

MULLIKEN ATOMIC CHARGES
-----------------------
   0 S :    0.113143
   1 C :   -0.093847
   2 C :   -0.139207
   3 C :    0.054539
   4 C :   -0.214194
   5 H :    0.033171
   6 C :    0.121186
   7 H :    0.004047
   8 H :    0.023967
   9 C :   -0.118173
  10 H :    0.031852
  11 H :    0.029031
  12 C :   -0.060181
  13 H :    0.046452
  14 H :    0.032856
  15 H :    0.033653
  16 S :    0.120558
  17 C :   -0.106506
  18 C :   -0.033911
  19 C :   -0.031027
  20 C :   -0.145957
  21 H :    0.040862
  22 C :    0.062691
  23 H :    0.033707
  24 H :    0.047746
  25 C :   -0.114732
  26 H :    0.013513
  27 H :    0.017586
  28 C :   -0.025685
  29 H :    0.028788
  30 H :    0.029623
  31 H :    0.047672
  32 H :    0.054173
  33 H :    0.062602
Sum of atomic charges:   -0.0000000

LOEWDIN ATOMIC CHARGES
----------------------
   0 S :    0.405945
   1 C :   -0.214243
   2 C :   -0.061671
   3 C :   -0.052634
   4 C :   -0.182181
   5 H :    0.041914
   6 C :   -0.039165
   7 H :    0.026128
   8 H :    0.037289
   9 C :   -0.040914
  10 H :    0.019924
  11 H :    0.026858
  12 C :   -0.069889
  13 H :    0.026021
  14 H :    0.022255
  15 H :    0.029826
  16 S :    0.419186
  17 C :   -0.182771
  18 C :   -0.081636
  19 C :   -0.053106
  20 C :   -0.221327
  21 H :    0.041984
  22 C :   -0.033667
  23 H :    0.029072
  24 H :    0.037656
  25 C :   -0.051479
  26 H :    0.015586
  27 H :    0.020912
  28 C :   -0.062790
  29 H :    0.023744
  30 H :    0.025776
  31 H :    0.033564
  32 H :    0.031323
  33 H :    0.032509

  Mayer bond orders larger than 0.100000
B(  0-S ,  1-C ) :   1.1366 B(  0-S ,  4-C ) :   1.1414 B(  1-C ,  2-C ) :   1.6387
B(  1-C , 32-H ) :   0.9574 B(  2-C ,  3-C ) :   1.1974 B(  2-C ,  6-C ) :   1.0386
B(  3-C ,  4-C ) :   1.6177 B(  3-C ,  5-H ) :   0.9916 B(  4-C , 20-C ) :   1.0015
B(  6-C ,  7-H ) :   0.9366 B(  6-C ,  8-H ) :   0.9270 B(  6-C ,  9-C ) :   1.0719
B(  9-C , 10-H ) :   0.9595 B(  9-C , 11-H ) :   0.9541 B(  9-C , 12-C ) :   1.0663
B( 12-C , 13-H ) :   0.9739 B( 12-C , 14-H ) :   0.9766 B( 12-C , 15-H ) :   0.9762
B( 16-S , 17-C ) :   1.1696 B( 16-S , 20-C ) :   1.1537 B( 17-C , 18-C ) :   1.5834
B( 17-C , 20-C ) :   0.1049 B( 17-C , 33-H ) :   0.9686 B( 18-C , 19-C ) :   1.2736
B( 18-C , 21-H ) :   0.9799 B( 19-C , 20-C ) :   1.5720 B( 19-C , 22-C ) :   1.0368
B( 22-C , 23-H ) :   0.9237 B( 22-C , 24-H ) :   0.9442 B( 22-C , 25-C ) :   1.0620
B( 25-C , 26-H ) :   0.9558 B( 25-C , 27-H ) :   0.9552 B( 25-C , 28-C ) :   1.0766
B( 28-C , 29-H ) :   0.9757 B( 28-C , 30-H ) :   0.9742 B( 28-C , 31-H ) :   0.9753

Dispersion correction           -0.014877846
FINAL SINGLE POINT ENERGY     -1339.884260414380

DIPOLE MOMENT
-------------
                                X             Y             Z
Electronic contribution:     12.90015       6.33676      23.52728
Nuclear contribution   :    -13.16867      -6.26660     -24.01178
                        -----------------------------------------
Total Dipole Moment    :     -0.26852       0.07016      -0.48449
                        -----------------------------------------
Magnitude (a.u.)       :      0.55835
Magnitude (Debye)      :      1.41922

Rotational constants in cm-1:     0.017776     0.009353     0.007126
Rotational constants in MHz :   532.909208   280.408763   213.646799

                             ****ORCA TERMINATED NORMALLY****
TOTAL RUN TIME: 0 days 0 hours 0 minutes 22 seconds 970 msec
