                         Program Version 4.2.1 -  RELEASE  -
|  1> ! wB97X-D3 SP def2-SVP
|  2> %pal
|  3> nprocs 24
|  4> end
|  5>
|  6> * xyz 0 1
|  7> S 	 14.0808 	 -8.85436 	 -125.409
|  8> C 	 12.69 	 -8.27641 	 -126.21
|  9> C 	 12.0265 	 -9.36802 	 -126.83
| 10> C 	 12.621 	 -10.6548 	 -126.528
| 11> C 	 13.7207 	 -10.5707 	 -125.682
| 12> H 	 12.3255 	 -11.6188 	 -126.876
| 13> C 	 10.7942 	 -9.18147 	 -127.616
| 14> H 	 10.6384 	 -9.8673 	 -128.493
| 15> H 	 10.8245 	 -8.19313 	 -128.025
| 16> C 	 9.50592 	 -9.32568 	 -126.733
| 17> H 	 8.83488 	 -9.82829 	 -127.392
| 18> H 	 9.71319 	 -9.91908 	 -125.882
| 19> C 	 8.94541 	 -8.07492 	 -126.316
| 20> H 	 9.43453 	 -7.60026 	 -125.449
| 21> H 	 8.90322 	 -7.40037 	 -127.179
| 22> H 	 7.92658 	 -8.22 	 -126.087
| 23> S 	 16.0909 	 -11.7001 	 -126.527
| 24> C 	 16.7779 	 -13.0422 	 -125.653
| 25> C 	 15.803 	 -13.5638 	 -124.789
| 26> C 	 14.5958 	 -12.8029 	 -124.623
| 27> C 	 14.7046 	 -11.694 	 -125.444
| 28> H 	 15.9679 	 -14.4327 	 -124.246
| 29> C 	 13.4333 	 -13.1545 	 -123.759
| 30> H 	 12.7005 	 -12.5819 	 -124.175
| 31> H 	 13.4904 	 -12.8086 	 -122.799
| 32> C 	 12.9641 	 -14.607 	 -123.746
| 33> H 	 12.1986 	 -14.7108 	 -122.964
| 34> H 	 13.8276 	 -15.2064 	 -123.517
| 35> C 	 12.4607 	 -15.0756 	 -125.183
| 36> H 	 11.8978 	 -14.2952 	 -125.678
| 37> H 	 11.8329 	 -15.9779 	 -125.148
| 38> H 	 13.2173 	 -15.3023 	 -125.863
| 39> H 	 12.3546 	 -7.23399 	 -126.351
| 40> H 	 17.7029 	 -13.4764 	 -125.874
| 41> *
| 42>
| 43>                          ****END OF INPUT****

CARTESIAN COORDINATES (ANGSTROEM)
---------------------------------
  S     14.080800   -8.854360  -125.409000
  C     12.690000   -8.276410  -126.210000
  C     12.026500   -9.368020  -126.830000
  C     12.621000  -10.654800  -126.528000
  C     13.720700  -10.570700  -125.682000
  H     12.325500  -11.618800  -126.876000
  C     10.794200   -9.181470  -127.616000
  H     10.638400   -9.867300  -128.493000
  H     10.824500   -8.193130  -128.025000
  C      9.505920   -9.325680  -126.733000
  H      8.834880   -9.828290  -127.392000
  H      9.713190   -9.919080  -125.882000
  C      8.945410   -8.074920  -126.316000
  H      9.434530   -7.600260  -125.449000
  H      8.903220   -7.400370  -127.179000
  H      7.926580   -8.220000  -126.087000
  S     16.090900  -11.700100  -126.527000
  C     16.777900  -13.042200  -125.653000
  C     15.803000  -13.563800  -124.789000
  C     14.595800  -12.802900  -124.623000
  C     14.704600  -11.694000  -125.444000
  H     15.967900  -14.432700  -124.246000
  C     13.433300  -13.154500  -123.759000
  H     12.700500  -12.581900  -124.175000
  H     13.490400  -12.808600  -122.799000
  C     12.964100  -14.607000  -123.746000
  H     12.198600  -14.710800  -122.964000
  H     13.827600  -15.206400  -123.517000
  C     12.460700  -15.075600  -125.183000
  H     11.897800  -14.295200  -125.678000
  H     11.832900  -15.977900  -125.148000
  H     13.217300  -15.302300  -125.863000
  H     12.354600   -7.233990  -126.351000
  H     17.702900  -13.476400  -125.874000

 Total Charge           Charge          ....    0
 Multiplicity           Mult            ....    1
 Number of Electrons    NEL             ....  134
 Basis Dimension        Dim             ....  322

ORBITAL ENERGIES
----------------

  NO   OCC          E(Eh)            E(eV)
   0   2.0000     -88.965305     -2420.8690
   1   2.0000     -88.964949     -2420.8593
   2   2.0000     -10.330610      -281.1102
   3   2.0000     -10.328466      -281.0518
   4   2.0000     -10.317208      -280.7455
   5   2.0000     -10.315082      -280.6876
   6   2.0000     -10.302782      -280.3529
   7   2.0000     -10.302011      -280.3320
   8   2.0000     -10.295402      -280.1521
   9   2.0000     -10.292797      -280.0813
  10   2.0000     -10.290280      -280.0128
  11   2.0000     -10.285759      -279.8897
  12   2.0000     -10.275318      -279.6056
  13   2.0000     -10.275096      -279.5996
  14   2.0000     -10.271519      -279.5022
  15   2.0000     -10.267485      -279.3925
  16   2.0000      -8.079993      -219.8678
  17   2.0000      -8.079699      -219.8598
  18   2.0000      -6.038439      -164.3143
  19   2.0000      -6.038191      -164.3075
  20   2.0000      -6.034577      -164.2092
  21   2.0000      -6.034009      -164.1937
  22   2.0000      -6.030749      -164.1050
  23   2.0000      -6.030652      -164.1024
  24   2.0000      -1.002222       -27.2719
  25   2.0000      -0.982691       -26.7404
  26   2.0000      -0.920350       -25.0440
  27   2.0000      -0.914813       -24.8933
  28   2.0000      -0.865513       -23.5518
  29   2.0000      -0.852477       -23.1971
  30   2.0000      -0.845288       -23.0015
  31   2.0000      -0.814201       -22.1555
  32   2.0000      -0.789768       -21.4907
  33   2.0000      -0.768799       -20.9201
  34   2.0000      -0.713561       -19.4170
  35   2.0000      -0.701091       -19.0777
  36   2.0000      -0.688865       -18.7450
  37   2.0000      -0.658812       -17.9272
  38   2.0000      -0.645144       -17.5553
  39   2.0000      -0.617190       -16.7946
  40   2.0000      -0.605817       -16.4851
  41   2.0000      -0.581161       -15.8142
  42   2.0000      -0.559946       -15.2369
  43   2.0000      -0.549096       -14.9417
  44   2.0000      -0.541482       -14.7345
  45   2.0000      -0.538106       -14.6426
  46   2.0000      -0.523252       -14.2384
  47   2.0000      -0.519171       -14.1274
  48   2.0000      -0.500672       -13.6240
  49   2.0000      -0.496050       -13.4982
  50   2.0000      -0.490023       -13.3342
  51   2.0000      -0.481234       -13.0950
  52   2.0000      -0.473839       -12.8938
  53   2.0000      -0.464519       -12.6402
  54   2.0000      -0.460866       -12.5408
  55   2.0000      -0.448291       -12.1986
  56   2.0000      -0.440388       -11.9836
  57   2.0000      -0.435259       -11.8440
  58   2.0000      -0.434229       -11.8160
  59   2.0000      -0.430296       -11.7090
  60   2.0000      -0.421555       -11.4711
  61   2.0000      -0.418629       -11.3915
  62   2.0000      -0.412235       -11.2175
  63   2.0000      -0.338312        -9.2059
  64   2.0000      -0.330355        -8.9894
  65   2.0000      -0.314824        -8.5668
  66   2.0000      -0.302654        -8.2356
  67   0.0000       0.038489         1.0473
  68   0.0000       0.056600         1.5402
  69   0.0000       0.109821         2.9884
  70   0.0000       0.117993         3.2108
  71   0.0000       0.136707         3.7200

MULLIKEN ATOMIC CHARGES
-----------------------
   0 S :    0.118500
   1 C :   -0.114336
   2 C :   -0.114808
   3 C :    0.070410
   4 C :   -0.178723
   5 H :    0.003140
   6 C :    0.035950
   7 H :    0.033746
   8 H :    0.007300
   9 C :   -0.031116
  10 H :    0.012021
  11 H :    0.023660
  12 C :   -0.020384
  13 H :    0.038544
  14 H :    0.013268
  15 H :    0.017117
  16 S :    0.121777
  17 C :   -0.069415
  18 C :   -0.019489
  19 C :   -0.043600
  20 C :   -0.198856
  21 H :   -0.013362
  22 C :    0.186128
  23 H :   -0.017535
  24 H :    0.015133
  25 C :   -0.079775
  26 H :    0.039651
  27 H :    0.029462
  28 C :   -0.050189
  29 H :    0.021002
  30 H :    0.035951
  31 H :    0.026109
  32 H :    0.064192
  33 H :    0.038529
Sum of atomic charges:   -0.0000000

LOEWDIN ATOMIC CHARGES
----------------------
   0 S :    0.420398
   1 C :   -0.221315
   2 C :   -0.065681
   3 C :   -0.055117
   4 C :   -0.202594
   5 H :    0.026755
   6 C :   -0.035916
   7 H :    0.035456
   8 H :    0.022810
   9 C :   -0.034247
  10 H :    0.020861
  11 H :    0.021658
  12 C :   -0.063084
  13 H :    0.028696
  14 H :    0.023465
  15 H :    0.022950
  16 S :    0.411402
  17 C :   -0.179625
  18 C :   -0.060066
  19 C :   -0.048371
  20 C :   -0.193381
  21 H :    0.014074
  22 C :   -0.022157
  23 H :    0.020582
  24 H :    0.026240
  25 C :   -0.025687
  26 H :    0.029878
  27 H :    0.019773
  28 C :   -0.064633
  29 H :    0.021471
  30 H :    0.029102
  31 H :    0.019238
  32 H :    0.039254
  33 H :    0.017812

  Mayer bond orders larger than 0.100000
B(  0-S ,  1-C ) :   1.1613 B(  0-S ,  4-C ) :   1.1627 B(  1-C ,  2-C ) :   1.5631
B(  1-C , 32-H ) :   0.9633 B(  2-C ,  3-C ) :   1.2549 B(  2-C ,  6-C ) :   1.0596
B(  3-C ,  4-C ) :   1.5520 B(  3-C ,  5-H ) :   0.9994 B(  4-C , 20-C ) :   0.9926
B(  6-C ,  7-H ) :   0.9491 B(  6-C ,  8-H ) :   0.9395 B(  6-C ,  9-C ) :   1.0436
B(  9-C , 10-H ) :   0.9522 B(  9-C , 11-H ) :   0.9528 B(  9-C , 12-C ) :   1.1146
B( 12-C , 13-H ) :   0.9691 B( 12-C , 14-H ) :   0.9686 B( 12-C , 15-H ) :   0.9646
B( 16-S , 17-C ) :   1.1486 B( 16-S , 20-C ) :   1.1710 B( 17-C , 18-C ) :   1.5937
B( 17-C , 33-H ) :   0.9793 B( 18-C , 19-C ) :   1.2368 B( 18-C , 21-H ) :   0.9949
B( 19-C , 20-C ) :   1.6014 B( 19-C , 22-C ) :   1.0281 B( 22-C , 23-H ) :   0.9098
B( 22-C , 24-H ) :   0.9144 B( 22-C , 25-C ) :   1.0829 B( 25-C , 26-H ) :   0.9570
B( 25-C , 27-H ) :   0.9586 B( 25-C , 28-C ) :   1.0606 B( 28-C , 29-H ) :   0.9796
B( 28-C , 30-H ) :   0.9770 B( 28-C , 31-H ) :   0.9750

Dispersion correction           -0.014653039
FINAL SINGLE POINT ENERGY     -1339.854238557707

DIPOLE MOMENT
-------------
                                X             Y             Z
Electronic contribution:     25.35826       7.74880      -1.20964
Nuclear contribution   :    -25.92700      -8.09449       1.13902
                        -----------------------------------------
Total Dipole Moment    :     -0.56874      -0.34569      -0.07062
                        -----------------------------------------
Magnitude (a.u.)       :      0.66930
Magnitude (Debye)      :      1.70122

Rotational constants in cm-1:     0.020191     0.008394     0.006665
Rotational constants in MHz :   605.312218   251.646187   199.809311

                             ****ORCA TERMINATED NORMALLY****
TOTAL RUN TIME: 0 days 0 hours 0 minutes 21 seconds 535 msec
