                         Program Version 4.2.1 -  RELEASE  -
|  1> ! wB97X-D3 SP def2-SVP
|  2> %pal
|  3> nprocs 24
|  4> end
|  5>
|  6> * xyz 0 1
|  7> S 	 -91.7038 	 -26.1001 	 -66.3987
|  8> C 	 -93.3793 	 -26.0593 	 -66.3928
|  9> C 	 -93.9681 	 -26.8111 	 -65.4521
| 10> C 	 -93.0794 	 -27.2899 	 -64.505
| 11> C 	 -91.7763 	 -27.2441 	 -65.0598
| 12> H 	 -93.2735 	 -27.8951 	 -63.6735
| 13> C 	 -95.495 	 -26.9704 	 -65.3318
| 14> H 	 -95.7846 	 -27.684 	 -64.5407
| 15> H 	 -95.7755 	 -27.4425 	 -66.2586
| 16> C 	 -96.3088 	 -25.6403 	 -65.1331
| 17> H 	 -95.9412 	 -24.8675 	 -65.781
| 18> H 	 -97.3312 	 -25.9125 	 -65.3594
| 19> C 	 -96.1392 	 -25.095 	 -63.7038
| 20> H 	 -96.7804 	 -24.2788 	 -63.4446
| 21> H 	 -96.4174 	 -25.9353 	 -63.0561
| 22> H 	 -95.1105 	 -24.9638 	 -63.4279
| 23> S 	 -90.2604 	 -29.6157 	 -65.2362
| 24> C 	 -88.8377 	 -29.7535 	 -64.3026
| 25> C 	 -88.6147 	 -28.6204 	 -63.552
| 26> C 	 -89.4928 	 -27.5426 	 -63.8666
| 27> C 	 -90.6037 	 -28.0136 	 -64.6246
| 28> H 	 -87.7782 	 -28.6325 	 -62.8501
| 29> C 	 -89.3153 	 -26.1176 	 -63.3834
| 30> H 	 -89.9238 	 -25.4058 	 -63.9776
| 31> H 	 -88.3313 	 -25.8166 	 -63.69
| 32> C 	 -89.3086 	 -25.9446 	 -61.8954
| 33> H 	 -88.3471 	 -26.2468 	 -61.3745
| 34> H 	 -90.1783 	 -26.5625 	 -61.4935
| 35> C 	 -89.2888 	 -24.4471 	 -61.5458
| 36> H 	 -90.2394 	 -23.9005 	 -61.6179
| 37> H 	 -88.6106 	 -23.8351 	 -62.0906
| 38> H 	 -88.9355 	 -24.3538 	 -60.4839
| 39> H 	 -93.9083 	 -25.4483 	 -67.098
| 40> H 	 -88.144 	 -30.5547 	 -64.3633
| 41> *
| 42>
| 43>                          ****END OF INPUT****

CARTESIAN COORDINATES (ANGSTROEM)
---------------------------------
  S    -91.703800  -26.100100  -66.398700
  C    -93.379300  -26.059300  -66.392800
  C    -93.968100  -26.811100  -65.452100
  C    -93.079400  -27.289900  -64.505000
  C    -91.776300  -27.244100  -65.059800
  H    -93.273500  -27.895100  -63.673500
  C    -95.495000  -26.970400  -65.331800
  H    -95.784600  -27.684000  -64.540700
  H    -95.775500  -27.442500  -66.258600
  C    -96.308800  -25.640300  -65.133100
  H    -95.941200  -24.867500  -65.781000
  H    -97.331200  -25.912500  -65.359400
  C    -96.139200  -25.095000  -63.703800
  H    -96.780400  -24.278800  -63.444600
  H    -96.417400  -25.935300  -63.056100
  H    -95.110500  -24.963800  -63.427900
  S    -90.260400  -29.615700  -65.236200
  C    -88.837700  -29.753500  -64.302600
  C    -88.614700  -28.620400  -63.552000
  C    -89.492800  -27.542600  -63.866600
  C    -90.603700  -28.013600  -64.624600
  H    -87.778200  -28.632500  -62.850100
  C    -89.315300  -26.117600  -63.383400
  H    -89.923800  -25.405800  -63.977600
  H    -88.331300  -25.816600  -63.690000
  C    -89.308600  -25.944600  -61.895400
  H    -88.347100  -26.246800  -61.374500
  H    -90.178300  -26.562500  -61.493500
  C    -89.288800  -24.447100  -61.545800
  H    -90.239400  -23.900500  -61.617900
  H    -88.610600  -23.835100  -62.090600
  H    -88.935500  -24.353800  -60.483900
  H    -93.908300  -25.448300  -67.098000
  H    -88.144000  -30.554700  -64.363300

 Total Charge           Charge          ....    0
 Multiplicity           Mult            ....    1
 Number of Electrons    NEL             ....  134
 Basis Dimension        Dim             ....  322

ORBITAL ENERGIES
----------------

  NO   OCC          E(Eh)            E(eV)
   0   2.0000     -88.966221     -2420.8940
   1   2.0000     -88.963622     -2420.8232
   2   2.0000     -10.327539      -281.0266
   3   2.0000     -10.322615      -280.8926
   4   2.0000     -10.310292      -280.5573
   5   2.0000     -10.303563      -280.3742
   6   2.0000     -10.299448      -280.2622
   7   2.0000     -10.293949      -280.1126
   8   2.0000     -10.292220      -280.0655
   9   2.0000     -10.290869      -280.0288
  10   2.0000     -10.290785      -280.0265
  11   2.0000     -10.289803      -279.9998
  12   2.0000     -10.286085      -279.8986
  13   2.0000     -10.286028      -279.8971
  14   2.0000     -10.277182      -279.6563
  15   2.0000     -10.271303      -279.4964
  16   2.0000      -8.082080      -219.9246
  17   2.0000      -8.078964      -219.8398
  18   2.0000      -6.040143      -164.3606
  19   2.0000      -6.037288      -164.2830
  20   2.0000      -6.036520      -164.2621
  21   2.0000      -6.033294      -164.1743
  22   2.0000      -6.033164      -164.1707
  23   2.0000      -6.029976      -164.0840
  24   2.0000      -1.011225       -27.5168
  25   2.0000      -0.990543       -26.9540
  26   2.0000      -0.912071       -24.8187
  27   2.0000      -0.906235       -24.6599
  28   2.0000      -0.864926       -23.5358
  29   2.0000      -0.855587       -23.2817
  30   2.0000      -0.847262       -23.0552
  31   2.0000      -0.811783       -22.0897
  32   2.0000      -0.782554       -21.2944
  33   2.0000      -0.768614       -20.9150
  34   2.0000      -0.703179       -19.1345
  35   2.0000      -0.699428       -19.0324
  36   2.0000      -0.694507       -18.8985
  37   2.0000      -0.650678       -17.7058
  38   2.0000      -0.649155       -17.6644
  39   2.0000      -0.612519       -16.6675
  40   2.0000      -0.597086       -16.2475
  41   2.0000      -0.577340       -15.7102
  42   2.0000      -0.564147       -15.3512
  43   2.0000      -0.551794       -15.0151
  44   2.0000      -0.535916       -14.5830
  45   2.0000      -0.528168       -14.3722
  46   2.0000      -0.515362       -14.0237
  47   2.0000      -0.511291       -13.9129
  48   2.0000      -0.504301       -13.7227
  49   2.0000      -0.489901       -13.3309
  50   2.0000      -0.483059       -13.1447
  51   2.0000      -0.481991       -13.1156
  52   2.0000      -0.478719       -13.0266
  53   2.0000      -0.461907       -12.5691
  54   2.0000      -0.461178       -12.5493
  55   2.0000      -0.445197       -12.1144
  56   2.0000      -0.443785       -12.0760
  57   2.0000      -0.437645       -11.9089
  58   2.0000      -0.436014       -11.8645
  59   2.0000      -0.423840       -11.5333
  60   2.0000      -0.420732       -11.4487
  61   2.0000      -0.419350       -11.4111
  62   2.0000      -0.406261       -11.0549
  63   2.0000      -0.338918        -9.2224
  64   2.0000      -0.327989        -8.9250
  65   2.0000      -0.313151        -8.5213
  66   2.0000      -0.301816        -8.2128
  67   0.0000       0.042645         1.1604
  68   0.0000       0.053151         1.4463
  69   0.0000       0.113612         3.0915
  70   0.0000       0.128982         3.5098
  71   0.0000       0.131039         3.5658

MULLIKEN ATOMIC CHARGES
-----------------------
   0 S :    0.141328
   1 C :   -0.123514
   2 C :   -0.075852
   3 C :    0.077110
   4 C :   -0.218846
   5 H :   -0.002306
   6 C :    0.044793
   7 H :    0.022611
   8 H :    0.031302
   9 C :   -0.053877
  10 H :    0.026389
  11 H :    0.031598
  12 C :   -0.037404
  13 H :    0.039025
  14 H :    0.007904
  15 H :    0.033411
  16 S :    0.126793
  17 C :   -0.089822
  18 C :   -0.033656
  19 C :   -0.043943
  20 C :   -0.169872
  21 H :    0.019339
  22 C :    0.113973
  23 H :    0.022167
  24 H :    0.009727
  25 C :   -0.111707
  26 H :    0.041909
  27 H :    0.052588
  28 C :   -0.053423
  29 H :    0.036941
  30 H :    0.018928
  31 H :    0.030563
  32 H :    0.038420
  33 H :    0.047403
Sum of atomic charges:    0.0000000

LOEWDIN ATOMIC CHARGES
----------------------
   0 S :    0.438262
   1 C :   -0.216656
   2 C :   -0.072403
   3 C :   -0.042826
   4 C :   -0.190022
   5 H :    0.025035
   6 C :   -0.026714
   7 H :    0.028705
   8 H :    0.030577
   9 C :   -0.031500
  10 H :    0.017951
  11 H :    0.023050
  12 C :   -0.065161
  13 H :    0.023428
  14 H :    0.023167
  15 H :    0.025451
  16 S :    0.428276
  17 C :   -0.195186
  18 C :   -0.075738
  19 C :   -0.046319
  20 C :   -0.222109
  21 H :    0.031622
  22 C :   -0.041691
  23 H :    0.030077
  24 H :    0.031117
  25 C :   -0.047396
  26 H :    0.033294
  27 H :    0.033910
  28 C :   -0.070522
  29 H :    0.025453
  30 H :    0.019747
  31 H :    0.029528
  32 H :    0.020753
  33 H :    0.024836

  Mayer bond orders larger than 0.100000
B(  0-S ,  1-C ) :   1.1620 B(  0-S ,  4-C ) :   1.1722 B(  1-C ,  2-C ) :   1.5956
B(  1-C ,  4-C ) :   0.1011 B(  1-C , 32-H ) :   0.9662 B(  2-C ,  3-C ) :   1.2738
B(  2-C ,  6-C ) :   1.0086 B(  3-C ,  4-C ) :   1.5481 B(  3-C ,  5-H ) :   0.9939
B(  4-C , 20-C ) :   1.0386 B(  6-C ,  7-H ) :   0.9488 B(  6-C ,  8-H ) :   0.9375
B(  6-C ,  9-C ) :   1.0719 B(  9-C , 10-H ) :   0.9597 B(  9-C , 11-H ) :   0.9567
B(  9-C , 12-C ) :   1.0684 B( 12-C , 13-H ) :   0.9755 B( 12-C , 14-H ) :   0.9725
B( 12-C , 15-H ) :   0.9766 B( 16-S , 17-C ) :   1.1787 B( 16-S , 20-C ) :   1.1503
B( 17-C , 18-C ) :   1.5903 B( 17-C , 33-H ) :   0.9708 B( 18-C , 19-C ) :   1.2571
B( 18-C , 21-H ) :   0.9894 B( 19-C , 20-C ) :   1.5522 B( 19-C , 22-C ) :   1.0574
B( 22-C , 23-H ) :   0.9314 B( 22-C , 24-H ) :   0.9116 B( 22-C , 25-C ) :   1.0598
B( 25-C , 26-H ) :   0.9521 B( 25-C , 27-H ) :   0.9608 B( 25-C , 28-C ) :   1.0697
B( 28-C , 29-H ) :   0.9757 B( 28-C , 30-H ) :   0.9703 B( 28-C , 31-H ) :   0.9786

Dispersion correction           -0.014268236
FINAL SINGLE POINT ENERGY     -1339.861396592058

DIPOLE MOMENT
-------------
                                X             Y             Z
Electronic contribution:     10.51510     -15.72320     -16.37081
Nuclear contribution   :    -10.56378      15.92512      16.61332
                        -----------------------------------------
Total Dipole Moment    :     -0.04868       0.20192       0.24251
                        -----------------------------------------
Magnitude (a.u.)       :      0.31930
Magnitude (Debye)      :      0.81161

Rotational constants in cm-1:     0.018467     0.008423     0.006783
Rotational constants in MHz :   553.618036   252.527862   203.360406

                             ****ORCA TERMINATED NORMALLY****
TOTAL RUN TIME: 0 days 0 hours 0 minutes 21 seconds 512 msec
