                         Program Version 4.2.1 -  RELEASE  -
|  1> ! wB97X-D3 SP def2-SVP
|  2> %pal
|  3> nprocs 24
|  4> end
|  5>
|  6> * xyz 0 1
|  7> S 	 -41.289 	 -44.9103 	 -73.6538
|  8> C 	 -42.7751 	 -44.2059 	 -73.0924
|  9> C 	 -42.9571 	 -43.0051 	 -73.6846
| 10> C 	 -41.8363 	 -42.5825 	 -74.4659
| 11> C 	 -40.827 	 -43.5258 	 -74.6023
| 12> H 	 -41.8274 	 -41.6307 	 -75.0096
| 13> C 	 -44.098 	 -42.0516 	 -73.4019
| 14> H 	 -43.6339 	 -41.1255 	 -72.9582
| 15> H 	 -44.6198 	 -42.5281 	 -72.5608
| 16> C 	 -45.2049 	 -41.766 	 -74.433
| 17> H 	 -44.8188 	 -41.0647 	 -75.1753
| 18> H 	 -45.5649 	 -42.6071 	 -75.0043
| 19> C 	 -46.3627 	 -41.0237 	 -73.8461
| 20> H 	 -46.9989 	 -41.6235 	 -73.1862
| 21> H 	 -46.0063 	 -40.3439 	 -73.1127
| 22> H 	 -47.0738 	 -40.555 	 -74.5881
| 23> S 	 -38.1198 	 -43.9143 	 -74.7016
| 24> C 	 -37.316 	 -43.5863 	 -76.1945
| 25> C 	 -38.0997 	 -43.0678 	 -77.1467
| 26> C 	 -39.4997 	 -43.0353 	 -76.7339
| 27> C 	 -39.65 	 -43.5001 	 -75.46
| 28> H 	 -37.6328 	 -42.9903 	 -78.1769
| 29> C 	 -40.6254 	 -42.8021 	 -77.6977
| 30> H 	 -40.5725 	 -41.8034 	 -78.2014
| 31> H 	 -41.5733 	 -42.8606 	 -77.1174
| 32> C 	 -40.6257 	 -43.7703 	 -78.8524
| 33> H 	 -40.8122 	 -44.7898 	 -78.4287
| 34> H 	 -39.633 	 -43.8421 	 -79.353
| 35> C 	 -41.7 	 -43.4449 	 -79.805
| 36> H 	 -41.8515 	 -44.3583 	 -80.458
| 37> H 	 -41.6296 	 -42.5447 	 -80.3482
| 38> H 	 -42.6131 	 -43.3791 	 -79.3151
| 39> H 	 -43.4535 	 -44.6227 	 -72.3669
| 40> H 	 -36.2888 	 -43.7736 	 -76.3169
| 41> *
| 42>
| 43>                          ****END OF INPUT****

CARTESIAN COORDINATES (ANGSTROEM)
---------------------------------
  S    -41.289000  -44.910300  -73.653800
  C    -42.775100  -44.205900  -73.092400
  C    -42.957100  -43.005100  -73.684600
  C    -41.836300  -42.582500  -74.465900
  C    -40.827000  -43.525800  -74.602300
  H    -41.827400  -41.630700  -75.009600
  C    -44.098000  -42.051600  -73.401900
  H    -43.633900  -41.125500  -72.958200
  H    -44.619800  -42.528100  -72.560800
  C    -45.204900  -41.766000  -74.433000
  H    -44.818800  -41.064700  -75.175300
  H    -45.564900  -42.607100  -75.004300
  C    -46.362700  -41.023700  -73.846100
  H    -46.998900  -41.623500  -73.186200
  H    -46.006300  -40.343900  -73.112700
  H    -47.073800  -40.555000  -74.588100
  S    -38.119800  -43.914300  -74.701600
  C    -37.316000  -43.586300  -76.194500
  C    -38.099700  -43.067800  -77.146700
  C    -39.499700  -43.035300  -76.733900
  C    -39.650000  -43.500100  -75.460000
  H    -37.632800  -42.990300  -78.176900
  C    -40.625400  -42.802100  -77.697700
  H    -40.572500  -41.803400  -78.201400
  H    -41.573300  -42.860600  -77.117400
  C    -40.625700  -43.770300  -78.852400
  H    -40.812200  -44.789800  -78.428700
  H    -39.633000  -43.842100  -79.353000
  C    -41.700000  -43.444900  -79.805000
  H    -41.851500  -44.358300  -80.458000
  H    -41.629600  -42.544700  -80.348200
  H    -42.613100  -43.379100  -79.315100
  H    -43.453500  -44.622700  -72.366900
  H    -36.288800  -43.773600  -76.316900

 Total Charge           Charge          ....    0
 Multiplicity           Mult            ....    1
 Number of Electrons    NEL             ....  134
 Basis Dimension        Dim             ....  322

ORBITAL ENERGIES
----------------

  NO   OCC          E(Eh)            E(eV)
   0   2.0000     -88.963350     -2420.8158
   1   2.0000     -88.962215     -2420.7849
   2   2.0000     -10.329418      -281.0778
   3   2.0000     -10.325074      -280.9595
   4   2.0000     -10.311483      -280.5897
   5   2.0000     -10.309656      -280.5400
   6   2.0000     -10.305119      -280.4165
   7   2.0000     -10.297241      -280.2022
   8   2.0000     -10.296539      -280.1831
   9   2.0000     -10.296376      -280.1786
  10   2.0000     -10.292674      -280.0779
  11   2.0000     -10.291019      -280.0329
  12   2.0000     -10.285961      -279.8952
  13   2.0000     -10.283374      -279.8248
  14   2.0000     -10.277445      -279.6635
  15   2.0000     -10.267934      -279.4047
  16   2.0000      -8.078566      -219.8290
  17   2.0000      -8.077899      -219.8108
  18   2.0000      -6.037088      -164.2775
  19   2.0000      -6.036386      -164.2584
  20   2.0000      -6.032895      -164.1634
  21   2.0000      -6.032439      -164.1510
  22   2.0000      -6.029377      -164.0677
  23   2.0000      -6.028468      -164.0429
  24   2.0000      -1.011899       -27.5352
  25   2.0000      -0.990823       -26.9617
  26   2.0000      -0.920174       -25.0392
  27   2.0000      -0.914312       -24.8797
  28   2.0000      -0.877970       -23.8908
  29   2.0000      -0.857327       -23.3291
  30   2.0000      -0.847031       -23.0489
  31   2.0000      -0.819365       -22.2961
  32   2.0000      -0.781804       -21.2740
  33   2.0000      -0.772144       -21.0111
  34   2.0000      -0.710071       -19.3220
  35   2.0000      -0.699773       -19.0418
  36   2.0000      -0.696962       -18.9653
  37   2.0000      -0.657837       -17.9007
  38   2.0000      -0.639789       -17.4095
  39   2.0000      -0.622476       -16.9384
  40   2.0000      -0.600880       -16.3508
  41   2.0000      -0.573994       -15.6192
  42   2.0000      -0.571911       -15.5625
  43   2.0000      -0.558295       -15.1920
  44   2.0000      -0.531571       -14.4648
  45   2.0000      -0.525856       -14.3093
  46   2.0000      -0.519846       -14.1457
  47   2.0000      -0.513399       -13.9703
  48   2.0000      -0.507192       -13.8014
  49   2.0000      -0.505987       -13.7686
  50   2.0000      -0.490249       -13.3403
  51   2.0000      -0.485835       -13.2202
  52   2.0000      -0.470167       -12.7939
  53   2.0000      -0.465605       -12.6698
  54   2.0000      -0.457814       -12.4578
  55   2.0000      -0.452162       -12.3040
  56   2.0000      -0.446114       -12.1394
  57   2.0000      -0.437735       -11.9114
  58   2.0000      -0.430912       -11.7257
  59   2.0000      -0.423079       -11.5126
  60   2.0000      -0.418797       -11.3960
  61   2.0000      -0.415062       -11.2944
  62   2.0000      -0.408726       -11.1220
  63   2.0000      -0.352306        -9.5867
  64   2.0000      -0.330804        -9.0016
  65   2.0000      -0.328498        -8.9389
  66   2.0000      -0.298851        -8.1322
  67   0.0000       0.032290         0.8787
  68   0.0000       0.082071         2.2333
  69   0.0000       0.114780         3.1233
  70   0.0000       0.122779         3.3410
  71   0.0000       0.126651         3.4463

MULLIKEN ATOMIC CHARGES
-----------------------
   0 S :    0.102249
   1 C :   -0.106579
   2 C :   -0.092063
   3 C :    0.024058
   4 C :   -0.141720
   5 H :    0.019761
   6 C :    0.011432
   7 H :    0.048936
   8 H :    0.005949
   9 C :   -0.016890
  10 H :    0.021878
  11 H :    0.029742
  12 C :   -0.061938
  13 H :    0.016669
  14 H :    0.014723
  15 H :    0.049024
  16 S :    0.100892
  17 C :   -0.070509
  18 C :   -0.050356
  19 C :   -0.021069
  20 C :   -0.145817
  21 H :    0.046861
  22 C :    0.041170
  23 H :    0.025409
  24 H :    0.034583
  25 C :   -0.102053
  26 H :    0.031588
  27 H :    0.033240
  28 C :    0.009952
  29 H :    0.035569
  30 H :    0.022757
  31 H :    0.000158
  32 H :    0.044304
  33 H :    0.038088
Sum of atomic charges:    0.0000000

LOEWDIN ATOMIC CHARGES
----------------------
   0 S :    0.411234
   1 C :   -0.195436
   2 C :   -0.073672
   3 C :   -0.067578
   4 C :   -0.198508
   5 H :    0.032353
   6 C :   -0.036704
   7 H :    0.041568
   8 H :    0.027106
   9 C :   -0.043173
  10 H :    0.024465
  11 H :    0.025429
  12 C :   -0.070841
  13 H :    0.021149
  14 H :    0.020295
  15 H :    0.035539
  16 S :    0.399433
  17 C :   -0.172675
  18 C :   -0.080443
  19 C :   -0.048744
  20 C :   -0.197172
  21 H :    0.046260
  22 C :   -0.038637
  23 H :    0.033224
  24 H :    0.034332
  25 C :   -0.046166
  26 H :    0.030586
  27 H :    0.024670
  28 C :   -0.061775
  29 H :    0.037859
  30 H :    0.018769
  31 H :    0.017053
  32 H :    0.030900
  33 H :    0.019299

  Mayer bond orders larger than 0.100000
B(  0-S ,  1-C ) :   1.1323 B(  0-S ,  4-C ) :   1.1616 B(  1-C ,  2-C ) :   1.6154
B(  1-C , 32-H ) :   0.9679 B(  2-C ,  3-C ) :   1.2511 B(  2-C ,  6-C ) :   1.0224
B(  3-C ,  4-C ) :   1.5555 B(  3-C ,  5-H ) :   0.9956 B(  4-C , 20-C ) :   1.0178
B(  6-C ,  7-H ) :   0.9376 B(  6-C ,  8-H ) :   0.9462 B(  6-C ,  9-C ) :   1.0594
B(  9-C , 10-H ) :   0.9495 B(  9-C , 11-H ) :   0.9557 B(  9-C , 12-C ) :   1.0858
B( 12-C , 13-H ) :   0.9706 B( 12-C , 14-H ) :   0.9688 B( 12-C , 15-H ) :   0.9733
B( 16-S , 17-C ) :   1.1424 B( 16-S , 20-C ) :   1.1228 B( 17-C , 18-C ) :   1.6791
B( 17-C , 33-H ) :   0.9686 B( 18-C , 19-C ) :   1.1718 B( 18-C , 21-H ) :   0.9752
B( 19-C , 20-C ) :   1.6596 B( 19-C , 22-C ) :   1.0546 B( 22-C , 23-H ) :   0.9273
B( 22-C , 24-H ) :   0.9305 B( 22-C , 25-C ) :   1.0706 B( 25-C , 26-H ) :   0.9469
B( 25-C , 27-H ) :   0.9520 B( 25-C , 28-C ) :   1.0980 B( 28-C , 29-H ) :   0.9684
B( 28-C , 30-H ) :   0.9708 B( 28-C , 31-H ) :   0.9633

Dispersion correction           -0.013472443
FINAL SINGLE POINT ENERGY     -1339.881441243278

DIPOLE MOMENT
-------------
                                X             Y             Z
Electronic contribution:     24.06956     -11.93633      14.44292
Nuclear contribution   :    -24.43934      12.23476     -14.85916
                        -----------------------------------------
Total Dipole Moment    :     -0.36979       0.29843      -0.41625
                        -----------------------------------------
Magnitude (a.u.)       :      0.63172
Magnitude (Debye)      :      1.60569

Rotational constants in cm-1:     0.018054     0.008371     0.006388
Rotational constants in MHz :   541.255765   250.957512   191.501366

                             ****ORCA TERMINATED NORMALLY****
TOTAL RUN TIME: 0 days 0 hours 0 minutes 21 seconds 374 msec
