                         Program Version 4.2.1 -  RELEASE  -
|  1> ! wB97X-D3 SP def2-SVP
|  2> %pal
|  3> nprocs 24
|  4> end
|  5>
|  6> * xyz 0 1
|  7> S 	 -50.1586 	 9.4426 	 -23.6652
|  8> C 	 -50.2886 	 8.12804 	 -22.532
|  9> C 	 -50.2099 	 8.58209 	 -21.1989
| 10> C 	 -49.8 	 9.90873 	 -21.1731
| 11> C 	 -49.742 	 10.5971 	 -22.3522
| 12> H 	 -49.5733 	 10.45 	 -20.2287
| 13> C 	 -50.4028 	 7.7752 	 -19.9406
| 14> H 	 -51.0655 	 7.01271 	 -20.0687
| 15> H 	 -50.8266 	 8.47917 	 -19.2645
| 16> C 	 -49.1975 	 7.21532 	 -19.1756
| 17> H 	 -48.6105 	 8.06619 	 -18.8845
| 18> H 	 -49.6109 	 6.83029 	 -18.2297
| 19> C 	 -48.4662 	 6.12634 	 -19.9511
| 20> H 	 -49.1871 	 5.42838 	 -20.4884
| 21> H 	 -47.9038 	 6.54962 	 -20.7027
| 22> H 	 -47.8095 	 5.51489 	 -19.2932
| 23> S 	 -50.3358 	 12.9166 	 -23.6334
| 24> C 	 -49.3369 	 14.3531 	 -23.5135
| 25> C 	 -48.1705 	 14.0346 	 -22.8056
| 26> C 	 -48.2078 	 12.7114 	 -22.2419
| 27> C 	 -49.3511 	 11.9764 	 -22.6315
| 28> H 	 -47.4232 	 14.7929 	 -22.6939
| 29> C 	 -47.163 	 12.2515 	 -21.221
| 30> H 	 -46.2223 	 12.5368 	 -21.7063
| 31> H 	 -47.1937 	 11.1712 	 -21.2622
| 32> C 	 -47.3795 	 12.78 	 -19.7822
| 33> H 	 -48.4133 	 12.5314 	 -19.5652
| 34> H 	 -47.2441 	 13.8287 	 -19.7597
| 35> C 	 -46.5617 	 12.0931 	 -18.7442
| 36> H 	 -46.9959 	 12.2484 	 -17.7033
| 37> H 	 -45.5425 	 12.5093 	 -18.7973
| 38> H 	 -46.5094 	 11.0381 	 -18.8668
| 39> H 	 -50.6572 	 7.10053 	 -22.8038
| 40> H 	 -49.5575 	 15.3137 	 -23.9708
| 41> *
| 42>
| 43>                          ****END OF INPUT****

CARTESIAN COORDINATES (ANGSTROEM)
---------------------------------
  S    -50.158600    9.442600  -23.665200
  C    -50.288600    8.128040  -22.532000
  C    -50.209900    8.582090  -21.198900
  C    -49.800000    9.908730  -21.173100
  C    -49.742000   10.597100  -22.352200
  H    -49.573300   10.450000  -20.228700
  C    -50.402800    7.775200  -19.940600
  H    -51.065500    7.012710  -20.068700
  H    -50.826600    8.479170  -19.264500
  C    -49.197500    7.215320  -19.175600
  H    -48.610500    8.066190  -18.884500
  H    -49.610900    6.830290  -18.229700
  C    -48.466200    6.126340  -19.951100
  H    -49.187100    5.428380  -20.488400
  H    -47.903800    6.549620  -20.702700
  H    -47.809500    5.514890  -19.293200
  S    -50.335800   12.916600  -23.633400
  C    -49.336900   14.353100  -23.513500
  C    -48.170500   14.034600  -22.805600
  C    -48.207800   12.711400  -22.241900
  C    -49.351100   11.976400  -22.631500
  H    -47.423200   14.792900  -22.693900
  C    -47.163000   12.251500  -21.221000
  H    -46.222300   12.536800  -21.706300
  H    -47.193700   11.171200  -21.262200
  C    -47.379500   12.780000  -19.782200
  H    -48.413300   12.531400  -19.565200
  H    -47.244100   13.828700  -19.759700
  C    -46.561700   12.093100  -18.744200
  H    -46.995900   12.248400  -17.703300
  H    -45.542500   12.509300  -18.797300
  H    -46.509400   11.038100  -18.866800
  H    -50.657200    7.100530  -22.803800
  H    -49.557500   15.313700  -23.970800

 Total Charge           Charge          ....    0
 Multiplicity           Mult            ....    1
 Number of Electrons    NEL             ....  134
 Basis Dimension        Dim             ....  322

ORBITAL ENERGIES
----------------

  NO   OCC          E(Eh)            E(eV)
   0   2.0000     -88.967583     -2420.9310
   1   2.0000     -88.965330     -2420.8697
   2   2.0000     -10.332880      -281.1720
   3   2.0000     -10.326862      -281.0082
   4   2.0000     -10.321599      -280.8650
   5   2.0000     -10.320541      -280.8362
   6   2.0000     -10.305925      -280.4385
   7   2.0000     -10.300675      -280.2956
   8   2.0000     -10.296841      -280.1913
   9   2.0000     -10.293719      -280.1063
  10   2.0000     -10.289799      -279.9997
  11   2.0000     -10.286929      -279.9216
  12   2.0000     -10.282448      -279.7996
  13   2.0000     -10.281488      -279.7735
  14   2.0000     -10.279336      -279.7150
  15   2.0000     -10.278136      -279.6823
  16   2.0000      -8.081683      -219.9138
  17   2.0000      -8.081035      -219.8962
  18   2.0000      -6.040236      -164.3632
  19   2.0000      -6.039434      -164.3413
  20   2.0000      -6.036233      -164.2543
  21   2.0000      -6.035169      -164.2253
  22   2.0000      -6.032470      -164.1519
  23   2.0000      -6.032089      -164.1415
  24   2.0000      -1.008514       -27.4431
  25   2.0000      -0.986244       -26.8371
  26   2.0000      -0.916496       -24.9391
  27   2.0000      -0.911707       -24.8088
  28   2.0000      -0.869540       -23.6614
  29   2.0000      -0.854361       -23.2483
  30   2.0000      -0.849006       -23.1026
  31   2.0000      -0.816123       -22.2078
  32   2.0000      -0.786001       -21.3882
  33   2.0000      -0.769776       -20.9467
  34   2.0000      -0.708775       -19.2867
  35   2.0000      -0.700160       -19.0523
  36   2.0000      -0.694878       -18.9086
  37   2.0000      -0.663048       -18.0425
  38   2.0000      -0.640708       -17.4345
  39   2.0000      -0.626140       -17.0381
  40   2.0000      -0.590633       -16.0719
  41   2.0000      -0.573700       -15.6112
  42   2.0000      -0.569312       -15.4918
  43   2.0000      -0.551301       -15.0017
  44   2.0000      -0.545354       -14.8398
  45   2.0000      -0.526634       -14.3304
  46   2.0000      -0.520176       -14.1547
  47   2.0000      -0.513576       -13.9751
  48   2.0000      -0.509227       -13.8568
  49   2.0000      -0.496443       -13.5089
  50   2.0000      -0.487292       -13.2599
  51   2.0000      -0.483620       -13.1600
  52   2.0000      -0.478078       -13.0092
  53   2.0000      -0.469815       -12.7843
  54   2.0000      -0.462026       -12.5724
  55   2.0000      -0.444826       -12.1043
  56   2.0000      -0.438700       -11.9376
  57   2.0000      -0.435645       -11.8545
  58   2.0000      -0.435290       -11.8448
  59   2.0000      -0.430977       -11.7275
  60   2.0000      -0.426685       -11.6107
  61   2.0000      -0.416648       -11.3376
  62   2.0000      -0.412022       -11.2117
  63   2.0000      -0.350767        -9.5449
  64   2.0000      -0.334129        -9.0921
  65   2.0000      -0.327016        -8.8986
  66   2.0000      -0.289869        -7.8877
  67   0.0000       0.029649         0.8068
  68   0.0000       0.064391         1.7522
  69   0.0000       0.114438         3.1140
  70   0.0000       0.118940         3.2365
  71   0.0000       0.126543         3.4434

MULLIKEN ATOMIC CHARGES
-----------------------
   0 S :    0.110419
   1 C :   -0.139921
   2 C :   -0.089832
   3 C :   -0.002845
   4 C :   -0.129339
   5 H :    0.013007
   6 C :    0.101682
   7 H :   -0.004178
   8 H :    0.012959
   9 C :   -0.052706
  10 H :    0.017222
  11 H :    0.027456
  12 C :   -0.037650
  13 H :    0.027382
  14 H :    0.026811
  15 H :    0.040249
  16 S :    0.111362
  17 C :   -0.107602
  18 C :   -0.027179
  19 C :   -0.061301
  20 C :   -0.153107
  21 H :    0.014452
  22 C :    0.060774
  23 H :    0.023661
  24 H :    0.018458
  25 C :   -0.026201
  26 H :    0.019493
  27 H :    0.022512
  28 C :   -0.046883
  29 H :    0.042115
  30 H :    0.033516
  31 H :    0.023362
  32 H :    0.068051
  33 H :    0.063798
Sum of atomic charges:    0.0000000

LOEWDIN ATOMIC CHARGES
----------------------
   0 S :    0.394725
   1 C :   -0.205675
   2 C :   -0.067833
   3 C :   -0.068094
   4 C :   -0.181134
   5 H :    0.034239
   6 C :   -0.022364
   7 H :    0.015109
   8 H :    0.031879
   9 C :   -0.033579
  10 H :    0.018675
  11 H :    0.026472
  12 C :   -0.063544
  13 H :    0.030787
  14 H :    0.015932
  15 H :    0.030456
  16 S :    0.435839
  17 C :   -0.189677
  18 C :   -0.068268
  19 C :   -0.054339
  20 C :   -0.225528
  21 H :    0.028550
  22 C :   -0.031699
  23 H :    0.029867
  24 H :    0.026304
  25 C :   -0.035597
  26 H :    0.022392
  27 H :    0.020759
  28 C :   -0.065917
  29 H :    0.034975
  30 H :    0.027738
  31 H :    0.018513
  32 H :    0.037925
  33 H :    0.032113

  Mayer bond orders larger than 0.100000
B(  0-S ,  1-C ) :   1.1609 B(  0-S ,  4-C ) :   1.1346 B(  1-C ,  2-C ) :   1.5686
B(  1-C ,  4-C ) :   0.1100 B(  1-C , 32-H ) :   0.9582 B(  2-C ,  3-C ) :   1.2651
B(  2-C ,  6-C ) :   1.0327 B(  3-C ,  4-C ) :   1.5773 B(  3-C ,  5-H ) :   0.9874
B(  4-C , 20-C ) :   1.0376 B(  6-C ,  7-H ) :   0.9349 B(  6-C ,  8-H ) :   0.9289
B(  6-C ,  9-C ) :   1.0872 B(  9-C , 10-H ) :   0.9540 B(  9-C , 11-H ) :   0.9524
B(  9-C , 12-C ) :   1.0667 B( 12-C , 13-H ) :   0.9745 B( 12-C , 14-H ) :   0.9763
B( 12-C , 15-H ) :   0.9745 B( 16-S , 17-C ) :   1.1704 B( 16-S , 20-C ) :   1.1676
B( 17-C , 18-C ) :   1.5706 B( 17-C , 20-C ) :   0.1045 B( 17-C , 33-H ) :   0.9707
B( 18-C , 19-C ) :   1.2661 B( 18-C , 21-H ) :   0.9960 B( 19-C , 20-C ) :   1.5408
B( 19-C , 22-C ) :   1.0489 B( 22-C , 23-H ) :   0.9300 B( 22-C , 24-H ) :   0.9303
B( 22-C , 25-C ) :   1.0583 B( 25-C , 26-H ) :   0.9517 B( 25-C , 27-H ) :   0.9535
B( 25-C , 28-C ) :   1.0927 B( 28-C , 29-H ) :   0.9735 B( 28-C , 30-H ) :   0.9734
B( 28-C , 31-H ) :   0.9727

Dispersion correction           -0.014640521
FINAL SINGLE POINT ENERGY     -1339.880555905800

DIPOLE MOMENT
-------------
                                X             Y             Z
Electronic contribution:    -13.93540      10.81367     -25.52631
Nuclear contribution   :     14.19999     -10.81854      26.13779
                        -----------------------------------------
Total Dipole Moment    :      0.26459      -0.00487       0.61147
                        -----------------------------------------
Magnitude (a.u.)       :      0.66628
Magnitude (Debye)      :      1.69355

Rotational constants in cm-1:     0.018193     0.009496     0.006699
Rotational constants in MHz :   545.418352   284.673410   200.823930

                             ****ORCA TERMINATED NORMALLY****
TOTAL RUN TIME: 0 days 0 hours 0 minutes 22 seconds 70 msec
