                         Program Version 4.2.1 -  RELEASE  -
|  1> ! wB97X-D3 SP def2-SVP
|  2> %pal
|  3> nprocs 24
|  4> end
|  5>
|  6> * xyz 0 1
|  7> S 	 34.7197 	 -27.0764 	 -123.7
|  8> C 	 36.0758 	 -27.3054 	 -122.598
|  9> C 	 35.8827 	 -28.4354 	 -121.779
| 10> C 	 34.661 	 -29.0891 	 -122.057
| 11> C 	 33.9319 	 -28.539 	 -123.056
| 12> H 	 34.246 	 -29.9104 	 -121.48
| 13> C 	 36.7808 	 -28.9208 	 -120.675
| 14> H 	 37.7095 	 -28.3442 	 -120.706
| 15> H 	 37.146 	 -29.9075 	 -120.951
| 16> C 	 36.2568 	 -28.9464 	 -119.165
| 17> H 	 35.5001 	 -29.6627 	 -119.089
| 18> H 	 37.0328 	 -29.2788 	 -118.448
| 19> C 	 35.6923 	 -27.5769 	 -118.742
| 20> H 	 36.2007 	 -26.672 	 -119.124
| 21> H 	 34.6612 	 -27.4902 	 -119.023
| 22> H 	 35.6304 	 -27.4562 	 -117.645
| 23> S 	 32.5962 	 -29.3512 	 -125.291
| 24> C 	 30.9419 	 -29.9169 	 -125.056
| 25> C 	 30.5316 	 -29.8075 	 -123.75
| 26> C 	 31.5574 	 -29.3625 	 -122.847
| 27> C 	 32.6514 	 -28.9868 	 -123.584
| 28> H 	 29.5484 	 -30.1257 	 -123.503
| 29> C 	 31.4455 	 -29.4303 	 -121.335
| 30> H 	 30.4216 	 -29.2899 	 -121.048
| 31> H 	 32.1044 	 -28.6663 	 -120.888
| 32> C 	 31.5419 	 -30.8123 	 -120.642
| 33> H 	 32.4527 	 -31.4469 	 -120.872
| 34> H 	 30.7757 	 -31.4325 	 -121.048
| 35> C 	 31.4253 	 -30.6278 	 -119.158
| 36> H 	 31.8856 	 -31.453 	 -118.575
| 37> H 	 30.3961 	 -30.6945 	 -118.88
| 38> H 	 31.9892 	 -29.7462 	 -118.758
| 39> H 	 36.8933 	 -26.5857 	 -122.534
| 40> H 	 30.3362 	 -30.4424 	 -125.785
| 41> *
| 42>
| 43>                          ****END OF INPUT****

CARTESIAN COORDINATES (ANGSTROEM)
---------------------------------
  S     34.719700  -27.076400  -123.700000
  C     36.075800  -27.305400  -122.598000
  C     35.882700  -28.435400  -121.779000
  C     34.661000  -29.089100  -122.057000
  C     33.931900  -28.539000  -123.056000
  H     34.246000  -29.910400  -121.480000
  C     36.780800  -28.920800  -120.675000
  H     37.709500  -28.344200  -120.706000
  H     37.146000  -29.907500  -120.951000
  C     36.256800  -28.946400  -119.165000
  H     35.500100  -29.662700  -119.089000
  H     37.032800  -29.278800  -118.448000
  C     35.692300  -27.576900  -118.742000
  H     36.200700  -26.672000  -119.124000
  H     34.661200  -27.490200  -119.023000
  H     35.630400  -27.456200  -117.645000
  S     32.596200  -29.351200  -125.291000
  C     30.941900  -29.916900  -125.056000
  C     30.531600  -29.807500  -123.750000
  C     31.557400  -29.362500  -122.847000
  C     32.651400  -28.986800  -123.584000
  H     29.548400  -30.125700  -123.503000
  C     31.445500  -29.430300  -121.335000
  H     30.421600  -29.289900  -121.048000
  H     32.104400  -28.666300  -120.888000
  C     31.541900  -30.812300  -120.642000
  H     32.452700  -31.446900  -120.872000
  H     30.775700  -31.432500  -121.048000
  C     31.425300  -30.627800  -119.158000
  H     31.885600  -31.453000  -118.575000
  H     30.396100  -30.694500  -118.880000
  H     31.989200  -29.746200  -118.758000
  H     36.893300  -26.585700  -122.534000
  H     30.336200  -30.442400  -125.785000

 Total Charge           Charge          ....    0
 Multiplicity           Mult            ....    1
 Number of Electrons    NEL             ....  134
 Basis Dimension        Dim             ....  322

ORBITAL ENERGIES
----------------

  NO   OCC          E(Eh)            E(eV)
   0   2.0000     -88.968249     -2420.9491
   1   2.0000     -88.964017     -2420.8340
   2   2.0000     -10.324505      -280.9441
   3   2.0000     -10.322536      -280.8905
   4   2.0000     -10.317825      -280.7623
   5   2.0000     -10.316046      -280.7139
   6   2.0000     -10.303487      -280.3721
   7   2.0000     -10.301988      -280.3313
   8   2.0000     -10.296140      -280.1722
   9   2.0000     -10.293613      -280.1034
  10   2.0000     -10.292146      -280.0635
  11   2.0000     -10.292120      -280.0628
  12   2.0000     -10.291643      -280.0498
  13   2.0000     -10.287256      -279.9305
  14   2.0000     -10.282900      -279.8119
  15   2.0000     -10.276431      -279.6359
  16   2.0000      -8.082827      -219.9449
  17   2.0000      -8.078188      -219.8187
  18   2.0000      -6.041350      -164.3935
  19   2.0000      -6.037551      -164.2901
  20   2.0000      -6.036732      -164.2678
  21   2.0000      -6.033387      -164.1768
  22   2.0000      -6.032778      -164.1602
  23   2.0000      -6.028947      -164.0560
  24   2.0000      -1.006584       -27.3905
  25   2.0000      -0.981089       -26.6968
  26   2.0000      -0.916912       -24.9505
  27   2.0000      -0.902983       -24.5714
  28   2.0000      -0.867082       -23.5945
  29   2.0000      -0.857292       -23.3281
  30   2.0000      -0.845305       -23.0019
  31   2.0000      -0.814472       -22.1629
  32   2.0000      -0.784298       -21.3418
  33   2.0000      -0.770145       -20.9567
  34   2.0000      -0.709706       -19.3121
  35   2.0000      -0.701589       -19.0912
  36   2.0000      -0.693925       -18.8827
  37   2.0000      -0.663198       -18.0465
  38   2.0000      -0.640028       -17.4160
  39   2.0000      -0.622485       -16.9387
  40   2.0000      -0.599862       -16.3231
  41   2.0000      -0.575505       -15.6603
  42   2.0000      -0.557550       -15.1717
  43   2.0000      -0.546924       -14.8826
  44   2.0000      -0.537723       -14.6322
  45   2.0000      -0.526007       -14.3134
  46   2.0000      -0.521433       -14.1889
  47   2.0000      -0.515076       -14.0159
  48   2.0000      -0.497273       -13.5315
  49   2.0000      -0.493470       -13.4280
  50   2.0000      -0.486091       -13.2272
  51   2.0000      -0.483747       -13.1634
  52   2.0000      -0.468521       -12.7491
  53   2.0000      -0.466841       -12.7034
  54   2.0000      -0.454165       -12.3585
  55   2.0000      -0.453117       -12.3299
  56   2.0000      -0.443996       -12.0817
  57   2.0000      -0.441331       -12.0092
  58   2.0000      -0.433122       -11.7858
  59   2.0000      -0.430050       -11.7023
  60   2.0000      -0.423736       -11.5305
  61   2.0000      -0.420231       -11.4351
  62   2.0000      -0.412090       -11.2135
  63   2.0000      -0.347542        -9.4571
  64   2.0000      -0.331252        -9.0138
  65   2.0000      -0.329235        -8.9589
  66   2.0000      -0.290936        -7.9168
  67   0.0000       0.035708         0.9717
  68   0.0000       0.067194         1.8284
  69   0.0000       0.110852         3.0164
  70   0.0000       0.113460         3.0874
  71   0.0000       0.121505         3.3063

MULLIKEN ATOMIC CHARGES
-----------------------
   0 S :    0.100202
   1 C :   -0.129360
   2 C :   -0.077548
   3 C :    0.033103
   4 C :   -0.160804
   5 H :   -0.000697
   6 C :    0.059630
   7 H :    0.013087
   8 H :    0.031488
   9 C :   -0.048945
  10 H :    0.014274
  11 H :    0.039516
  12 C :   -0.062161
  13 H :    0.037207
  14 H :    0.025687
  15 H :    0.028670
  16 S :    0.121879
  17 C :   -0.090993
  18 C :   -0.028204
  19 C :    0.002980
  20 C :   -0.156023
  21 H :    0.001354
  22 C :    0.050392
  23 H :    0.011935
  24 H :    0.046521
  25 C :   -0.078255
  26 H :    0.034524
  27 H :    0.018026
  28 C :   -0.053027
  29 H :    0.030169
  30 H :    0.034826
  31 H :    0.043821
  32 H :    0.052345
  33 H :    0.054379
Sum of atomic charges:   -0.0000000

LOEWDIN ATOMIC CHARGES
----------------------
   0 S :    0.383105
   1 C :   -0.193468
   2 C :   -0.064018
   3 C :   -0.064762
   4 C :   -0.179938
   5 H :    0.032830
   6 C :   -0.033279
   7 H :    0.028156
   8 H :    0.032030
   9 C :   -0.032899
  10 H :    0.012803
  11 H :    0.030741
  12 C :   -0.073002
  13 H :    0.028258
  14 H :    0.022656
  15 H :    0.027613
  16 S :    0.404006
  17 C :   -0.182076
  18 C :   -0.063021
  19 C :   -0.052414
  20 C :   -0.198142
  21 H :    0.024487
  22 C :   -0.031458
  23 H :    0.033173
  24 H :    0.033765
  25 C :   -0.044534
  26 H :    0.021689
  27 H :    0.020583
  28 C :   -0.071240
  29 H :    0.031814
  30 H :    0.024687
  31 H :    0.033645
  32 H :    0.028083
  33 H :    0.030125

  Mayer bond orders larger than 0.100000
B(  0-S ,  1-C ) :   1.1354 B(  0-S ,  4-C ) :   1.1412 B(  1-C ,  2-C ) :   1.5983
B(  1-C , 32-H ) :   0.9672 B(  2-C ,  3-C ) :   1.2279 B(  2-C ,  6-C ) :   1.0326
B(  3-C ,  4-C ) :   1.5991 B(  3-C ,  5-H ) :   0.9968 B(  4-C , 20-C ) :   1.0159
B(  6-C ,  7-H ) :   0.9407 B(  6-C ,  8-H ) :   0.9385 B(  6-C ,  9-C ) :   1.0609
B(  9-C , 10-H ) :   0.9573 B(  9-C , 11-H ) :   0.9611 B(  9-C , 12-C ) :   1.0677
B( 12-C , 13-H ) :   0.9799 B( 12-C , 14-H ) :   0.9733 B( 12-C , 15-H ) :   0.9748
B( 16-S , 17-C ) :   1.1301 B( 16-S , 20-C ) :   1.1452 B( 17-C , 18-C ) :   1.6492
B( 17-C , 33-H ) :   0.9650 B( 18-C , 19-C ) :   1.2015 B( 18-C , 21-H ) :   0.9923
B( 19-C , 20-C ) :   1.6249 B( 19-C , 22-C ) :   1.0610 B( 22-C , 23-H ) :   0.9290
B( 22-C , 24-H ) :   0.9341 B( 22-C , 25-C ) :   1.0405 B( 25-C , 26-H ) :   0.9535
B( 25-C , 27-H ) :   0.9533 B( 25-C , 28-C ) :   1.0795 B( 28-C , 29-H ) :   0.9719
B( 28-C , 30-H ) :   0.9755 B( 28-C , 31-H ) :   0.9723

Dispersion correction           -0.015297808
FINAL SINGLE POINT ENERGY     -1339.880559505239

DIPOLE MOMENT
-------------
                                X             Y             Z
Electronic contribution:     -0.88993       7.28260     -31.35966
Nuclear contribution   :      0.68632      -7.76437      32.08903
                        -----------------------------------------
Total Dipole Moment    :     -0.20360      -0.48176       0.72937
                        -----------------------------------------
Magnitude (a.u.)       :      0.89752
Magnitude (Debye)      :      2.28130

Rotational constants in cm-1:     0.017228     0.010654     0.007153
Rotational constants in MHz :   516.475859   319.392583   214.454409

                             ****ORCA TERMINATED NORMALLY****
TOTAL RUN TIME: 0 days 0 hours 0 minutes 21 seconds 448 msec
