                         Program Version 4.2.1 -  RELEASE  -
|  1> ! wB97X-D3 SP def2-SVP
|  2> %pal
|  3> nprocs 24
|  4> end
|  5>
|  6> * xyz 0 1
|  7> S 	 34.3659 	 -1.85288 	 -119.723
|  8> C 	 35.2499 	 -3.3234 	 -120.252
|  9> C 	 35.746 	 -3.99067 	 -119.141
| 10> C 	 35.6702 	 -3.21124 	 -117.998
| 11> C 	 34.9112 	 -2.06118 	 -118.089
| 12> H 	 36.0585 	 -3.71684 	 -117.044
| 13> C 	 36.4336 	 -5.36494 	 -119.216
| 14> H 	 37.4618 	 -5.02469 	 -119.323
| 15> H 	 36.3272 	 -5.83499 	 -120.159
| 16> C 	 36.251 	 -6.37468 	 -118.075
| 17> H 	 36.6771 	 -5.9449 	 -117.188
| 18> H 	 35.2075 	 -6.46738 	 -118.048
| 19> C 	 36.8667 	 -7.71214 	 -118.38
| 20> H 	 37.3271 	 -8.19463 	 -117.484
| 21> H 	 36.1109 	 -8.39276 	 -118.759
| 22> H 	 37.6448 	 -7.69126 	 -119.148
| 23> S 	 32.63 	 -0.889531 	 -117.11
| 24> C 	 32.5626 	 -0.296269 	 -115.474
| 25> C 	 33.8127 	 -0.241457 	 -114.925
| 26> C 	 34.8126 	 -0.928166 	 -115.706
| 27> C 	 34.283 	 -1.32368 	 -116.97
| 28> H 	 33.8553 	 0.286519 	 -114.026
| 29> C 	 36.2838 	 -1.10408 	 -115.213
| 30> H 	 36.757 	 -0.13122 	 -115.105
| 31> H 	 36.9119 	 -1.54802 	 -115.976
| 32> C 	 36.408 	 -2.02026 	 -114.002
| 33> H 	 36.208 	 -3.05246 	 -114.383
| 34> H 	 35.5813 	 -1.81892 	 -113.275
| 35> C 	 37.7436 	 -1.90694 	 -113.344
| 36> H 	 38.087 	 -2.83404 	 -112.868
| 37> H 	 37.6546 	 -1.21065 	 -112.615
| 38> H 	 38.5193 	 -1.59545 	 -114.061
| 39> H 	 35.2406 	 -3.69696 	 -121.282
| 40> H 	 31.7163 	 0.266025 	 -115.092
| 41> *
| 42>
| 43>                          ****END OF INPUT****

CARTESIAN COORDINATES (ANGSTROEM)
---------------------------------
  S     34.365900   -1.852880  -119.723000
  C     35.249900   -3.323400  -120.252000
  C     35.746000   -3.990670  -119.141000
  C     35.670200   -3.211240  -117.998000
  C     34.911200   -2.061180  -118.089000
  H     36.058500   -3.716840  -117.044000
  C     36.433600   -5.364940  -119.216000
  H     37.461800   -5.024690  -119.323000
  H     36.327200   -5.834990  -120.159000
  C     36.251000   -6.374680  -118.075000
  H     36.677100   -5.944900  -117.188000
  H     35.207500   -6.467380  -118.048000
  C     36.866700   -7.712140  -118.380000
  H     37.327100   -8.194630  -117.484000
  H     36.110900   -8.392760  -118.759000
  H     37.644800   -7.691260  -119.148000
  S     32.630000   -0.889531  -117.110000
  C     32.562600   -0.296269  -115.474000
  C     33.812700   -0.241457  -114.925000
  C     34.812600   -0.928166  -115.706000
  C     34.283000   -1.323680  -116.970000
  H     33.855300    0.286519  -114.026000
  C     36.283800   -1.104080  -115.213000
  H     36.757000   -0.131220  -115.105000
  H     36.911900   -1.548020  -115.976000
  C     36.408000   -2.020260  -114.002000
  H     36.208000   -3.052460  -114.383000
  H     35.581300   -1.818920  -113.275000
  C     37.743600   -1.906940  -113.344000
  H     38.087000   -2.834040  -112.868000
  H     37.654600   -1.210650  -112.615000
  H     38.519300   -1.595450  -114.061000
  H     35.240600   -3.696960  -121.282000
  H     31.716300    0.266025  -115.092000

 Total Charge           Charge          ....    0
 Multiplicity           Mult            ....    1
 Number of Electrons    NEL             ....  134
 Basis Dimension        Dim             ....  322

ORBITAL ENERGIES
----------------

  NO   OCC          E(Eh)            E(eV)
   0   2.0000     -88.967713     -2420.9345
   1   2.0000     -88.964208     -2420.8392
   2   2.0000     -10.333192      -281.1804
   3   2.0000     -10.331374      -281.1310
   4   2.0000     -10.316378      -280.7229
   5   2.0000     -10.311322      -280.5853
   6   2.0000     -10.309723      -280.5418
   7   2.0000     -10.300624      -280.2942
   8   2.0000     -10.295179      -280.1461
   9   2.0000     -10.290572      -280.0207
  10   2.0000     -10.290406      -280.0162
  11   2.0000     -10.289681      -279.9964
  12   2.0000     -10.285852      -279.8923
  13   2.0000     -10.283692      -279.8335
  14   2.0000     -10.281829      -279.7828
  15   2.0000     -10.268975      -279.4330
  16   2.0000      -8.081903      -219.9198
  17   2.0000      -8.079742      -219.8610
  18   2.0000      -6.040441      -164.3687
  19   2.0000      -6.038220      -164.3083
  20   2.0000      -6.036510      -164.2618
  21   2.0000      -6.034129      -164.1970
  22   2.0000      -6.032649      -164.1567
  23   2.0000      -6.030494      -164.0981
  24   2.0000      -1.007960       -27.4280
  25   2.0000      -0.985349       -26.8127
  26   2.0000      -0.917743       -24.9731
  27   2.0000      -0.911338       -24.7988
  28   2.0000      -0.872863       -23.7518
  29   2.0000      -0.850175       -23.1344
  30   2.0000      -0.846323       -23.0296
  31   2.0000      -0.815696       -22.1962
  32   2.0000      -0.785124       -21.3643
  33   2.0000      -0.772669       -21.0254
  34   2.0000      -0.713516       -19.4158
  35   2.0000      -0.696139       -18.9429
  36   2.0000      -0.692558       -18.8455
  37   2.0000      -0.657819       -17.9002
  38   2.0000      -0.636753       -17.3269
  39   2.0000      -0.622496       -16.9390
  40   2.0000      -0.599109       -16.3026
  41   2.0000      -0.578436       -15.7400
  42   2.0000      -0.567337       -15.4380
  43   2.0000      -0.562036       -15.2938
  44   2.0000      -0.527045       -14.3416
  45   2.0000      -0.522589       -14.2204
  46   2.0000      -0.519218       -14.1286
  47   2.0000      -0.509264       -13.8578
  48   2.0000      -0.505190       -13.7469
  49   2.0000      -0.501687       -13.6516
  50   2.0000      -0.496364       -13.5067
  51   2.0000      -0.476469       -12.9654
  52   2.0000      -0.473412       -12.8822
  53   2.0000      -0.467686       -12.7264
  54   2.0000      -0.460450       -12.5295
  55   2.0000      -0.451980       -12.2990
  56   2.0000      -0.449744       -12.2382
  57   2.0000      -0.435230       -11.8432
  58   2.0000      -0.431170       -11.7327
  59   2.0000      -0.428562       -11.6618
  60   2.0000      -0.421170       -11.4606
  61   2.0000      -0.415373       -11.3029
  62   2.0000      -0.409852       -11.1526
  63   2.0000      -0.353221        -9.6116
  64   2.0000      -0.334080        -9.0908
  65   2.0000      -0.326961        -8.8970
  66   2.0000      -0.283717        -7.7203
  67   0.0000       0.024980         0.6797
  68   0.0000       0.074159         2.0180
  69   0.0000       0.111642         3.0379
  70   0.0000       0.124255         3.3811
  71   0.0000       0.125939         3.4270

MULLIKEN ATOMIC CHARGES
-----------------------
   0 S :    0.094825
   1 C :   -0.143631
   2 C :   -0.089390
   3 C :   -0.010227
   4 C :   -0.106988
   5 H :    0.033410
   6 C :    0.041161
   7 H :    0.034558
   8 H :   -0.000004
   9 C :   -0.028736
  10 H :    0.032721
  11 H :    0.031746
  12 C :   -0.057737
  13 H :    0.040762
  14 H :    0.034151
  15 H :    0.028213
  16 S :    0.101731
  17 C :   -0.106611
  18 C :   -0.014207
  19 C :   -0.041415
  20 C :   -0.132987
  21 H :    0.001674
  22 C :    0.056492
  23 H :    0.032693
  24 H :    0.014456
  25 C :   -0.104199
  26 H :    0.028473
  27 H :    0.034224
  28 C :    0.005381
  29 H :    0.031081
  30 H :    0.011473
  31 H :    0.030380
  32 H :    0.055273
  33 H :    0.061255
Sum of atomic charges:   -0.0000000

LOEWDIN ATOMIC CHARGES
----------------------
   0 S :    0.396641
   1 C :   -0.192767
   2 C :   -0.060762
   3 C :   -0.080349
   4 C :   -0.193071
   5 H :    0.041386
   6 C :   -0.032221
   7 H :    0.036059
   8 H :    0.021697
   9 C :   -0.035164
  10 H :    0.022098
  11 H :    0.024904
  12 C :   -0.066573
  13 H :    0.033852
  14 H :    0.028483
  15 H :    0.024290
  16 S :    0.420673
  17 C :   -0.195273
  18 C :   -0.062125
  19 C :   -0.054525
  20 C :   -0.203278
  21 H :    0.024628
  22 C :   -0.033440
  23 H :    0.029387
  24 H :    0.026793
  25 C :   -0.045125
  26 H :    0.024128
  27 H :    0.024882
  28 C :   -0.058135
  29 H :    0.029914
  30 H :    0.013471
  31 H :    0.028837
  32 H :    0.030414
  33 H :    0.030269

  Mayer bond orders larger than 0.100000
B(  0-S ,  1-C ) :   1.1281 B(  0-S ,  4-C ) :   1.1650 B(  1-C ,  2-C ) :   1.5820
B(  1-C ,  4-C ) :   0.1065 B(  1-C , 32-H ) :   0.9693 B(  2-C ,  3-C ) :   1.3131
B(  2-C ,  6-C ) :   1.0049 B(  3-C ,  4-C ) :   1.5211 B(  3-C ,  5-H ) :   0.9697
B(  4-C , 20-C ) :   1.0460 B(  6-C ,  7-H ) :   0.9317 B(  6-C ,  8-H ) :   0.9446
B(  6-C ,  9-C ) :   1.0589 B(  9-C , 10-H ) :   0.9502 B(  9-C , 11-H ) :   0.9660
B(  9-C , 12-C ) :   1.0827 B( 12-C , 13-H ) :   0.9754 B( 12-C , 14-H ) :   0.9751
B( 12-C , 15-H ) :   0.9763 B( 16-S , 17-C ) :   1.1501 B( 16-S , 20-C ) :   1.1654
B( 17-C , 18-C ) :   1.6202 B( 17-C , 33-H ) :   0.9638 B( 18-C , 19-C ) :   1.2320
B( 18-C , 21-H ) :   0.9994 B( 19-C , 20-C ) :   1.5663 B( 19-C , 22-C ) :   1.0348
B( 22-C , 23-H ) :   0.9471 B( 22-C , 24-H ) :   0.9275 B( 22-C , 25-C ) :   1.0537
B( 25-C , 26-H ) :   0.9543 B( 25-C , 27-H ) :   0.9654 B( 25-C , 28-C ) :   1.0698
B( 28-C , 29-H ) :   0.9725 B( 28-C , 30-H ) :   0.9743 B( 28-C , 31-H ) :   0.9716

Dispersion correction           -0.013474517
FINAL SINGLE POINT ENERGY     -1339.862828072283

DIPOLE MOMENT
-------------
                                X             Y             Z
Electronic contribution:    -20.78368      19.37570     -13.71195
Nuclear contribution   :     21.20234     -19.81093      14.05230
                        -----------------------------------------
Total Dipole Moment    :      0.41866      -0.43523       0.34035
                        -----------------------------------------
Magnitude (a.u.)       :      0.69321
Magnitude (Debye)      :      1.76199

Rotational constants in cm-1:     0.015535     0.009188     0.006468
Rotational constants in MHz :   465.728356   275.464184   193.904074

                             ****ORCA TERMINATED NORMALLY****
TOTAL RUN TIME: 0 days 0 hours 0 minutes 21 seconds 213 msec
