                         Program Version 4.2.1 -  RELEASE  -
|  1> ! wB97X-D3 SP def2-SVP
|  2> %pal
|  3> nprocs 24
|  4> end
|  5>
|  6> * xyz 0 1
|  7> S 	 -125.031 	 65.4607 	 -50.822
|  8> C 	 -123.533 	 66.3296 	 -51.0118
|  9> C 	 -123.822 	 67.6101 	 -51.393
| 10> C 	 -125.186 	 67.9294 	 -51.2492
| 11> C 	 -126.015 	 66.8288 	 -51.0167
| 12> H 	 -125.59 	 68.934 	 -51.3491
| 13> C 	 -122.861 	 68.7115 	 -51.8622
| 14> H 	 -122.079 	 68.6197 	 -51.1585
| 15> H 	 -123.307 	 69.711 	 -51.6601
| 16> C 	 -122.47 	 68.5676 	 -53.3058
| 17> H 	 -122.017 	 67.6263 	 -53.5243
| 18> H 	 -123.403 	 68.5575 	 -53.9163
| 19> C 	 -121.548 	 69.6714 	 -53.831
| 20> H 	 -122.028 	 70.6207 	 -53.9493
| 21> H 	 -120.727 	 69.7343 	 -53.111
| 22> H 	 -121.092 	 69.4197 	 -54.7875
| 23> S 	 -128.145 	 65.3476 	 -51.8874
| 24> C 	 -129.716 	 65.9184 	 -51.6257
| 25> C 	 -129.747 	 67.0574 	 -50.8451
| 26> C 	 -128.465 	 67.6307 	 -50.6294
| 27> C 	 -127.46 	 66.7811 	 -51.0929
| 28> H 	 -130.708 	 67.4336 	 -50.5592
| 29> C 	 -128.278 	 69.0519 	 -50.0371
| 30> H 	 -129.273 	 69.4423 	 -50.1733
| 31> H 	 -127.647 	 69.5546 	 -50.7103
| 32> C 	 -127.916 	 69.124 	 -48.6241
| 33> H 	 -126.867 	 68.8809 	 -48.5162
| 34> H 	 -128.431 	 68.3196 	 -48.0435
| 35> C 	 -128.236 	 70.4167 	 -47.893
| 36> H 	 -127.678 	 71.3034 	 -48.2899
| 37> H 	 -127.95 	 70.3117 	 -46.8847
| 38> H 	 -129.309 	 70.5991 	 -47.9616
| 39> H 	 -122.562 	 65.9548 	 -50.8959
| 40> H 	 -130.514 	 65.3284 	 -51.9011
| 41> *
| 42>
| 43>                          ****END OF INPUT****

CARTESIAN COORDINATES (ANGSTROEM)
---------------------------------
  S    -125.031000   65.460700  -50.822000
  C    -123.533000   66.329600  -51.011800
  C    -123.822000   67.610100  -51.393000
  C    -125.186000   67.929400  -51.249200
  C    -126.015000   66.828800  -51.016700
  H    -125.590000   68.934000  -51.349100
  C    -122.861000   68.711500  -51.862200
  H    -122.079000   68.619700  -51.158500
  H    -123.307000   69.711000  -51.660100
  C    -122.470000   68.567600  -53.305800
  H    -122.017000   67.626300  -53.524300
  H    -123.403000   68.557500  -53.916300
  C    -121.548000   69.671400  -53.831000
  H    -122.028000   70.620700  -53.949300
  H    -120.727000   69.734300  -53.111000
  H    -121.092000   69.419700  -54.787500
  S    -128.145000   65.347600  -51.887400
  C    -129.716000   65.918400  -51.625700
  C    -129.747000   67.057400  -50.845100
  C    -128.465000   67.630700  -50.629400
  C    -127.460000   66.781100  -51.092900
  H    -130.708000   67.433600  -50.559200
  C    -128.278000   69.051900  -50.037100
  H    -129.273000   69.442300  -50.173300
  H    -127.647000   69.554600  -50.710300
  C    -127.916000   69.124000  -48.624100
  H    -126.867000   68.880900  -48.516200
  H    -128.431000   68.319600  -48.043500
  C    -128.236000   70.416700  -47.893000
  H    -127.678000   71.303400  -48.289900
  H    -127.950000   70.311700  -46.884700
  H    -129.309000   70.599100  -47.961600
  H    -122.562000   65.954800  -50.895900
  H    -130.514000   65.328400  -51.901100

 Total Charge           Charge          ....    0
 Multiplicity           Mult            ....    1
 Number of Electrons    NEL             ....  134
 Basis Dimension        Dim             ....  322

ORBITAL ENERGIES
----------------

  NO   OCC          E(Eh)            E(eV)
   0   2.0000     -88.965637     -2420.8781
   1   2.0000     -88.963977     -2420.8329
   2   2.0000     -10.327618      -281.0288
   3   2.0000     -10.325597      -280.9738
   4   2.0000     -10.307399      -280.4786
   5   2.0000     -10.306950      -280.4664
   6   2.0000     -10.305062      -280.4150
   7   2.0000     -10.295944      -280.1669
   8   2.0000     -10.291692      -280.0512
   9   2.0000     -10.289309      -279.9863
  10   2.0000     -10.287403      -279.9345
  11   2.0000     -10.286033      -279.8972
  12   2.0000     -10.283203      -279.8202
  13   2.0000     -10.279349      -279.7153
  14   2.0000     -10.276038      -279.6252
  15   2.0000     -10.275337      -279.6061
  16   2.0000      -8.081251      -219.9020
  17   2.0000      -8.079709      -219.8601
  18   2.0000      -6.039740      -164.3497
  19   2.0000      -6.038023      -164.3030
  20   2.0000      -6.035511      -164.2346
  21   2.0000      -6.034065      -164.1953
  22   2.0000      -6.032086      -164.1414
  23   2.0000      -6.030634      -164.1019
  24   2.0000      -1.013661       -27.5831
  25   2.0000      -0.990961       -26.9654
  26   2.0000      -0.919141       -25.0111
  27   2.0000      -0.915377       -24.9087
  28   2.0000      -0.872242       -23.7349
  29   2.0000      -0.856919       -23.3179
  30   2.0000      -0.846092       -23.0233
  31   2.0000      -0.812354       -22.1053
  32   2.0000      -0.789729       -21.4896
  33   2.0000      -0.778281       -21.1781
  34   2.0000      -0.708317       -19.2743
  35   2.0000      -0.702264       -19.1096
  36   2.0000      -0.693792       -18.8791
  37   2.0000      -0.667679       -18.1685
  38   2.0000      -0.640945       -17.4410
  39   2.0000      -0.620897       -16.8955
  40   2.0000      -0.600460       -16.3394
  41   2.0000      -0.573475       -15.6050
  42   2.0000      -0.572993       -15.5919
  43   2.0000      -0.560420       -15.2498
  44   2.0000      -0.532766       -14.4973
  45   2.0000      -0.524564       -14.2741
  46   2.0000      -0.522603       -14.2207
  47   2.0000      -0.517421       -14.0797
  48   2.0000      -0.507316       -13.8048
  49   2.0000      -0.505590       -13.7578
  50   2.0000      -0.494839       -13.4653
  51   2.0000      -0.488066       -13.2810
  52   2.0000      -0.476744       -12.9729
  53   2.0000      -0.465283       -12.6610
  54   2.0000      -0.461914       -12.5693
  55   2.0000      -0.451323       -12.2811
  56   2.0000      -0.446204       -12.1418
  57   2.0000      -0.438453       -11.9309
  58   2.0000      -0.436839       -11.8870
  59   2.0000      -0.421520       -11.4701
  60   2.0000      -0.414306       -11.2738
  61   2.0000      -0.413049       -11.2396
  62   2.0000      -0.410530       -11.1711
  63   2.0000      -0.354840        -9.6557
  64   2.0000      -0.334340        -9.0978
  65   2.0000      -0.330289        -8.9876
  66   2.0000      -0.282425        -7.6852
  67   0.0000       0.028844         0.7849
  68   0.0000       0.074308         2.0220
  69   0.0000       0.117439         3.1957
  70   0.0000       0.121787         3.3140
  71   0.0000       0.138018         3.7557

MULLIKEN ATOMIC CHARGES
-----------------------
   0 S :    0.112336
   1 C :   -0.105089
   2 C :   -0.100688
   3 C :    0.004611
   4 C :   -0.120877
   5 H :    0.000438
   6 C :    0.088450
   7 H :    0.011285
   8 H :    0.020485
   9 C :   -0.068081
  10 H :    0.019184
  11 H :    0.030112
  12 C :   -0.022299
  13 H :    0.030146
  14 H :    0.021948
  15 H :    0.031452
  16 S :    0.105822
  17 C :   -0.065269
  18 C :   -0.031644
  19 C :   -0.067946
  20 C :   -0.152915
  21 H :    0.009202
  22 C :    0.136857
  23 H :   -0.002736
  24 H :    0.018423
  25 C :   -0.073987
  26 H :    0.027082
  27 H :    0.030186
  28 C :   -0.030748
  29 H :    0.031900
  30 H :    0.028357
  31 H :    0.029602
  32 H :    0.024230
  33 H :    0.030171
Sum of atomic charges:   -0.0000000

LOEWDIN ATOMIC CHARGES
----------------------
   0 S :    0.435631
   1 C :   -0.201252
   2 C :   -0.057447
   3 C :   -0.075488
   4 C :   -0.210986
   5 H :    0.025795
   6 C :   -0.026896
   7 H :    0.022316
   8 H :    0.032219
   9 C :   -0.041939
  10 H :    0.020671
  11 H :    0.029511
  12 C :   -0.061457
  13 H :    0.020847
  14 H :    0.024380
  15 H :    0.027371
  16 S :    0.419431
  17 C :   -0.188852
  18 C :   -0.070315
  19 C :   -0.048436
  20 C :   -0.187412
  21 H :    0.027929
  22 C :   -0.021628
  23 H :    0.028792
  24 H :    0.022913
  25 C :   -0.047918
  26 H :    0.024381
  27 H :    0.032385
  28 C :   -0.059791
  29 H :    0.027659
  30 H :    0.022140
  31 H :    0.023803
  32 H :    0.020099
  33 H :    0.011546

  Mayer bond orders larger than 0.100000
B(  0-S ,  1-C ) :   1.1350 B(  0-S ,  4-C ) :   1.1803 B(  1-C ,  2-C ) :   1.5791
B(  1-C ,  4-C ) :   0.1020 B(  1-C , 32-H ) :   0.9834 B(  2-C ,  3-C ) :   1.2966
B(  2-C ,  6-C ) :   1.0078 B(  3-C ,  4-C ) :   1.5061 B(  3-C ,  5-H ) :   0.9946
B(  4-C , 20-C ) :   1.0695 B(  6-C ,  7-H ) :   0.9315 B(  6-C ,  8-H ) :   0.9456
B(  6-C ,  9-C ) :   1.0672 B(  9-C , 10-H ) :   0.9554 B(  9-C , 11-H ) :   0.9521
B(  9-C , 12-C ) :   1.0863 B( 12-C , 13-H ) :   0.9761 B( 12-C , 14-H ) :   0.9731
B( 12-C , 15-H ) :   0.9741 B( 16-S , 17-C ) :   1.1767 B( 16-S , 20-C ) :   1.1479
B( 17-C , 18-C ) :   1.5858 B( 17-C , 20-C ) :   0.1036 B( 17-C , 33-H ) :   0.9773
B( 18-C , 19-C ) :   1.2589 B( 18-C , 21-H ) :   0.9939 B( 19-C , 20-C ) :   1.5779
B( 19-C , 22-C ) :   1.0182 B( 22-C , 23-H ) :   0.9235 B( 22-C , 24-H ) :   0.9292
B( 22-C , 25-C ) :   1.0747 B( 25-C , 26-H ) :   0.9460 B( 25-C , 27-H ) :   0.9508
B( 25-C , 28-C ) :   1.0944 B( 28-C , 29-H ) :   0.9723 B( 28-C , 30-H ) :   0.9729
B( 28-C , 31-H ) :   0.9742

Dispersion correction           -0.013678675
FINAL SINGLE POINT ENERGY     -1339.879925856225

DIPOLE MOMENT
-------------
                                X             Y             Z
Electronic contribution:     -9.47663     -25.32858      -2.37454
Nuclear contribution   :      9.51387      25.86903       2.41500
                        -----------------------------------------
Total Dipole Moment    :      0.03724       0.54045       0.04046
                        -----------------------------------------
Magnitude (a.u.)       :      0.54324
Magnitude (Debye)      :      1.38081

Rotational constants in cm-1:     0.017544     0.008251     0.006594
Rotational constants in MHz :   525.961722   247.345140   197.673607

                             ****ORCA TERMINATED NORMALLY****
TOTAL RUN TIME: 0 days 0 hours 0 minutes 21 seconds 268 msec
