                         Program Version 4.2.1 -  RELEASE  -
|  1> ! wB97X-D3 SP def2-SVP
|  2> %pal
|  3> nprocs 24
|  4> end
|  5>
|  6> * xyz 0 1
|  7> S 	 -50.6541 	 20.1868 	 -101.149
|  8> C 	 -51.8125 	 19.0287 	 -100.625
|  9> C 	 -52.8414 	 18.8548 	 -101.521
| 10> C 	 -52.702 	 19.6584 	 -102.67
| 11> C 	 -51.5033 	 20.4511 	 -102.669
| 12> H 	 -53.4803 	 19.703 	 -103.437
| 13> C 	 -54.0158 	 17.9547 	 -101.282
| 14> H 	 -53.8567 	 17.3651 	 -100.382
| 15> H 	 -53.969 	 17.0824 	 -101.962
| 16> C 	 -55.4392 	 18.5146 	 -101.085
| 17> H 	 -55.9982 	 18.74 	 -102.038
| 18> H 	 -56.0706 	 17.7507 	 -100.55
| 19> C 	 -55.5895 	 19.7577 	 -100.197
| 20> H 	 -55.0732 	 19.4923 	 -99.2322
| 21> H 	 -55.0918 	 20.607 	 -100.665
| 22> H 	 -56.576 	 19.9957 	 -100.071
| 23> S 	 -50.8037 	 23.0737 	 -103.253
| 24> C 	 -50.5913 	 23.5575 	 -104.921
| 25> C 	 -50.8641 	 22.5218 	 -105.75
| 26> C 	 -51.0016 	 21.2655 	 -105.07
| 27> C 	 -51.1528 	 21.4068 	 -103.693
| 28> H 	 -50.9302 	 22.6577 	 -106.78
| 29> C 	 -51.0752 	 19.9086 	 -105.812
| 30> H 	 -51.2878 	 19.0774 	 -105.126
| 31> H 	 -50.1698 	 19.6932 	 -106.359
| 32> C 	 -52.2172 	 19.8937 	 -106.819
| 33> H 	 -52.1437 	 18.9637 	 -107.264
| 34> H 	 -52.1584 	 20.6121 	 -107.638
| 35> C 	 -53.6411 	 19.8767 	 -106.112
| 36> H 	 -53.6785 	 20.7476 	 -105.477
| 37> H 	 -53.8611 	 18.9422 	 -105.51
| 38> H 	 -54.3813 	 20.0365 	 -106.845
| 39> H 	 -51.4955 	 18.5042 	 -99.7831
| 40> H 	 -50.6644 	 24.5196 	 -105.276
| 41> *
| 42>
| 43>                          ****END OF INPUT****

CARTESIAN COORDINATES (ANGSTROEM)
---------------------------------
  S    -50.654100   20.186800  -101.149000
  C    -51.812500   19.028700  -100.625000
  C    -52.841400   18.854800  -101.521000
  C    -52.702000   19.658400  -102.670000
  C    -51.503300   20.451100  -102.669000
  H    -53.480300   19.703000  -103.437000
  C    -54.015800   17.954700  -101.282000
  H    -53.856700   17.365100  -100.382000
  H    -53.969000   17.082400  -101.962000
  C    -55.439200   18.514600  -101.085000
  H    -55.998200   18.740000  -102.038000
  H    -56.070600   17.750700  -100.550000
  C    -55.589500   19.757700  -100.197000
  H    -55.073200   19.492300  -99.232200
  H    -55.091800   20.607000  -100.665000
  H    -56.576000   19.995700  -100.071000
  S    -50.803700   23.073700  -103.253000
  C    -50.591300   23.557500  -104.921000
  C    -50.864100   22.521800  -105.750000
  C    -51.001600   21.265500  -105.070000
  C    -51.152800   21.406800  -103.693000
  H    -50.930200   22.657700  -106.780000
  C    -51.075200   19.908600  -105.812000
  H    -51.287800   19.077400  -105.126000
  H    -50.169800   19.693200  -106.359000
  C    -52.217200   19.893700  -106.819000
  H    -52.143700   18.963700  -107.264000
  H    -52.158400   20.612100  -107.638000
  C    -53.641100   19.876700  -106.112000
  H    -53.678500   20.747600  -105.477000
  H    -53.861100   18.942200  -105.510000
  H    -54.381300   20.036500  -106.845000
  H    -51.495500   18.504200  -99.783100
  H    -50.664400   24.519600  -105.276000

 Total Charge           Charge          ....    0
 Multiplicity           Mult            ....    1
 Number of Electrons    NEL             ....  134
 Basis Dimension        Dim             ....  322

ORBITAL ENERGIES
----------------

  NO   OCC          E(Eh)            E(eV)
   0   2.0000     -88.968385     -2420.9528
   1   2.0000     -88.961275     -2420.7594
   2   2.0000     -10.335382      -281.2400
   3   2.0000     -10.327159      -281.0163
   4   2.0000     -10.310168      -280.5539
   5   2.0000     -10.308117      -280.4981
   6   2.0000     -10.303508      -280.3727
   7   2.0000     -10.300948      -280.3030
   8   2.0000     -10.298885      -280.2469
   9   2.0000     -10.293935      -280.1122
  10   2.0000     -10.293606      -280.1033
  11   2.0000     -10.290083      -280.0074
  12   2.0000     -10.288235      -279.9571
  13   2.0000     -10.281899      -279.7847
  14   2.0000     -10.278727      -279.6984
  15   2.0000     -10.270667      -279.4791
  16   2.0000      -8.083566      -219.9650
  17   2.0000      -8.076180      -219.7640
  18   2.0000      -6.041921      -164.4090
  19   2.0000      -6.037832      -164.2978
  20   2.0000      -6.034775      -164.2146
  21   2.0000      -6.034650      -164.2112
  22   2.0000      -6.030666      -164.1028
  23   2.0000      -6.026821      -163.9982
  24   2.0000      -1.006278       -27.3822
  25   2.0000      -0.986730       -26.8503
  26   2.0000      -0.909525       -24.7494
  27   2.0000      -0.907578       -24.6965
  28   2.0000      -0.873454       -23.7679
  29   2.0000      -0.851709       -23.1762
  30   2.0000      -0.839619       -22.8472
  31   2.0000      -0.816588       -22.2205
  32   2.0000      -0.785659       -21.3789
  33   2.0000      -0.776466       -21.1287
  34   2.0000      -0.711732       -19.3672
  35   2.0000      -0.698983       -19.0203
  36   2.0000      -0.690975       -18.8024
  37   2.0000      -0.658110       -17.9081
  38   2.0000      -0.646860       -17.6020
  39   2.0000      -0.623879       -16.9766
  40   2.0000      -0.600567       -16.3423
  41   2.0000      -0.568373       -15.4662
  42   2.0000      -0.557984       -15.1835
  43   2.0000      -0.553686       -15.0666
  44   2.0000      -0.543913       -14.8006
  45   2.0000      -0.538971       -14.6661
  46   2.0000      -0.521156       -14.1814
  47   2.0000      -0.513588       -13.9754
  48   2.0000      -0.502610       -13.6767
  49   2.0000      -0.497308       -13.5324
  50   2.0000      -0.490708       -13.3528
  51   2.0000      -0.475211       -12.9312
  52   2.0000      -0.469154       -12.7663
  53   2.0000      -0.463518       -12.6130
  54   2.0000      -0.460677       -12.5356
  55   2.0000      -0.449724       -12.2376
  56   2.0000      -0.443915       -12.0796
  57   2.0000      -0.440271       -11.9804
  58   2.0000      -0.434338       -11.8189
  59   2.0000      -0.428293       -11.6544
  60   2.0000      -0.416902       -11.3445
  61   2.0000      -0.408587       -11.1182
  62   2.0000      -0.404992       -11.0204
  63   2.0000      -0.349144        -9.5007
  64   2.0000      -0.334783        -9.1099
  65   2.0000      -0.327486        -8.9113
  66   2.0000      -0.290429        -7.9030
  67   0.0000       0.027733         0.7547
  68   0.0000       0.065766         1.7896
  69   0.0000       0.116444         3.1686
  70   0.0000       0.119672         3.2564
  71   0.0000       0.132096         3.5945

MULLIKEN ATOMIC CHARGES
-----------------------
   0 S :    0.119721
   1 C :   -0.121662
   2 C :   -0.059364
   3 C :    0.037112
   4 C :   -0.163603
   5 H :   -0.001292
   6 C :    0.086050
   7 H :    0.001424
   8 H :    0.034642
   9 C :   -0.128591
  10 H :    0.033771
  11 H :    0.035955
  12 C :   -0.018429
  13 H :    0.030605
  14 H :    0.039636
  15 H :    0.019744
  16 S :    0.090942
  17 C :   -0.036552
  18 C :   -0.031359
  19 C :   -0.055995
  20 C :   -0.149295
  21 H :   -0.001380
  22 C :    0.094723
  23 H :    0.028536
  24 H :    0.032600
  25 C :   -0.079437
  26 H :    0.009749
  27 H :    0.030956
  28 C :   -0.067031
  29 H :    0.045001
  30 H :    0.051294
  31 H :    0.022566
  32 H :    0.034725
  33 H :    0.034239
Sum of atomic charges:   -0.0000000

LOEWDIN ATOMIC CHARGES
----------------------
   0 S :    0.425769
   1 C :   -0.189834
   2 C :   -0.070630
   3 C :   -0.054367
   4 C :   -0.196317
   5 H :    0.032129
   6 C :   -0.044613
   7 H :    0.031811
   8 H :    0.038418
   9 C :   -0.048159
  10 H :    0.021539
  11 H :    0.030423
  12 C :   -0.056784
  13 H :    0.030152
  14 H :    0.026705
  15 H :    0.013163
  16 S :    0.393848
  17 C :   -0.172558
  18 C :   -0.059299
  19 C :   -0.053845
  20 C :   -0.197075
  21 H :    0.020871
  22 C :   -0.024209
  23 H :    0.033287
  24 H :    0.030726
  25 C :   -0.034437
  26 H :    0.014406
  27 H :    0.020750
  28 C :   -0.064371
  29 H :    0.021289
  30 H :    0.031684
  31 H :    0.019097
  32 H :    0.013684
  33 H :    0.016749

  Mayer bond orders larger than 0.100000
B(  0-S ,  1-C ) :   1.1660 B(  0-S ,  4-C ) :   1.1736 B(  1-C ,  2-C ) :   1.5446
B(  1-C ,  4-C ) :   0.1058 B(  1-C , 32-H ) :   0.9792 B(  2-C ,  3-C ) :   1.2945
B(  2-C ,  6-C ) :   1.0370 B(  3-C ,  4-C ) :   1.5003 B(  3-C ,  5-H ) :   0.9864
B(  4-C , 20-C ) :   1.0682 B(  6-C ,  7-H ) :   0.9303 B(  6-C ,  8-H ) :   0.9328
B(  6-C ,  9-C ) :   1.0583 B(  9-C , 10-H ) :   0.9561 B(  9-C , 11-H ) :   0.9597
B(  9-C , 12-C ) :   1.0832 B( 12-C , 13-H ) :   0.9757 B( 12-C , 14-H ) :   0.9707
B( 12-C , 15-H ) :   0.9731 B( 16-S , 17-C ) :   1.1414 B( 16-S , 20-C ) :   1.1318
B( 17-C , 18-C ) :   1.6422 B( 17-C , 33-H ) :   0.9667 B( 18-C , 19-C ) :   1.2170
B( 18-C , 21-H ) :   0.9958 B( 19-C , 20-C ) :   1.5993 B( 19-C , 22-C ) :   1.0423
B( 22-C , 23-H ) :   0.9361 B( 22-C , 24-H ) :   0.9346 B( 22-C , 25-C ) :   1.0776
B( 25-C , 26-H ) :   0.9525 B( 25-C , 27-H ) :   0.9585 B( 25-C , 28-C ) :   1.0681
B( 28-C , 29-H ) :   0.9708 B( 28-C , 30-H ) :   0.9693 B( 28-C , 31-H ) :   0.9685

Dispersion correction           -0.015533502
FINAL SINGLE POINT ENERGY     -1339.868126778114

DIPOLE MOMENT
-------------
                                X             Y             Z
Electronic contribution:     21.54621      13.63102       7.11920
Nuclear contribution   :    -22.00904     -14.05471      -7.51211
                        -----------------------------------------
Total Dipole Moment    :     -0.46283      -0.42369      -0.39290
                        -----------------------------------------
Magnitude (a.u.)       :      0.74034
Magnitude (Debye)      :      1.88179

Rotational constants in cm-1:     0.019049     0.009321     0.007590
Rotational constants in MHz :   571.074222   279.427692   227.554225

                             ****ORCA TERMINATED NORMALLY****
TOTAL RUN TIME: 0 days 0 hours 0 minutes 22 seconds 777 msec
