                         Program Version 4.2.1 -  RELEASE  -
|  1> ! wB97X-D3 SP def2-SVP
|  2> %pal
|  3> nprocs 24
|  4> end
|  5>
|  6> * xyz 0 1
|  7> S 	 -48.5311 	 -51.2252 	 -73.3029
|  8> C 	 -47.7075 	 -49.759 	 -73.9281
|  9> C 	 -46.3957 	 -49.7623 	 -73.5548
| 10> C 	 -46.0131 	 -50.9577 	 -72.8914
| 11> C 	 -47.0311 	 -51.8543 	 -72.6113
| 12> H 	 -45.0411 	 -51.3357 	 -72.6642
| 13> C 	 -45.3115 	 -48.7703 	 -74.0051
| 14> H 	 -45.8635 	 -48.0235 	 -74.4945
| 15> H 	 -44.6033 	 -49.2889 	 -74.6923
| 16> C 	 -44.5266 	 -48.0498 	 -72.8866
| 17> H 	 -45.0948 	 -47.322 	 -72.2546
| 18> H 	 -44.0587 	 -48.7219 	 -72.1438
| 19> C 	 -43.3363 	 -47.1668 	 -73.3425
| 20> H 	 -42.9558 	 -46.6124 	 -72.4611
| 21> H 	 -42.5049 	 -47.7575 	 -73.8474
| 22> H 	 -43.6875 	 -46.5202 	 -74.1698
| 23> S 	 -47.2499 	 -54.5478 	 -73.0345
| 24> C 	 -46.9396 	 -55.6406 	 -71.5943
| 25> C 	 -46.7354 	 -54.8949 	 -70.43
| 26> C 	 -46.926 	 -53.4915 	 -70.6284
| 27> C 	 -47.0721 	 -53.1822 	 -71.9685
| 28> H 	 -46.4319 	 -55.5011 	 -69.6038
| 29> C 	 -46.8774 	 -52.4783 	 -69.5688
| 30> H 	 -47.6835 	 -52.3832 	 -68.8595
| 31> H 	 -46.8698 	 -51.5097 	 -70.0317
| 32> C 	 -45.5565 	 -52.5439 	 -68.707
| 33> H 	 -44.7095 	 -52.2186 	 -69.3181
| 34> H 	 -45.4102 	 -53.6239 	 -68.5505
| 35> C 	 -45.5434 	 -51.6833 	 -67.4065
| 36> H 	 -46.0683 	 -50.7062 	 -67.4713
| 37> H 	 -44.4401 	 -51.5087 	 -67.1315
| 38> H 	 -46.0228 	 -52.1976 	 -66.5319
| 39> H 	 -48.1566 	 -48.9967 	 -74.5104
| 40> H 	 -46.8451 	 -56.7043 	 -71.6406
| 41> *
| 42>
| 43>                          ****END OF INPUT****

CARTESIAN COORDINATES (ANGSTROEM)
---------------------------------
  S    -48.531100  -51.225200  -73.302900
  C    -47.707500  -49.759000  -73.928100
  C    -46.395700  -49.762300  -73.554800
  C    -46.013100  -50.957700  -72.891400
  C    -47.031100  -51.854300  -72.611300
  H    -45.041100  -51.335700  -72.664200
  C    -45.311500  -48.770300  -74.005100
  H    -45.863500  -48.023500  -74.494500
  H    -44.603300  -49.288900  -74.692300
  C    -44.526600  -48.049800  -72.886600
  H    -45.094800  -47.322000  -72.254600
  H    -44.058700  -48.721900  -72.143800
  C    -43.336300  -47.166800  -73.342500
  H    -42.955800  -46.612400  -72.461100
  H    -42.504900  -47.757500  -73.847400
  H    -43.687500  -46.520200  -74.169800
  S    -47.249900  -54.547800  -73.034500
  C    -46.939600  -55.640600  -71.594300
  C    -46.735400  -54.894900  -70.430000
  C    -46.926000  -53.491500  -70.628400
  C    -47.072100  -53.182200  -71.968500
  H    -46.431900  -55.501100  -69.603800
  C    -46.877400  -52.478300  -69.568800
  H    -47.683500  -52.383200  -68.859500
  H    -46.869800  -51.509700  -70.031700
  C    -45.556500  -52.543900  -68.707000
  H    -44.709500  -52.218600  -69.318100
  H    -45.410200  -53.623900  -68.550500
  C    -45.543400  -51.683300  -67.406500
  H    -46.068300  -50.706200  -67.471300
  H    -44.440100  -51.508700  -67.131500
  H    -46.022800  -52.197600  -66.531900
  H    -48.156600  -48.996700  -74.510400
  H    -46.845100  -56.704300  -71.640600

 Total Charge           Charge          ....    0
 Multiplicity           Mult            ....    1
 Number of Electrons    NEL             ....  134
 Basis Dimension        Dim             ....  322

ORBITAL ENERGIES
----------------

  NO   OCC          E(Eh)            E(eV)
   0   2.0000     -88.968978     -2420.9690
   1   2.0000     -88.961662     -2420.7699
   2   2.0000     -10.331164      -281.1253
   3   2.0000     -10.328956      -281.0652
   4   2.0000     -10.325206      -280.9631
   5   2.0000     -10.315783      -280.7067
   6   2.0000     -10.306455      -280.4529
   7   2.0000     -10.301977      -280.3310
   8   2.0000     -10.299952      -280.2759
   9   2.0000     -10.297786      -280.2170
  10   2.0000     -10.292448      -280.0718
  11   2.0000     -10.292433      -280.0713
  12   2.0000     -10.291553      -280.0474
  13   2.0000     -10.290070      -280.0070
  14   2.0000     -10.287336      -279.9326
  15   2.0000     -10.283483      -279.8278
  16   2.0000      -8.082620      -219.9393
  17   2.0000      -8.075736      -219.7519
  18   2.0000      -6.041196      -164.3893
  19   2.0000      -6.037392      -164.2858
  20   2.0000      -6.034311      -164.2019
  21   2.0000      -6.033248      -164.1730
  22   2.0000      -6.030284      -164.0924
  23   2.0000      -6.026494      -163.9892
  24   2.0000      -1.003084       -27.2953
  25   2.0000      -0.979897       -26.6644
  26   2.0000      -0.907171       -24.6854
  27   2.0000      -0.903548       -24.5868
  28   2.0000      -0.869606       -23.6632
  29   2.0000      -0.845228       -22.9998
  30   2.0000      -0.842196       -22.9173
  31   2.0000      -0.819667       -22.3043
  32   2.0000      -0.781010       -21.2524
  33   2.0000      -0.768738       -20.9184
  34   2.0000      -0.705886       -19.2081
  35   2.0000      -0.699165       -19.0252
  36   2.0000      -0.689957       -18.7747
  37   2.0000      -0.659740       -17.9524
  38   2.0000      -0.649171       -17.6648
  39   2.0000      -0.618837       -16.8394
  40   2.0000      -0.601018       -16.3545
  41   2.0000      -0.570676       -15.5289
  42   2.0000      -0.562481       -15.3059
  43   2.0000      -0.553501       -15.0615
  44   2.0000      -0.529108       -14.3978
  45   2.0000      -0.522819       -14.2266
  46   2.0000      -0.517080       -14.0705
  47   2.0000      -0.509288       -13.8584
  48   2.0000      -0.507524       -13.8104
  49   2.0000      -0.496876       -13.5207
  50   2.0000      -0.491336       -13.3699
  51   2.0000      -0.479582       -13.0501
  52   2.0000      -0.465562       -12.6686
  53   2.0000      -0.460891       -12.5415
  54   2.0000      -0.460364       -12.5271
  55   2.0000      -0.447407       -12.1746
  56   2.0000      -0.445186       -12.1141
  57   2.0000      -0.435212       -11.8427
  58   2.0000      -0.431494       -11.7415
  59   2.0000      -0.424278       -11.5452
  60   2.0000      -0.416468       -11.3327
  61   2.0000      -0.411959       -11.2100
  62   2.0000      -0.411394       -11.1946
  63   2.0000      -0.339922        -9.2497
  64   2.0000      -0.330119        -8.9830
  65   2.0000      -0.325323        -8.8525
  66   2.0000      -0.305499        -8.3131
  67   0.0000       0.036596         0.9958
  68   0.0000       0.055087         1.4990
  69   0.0000       0.106467         2.8971
  70   0.0000       0.120456         3.2778
  71   0.0000       0.122891         3.3440

MULLIKEN ATOMIC CHARGES
-----------------------
   0 S :    0.090136
   1 C :   -0.109751
   2 C :   -0.072404
   3 C :    0.061795
   4 C :   -0.197507
   5 H :    0.002031
   6 C :    0.108701
   7 H :    0.001225
   8 H :    0.051022
   9 C :   -0.111894
  10 H :    0.035622
  11 H :    0.031218
  12 C :   -0.089164
  13 H :    0.051709
  14 H :    0.035749
  15 H :    0.030539
  16 S :    0.112193
  17 C :   -0.100214
  18 C :   -0.041607
  19 C :    0.024748
  20 C :   -0.166420
  21 H :    0.025595
  22 C :    0.101086
  23 H :    0.031607
  24 H :    0.018977
  25 C :   -0.118115
  26 H :    0.030534
  27 H :    0.029286
  28 C :   -0.084395
  29 H :    0.043504
  30 H :    0.048232
  31 H :    0.041336
  32 H :    0.033729
  33 H :    0.050898
Sum of atomic charges:   -0.0000000

LOEWDIN ATOMIC CHARGES
----------------------
   0 S :    0.376207
   1 C :   -0.173748
   2 C :   -0.065947
   3 C :   -0.060021
   4 C :   -0.184907
   5 H :    0.028300
   6 C :   -0.023468
   7 H :    0.022541
   8 H :    0.041113
   9 C :   -0.051475
  10 H :    0.029996
  11 H :    0.022190
  12 C :   -0.075086
  13 H :    0.032199
  14 H :    0.025818
  15 H :    0.022769
  16 S :    0.381993
  17 C :   -0.154144
  18 C :   -0.063012
  19 C :   -0.051270
  20 C :   -0.203519
  21 H :    0.033385
  22 C :   -0.034408
  23 H :    0.031219
  24 H :    0.029950
  25 C :   -0.041519
  26 H :    0.023149
  27 H :    0.021365
  28 C :   -0.080677
  29 H :    0.028816
  30 H :    0.037160
  31 H :    0.028433
  32 H :    0.022762
  33 H :    0.023836

  Mayer bond orders larger than 0.100000
B(  0-S ,  1-C ) :   1.1266 B(  0-S ,  4-C ) :   1.1430 B(  1-C ,  2-C ) :   1.6388
B(  1-C , 32-H ) :   0.9721 B(  2-C ,  3-C ) :   1.2000 B(  2-C ,  6-C ) :   1.0244
B(  3-C ,  4-C ) :   1.6213 B(  3-C ,  5-H ) :   1.0008 B(  4-C , 20-C ) :   0.9909
B(  6-C ,  7-H ) :   0.9313 B(  6-C ,  8-H ) :   0.9469 B(  6-C ,  9-C ) :   1.0535
B(  9-C , 10-H ) :   0.9578 B(  9-C , 11-H ) :   0.9602 B(  9-C , 12-C ) :   1.0773
B( 12-C , 13-H ) :   0.9753 B( 12-C , 14-H ) :   0.9749 B( 12-C , 15-H ) :   0.9746
B( 16-S , 17-C ) :   1.1254 B( 16-S , 20-C ) :   1.1476 B( 17-C , 18-C ) :   1.6596
B( 17-C , 20-C ) :   0.1001 B( 17-C , 33-H ) :   0.9687 B( 18-C , 19-C ) :   1.1774
B( 18-C , 21-H ) :   0.9897 B( 19-C , 20-C ) :   1.6172 B( 19-C , 22-C ) :   1.0637
B( 22-C , 23-H ) :   0.9371 B( 22-C , 24-H ) :   0.9151 B( 22-C , 25-C ) :   1.0397
B( 25-C , 26-H ) :   0.9602 B( 25-C , 27-H ) :   0.9657 B( 25-C , 28-C ) :   1.0667
B( 28-C , 29-H ) :   0.9748 B( 28-C , 30-H ) :   0.9770 B( 28-C , 31-H ) :   0.9755

Dispersion correction           -0.013596984
FINAL SINGLE POINT ENERGY     -1339.868732376172

DIPOLE MOMENT
-------------
                                X             Y             Z
Electronic contribution:    -19.39018     -19.23733     -14.78893
Nuclear contribution   :     19.90367      19.42340      15.08901
                        -----------------------------------------
Total Dipole Moment    :      0.51349       0.18607       0.30007
                        -----------------------------------------
Magnitude (a.u.)       :      0.62317
Magnitude (Debye)      :      1.58397

Rotational constants in cm-1:     0.016214     0.008617     0.006498
Rotational constants in MHz :   486.097844   258.331418   194.792005

                             ****ORCA TERMINATED NORMALLY****
TOTAL RUN TIME: 0 days 0 hours 0 minutes 20 seconds 968 msec
