                         Program Version 4.2.1 -  RELEASE  -
|  1> ! wB97X-D3 SP def2-SVP
|  2> %pal
|  3> nprocs 24
|  4> end
|  5>
|  6> * xyz 0 1
|  7> S 	 -102.576 	 18.9944 	 -121.766
|  8> C 	 -102.747 	 20.0678 	 -120.401
|  9> C 	 -102.773 	 19.3668 	 -119.244
| 10> C 	 -102.821 	 17.9183 	 -119.499
| 11> C 	 -102.728 	 17.5738 	 -120.793
| 12> H 	 -102.783 	 17.212 	 -118.728
| 13> C 	 -102.536 	 19.8062 	 -117.784
| 14> H 	 -101.778 	 19.227 	 -117.252
| 15> H 	 -103.483 	 19.6876 	 -117.308
| 16> C 	 -102.129 	 21.2538 	 -117.544
| 17> H 	 -101.081 	 21.3748 	 -117.804
| 18> H 	 -102.75 	 21.9487 	 -118.082
| 19> C 	 -102.389 	 21.7369 	 -116.071
| 20> H 	 -101.683 	 21.2676 	 -115.482
| 21> H 	 -102.258 	 22.7774 	 -115.966
| 22> H 	 -103.47 	 21.4626 	 -115.717
| 23> S 	 -100.588 	 16.1802 	 -121.836
| 24> C 	 -100.518 	 14.4731 	 -121.777
| 25> C 	 -101.734 	 13.9592 	 -121.336
| 26> C 	 -102.753 	 14.9285 	 -121.06
| 27> C 	 -102.213 	 16.2629 	 -121.256
| 28> H 	 -101.913 	 12.9029 	 -121.36
| 29> C 	 -104.179 	 14.5609 	 -120.651
| 30> H 	 -104.684 	 15.462 	 -120.26
| 31> H 	 -104.057 	 13.8583 	 -119.802
| 32> C 	 -105.131 	 13.784 	 -121.64
| 33> H 	 -104.53 	 12.9622 	 -122.014
| 34> H 	 -105.462 	 14.4239 	 -122.424
| 35> C 	 -106.275 	 13.163 	 -120.788
| 36> H 	 -106.834 	 13.958 	 -120.231
| 37> H 	 -105.798 	 12.4991 	 -120.09
| 38> H 	 -107.017 	 12.5667 	 -121.348
| 39> H 	 -102.566 	 21.1333 	 -120.508
| 40> H 	 -99.7847 	 13.8934 	 -122.273
| 41> *
| 42>
| 43>                          ****END OF INPUT****

CARTESIAN COORDINATES (ANGSTROEM)
---------------------------------
  S    -102.576000   18.994400  -121.766000
  C    -102.747000   20.067800  -120.401000
  C    -102.773000   19.366800  -119.244000
  C    -102.821000   17.918300  -119.499000
  C    -102.728000   17.573800  -120.793000
  H    -102.783000   17.212000  -118.728000
  C    -102.536000   19.806200  -117.784000
  H    -101.778000   19.227000  -117.252000
  H    -103.483000   19.687600  -117.308000
  C    -102.129000   21.253800  -117.544000
  H    -101.081000   21.374800  -117.804000
  H    -102.750000   21.948700  -118.082000
  C    -102.389000   21.736900  -116.071000
  H    -101.683000   21.267600  -115.482000
  H    -102.258000   22.777400  -115.966000
  H    -103.470000   21.462600  -115.717000
  S    -100.588000   16.180200  -121.836000
  C    -100.518000   14.473100  -121.777000
  C    -101.734000   13.959200  -121.336000
  C    -102.753000   14.928500  -121.060000
  C    -102.213000   16.262900  -121.256000
  H    -101.913000   12.902900  -121.360000
  C    -104.179000   14.560900  -120.651000
  H    -104.684000   15.462000  -120.260000
  H    -104.057000   13.858300  -119.802000
  C    -105.131000   13.784000  -121.640000
  H    -104.530000   12.962200  -122.014000
  H    -105.462000   14.423900  -122.424000
  C    -106.275000   13.163000  -120.788000
  H    -106.834000   13.958000  -120.231000
  H    -105.798000   12.499100  -120.090000
  H    -107.017000   12.566700  -121.348000
  H    -102.566000   21.133300  -120.508000
  H    -99.784700   13.893400  -122.273000

 Total Charge           Charge          ....    0
 Multiplicity           Mult            ....    1
 Number of Electrons    NEL             ....  134
 Basis Dimension        Dim             ....  322

ORBITAL ENERGIES
----------------

  NO   OCC          E(Eh)            E(eV)
   0   2.0000     -88.966415     -2420.8992
   1   2.0000     -88.960337     -2420.7338
   2   2.0000     -10.331439      -281.1328
   3   2.0000     -10.324898      -280.9548
   4   2.0000     -10.313620      -280.6479
   5   2.0000     -10.311648      -280.5942
   6   2.0000     -10.309185      -280.5272
   7   2.0000     -10.304443      -280.3981
   8   2.0000     -10.296337      -280.1776
   9   2.0000     -10.293338      -280.0960
  10   2.0000     -10.292673      -280.0779
  11   2.0000     -10.288507      -279.9645
  12   2.0000     -10.288492      -279.9641
  13   2.0000     -10.285886      -279.8932
  14   2.0000     -10.283123      -279.8180
  15   2.0000     -10.280009      -279.7333
  16   2.0000      -8.081905      -219.9198
  17   2.0000      -8.076072      -219.7611
  18   2.0000      -6.040264      -164.3639
  19   2.0000      -6.036083      -164.2502
  20   2.0000      -6.034726      -164.2132
  21   2.0000      -6.032999      -164.1662
  22   2.0000      -6.030490      -164.0980
  23   2.0000      -6.026554      -163.9909
  24   2.0000      -1.009744       -27.4765
  25   2.0000      -0.986101       -26.8332
  26   2.0000      -0.911920       -24.8146
  27   2.0000      -0.903770       -24.5928
  28   2.0000      -0.869765       -23.6675
  29   2.0000      -0.850383       -23.1401
  30   2.0000      -0.845272       -23.0010
  31   2.0000      -0.813814       -22.1450
  32   2.0000      -0.782208       -21.2850
  33   2.0000      -0.768333       -20.9074
  34   2.0000      -0.707811       -19.2605
  35   2.0000      -0.702672       -19.1207
  36   2.0000      -0.688929       -18.7467
  37   2.0000      -0.657977       -17.9045
  38   2.0000      -0.644262       -17.5313
  39   2.0000      -0.616349       -16.7717
  40   2.0000      -0.596077       -16.2201
  41   2.0000      -0.583772       -15.8853
  42   2.0000      -0.569967       -15.5096
  43   2.0000      -0.564756       -15.3678
  44   2.0000      -0.524269       -14.2661
  45   2.0000      -0.520004       -14.1500
  46   2.0000      -0.515241       -14.0204
  47   2.0000      -0.512130       -13.9358
  48   2.0000      -0.502621       -13.6770
  49   2.0000      -0.501259       -13.6400
  50   2.0000      -0.487908       -13.2767
  51   2.0000      -0.485807       -13.2195
  52   2.0000      -0.471838       -12.8394
  53   2.0000      -0.462209       -12.5773
  54   2.0000      -0.456725       -12.4281
  55   2.0000      -0.448048       -12.1920
  56   2.0000      -0.441027       -12.0010
  57   2.0000      -0.438458       -11.9311
  58   2.0000      -0.434773       -11.8308
  59   2.0000      -0.427591       -11.6354
  60   2.0000      -0.424757       -11.5582
  61   2.0000      -0.421249       -11.4628
  62   2.0000      -0.413052       -11.2397
  63   2.0000      -0.348214        -9.4754
  64   2.0000      -0.327804        -8.9200
  65   2.0000      -0.323725        -8.8090
  66   2.0000      -0.297318        -8.0904
  67   0.0000       0.035623         0.9694
  68   0.0000       0.070131         1.9084
  69   0.0000       0.112908         3.0724
  70   0.0000       0.121359         3.3024
  71   0.0000       0.135304         3.6818

MULLIKEN ATOMIC CHARGES
-----------------------
   0 S :    0.081024
   1 C :   -0.125712
   2 C :   -0.078690
   3 C :    0.048725
   4 C :   -0.120380
   5 H :   -0.006378
   6 C :    0.068577
   7 H :    0.043752
   8 H :    0.025136
   9 C :   -0.105853
  10 H :    0.037427
  11 H :    0.025765
  12 C :   -0.045284
  13 H :    0.016454
  14 H :    0.029610
  15 H :    0.042791
  16 S :    0.126135
  17 C :   -0.088713
  18 C :   -0.038168
  19 C :   -0.033639
  20 C :   -0.162887
  21 H :    0.012666
  22 C :    0.015266
  23 H :    0.031461
  24 H :    0.024205
  25 C :   -0.032115
  26 H :    0.023710
  27 H :    0.039600
  28 C :   -0.073711
  29 H :    0.040903
  30 H :    0.026698
  31 H :    0.041581
  32 H :    0.057044
  33 H :    0.053003
Sum of atomic charges:   -0.0000000

LOEWDIN ATOMIC CHARGES
----------------------
   0 S :    0.401337
   1 C :   -0.195535
   2 C :   -0.059640
   3 C :   -0.045040
   4 C :   -0.205943
   5 H :    0.021513
   6 C :   -0.029740
   7 H :    0.035911
   8 H :    0.029692
   9 C :   -0.040449
  10 H :    0.024060
  11 H :    0.018433
  12 C :   -0.055875
  13 H :    0.011008
  14 H :    0.020002
  15 H :    0.036069
  16 S :    0.444695
  17 C :   -0.204423
  18 C :   -0.070078
  19 C :   -0.058752
  20 C :   -0.209735
  21 H :    0.025184
  22 C :   -0.037189
  23 H :    0.030647
  24 H :    0.032314
  25 C :   -0.028146
  26 H :    0.022396
  27 H :    0.020983
  28 C :   -0.066831
  29 H :    0.029643
  30 H :    0.020974
  31 H :    0.027463
  32 H :    0.030278
  33 H :    0.024778

  Mayer bond orders larger than 0.100000
B(  0-S ,  1-C ) :   1.1227 B(  0-S ,  4-C ) :   1.1375 B(  1-C ,  2-C ) :   1.6611
B(  1-C , 32-H ) :   0.9635 B(  2-C ,  3-C ) :   1.2231 B(  2-C ,  6-C ) :   0.9971
B(  3-C ,  4-C ) :   1.6020 B(  3-C ,  5-H ) :   1.0063 B(  4-C , 20-C ) :   1.0043
B(  6-C ,  7-H ) :   0.9534 B(  6-C ,  8-H ) :   0.9331 B(  6-C ,  9-C ) :   1.0789
B(  9-C , 10-H ) :   0.9575 B(  9-C , 11-H ) :   0.9547 B(  9-C , 12-C ) :   1.0799
B( 12-C , 13-H ) :   0.9776 B( 12-C , 14-H ) :   0.9765 B( 12-C , 15-H ) :   0.9752
B( 16-S , 17-C ) :   1.1770 B( 16-S , 20-C ) :   1.1841 B( 17-C , 18-C ) :   1.5604
B( 17-C , 20-C ) :   0.1056 B( 17-C , 33-H ) :   0.9710 B( 18-C , 19-C ) :   1.2973
B( 18-C , 21-H ) :   0.9893 B( 19-C , 20-C ) :   1.5252 B( 19-C , 22-C ) :   1.0427
B( 22-C , 23-H ) :   0.9354 B( 22-C , 24-H ) :   0.9407 B( 22-C , 25-C ) :   1.0546
B( 25-C , 26-H ) :   0.9567 B( 25-C , 27-H ) :   0.9599 B( 25-C , 28-C ) :   1.0687
B( 28-C , 29-H ) :   0.9771 B( 28-C , 30-H ) :   0.9764 B( 28-C , 31-H ) :   0.9751

Dispersion correction           -0.013003917
FINAL SINGLE POINT ENERGY     -1339.867973232086

DIPOLE MOMENT
-------------
                                X             Y             Z
Electronic contribution:     13.93798       0.83562     -18.82030
Nuclear contribution   :    -13.96345      -0.97673      19.36033
                        -----------------------------------------
Total Dipole Moment    :     -0.02547      -0.14111       0.54003
                        -----------------------------------------
Magnitude (a.u.)       :      0.55874
Magnitude (Debye)      :      1.42021

Rotational constants in cm-1:     0.019755     0.006840     0.005938
Rotational constants in MHz :   592.240075   205.062939   178.022011

                             ****ORCA TERMINATED NORMALLY****
TOTAL RUN TIME: 0 days 0 hours 0 minutes 20 seconds 549 msec
