                         Program Version 4.2.1 -  RELEASE  -
|  1> ! wB97X-D3 SP def2-SVP
|  2> %pal
|  3> nprocs 24
|  4> end
|  5>
|  6> * xyz 0 1
|  7> S 	 -34.3222 	 -30.3062 	 -99.4166
|  8> C 	 -35.2478 	 -29.7166 	 -100.866
|  9> C 	 -36.3841 	 -30.4885 	 -101.074
| 10> C 	 -36.4858 	 -31.5167 	 -100.178
| 11> C 	 -35.5268 	 -31.543 	 -99.1931
| 12> H 	 -37.2822 	 -32.2705 	 -100.139
| 13> C 	 -37.4787 	 -30.2289 	 -102.176
| 14> H 	 -37.6811 	 -31.1911 	 -102.633
| 15> H 	 -37.0998 	 -29.7057 	 -103.044
| 16> C 	 -38.8559 	 -29.7514 	 -101.733
| 17> H 	 -38.6927 	 -28.7062 	 -101.335
| 18> H 	 -39.576 	 -29.7146 	 -102.572
| 19> C 	 -39.7014 	 -30.6542 	 -100.823
| 20> H 	 -39.9057 	 -31.664 	 -101.238
| 21> H 	 -39.2006 	 -30.8788 	 -99.9189
| 22> H 	 -40.6903 	 -30.2063 	 -100.612
| 23> S 	 -36.9729 	 -32.5436 	 -97.1238
| 24> C 	 -36.175 	 -33.5941 	 -95.8872
| 25> C 	 -34.9375 	 -33.8265 	 -96.3125
| 26> C 	 -34.4906 	 -33.1337 	 -97.4566
| 27> C 	 -35.502 	 -32.4214 	 -98.0908
| 28> H 	 -34.3255 	 -34.4847 	 -95.7574
| 29> C 	 -33.0494 	 -33.1801 	 -97.86
| 30> H 	 -32.4588 	 -33.2599 	 -96.9815
| 31> H 	 -32.8833 	 -32.2826 	 -98.4786
| 32> C 	 -32.6526 	 -34.4092 	 -98.6649
| 33> H 	 -33.3337 	 -34.4591 	 -99.4931
| 34> H 	 -32.853 	 -35.2335 	 -98.011
| 35> C 	 -31.2127 	 -34.2485 	 -99.1827
| 36> H 	 -30.5904 	 -34.014 	 -98.303
| 37> H 	 -31.1654 	 -33.4214 	 -99.7689
| 38> H 	 -31.0597 	 -35.1557 	 -99.7869
| 39> H 	 -34.9384 	 -28.8668 	 -101.484
| 40> H 	 -36.6153 	 -34.0981 	 -94.996
| 41> *
| 42>
| 43>                          ****END OF INPUT****

CARTESIAN COORDINATES (ANGSTROEM)
---------------------------------
  S    -34.322200  -30.306200  -99.416600
  C    -35.247800  -29.716600  -100.866000
  C    -36.384100  -30.488500  -101.074000
  C    -36.485800  -31.516700  -100.178000
  C    -35.526800  -31.543000  -99.193100
  H    -37.282200  -32.270500  -100.139000
  C    -37.478700  -30.228900  -102.176000
  H    -37.681100  -31.191100  -102.633000
  H    -37.099800  -29.705700  -103.044000
  C    -38.855900  -29.751400  -101.733000
  H    -38.692700  -28.706200  -101.335000
  H    -39.576000  -29.714600  -102.572000
  C    -39.701400  -30.654200  -100.823000
  H    -39.905700  -31.664000  -101.238000
  H    -39.200600  -30.878800  -99.918900
  H    -40.690300  -30.206300  -100.612000
  S    -36.972900  -32.543600  -97.123800
  C    -36.175000  -33.594100  -95.887200
  C    -34.937500  -33.826500  -96.312500
  C    -34.490600  -33.133700  -97.456600
  C    -35.502000  -32.421400  -98.090800
  H    -34.325500  -34.484700  -95.757400
  C    -33.049400  -33.180100  -97.860000
  H    -32.458800  -33.259900  -96.981500
  H    -32.883300  -32.282600  -98.478600
  C    -32.652600  -34.409200  -98.664900
  H    -33.333700  -34.459100  -99.493100
  H    -32.853000  -35.233500  -98.011000
  C    -31.212700  -34.248500  -99.182700
  H    -30.590400  -34.014000  -98.303000
  H    -31.165400  -33.421400  -99.768900
  H    -31.059700  -35.155700  -99.786900
  H    -34.938400  -28.866800  -101.484000
  H    -36.615300  -34.098100  -94.996000

 Total Charge           Charge          ....    0
 Multiplicity           Mult            ....    1
 Number of Electrons    NEL             ....  134
 Basis Dimension        Dim             ....  322

ORBITAL ENERGIES
----------------

  NO   OCC          E(Eh)            E(eV)
   0   2.0000     -88.972364     -2421.0611
   1   2.0000     -88.961827     -2420.7744
   2   2.0000     -10.326952      -281.0106
   3   2.0000     -10.324338      -280.9395
   4   2.0000     -10.322040      -280.8770
   5   2.0000     -10.319102      -280.7970
   6   2.0000     -10.304611      -280.4027
   7   2.0000     -10.297446      -280.2078
   8   2.0000     -10.296049      -280.1697
   9   2.0000     -10.292702      -280.0787
  10   2.0000     -10.290163      -280.0096
  11   2.0000     -10.284068      -279.8437
  12   2.0000     -10.281800      -279.7820
  13   2.0000     -10.277378      -279.6617
  14   2.0000     -10.275774      -279.6180
  15   2.0000     -10.272202      -279.5208
  16   2.0000      -8.085722      -220.0237
  17   2.0000      -8.075595      -219.7481
  18   2.0000      -6.044190      -164.4708
  19   2.0000      -6.040497      -164.3703
  20   2.0000      -6.036534      -164.2624
  21   2.0000      -6.034414      -164.2047
  22   2.0000      -6.030207      -164.0903
  23   2.0000      -6.026085      -163.9781
  24   2.0000      -1.010856       -27.5068
  25   2.0000      -0.984666       -26.7941
  26   2.0000      -0.915000       -24.8984
  27   2.0000      -0.910147       -24.7664
  28   2.0000      -0.877160       -23.8687
  29   2.0000      -0.853410       -23.2225
  30   2.0000      -0.844156       -22.9706
  31   2.0000      -0.816147       -22.2085
  32   2.0000      -0.789347       -21.4792
  33   2.0000      -0.770829       -20.9753
  34   2.0000      -0.711753       -19.3678
  35   2.0000      -0.697385       -18.9768
  36   2.0000      -0.693443       -18.8696
  37   2.0000      -0.669179       -18.2093
  38   2.0000      -0.636357       -17.3161
  39   2.0000      -0.619478       -16.8568
  40   2.0000      -0.594841       -16.1864
  41   2.0000      -0.577920       -15.7260
  42   2.0000      -0.571542       -15.5525
  43   2.0000      -0.551970       -15.0199
  44   2.0000      -0.543045       -14.7770
  45   2.0000      -0.530730       -14.4419
  46   2.0000      -0.518465       -14.1082
  47   2.0000      -0.509117       -13.8538
  48   2.0000      -0.503602       -13.7037
  49   2.0000      -0.498239       -13.5578
  50   2.0000      -0.492369       -13.3980
  51   2.0000      -0.483259       -13.1501
  52   2.0000      -0.479511       -13.0482
  53   2.0000      -0.465466       -12.6660
  54   2.0000      -0.464351       -12.6356
  55   2.0000      -0.448830       -12.2133
  56   2.0000      -0.442851       -12.0506
  57   2.0000      -0.432551       -11.7703
  58   2.0000      -0.428769       -11.6674
  59   2.0000      -0.425380       -11.5752
  60   2.0000      -0.419607       -11.4181
  61   2.0000      -0.410201       -11.1621
  62   2.0000      -0.407680       -11.0935
  63   2.0000      -0.351879        -9.5751
  64   2.0000      -0.340575        -9.2675
  65   2.0000      -0.325764        -8.8645
  66   2.0000      -0.288831        -7.8595
  67   0.0000       0.022698         0.6176
  68   0.0000       0.072067         1.9610
  69   0.0000       0.103190         2.8079
  70   0.0000       0.110323         3.0020
  71   0.0000       0.128834         3.5057

MULLIKEN ATOMIC CHARGES
-----------------------
   0 S :    0.109205
   1 C :   -0.150598
   2 C :   -0.035954
   3 C :   -0.007994
   4 C :   -0.141118
   5 H :    0.019120
   6 C :    0.089748
   7 H :    0.010254
   8 H :    0.020917
   9 C :   -0.086135
  10 H :    0.043027
  11 H :    0.035349
  12 C :   -0.060183
  13 H :    0.025559
  14 H :    0.025466
  15 H :    0.042722
  16 S :    0.082020
  17 C :   -0.096582
  18 C :   -0.014769
  19 C :   -0.044008
  20 C :   -0.140682
  21 H :   -0.001582
  22 C :    0.067079
  23 H :    0.011755
  24 H :    0.012757
  25 C :   -0.081549
  26 H :    0.019957
  27 H :    0.015771
  28 C :    0.024382
  29 H :    0.027169
  30 H :    0.006776
  31 H :    0.047345
  32 H :    0.053855
  33 H :    0.070920
Sum of atomic charges:    0.0000000

LOEWDIN ATOMIC CHARGES
----------------------
   0 S :    0.399367
   1 C :   -0.178786
   2 C :   -0.059448
   3 C :   -0.068476
   4 C :   -0.193360
   5 H :    0.034242
   6 C :   -0.031503
   7 H :    0.029334
   8 H :    0.030516
   9 C :   -0.047257
  10 H :    0.030025
  11 H :    0.031379
  12 C :   -0.068551
  13 H :    0.026685
  14 H :    0.013388
  15 H :    0.033317
  16 S :    0.374164
  17 C :   -0.171230
  18 C :   -0.071577
  19 C :   -0.057683
  20 C :   -0.191070
  21 H :    0.024278
  22 C :   -0.033227
  23 H :    0.024659
  24 H :    0.016994
  25 C :   -0.032107
  26 H :    0.019638
  27 H :    0.016095
  28 C :   -0.052310
  29 H :    0.029865
  30 H :    0.011476
  31 H :    0.035156
  32 H :    0.030825
  33 H :    0.045183

  Mayer bond orders larger than 0.100000
B(  0-S ,  1-C ) :   1.1284 B(  0-S ,  4-C ) :   1.1436 B(  1-C ,  2-C ) :   1.5984
B(  1-C ,  4-C ) :   0.1086 B(  1-C , 32-H ) :   0.9693 B(  2-C ,  3-C ) :   1.2608
B(  2-C ,  6-C ) :   1.0047 B(  3-C ,  4-C ) :   1.5410 B(  3-C ,  5-H ) :   0.9919
B(  4-C , 20-C ) :   1.0886 B(  6-C ,  7-H ) :   0.9349 B(  6-C ,  8-H ) :   0.9436
B(  6-C ,  9-C ) :   1.0754 B(  9-C , 10-H ) :   0.9542 B(  9-C , 11-H ) :   0.9548
B(  9-C , 12-C ) :   1.0752 B( 12-C , 13-H ) :   0.9712 B( 12-C , 14-H ) :   0.9713
B( 12-C , 15-H ) :   0.9719 B( 16-S , 17-C ) :   1.1186 B( 16-S , 20-C ) :   1.1190
B( 17-C , 18-C ) :   1.6436 B( 17-C , 33-H ) :   0.9598 B( 18-C , 19-C ) :   1.2326
B( 18-C , 21-H ) :   0.9890 B( 19-C , 20-C ) :   1.5730 B( 19-C , 22-C ) :   1.0593
B( 22-C , 23-H ) :   0.9222 B( 22-C , 24-H ) :   0.9248 B( 22-C , 25-C ) :   1.0745
B( 25-C , 26-H ) :   0.9524 B( 25-C , 27-H ) :   0.9570 B( 25-C , 28-C ) :   1.0779
B( 28-C , 29-H ) :   0.9700 B( 28-C , 30-H ) :   0.9723 B( 28-C , 31-H ) :   0.9732

Dispersion correction           -0.014363450
FINAL SINGLE POINT ENERGY     -1339.862835449098

DIPOLE MOMENT
-------------
                                X             Y             Z
Electronic contribution:     -0.01435       4.85371      11.07547
Nuclear contribution   :      0.03290      -5.08101     -11.28962
                        -----------------------------------------
Total Dipole Moment    :      0.01855      -0.22730      -0.21416
                        -----------------------------------------
Magnitude (a.u.)       :      0.31284
Magnitude (Debye)      :      0.79519

Rotational constants in cm-1:     0.019994     0.008849     0.006868
Rotational constants in MHz :   599.410131   265.297221   205.888890

                             ****ORCA TERMINATED NORMALLY****
TOTAL RUN TIME: 0 days 0 hours 0 minutes 20 seconds 395 msec
