                         Program Version 4.2.1 -  RELEASE  -
|  1> ! wB97X-D3 SP def2-SVP
|  2> %pal
|  3> nprocs 24
|  4> end
|  5>
|  6> * xyz 0 1
|  7> S 	 -121.79 	 65.7579 	 -39.2187
|  8> C 	 -120.567 	 67.0137 	 -39.2096
|  9> C 	 -120.706 	 67.8295 	 -38.0888
| 10> C 	 -121.784 	 67.389 	 -37.2393
| 11> C 	 -122.454 	 66.3373 	 -37.6762
| 12> H 	 -122.052 	 67.9163 	 -36.3568
| 13> C 	 -120.043 	 69.2144 	 -38.0109
| 14> H 	 -120.773 	 69.9492 	 -37.6884
| 15> H 	 -119.714 	 69.4497 	 -38.9991
| 16> C 	 -118.782 	 69.2786 	 -37.1548
| 17> H 	 -118.317 	 70.2729 	 -36.9771
| 18> H 	 -119.002 	 69.1495 	 -36.0745
| 19> C 	 -117.685 	 68.2771 	 -37.7328
| 20> H 	 -117.939 	 67.3374 	 -37.3527
| 21> H 	 -117.572 	 68.3927 	 -38.8083
| 22> H 	 -116.745 	 68.527 	 -37.3646
| 23> S 	 -125.017 	 65.5963 	 -37.6623
| 24> C 	 -125.714 	 64.5697 	 -36.403
| 25> C 	 -124.694 	 64.3082 	 -35.4967
| 26> C 	 -123.405 	 64.9081 	 -35.7819
| 27> C 	 -123.48 	 65.5569 	 -36.9783
| 28> H 	 -124.897 	 63.6097 	 -34.7517
| 29> C 	 -122.182 	 64.9135 	 -34.8795
| 30> H 	 -121.313 	 65.1032 	 -35.5692
| 31> H 	 -122.025 	 63.9049 	 -34.5715
| 32> C 	 -122.244 	 66.0278 	 -33.8099
| 33> H 	 -122.981 	 65.6834 	 -33.1328
| 34> H 	 -122.633 	 66.9144 	 -34.2563
| 35> C 	 -120.899 	 66.3116 	 -33.0484
| 36> H 	 -121.161 	 66.9937 	 -32.2575
| 37> H 	 -120.074 	 66.7197 	 -33.6462
| 38> H 	 -120.396 	 65.4177 	 -32.5687
| 39> H 	 -120.049 	 67.4067 	 -40.1065
| 40> H 	 -126.699 	 64.1705 	 -36.2748
| 41> *
| 42>
| 43>                          ****END OF INPUT****

CARTESIAN COORDINATES (ANGSTROEM)
---------------------------------
  S    -121.790000   65.757900  -39.218700
  C    -120.567000   67.013700  -39.209600
  C    -120.706000   67.829500  -38.088800
  C    -121.784000   67.389000  -37.239300
  C    -122.454000   66.337300  -37.676200
  H    -122.052000   67.916300  -36.356800
  C    -120.043000   69.214400  -38.010900
  H    -120.773000   69.949200  -37.688400
  H    -119.714000   69.449700  -38.999100
  C    -118.782000   69.278600  -37.154800
  H    -118.317000   70.272900  -36.977100
  H    -119.002000   69.149500  -36.074500
  C    -117.685000   68.277100  -37.732800
  H    -117.939000   67.337400  -37.352700
  H    -117.572000   68.392700  -38.808300
  H    -116.745000   68.527000  -37.364600
  S    -125.017000   65.596300  -37.662300
  C    -125.714000   64.569700  -36.403000
  C    -124.694000   64.308200  -35.496700
  C    -123.405000   64.908100  -35.781900
  C    -123.480000   65.556900  -36.978300
  H    -124.897000   63.609700  -34.751700
  C    -122.182000   64.913500  -34.879500
  H    -121.313000   65.103200  -35.569200
  H    -122.025000   63.904900  -34.571500
  C    -122.244000   66.027800  -33.809900
  H    -122.981000   65.683400  -33.132800
  H    -122.633000   66.914400  -34.256300
  C    -120.899000   66.311600  -33.048400
  H    -121.161000   66.993700  -32.257500
  H    -120.074000   66.719700  -33.646200
  H    -120.396000   65.417700  -32.568700
  H    -120.049000   67.406700  -40.106500
  H    -126.699000   64.170500  -36.274800

 Total Charge           Charge          ....    0
 Multiplicity           Mult            ....    1
 Number of Electrons    NEL             ....  134
 Basis Dimension        Dim             ....  322

ORBITAL ENERGIES
----------------

  NO   OCC          E(Eh)            E(eV)
   0   2.0000     -88.964030     -2420.8343
   1   2.0000     -88.963222     -2420.8123
   2   2.0000     -10.325287      -280.9653
   3   2.0000     -10.318069      -280.7689
   4   2.0000     -10.316848      -280.7357
   5   2.0000     -10.316341      -280.7219
   6   2.0000     -10.302981      -280.3584
   7   2.0000     -10.300719      -280.2968
   8   2.0000     -10.292471      -280.0724
   9   2.0000     -10.290936      -280.0306
  10   2.0000     -10.290668      -280.0233
  11   2.0000     -10.290658      -280.0231
  12   2.0000     -10.289600      -279.9942
  13   2.0000     -10.287788      -279.9450
  14   2.0000     -10.285233      -279.8754
  15   2.0000     -10.269617      -279.4505
  16   2.0000      -8.079664      -219.8588
  17   2.0000      -8.077702      -219.8054
  18   2.0000      -6.038229      -164.3086
  19   2.0000      -6.036347      -164.2574
  20   2.0000      -6.033864      -164.1898
  21   2.0000      -6.032205      -164.1446
  22   2.0000      -6.030472      -164.0975
  23   2.0000      -6.028362      -164.0401
  24   2.0000      -1.012677       -27.5564
  25   2.0000      -0.985932       -26.8286
  26   2.0000      -0.908165       -24.7124
  27   2.0000      -0.905793       -24.6479
  28   2.0000      -0.869252       -23.6535
  29   2.0000      -0.847828       -23.0706
  30   2.0000      -0.842799       -22.9337
  31   2.0000      -0.819878       -22.3100
  32   2.0000      -0.783182       -21.3115
  33   2.0000      -0.773506       -21.0482
  34   2.0000      -0.710506       -19.3339
  35   2.0000      -0.704795       -19.1784
  36   2.0000      -0.693361       -18.8673
  37   2.0000      -0.665517       -18.1096
  38   2.0000      -0.642831       -17.4923
  39   2.0000      -0.625876       -17.0310
  40   2.0000      -0.588957       -16.0263
  41   2.0000      -0.565709       -15.3937
  42   2.0000      -0.563340       -15.3293
  43   2.0000      -0.552231       -15.0270
  44   2.0000      -0.544052       -14.8044
  45   2.0000      -0.529848       -14.4179
  46   2.0000      -0.517895       -14.0926
  47   2.0000      -0.514285       -13.9944
  48   2.0000      -0.508331       -13.8324
  49   2.0000      -0.498891       -13.5755
  50   2.0000      -0.490580       -13.3494
  51   2.0000      -0.474150       -12.9023
  52   2.0000      -0.470678       -12.8078
  53   2.0000      -0.464916       -12.6510
  54   2.0000      -0.459622       -12.5070
  55   2.0000      -0.445867       -12.1327
  56   2.0000      -0.442008       -12.0276
  57   2.0000      -0.440435       -11.9848
  58   2.0000      -0.430265       -11.7081
  59   2.0000      -0.427507       -11.6331
  60   2.0000      -0.422649       -11.5009
  61   2.0000      -0.416139       -11.3237
  62   2.0000      -0.404813       -11.0155
  63   2.0000      -0.343237        -9.3399
  64   2.0000      -0.331013        -9.0073
  65   2.0000      -0.326090        -8.8734
  66   2.0000      -0.307218        -8.3598
  67   0.0000       0.038513         1.0480
  68   0.0000       0.067768         1.8441
  69   0.0000       0.113685         3.0935
  70   0.0000       0.124011         3.3745
  71   0.0000       0.128689         3.5018

MULLIKEN ATOMIC CHARGES
-----------------------
   0 S :    0.104981
   1 C :   -0.116011
   2 C :   -0.117691
   3 C :    0.048061
   4 C :   -0.132207
   5 H :   -0.002875
   6 C :    0.089825
   7 H :    0.032788
   8 H :    0.010628
   9 C :   -0.115907
  10 H :    0.023960
  11 H :    0.019897
  12 C :   -0.003963
  13 H :    0.040292
  14 H :    0.027437
  15 H :    0.009131
  16 S :    0.117750
  17 C :   -0.086655
  18 C :   -0.034056
  19 C :   -0.041239
  20 C :   -0.182254
  21 H :   -0.004342
  22 C :    0.081121
  23 H :    0.033069
  24 H :    0.019036
  25 C :   -0.029138
  26 H :    0.019336
  27 H :    0.022023
  28 C :   -0.062626
  29 H :    0.036799
  30 H :    0.038291
  31 H :    0.036492
  32 H :    0.067069
  33 H :    0.050979
Sum of atomic charges:    0.0000000

LOEWDIN ATOMIC CHARGES
----------------------
   0 S :    0.388352
   1 C :   -0.200220
   2 C :   -0.058663
   3 C :   -0.058363
   4 C :   -0.183526
   5 H :    0.027489
   6 C :   -0.024591
   7 H :    0.031552
   8 H :    0.024061
   9 C :   -0.051113
  10 H :    0.023600
  11 H :    0.021633
  12 C :   -0.051123
  13 H :    0.022067
  14 H :    0.025812
  15 H :    0.016441
  16 S :    0.431456
  17 C :   -0.186276
  18 C :   -0.063011
  19 C :   -0.056998
  20 C :   -0.221688
  21 H :    0.018035
  22 C :   -0.030754
  23 H :    0.036601
  24 H :    0.025314
  25 C :   -0.028479
  26 H :    0.021907
  27 H :    0.020516
  28 C :   -0.070871
  29 H :    0.025780
  30 H :    0.025675
  31 H :    0.032126
  32 H :    0.036145
  33 H :    0.031116

  Mayer bond orders larger than 0.100000
B(  0-S ,  1-C ) :   1.1362 B(  0-S ,  4-C ) :   1.1325 B(  1-C ,  2-C ) :   1.6359
B(  1-C , 32-H ) :   0.9542 B(  2-C ,  3-C ) :   1.2177 B(  2-C ,  6-C ) :   1.0139
B(  3-C ,  4-C ) :   1.6263 B(  3-C ,  5-H ) :   1.0071 B(  4-C , 20-C ) :   0.9696
B(  6-C ,  7-H ) :   0.9483 B(  6-C ,  8-H ) :   0.9480 B(  6-C ,  9-C ) :   1.0643
B(  9-C , 10-H ) :   0.9605 B(  9-C , 11-H ) :   0.9575 B(  9-C , 12-C ) :   1.0576
B( 12-C , 13-H ) :   0.9776 B( 12-C , 14-H ) :   0.9778 B( 12-C , 15-H ) :   0.9736
B( 16-S , 17-C ) :   1.1370 B( 16-S , 20-C ) :   1.1780 B( 17-C , 18-C ) :   1.6207
B( 17-C , 33-H ) :   0.9736 B( 18-C , 19-C ) :   1.2199 B( 18-C , 21-H ) :   0.9956
B( 19-C , 20-C ) :   1.6071 B( 19-C , 22-C ) :   1.0473 B( 22-C , 23-H ) :   0.9302
B( 22-C , 24-H ) :   0.9315 B( 22-C , 25-C ) :   1.0500 B( 25-C , 26-H ) :   0.9540
B( 25-C , 27-H ) :   0.9549 B( 25-C , 28-C ) :   1.0750 B( 28-C , 29-H ) :   0.9757
B( 28-C , 30-H ) :   0.9768 B( 28-C , 31-H ) :   0.9749

Dispersion correction           -0.015162135
FINAL SINGLE POINT ENERGY     -1339.866701560042

DIPOLE MOMENT
-------------
                                X             Y             Z
Electronic contribution:    -22.02452     -11.15238     -17.24493
Nuclear contribution   :     22.26805      11.47209      17.80216
                        -----------------------------------------
Total Dipole Moment    :      0.24353       0.31971       0.55723
                        -----------------------------------------
Magnitude (a.u.)       :      0.68705
Magnitude (Debye)      :      1.74633

Rotational constants in cm-1:     0.019281     0.009453     0.007027
Rotational constants in MHz :   578.030347   283.389593   210.650847

                             ****ORCA TERMINATED NORMALLY****
TOTAL RUN TIME: 0 days 0 hours 0 minutes 21 seconds 72 msec
