                         Program Version 4.2.1 -  RELEASE  -
|  1> ! wB97X-D3 SP def2-SVP
|  2> %pal
|  3> nprocs 24
|  4> end
|  5>
|  6> * xyz 0 1
|  7> S 	 -58.9148 	 10.2263 	 22.3534
|  8> C 	 -58.913 	 11.3826 	 21.099
|  9> C 	 -59.297 	 10.7974 	 19.8822
| 10> C 	 -59.2449 	 9.37732 	 19.9949
| 11> C 	 -59.0022 	 8.83649 	 21.2446
| 12> H 	 -59.5382 	 8.67049 	 19.2552
| 13> C 	 -59.6878 	 11.6822 	 18.673
| 14> H 	 -60.1477 	 12.6603 	 18.9641
| 15> H 	 -60.4003 	 11.2436 	 18.0093
| 16> C 	 -58.4479 	 12.0506 	 17.7968
| 17> H 	 -57.7681 	 12.6088 	 18.4168
| 18> H 	 -57.926 	 11.111 	 17.5015
| 19> C 	 -58.7072 	 12.9071 	 16.585
| 20> H 	 -57.7975 	 13.1205 	 16.0673
| 21> H 	 -59.4088 	 12.262 	 16.0015
| 22> H 	 -59.0938 	 13.9103 	 16.7885
| 23> S 	 -59.5747 	 6.98143 	 23.3136
| 24> C 	 -58.8535 	 5.39339 	 23.222
| 25> C 	 -58.0738 	 5.24691 	 22.1279
| 26> C 	 -58.2256 	 6.36557 	 21.2665
| 27> C 	 -58.9018 	 7.45996 	 21.7472
| 28> H 	 -57.5119 	 4.34595 	 22.0096
| 29> C 	 -57.3698 	 6.36828 	 20.131
| 30> H 	 -56.4196 	 6.06803 	 20.5755
| 31> H 	 -57.1916 	 7.39214 	 19.7214
| 32> C 	 -57.7956 	 5.59121 	 18.9282
| 33> H 	 -58.5819 	 6.1985 	 18.4627
| 34> H 	 -58.2024 	 4.63817 	 19.3393
| 35> C 	 -56.6714 	 5.29726 	 17.8916
| 36> H 	 -56.0955 	 4.45114 	 18.1857
| 37> H 	 -56.1003 	 6.22626 	 17.8774
| 38> H 	 -57.0856 	 5.13562 	 16.9243
| 39> H 	 -58.9577 	 12.4607 	 21.2925
| 40> H 	 -58.779 	 4.64557 	 24.0542
| 41> *
| 42>
| 43>                          ****END OF INPUT****

CARTESIAN COORDINATES (ANGSTROEM)
---------------------------------
  S    -58.914800   10.226300   22.353400
  C    -58.913000   11.382600   21.099000
  C    -59.297000   10.797400   19.882200
  C    -59.244900    9.377320   19.994900
  C    -59.002200    8.836490   21.244600
  H    -59.538200    8.670490   19.255200
  C    -59.687800   11.682200   18.673000
  H    -60.147700   12.660300   18.964100
  H    -60.400300   11.243600   18.009300
  C    -58.447900   12.050600   17.796800
  H    -57.768100   12.608800   18.416800
  H    -57.926000   11.111000   17.501500
  C    -58.707200   12.907100   16.585000
  H    -57.797500   13.120500   16.067300
  H    -59.408800   12.262000   16.001500
  H    -59.093800   13.910300   16.788500
  S    -59.574700    6.981430   23.313600
  C    -58.853500    5.393390   23.222000
  C    -58.073800    5.246910   22.127900
  C    -58.225600    6.365570   21.266500
  C    -58.901800    7.459960   21.747200
  H    -57.511900    4.345950   22.009600
  C    -57.369800    6.368280   20.131000
  H    -56.419600    6.068030   20.575500
  H    -57.191600    7.392140   19.721400
  C    -57.795600    5.591210   18.928200
  H    -58.581900    6.198500   18.462700
  H    -58.202400    4.638170   19.339300
  C    -56.671400    5.297260   17.891600
  H    -56.095500    4.451140   18.185700
  H    -56.100300    6.226260   17.877400
  H    -57.085600    5.135620   16.924300
  H    -58.957700   12.460700   21.292500
  H    -58.779000    4.645570   24.054200

 Total Charge           Charge          ....    0
 Multiplicity           Mult            ....    1
 Number of Electrons    NEL             ....  134
 Basis Dimension        Dim             ....  322

ORBITAL ENERGIES
----------------

  NO   OCC          E(Eh)            E(eV)
   0   2.0000     -88.965034     -2420.8617
   1   2.0000     -88.964587     -2420.8495
   2   2.0000     -10.336979      -281.2835
   3   2.0000     -10.331178      -281.1257
   4   2.0000     -10.319715      -280.8137
   5   2.0000     -10.316901      -280.7371
   6   2.0000     -10.309933      -280.5475
   7   2.0000     -10.300113      -280.2803
   8   2.0000     -10.297903      -280.2202
   9   2.0000     -10.294812      -280.1361
  10   2.0000     -10.289613      -279.9946
  11   2.0000     -10.285115      -279.8722
  12   2.0000     -10.284739      -279.8620
  13   2.0000     -10.279144      -279.7097
  14   2.0000     -10.276382      -279.6346
  15   2.0000     -10.274788      -279.5912
  16   2.0000      -8.080163      -219.8724
  17   2.0000      -8.079250      -219.8476
  18   2.0000      -6.038616      -164.3191
  19   2.0000      -6.037948      -164.3009
  20   2.0000      -6.034548      -164.2084
  21   2.0000      -6.033797      -164.1880
  22   2.0000      -6.031023      -164.1125
  23   2.0000      -6.029768      -164.0783
  24   2.0000      -1.011378       -27.5210
  25   2.0000      -0.991623       -26.9834
  26   2.0000      -0.919471       -25.0201
  27   2.0000      -0.909553       -24.7502
  28   2.0000      -0.875074       -23.8120
  29   2.0000      -0.854815       -23.2607
  30   2.0000      -0.848141       -23.0791
  31   2.0000      -0.824036       -22.4232
  32   2.0000      -0.783353       -21.3161
  33   2.0000      -0.770420       -20.9642
  34   2.0000      -0.708018       -19.2662
  35   2.0000      -0.692289       -18.8381
  36   2.0000      -0.690056       -18.7774
  37   2.0000      -0.667252       -18.1568
  38   2.0000      -0.648517       -17.6471
  39   2.0000      -0.622317       -16.9341
  40   2.0000      -0.599289       -16.3075
  41   2.0000      -0.580173       -15.7873
  42   2.0000      -0.569506       -15.4970
  43   2.0000      -0.561486       -15.2788
  44   2.0000      -0.529948       -14.4206
  45   2.0000      -0.524162       -14.2632
  46   2.0000      -0.518848       -14.1186
  47   2.0000      -0.516979       -14.0677
  48   2.0000      -0.512136       -13.9359
  49   2.0000      -0.505166       -13.7463
  50   2.0000      -0.496931       -13.5222
  51   2.0000      -0.482382       -13.1263
  52   2.0000      -0.472267       -12.8510
  53   2.0000      -0.463516       -12.6129
  54   2.0000      -0.460466       -12.5299
  55   2.0000      -0.454477       -12.3669
  56   2.0000      -0.445466       -12.1218
  57   2.0000      -0.433526       -11.7968
  58   2.0000      -0.427483       -11.6324
  59   2.0000      -0.425008       -11.5651
  60   2.0000      -0.416161       -11.3243
  61   2.0000      -0.413636       -11.2556
  62   2.0000      -0.407148       -11.0791
  63   2.0000      -0.358291        -9.7496
  64   2.0000      -0.332522        -9.0484
  65   2.0000      -0.327519        -8.9123
  66   2.0000      -0.289753        -7.8846
  67   0.0000       0.024684         0.6717
  68   0.0000       0.068549         1.8653
  69   0.0000       0.116123         3.1599
  70   0.0000       0.120964         3.2916
  71   0.0000       0.123681         3.3655

MULLIKEN ATOMIC CHARGES
-----------------------
   0 S :    0.108395
   1 C :   -0.115155
   2 C :   -0.080722
   3 C :    0.036965
   4 C :   -0.160524
   5 H :   -0.000212
   6 C :    0.063695
   7 H :    0.028499
   8 H :    0.015508
   9 C :   -0.102122
  10 H :    0.015354
  11 H :    0.033839
  12 C :   -0.026680
  13 H :    0.032559
  14 H :    0.032857
  15 H :    0.030008
  16 S :    0.090559
  17 C :   -0.089541
  18 C :   -0.035199
  19 C :   -0.022581
  20 C :   -0.107414
  21 H :    0.020479
  22 C :    0.004808
  23 H :    0.026396
  24 H :    0.019300
  25 C :   -0.089104
  26 H :    0.025415
  27 H :    0.022252
  28 C :   -0.001339
  29 H :    0.033583
  30 H :    0.026217
  31 H :    0.028770
  32 H :    0.063828
  33 H :    0.071306
Sum of atomic charges:   -0.0000000

LOEWDIN ATOMIC CHARGES
----------------------
   0 S :    0.415156
   1 C :   -0.204975
   2 C :   -0.061716
   3 C :   -0.064678
   4 C :   -0.180528
   5 H :    0.025970
   6 C :   -0.028239
   7 H :    0.033960
   8 H :    0.022691
   9 C :   -0.044707
  10 H :    0.015554
  11 H :    0.026549
  12 C :   -0.066470
  13 H :    0.025999
  14 H :    0.029122
  15 H :    0.024841
  16 S :    0.388845
  17 C :   -0.181124
  18 C :   -0.069728
  19 C :   -0.059974
  20 C :   -0.192540
  21 H :    0.034161
  22 C :   -0.048650
  23 H :    0.032945
  24 H :    0.028237
  25 C :   -0.037817
  26 H :    0.023243
  27 H :    0.019697
  28 C :   -0.054354
  29 H :    0.023076
  30 H :    0.026793
  31 H :    0.023141
  32 H :    0.033144
  33 H :    0.042377

  Mayer bond orders larger than 0.100000
B(  0-S ,  1-C ) :   1.1786 B(  0-S ,  4-C ) :   1.1467 B(  1-C ,  2-C ) :   1.5637
B(  1-C ,  4-C ) :   0.1093 B(  1-C , 32-H ) :   0.9642 B(  2-C ,  3-C ) :   1.2658
B(  2-C ,  6-C ) :   1.0263 B(  3-C ,  4-C ) :   1.5543 B(  3-C ,  5-H ) :   1.0008
B(  4-C , 20-C ) :   1.0622 B(  6-C ,  7-H ) :   0.9451 B(  6-C ,  8-H ) :   0.9444
B(  6-C ,  9-C ) :   1.0559 B(  9-C , 10-H ) :   0.9564 B(  9-C , 11-H ) :   0.9572
B(  9-C , 12-C ) :   1.0866 B( 12-C , 13-H ) :   0.9707 B( 12-C , 14-H ) :   0.9749
B( 12-C , 15-H ) :   0.9719 B( 16-S , 17-C ) :   1.1506 B( 16-S , 20-C ) :   1.1027
B( 17-C , 18-C ) :   1.6391 B( 17-C , 33-H ) :   0.9543 B( 18-C , 19-C ) :   1.2113
B( 18-C , 21-H ) :   0.9965 B( 19-C , 20-C ) :   1.6022 B( 19-C , 22-C ) :   1.0697
B( 22-C , 23-H ) :   0.9382 B( 22-C , 24-H ) :   0.9222 B( 22-C , 25-C ) :   1.0534
B( 25-C , 26-H ) :   0.9517 B( 25-C , 27-H ) :   0.9613 B( 25-C , 28-C ) :   1.0760
B( 28-C , 29-H ) :   0.9771 B( 28-C , 30-H ) :   0.9732 B( 28-C , 31-H ) :   0.9756

Dispersion correction           -0.013475431
FINAL SINGLE POINT ENERGY     -1339.863648558445

DIPOLE MOMENT
-------------
                                X             Y             Z
Electronic contribution:     -8.37903      -3.40513      30.20789
Nuclear contribution   :      8.62442       3.35463     -30.74045
                        -----------------------------------------
Total Dipole Moment    :      0.24539      -0.05051      -0.53257
                        -----------------------------------------
Magnitude (a.u.)       :      0.58855
Magnitude (Debye)      :      1.49599

Rotational constants in cm-1:     0.018276     0.008253     0.005925
Rotational constants in MHz :   547.904253   247.426009   177.637723

                             ****ORCA TERMINATED NORMALLY****
TOTAL RUN TIME: 0 days 0 hours 0 minutes 21 seconds 283 msec
