                         Program Version 4.2.1 -  RELEASE  -
|  1> ! wB97X-D3 SP def2-SVP
|  2> %pal
|  3> nprocs 24
|  4> end
|  5>
|  6> * xyz 0 1
|  7> S 	 18.3553 	 -15.0184 	 -122.755
|  8> C 	 16.8061 	 -15.1761 	 -123.711
|  9> C 	 17.0486 	 -14.9596 	 -125.052
| 10> C 	 18.4397 	 -14.7015 	 -125.27
| 11> C 	 19.3207 	 -14.8682 	 -124.206
| 12> H 	 18.8041 	 -14.4355 	 -126.257
| 13> C 	 16.0201 	 -14.7091 	 -126.114
| 14> H 	 15.8531 	 -13.6851 	 -126.346
| 15> H 	 15.1308 	 -15.1333 	 -125.691
| 16> C 	 16.2758 	 -15.3506 	 -127.49
| 17> H 	 17.1867 	 -14.9433 	 -127.973
| 18> H 	 16.4688 	 -16.4579 	 -127.357
| 19> C 	 15.0795 	 -15.1849 	 -128.401
| 20> H 	 14.2396 	 -15.2134 	 -127.729
| 21> H 	 15.0313 	 -14.1707 	 -128.804
| 22> H 	 15.0698 	 -15.8928 	 -129.232
| 23> S 	 21.7119 	 -13.7946 	 -125.203
| 24> C 	 23.1379 	 -13.7811 	 -124.243
| 25> C 	 23.0686 	 -14.8582 	 -123.399
| 26> C 	 21.7651 	 -15.4339 	 -123.361
| 27> C 	 20.7902 	 -14.7688 	 -124.085
| 28> H 	 24.001 	 -15.176 	 -122.88
| 29> C 	 21.5334 	 -16.657 	 -122.456
| 30> H 	 20.5272 	 -16.9363 	 -122.861
| 31> H 	 21.5736 	 -16.328 	 -121.456
| 32> C 	 22.4612 	 -17.7745 	 -122.627
| 33> H 	 23.4859 	 -17.48 	 -122.416
| 34> H 	 22.6254 	 -18.0242 	 -123.671
| 35> C 	 21.9308 	 -18.9595 	 -121.752
| 36> H 	 21.9822 	 -18.8608 	 -120.68
| 37> H 	 22.6295 	 -19.7782 	 -121.857
| 38> H 	 21.0111 	 -19.2918 	 -122.225
| 39> H 	 15.8386 	 -15.4493 	 -123.295
| 40> H 	 24.1637 	 -13.4077 	 -124.454
| 41> *
| 42>
| 43>                          ****END OF INPUT****

CARTESIAN COORDINATES (ANGSTROEM)
---------------------------------
  S     18.355300  -15.018400  -122.755000
  C     16.806100  -15.176100  -123.711000
  C     17.048600  -14.959600  -125.052000
  C     18.439700  -14.701500  -125.270000
  C     19.320700  -14.868200  -124.206000
  H     18.804100  -14.435500  -126.257000
  C     16.020100  -14.709100  -126.114000
  H     15.853100  -13.685100  -126.346000
  H     15.130800  -15.133300  -125.691000
  C     16.275800  -15.350600  -127.490000
  H     17.186700  -14.943300  -127.973000
  H     16.468800  -16.457900  -127.357000
  C     15.079500  -15.184900  -128.401000
  H     14.239600  -15.213400  -127.729000
  H     15.031300  -14.170700  -128.804000
  H     15.069800  -15.892800  -129.232000
  S     21.711900  -13.794600  -125.203000
  C     23.137900  -13.781100  -124.243000
  C     23.068600  -14.858200  -123.399000
  C     21.765100  -15.433900  -123.361000
  C     20.790200  -14.768800  -124.085000
  H     24.001000  -15.176000  -122.880000
  C     21.533400  -16.657000  -122.456000
  H     20.527200  -16.936300  -122.861000
  H     21.573600  -16.328000  -121.456000
  C     22.461200  -17.774500  -122.627000
  H     23.485900  -17.480000  -122.416000
  H     22.625400  -18.024200  -123.671000
  C     21.930800  -18.959500  -121.752000
  H     21.982200  -18.860800  -120.680000
  H     22.629500  -19.778200  -121.857000
  H     21.011100  -19.291800  -122.225000
  H     15.838600  -15.449300  -123.295000
  H     24.163700  -13.407700  -124.454000

 Total Charge           Charge          ....    0
 Multiplicity           Mult            ....    1
 Number of Electrons    NEL             ....  134
 Basis Dimension        Dim             ....  322

ORBITAL ENERGIES
----------------

  NO   OCC          E(Eh)            E(eV)
   0   2.0000     -88.967500     -2420.9288
   1   2.0000     -88.960650     -2420.7424
   2   2.0000     -10.339736      -281.3585
   3   2.0000     -10.332534      -281.1625
   4   2.0000     -10.322308      -280.8843
   5   2.0000     -10.317262      -280.7470
   6   2.0000     -10.303594      -280.3750
   7   2.0000     -10.302849      -280.3548
   8   2.0000     -10.294941      -280.1396
   9   2.0000     -10.292797      -280.0812
  10   2.0000     -10.290952      -280.0310
  11   2.0000     -10.290057      -280.0067
  12   2.0000     -10.280997      -279.7601
  13   2.0000     -10.279598      -279.7221
  14   2.0000     -10.277233      -279.6577
  15   2.0000     -10.276683      -279.6427
  16   2.0000      -8.080799      -219.8897
  17   2.0000      -8.076240      -219.7657
  18   2.0000      -6.039577      -164.3452
  19   2.0000      -6.035525      -164.2350
  20   2.0000      -6.034855      -164.2167
  21   2.0000      -6.031306      -164.1202
  22   2.0000      -6.030891      -164.1089
  23   2.0000      -6.026537      -163.9904
  24   2.0000      -1.010693       -27.5023
  25   2.0000      -0.985736       -26.8233
  26   2.0000      -0.918618       -24.9969
  27   2.0000      -0.915353       -24.9080
  28   2.0000      -0.874257       -23.7897
  29   2.0000      -0.846545       -23.0357
  30   2.0000      -0.842208       -22.9177
  31   2.0000      -0.815630       -22.1944
  32   2.0000      -0.784050       -21.3351
  33   2.0000      -0.772919       -21.0322
  34   2.0000      -0.712190       -19.3797
  35   2.0000      -0.702164       -19.1069
  36   2.0000      -0.690403       -18.7868
  37   2.0000      -0.660620       -17.9764
  38   2.0000      -0.631074       -17.1724
  39   2.0000      -0.622018       -16.9260
  40   2.0000      -0.594456       -16.1760
  41   2.0000      -0.582112       -15.8401
  42   2.0000      -0.575524       -15.6608
  43   2.0000      -0.568557       -15.4712
  44   2.0000      -0.537699       -14.6315
  45   2.0000      -0.521713       -14.1965
  46   2.0000      -0.515564       -14.0292
  47   2.0000      -0.513742       -13.9796
  48   2.0000      -0.506636       -13.7863
  49   2.0000      -0.503075       -13.6894
  50   2.0000      -0.493680       -13.4337
  51   2.0000      -0.478778       -13.0282
  52   2.0000      -0.469802       -12.7840
  53   2.0000      -0.465532       -12.6678
  54   2.0000      -0.457866       -12.4592
  55   2.0000      -0.450272       -12.2525
  56   2.0000      -0.439496       -11.9593
  57   2.0000      -0.434579       -11.8255
  58   2.0000      -0.431911       -11.7529
  59   2.0000      -0.423712       -11.5298
  60   2.0000      -0.418296       -11.3824
  61   2.0000      -0.415889       -11.3169
  62   2.0000      -0.397289       -10.8108
  63   2.0000      -0.355241        -9.6666
  64   2.0000      -0.329331        -8.9616
  65   2.0000      -0.321373        -8.7450
  66   2.0000      -0.290531        -7.9058
  67   0.0000       0.016913         0.4602
  68   0.0000       0.071526         1.9463
  69   0.0000       0.105710         2.8765
  70   0.0000       0.106907         2.9091
  71   0.0000       0.130294         3.5455

MULLIKEN ATOMIC CHARGES
-----------------------
   0 S :    0.096528
   1 C :   -0.137114
   2 C :   -0.060441
   3 C :    0.006633
   4 C :   -0.137984
   5 H :    0.006465
   6 C :    0.083969
   7 H :    0.040292
   8 H :    0.008576
   9 C :   -0.144497
  10 H :    0.039212
  11 H :    0.037516
  12 C :   -0.009884
  13 H :    0.014523
  14 H :    0.024677
  15 H :    0.045808
  16 S :    0.086622
  17 C :   -0.070381
  18 C :   -0.079582
  19 C :   -0.068336
  20 C :   -0.110905
  21 H :    0.039057
  22 C :    0.097581
  23 H :    0.029744
  24 H :    0.030655
  25 C :   -0.097889
  26 H :    0.011236
  27 H :    0.020107
  28 C :   -0.016730
  29 H :    0.036786
  30 H :    0.013032
  31 H :    0.042109
  32 H :    0.051600
  33 H :    0.071018
Sum of atomic charges:    0.0000000

LOEWDIN ATOMIC CHARGES
----------------------
   0 S :    0.388075
   1 C :   -0.173830
   2 C :   -0.061353
   3 C :   -0.068730
   4 C :   -0.183420
   5 H :    0.024070
   6 C :   -0.026903
   7 H :    0.032915
   8 H :    0.027519
   9 C :   -0.047730
  10 H :    0.022217
  11 H :    0.028555
  12 C :   -0.063331
  13 H :    0.022453
  14 H :    0.025416
  15 H :    0.030061
  16 S :    0.411053
  17 C :   -0.196615
  18 C :   -0.086406
  19 C :   -0.057434
  20 C :   -0.202915
  21 H :    0.038069
  22 C :   -0.034524
  23 H :    0.030762
  24 H :    0.027257
  25 C :   -0.044708
  26 H :    0.016780
  27 H :    0.025397
  28 C :   -0.059172
  29 H :    0.028084
  30 H :    0.023954
  31 H :    0.030968
  32 H :    0.029551
  33 H :    0.043916

  Mayer bond orders larger than 0.100000
B(  0-S ,  1-C ) :   1.1220 B(  0-S ,  4-C ) :   1.1448 B(  1-C ,  2-C ) :   1.6153
B(  1-C ,  4-C ) :   0.1016 B(  1-C , 32-H ) :   0.9653 B(  2-C ,  3-C ) :   1.2414
B(  2-C ,  6-C ) :   1.0338 B(  3-C ,  4-C ) :   1.5782 B(  3-C ,  5-H ) :   0.9890
B(  4-C , 20-C ) :   1.0543 B(  6-C ,  7-H ) :   0.9417 B(  6-C ,  8-H ) :   0.9305
B(  6-C ,  9-C ) :   1.0597 B(  9-C , 10-H ) :   0.9526 B(  9-C , 11-H ) :   0.9583
B(  9-C , 12-C ) :   1.0841 B( 12-C , 13-H ) :   0.9719 B( 12-C , 14-H ) :   0.9700
B( 12-C , 15-H ) :   0.9741 B( 16-S , 17-C ) :   1.1669 B( 16-S , 20-C ) :   1.1198
B( 17-C , 18-C ) :   1.6021 B( 17-C , 33-H ) :   0.9581 B( 18-C , 19-C ) :   1.2471
B( 18-C , 21-H ) :   0.9844 B( 19-C , 20-C ) :   1.5632 B( 19-C , 22-C ) :   1.0164
B( 22-C , 23-H ) :   0.9345 B( 22-C , 24-H ) :   0.9364 B( 22-C , 25-C ) :   1.0854
B( 25-C , 26-H ) :   0.9448 B( 25-C , 27-H ) :   0.9523 B( 25-C , 28-C ) :   1.0821
B( 28-C , 29-H ) :   0.9741 B( 28-C , 30-H ) :   0.9698 B( 28-C , 31-H ) :   0.9758

Dispersion correction           -0.013262669
FINAL SINGLE POINT ENERGY     -1339.841515888685

DIPOLE MOMENT
-------------
                                X             Y             Z
Electronic contribution:      7.60312      14.45090       6.40988
Nuclear contribution   :     -7.55815     -14.78067      -6.58953
                        -----------------------------------------
Total Dipole Moment    :      0.04497      -0.32977      -0.17965
                        -----------------------------------------
Magnitude (a.u.)       :      0.37821
Magnitude (Debye)      :      0.96134

Rotational constants in cm-1:     0.020291     0.007155     0.006178
Rotational constants in MHz :   608.298002   214.500823   185.225746

                             ****ORCA TERMINATED NORMALLY****
TOTAL RUN TIME: 0 days 0 hours 0 minutes 20 seconds 772 msec
