                         Program Version 4.2.1 -  RELEASE  -
|  1> ! wB97X-D3 SP def2-SVP
|  2> %pal
|  3> nprocs 24
|  4> end
|  5>
|  6> * xyz 0 1
|  7> S 	 -107.848 	 3.17019 	 -113.957
|  8> C 	 -108.258 	 3.69158 	 -115.596
|  9> C 	 -107.126 	 3.84715 	 -116.328
| 10> C 	 -105.918 	 3.39971 	 -115.692
| 11> C 	 -106.157 	 2.85665 	 -114.433
| 12> H 	 -104.9 	 3.48764 	 -116.068
| 13> C 	 -107.201 	 4.259 	 -117.755
| 14> H 	 -106.168 	 4.53579 	 -117.927
| 15> H 	 -107.886 	 5.06221 	 -117.902
| 16> C 	 -107.596 	 3.12989 	 -118.71
| 17> H 	 -106.98 	 2.25319 	 -118.417
| 18> H 	 -108.643 	 2.83833 	 -118.627
| 19> C 	 -107.193 	 3.43572 	 -120.19
| 20> H 	 -107.836 	 2.8383 	 -120.824
| 21> H 	 -107.277 	 4.49821 	 -120.338
| 22> H 	 -106.208 	 3.19365 	 -120.478
| 23> S 	 -104.624 	 3.80491 	 -112.269
| 24> C 	 -103.644 	 2.65369 	 -111.469
| 25> C 	 -103.702 	 1.39915 	 -112.023
| 26> C 	 -104.421 	 1.40642 	 -113.22
| 27> C 	 -105.202 	 2.53793 	 -113.428
| 28> H 	 -103.096 	 0.594973 	 -111.562
| 29> C 	 -104.633 	 0.12498 	 -113.979
| 30> H 	 -103.756 	 -0.617165 	 -113.858
| 31> H 	 -104.641 	 0.458861 	 -115.067
| 32> C 	 -105.955 	 -0.624837 	 -113.596
| 33> H 	 -106.092 	 -1.37057 	 -114.35
| 34> H 	 -106.77 	 0.086537 	 -113.858
| 35> C 	 -105.874 	 -1.25415 	 -112.184
| 36> H 	 -105.031 	 -1.97948 	 -112.142
| 37> H 	 -106.841 	 -1.71052 	 -111.93
| 38> H 	 -105.773 	 -0.438408 	 -111.505
| 39> H 	 -109.296 	 3.93093 	 -115.899
| 40> H 	 -103.002 	 3.09124 	 -110.595
| 41> *
| 42>
| 43>                          ****END OF INPUT****

CARTESIAN COORDINATES (ANGSTROEM)
---------------------------------
  S    -107.848000    3.170190  -113.957000
  C    -108.258000    3.691580  -115.596000
  C    -107.126000    3.847150  -116.328000
  C    -105.918000    3.399710  -115.692000
  C    -106.157000    2.856650  -114.433000
  H    -104.900000    3.487640  -116.068000
  C    -107.201000    4.259000  -117.755000
  H    -106.168000    4.535790  -117.927000
  H    -107.886000    5.062210  -117.902000
  C    -107.596000    3.129890  -118.710000
  H    -106.980000    2.253190  -118.417000
  H    -108.643000    2.838330  -118.627000
  C    -107.193000    3.435720  -120.190000
  H    -107.836000    2.838300  -120.824000
  H    -107.277000    4.498210  -120.338000
  H    -106.208000    3.193650  -120.478000
  S    -104.624000    3.804910  -112.269000
  C    -103.644000    2.653690  -111.469000
  C    -103.702000    1.399150  -112.023000
  C    -104.421000    1.406420  -113.220000
  C    -105.202000    2.537930  -113.428000
  H    -103.096000    0.594973  -111.562000
  C    -104.633000    0.124980  -113.979000
  H    -103.756000   -0.617165  -113.858000
  H    -104.641000    0.458861  -115.067000
  C    -105.955000   -0.624837  -113.596000
  H    -106.092000   -1.370570  -114.350000
  H    -106.770000    0.086537  -113.858000
  C    -105.874000   -1.254150  -112.184000
  H    -105.031000   -1.979480  -112.142000
  H    -106.841000   -1.710520  -111.930000
  H    -105.773000   -0.438408  -111.505000
  H    -109.296000    3.930930  -115.899000
  H    -103.002000    3.091240  -110.595000

 Total Charge           Charge          ....    0
 Multiplicity           Mult            ....    1
 Number of Electrons    NEL             ....  134
 Basis Dimension        Dim             ....  322

ORBITAL ENERGIES
----------------

  NO   OCC          E(Eh)            E(eV)
   0   2.0000     -88.963428     -2420.8180
   1   2.0000     -88.961798     -2420.7736
   2   2.0000     -10.330536      -281.1082
   3   2.0000     -10.322640      -280.8933
   4   2.0000     -10.321761      -280.8694
   5   2.0000     -10.316060      -280.7143
   6   2.0000     -10.301485      -280.3177
   7   2.0000     -10.299783      -280.2713
   8   2.0000     -10.297317      -280.2042
   9   2.0000     -10.295968      -280.1675
  10   2.0000     -10.291648      -280.0500
  11   2.0000     -10.288142      -279.9546
  12   2.0000     -10.285081      -279.8713
  13   2.0000     -10.282349      -279.7969
  14   2.0000     -10.277351      -279.6609
  15   2.0000     -10.273224      -279.5486
  16   2.0000      -8.077459      -219.7988
  17   2.0000      -8.076759      -219.7798
  18   2.0000      -6.035955      -164.2467
  19   2.0000      -6.035034      -164.2216
  20   2.0000      -6.032102      -164.1418
  21   2.0000      -6.031263      -164.1190
  22   2.0000      -6.028212      -164.0360
  23   2.0000      -6.027720      -164.0226
  24   2.0000      -1.005949       -27.3733
  25   2.0000      -0.985172       -26.8079
  26   2.0000      -0.914596       -24.8874
  27   2.0000      -0.901849       -24.5406
  28   2.0000      -0.870426       -23.6855
  29   2.0000      -0.846795       -23.0425
  30   2.0000      -0.844407       -22.9775
  31   2.0000      -0.812653       -22.1134
  32   2.0000      -0.781207       -21.2577
  33   2.0000      -0.766111       -20.8469
  34   2.0000      -0.708676       -19.2841
  35   2.0000      -0.702720       -19.1220
  36   2.0000      -0.685882       -18.6638
  37   2.0000      -0.654032       -17.7971
  38   2.0000      -0.644113       -17.5272
  39   2.0000      -0.616866       -16.7858
  40   2.0000      -0.588208       -16.0060
  41   2.0000      -0.567150       -15.4329
  42   2.0000      -0.563818       -15.3423
  43   2.0000      -0.545425       -14.8418
  44   2.0000      -0.542053       -14.7500
  45   2.0000      -0.524651       -14.2765
  46   2.0000      -0.520408       -14.1610
  47   2.0000      -0.515652       -14.0316
  48   2.0000      -0.498574       -13.5669
  49   2.0000      -0.494587       -13.4584
  50   2.0000      -0.481052       -13.0901
  51   2.0000      -0.477152       -12.9840
  52   2.0000      -0.472259       -12.8508
  53   2.0000      -0.467718       -12.7272
  54   2.0000      -0.462287       -12.5795
  55   2.0000      -0.447687       -12.1822
  56   2.0000      -0.439463       -11.9584
  57   2.0000      -0.437581       -11.9072
  58   2.0000      -0.429345       -11.6831
  59   2.0000      -0.420674       -11.4471
  60   2.0000      -0.418491       -11.3877
  61   2.0000      -0.410330       -11.1656
  62   2.0000      -0.408482       -11.1154
  63   2.0000      -0.337615        -9.1870
  64   2.0000      -0.330344        -8.9891
  65   2.0000      -0.321887        -8.7590
  66   2.0000      -0.301969        -8.2170
  67   0.0000       0.035268         0.9597
  68   0.0000       0.046402         1.2627
  69   0.0000       0.110264         3.0004
  70   0.0000       0.120352         3.2749
  71   0.0000       0.131774         3.5857

MULLIKEN ATOMIC CHARGES
-----------------------
   0 S :    0.097232
   1 C :   -0.132756
   2 C :   -0.089693
   3 C :    0.051104
   4 C :   -0.191424
   5 H :    0.025785
   6 C :    0.086780
   7 H :    0.013867
   8 H :    0.023358
   9 C :   -0.090081
  10 H :    0.029927
  11 H :    0.032146
  12 C :   -0.018772
  13 H :    0.029692
  14 H :    0.024169
  15 H :    0.022350
  16 S :    0.109033
  17 C :   -0.135730
  18 C :   -0.036946
  19 C :   -0.003008
  20 C :   -0.164608
  21 H :    0.034459
  22 C :   -0.021067
  23 H :    0.032028
  24 H :    0.037801
  25 C :   -0.052075
  26 H :    0.017664
  27 H :    0.029838
  28 C :   -0.034566
  29 H :    0.038909
  30 H :    0.038806
  31 H :    0.038115
  32 H :    0.063073
  33 H :    0.094591
Sum of atomic charges:   -0.0000000

LOEWDIN ATOMIC CHARGES
----------------------
   0 S :    0.384396
   1 C :   -0.185417
   2 C :   -0.070443
   3 C :   -0.050374
   4 C :   -0.187979
   5 H :    0.037091
   6 C :   -0.031402
   7 H :    0.029948
   8 H :    0.025524
   9 C :   -0.036845
  10 H :    0.027593
  11 H :    0.022355
  12 C :   -0.059615
  13 H :    0.027097
  14 H :    0.021659
  15 H :    0.018949
  16 S :    0.397304
  17 C :   -0.200347
  18 C :   -0.089287
  19 C :   -0.054057
  20 C :   -0.200646
  21 H :    0.040781
  22 C :   -0.043174
  23 H :    0.031631
  24 H :    0.036353
  25 C :   -0.039501
  26 H :    0.016754
  27 H :    0.026101
  28 C :   -0.062474
  29 H :    0.030173
  30 H :    0.030431
  31 H :    0.023783
  32 H :    0.036308
  33 H :    0.047329

  Mayer bond orders larger than 0.100000
B(  0-S ,  1-C ) :   1.1295 B(  0-S ,  4-C ) :   1.1396 B(  1-C ,  2-C ) :   1.6093
B(  1-C , 32-H ) :   0.9710 B(  2-C ,  3-C ) :   1.2221 B(  2-C ,  6-C ) :   1.0372
B(  3-C ,  4-C ) :   1.5850 B(  3-C ,  5-H ) :   0.9928 B(  4-C , 20-C ) :   1.0518
B(  6-C ,  7-H ) :   0.9376 B(  6-C ,  8-H ) :   0.9314 B(  6-C ,  9-C ) :   1.0711
B(  9-C , 10-H ) :   0.9578 B(  9-C , 11-H ) :   0.9594 B(  9-C , 12-C ) :   1.0701
B( 12-C , 13-H ) :   0.9753 B( 12-C , 14-H ) :   0.9776 B( 12-C , 15-H ) :   0.9780
B( 16-S , 17-C ) :   1.1906 B( 16-S , 20-C ) :   1.1241 B( 17-C , 18-C ) :   1.5776
B( 17-C , 20-C ) :   0.1094 B( 17-C , 33-H ) :   0.9498 B( 18-C , 19-C ) :   1.2482
B( 18-C , 21-H ) :   0.9904 B( 19-C , 20-C ) :   1.5720 B( 19-C , 22-C ) :   1.0601
B( 22-C , 23-H ) :   0.9426 B( 22-C , 24-H ) :   0.9247 B( 22-C , 25-C ) :   1.0711
B( 25-C , 26-H ) :   0.9543 B( 25-C , 27-H ) :   0.9522 B( 25-C , 28-C ) :   1.0620
B( 28-C , 29-H ) :   0.9732 B( 28-C , 30-H ) :   0.9722 B( 28-C , 31-H ) :   0.9753

Dispersion correction           -0.014827483
FINAL SINGLE POINT ENERGY     -1339.869403007801

DIPOLE MOMENT
-------------
                                X             Y             Z
Electronic contribution:      1.91920      13.23708      18.80177
Nuclear contribution   :     -1.78491     -13.37368     -19.24512
                        -----------------------------------------
Total Dipole Moment    :      0.13429      -0.13660      -0.44335
                        -----------------------------------------
Magnitude (a.u.)       :      0.48296
Magnitude (Debye)      :      1.22760

Rotational constants in cm-1:     0.021788     0.007692     0.006924
Rotational constants in MHz :   653.178611   230.595487   207.561706

                             ****ORCA TERMINATED NORMALLY****
TOTAL RUN TIME: 0 days 0 hours 0 minutes 20 seconds 751 msec
