                         Program Version 4.2.1 -  RELEASE  -
|  1> ! wB97X-D3 SP def2-SVP
|  2> %pal
|  3> nprocs 24
|  4> end
|  5>
|  6> * xyz 0 1
|  7> S 	 -81.8905 	 -39.9402 	 -75.5081
|  8> C 	 -82.3009 	 -40.3344 	 -77.1857
|  9> C 	 -82.4979 	 -41.7083 	 -77.3646
| 10> C 	 -82.1503 	 -42.4544 	 -76.2351
| 11> C 	 -81.936 	 -41.6199 	 -75.1449
| 12> H 	 -82.1555 	 -43.5343 	 -76.1119
| 13> C 	 -82.9414 	 -42.3631 	 -78.6716
| 14> H 	 -82.3705 	 -43.283 	 -78.7223
| 15> H 	 -82.6038 	 -41.7054 	 -79.5072
| 16> C 	 -84.4449 	 -42.6885 	 -78.7794
| 17> H 	 -84.5592 	 -43.5796 	 -79.4419
| 18> H 	 -84.6334 	 -42.9452 	 -77.7558
| 19> C 	 -85.3677 	 -41.5537 	 -79.1482
| 20> H 	 -85.3401 	 -40.7866 	 -78.3406
| 21> H 	 -85.0761 	 -41.1602 	 -80.0774
| 22> H 	 -86.329 	 -42.0325 	 -79.2687
| 23> S 	 -80.2261 	 -41.4067 	 -73.0338
| 24> C 	 -80.3901 	 -42.3934 	 -71.6403
| 25> C 	 -81.4121 	 -43.2917 	 -71.776
| 26> C 	 -82.0868 	 -43.1689 	 -73.0023
| 27> C 	 -81.6186 	 -42.1719 	 -73.849
| 28> H 	 -81.6676 	 -43.9233 	 -70.9702
| 29> C 	 -83.1673 	 -44.0984 	 -73.2196
| 30> H 	 -83.7443 	 -43.7954 	 -74.0582
| 31> H 	 -83.8737 	 -43.8769 	 -72.3743
| 32> C 	 -82.7732 	 -45.5685 	 -73.2093
| 33> H 	 -83.6515 	 -46.2065 	 -73.1719
| 34> H 	 -82.2703 	 -45.9468 	 -72.3109
| 35> C 	 -81.767 	 -45.9793 	 -74.2633
| 36> H 	 -80.8879 	 -45.4593 	 -74.0182
| 37> H 	 -82.07 	 -45.8156 	 -75.2604
| 38> H 	 -81.4591 	 -47.0398 	 -74.2392
| 39> H 	 -82.516 	 -39.6741 	 -77.9957
| 40> H 	 -79.7472 	 -42.4467 	 -70.8146
| 41> *
| 42>
| 43>                          ****END OF INPUT****

CARTESIAN COORDINATES (ANGSTROEM)
---------------------------------
  S    -81.890500  -39.940200  -75.508100
  C    -82.300900  -40.334400  -77.185700
  C    -82.497900  -41.708300  -77.364600
  C    -82.150300  -42.454400  -76.235100
  C    -81.936000  -41.619900  -75.144900
  H    -82.155500  -43.534300  -76.111900
  C    -82.941400  -42.363100  -78.671600
  H    -82.370500  -43.283000  -78.722300
  H    -82.603800  -41.705400  -79.507200
  C    -84.444900  -42.688500  -78.779400
  H    -84.559200  -43.579600  -79.441900
  H    -84.633400  -42.945200  -77.755800
  C    -85.367700  -41.553700  -79.148200
  H    -85.340100  -40.786600  -78.340600
  H    -85.076100  -41.160200  -80.077400
  H    -86.329000  -42.032500  -79.268700
  S    -80.226100  -41.406700  -73.033800
  C    -80.390100  -42.393400  -71.640300
  C    -81.412100  -43.291700  -71.776000
  C    -82.086800  -43.168900  -73.002300
  C    -81.618600  -42.171900  -73.849000
  H    -81.667600  -43.923300  -70.970200
  C    -83.167300  -44.098400  -73.219600
  H    -83.744300  -43.795400  -74.058200
  H    -83.873700  -43.876900  -72.374300
  C    -82.773200  -45.568500  -73.209300
  H    -83.651500  -46.206500  -73.171900
  H    -82.270300  -45.946800  -72.310900
  C    -81.767000  -45.979300  -74.263300
  H    -80.887900  -45.459300  -74.018200
  H    -82.070000  -45.815600  -75.260400
  H    -81.459100  -47.039800  -74.239200
  H    -82.516000  -39.674100  -77.995700
  H    -79.747200  -42.446700  -70.814600

 Total Charge           Charge          ....    0
 Multiplicity           Mult            ....    1
 Number of Electrons    NEL             ....  134
 Basis Dimension        Dim             ....  322

ORBITAL ENERGIES
----------------

  NO   OCC          E(Eh)            E(eV)
   0   2.0000     -88.975173     -2421.1376
   1   2.0000     -88.959643     -2420.7149
   2   2.0000     -10.328055      -281.0407
   3   2.0000     -10.325498      -280.9711
   4   2.0000     -10.312871      -280.6275
   5   2.0000     -10.309094      -280.5247
   6   2.0000     -10.299134      -280.2537
   7   2.0000     -10.295730      -280.1611
   8   2.0000     -10.291064      -280.0341
   9   2.0000     -10.290841      -280.0280
  10   2.0000     -10.286111      -279.8993
  11   2.0000     -10.285911      -279.8939
  12   2.0000     -10.283876      -279.8385
  13   2.0000     -10.282777      -279.8086
  14   2.0000     -10.274165      -279.5742
  15   2.0000     -10.269325      -279.4425
  16   2.0000      -8.089483      -220.1260
  17   2.0000      -8.074820      -219.7270
  18   2.0000      -6.047942      -164.5729
  19   2.0000      -6.044139      -164.4694
  20   2.0000      -6.040225      -164.3629
  21   2.0000      -6.033329      -164.1752
  22   2.0000      -6.029151      -164.0616
  23   2.0000      -6.025663      -163.9666
  24   2.0000      -1.011527       -27.5250
  25   2.0000      -0.988729       -26.9047
  26   2.0000      -0.920287       -25.0423
  27   2.0000      -0.913625       -24.8610
  28   2.0000      -0.871452       -23.7134
  29   2.0000      -0.858404       -23.3584
  30   2.0000      -0.852349       -23.1936
  31   2.0000      -0.814555       -22.1652
  32   2.0000      -0.786542       -21.4029
  33   2.0000      -0.776956       -21.1421
  34   2.0000      -0.714324       -19.4377
  35   2.0000      -0.701187       -19.0803
  36   2.0000      -0.693048       -18.8588
  37   2.0000      -0.663897       -18.0656
  38   2.0000      -0.638724       -17.3806
  39   2.0000      -0.621497       -16.9118
  40   2.0000      -0.601370       -16.3641
  41   2.0000      -0.576202       -15.6792
  42   2.0000      -0.560629       -15.2555
  43   2.0000      -0.555026       -15.1030
  44   2.0000      -0.540162       -14.6985
  45   2.0000      -0.538257       -14.6467
  46   2.0000      -0.527284       -14.3481
  47   2.0000      -0.518719       -14.1151
  48   2.0000      -0.504228       -13.7207
  49   2.0000      -0.497113       -13.5271
  50   2.0000      -0.489156       -13.3106
  51   2.0000      -0.482178       -13.1207
  52   2.0000      -0.471341       -12.8258
  53   2.0000      -0.467897       -12.7321
  54   2.0000      -0.463395       -12.6096
  55   2.0000      -0.456244       -12.4150
  56   2.0000      -0.444662       -12.0999
  57   2.0000      -0.441110       -12.0032
  58   2.0000      -0.432568       -11.7708
  59   2.0000      -0.420731       -11.4487
  60   2.0000      -0.419411       -11.4128
  61   2.0000      -0.415994       -11.3198
  62   2.0000      -0.411454       -11.1962
  63   2.0000      -0.348100        -9.4723
  64   2.0000      -0.336975        -9.1696
  65   2.0000      -0.327036        -8.8991
  66   2.0000      -0.285744        -7.7755
  67   0.0000       0.027284         0.7424
  68   0.0000       0.073959         2.0125
  69   0.0000       0.108481         2.9519
  70   0.0000       0.120973         3.2918
  71   0.0000       0.130989         3.5644

MULLIKEN ATOMIC CHARGES
-----------------------
   0 S :    0.140206
   1 C :   -0.106035
   2 C :   -0.107215
   3 C :    0.018962
   4 C :   -0.134360
   5 H :    0.002003
   6 C :    0.063844
   7 H :    0.022859
   8 H :    0.021057
   9 C :   -0.079358
  10 H :    0.036677
  11 H :    0.015813
  12 C :   -0.007819
  13 H :    0.044596
  14 H :    0.014114
  15 H :    0.035366
  16 S :    0.084030
  17 C :   -0.048268
  18 C :   -0.048651
  19 C :   -0.041544
  20 C :   -0.155824
  21 H :    0.005434
  22 C :    0.083716
  23 H :    0.007084
  24 H :    0.036644
  25 C :   -0.066104
  26 H :    0.020389
  27 H :    0.019941
  28 C :   -0.034350
  29 H :    0.032903
  30 H :    0.028240
  31 H :    0.029378
  32 H :    0.032495
  33 H :    0.033775
Sum of atomic charges:    0.0000000

LOEWDIN ATOMIC CHARGES
----------------------
   0 S :    0.423253
   1 C :   -0.200223
   2 C :   -0.060188
   3 C :   -0.063104
   4 C :   -0.202426
   5 H :    0.032227
   6 C :   -0.032355
   7 H :    0.030787
   8 H :    0.027365
   9 C :   -0.043052
  10 H :    0.027487
  11 H :    0.021023
  12 C :   -0.057000
  13 H :    0.033116
  14 H :    0.014502
  15 H :    0.030275
  16 S :    0.396077
  17 C :   -0.178811
  18 C :   -0.069613
  19 C :   -0.063445
  20 C :   -0.185652
  21 H :    0.026643
  22 C :   -0.035790
  23 H :    0.024113
  24 H :    0.045227
  25 C :   -0.040994
  26 H :    0.021964
  27 H :    0.027169
  28 C :   -0.060522
  29 H :    0.023985
  30 H :    0.012438
  31 H :    0.032361
  32 H :    0.022443
  33 H :    0.020721

  Mayer bond orders larger than 0.100000
B(  0-S ,  1-C ) :   1.1214 B(  0-S ,  4-C ) :   1.1684 B(  1-C ,  2-C ) :   1.6002
B(  1-C , 32-H ) :   0.9659 B(  2-C ,  3-C ) :   1.2562 B(  2-C ,  6-C ) :   1.0259
B(  3-C ,  4-C ) :   1.5350 B(  3-C ,  5-H ) :   0.9911 B(  4-C , 20-C ) :   1.0590
B(  6-C ,  7-H ) :   0.9367 B(  6-C ,  8-H ) :   0.9431 B(  6-C ,  9-C ) :   1.0565
B(  9-C , 10-H ) :   0.9570 B(  9-C , 11-H ) :   0.9540 B(  9-C , 12-C ) :   1.0835
B( 12-C , 13-H ) :   0.9727 B( 12-C , 14-H ) :   0.9752 B( 12-C , 15-H ) :   0.9709
B( 16-S , 17-C ) :   1.1647 B( 16-S , 20-C ) :   1.1205 B( 17-C , 18-C ) :   1.6013
B( 17-C , 33-H ) :   0.9690 B( 18-C , 19-C ) :   1.2359 B( 18-C , 21-H ) :   1.0017
B( 19-C , 20-C ) :   1.5783 B( 19-C , 22-C ) :   1.0623 B( 22-C , 23-H ) :   0.9324
B( 22-C , 24-H ) :   0.9226 B( 22-C , 25-C ) :   1.0682 B( 25-C , 26-H ) :   0.9540
B( 25-C , 27-H ) :   0.9533 B( 25-C , 28-C ) :   1.0734 B( 28-C , 29-H ) :   0.9721
B( 28-C , 30-H ) :   0.9705 B( 28-C , 31-H ) :   0.9682

Dispersion correction           -0.015060976
FINAL SINGLE POINT ENERGY     -1339.871557020018

DIPOLE MOMENT
-------------
                                X             Y             Z
Electronic contribution:     14.74345      19.64540      12.85105
Nuclear contribution   :    -15.07903     -20.28117     -12.93581
                        -----------------------------------------
Total Dipole Moment    :     -0.33558      -0.63577      -0.08475
                        -----------------------------------------
Magnitude (a.u.)       :      0.72388
Magnitude (Debye)      :      1.83996

Rotational constants in cm-1:     0.020317     0.009108     0.006851
Rotational constants in MHz :   609.084357   273.042706   205.385160

                             ****ORCA TERMINATED NORMALLY****
TOTAL RUN TIME: 0 days 0 hours 0 minutes 22 seconds 465 msec
