                         Program Version 4.2.1 -  RELEASE  -
|  1> ! wB97X-D3 SP def2-SVP
|  2> %pal
|  3> nprocs 24
|  4> end
|  5>
|  6> * xyz 0 1
|  7> S 	 45.0771 	 -19.4102 	 -116.105
|  8> C 	 46.1691 	 -19.7542 	 -114.772
|  9> C 	 46.8079 	 -18.6333 	 -114.344
| 10> C 	 46.6388 	 -17.5536 	 -115.264
| 11> C 	 45.5661 	 -17.7063 	 -116.093
| 12> H 	 47.0623 	 -16.614 	 -115.16
| 13> C 	 47.8354 	 -18.4973 	 -113.235
| 14> H 	 47.7958 	 -19.3463 	 -112.477
| 15> H 	 47.4071 	 -17.7294 	 -112.573
| 16> C 	 49.2774 	 -18.1591 	 -113.677
| 17> H 	 49.9016 	 -18.9454 	 -114.017
| 18> H 	 49.3063 	 -17.356 	 -114.446
| 19> C 	 50.0928 	 -17.6187 	 -112.523
| 20> H 	 51.1062 	 -17.459 	 -112.677
| 21> H 	 49.8726 	 -16.5583 	 -112.406
| 22> H 	 49.9308 	 -18.1301 	 -111.596
| 23> S 	 44.7479 	 -17.2541 	 -118.634
| 24> C 	 44.2591 	 -15.6643 	 -119.108
| 25> C 	 44.407 	 -14.7241 	 -118.079
| 26> C 	 44.848 	 -15.3471 	 -116.857
| 27> C 	 45.0222 	 -16.7153 	 -117.013
| 28> H 	 44.2543 	 -13.7041 	 -118.325
| 29> C 	 45.1139 	 -14.5051 	 -115.568
| 30> H 	 46.1883 	 -14.6057 	 -115.267
| 31> H 	 44.5895 	 -14.9998 	 -114.796
| 32> C 	 44.5233 	 -13.0667 	 -115.532
| 33> H 	 43.5537 	 -13.099 	 -116.09
| 34> H 	 45.1377 	 -12.3904 	 -116.018
| 35> C 	 44.2675 	 -12.4149 	 -114.19
| 36> H 	 43.599 	 -13.0602 	 -113.523
| 37> H 	 43.896 	 -11.3837 	 -114.08
| 38> H 	 45.2417 	 -12.3352 	 -113.772
| 39> H 	 46.3302 	 -20.7351 	 -114.436
| 40> H 	 43.8929 	 -15.4323 	 -120.098
| 41> *
| 42>
| 43>                          ****END OF INPUT****

CARTESIAN COORDINATES (ANGSTROEM)
---------------------------------
  S     45.077100  -19.410200  -116.105000
  C     46.169100  -19.754200  -114.772000
  C     46.807900  -18.633300  -114.344000
  C     46.638800  -17.553600  -115.264000
  C     45.566100  -17.706300  -116.093000
  H     47.062300  -16.614000  -115.160000
  C     47.835400  -18.497300  -113.235000
  H     47.795800  -19.346300  -112.477000
  H     47.407100  -17.729400  -112.573000
  C     49.277400  -18.159100  -113.677000
  H     49.901600  -18.945400  -114.017000
  H     49.306300  -17.356000  -114.446000
  C     50.092800  -17.618700  -112.523000
  H     51.106200  -17.459000  -112.677000
  H     49.872600  -16.558300  -112.406000
  H     49.930800  -18.130100  -111.596000
  S     44.747900  -17.254100  -118.634000
  C     44.259100  -15.664300  -119.108000
  C     44.407000  -14.724100  -118.079000
  C     44.848000  -15.347100  -116.857000
  C     45.022200  -16.715300  -117.013000
  H     44.254300  -13.704100  -118.325000
  C     45.113900  -14.505100  -115.568000
  H     46.188300  -14.605700  -115.267000
  H     44.589500  -14.999800  -114.796000
  C     44.523300  -13.066700  -115.532000
  H     43.553700  -13.099000  -116.090000
  H     45.137700  -12.390400  -116.018000
  C     44.267500  -12.414900  -114.190000
  H     43.599000  -13.060200  -113.523000
  H     43.896000  -11.383700  -114.080000
  H     45.241700  -12.335200  -113.772000
  H     46.330200  -20.735100  -114.436000
  H     43.892900  -15.432300  -120.098000

 Total Charge           Charge          ....    0
 Multiplicity           Mult            ....    1
 Number of Electrons    NEL             ....  134
 Basis Dimension        Dim             ....  322

ORBITAL ENERGIES
----------------

  NO   OCC          E(Eh)            E(eV)
   0   2.0000     -88.966991     -2420.9149
   1   2.0000     -88.961270     -2420.7592
   2   2.0000     -10.327282      -281.0196
   3   2.0000     -10.324354      -280.9399
   4   2.0000     -10.317029      -280.7406
   5   2.0000     -10.311148      -280.5806
   6   2.0000     -10.308770      -280.5159
   7   2.0000     -10.301763      -280.3252
   8   2.0000     -10.299895      -280.2744
   9   2.0000     -10.298753      -280.2433
  10   2.0000     -10.295214      -280.1470
  11   2.0000     -10.288536      -279.9653
  12   2.0000     -10.287252      -279.9304
  13   2.0000     -10.284590      -279.8579
  14   2.0000     -10.282620      -279.8043
  15   2.0000     -10.267551      -279.3943
  16   2.0000      -8.082413      -219.9336
  17   2.0000      -8.075948      -219.7577
  18   2.0000      -6.040745      -164.3770
  19   2.0000      -6.036833      -164.2706
  20   2.0000      -6.034551      -164.2085
  21   2.0000      -6.033319      -164.1750
  22   2.0000      -6.030580      -164.1004
  23   2.0000      -6.026505      -163.9895
  24   2.0000      -1.008729       -27.4489
  25   2.0000      -0.985420       -26.8146
  26   2.0000      -0.911986       -24.8164
  27   2.0000      -0.908945       -24.7337
  28   2.0000      -0.872507       -23.7421
  29   2.0000      -0.856962       -23.3191
  30   2.0000      -0.847733       -23.0680
  31   2.0000      -0.816150       -22.2086
  32   2.0000      -0.784715       -21.3532
  33   2.0000      -0.773931       -21.0597
  34   2.0000      -0.710535       -19.3346
  35   2.0000      -0.704295       -19.1648
  36   2.0000      -0.697575       -18.9820
  37   2.0000      -0.659445       -17.9444
  38   2.0000      -0.645419       -17.5628
  39   2.0000      -0.626155       -17.0385
  40   2.0000      -0.597662       -16.2632
  41   2.0000      -0.574110       -15.6223
  42   2.0000      -0.566595       -15.4178
  43   2.0000      -0.559839       -15.2340
  44   2.0000      -0.536749       -14.6057
  45   2.0000      -0.521682       -14.1957
  46   2.0000      -0.517904       -14.0929
  47   2.0000      -0.514226       -13.9928
  48   2.0000      -0.511006       -13.9052
  49   2.0000      -0.500372       -13.6158
  50   2.0000      -0.493976       -13.4418
  51   2.0000      -0.479737       -13.0543
  52   2.0000      -0.472801       -12.8656
  53   2.0000      -0.464409       -12.6372
  54   2.0000      -0.455929       -12.4065
  55   2.0000      -0.453850       -12.3499
  56   2.0000      -0.450803       -12.2670
  57   2.0000      -0.437259       -11.8984
  58   2.0000      -0.434424       -11.8213
  59   2.0000      -0.426220       -11.5980
  60   2.0000      -0.419477       -11.4145
  61   2.0000      -0.412324       -11.2199
  62   2.0000      -0.410620       -11.1735
  63   2.0000      -0.348752        -9.4900
  64   2.0000      -0.333182        -9.0663
  65   2.0000      -0.327886        -8.9222
  66   2.0000      -0.289864        -7.8876
  67   0.0000       0.026786         0.7289
  68   0.0000       0.081036         2.2051
  69   0.0000       0.105314         2.8657
  70   0.0000       0.119287         3.2460
  71   0.0000       0.136675         3.7191

MULLIKEN ATOMIC CHARGES
-----------------------
   0 S :    0.089529
   1 C :   -0.105471
   2 C :   -0.053544
   3 C :    0.039969
   4 C :   -0.142052
   5 H :   -0.025521
   6 C :    0.036814
   7 H :    0.026178
   8 H :    0.031902
   9 C :   -0.043632
  10 H :    0.032301
  11 H :    0.033225
  12 C :   -0.037666
  13 H :    0.010220
  14 H :    0.009944
  15 H :    0.031074
  16 S :    0.119109
  17 C :   -0.091324
  18 C :   -0.041660
  19 C :   -0.052157
  20 C :   -0.140403
  21 H :    0.013837
  22 C :    0.079979
  23 H :    0.049547
  24 H :    0.020695
  25 C :   -0.067804
  26 H :    0.039488
  27 H :    0.016520
  28 C :   -0.064079
  29 H :    0.040230
  30 H :    0.042443
  31 H :    0.017578
  32 H :    0.030686
  33 H :    0.054042
Sum of atomic charges:    0.0000000

LOEWDIN ATOMIC CHARGES
----------------------
   0 S :    0.377030
   1 C :   -0.179060
   2 C :   -0.062905
   3 C :   -0.055034
   4 C :   -0.177964
   5 H :    0.014667
   6 C :   -0.037962
   7 H :    0.035670
   8 H :    0.036026
   9 C :   -0.035937
  10 H :    0.023578
  11 H :    0.029497
  12 C :   -0.066142
  13 H :    0.018045
  14 H :    0.024851
  15 H :    0.021591
  16 S :    0.428059
  17 C :   -0.188363
  18 C :   -0.069047
  19 C :   -0.049018
  20 C :   -0.208645
  21 H :    0.027901
  22 C :   -0.029413
  23 H :    0.034321
  24 H :    0.029908
  25 C :   -0.041679
  26 H :    0.030187
  27 H :    0.013815
  28 C :   -0.071440
  29 H :    0.029927
  30 H :    0.032918
  31 H :    0.020135
  32 H :    0.018357
  33 H :    0.026126

  Mayer bond orders larger than 0.100000
B(  0-S ,  1-C ) :   1.1221 B(  0-S ,  4-C ) :   1.1303 B(  1-C ,  2-C ) :   1.6334
B(  1-C , 32-H ) :   0.9770 B(  2-C ,  3-C ) :   1.2155 B(  2-C ,  6-C ) :   1.0269
B(  3-C ,  4-C ) :   1.6111 B(  3-C ,  5-H ) :   0.9880 B(  4-C , 20-C ) :   1.0501
B(  6-C ,  7-H ) :   0.9409 B(  6-C ,  8-H ) :   0.9389 B(  6-C ,  9-C ) :   1.0466
B(  9-C , 10-H ) :   0.9610 B(  9-C , 11-H ) :   0.9587 B(  9-C , 12-C ) :   1.0782
B( 12-C , 13-H ) :   0.9694 B( 12-C , 14-H ) :   0.9711 B( 12-C , 15-H ) :   0.9756
B( 16-S , 17-C ) :   1.1706 B( 16-S , 20-C ) :   1.1552 B( 17-C , 18-C ) :   1.5880
B( 17-C , 33-H ) :   0.9667 B( 18-C , 19-C ) :   1.2456 B( 18-C , 21-H ) :   0.9970
B( 19-C , 20-C ) :   1.6015 B( 19-C , 22-C ) :   1.0192 B( 22-C , 23-H ) :   0.9280
B( 22-C , 24-H ) :   0.9320 B( 22-C , 25-C ) :   1.0646 B( 25-C , 26-H ) :   0.9538
B( 25-C , 27-H ) :   0.9501 B( 25-C , 28-C ) :   1.0819 B( 28-C , 29-H ) :   0.9748
B( 28-C , 30-H ) :   0.9735 B( 28-C , 31-H ) :   0.9734

Dispersion correction           -0.013337264
FINAL SINGLE POINT ENERGY     -1339.855866063096

DIPOLE MOMENT
-------------
                                X             Y             Z
Electronic contribution:    -13.29522     -18.30456     -22.19650
Nuclear contribution   :     13.71265      18.90113      22.57176
                        -----------------------------------------
Total Dipole Moment    :      0.41743       0.59657       0.37527
                        -----------------------------------------
Magnitude (a.u.)       :      0.81913
Magnitude (Debye)      :      2.08205

Rotational constants in cm-1:     0.015406     0.008940     0.006351
Rotational constants in MHz :   461.868173   268.020822   190.401479

                             ****ORCA TERMINATED NORMALLY****
TOTAL RUN TIME: 0 days 0 hours 0 minutes 21 seconds 68 msec
