                         Program Version 4.2.1 -  RELEASE  -
|  1> ! wB97X-D3 SP def2-SVP
|  2> %pal
|  3> nprocs 24
|  4> end
|  5>
|  6> * xyz 0 1
|  7> S 	 -97.1339 	 14.712 	 -117.19
|  8> C 	 -97.5664 	 15.2476 	 -115.662
|  9> C 	 -98.6501 	 14.5496 	 -115.139
| 10> C 	 -99.0819 	 13.5104 	 -116.053
| 11> C 	 -98.4414 	 13.5978 	 -117.277
| 12> H 	 -99.8695 	 12.7886 	 -115.985
| 13> C 	 -99.3068 	 14.8798 	 -113.821
| 14> H 	 -100.348 	 15.0326 	 -113.873
| 15> H 	 -99.026 	 15.8211 	 -113.382
| 16> C 	 -99.1336 	 13.9332 	 -112.656
| 17> H 	 -99.7645 	 14.3796 	 -111.865
| 18> H 	 -99.5972 	 12.9841 	 -112.895
| 19> C 	 -97.7067 	 13.9397 	 -112.099
| 20> H 	 -97.5988 	 13.3414 	 -111.176
| 21> H 	 -96.9888 	 13.6927 	 -112.832
| 22> H 	 -97.4952 	 14.9496 	 -111.871
| 23> S 	 -100.285 	 12.2602 	 -118.772
| 24> C 	 -99.7213 	 10.8519 	 -119.641
| 25> C 	 -98.3664 	 10.7713 	 -119.745
| 26> C 	 -97.7159 	 11.839 	 -118.997
| 27> C 	 -98.6285 	 12.6019 	 -118.29
| 28> H 	 -97.9331 	 9.96839 	 -120.35
| 29> C 	 -96.2225 	 11.9865 	 -118.864
| 30> H 	 -95.9385 	 13.0578 	 -118.92
| 31> H 	 -95.733 	 11.5229 	 -119.699
| 32> C 	 -95.7261 	 11.4221 	 -117.566
| 33> H 	 -95.6944 	 10.3379 	 -117.597
| 34> H 	 -96.3827 	 11.8044 	 -116.701
| 35> C 	 -94.2143 	 11.7711 	 -117.432
| 36> H 	 -93.6208 	 11.6149 	 -118.338
| 37> H 	 -93.7347 	 11.2581 	 -116.553
| 38> H 	 -94.1441 	 12.8119 	 -117.106
| 39> H 	 -97.1581 	 16.0422 	 -115.03
| 40> H 	 -100.367 	 10.1125 	 -120.163
| 41> *
| 42>
| 43>                          ****END OF INPUT****

CARTESIAN COORDINATES (ANGSTROEM)
---------------------------------
  S    -97.133900   14.712000  -117.190000
  C    -97.566400   15.247600  -115.662000
  C    -98.650100   14.549600  -115.139000
  C    -99.081900   13.510400  -116.053000
  C    -98.441400   13.597800  -117.277000
  H    -99.869500   12.788600  -115.985000
  C    -99.306800   14.879800  -113.821000
  H    -100.348000   15.032600  -113.873000
  H    -99.026000   15.821100  -113.382000
  C    -99.133600   13.933200  -112.656000
  H    -99.764500   14.379600  -111.865000
  H    -99.597200   12.984100  -112.895000
  C    -97.706700   13.939700  -112.099000
  H    -97.598800   13.341400  -111.176000
  H    -96.988800   13.692700  -112.832000
  H    -97.495200   14.949600  -111.871000
  S    -100.285000   12.260200  -118.772000
  C    -99.721300   10.851900  -119.641000
  C    -98.366400   10.771300  -119.745000
  C    -97.715900   11.839000  -118.997000
  C    -98.628500   12.601900  -118.290000
  H    -97.933100    9.968390  -120.350000
  C    -96.222500   11.986500  -118.864000
  H    -95.938500   13.057800  -118.920000
  H    -95.733000   11.522900  -119.699000
  C    -95.726100   11.422100  -117.566000
  H    -95.694400   10.337900  -117.597000
  H    -96.382700   11.804400  -116.701000
  C    -94.214300   11.771100  -117.432000
  H    -93.620800   11.614900  -118.338000
  H    -93.734700   11.258100  -116.553000
  H    -94.144100   12.811900  -117.106000
  H    -97.158100   16.042200  -115.030000
  H    -100.367000   10.112500  -120.163000

 Total Charge           Charge          ....    0
 Multiplicity           Mult            ....    1
 Number of Electrons    NEL             ....  134
 Basis Dimension        Dim             ....  322

ORBITAL ENERGIES
----------------

  NO   OCC          E(Eh)            E(eV)
   0   2.0000     -88.971520     -2421.0381
   1   2.0000     -88.965790     -2420.8822
   2   2.0000     -10.324816      -280.9525
   3   2.0000     -10.322777      -280.8970
   4   2.0000     -10.315365      -280.6954
   5   2.0000     -10.312980      -280.6305
   6   2.0000     -10.304564      -280.4014
   7   2.0000     -10.302025      -280.3324
   8   2.0000     -10.295515      -280.1552
   9   2.0000     -10.295441      -280.1532
  10   2.0000     -10.286097      -279.8989
  11   2.0000     -10.285921      -279.8942
  12   2.0000     -10.283550      -279.8296
  13   2.0000     -10.283186      -279.8197
  14   2.0000     -10.277140      -279.6552
  15   2.0000     -10.269852      -279.4569
  16   2.0000      -8.087217      -220.0644
  17   2.0000      -8.080380      -219.8783
  18   2.0000      -6.045611      -164.5094
  19   2.0000      -6.041410      -164.3951
  20   2.0000      -6.038922      -164.3274
  21   2.0000      -6.038222      -164.3084
  22   2.0000      -6.035093      -164.2232
  23   2.0000      -6.030939      -164.1102
  24   2.0000      -1.016509       -27.6606
  25   2.0000      -0.988410       -26.8960
  26   2.0000      -0.919226       -25.0134
  27   2.0000      -0.911564       -24.8049
  28   2.0000      -0.877657       -23.8823
  29   2.0000      -0.852346       -23.1935
  30   2.0000      -0.842860       -22.9354
  31   2.0000      -0.815104       -22.1801
  32   2.0000      -0.787876       -21.4392
  33   2.0000      -0.769737       -20.9456
  34   2.0000      -0.708646       -19.2832
  35   2.0000      -0.695139       -18.9157
  36   2.0000      -0.685418       -18.6512
  37   2.0000      -0.665737       -18.1156
  38   2.0000      -0.640258       -17.4223
  39   2.0000      -0.621431       -16.9100
  40   2.0000      -0.595359       -16.2005
  41   2.0000      -0.574778       -15.6405
  42   2.0000      -0.569236       -15.4897
  43   2.0000      -0.551548       -15.0084
  44   2.0000      -0.546165       -14.8619
  45   2.0000      -0.519133       -14.1263
  46   2.0000      -0.519081       -14.1249
  47   2.0000      -0.507352       -13.8057
  48   2.0000      -0.501385       -13.6434
  49   2.0000      -0.497683       -13.5426
  50   2.0000      -0.490484       -13.3468
  51   2.0000      -0.481138       -13.0924
  52   2.0000      -0.471478       -12.8296
  53   2.0000      -0.470233       -12.7957
  54   2.0000      -0.461880       -12.5684
  55   2.0000      -0.448969       -12.2171
  56   2.0000      -0.442616       -12.0442
  57   2.0000      -0.439799       -11.9675
  58   2.0000      -0.430861       -11.7243
  59   2.0000      -0.424595       -11.5538
  60   2.0000      -0.421734       -11.4760
  61   2.0000      -0.417789       -11.3686
  62   2.0000      -0.406656       -11.0657
  63   2.0000      -0.354508        -9.6466
  64   2.0000      -0.332549        -9.0491
  65   2.0000      -0.327925        -8.9233
  66   2.0000      -0.289153        -7.8682
  67   0.0000       0.029555         0.8042
  68   0.0000       0.079861         2.1731
  69   0.0000       0.105836         2.8799
  70   0.0000       0.117257         3.1907
  71   0.0000       0.132627         3.6090

MULLIKEN ATOMIC CHARGES
-----------------------
   0 S :    0.125217
   1 C :   -0.095426
   2 C :   -0.064915
   3 C :    0.012134
   4 C :   -0.147885
   5 H :    0.012847
   6 C :    0.074338
   7 H :    0.016586
   8 H :   -0.005936
   9 C :   -0.089438
  10 H :    0.023928
  11 H :    0.027869
  12 C :   -0.007287
  13 H :    0.042904
  14 H :    0.025708
  15 H :   -0.000992
  16 S :    0.109179
  17 C :   -0.101696
  18 C :   -0.041261
  19 C :   -0.027472
  20 C :   -0.164791
  21 H :    0.025341
  22 C :    0.057100
  23 H :    0.033509
  24 H :    0.009938
  25 C :   -0.089843
  26 H :    0.027867
  27 H :    0.064465
  28 C :   -0.058049
  29 H :    0.038248
  30 H :    0.034298
  31 H :    0.022800
  32 H :    0.048024
  33 H :    0.062690
Sum of atomic charges:    0.0000000

LOEWDIN ATOMIC CHARGES
----------------------
   0 S :    0.462334
   1 C :   -0.223007
   2 C :   -0.061114
   3 C :   -0.053388
   4 C :   -0.211460
   5 H :    0.024221
   6 C :   -0.035622
   7 H :    0.028533
   8 H :    0.025561
   9 C :   -0.036928
  10 H :    0.027169
  11 H :    0.017106
  12 C :   -0.059786
  13 H :    0.031211
  14 H :    0.019052
  15 H :    0.017703
  16 S :    0.401502
  17 C :   -0.192462
  18 C :   -0.072566
  19 C :   -0.054035
  20 C :   -0.190609
  21 H :    0.037277
  22 C :   -0.041543
  23 H :    0.022648
  24 H :    0.026852
  25 C :   -0.043206
  26 H :    0.022471
  27 H :    0.037397
  28 C :   -0.073140
  29 H :    0.025123
  30 H :    0.028805
  31 H :    0.021275
  32 H :    0.036594
  33 H :    0.036030

  Mayer bond orders larger than 0.100000
B(  0-S ,  1-C ) :   1.1565 B(  0-S ,  4-C ) :   1.1570 B(  1-C ,  2-C ) :   1.5947
B(  1-C , 32-H ) :   0.9622 B(  2-C ,  3-C ) :   1.2369 B(  2-C ,  6-C ) :   1.0284
B(  3-C ,  4-C ) :   1.5480 B(  3-C ,  5-H ) :   0.9949 B(  4-C , 20-C ) :   1.0522
B(  6-C ,  7-H ) :   0.9354 B(  6-C ,  8-H ) :   0.9375 B(  6-C ,  9-C ) :   1.0874
B(  9-C , 10-H ) :   0.9533 B(  9-C , 11-H ) :   0.9582 B(  9-C , 12-C ) :   1.0672
B( 12-C , 13-H ) :   0.9748 B( 12-C , 14-H ) :   0.9782 B( 12-C , 15-H ) :   0.9676
B( 16-S , 17-C ) :   1.1335 B( 16-S , 20-C ) :   1.1320 B( 17-C , 18-C ) :   1.6572
B( 17-C , 33-H ) :   0.9586 B( 18-C , 19-C ) :   1.2060 B( 18-C , 21-H ) :   0.9896
B( 19-C , 20-C ) :   1.6029 B( 19-C , 22-C ) :   1.0486 B( 22-C , 23-H ) :   0.9396
B( 22-C , 24-H ) :   0.9187 B( 22-C , 25-C ) :   1.0649 B( 25-C , 26-H ) :   0.9528
B( 25-C , 27-H ) :   0.9572 B( 25-C , 28-C ) :   1.0714 B( 28-C , 29-H ) :   0.9713
B( 28-C , 30-H ) :   0.9747 B( 28-C , 31-H ) :   0.9737

Dispersion correction           -0.014991900
FINAL SINGLE POINT ENERGY     -1339.878600682524

DIPOLE MOMENT
-------------
                                X             Y             Z
Electronic contribution:    -12.71221       3.24777     -19.00720
Nuclear contribution   :     12.84515      -3.39452      19.30054
                        -----------------------------------------
Total Dipole Moment    :      0.13294      -0.14675       0.29334
                        -----------------------------------------
Magnitude (a.u.)       :      0.35392
Magnitude (Debye)      :      0.89958

Rotational constants in cm-1:     0.019093     0.009302     0.007490
Rotational constants in MHz :   572.384252   278.857808   224.545285

                             ****ORCA TERMINATED NORMALLY****
TOTAL RUN TIME: 0 days 0 hours 0 minutes 23 seconds 337 msec
