                         Program Version 4.2.1 -  RELEASE  -
|  1> ! wB97X-D3 SP def2-SVP
|  2> %pal
|  3> nprocs 24
|  4> end
|  5>
|  6> * xyz 0 1
|  7> S 	 -57.0417 	 15.2097 	 -89.3337
|  8> C 	 -56.8874 	 16.372 	 -90.6628
|  9> C 	 -57.0246 	 17.664 	 -90.2798
| 10> C 	 -57.0207 	 17.8189 	 -88.8417
| 11> C 	 -56.84 	 16.5972 	 -88.2063
| 12> H 	 -57.2021 	 18.6935 	 -88.1629
| 13> C 	 -56.9441 	 18.912 	 -91.0931
| 14> H 	 -57.8609 	 19.5248 	 -90.8302
| 15> H 	 -57.0322 	 18.7316 	 -92.1789
| 16> C 	 -55.7408 	 19.7662 	 -90.779
| 17> H 	 -55.5758 	 19.8625 	 -89.7285
| 18> H 	 -54.8488 	 19.3855 	 -91.1151
| 19> C 	 -55.9007 	 21.2309 	 -91.293
| 20> H 	 -56.776 	 21.7116 	 -90.8466
| 21> H 	 -54.9979 	 21.8108 	 -90.9929
| 22> H 	 -56.0733 	 21.2059 	 -92.4001
| 23> S 	 -58.1914 	 15.4833 	 -86.0913
| 24> C 	 -57.6175 	 15.9779 	 -84.5069
| 25> C 	 -56.4281 	 16.5686 	 -84.5149
| 26> C 	 -55.9832 	 16.9189 	 -85.8279
| 27> C 	 -56.8173 	 16.3599 	 -86.7827
| 28> H 	 -56.0023 	 17.0534 	 -83.5879
| 29> C 	 -54.8503 	 17.9072 	 -86.0362
| 30> H 	 -54.7571 	 18.7292 	 -85.3591
| 31> H 	 -54.8925 	 18.4043 	 -86.9791
| 32> C 	 -53.519 	 17.2171 	 -85.7568
| 33> H 	 -53.4055 	 16.2276 	 -86.2421
| 34> H 	 -53.5114 	 16.9904 	 -84.6948
| 35> C 	 -52.3874 	 18.1331 	 -86.1339
| 36> H 	 -51.4338 	 17.672 	 -86.3205
| 37> H 	 -52.1964 	 18.8262 	 -85.3397
| 38> H 	 -52.6335 	 18.6992 	 -87.0015
| 39> H 	 -56.8774 	 16.067 	 -91.6479
| 40> H 	 -57.948 	 15.526 	 -83.5812
| 41> *
| 42>
| 43>                          ****END OF INPUT****

CARTESIAN COORDINATES (ANGSTROEM)
---------------------------------
  S    -57.041700   15.209700  -89.333700
  C    -56.887400   16.372000  -90.662800
  C    -57.024600   17.664000  -90.279800
  C    -57.020700   17.818900  -88.841700
  C    -56.840000   16.597200  -88.206300
  H    -57.202100   18.693500  -88.162900
  C    -56.944100   18.912000  -91.093100
  H    -57.860900   19.524800  -90.830200
  H    -57.032200   18.731600  -92.178900
  C    -55.740800   19.766200  -90.779000
  H    -55.575800   19.862500  -89.728500
  H    -54.848800   19.385500  -91.115100
  C    -55.900700   21.230900  -91.293000
  H    -56.776000   21.711600  -90.846600
  H    -54.997900   21.810800  -90.992900
  H    -56.073300   21.205900  -92.400100
  S    -58.191400   15.483300  -86.091300
  C    -57.617500   15.977900  -84.506900
  C    -56.428100   16.568600  -84.514900
  C    -55.983200   16.918900  -85.827900
  C    -56.817300   16.359900  -86.782700
  H    -56.002300   17.053400  -83.587900
  C    -54.850300   17.907200  -86.036200
  H    -54.757100   18.729200  -85.359100
  H    -54.892500   18.404300  -86.979100
  C    -53.519000   17.217100  -85.756800
  H    -53.405500   16.227600  -86.242100
  H    -53.511400   16.990400  -84.694800
  C    -52.387400   18.133100  -86.133900
  H    -51.433800   17.672000  -86.320500
  H    -52.196400   18.826200  -85.339700
  H    -52.633500   18.699200  -87.001500
  H    -56.877400   16.067000  -91.647900
  H    -57.948000   15.526000  -83.581200

 Total Charge           Charge          ....    0
 Multiplicity           Mult            ....    1
 Number of Electrons    NEL             ....  134
 Basis Dimension        Dim             ....  322

ORBITAL ENERGIES
----------------

  NO   OCC          E(Eh)            E(eV)
   0   2.0000     -88.965454     -2420.8731
   1   2.0000     -88.962613     -2420.7958
   2   2.0000     -10.328728      -281.0590
   3   2.0000     -10.324081      -280.9325
   4   2.0000     -10.310564      -280.5647
   5   2.0000     -10.308020      -280.4955
   6   2.0000     -10.303496      -280.3724
   7   2.0000     -10.300734      -280.2972
   8   2.0000     -10.299738      -280.2701
   9   2.0000     -10.295905      -280.1658
  10   2.0000     -10.291750      -280.0528
  11   2.0000     -10.286950      -279.9221
  12   2.0000     -10.285628      -279.8862
  13   2.0000     -10.281061      -279.7619
  14   2.0000     -10.277420      -279.6628
  15   2.0000     -10.268008      -279.4067
  16   2.0000      -8.080087      -219.8703
  17   2.0000      -8.076776      -219.7803
  18   2.0000      -6.038693      -164.3212
  19   2.0000      -6.035363      -164.2306
  20   2.0000      -6.034829      -164.2161
  21   2.0000      -6.031768      -164.1328
  22   2.0000      -6.030524      -164.0989
  23   2.0000      -6.027094      -164.0056
  24   2.0000      -1.006053       -27.3761
  25   2.0000      -0.982910       -26.7464
  26   2.0000      -0.917687       -24.9715
  27   2.0000      -0.914968       -24.8976
  28   2.0000      -0.872910       -23.7531
  29   2.0000      -0.852798       -23.2058
  30   2.0000      -0.844039       -22.9675
  31   2.0000      -0.814641       -22.1675
  32   2.0000      -0.782801       -21.3011
  33   2.0000      -0.771192       -20.9852
  34   2.0000      -0.709308       -19.3012
  35   2.0000      -0.701663       -19.0932
  36   2.0000      -0.699390       -19.0314
  37   2.0000      -0.656706       -17.8699
  38   2.0000      -0.645843       -17.5743
  39   2.0000      -0.619359       -16.8536
  40   2.0000      -0.605071       -16.4648
  41   2.0000      -0.567589       -15.4449
  42   2.0000      -0.565053       -15.3759
  43   2.0000      -0.555596       -15.1185
  44   2.0000      -0.528600       -14.3839
  45   2.0000      -0.524655       -14.2766
  46   2.0000      -0.518897       -14.1199
  47   2.0000      -0.509361       -13.8604
  48   2.0000      -0.502603       -13.6765
  49   2.0000      -0.495302       -13.4778
  50   2.0000      -0.494153       -13.4466
  51   2.0000      -0.483176       -13.1479
  52   2.0000      -0.466164       -12.6850
  53   2.0000      -0.461992       -12.5714
  54   2.0000      -0.456410       -12.4196
  55   2.0000      -0.453238       -12.3332
  56   2.0000      -0.446866       -12.1598
  57   2.0000      -0.441579       -12.0160
  58   2.0000      -0.440604       -11.9894
  59   2.0000      -0.424166       -11.5422
  60   2.0000      -0.421761       -11.4767
  61   2.0000      -0.420247       -11.4355
  62   2.0000      -0.413273       -11.2457
  63   2.0000      -0.346454        -9.4275
  64   2.0000      -0.329736        -8.9726
  65   2.0000      -0.326607        -8.8874
  66   2.0000      -0.295309        -8.0358
  67   0.0000       0.032361         0.8806
  68   0.0000       0.062810         1.7092
  69   0.0000       0.100546         2.7360
  70   0.0000       0.117868         3.2074
  71   0.0000       0.122421         3.3312

MULLIKEN ATOMIC CHARGES
-----------------------
   0 S :    0.082845
   1 C :   -0.080271
   2 C :   -0.044010
   3 C :    0.001138
   4 C :   -0.169268
   5 H :    0.048947
   6 C :    0.052988
   7 H :    0.032975
   8 H :    0.023108
   9 C :   -0.033984
  10 H :    0.017140
  11 H :    0.008810
  12 C :   -0.083323
  13 H :    0.031384
  14 H :    0.045542
  15 H :    0.039325
  16 S :    0.103349
  17 C :   -0.071728
  18 C :   -0.050136
  19 C :   -0.029481
  20 C :   -0.164508
  21 H :    0.043738
  22 C :    0.089909
  23 H :    0.012759
  24 H :    0.006996
  25 C :   -0.108152
  26 H :    0.038894
  27 H :    0.023062
  28 C :    0.003369
  29 H :    0.027453
  30 H :    0.017596
  31 H :    0.016898
  32 H :    0.011439
  33 H :    0.055197
Sum of atomic charges:   -0.0000000

LOEWDIN ATOMIC CHARGES
----------------------
   0 S :    0.359761
   1 C :   -0.170753
   2 C :   -0.061613
   3 C :   -0.060016
   4 C :   -0.171370
   5 H :    0.045611
   6 C :   -0.035084
   7 H :    0.039943
   8 H :    0.029487
   9 C :   -0.034003
  10 H :    0.020004
  11 H :    0.013766
  12 C :   -0.066364
  13 H :    0.021821
  14 H :    0.030911
  15 H :    0.027259
  16 S :    0.387031
  17 C :   -0.180859
  18 C :   -0.077100
  19 C :   -0.046922
  20 C :   -0.196039
  21 H :    0.043386
  22 C :   -0.027206
  23 H :    0.029361
  24 H :    0.021048
  25 C :   -0.037788
  26 H :    0.026001
  27 H :    0.020887
  28 C :   -0.061660
  29 H :    0.025888
  30 H :    0.022809
  31 H :    0.021283
  32 H :    0.010964
  33 H :    0.029556

  Mayer bond orders larger than 0.100000
B(  0-S ,  1-C ) :   1.1067 B(  0-S ,  4-C ) :   1.1194 B(  1-C ,  2-C ) :   1.6735
B(  1-C , 32-H ) :   0.9763 B(  2-C ,  3-C ) :   1.1570 B(  2-C ,  6-C ) :   1.0400
B(  3-C ,  4-C ) :   1.6376 B(  3-C ,  5-H ) :   0.9783 B(  4-C , 20-C ) :   1.0416
B(  6-C ,  7-H ) :   0.9329 B(  6-C ,  8-H ) :   0.9412 B(  6-C ,  9-C ) :   1.0608
B(  9-C , 10-H ) :   0.9520 B(  9-C , 11-H ) :   0.9520 B(  9-C , 12-C ) :   1.0788
B( 12-C , 13-H ) :   0.9766 B( 12-C , 14-H ) :   0.9746 B( 12-C , 15-H ) :   0.9766
B( 16-S , 17-C ) :   1.1281 B( 16-S , 20-C ) :   1.1265 B( 17-C , 18-C ) :   1.6933
B( 17-C , 33-H ) :   0.9516 B( 18-C , 19-C ) :   1.2089 B( 18-C , 21-H ) :   0.9673
B( 19-C , 20-C ) :   1.6414 B( 19-C , 22-C ) :   1.0456 B( 22-C , 23-H ) :   0.9394
B( 22-C , 24-H ) :   0.9371 B( 22-C , 25-C ) :   1.0388 B( 25-C , 26-H ) :   0.9605
B( 25-C , 27-H ) :   0.9600 B( 25-C , 28-C ) :   1.0827 B( 28-C , 29-H ) :   0.9728
B( 28-C , 30-H ) :   0.9689 B( 28-C , 31-H ) :   0.9737

Dispersion correction           -0.013953665
FINAL SINGLE POINT ENERGY     -1339.862838886731

DIPOLE MOMENT
-------------
                                X             Y             Z
Electronic contribution:    -18.86200     -24.25596       5.00413
Nuclear contribution   :     19.19258      24.94621      -4.91191
                        -----------------------------------------
Total Dipole Moment    :      0.33059       0.69025       0.09221
                        -----------------------------------------
Magnitude (a.u.)       :      0.77087
Magnitude (Debye)      :      1.95940

Rotational constants in cm-1:     0.016115     0.009487     0.007029
Rotational constants in MHz :   483.116381   284.422580   210.724552

                             ****ORCA TERMINATED NORMALLY****
TOTAL RUN TIME: 0 days 0 hours 0 minutes 21 seconds 994 msec
