                         Program Version 4.2.1 -  RELEASE  -
|  1> ! wB97X-D3 SP def2-SVP
|  2> %pal
|  3> nprocs 24
|  4> end
|  5>
|  6> * xyz 0 1
|  7> S 	 -116.733 	 20.2833 	 -115.167
|  8> C 	 -118.165 	 20.5368 	 -114.261
|  9> C 	 -119.3 	 19.9615 	 -114.891
| 10> C 	 -118.911 	 19.2769 	 -116.058
| 11> C 	 -117.664 	 19.5258 	 -116.461
| 12> H 	 -119.667 	 18.6915 	 -116.601
| 13> C 	 -120.748 	 19.9089 	 -114.404
| 14> H 	 -120.766 	 20.298 	 -113.352
| 15> H 	 -121.13 	 18.8888 	 -114.426
| 16> C 	 -121.686 	 20.789 	 -115.242
| 17> H 	 -122.673 	 20.8977 	 -114.765
| 18> H 	 -121.252 	 21.7874 	 -115.328
| 19> C 	 -122.028 	 20.1247 	 -116.575
| 20> H 	 -121.192 	 20.1124 	 -117.209
| 21> H 	 -122.351 	 19.0766 	 -116.415
| 22> H 	 -122.845 	 20.6454 	 -116.984
| 23> S 	 -115.837 	 17.6412 	 -117.197
| 24> C 	 -115.652 	 17.052 	 -118.753
| 25> C 	 -116.486 	 17.7405 	 -119.64
| 26> C 	 -117.148 	 18.8325 	 -119.004
| 27> C 	 -116.967 	 18.8738 	 -117.626
| 28> H 	 -116.451 	 17.3621 	 -120.675
| 29> C 	 -118.083 	 19.7566 	 -119.753
| 30> H 	 -117.49 	 20.0835 	 -120.561
| 31> H 	 -118.227 	 20.665 	 -119.128
| 32> C 	 -119.389 	 19.1221 	 -120.212
| 33> H 	 -119.838 	 18.7154 	 -119.305
| 34> H 	 -119.072 	 18.3378 	 -120.874
| 35> C 	 -120.353 	 20.0883 	 -120.801
| 36> H 	 -121.17 	 19.4884 	 -121.29
| 37> H 	 -119.86 	 20.4742 	 -121.711
| 38> H 	 -120.757 	 20.91 	 -120.189
| 39> H 	 -117.973 	 21.0261 	 -113.32
| 40> H 	 -115.091 	 16.1699 	 -118.932
| 41> *
| 42>
| 43>                          ****END OF INPUT****

CARTESIAN COORDINATES (ANGSTROEM)
---------------------------------
  S    -116.733000   20.283300  -115.167000
  C    -118.165000   20.536800  -114.261000
  C    -119.300000   19.961500  -114.891000
  C    -118.911000   19.276900  -116.058000
  C    -117.664000   19.525800  -116.461000
  H    -119.667000   18.691500  -116.601000
  C    -120.748000   19.908900  -114.404000
  H    -120.766000   20.298000  -113.352000
  H    -121.130000   18.888800  -114.426000
  C    -121.686000   20.789000  -115.242000
  H    -122.673000   20.897700  -114.765000
  H    -121.252000   21.787400  -115.328000
  C    -122.028000   20.124700  -116.575000
  H    -121.192000   20.112400  -117.209000
  H    -122.351000   19.076600  -116.415000
  H    -122.845000   20.645400  -116.984000
  S    -115.837000   17.641200  -117.197000
  C    -115.652000   17.052000  -118.753000
  C    -116.486000   17.740500  -119.640000
  C    -117.148000   18.832500  -119.004000
  C    -116.967000   18.873800  -117.626000
  H    -116.451000   17.362100  -120.675000
  C    -118.083000   19.756600  -119.753000
  H    -117.490000   20.083500  -120.561000
  H    -118.227000   20.665000  -119.128000
  C    -119.389000   19.122100  -120.212000
  H    -119.838000   18.715400  -119.305000
  H    -119.072000   18.337800  -120.874000
  C    -120.353000   20.088300  -120.801000
  H    -121.170000   19.488400  -121.290000
  H    -119.860000   20.474200  -121.711000
  H    -120.757000   20.910000  -120.189000
  H    -117.973000   21.026100  -113.320000
  H    -115.091000   16.169900  -118.932000

 Total Charge           Charge          ....    0
 Multiplicity           Mult            ....    1
 Number of Electrons    NEL             ....  134
 Basis Dimension        Dim             ....  322

ORBITAL ENERGIES
----------------

  NO   OCC          E(Eh)            E(eV)
   0   2.0000     -88.965056     -2420.8622
   1   2.0000     -88.957834     -2420.6657
   2   2.0000     -10.328473      -281.0520
   3   2.0000     -10.322632      -280.8931
   4   2.0000     -10.318169      -280.7717
   5   2.0000     -10.308961      -280.5211
   6   2.0000     -10.304273      -280.3935
   7   2.0000     -10.302030      -280.3325
   8   2.0000     -10.295716      -280.1607
   9   2.0000     -10.294517      -280.1280
  10   2.0000     -10.290158      -280.0094
  11   2.0000     -10.285779      -279.8903
  12   2.0000     -10.280874      -279.7568
  13   2.0000     -10.280765      -279.7538
  14   2.0000     -10.280599      -279.7493
  15   2.0000     -10.271577      -279.5038
  16   2.0000      -8.080607      -219.8845
  17   2.0000      -8.074768      -219.7256
  18   2.0000      -6.038937      -164.3278
  19   2.0000      -6.035033      -164.2216
  20   2.0000      -6.032867      -164.1626
  21   2.0000      -6.031478      -164.1249
  22   2.0000      -6.028750      -164.0506
  23   2.0000      -6.026024      -163.9765
  24   2.0000      -1.012329       -27.5469
  25   2.0000      -0.992484       -27.0069
  26   2.0000      -0.915609       -24.9150
  27   2.0000      -0.913604       -24.8604
  28   2.0000      -0.866943       -23.5907
  29   2.0000      -0.854579       -23.2543
  30   2.0000      -0.851267       -23.1641
  31   2.0000      -0.816108       -22.2074
  32   2.0000      -0.781879       -21.2760
  33   2.0000      -0.770992       -20.9797
  34   2.0000      -0.699521       -19.0349
  35   2.0000      -0.698176       -18.9983
  36   2.0000      -0.689250       -18.7554
  37   2.0000      -0.660350       -17.9690
  38   2.0000      -0.648571       -17.6485
  39   2.0000      -0.625315       -17.0157
  40   2.0000      -0.594571       -16.1791
  41   2.0000      -0.576364       -15.6837
  42   2.0000      -0.573094       -15.5947
  43   2.0000      -0.550862       -14.9897
  44   2.0000      -0.542567       -14.7640
  45   2.0000      -0.525299       -14.2941
  46   2.0000      -0.513716       -13.9789
  47   2.0000      -0.512657       -13.9501
  48   2.0000      -0.508193       -13.8286
  49   2.0000      -0.495437       -13.4815
  50   2.0000      -0.492300       -13.3962
  51   2.0000      -0.487759       -13.2726
  52   2.0000      -0.476291       -12.9605
  53   2.0000      -0.466443       -12.6926
  54   2.0000      -0.462892       -12.5959
  55   2.0000      -0.445414       -12.1203
  56   2.0000      -0.439546       -11.9607
  57   2.0000      -0.437512       -11.9053
  58   2.0000      -0.430928       -11.7261
  59   2.0000      -0.427518       -11.6334
  60   2.0000      -0.417833       -11.3698
  61   2.0000      -0.414087       -11.2679
  62   2.0000      -0.409293       -11.1374
  63   2.0000      -0.346715        -9.4346
  64   2.0000      -0.326845        -8.8939
  65   2.0000      -0.326054        -8.8724
  66   2.0000      -0.298416        -8.1203
  67   0.0000       0.040931         1.1138
  68   0.0000       0.064811         1.7636
  69   0.0000       0.112253         3.0546
  70   0.0000       0.125652         3.4192
  71   0.0000       0.132034         3.5928

MULLIKEN ATOMIC CHARGES
-----------------------
   0 S :    0.104418
   1 C :   -0.140574
   2 C :   -0.079842
   3 C :    0.029752
   4 C :   -0.138881
   5 H :    0.029005
   6 C :    0.055310
   7 H :    0.028499
   8 H :    0.032097
   9 C :   -0.077399
  10 H :    0.030289
  11 H :    0.034534
  12 C :   -0.033593
  13 H :    0.030093
  14 H :    0.024292
  15 H :    0.025821
  16 S :    0.109074
  17 C :   -0.092706
  18 C :   -0.066888
  19 C :   -0.060090
  20 C :   -0.144727
  21 H :    0.031443
  22 C :    0.075202
  23 H :    0.009368
  24 H :    0.023051
  25 C :   -0.052643
  26 H :    0.020798
  27 H :    0.023713
  28 C :   -0.039589
  29 H :    0.033537
  30 H :    0.017352
  31 H :    0.054084
  32 H :    0.054322
  33 H :    0.050874
Sum of atomic charges:   -0.0000000

LOEWDIN ATOMIC CHARGES
----------------------
   0 S :    0.415824
   1 C :   -0.199777
   2 C :   -0.064261
   3 C :   -0.059963
   4 C :   -0.195526
   5 H :    0.037852
   6 C :   -0.032060
   7 H :    0.034495
   8 H :    0.029535
   9 C :   -0.039016
  10 H :    0.025391
  11 H :    0.026040
  12 C :   -0.058820
  13 H :    0.013525
  14 H :    0.027237
  15 H :    0.021380
  16 S :    0.449114
  17 C :   -0.203877
  18 C :   -0.086101
  19 C :   -0.057906
  20 C :   -0.212932
  21 H :    0.037235
  22 C :   -0.032381
  23 H :    0.022612
  24 H :    0.031474
  25 C :   -0.040281
  26 H :    0.021211
  27 H :    0.025067
  28 C :   -0.071364
  29 H :    0.033783
  30 H :    0.026089
  31 H :    0.030834
  32 H :    0.022925
  33 H :    0.022641

  Mayer bond orders larger than 0.100000
B(  0-S ,  1-C ) :   1.1757 B(  0-S ,  4-C ) :   1.1547 B(  1-C ,  2-C ) :   1.5572
B(  1-C , 32-H ) :   0.9764 B(  2-C ,  3-C ) :   1.2727 B(  2-C ,  6-C ) :   1.0253
B(  3-C ,  4-C ) :   1.5812 B(  3-C ,  5-H ) :   0.9815 B(  4-C , 20-C ) :   0.9734
B(  6-C ,  7-H ) :   0.9390 B(  6-C ,  8-H ) :   0.9460 B(  6-C ,  9-C ) :   1.0734
B(  9-C , 10-H ) :   0.9583 B(  9-C , 11-H ) :   0.9515 B(  9-C , 12-C ) :   1.0810
B( 12-C , 13-H ) :   0.9713 B( 12-C , 14-H ) :   0.9705 B( 12-C , 15-H ) :   0.9703
B( 16-S , 17-C ) :   1.2108 B( 16-S , 20-C ) :   1.1707 B( 17-C , 18-C ) :   1.5543
B( 17-C , 33-H ) :   0.9731 B( 18-C , 19-C ) :   1.2558 B( 18-C , 21-H ) :   0.9962
B( 19-C , 20-C ) :   1.5933 B( 19-C , 22-C ) :   1.0456 B( 22-C , 23-H ) :   0.9224
B( 22-C , 24-H ) :   0.9364 B( 22-C , 25-C ) :   1.0649 B( 25-C , 26-H ) :   0.9510
B( 25-C , 27-H ) :   0.9484 B( 25-C , 28-C ) :   1.0988 B( 28-C , 29-H ) :   0.9689
B( 28-C , 30-H ) :   0.9667 B( 28-C , 31-H ) :   0.9726

Dispersion correction           -0.015088633
FINAL SINGLE POINT ENERGY     -1339.876488387643

DIPOLE MOMENT
-------------
                                X             Y             Z
Electronic contribution:     27.76853      -5.87520      11.91657
Nuclear contribution   :    -28.37441       5.77644     -12.09967
                        -----------------------------------------
Total Dipole Moment    :     -0.60588      -0.09876      -0.18310
                        -----------------------------------------
Magnitude (a.u.)       :      0.64060
Magnitude (Debye)      :      1.62828

Rotational constants in cm-1:     0.016178     0.011088     0.007282
Rotational constants in MHz :   485.004901   332.396417   218.308925

                             ****ORCA TERMINATED NORMALLY****
TOTAL RUN TIME: 0 days 0 hours 0 minutes 23 seconds 574 msec
