                         Program Version 4.2.1 -  RELEASE  -
|  1> ! wB97X-D3 SP def2-SVP
|  2> %pal
|  3> nprocs 24
|  4> end
|  5>
|  6> * xyz 0 1
|  7> S 	 25.1179 	 -23.6012 	 -123.111
|  8> C 	 25.5091 	 -24.6566 	 -124.431
|  9> C 	 25.7591 	 -25.94 	 -123.958
| 10> C 	 25.7406 	 -26.0073 	 -122.524
| 11> C 	 25.367 	 -24.8094 	 -121.911
| 12> H 	 25.6931 	 -26.8378 	 -121.914
| 13> C 	 25.931 	 -27.253 	 -124.79
| 14> H 	 26.375 	 -27.9433 	 -124.04
| 15> H 	 26.6262 	 -27.0585 	 -125.571
| 16> C 	 24.7174 	 -27.8921 	 -125.438
| 17> H 	 23.8129 	 -28.0429 	 -124.838
| 18> H 	 24.4672 	 -27.1997 	 -126.233
| 19> C 	 25.0191 	 -29.2551 	 -126.033
| 20> H 	 25.3174 	 -29.9137 	 -125.262
| 21> H 	 24.1323 	 -29.8221 	 -126.448
| 22> H 	 25.955 	 -29.2205 	 -126.654
| 23> S 	 26.7259 	 -23.5372 	 -119.925
| 24> C 	 26.6446 	 -24.0981 	 -118.273
| 25> C 	 25.4879 	 -24.8415 	 -118.12
| 26> C 	 24.9794 	 -25.3207 	 -119.374
| 27> C 	 25.4885 	 -24.6147 	 -120.436
| 28> H 	 25.1866 	 -25.229 	 -117.162
| 29> C 	 23.9966 	 -26.4162 	 -119.406
| 30> H 	 24.5901 	 -27.267 	 -119.005
| 31> H 	 23.671 	 -26.6479 	 -120.454
| 32> C 	 22.7079 	 -26.1925 	 -118.594
| 33> H 	 23.0086 	 -26.0483 	 -117.61
| 34> H 	 21.9884 	 -27.0267 	 -118.641
| 35> C 	 21.9596 	 -24.9526 	 -118.906
| 36> H 	 21.2652 	 -24.6832 	 -118.01
| 37> H 	 21.2803 	 -25.1667 	 -119.659
| 38> H 	 22.5937 	 -24.1227 	 -119.235
| 39> H 	 25.605 	 -24.332 	 -125.474
| 40> H 	 27.3204 	 -23.826 	 -117.432
| 41> *
| 42>
| 43>                          ****END OF INPUT****

CARTESIAN COORDINATES (ANGSTROEM)
---------------------------------
  S     25.117900  -23.601200  -123.111000
  C     25.509100  -24.656600  -124.431000
  C     25.759100  -25.940000  -123.958000
  C     25.740600  -26.007300  -122.524000
  C     25.367000  -24.809400  -121.911000
  H     25.693100  -26.837800  -121.914000
  C     25.931000  -27.253000  -124.790000
  H     26.375000  -27.943300  -124.040000
  H     26.626200  -27.058500  -125.571000
  C     24.717400  -27.892100  -125.438000
  H     23.812900  -28.042900  -124.838000
  H     24.467200  -27.199700  -126.233000
  C     25.019100  -29.255100  -126.033000
  H     25.317400  -29.913700  -125.262000
  H     24.132300  -29.822100  -126.448000
  H     25.955000  -29.220500  -126.654000
  S     26.725900  -23.537200  -119.925000
  C     26.644600  -24.098100  -118.273000
  C     25.487900  -24.841500  -118.120000
  C     24.979400  -25.320700  -119.374000
  C     25.488500  -24.614700  -120.436000
  H     25.186600  -25.229000  -117.162000
  C     23.996600  -26.416200  -119.406000
  H     24.590100  -27.267000  -119.005000
  H     23.671000  -26.647900  -120.454000
  C     22.707900  -26.192500  -118.594000
  H     23.008600  -26.048300  -117.610000
  H     21.988400  -27.026700  -118.641000
  C     21.959600  -24.952600  -118.906000
  H     21.265200  -24.683200  -118.010000
  H     21.280300  -25.166700  -119.659000
  H     22.593700  -24.122700  -119.235000
  H     25.605000  -24.332000  -125.474000
  H     27.320400  -23.826000  -117.432000

 Total Charge           Charge          ....    0
 Multiplicity           Mult            ....    1
 Number of Electrons    NEL             ....  134
 Basis Dimension        Dim             ....  322

ORBITAL ENERGIES
----------------

  NO   OCC          E(Eh)            E(eV)
   0   2.0000     -88.968986     -2420.9692
   1   2.0000     -88.962981     -2420.8058
   2   2.0000     -10.329771      -281.0873
   3   2.0000     -10.325350      -280.9670
   4   2.0000     -10.322572      -280.8915
   5   2.0000     -10.316490      -280.7260
   6   2.0000     -10.305159      -280.4176
   7   2.0000     -10.301078      -280.3066
   8   2.0000     -10.294590      -280.1300
   9   2.0000     -10.294333      -280.1230
  10   2.0000     -10.294166      -280.1185
  11   2.0000     -10.286587      -279.9123
  12   2.0000     -10.284803      -279.8637
  13   2.0000     -10.281089      -279.7627
  14   2.0000     -10.278185      -279.6836
  15   2.0000     -10.269661      -279.4517
  16   2.0000      -8.084121      -219.9801
  17   2.0000      -8.078592      -219.8297
  18   2.0000      -6.042637      -164.4285
  19   2.0000      -6.038320      -164.3110
  20   2.0000      -6.037204      -164.2807
  21   2.0000      -6.035107      -164.2236
  22   2.0000      -6.032936      -164.1645
  23   2.0000      -6.029195      -164.0627
  24   2.0000      -1.011738       -27.5308
  25   2.0000      -0.989394       -26.9228
  26   2.0000      -0.918472       -24.9929
  27   2.0000      -0.912140       -24.8206
  28   2.0000      -0.869639       -23.6641
  29   2.0000      -0.855540       -23.2804
  30   2.0000      -0.848990       -23.1022
  31   2.0000      -0.814442       -22.1621
  32   2.0000      -0.781038       -21.2531
  33   2.0000      -0.773290       -21.0423
  34   2.0000      -0.701123       -19.0785
  35   2.0000      -0.700950       -19.0738
  36   2.0000      -0.690966       -18.8022
  37   2.0000      -0.662479       -18.0270
  38   2.0000      -0.646960       -17.6047
  39   2.0000      -0.616468       -16.7749
  40   2.0000      -0.598822       -16.2948
  41   2.0000      -0.568437       -15.4679
  42   2.0000      -0.564285       -15.3550
  43   2.0000      -0.559655       -15.2290
  44   2.0000      -0.549041       -14.9402
  45   2.0000      -0.524578       -14.2745
  46   2.0000      -0.524341       -14.2681
  47   2.0000      -0.509662       -13.8686
  48   2.0000      -0.504076       -13.7166
  49   2.0000      -0.498189       -13.5564
  50   2.0000      -0.493577       -13.4309
  51   2.0000      -0.480023       -13.0621
  52   2.0000      -0.471835       -12.8393
  53   2.0000      -0.464043       -12.6273
  54   2.0000      -0.456805       -12.4303
  55   2.0000      -0.449516       -12.2320
  56   2.0000      -0.445816       -12.1313
  57   2.0000      -0.440882       -11.9970
  58   2.0000      -0.436391       -11.8748
  59   2.0000      -0.421356       -11.4657
  60   2.0000      -0.416000       -11.3199
  61   2.0000      -0.413028       -11.2391
  62   2.0000      -0.406765       -11.0686
  63   2.0000      -0.346041        -9.4163
  64   2.0000      -0.329668        -8.9707
  65   2.0000      -0.324674        -8.8348
  66   2.0000      -0.297445        -8.0939
  67   0.0000       0.038834         1.0567
  68   0.0000       0.062885         1.7112
  69   0.0000       0.114756         3.1227
  70   0.0000       0.122931         3.3451
  71   0.0000       0.128437         3.4949

MULLIKEN ATOMIC CHARGES
-----------------------
   0 S :    0.119654
   1 C :   -0.139323
   2 C :   -0.080521
   3 C :    0.065425
   4 C :   -0.173458
   5 H :   -0.010828
   6 C :    0.054550
   7 H :    0.023556
   8 H :    0.022084
   9 C :   -0.035356
  10 H :    0.030608
  11 H :    0.022238
  12 C :   -0.065154
  13 H :    0.010321
  14 H :    0.050195
  15 H :    0.030654
  16 S :    0.111775
  17 C :   -0.117316
  18 C :   -0.014016
  19 C :   -0.104877
  20 C :   -0.123563
  21 H :    0.018982
  22 C :    0.056608
  23 H :    0.044284
  24 H :    0.031799
  25 C :   -0.042953
  26 H :    0.005787
  27 H :    0.032786
  28 C :   -0.060891
  29 H :    0.038745
  30 H :    0.009834
  31 H :    0.051966
  32 H :    0.059804
  33 H :    0.076601
Sum of atomic charges:   -0.0000000

LOEWDIN ATOMIC CHARGES
----------------------
   0 S :    0.429912
   1 C :   -0.210659
   2 C :   -0.060217
   3 C :   -0.059101
   4 C :   -0.206784
   5 H :    0.017011
   6 C :   -0.026475
   7 H :    0.030483
   8 H :    0.026971
   9 C :   -0.043350
  10 H :    0.026617
  11 H :    0.022080
  12 C :   -0.075310
  13 H :    0.016713
  14 H :    0.037429
  15 H :    0.029322
  16 S :    0.420231
  17 C :   -0.186375
  18 C :   -0.069831
  19 C :   -0.063431
  20 C :   -0.209386
  21 H :    0.026763
  22 C :   -0.035990
  23 H :    0.040341
  24 H :    0.032186
  25 C :   -0.041027
  26 H :    0.010542
  27 H :    0.030146
  28 C :   -0.065601
  29 H :    0.038451
  30 H :    0.012597
  31 H :    0.029828
  32 H :    0.034825
  33 H :    0.041090

  Mayer bond orders larger than 0.100000
B(  0-S ,  1-C ) :   1.1506 B(  0-S ,  4-C ) :   1.1762 B(  1-C ,  2-C ) :   1.5790
B(  1-C , 32-H ) :   0.9720 B(  2-C ,  3-C ) :   1.2765 B(  2-C ,  6-C ) :   1.0134
B(  3-C ,  4-C ) :   1.5486 B(  3-C ,  5-H ) :   0.9950 B(  4-C , 20-C ) :   0.9980
B(  6-C ,  7-H ) :   0.9482 B(  6-C ,  8-H ) :   0.9363 B(  6-C ,  9-C ) :   1.0640
B(  9-C , 10-H ) :   0.9570 B(  9-C , 11-H ) :   0.9513 B(  9-C , 12-C ) :   1.0823
B( 12-C , 13-H ) :   0.9711 B( 12-C , 14-H ) :   0.9718 B( 12-C , 15-H ) :   0.9705
B( 16-S , 17-C ) :   1.1662 B( 16-S , 20-C ) :   1.1394 B( 17-C , 18-C ) :   1.6101
B( 17-C , 33-H ) :   0.9638 B( 18-C , 19-C ) :   1.2265 B( 18-C , 21-H ) :   0.9855
B( 19-C , 20-C ) :   1.6152 B( 19-C , 22-C ) :   1.0506 B( 22-C , 23-H ) :   0.9255
B( 22-C , 24-H ) :   0.9365 B( 22-C , 25-C ) :   1.0705 B( 25-C , 26-H ) :   0.9548
B( 25-C , 27-H ) :   0.9555 B( 25-C , 28-C ) :   1.0802 B( 28-C , 29-H ) :   0.9724
B( 28-C , 30-H ) :   0.9748 B( 28-C , 31-H ) :   0.9707

Dispersion correction           -0.014003368
FINAL SINGLE POINT ENERGY     -1339.857922644517

DIPOLE MOMENT
-------------
                                X             Y             Z
Electronic contribution:     13.00040      22.15824       4.87234
Nuclear contribution   :    -13.13917     -22.81116      -4.73902
                        -----------------------------------------
Total Dipole Moment    :     -0.13878      -0.65292       0.13332
                        -----------------------------------------
Magnitude (a.u.)       :      0.68069
Magnitude (Debye)      :      1.73017

Rotational constants in cm-1:     0.019789     0.007775     0.006614
Rotational constants in MHz :   593.250514   233.087781   198.269051

                             ****ORCA TERMINATED NORMALLY****
TOTAL RUN TIME: 0 days 0 hours 0 minutes 21 seconds 316 msec
