                         Program Version 4.2.1 -  RELEASE  -
|  1> ! wB97X-D3 SP def2-SVP
|  2> %pal
|  3> nprocs 24
|  4> end
|  5>
|  6> * xyz 0 1
|  7> S 	 32.6074 	 -32.451 	 -112.946
|  8> C 	 31.9749 	 -34.0232 	 -112.627
|  9> C 	 32.9663 	 -34.9543 	 -112.61
| 10> C 	 34.221 	 -34.3911 	 -113.057
| 11> C 	 34.2134 	 -33.06 	 -113.231
| 12> H 	 35.175 	 -34.8522 	 -113.302
| 13> C 	 32.7898 	 -36.4203 	 -112.282
| 14> H 	 31.9668 	 -36.8311 	 -112.837
| 15> H 	 32.509 	 -36.516 	 -111.237
| 16> C 	 34.087 	 -37.3048 	 -112.27
| 17> H 	 34.672 	 -37.2163 	 -113.188
| 18> H 	 34.8192 	 -36.9378 	 -111.492
| 19> C 	 33.8133 	 -38.7681 	 -111.843
| 20> H 	 32.9669 	 -39.092 	 -112.418
| 21> H 	 34.6747 	 -39.4884 	 -111.985
| 22> H 	 33.5088 	 -38.7815 	 -110.8
| 23> S 	 35.1375 	 -31.2174 	 -115.021
| 24> C 	 36.728 	 -30.5116 	 -114.785
| 25> C 	 37.4345 	 -31.102 	 -113.736
| 26> C 	 36.624 	 -32.0979 	 -113.129
| 27> C 	 35.3247 	 -32.2335 	 -113.631
| 28> H 	 38.443 	 -30.861 	 -113.586
| 29> C 	 37.1585 	 -32.8465 	 -111.943
| 30> H 	 36.416 	 -33.4227 	 -111.393
| 31> H 	 37.3683 	 -32.0169 	 -111.262
| 32> C 	 38.4508 	 -33.6913 	 -112.192
| 33> H 	 39.099 	 -33.661 	 -111.3
| 34> H 	 39.1683 	 -33.3484 	 -112.895
| 35> C 	 38.1218 	 -35.216 	 -112.472
| 36> H 	 39.0287 	 -35.629 	 -112.851
| 37> H 	 37.3337 	 -35.4824 	 -113.203
| 38> H 	 37.9068 	 -35.7828 	 -111.591
| 39> H 	 30.9924 	 -34.3514 	 -112.314
| 40> H 	 37.2718 	 -29.858 	 -115.504
| 41> *
| 42>
| 43>                          ****END OF INPUT****

CARTESIAN COORDINATES (ANGSTROEM)
---------------------------------
  S     32.607400  -32.451000  -112.946000
  C     31.974900  -34.023200  -112.627000
  C     32.966300  -34.954300  -112.610000
  C     34.221000  -34.391100  -113.057000
  C     34.213400  -33.060000  -113.231000
  H     35.175000  -34.852200  -113.302000
  C     32.789800  -36.420300  -112.282000
  H     31.966800  -36.831100  -112.837000
  H     32.509000  -36.516000  -111.237000
  C     34.087000  -37.304800  -112.270000
  H     34.672000  -37.216300  -113.188000
  H     34.819200  -36.937800  -111.492000
  C     33.813300  -38.768100  -111.843000
  H     32.966900  -39.092000  -112.418000
  H     34.674700  -39.488400  -111.985000
  H     33.508800  -38.781500  -110.800000
  S     35.137500  -31.217400  -115.021000
  C     36.728000  -30.511600  -114.785000
  C     37.434500  -31.102000  -113.736000
  C     36.624000  -32.097900  -113.129000
  C     35.324700  -32.233500  -113.631000
  H     38.443000  -30.861000  -113.586000
  C     37.158500  -32.846500  -111.943000
  H     36.416000  -33.422700  -111.393000
  H     37.368300  -32.016900  -111.262000
  C     38.450800  -33.691300  -112.192000
  H     39.099000  -33.661000  -111.300000
  H     39.168300  -33.348400  -112.895000
  C     38.121800  -35.216000  -112.472000
  H     39.028700  -35.629000  -112.851000
  H     37.333700  -35.482400  -113.203000
  H     37.906800  -35.782800  -111.591000
  H     30.992400  -34.351400  -112.314000
  H     37.271800  -29.858000  -115.504000

 Total Charge           Charge          ....    0
 Multiplicity           Mult            ....    1
 Number of Electrons    NEL             ....  134
 Basis Dimension        Dim             ....  322

ORBITAL ENERGIES
----------------

  NO   OCC          E(Eh)            E(eV)
   0   2.0000     -88.965965     -2420.8870
   1   2.0000     -88.963288     -2420.8141
   2   2.0000     -10.322951      -280.9018
   3   2.0000     -10.321683      -280.8673
   4   2.0000     -10.320798      -280.8432
   5   2.0000     -10.308364      -280.5049
   6   2.0000     -10.303630      -280.3760
   7   2.0000     -10.299384      -280.2605
   8   2.0000     -10.294501      -280.1276
   9   2.0000     -10.294096      -280.1166
  10   2.0000     -10.293108      -280.0897
  11   2.0000     -10.292290      -280.0674
  12   2.0000     -10.289318      -279.9866
  13   2.0000     -10.287128      -279.9270
  14   2.0000     -10.283443      -279.8267
  15   2.0000     -10.278102      -279.6814
  16   2.0000      -8.080789      -219.8895
  17   2.0000      -8.078558      -219.8287
  18   2.0000      -6.039214      -164.3354
  19   2.0000      -6.037162      -164.2795
  20   2.0000      -6.035243      -164.2273
  21   2.0000      -6.032971      -164.1655
  22   2.0000      -6.031667      -164.1300
  23   2.0000      -6.029188      -164.0625
  24   2.0000      -1.011776       -27.5318
  25   2.0000      -0.987802       -26.8795
  26   2.0000      -0.908965       -24.7342
  27   2.0000      -0.902427       -24.5563
  28   2.0000      -0.875441       -23.8220
  29   2.0000      -0.849217       -23.1084
  30   2.0000      -0.844655       -22.9842
  31   2.0000      -0.820244       -22.3200
  32   2.0000      -0.780961       -21.2510
  33   2.0000      -0.770665       -20.9709
  34   2.0000      -0.716761       -19.5041
  35   2.0000      -0.703276       -19.1371
  36   2.0000      -0.690112       -18.7789
  37   2.0000      -0.661942       -18.0124
  38   2.0000      -0.644653       -17.5419
  39   2.0000      -0.616911       -16.7870
  40   2.0000      -0.594612       -16.1802
  41   2.0000      -0.575209       -15.6522
  42   2.0000      -0.566487       -15.4149
  43   2.0000      -0.548558       -14.9270
  44   2.0000      -0.533451       -14.5159
  45   2.0000      -0.522178       -14.2092
  46   2.0000      -0.521799       -14.1989
  47   2.0000      -0.506447       -13.7811
  48   2.0000      -0.503416       -13.6986
  49   2.0000      -0.498503       -13.5650
  50   2.0000      -0.490040       -13.3347
  51   2.0000      -0.484092       -13.1728
  52   2.0000      -0.468367       -12.7449
  53   2.0000      -0.465601       -12.6696
  54   2.0000      -0.461578       -12.5602
  55   2.0000      -0.453997       -12.3539
  56   2.0000      -0.450129       -12.2486
  57   2.0000      -0.438010       -11.9189
  58   2.0000      -0.428498       -11.6600
  59   2.0000      -0.426408       -11.6032
  60   2.0000      -0.421351       -11.4656
  61   2.0000      -0.416967       -11.3463
  62   2.0000      -0.409323       -11.1382
  63   2.0000      -0.348977        -9.4961
  64   2.0000      -0.329393        -8.9632
  65   2.0000      -0.326792        -8.8925
  66   2.0000      -0.293635        -7.9902
  67   0.0000       0.035464         0.9650
  68   0.0000       0.072789         1.9807
  69   0.0000       0.114508         3.1159
  70   0.0000       0.126821         3.4510
  71   0.0000       0.128314         3.4916

MULLIKEN ATOMIC CHARGES
-----------------------
   0 S :    0.120001
   1 C :   -0.104164
   2 C :   -0.075859
   3 C :    0.027418
   4 C :   -0.148395
   5 H :   -0.015556
   6 C :    0.065439
   7 H :    0.034371
   8 H :    0.027539
   9 C :   -0.126494
  10 H :    0.037367
  11 H :    0.036282
  12 C :   -0.037900
  13 H :    0.024351
  14 H :    0.050665
  15 H :    0.030293
  16 S :    0.117474
  17 C :   -0.102390
  18 C :   -0.024175
  19 C :   -0.014494
  20 C :   -0.166987
  21 H :    0.005923
  22 C :    0.052998
  23 H :    0.027205
  24 H :    0.032792
  25 C :   -0.056707
  26 H :    0.021896
  27 H :    0.021139
  28 C :   -0.060307
  29 H :    0.017533
  30 H :    0.047195
  31 H :    0.031067
  32 H :    0.035416
  33 H :    0.069064
Sum of atomic charges:    0.0000000

LOEWDIN ATOMIC CHARGES
----------------------
   0 S :    0.415005
   1 C :   -0.204981
   2 C :   -0.063305
   3 C :   -0.066873
   4 C :   -0.200171
   5 H :    0.030085
   6 C :   -0.033767
   7 H :    0.029530
   8 H :    0.035748
   9 C :   -0.047020
  10 H :    0.017814
  11 H :    0.028935
  12 C :   -0.066159
  13 H :    0.019794
  14 H :    0.036235
  15 H :    0.024148
  16 S :    0.416982
  17 C :   -0.184966
  18 C :   -0.065159
  19 C :   -0.050626
  20 C :   -0.214342
  21 H :    0.025988
  22 C :   -0.035472
  23 H :    0.030362
  24 H :    0.036491
  25 C :   -0.034545
  26 H :    0.029357
  27 H :    0.018515
  28 C :   -0.066649
  29 H :    0.022753
  30 H :    0.025972
  31 H :    0.021052
  32 H :    0.032293
  33 H :    0.036977

  Mayer bond orders larger than 0.100000
B(  0-S ,  1-C ) :   1.1294 B(  0-S ,  4-C ) :   1.1363 B(  1-C ,  2-C ) :   1.6476
B(  1-C , 32-H ) :   0.9699 B(  2-C ,  3-C ) :   1.2056 B(  2-C ,  6-C ) :   1.0096
B(  3-C ,  4-C ) :   1.6145 B(  3-C ,  5-H ) :   0.9960 B(  4-C , 20-C ) :   1.0346
B(  6-C ,  7-H ) :   0.9425 B(  6-C ,  8-H ) :   0.9347 B(  6-C ,  9-C ) :   1.0691
B(  9-C , 10-H ) :   0.9528 B(  9-C , 11-H ) :   0.9568 B(  9-C , 12-C ) :   1.0721
B( 12-C , 13-H ) :   0.9767 B( 12-C , 14-H ) :   0.9735 B( 12-C , 15-H ) :   0.9750
B( 16-S , 17-C ) :   1.1687 B( 16-S , 20-C ) :   1.1408 B( 17-C , 18-C ) :   1.5963
B( 17-C , 33-H ) :   0.9591 B( 18-C , 19-C ) :   1.2480 B( 18-C , 21-H ) :   0.9992
B( 19-C , 20-C ) :   1.5733 B( 19-C , 22-C ) :   1.0448 B( 22-C , 23-H ) :   0.9428
B( 22-C , 24-H ) :   0.9365 B( 22-C , 25-C ) :   1.0468 B( 25-C , 26-H ) :   0.9526
B( 25-C , 27-H ) :   0.9686 B( 25-C , 28-C ) :   1.0678 B( 28-C , 29-H ) :   0.9703
B( 28-C , 30-H ) :   0.9752 B( 28-C , 31-H ) :   0.9786

Dispersion correction           -0.014797787
FINAL SINGLE POINT ENERGY     -1339.872975053558

DIPOLE MOMENT
-------------
                                X             Y             Z
Electronic contribution:    -12.82941      27.66760     -11.65519
Nuclear contribution   :     13.36409     -28.21899      11.96288
                        -----------------------------------------
Total Dipole Moment    :      0.53468      -0.55139       0.30769
                        -----------------------------------------
Magnitude (a.u.)       :      0.82740
Magnitude (Debye)      :      2.10308

Rotational constants in cm-1:     0.017804     0.009681     0.006790
Rotational constants in MHz :   533.741477   290.230358   203.564437

                             ****ORCA TERMINATED NORMALLY****
TOTAL RUN TIME: 0 days 0 hours 0 minutes 22 seconds 291 msec
