                         Program Version 4.2.1 -  RELEASE  -
|  1> ! wB97X-D3 SP def2-SVP
|  2> %pal
|  3> nprocs 24
|  4> end
|  5>
|  6> * xyz 0 1
|  7> S 	 -117.953 	 53.9839 	 -36.1143
|  8> C 	 -116.985 	 53.0919 	 -37.1847
|  9> C 	 -116.962 	 53.6438 	 -38.4995
| 10> C 	 -117.541 	 54.8881 	 -38.5052
| 11> C 	 -118.143 	 55.2447 	 -37.2873
| 12> H 	 -117.642 	 55.7312 	 -39.1792
| 13> C 	 -116.057 	 53.1237 	 -39.5739
| 14> H 	 -116.79 	 52.8522 	 -40.3328
| 15> H 	 -115.811 	 52.1604 	 -39.1393
| 16> C 	 -114.894 	 54.061 	 -40.0057
| 17> H 	 -114.392 	 53.7497 	 -40.9352
| 18> H 	 -115.348 	 55.0582 	 -40.1894
| 19> C 	 -113.804 	 54.1952 	 -38.9476
| 20> H 	 -113.141 	 53.3582 	 -38.89
| 21> H 	 -113.216 	 55.0729 	 -39.3777
| 22> H 	 -114.103 	 54.4399 	 -37.9587
| 23> S 	 -120.648 	 56.4367 	 -37.2097
| 24> C 	 -120.83 	 58.1915 	 -37.3673
| 25> C 	 -119.566 	 58.7711 	 -37.42
| 26> C 	 -118.452 	 57.8334 	 -37.1476
| 27> C 	 -118.908 	 56.5075 	 -37.1488
| 28> H 	 -119.509 	 59.7817 	 -37.7347
| 29> C 	 -117.058 	 58.281 	 -37.201
| 30> H 	 -116.412 	 57.7724 	 -36.5011
| 31> H 	 -117.156 	 59.3681 	 -36.8871
| 32> C 	 -116.338 	 58.2985 	 -38.5877
| 33> H 	 -117.104 	 58.3367 	 -39.3886
| 34> H 	 -115.914 	 57.2986 	 -38.6863
| 35> C 	 -115.238 	 59.4183 	 -38.7421
| 36> H 	 -114.527 	 59.1354 	 -39.523
| 37> H 	 -114.576 	 59.4665 	 -37.8775
| 38> H 	 -115.591 	 60.3615 	 -39.0355
| 39> H 	 -116.601 	 52.118 	 -37.0373
| 40> H 	 -121.71 	 58.7937 	 -37.5799
| 41> *
| 42>
| 43>                          ****END OF INPUT****

CARTESIAN COORDINATES (ANGSTROEM)
---------------------------------
  S    -117.953000   53.983900  -36.114300
  C    -116.985000   53.091900  -37.184700
  C    -116.962000   53.643800  -38.499500
  C    -117.541000   54.888100  -38.505200
  C    -118.143000   55.244700  -37.287300
  H    -117.642000   55.731200  -39.179200
  C    -116.057000   53.123700  -39.573900
  H    -116.790000   52.852200  -40.332800
  H    -115.811000   52.160400  -39.139300
  C    -114.894000   54.061000  -40.005700
  H    -114.392000   53.749700  -40.935200
  H    -115.348000   55.058200  -40.189400
  C    -113.804000   54.195200  -38.947600
  H    -113.141000   53.358200  -38.890000
  H    -113.216000   55.072900  -39.377700
  H    -114.103000   54.439900  -37.958700
  S    -120.648000   56.436700  -37.209700
  C    -120.830000   58.191500  -37.367300
  C    -119.566000   58.771100  -37.420000
  C    -118.452000   57.833400  -37.147600
  C    -118.908000   56.507500  -37.148800
  H    -119.509000   59.781700  -37.734700
  C    -117.058000   58.281000  -37.201000
  H    -116.412000   57.772400  -36.501100
  H    -117.156000   59.368100  -36.887100
  C    -116.338000   58.298500  -38.587700
  H    -117.104000   58.336700  -39.388600
  H    -115.914000   57.298600  -38.686300
  C    -115.238000   59.418300  -38.742100
  H    -114.527000   59.135400  -39.523000
  H    -114.576000   59.466500  -37.877500
  H    -115.591000   60.361500  -39.035500
  H    -116.601000   52.118000  -37.037300
  H    -121.710000   58.793700  -37.579900

 Total Charge           Charge          ....    0
 Multiplicity           Mult            ....    1
 Number of Electrons    NEL             ....  134
 Basis Dimension        Dim             ....  322

ORBITAL ENERGIES
----------------

  NO   OCC          E(Eh)            E(eV)
   0   2.0000     -88.973297     -2421.0865
   1   2.0000     -88.963152     -2420.8104
   2   2.0000     -10.328010      -281.0394
   3   2.0000     -10.326581      -281.0006
   4   2.0000     -10.319250      -280.8011
   5   2.0000     -10.311941      -280.6022
   6   2.0000     -10.305820      -280.4356
   7   2.0000     -10.298152      -280.2270
   8   2.0000     -10.296824      -280.1908
   9   2.0000     -10.295201      -280.1467
  10   2.0000     -10.293640      -280.1042
  11   2.0000     -10.290121      -280.0084
  12   2.0000     -10.290069      -280.0070
  13   2.0000     -10.289525      -279.9922
  14   2.0000     -10.280184      -279.7380
  15   2.0000     -10.277117      -279.6546
  16   2.0000      -8.088553      -220.1007
  17   2.0000      -8.077586      -219.8023
  18   2.0000      -6.046620      -164.5369
  19   2.0000      -6.042812      -164.4333
  20   2.0000      -6.039947      -164.3553
  21   2.0000      -6.036256      -164.2549
  22   2.0000      -6.032048      -164.1404
  23   2.0000      -6.028266      -164.0374
  24   2.0000      -1.009078       -27.4584
  25   2.0000      -0.982696       -26.7405
  26   2.0000      -0.913212       -24.8498
  27   2.0000      -0.904111       -24.6021
  28   2.0000      -0.867299       -23.6004
  29   2.0000      -0.857122       -23.3235
  30   2.0000      -0.844786       -22.9878
  31   2.0000      -0.817851       -22.2549
  32   2.0000      -0.782453       -21.2916
  33   2.0000      -0.769312       -20.9340
  34   2.0000      -0.713047       -19.4030
  35   2.0000      -0.703665       -19.1477
  36   2.0000      -0.690380       -18.7862
  37   2.0000      -0.658801       -17.9269
  38   2.0000      -0.647267       -17.6130
  39   2.0000      -0.616213       -16.7680
  40   2.0000      -0.592076       -16.1112
  41   2.0000      -0.568639       -15.4735
  42   2.0000      -0.558202       -15.1895
  43   2.0000      -0.552829       -15.0432
  44   2.0000      -0.539171       -14.6716
  45   2.0000      -0.525156       -14.2902
  46   2.0000      -0.522558       -14.2195
  47   2.0000      -0.510861       -13.9012
  48   2.0000      -0.507132       -13.7998
  49   2.0000      -0.498183       -13.5563
  50   2.0000      -0.484831       -13.1929
  51   2.0000      -0.477738       -12.9999
  52   2.0000      -0.472304       -12.8521
  53   2.0000      -0.468491       -12.7483
  54   2.0000      -0.461407       -12.5555
  55   2.0000      -0.448923       -12.2158
  56   2.0000      -0.441639       -12.0176
  57   2.0000      -0.433708       -11.8018
  58   2.0000      -0.431906       -11.7528
  59   2.0000      -0.427608       -11.6358
  60   2.0000      -0.422917       -11.5082
  61   2.0000      -0.419936       -11.4270
  62   2.0000      -0.411822       -11.2063
  63   2.0000      -0.342335        -9.3154
  64   2.0000      -0.327777        -8.9193
  65   2.0000      -0.317859        -8.6494
  66   2.0000      -0.302944        -8.2435
  67   0.0000       0.039709         1.0805
  68   0.0000       0.053824         1.4646
  69   0.0000       0.117110         3.1867
  70   0.0000       0.120228         3.2716
  71   0.0000       0.128972         3.5095

MULLIKEN ATOMIC CHARGES
-----------------------
   0 S :    0.153362
   1 C :   -0.098036
   2 C :   -0.117533
   3 C :    0.036579
   4 C :   -0.211427
   5 H :    0.011575
   6 C :    0.107978
   7 H :    0.031845
   8 H :   -0.002287
   9 C :   -0.057729
  10 H :    0.037231
  11 H :    0.036651
  12 C :   -0.054647
  13 H :    0.029235
  14 H :    0.035757
  15 H :    0.037991
  16 S :    0.107033
  17 C :   -0.093479
  18 C :   -0.048515
  19 C :   -0.037987
  20 C :   -0.166063
  21 H :    0.015027
  22 C :    0.049006
  23 H :    0.034613
  24 H :    0.030322
  25 C :   -0.095770
  26 H :    0.034222
  27 H :    0.034202
  28 C :   -0.022916
  29 H :    0.023255
  30 H :    0.032116
  31 H :    0.030213
  32 H :    0.036316
  33 H :    0.061861
Sum of atomic charges:    0.0000000

LOEWDIN ATOMIC CHARGES
----------------------
   0 S :    0.453839
   1 C :   -0.214205
   2 C :   -0.068247
   3 C :   -0.058409
   4 C :   -0.216648
   5 H :    0.034299
   6 C :   -0.037147
   7 H :    0.035232
   8 H :    0.025316
   9 C :   -0.036028
  10 H :    0.030287
  11 H :    0.027054
  12 C :   -0.062866
  13 H :    0.020769
  14 H :    0.037367
  15 H :    0.019890
  16 S :    0.399478
  17 C :   -0.187697
  18 C :   -0.067099
  19 C :   -0.059586
  20 C :   -0.203670
  21 H :    0.024886
  22 C :   -0.041303
  23 H :    0.031563
  24 H :    0.038393
  25 C :   -0.039445
  26 H :    0.023062
  27 H :    0.021843
  28 C :   -0.062466
  29 H :    0.029960
  30 H :    0.028075
  31 H :    0.018376
  32 H :    0.019209
  33 H :    0.035917

  Mayer bond orders larger than 0.100000
B(  0-S ,  1-C ) :   1.1893 B(  0-S ,  4-C ) :   1.1753 B(  1-C ,  2-C ) :   1.5304
B(  1-C ,  4-C ) :   0.1131 B(  1-C , 32-H ) :   0.9641 B(  2-C ,  3-C ) :   1.2708
B(  2-C ,  6-C ) :   1.0241 B(  3-C ,  4-C ) :   1.5387 B(  3-C ,  5-H ) :   0.9903
B(  4-C , 20-C ) :   1.0249 B(  6-C ,  7-H ) :   0.9258 B(  6-C ,  8-H ) :   0.9385
B(  6-C ,  9-C ) :   1.0515 B(  9-C , 10-H ) :   0.9537 B(  9-C , 11-H ) :   0.9592
B(  9-C , 12-C ) :   1.0710 B( 12-C , 13-H ) :   0.9762 B( 12-C , 14-H ) :   0.9735
B( 12-C , 15-H ) :   0.9790 B( 16-S , 17-C ) :   1.1378 B( 16-S , 20-C ) :   1.1460
B( 17-C , 18-C ) :   1.6501 B( 17-C , 33-H ) :   0.9654 B( 18-C , 19-C ) :   1.2041
B( 18-C , 21-H ) :   0.9871 B( 19-C , 20-C ) :   1.5929 B( 19-C , 22-C ) :   1.0808
B( 22-C , 23-H ) :   0.9257 B( 22-C , 24-H ) :   0.9364 B( 22-C , 25-C ) :   1.0433
B( 25-C , 26-H ) :   0.9597 B( 25-C , 27-H ) :   0.9509 B( 25-C , 28-C ) :   1.0719
B( 28-C , 29-H ) :   0.9721 B( 28-C , 30-H ) :   0.9757 B( 28-C , 31-H ) :   0.9779

Dispersion correction           -0.015797351
FINAL SINGLE POINT ENERGY     -1339.859118753237

DIPOLE MOMENT
-------------
                                X             Y             Z
Electronic contribution:    -26.07005      -7.94374      14.66969
Nuclear contribution   :     26.61195       8.16485     -15.20246
                        -----------------------------------------
Total Dipole Moment    :      0.54190       0.22111      -0.53277
                        -----------------------------------------
Magnitude (a.u.)       :      0.79145
Magnitude (Debye)      :      2.01170

Rotational constants in cm-1:     0.017096     0.010505     0.007398
Rotational constants in MHz :   512.518081   314.942438   221.781003

                             ****ORCA TERMINATED NORMALLY****
TOTAL RUN TIME: 0 days 0 hours 0 minutes 22 seconds 817 msec
