                         Program Version 4.2.1 -  RELEASE  -
|  1> ! wB97X-D3 SP def2-SVP
|  2> %pal
|  3> nprocs 24
|  4> end
|  5>
|  6> * xyz 0 1
|  7> S 	 -77.5017 	 -17.8441 	 -57.8872
|  8> C 	 -77.4649 	 -17.1385 	 -56.2875
|  9> C 	 -78.7716 	 -16.7196 	 -55.8974
| 10> C 	 -79.8268 	 -17.1737 	 -56.7889
| 11> C 	 -79.3285 	 -17.7666 	 -57.9461
| 12> H 	 -80.8684 	 -17.0302 	 -56.5868
| 13> C 	 -79.0187 	 -16.075 	 -54.5244
| 14> H 	 -78.614 	 -16.5968 	 -53.667
| 15> H 	 -80.0897 	 -16.1025 	 -54.3995
| 16> C 	 -78.302 	 -14.7241 	 -54.3647
| 17> H 	 -77.2535 	 -14.897 	 -54.1827
| 18> H 	 -78.2749 	 -14.0465 	 -55.2347
| 19> C 	 -78.8847 	 -13.8638 	 -53.266
| 20> H 	 -79.9874 	 -13.7688 	 -53.2553
| 21> H 	 -78.666 	 -14.2353 	 -52.2855
| 22> H 	 -78.555 	 -12.8076 	 -53.3569
| 23> S 	 -79.2237 	 -17.7159 	 -60.6641
| 24> C 	 -80.6221 	 -18.207 	 -61.5807
| 25> C 	 -81.5914 	 -18.7262 	 -60.76
| 26> C 	 -81.2325 	 -18.7515 	 -59.3777
| 27> C 	 -80.0645 	 -18.1665 	 -59.1599
| 28> H 	 -82.4984 	 -19.1494 	 -61.182
| 29> C 	 -82.2387 	 -19.2928 	 -58.3283
| 30> H 	 -83.1763 	 -18.8475 	 -58.6665
| 31> H 	 -82.0723 	 -18.835 	 -57.3531
| 32> C 	 -82.3217 	 -20.8449 	 -58.3507
| 33> H 	 -82.7193 	 -21.1679 	 -59.3127
| 34> H 	 -83.1279 	 -21.2191 	 -57.6987
| 35> C 	 -81.0405 	 -21.6201 	 -58.0065
| 36> H 	 -81.2428 	 -22.679 	 -58.1265
| 37> H 	 -80.6847 	 -21.4358 	 -57.0139
| 38> H 	 -80.2203 	 -21.4007 	 -58.7389
| 39> H 	 -76.6205 	 -16.948 	 -55.6372
| 40> H 	 -80.7925 	 -18.015 	 -62.6471
| 41> *
| 42>
| 43>                          ****END OF INPUT****

CARTESIAN COORDINATES (ANGSTROEM)
---------------------------------
  S    -77.501700  -17.844100  -57.887200
  C    -77.464900  -17.138500  -56.287500
  C    -78.771600  -16.719600  -55.897400
  C    -79.826800  -17.173700  -56.788900
  C    -79.328500  -17.766600  -57.946100
  H    -80.868400  -17.030200  -56.586800
  C    -79.018700  -16.075000  -54.524400
  H    -78.614000  -16.596800  -53.667000
  H    -80.089700  -16.102500  -54.399500
  C    -78.302000  -14.724100  -54.364700
  H    -77.253500  -14.897000  -54.182700
  H    -78.274900  -14.046500  -55.234700
  C    -78.884700  -13.863800  -53.266000
  H    -79.987400  -13.768800  -53.255300
  H    -78.666000  -14.235300  -52.285500
  H    -78.555000  -12.807600  -53.356900
  S    -79.223700  -17.715900  -60.664100
  C    -80.622100  -18.207000  -61.580700
  C    -81.591400  -18.726200  -60.760000
  C    -81.232500  -18.751500  -59.377700
  C    -80.064500  -18.166500  -59.159900
  H    -82.498400  -19.149400  -61.182000
  C    -82.238700  -19.292800  -58.328300
  H    -83.176300  -18.847500  -58.666500
  H    -82.072300  -18.835000  -57.353100
  C    -82.321700  -20.844900  -58.350700
  H    -82.719300  -21.167900  -59.312700
  H    -83.127900  -21.219100  -57.698700
  C    -81.040500  -21.620100  -58.006500
  H    -81.242800  -22.679000  -58.126500
  H    -80.684700  -21.435800  -57.013900
  H    -80.220300  -21.400700  -58.738900
  H    -76.620500  -16.948000  -55.637200
  H    -80.792500  -18.015000  -62.647100

 Total Charge           Charge          ....    0
 Multiplicity           Mult            ....    1
 Number of Electrons    NEL             ....  134
 Basis Dimension        Dim             ....  322

ORBITAL ENERGIES
----------------

  NO   OCC          E(Eh)            E(eV)
   0   2.0000     -88.969614     -2420.9863
   1   2.0000     -88.962499     -2420.7927
   2   2.0000     -10.339478      -281.3515
   3   2.0000     -10.325140      -280.9613
   4   2.0000     -10.317326      -280.7487
   5   2.0000     -10.316929      -280.7379
   6   2.0000     -10.306779      -280.4617
   7   2.0000     -10.300710      -280.2966
   8   2.0000     -10.298890      -280.2471
   9   2.0000     -10.298337      -280.2320
  10   2.0000     -10.292343      -280.0689
  11   2.0000     -10.292027      -280.0603
  12   2.0000     -10.290111      -280.0081
  13   2.0000     -10.284854      -279.8651
  14   2.0000     -10.276748      -279.6445
  15   2.0000     -10.273732      -279.5625
  16   2.0000      -8.082698      -219.9414
  17   2.0000      -8.077351      -219.7959
  18   2.0000      -6.041415      -164.3953
  19   2.0000      -6.037429      -164.2868
  20   2.0000      -6.036007      -164.2481
  21   2.0000      -6.033337      -164.1754
  22   2.0000      -6.031984      -164.1386
  23   2.0000      -6.027792      -164.0246
  24   2.0000      -1.004857       -27.3436
  25   2.0000      -0.975303       -26.5393
  26   2.0000      -0.909490       -24.7485
  27   2.0000      -0.903485       -24.5851
  28   2.0000      -0.866139       -23.5688
  29   2.0000      -0.851188       -23.1620
  30   2.0000      -0.843439       -22.9511
  31   2.0000      -0.813910       -22.1476
  32   2.0000      -0.784526       -21.3480
  33   2.0000      -0.768287       -20.9061
  34   2.0000      -0.706142       -19.2151
  35   2.0000      -0.701578       -19.0909
  36   2.0000      -0.692591       -18.8464
  37   2.0000      -0.665341       -18.1048
  38   2.0000      -0.638360       -17.3707
  39   2.0000      -0.619927       -16.8691
  40   2.0000      -0.593409       -16.1475
  41   2.0000      -0.563104       -15.3229
  42   2.0000      -0.558447       -15.1961
  43   2.0000      -0.550498       -14.9798
  44   2.0000      -0.539004       -14.6670
  45   2.0000      -0.522037       -14.2053
  46   2.0000      -0.519897       -14.1471
  47   2.0000      -0.507682       -13.8147
  48   2.0000      -0.502886       -13.6842
  49   2.0000      -0.500249       -13.6125
  50   2.0000      -0.494152       -13.4466
  51   2.0000      -0.473356       -12.8807
  52   2.0000      -0.471042       -12.8177
  53   2.0000      -0.465036       -12.6543
  54   2.0000      -0.455442       -12.3932
  55   2.0000      -0.450637       -12.2625
  56   2.0000      -0.441828       -12.0227
  57   2.0000      -0.439277       -11.9533
  58   2.0000      -0.434712       -11.8291
  59   2.0000      -0.426886       -11.6162
  60   2.0000      -0.414799       -11.2872
  61   2.0000      -0.411346       -11.1933
  62   2.0000      -0.408781       -11.1235
  63   2.0000      -0.356817        -9.7095
  64   2.0000      -0.332705        -9.0534
  65   2.0000      -0.328546        -8.9402
  66   2.0000      -0.285332        -7.7643
  67   0.0000       0.027688         0.7534
  68   0.0000       0.066531         1.8104
  69   0.0000       0.101939         2.7739
  70   0.0000       0.117159         3.1880
  71   0.0000       0.137419         3.7394

MULLIKEN ATOMIC CHARGES
-----------------------
   0 S :    0.104286
   1 C :   -0.105634
   2 C :   -0.105826
   3 C :    0.035264
   4 C :   -0.124786
   5 H :    0.014423
   6 C :    0.068171
   7 H :    0.034535
   8 H :    0.011690
   9 C :   -0.078577
  10 H :    0.024456
  11 H :    0.033215
  12 C :   -0.058910
  13 H :    0.027274
  14 H :    0.018962
  15 H :    0.036959
  16 S :    0.090341
  17 C :   -0.087393
  18 C :   -0.046538
  19 C :   -0.060453
  20 C :   -0.144994
  21 H :    0.019191
  22 C :    0.097246
  23 H :    0.024440
  24 H :    0.016812
  25 C :   -0.076101
  26 H :    0.017388
  27 H :    0.026583
  28 C :   -0.045972
  29 H :    0.030730
  30 H :    0.035879
  31 H :    0.048943
  32 H :    0.053139
  33 H :    0.065258
Sum of atomic charges:   -0.0000000

LOEWDIN ATOMIC CHARGES
----------------------
   0 S :    0.378119
   1 C :   -0.202259
   2 C :   -0.055805
   3 C :   -0.061961
   4 C :   -0.163114
   5 H :    0.028358
   6 C :   -0.031776
   7 H :    0.034671
   8 H :    0.024456
   9 C :   -0.044051
  10 H :    0.021553
  11 H :    0.026626
  12 C :   -0.069982
  13 H :    0.026196
  14 H :    0.016839
  15 H :    0.031116
  16 S :    0.384135
  17 C :   -0.185396
  18 C :   -0.071052
  19 C :   -0.063872
  20 C :   -0.179714
  21 H :    0.030586
  22 C :   -0.022342
  23 H :    0.033392
  24 H :    0.025333
  25 C :   -0.042998
  26 H :    0.022042
  27 H :    0.025796
  28 C :   -0.064544
  29 H :    0.027049
  30 H :    0.022678
  31 H :    0.033540
  32 H :    0.030488
  33 H :    0.035894

  Mayer bond orders larger than 0.100000
B(  0-S ,  1-C ) :   1.1325 B(  0-S ,  4-C ) :   1.1319 B(  1-C ,  2-C ) :   1.5981
B(  1-C ,  4-C ) :   0.1041 B(  1-C , 32-H ) :   0.9699 B(  2-C ,  3-C ) :   1.2483
B(  2-C ,  6-C ) :   1.0283 B(  3-C ,  4-C ) :   1.5768 B(  3-C ,  5-H ) :   0.9862
B(  4-C , 20-C ) :   1.0344 B(  6-C ,  7-H ) :   0.9445 B(  6-C ,  8-H ) :   0.9528
B(  6-C ,  9-C ) :   1.0337 B(  9-C , 10-H ) :   0.9536 B(  9-C , 11-H ) :   0.9660
B(  9-C , 12-C ) :   1.0870 B( 12-C , 13-H ) :   0.9760 B( 12-C , 14-H ) :   0.9732
B( 12-C , 15-H ) :   0.9756 B( 16-S , 17-C ) :   1.1358 B( 16-S , 20-C ) :   1.1128
B( 17-C , 18-C ) :   1.6518 B( 17-C , 33-H ) :   0.9639 B( 18-C , 19-C ) :   1.1978
B( 18-C , 21-H ) :   0.9859 B( 19-C , 20-C ) :   1.6793 B( 19-C , 22-C ) :   1.0146
B( 22-C , 23-H ) :   0.9359 B( 22-C , 24-H ) :   0.9444 B( 22-C , 25-C ) :   1.0676
B( 25-C , 26-H ) :   0.9550 B( 25-C , 27-H ) :   0.9549 B( 25-C , 28-C ) :   1.0777
B( 28-C , 29-H ) :   0.9720 B( 28-C , 30-H ) :   0.9770 B( 28-C , 31-H ) :   0.9736

Dispersion correction           -0.014011673
FINAL SINGLE POINT ENERGY     -1339.879375216604

DIPOLE MOMENT
-------------
                                X             Y             Z
Electronic contribution:     10.76478      -0.85241     -20.70008
Nuclear contribution   :    -11.33418       0.86807      21.08947
                        -----------------------------------------
Total Dipole Moment    :     -0.56940       0.01566       0.38939
                        -----------------------------------------
Magnitude (a.u.)       :      0.68999
Magnitude (Debye)      :      1.75382

Rotational constants in cm-1:     0.021454     0.007346     0.006518
Rotational constants in MHz :   643.169138   220.231360   195.395843

                             ****ORCA TERMINATED NORMALLY****
TOTAL RUN TIME: 0 days 0 hours 0 minutes 20 seconds 8 msec
