                         Program Version 4.2.1 -  RELEASE  -
|  1> ! wB97X-D3 SP def2-SVP
|  2> %pal
|  3> nprocs 24
|  4> end
|  5>
|  6> * xyz 0 1
|  7> S 	 -76.4345 	 -4.08817 	 4.02407
|  8> C 	 -75.05 	 -3.9069 	 2.9652
|  9> C 	 -74.505 	 -5.07328 	 2.62071
| 10> C 	 -75.278 	 -6.2428 	 3.06832
| 11> C 	 -76.3781 	 -5.88266 	 3.77667
| 12> H 	 -75.0529 	 -7.25405 	 2.76395
| 13> C 	 -73.196 	 -5.28623 	 1.84461
| 14> H 	 -73.2833 	 -4.66072 	 0.94935
| 15> H 	 -73.1364 	 -6.32964 	 1.59828
| 16> C 	 -71.9768 	 -4.91277 	 2.69788
| 17> H 	 -71.112 	 -5.12728 	 2.06324
| 18> H 	 -71.9996 	 -3.84278 	 2.79418
| 19> C 	 -71.8968 	 -5.72793 	 4.02562
| 20> H 	 -72.6369 	 -5.25401 	 4.66968
| 21> H 	 -72.1087 	 -6.75214 	 3.93091
| 22> H 	 -70.9777 	 -5.55938 	 4.53342
| 23> S 	 -79.0531 	 -6.56659 	 3.78762
| 24> C 	 -79.5276 	 -8.00483 	 4.64454
| 25> C 	 -78.5043 	 -8.60114 	 5.29039
| 26> C 	 -77.2859 	 -7.89487 	 5.1094
| 27> C 	 -77.4057 	 -6.76198 	 4.29027
| 28> H 	 -78.6856 	 -9.51912 	 5.87125
| 29> C 	 -76.0582 	 -8.36896 	 5.78826
| 30> H 	 -76.2203 	 -8.48754 	 6.81181
| 31> H 	 -75.482 	 -7.48914 	 5.68708
| 32> C 	 -75.4362 	 -9.64594 	 5.09431
| 33> H 	 -75.1759 	 -9.46162 	 4.02976
| 34> H 	 -76.118 	 -10.4915 	 5.15698
| 35> C 	 -74.1095 	 -10.0461 	 5.77251
| 36> H 	 -73.6236 	 -10.8146 	 5.17093
| 37> H 	 -74.3061 	 -10.4743 	 6.71366
| 38> H 	 -73.426 	 -9.25168 	 5.7975
| 39> H 	 -74.5346 	 -2.97618 	 2.7023
| 40> H 	 -80.5065 	 -8.34141 	 4.68358
| 41> *
| 42>
| 43>                          ****END OF INPUT****

CARTESIAN COORDINATES (ANGSTROEM)
---------------------------------
  S    -76.434500   -4.088170    4.024070
  C    -75.050000   -3.906900    2.965200
  C    -74.505000   -5.073280    2.620710
  C    -75.278000   -6.242800    3.068320
  C    -76.378100   -5.882660    3.776670
  H    -75.052900   -7.254050    2.763950
  C    -73.196000   -5.286230    1.844610
  H    -73.283300   -4.660720    0.949350
  H    -73.136400   -6.329640    1.598280
  C    -71.976800   -4.912770    2.697880
  H    -71.112000   -5.127280    2.063240
  H    -71.999600   -3.842780    2.794180
  C    -71.896800   -5.727930    4.025620
  H    -72.636900   -5.254010    4.669680
  H    -72.108700   -6.752140    3.930910
  H    -70.977700   -5.559380    4.533420
  S    -79.053100   -6.566590    3.787620
  C    -79.527600   -8.004830    4.644540
  C    -78.504300   -8.601140    5.290390
  C    -77.285900   -7.894870    5.109400
  C    -77.405700   -6.761980    4.290270
  H    -78.685600   -9.519120    5.871250
  C    -76.058200   -8.368960    5.788260
  H    -76.220300   -8.487540    6.811810
  H    -75.482000   -7.489140    5.687080
  C    -75.436200   -9.645940    5.094310
  H    -75.175900   -9.461620    4.029760
  H    -76.118000  -10.491500    5.156980
  C    -74.109500  -10.046100    5.772510
  H    -73.623600  -10.814600    5.170930
  H    -74.306100  -10.474300    6.713660
  H    -73.426000   -9.251680    5.797500
  H    -74.534600   -2.976180    2.702300
  H    -80.506500   -8.341410    4.683580

 Total Charge           Charge          ....    0
 Multiplicity           Mult            ....    1
 Number of Electrons    NEL             ....  134
 Basis Dimension        Dim             ....  322

ORBITAL ENERGIES
----------------

  NO   OCC          E(Eh)            E(eV)
   0   2.0000     -88.963384     -2420.8167
   1   2.0000     -88.962925     -2420.8043
   2   2.0000     -10.331097      -281.1234
   3   2.0000     -10.321933      -280.8741
   4   2.0000     -10.309215      -280.5280
   5   2.0000     -10.307385      -280.4782
   6   2.0000     -10.297700      -280.2147
   7   2.0000     -10.295502      -280.1549
   8   2.0000     -10.295139      -280.1450
   9   2.0000     -10.292553      -280.0746
  10   2.0000     -10.290508      -280.0190
  11   2.0000     -10.287891      -279.9477
  12   2.0000     -10.287170      -279.9281
  13   2.0000     -10.278747      -279.6989
  14   2.0000     -10.272854      -279.5386
  15   2.0000     -10.269098      -279.4364
  16   2.0000      -8.078285      -219.8213
  17   2.0000      -8.077390      -219.7970
  18   2.0000      -6.036723      -164.2676
  19   2.0000      -6.036165      -164.2524
  20   2.0000      -6.032695      -164.1580
  21   2.0000      -6.032192      -164.1443
  22   2.0000      -6.029106      -164.0603
  23   2.0000      -6.027714      -164.0224
  24   2.0000      -1.006743       -27.3949
  25   2.0000      -0.984072       -26.7780
  26   2.0000      -0.910797       -24.7840
  27   2.0000      -0.908442       -24.7200
  28   2.0000      -0.872688       -23.7470
  29   2.0000      -0.853894       -23.2356
  30   2.0000      -0.840164       -22.8620
  31   2.0000      -0.819754       -22.3066
  32   2.0000      -0.784704       -21.3529
  33   2.0000      -0.771838       -21.0028
  34   2.0000      -0.708763       -19.2864
  35   2.0000      -0.705045       -19.1853
  36   2.0000      -0.700553       -19.0630
  37   2.0000      -0.661252       -17.9936
  38   2.0000      -0.635230       -17.2855
  39   2.0000      -0.612561       -16.6686
  40   2.0000      -0.593830       -16.1589
  41   2.0000      -0.576141       -15.6776
  42   2.0000      -0.570130       -15.5140
  43   2.0000      -0.554200       -15.0805
  44   2.0000      -0.541424       -14.7329
  45   2.0000      -0.528328       -14.3765
  46   2.0000      -0.518601       -14.1119
  47   2.0000      -0.514666       -14.0048
  48   2.0000      -0.509813       -13.8727
  49   2.0000      -0.498178       -13.5561
  50   2.0000      -0.487139       -13.2557
  51   2.0000      -0.480552       -13.0765
  52   2.0000      -0.473189       -12.8761
  53   2.0000      -0.464823       -12.6485
  54   2.0000      -0.462256       -12.5786
  55   2.0000      -0.445540       -12.1238
  56   2.0000      -0.442725       -12.0472
  57   2.0000      -0.435929       -11.8622
  58   2.0000      -0.434501       -11.8234
  59   2.0000      -0.433392       -11.7932
  60   2.0000      -0.427349       -11.6287
  61   2.0000      -0.417938       -11.3727
  62   2.0000      -0.406684       -11.0664
  63   2.0000      -0.348928        -9.4948
  64   2.0000      -0.329017        -8.9530
  65   2.0000      -0.326231        -8.8772
  66   2.0000      -0.297662        -8.0998
  67   0.0000       0.035433         0.9642
  68   0.0000       0.072181         1.9642
  69   0.0000       0.111397         3.0313
  70   0.0000       0.123143         3.3509
  71   0.0000       0.131737         3.5847

MULLIKEN ATOMIC CHARGES
-----------------------
   0 S :    0.097528
   1 C :   -0.118263
   2 C :   -0.127828
   3 C :    0.043117
   4 C :   -0.157543
   5 H :    0.010626
   6 C :    0.080563
   7 H :    0.038837
   8 H :    0.010847
   9 C :   -0.075668
  10 H :    0.027727
  11 H :    0.020978
  12 C :   -0.021126
  13 H :    0.041324
  14 H :    0.026055
  15 H :    0.029240
  16 S :    0.113988
  17 C :   -0.063749
  18 C :   -0.030751
  19 C :   -0.055693
  20 C :   -0.159174
  21 H :    0.026493
  22 C :    0.124675
  23 H :    0.012929
  24 H :    0.007531
  25 C :   -0.101654
  26 H :    0.031727
  27 H :    0.030278
  28 C :    0.000025
  29 H :    0.023146
  30 H :    0.021752
  31 H :    0.020709
  32 H :    0.044843
  33 H :    0.026508
Sum of atomic charges:   -0.0000000

LOEWDIN ATOMIC CHARGES
----------------------
   0 S :    0.365453
   1 C :   -0.197659
   2 C :   -0.066142
   3 C :   -0.053861
   4 C :   -0.170593
   5 H :    0.029820
   6 C :   -0.026301
   7 H :    0.034215
   8 H :    0.022392
   9 C :   -0.034454
  10 H :    0.021134
  11 H :    0.018424
  12 C :   -0.057038
  13 H :    0.032604
  14 H :    0.018085
  15 H :    0.024086
  16 S :    0.417421
  17 C :   -0.170345
  18 C :   -0.074627
  19 C :   -0.048688
  20 C :   -0.217267
  21 H :    0.038481
  22 C :   -0.027444
  23 H :    0.024413
  24 H :    0.026954
  25 C :   -0.028478
  26 H :    0.024967
  27 H :    0.021759
  28 C :   -0.056521
  29 H :    0.026378
  30 H :    0.017931
  31 H :    0.017267
  32 H :    0.033379
  33 H :    0.014257

  Mayer bond orders larger than 0.100000
B(  0-S ,  1-C ) :   1.1013 B(  0-S ,  4-C ) :   1.1139 B(  1-C ,  2-C ) :   1.6987
B(  1-C , 32-H ) :   0.9590 B(  2-C ,  3-C ) :   1.1818 B(  2-C ,  6-C ) :   1.0082
B(  3-C ,  4-C ) :   1.6330 B(  3-C ,  5-H ) :   0.9939 B(  4-C , 20-C ) :   1.0393
B(  6-C ,  7-H ) :   0.9415 B(  6-C ,  8-H ) :   0.9410 B(  6-C ,  9-C ) :   1.0775
B(  9-C , 10-H ) :   0.9590 B(  9-C , 11-H ) :   0.9594 B(  9-C , 12-C ) :   1.0640
B( 12-C , 13-H ) :   0.9708 B( 12-C , 14-H ) :   0.9787 B( 12-C , 15-H ) :   0.9739
B( 16-S , 17-C ) :   1.1610 B( 16-S , 20-C ) :   1.1414 B( 17-C , 18-C ) :   1.6113
B( 17-C , 33-H ) :   0.9734 B( 18-C , 19-C ) :   1.2353 B( 18-C , 21-H ) :   0.9907
B( 19-C , 20-C ) :   1.5817 B( 19-C , 22-C ) :   1.0507 B( 22-C , 23-H ) :   0.9325
B( 22-C , 24-H ) :   0.9221 B( 22-C , 25-C ) :   1.0505 B( 25-C , 26-H ) :   0.9573
B( 25-C , 27-H ) :   0.9596 B( 25-C , 28-C ) :   1.0896 B( 28-C , 29-H ) :   0.9738
B( 28-C , 30-H ) :   0.9741 B( 28-C , 31-H ) :   0.9748

Dispersion correction           -0.015340211
FINAL SINGLE POINT ENERGY     -1339.882747445659

DIPOLE MOMENT
-------------
                                X             Y             Z
Electronic contribution:    -26.88473      13.43613      -2.99175
Nuclear contribution   :     27.42552     -13.92957       3.03206
                        -----------------------------------------
Total Dipole Moment    :      0.54079      -0.49344       0.04031
                        -----------------------------------------
Magnitude (a.u.)       :      0.73318
Magnitude (Debye)      :      1.86361

Rotational constants in cm-1:     0.017759     0.010172     0.007037
Rotational constants in MHz :   532.390135   304.948010   210.957131

                             ****ORCA TERMINATED NORMALLY****
TOTAL RUN TIME: 0 days 0 hours 0 minutes 22 seconds 473 msec
