                         Program Version 4.2.1 -  RELEASE  -
|  1> ! wB97X-D3 SP def2-SVP
|  2> %pal
|  3> nprocs 24
|  4> end
|  5>
|  6> * xyz 0 1
|  7> S 	 -126.45 	 62.7197 	 -56.8387
|  8> C 	 -125.632 	 63.2337 	 -55.416
|  9> C 	 -126.392 	 62.9087 	 -54.3273
| 10> C 	 -127.498 	 62.0509 	 -54.6055
| 11> C 	 -127.702 	 61.9887 	 -55.9361
| 12> H 	 -128.141 	 61.6669 	 -53.8135
| 13> C 	 -126.041 	 63.376 	 -52.8746
| 14> H 	 -125.101 	 63.9541 	 -52.7576
| 15> H 	 -125.785 	 62.4295 	 -52.3781
| 16> C 	 -127.093 	 64.1642 	 -52.0615
| 17> H 	 -128.163 	 63.9795 	 -52.3408
| 18> H 	 -127.117 	 63.8204 	 -50.9663
| 19> C 	 -126.951 	 65.7347 	 -52.2237
| 20> H 	 -127.165 	 66.0982 	 -53.2746
| 21> H 	 -127.615 	 66.2944 	 -51.5891
| 22> H 	 -125.938 	 65.8716 	 -51.9848
| 23> S 	 -128.249 	 60.163 	 -57.8762
| 24> C 	 -129.774 	 59.4811 	 -57.9365
| 25> C 	 -130.671 	 59.9586 	 -57.0072
| 26> C 	 -130.135 	 61.0768 	 -56.1985
| 27> C 	 -128.772 	 61.1561 	 -56.4862
| 28> H 	 -131.632 	 59.6426 	 -56.9273
| 29> C 	 -130.899 	 61.8811 	 -55.1986
| 30> H 	 -131.874 	 62.1561 	 -55.6191
| 31> H 	 -130.287 	 62.7921 	 -54.9809
| 32> C 	 -131.106 	 61.0178 	 -53.9203
| 33> H 	 -130.222 	 60.5457 	 -53.6204
| 34> H 	 -131.693 	 60.2093 	 -54.2096
| 35> C 	 -131.892 	 61.8405 	 -52.7604
| 36> H 	 -132.911 	 62.0501 	 -53.0765
| 37> H 	 -131.571 	 62.9352 	 -52.6976
| 38> H 	 -131.89 	 61.2279 	 -51.7995
| 39> H 	 -124.72 	 63.6944 	 -55.4063
| 40> H 	 -129.965 	 58.6443 	 -58.583
| 41> *
| 42>
| 43>                          ****END OF INPUT****

CARTESIAN COORDINATES (ANGSTROEM)
---------------------------------
  S    -126.450000   62.719700  -56.838700
  C    -125.632000   63.233700  -55.416000
  C    -126.392000   62.908700  -54.327300
  C    -127.498000   62.050900  -54.605500
  C    -127.702000   61.988700  -55.936100
  H    -128.141000   61.666900  -53.813500
  C    -126.041000   63.376000  -52.874600
  H    -125.101000   63.954100  -52.757600
  H    -125.785000   62.429500  -52.378100
  C    -127.093000   64.164200  -52.061500
  H    -128.163000   63.979500  -52.340800
  H    -127.117000   63.820400  -50.966300
  C    -126.951000   65.734700  -52.223700
  H    -127.165000   66.098200  -53.274600
  H    -127.615000   66.294400  -51.589100
  H    -125.938000   65.871600  -51.984800
  S    -128.249000   60.163000  -57.876200
  C    -129.774000   59.481100  -57.936500
  C    -130.671000   59.958600  -57.007200
  C    -130.135000   61.076800  -56.198500
  C    -128.772000   61.156100  -56.486200
  H    -131.632000   59.642600  -56.927300
  C    -130.899000   61.881100  -55.198600
  H    -131.874000   62.156100  -55.619100
  H    -130.287000   62.792100  -54.980900
  C    -131.106000   61.017800  -53.920300
  H    -130.222000   60.545700  -53.620400
  H    -131.693000   60.209300  -54.209600
  C    -131.892000   61.840500  -52.760400
  H    -132.911000   62.050100  -53.076500
  H    -131.571000   62.935200  -52.697600
  H    -131.890000   61.227900  -51.799500
  H    -124.720000   63.694400  -55.406300
  H    -129.965000   58.644300  -58.583000

 Total Charge           Charge          ....    0
 Multiplicity           Mult            ....    1
 Number of Electrons    NEL             ....  134
 Basis Dimension        Dim             ....  322

ORBITAL ENERGIES
----------------

  NO   OCC          E(Eh)            E(eV)
   0   2.0000     -88.963897     -2420.8307
   1   2.0000     -88.962062     -2420.7808
   2   2.0000     -10.325064      -280.9593
   3   2.0000     -10.320916      -280.8464
   4   2.0000     -10.309548      -280.5371
   5   2.0000     -10.307572      -280.4833
   6   2.0000     -10.301816      -280.3267
   7   2.0000     -10.299729      -280.2699
   8   2.0000     -10.299395      -280.2608
   9   2.0000     -10.297954      -280.2216
  10   2.0000     -10.297653      -280.2134
  11   2.0000     -10.296294      -280.1764
  12   2.0000     -10.288361      -279.9605
  13   2.0000     -10.287983      -279.9502
  14   2.0000     -10.287747      -279.9438
  15   2.0000     -10.278388      -279.6892
  16   2.0000      -8.080031      -219.8688
  17   2.0000      -8.078269      -219.8209
  18   2.0000      -6.038512      -164.3163
  19   2.0000      -6.036533      -164.2624
  20   2.0000      -6.034355      -164.2031
  21   2.0000      -6.032764      -164.1598
  22   2.0000      -6.030733      -164.1046
  23   2.0000      -6.028999      -164.0574
  24   2.0000      -1.014805       -27.6143
  25   2.0000      -0.988571       -26.9004
  26   2.0000      -0.911416       -24.8009
  27   2.0000      -0.900118       -24.4935
  28   2.0000      -0.869446       -23.6588
  29   2.0000      -0.849420       -23.1139
  30   2.0000      -0.843114       -22.9423
  31   2.0000      -0.811521       -22.0826
  32   2.0000      -0.781642       -21.2696
  33   2.0000      -0.771544       -20.9948
  34   2.0000      -0.715507       -19.4699
  35   2.0000      -0.697826       -18.9888
  36   2.0000      -0.692010       -18.8306
  37   2.0000      -0.665471       -18.1084
  38   2.0000      -0.643152       -17.5010
  39   2.0000      -0.623800       -16.9745
  40   2.0000      -0.599260       -16.3067
  41   2.0000      -0.568587       -15.4720
  42   2.0000      -0.558005       -15.1841
  43   2.0000      -0.548930       -14.9371
  44   2.0000      -0.534414       -14.5421
  45   2.0000      -0.526719       -14.3328
  46   2.0000      -0.516776       -14.0622
  47   2.0000      -0.513664       -13.9775
  48   2.0000      -0.501277       -13.6405
  49   2.0000      -0.494619       -13.4593
  50   2.0000      -0.489611       -13.3230
  51   2.0000      -0.479040       -13.0354
  52   2.0000      -0.473002       -12.8710
  53   2.0000      -0.462135       -12.5753
  54   2.0000      -0.459106       -12.4929
  55   2.0000      -0.452871       -12.3232
  56   2.0000      -0.445993       -12.1361
  57   2.0000      -0.443788       -12.0761
  58   2.0000      -0.439269       -11.9531
  59   2.0000      -0.426800       -11.6138
  60   2.0000      -0.423527       -11.5248
  61   2.0000      -0.414245       -11.2722
  62   2.0000      -0.404288       -11.0012
  63   2.0000      -0.350852        -9.5472
  64   2.0000      -0.328549        -8.9403
  65   2.0000      -0.326651        -8.8886
  66   2.0000      -0.290063        -7.8930
  67   0.0000       0.036021         0.9802
  68   0.0000       0.081713         2.2235
  69   0.0000       0.109937         2.9915
  70   0.0000       0.121127         3.2960
  71   0.0000       0.125576         3.4171

MULLIKEN ATOMIC CHARGES
-----------------------
   0 S :    0.111173
   1 C :   -0.097522
   2 C :   -0.072872
   3 C :    0.006471
   4 C :   -0.104933
   5 H :    0.013964
   6 C :    0.059074
   7 H :    0.017698
   8 H :    0.035940
   9 C :   -0.125351
  10 H :    0.031283
  11 H :    0.041669
  12 C :   -0.041939
  13 H :    0.047875
  14 H :    0.034182
  15 H :    0.017566
  16 S :    0.109409
  17 C :   -0.065250
  18 C :    0.003090
  19 C :   -0.069246
  20 C :   -0.171909
  21 H :   -0.026702
  22 C :    0.067789
  23 H :    0.032118
  24 H :    0.043914
  25 C :   -0.048018
  26 H :    0.019823
  27 H :    0.009993
  28 C :   -0.071387
  29 H :    0.024872
  30 H :    0.039972
  31 H :    0.062813
  32 H :    0.011907
  33 H :    0.052535
Sum of atomic charges:    0.0000000

LOEWDIN ATOMIC CHARGES
----------------------
   0 S :    0.425335
   1 C :   -0.196920
   2 C :   -0.056045
   3 C :   -0.066354
   4 C :   -0.207226
   5 H :    0.035089
   6 C :   -0.039672
   7 H :    0.029873
   8 H :    0.034990
   9 C :   -0.054327
  10 H :    0.022657
  11 H :    0.032626
  12 C :   -0.061745
  13 H :    0.035124
  14 H :    0.022729
  15 H :    0.012703
  16 S :    0.414873
  17 C :   -0.200612
  18 C :   -0.062591
  19 C :   -0.045047
  20 C :   -0.180047
  21 H :    0.009300
  22 C :   -0.029915
  23 H :    0.034294
  24 H :    0.036859
  25 C :   -0.027080
  26 H :    0.014184
  27 H :    0.017039
  28 C :   -0.080875
  29 H :    0.022923
  30 H :    0.033556
  31 H :    0.037610
  32 H :    0.011435
  33 H :    0.025259

  Mayer bond orders larger than 0.100000
B(  0-S ,  1-C ) :   1.1242 B(  0-S ,  4-C ) :   1.1629 B(  1-C ,  2-C ) :   1.6130
B(  1-C , 32-H ) :   0.9866 B(  2-C ,  3-C ) :   1.2439 B(  2-C ,  6-C ) :   1.0130
B(  3-C ,  4-C ) :   1.5525 B(  3-C ,  5-H ) :   0.9944 B(  4-C , 20-C ) :   1.0331
B(  6-C ,  7-H ) :   0.9515 B(  6-C ,  8-H ) :   0.9407 B(  6-C ,  9-C ) :   1.0454
B(  9-C , 10-H ) :   0.9630 B(  9-C , 11-H ) :   0.9587 B(  9-C , 12-C ) :   1.0589
B( 12-C , 13-H ) :   0.9785 B( 12-C , 14-H ) :   0.9762 B( 12-C , 15-H ) :   0.9807
B( 16-S , 17-C ) :   1.1637 B( 16-S , 20-C ) :   1.1360 B( 17-C , 18-C ) :   1.6210
B( 17-C , 33-H ) :   0.9667 B( 18-C , 19-C ) :   1.1953 B( 18-C , 21-H ) :   1.0020
B( 19-C , 20-C ) :   1.6212 B( 19-C , 22-C ) :   1.0648 B( 22-C , 23-H ) :   0.9280
B( 22-C , 24-H ) :   0.9288 B( 22-C , 25-C ) :   1.0518 B( 25-C , 26-H ) :   0.9603
B( 25-C , 27-H ) :   0.9530 B( 25-C , 28-C ) :   1.0572 B( 28-C , 29-H ) :   0.9730
B( 28-C , 30-H ) :   0.9757 B( 28-C , 31-H ) :   0.9755

Dispersion correction           -0.014530161
FINAL SINGLE POINT ENERGY     -1339.855841909842

DIPOLE MOMENT
-------------
                                X             Y             Z
Electronic contribution:     11.04701     -11.38572     -28.14071
Nuclear contribution   :    -11.41781      11.38701      28.70379
                        -----------------------------------------
Total Dipole Moment    :     -0.37080       0.00129       0.56308
                        -----------------------------------------
Magnitude (a.u.)       :      0.67420
Magnitude (Debye)      :      1.71369

Rotational constants in cm-1:     0.017148     0.010090     0.006743
Rotational constants in MHz :   514.091892   302.497739   202.148109

                             ****ORCA TERMINATED NORMALLY****
TOTAL RUN TIME: 0 days 0 hours 0 minutes 20 seconds 898 msec
