                         Program Version 4.2.1 -  RELEASE  -
|  1> ! wB97X-D3 SP def2-SVP
|  2> %pal
|  3> nprocs 24
|  4> end
|  5>
|  6> * xyz 0 1
|  7> S 	 -130.643 	 64.2433 	 -59.5117
|  8> C 	 -129.295 	 64.5342 	 -58.3727
|  9> C 	 -128.524 	 65.5826 	 -58.7968
| 10> C 	 -129.224 	 66.4331 	 -59.7194
| 11> C 	 -130.476 	 65.8925 	 -60.072
| 12> H 	 -128.93 	 67.457 	 -60.1036
| 13> C 	 -127.133 	 65.9263 	 -58.3129
| 14> H 	 -126.365 	 65.6198 	 -59.0877
| 15> H 	 -126.779 	 65.3291 	 -57.4027
| 16> C 	 -126.862 	 67.4498 	 -58.0303
| 17> H 	 -126.916 	 68.1031 	 -58.9348
| 18> H 	 -127.644 	 67.8313 	 -57.4127
| 19> C 	 -125.482 	 67.6605 	 -57.4015
| 20> H 	 -124.673 	 67.1825 	 -57.9937
| 21> H 	 -125.237 	 68.7431 	 -57.3685
| 22> H 	 -125.357 	 67.2629 	 -56.3882
| 23> S 	 -132.813 	 67.1778 	 -60.4398
| 24> C 	 -133.344 	 67.4575 	 -62.0699
| 25> C 	 -132.396 	 67.1241 	 -63.0078
| 26> C 	 -131.228 	 66.6137 	 -62.4294
| 27> C 	 -131.351 	 66.5321 	 -61.0533
| 28> H 	 -132.557 	 67.2025 	 -64.0669
| 29> C 	 -130.158 	 65.9285 	 -63.268
| 30> H 	 -129.384 	 65.5321 	 -62.5543
| 31> H 	 -129.776 	 66.7235 	 -63.856
| 32> C 	 -130.682 	 64.8443 	 -64.2443
| 33> H 	 -131.509 	 65.2871 	 -64.7713
| 34> H 	 -131.167 	 64.03 	 -63.6368
| 35> C 	 -129.523 	 64.3756 	 -65.1829
| 36> H 	 -129.256 	 65.1637 	 -65.9013
| 37> H 	 -129.861 	 63.5548 	 -65.8254
| 38> H 	 -128.706 	 64.0209 	 -64.6001
| 39> H 	 -128.779 	 63.8781 	 -57.7544
| 40> H 	 -134.187 	 68.1047 	 -62.396
| 41> *
| 42>
| 43>                          ****END OF INPUT****

CARTESIAN COORDINATES (ANGSTROEM)
---------------------------------
  S    -130.643000   64.243300  -59.511700
  C    -129.295000   64.534200  -58.372700
  C    -128.524000   65.582600  -58.796800
  C    -129.224000   66.433100  -59.719400
  C    -130.476000   65.892500  -60.072000
  H    -128.930000   67.457000  -60.103600
  C    -127.133000   65.926300  -58.312900
  H    -126.365000   65.619800  -59.087700
  H    -126.779000   65.329100  -57.402700
  C    -126.862000   67.449800  -58.030300
  H    -126.916000   68.103100  -58.934800
  H    -127.644000   67.831300  -57.412700
  C    -125.482000   67.660500  -57.401500
  H    -124.673000   67.182500  -57.993700
  H    -125.237000   68.743100  -57.368500
  H    -125.357000   67.262900  -56.388200
  S    -132.813000   67.177800  -60.439800
  C    -133.344000   67.457500  -62.069900
  C    -132.396000   67.124100  -63.007800
  C    -131.228000   66.613700  -62.429400
  C    -131.351000   66.532100  -61.053300
  H    -132.557000   67.202500  -64.066900
  C    -130.158000   65.928500  -63.268000
  H    -129.384000   65.532100  -62.554300
  H    -129.776000   66.723500  -63.856000
  C    -130.682000   64.844300  -64.244300
  H    -131.509000   65.287100  -64.771300
  H    -131.167000   64.030000  -63.636800
  C    -129.523000   64.375600  -65.182900
  H    -129.256000   65.163700  -65.901300
  H    -129.861000   63.554800  -65.825400
  H    -128.706000   64.020900  -64.600100
  H    -128.779000   63.878100  -57.754400
  H    -134.187000   68.104700  -62.396000

 Total Charge           Charge          ....    0
 Multiplicity           Mult            ....    1
 Number of Electrons    NEL             ....  134
 Basis Dimension        Dim             ....  322

ORBITAL ENERGIES
----------------

  NO   OCC          E(Eh)            E(eV)
   0   2.0000     -88.969166     -2420.9741
   1   2.0000     -88.966271     -2420.8953
   2   2.0000     -10.328291      -281.0471
   3   2.0000     -10.318527      -280.7814
   4   2.0000     -10.314360      -280.6680
   5   2.0000     -10.307422      -280.4792
   6   2.0000     -10.305428      -280.4250
   7   2.0000     -10.301821      -280.3268
   8   2.0000     -10.299728      -280.2698
   9   2.0000     -10.295924      -280.1663
  10   2.0000     -10.290988      -280.0320
  11   2.0000     -10.290378      -280.0154
  12   2.0000     -10.288158      -279.9550
  13   2.0000     -10.287437      -279.9354
  14   2.0000     -10.283920      -279.8397
  15   2.0000     -10.280405      -279.7440
  16   2.0000      -8.082883      -219.9464
  17   2.0000      -8.081872      -219.9189
  18   2.0000      -6.041486      -164.3972
  19   2.0000      -6.040185      -164.3618
  20   2.0000      -6.037915      -164.3000
  21   2.0000      -6.036254      -164.2548
  22   2.0000      -6.033208      -164.1719
  23   2.0000      -6.032788      -164.1605
  24   2.0000      -1.009981       -27.4830
  25   2.0000      -0.984695       -26.7949
  26   2.0000      -0.906869       -24.6772
  27   2.0000      -0.905629       -24.6434
  28   2.0000      -0.869583       -23.6626
  29   2.0000      -0.850683       -23.1483
  30   2.0000      -0.844046       -22.9677
  31   2.0000      -0.810461       -22.0538
  32   2.0000      -0.778348       -21.1799
  33   2.0000      -0.769394       -20.9363
  34   2.0000      -0.709068       -19.2947
  35   2.0000      -0.700032       -19.0489
  36   2.0000      -0.693374       -18.8677
  37   2.0000      -0.661299       -17.9949
  38   2.0000      -0.633656       -17.2427
  39   2.0000      -0.612855       -16.6766
  40   2.0000      -0.592503       -16.1228
  41   2.0000      -0.568468       -15.4688
  42   2.0000      -0.563767       -15.3409
  43   2.0000      -0.557704       -15.1759
  44   2.0000      -0.522939       -14.2299
  45   2.0000      -0.520187       -14.1550
  46   2.0000      -0.513583       -13.9753
  47   2.0000      -0.502969       -13.6865
  48   2.0000      -0.499658       -13.5964
  49   2.0000      -0.492066       -13.3898
  50   2.0000      -0.489613       -13.3230
  51   2.0000      -0.476561       -12.9679
  52   2.0000      -0.471275       -12.8240
  53   2.0000      -0.468071       -12.7369
  54   2.0000      -0.456527       -12.4227
  55   2.0000      -0.452781       -12.3208
  56   2.0000      -0.445496       -12.1225
  57   2.0000      -0.434677       -11.8282
  58   2.0000      -0.430405       -11.7119
  59   2.0000      -0.427855       -11.6425
  60   2.0000      -0.424856       -11.5609
  61   2.0000      -0.422071       -11.4851
  62   2.0000      -0.418607       -11.3909
  63   2.0000      -0.337487        -9.1835
  64   2.0000      -0.326319        -8.8796
  65   2.0000      -0.323092        -8.7918
  66   2.0000      -0.305102        -8.3022
  67   0.0000       0.037252         1.0137
  68   0.0000       0.057571         1.5666
  69   0.0000       0.098042         2.6679
  70   0.0000       0.124974         3.4007
  71   0.0000       0.129755         3.5308

MULLIKEN ATOMIC CHARGES
-----------------------
   0 S :    0.116344
   1 C :   -0.062959
   2 C :   -0.080334
   3 C :    0.010297
   4 C :   -0.155529
   5 H :    0.041787
   6 C :    0.009273
   7 H :    0.048060
   8 H :    0.032326
   9 C :   -0.082659
  10 H :    0.036958
  11 H :    0.032324
  12 C :   -0.066574
  13 H :    0.029240
  14 H :    0.038815
  15 H :    0.035812
  16 S :    0.135105
  17 C :   -0.092721
  18 C :   -0.064143
  19 C :    0.004591
  20 C :   -0.231107
  21 H :    0.015287
  22 C :    0.073433
  23 H :    0.041748
  24 H :    0.013858
  25 C :   -0.093083
  26 H :    0.016818
  27 H :    0.040763
  28 C :   -0.030873
  29 H :    0.035916
  30 H :    0.033129
  31 H :    0.036602
  32 H :    0.016530
  33 H :    0.064967
Sum of atomic charges:   -0.0000000

LOEWDIN ATOMIC CHARGES
----------------------
   0 S :    0.391609
   1 C :   -0.184364
   2 C :   -0.061111
   3 C :   -0.064412
   4 C :   -0.198424
   5 H :    0.042828
   6 C :   -0.041940
   7 H :    0.040039
   8 H :    0.035543
   9 C :   -0.044559
  10 H :    0.027303
  11 H :    0.021384
  12 C :   -0.071744
  13 H :    0.026589
  14 H :    0.030530
  15 H :    0.024519
  16 S :    0.437020
  17 C :   -0.198549
  18 C :   -0.072160
  19 C :   -0.056883
  20 C :   -0.219789
  21 H :    0.028392
  22 C :   -0.030811
  23 H :    0.034952
  24 H :    0.024975
  25 C :   -0.038523
  26 H :    0.016257
  27 H :    0.030431
  28 C :   -0.061919
  29 H :    0.029065
  30 H :    0.028263
  31 H :    0.023534
  32 H :    0.015246
  33 H :    0.036709

  Mayer bond orders larger than 0.100000
B(  0-S ,  1-C ) :   1.1073 B(  0-S ,  4-C ) :   1.1492 B(  1-C ,  2-C ) :   1.6565
B(  1-C , 32-H ) :   0.9645 B(  2-C ,  3-C ) :   1.2045 B(  2-C ,  6-C ) :   1.0313
B(  3-C ,  4-C ) :   1.5830 B(  3-C ,  5-H ) :   0.9853 B(  4-C , 20-C ) :   1.0184
B(  6-C ,  7-H ) :   0.9308 B(  6-C ,  8-H ) :   0.9497 B(  6-C ,  9-C ) :   1.0519
B(  9-C , 10-H ) :   0.9481 B(  9-C , 11-H ) :   0.9612 B(  9-C , 12-C ) :   1.0857
B( 12-C , 13-H ) :   0.9733 B( 12-C , 14-H ) :   0.9741 B( 12-C , 15-H ) :   0.9748
B( 16-S , 17-C ) :   1.1602 B( 16-S , 20-C ) :   1.1701 B( 17-C , 18-C ) :   1.6056
B( 17-C , 33-H ) :   0.9575 B( 18-C , 19-C ) :   1.2595 B( 18-C , 21-H ) :   0.9873
B( 19-C , 20-C ) :   1.5836 B( 19-C , 22-C ) :   1.0396 B( 22-C , 23-H ) :   0.9345
B( 22-C , 24-H ) :   0.9219 B( 22-C , 25-C ) :   1.0663 B( 25-C , 26-H ) :   0.9532
B( 25-C , 27-H ) :   0.9561 B( 25-C , 28-C ) :   1.0756 B( 28-C , 29-H ) :   0.9748
B( 28-C , 30-H ) :   0.9743 B( 28-C , 31-H ) :   0.9773

Dispersion correction           -0.013998774
FINAL SINGLE POINT ENERGY     -1339.870590649364

DIPOLE MOMENT
-------------
                                X             Y             Z
Electronic contribution:    -23.42947      -1.82206       7.49819
Nuclear contribution   :     24.00533       1.99737      -7.90690
                        -----------------------------------------
Total Dipole Moment    :      0.57585       0.17530      -0.40871
                        -----------------------------------------
Magnitude (a.u.)       :      0.72759
Magnitude (Debye)      :      1.84938

Rotational constants in cm-1:     0.017889     0.007757     0.006857
Rotational constants in MHz :   536.302679   232.561682   205.569920

                             ****ORCA TERMINATED NORMALLY****
TOTAL RUN TIME: 0 days 0 hours 0 minutes 21 seconds 262 msec
