                         Program Version 4.2.1 -  RELEASE  -
|  1> ! wB97X-D3 SP def2-SVP
|  2> %pal
|  3> nprocs 24
|  4> end
|  5>
|  6> * xyz 0 1
|  7> S 	 -109.773 	 69.1791 	 -6.04288
|  8> C 	 -109.066 	 69.9278 	 -7.4421
|  9> C 	 -108.934 	 69.0032 	 -8.49424
| 10> C 	 -109.466 	 67.6857 	 -8.12433
| 11> C 	 -109.814 	 67.5618 	 -6.8084
| 12> H 	 -109.346 	 66.8797 	 -8.81973
| 13> C 	 -108.27 	 69.2161 	 -9.81781
| 14> H 	 -108.249 	 70.3289 	 -9.88237
| 15> H 	 -108.829 	 68.9869 	 -10.6645
| 16> C 	 -106.927 	 68.5075 	 -9.94407
| 17> H 	 -106.26 	 68.9481 	 -9.17946
| 18> H 	 -107.111 	 67.4639 	 -9.66518
| 19> C 	 -106.14 	 68.6706 	 -11.2461
| 20> H 	 -105.82 	 69.6586 	 -11.4721
| 21> H 	 -105.286 	 67.967 	 -11.2008
| 22> H 	 -106.791 	 68.3576 	 -12.1579
| 23> S 	 -109.091 	 65.9588 	 -4.64224
| 24> C 	 -109.829 	 64.3659 	 -4.47451
| 25> C 	 -110.739 	 64.1617 	 -5.5001
| 26> C 	 -110.883 	 65.2233 	 -6.39461
| 27> C 	 -110.111 	 66.3537 	 -6.04732
| 28> H 	 -111.253 	 63.2197 	 -5.53903
| 29> C 	 -111.87 	 65.1092 	 -7.57396
| 30> H 	 -111.59 	 64.1206 	 -7.92177
| 31> H 	 -111.548 	 65.8291 	 -8.2781
| 32> C 	 -113.326 	 65.1498 	 -7.2131
| 33> H 	 -113.679 	 64.3663 	 -6.55899
| 34> H 	 -113.87 	 64.9636 	 -8.10514
| 35> C 	 -113.833 	 66.4208 	 -6.576
| 36> H 	 -113.4 	 66.382 	 -5.58626
| 37> H 	 -114.942 	 66.3892 	 -6.46877
| 38> H 	 -113.479 	 67.2999 	 -7.10097
| 39> H 	 -108.595 	 70.8672 	 -7.54911
| 40> H 	 -109.596 	 63.6353 	 -3.60359
| 41> *
| 42>
| 43>                          ****END OF INPUT****

CARTESIAN COORDINATES (ANGSTROEM)
---------------------------------
  S    -109.773000   69.179100   -6.042880
  C    -109.066000   69.927800   -7.442100
  C    -108.934000   69.003200   -8.494240
  C    -109.466000   67.685700   -8.124330
  C    -109.814000   67.561800   -6.808400
  H    -109.346000   66.879700   -8.819730
  C    -108.270000   69.216100   -9.817810
  H    -108.249000   70.328900   -9.882370
  H    -108.829000   68.986900  -10.664500
  C    -106.927000   68.507500   -9.944070
  H    -106.260000   68.948100   -9.179460
  H    -107.111000   67.463900   -9.665180
  C    -106.140000   68.670600  -11.246100
  H    -105.820000   69.658600  -11.472100
  H    -105.286000   67.967000  -11.200800
  H    -106.791000   68.357600  -12.157900
  S    -109.091000   65.958800   -4.642240
  C    -109.829000   64.365900   -4.474510
  C    -110.739000   64.161700   -5.500100
  C    -110.883000   65.223300   -6.394610
  C    -110.111000   66.353700   -6.047320
  H    -111.253000   63.219700   -5.539030
  C    -111.870000   65.109200   -7.573960
  H    -111.590000   64.120600   -7.921770
  H    -111.548000   65.829100   -8.278100
  C    -113.326000   65.149800   -7.213100
  H    -113.679000   64.366300   -6.558990
  H    -113.870000   64.963600   -8.105140
  C    -113.833000   66.420800   -6.576000
  H    -113.400000   66.382000   -5.586260
  H    -114.942000   66.389200   -6.468770
  H    -113.479000   67.299900   -7.100970
  H    -108.595000   70.867200   -7.549110
  H    -109.596000   63.635300   -3.603590

 Total Charge           Charge          ....    0
 Multiplicity           Mult            ....    1
 Number of Electrons    NEL             ....  134
 Basis Dimension        Dim             ....  322

ORBITAL ENERGIES
----------------

  NO   OCC          E(Eh)            E(eV)
   0   2.0000     -88.966844     -2420.9109
   1   2.0000     -88.966235     -2420.8943
   2   2.0000     -10.334537      -281.2170
   3   2.0000     -10.331169      -281.1254
   4   2.0000     -10.328391      -281.0498
   5   2.0000     -10.314358      -280.6679
   6   2.0000     -10.304239      -280.3926
   7   2.0000     -10.303755      -280.3794
   8   2.0000     -10.295116      -280.1443
   9   2.0000     -10.291913      -280.0572
  10   2.0000     -10.288918      -279.9757
  11   2.0000     -10.288581      -279.9665
  12   2.0000     -10.287666      -279.9416
  13   2.0000     -10.286896      -279.9207
  14   2.0000     -10.276236      -279.6306
  15   2.0000     -10.269276      -279.4412
  16   2.0000      -8.080809      -219.8900
  17   2.0000      -8.080473      -219.8809
  18   2.0000      -6.039341      -164.3388
  19   2.0000      -6.039259      -164.3366
  20   2.0000      -6.035317      -164.2293
  21   2.0000      -6.034972      -164.2199
  22   2.0000      -6.031680      -164.1304
  23   2.0000      -6.031028      -164.1126
  24   2.0000      -1.001596       -27.2548
  25   2.0000      -0.980556       -26.6823
  26   2.0000      -0.914633       -24.8884
  27   2.0000      -0.912891       -24.8410
  28   2.0000      -0.869193       -23.6520
  29   2.0000      -0.851338       -23.1661
  30   2.0000      -0.844914       -22.9913
  31   2.0000      -0.814942       -22.1757
  32   2.0000      -0.784695       -21.3526
  33   2.0000      -0.771754       -21.0005
  34   2.0000      -0.708700       -19.2847
  35   2.0000      -0.696835       -18.9619
  36   2.0000      -0.692733       -18.8502
  37   2.0000      -0.657910       -17.9027
  38   2.0000      -0.639983       -17.4148
  39   2.0000      -0.624573       -16.9955
  40   2.0000      -0.594160       -16.1679
  41   2.0000      -0.574036       -15.6203
  42   2.0000      -0.558467       -15.1966
  43   2.0000      -0.554974       -15.1016
  44   2.0000      -0.543910       -14.8006
  45   2.0000      -0.531008       -14.4495
  46   2.0000      -0.522104       -14.2072
  47   2.0000      -0.514503       -14.0003
  48   2.0000      -0.505361       -13.7516
  49   2.0000      -0.495923       -13.4948
  50   2.0000      -0.492851       -13.4111
  51   2.0000      -0.475792       -12.9470
  52   2.0000      -0.468507       -12.7487
  53   2.0000      -0.461924       -12.5696
  54   2.0000      -0.459146       -12.4940
  55   2.0000      -0.449432       -12.2297
  56   2.0000      -0.441503       -12.0139
  57   2.0000      -0.438444       -11.9307
  58   2.0000      -0.432558       -11.7705
  59   2.0000      -0.425124       -11.5682
  60   2.0000      -0.420718       -11.4483
  61   2.0000      -0.411027       -11.1846
  62   2.0000      -0.404951       -11.0193
  63   2.0000      -0.349921        -9.5218
  64   2.0000      -0.332908        -9.0589
  65   2.0000      -0.325203        -8.8492
  66   2.0000      -0.292775        -7.9668
  67   0.0000       0.024912         0.6779
  68   0.0000       0.069138         1.8813
  69   0.0000       0.113421         3.0863
  70   0.0000       0.116789         3.1780
  71   0.0000       0.128699         3.5021

MULLIKEN ATOMIC CHARGES
-----------------------
   0 S :    0.106872
   1 C :   -0.074553
   2 C :   -0.150058
   3 C :    0.046652
   4 C :   -0.154726
   5 H :    0.013613
   6 C :    0.086668
   7 H :    0.011087
   8 H :    0.007519
   9 C :   -0.089451
  10 H :    0.031812
  11 H :    0.032029
  12 C :   -0.046760
  13 H :    0.032338
  14 H :    0.045556
  15 H :    0.030047
  16 S :    0.103507
  17 C :   -0.131361
  18 C :   -0.037422
  19 C :   -0.069933
  20 C :   -0.141068
  21 H :    0.013440
  22 C :    0.133411
  23 H :    0.020657
  24 H :    0.005449
  25 C :   -0.044577
  26 H :    0.015200
  27 H :    0.014702
  28 C :   -0.051405
  29 H :    0.037137
  30 H :    0.039258
  31 H :    0.036023
  32 H :    0.033378
  33 H :    0.094959
Sum of atomic charges:   -0.0000000

LOEWDIN ATOMIC CHARGES
----------------------
   0 S :    0.393264
   1 C :   -0.199496
   2 C :   -0.055356
   3 C :   -0.060434
   4 C :   -0.181398
   5 H :    0.025811
   6 C :   -0.038892
   7 H :    0.032442
   8 H :    0.020307
   9 C :   -0.043851
  10 H :    0.029569
  11 H :    0.025703
  12 C :   -0.067341
  13 H :    0.019524
  14 H :    0.033386
  15 H :    0.029387
  16 S :    0.396034
  17 C :   -0.192604
  18 C :   -0.079105
  19 C :   -0.052302
  20 C :   -0.201481
  21 H :    0.030217
  22 C :   -0.019126
  23 H :    0.035059
  24 H :    0.023639
  25 C :   -0.042399
  26 H :    0.023404
  27 H :    0.018774
  28 C :   -0.060964
  29 H :    0.026566
  30 H :    0.031133
  31 H :    0.023755
  32 H :    0.024173
  33 H :    0.052606

  Mayer bond orders larger than 0.100000
B(  0-S ,  1-C ) :   1.1262 B(  0-S ,  4-C ) :   1.1308 B(  1-C ,  2-C ) :   1.6369
B(  1-C , 32-H ) :   0.9641 B(  2-C ,  3-C ) :   1.2257 B(  2-C ,  6-C ) :   1.0434
B(  3-C ,  4-C ) :   1.5941 B(  3-C ,  5-H ) :   0.9858 B(  4-C , 20-C ) :   1.0394
B(  6-C ,  7-H ) :   0.9349 B(  6-C ,  8-H ) :   0.9333 B(  6-C ,  9-C ) :   1.0519
B(  9-C , 10-H ) :   0.9519 B(  9-C , 11-H ) :   0.9567 B(  9-C , 12-C ) :   1.0846
B( 12-C , 13-H ) :   0.9760 B( 12-C , 14-H ) :   0.9730 B( 12-C , 15-H ) :   0.9718
B( 16-S , 17-C ) :   1.1635 B( 16-S , 20-C ) :   1.1448 B( 17-C , 18-C ) :   1.5779
B( 17-C , 20-C ) :   0.1103 B( 17-C , 33-H ) :   0.9549 B( 18-C , 19-C ) :   1.2708
B( 18-C , 21-H ) :   0.9946 B( 19-C , 20-C ) :   1.5514 B( 19-C , 22-C ) :   1.0184
B( 22-C , 23-H ) :   0.9257 B( 22-C , 24-H ) :   0.9307 B( 22-C , 25-C ) :   1.0877
B( 25-C , 26-H ) :   0.9527 B( 25-C , 27-H ) :   0.9485 B( 25-C , 28-C ) :   1.0757
B( 28-C , 29-H ) :   0.9752 B( 28-C , 30-H ) :   0.9718 B( 28-C , 31-H ) :   0.9765

Dispersion correction           -0.014360125
FINAL SINGLE POINT ENERGY     -1339.874742280981

DIPOLE MOMENT
-------------
                                X             Y             Z
Electronic contribution:      2.85105       1.85988      21.19629
Nuclear contribution   :     -2.80992      -2.25851     -21.73382
                        -----------------------------------------
Total Dipole Moment    :      0.04113      -0.39863      -0.53753
                        -----------------------------------------
Magnitude (a.u.)       :      0.67047
Magnitude (Debye)      :      1.70421

Rotational constants in cm-1:     0.019253     0.007682     0.007295
Rotational constants in MHz :   577.199839   230.302966   218.712441

                             ****ORCA TERMINATED NORMALLY****
TOTAL RUN TIME: 0 days 0 hours 0 minutes 21 seconds 579 msec
