                         Program Version 4.2.1 -  RELEASE  -
|  1> ! wB97X-D3 SP def2-SVP
|  2> %pal
|  3> nprocs 24
|  4> end
|  5>
|  6> * xyz 0 1
|  7> S 	 -70.6467 	 18.4133 	 -108.057
|  8> C 	 -69.3335 	 18.9784 	 -107.035
|  9> C 	 -68.481 	 19.8136 	 -107.708
| 10> C 	 -68.7353 	 19.9641 	 -109.139
| 11> C 	 -69.894 	 19.2294 	 -109.471
| 12> H 	 -68.2595 	 20.6027 	 -109.908
| 13> C 	 -67.4378 	 20.6623 	 -107.007
| 14> H 	 -67.9619 	 21.0896 	 -106.171
| 15> H 	 -67.201 	 21.4468 	 -107.777
| 16> C 	 -66.2745 	 19.9218 	 -106.51
| 17> H 	 -66.5754 	 19.1123 	 -105.852
| 18> H 	 -65.9341 	 19.3215 	 -107.382
| 19> C 	 -65.1303 	 20.8524 	 -106.047
| 20> H 	 -64.1671 	 20.3206 	 -106.043
| 21> H 	 -65.0833 	 21.7975 	 -106.583
| 22> H 	 -65.2911 	 21.1847 	 -104.97
| 23> S 	 -70.892 	 20.8901 	 -111.341
| 24> C 	 -71.5174 	 20.2856 	 -112.842
| 25> C 	 -71.4055 	 18.9312 	 -112.925
| 26> C 	 -70.813 	 18.3655 	 -111.796
| 27> C 	 -70.4468 	 19.2812 	 -110.827
| 28> H 	 -71.7296 	 18.3354 	 -113.752
| 29> C 	 -70.7424 	 16.8478 	 -111.667
| 30> H 	 -71.5267 	 16.3604 	 -112.242
| 31> H 	 -71.022 	 16.6329 	 -110.62
| 32> C 	 -69.4073 	 16.1772 	 -112.007
| 33> H 	 -69.0175 	 16.2782 	 -113.073
| 34> H 	 -69.384 	 15.11 	 -111.928
| 35> C 	 -68.232 	 16.6854 	 -111.14
| 36> H 	 -68.516 	 16.4971 	 -110.089
| 37> H 	 -67.8431 	 17.7128 	 -111.173
| 38> H 	 -67.3422 	 16.0658 	 -111.302
| 39> H 	 -69.1722 	 18.795 	 -105.986
| 40> H 	 -71.9799 	 20.747 	 -113.669
| 41> *
| 42>
| 43>                          ****END OF INPUT****

CARTESIAN COORDINATES (ANGSTROEM)
---------------------------------
  S    -70.646700   18.413300  -108.057000
  C    -69.333500   18.978400  -107.035000
  C    -68.481000   19.813600  -107.708000
  C    -68.735300   19.964100  -109.139000
  C    -69.894000   19.229400  -109.471000
  H    -68.259500   20.602700  -109.908000
  C    -67.437800   20.662300  -107.007000
  H    -67.961900   21.089600  -106.171000
  H    -67.201000   21.446800  -107.777000
  C    -66.274500   19.921800  -106.510000
  H    -66.575400   19.112300  -105.852000
  H    -65.934100   19.321500  -107.382000
  C    -65.130300   20.852400  -106.047000
  H    -64.167100   20.320600  -106.043000
  H    -65.083300   21.797500  -106.583000
  H    -65.291100   21.184700  -104.970000
  S    -70.892000   20.890100  -111.341000
  C    -71.517400   20.285600  -112.842000
  C    -71.405500   18.931200  -112.925000
  C    -70.813000   18.365500  -111.796000
  C    -70.446800   19.281200  -110.827000
  H    -71.729600   18.335400  -113.752000
  C    -70.742400   16.847800  -111.667000
  H    -71.526700   16.360400  -112.242000
  H    -71.022000   16.632900  -110.620000
  C    -69.407300   16.177200  -112.007000
  H    -69.017500   16.278200  -113.073000
  H    -69.384000   15.110000  -111.928000
  C    -68.232000   16.685400  -111.140000
  H    -68.516000   16.497100  -110.089000
  H    -67.843100   17.712800  -111.173000
  H    -67.342200   16.065800  -111.302000
  H    -69.172200   18.795000  -105.986000
  H    -71.979900   20.747000  -113.669000

 Total Charge           Charge          ....    0
 Multiplicity           Mult            ....    1
 Number of Electrons    NEL             ....  134
 Basis Dimension        Dim             ....  322

ORBITAL ENERGIES
----------------

  NO   OCC          E(Eh)            E(eV)
   0   2.0000     -88.973219     -2421.0844
   1   2.0000     -88.967835     -2420.9379
   2   2.0000     -10.337155      -281.2883
   3   2.0000     -10.324453      -280.9427
   4   2.0000     -10.312292      -280.6117
   5   2.0000     -10.309686      -280.5408
   6   2.0000     -10.303747      -280.3792
   7   2.0000     -10.300576      -280.2929
   8   2.0000     -10.297836      -280.2184
   9   2.0000     -10.291805      -280.0542
  10   2.0000     -10.287267      -279.9308
  11   2.0000     -10.286152      -279.9004
  12   2.0000     -10.285251      -279.8759
  13   2.0000     -10.284169      -279.8465
  14   2.0000     -10.284080      -279.8440
  15   2.0000     -10.268647      -279.4241
  16   2.0000      -8.086257      -220.0383
  17   2.0000      -8.082526      -219.9367
  18   2.0000      -6.044964      -164.4918
  19   2.0000      -6.041083      -164.3862
  20   2.0000      -6.041050      -164.3853
  21   2.0000      -6.036916      -164.2728
  22   2.0000      -6.036835      -164.2706
  23   2.0000      -6.033380      -164.1766
  24   2.0000      -1.007750       -27.4223
  25   2.0000      -0.982347       -26.7310
  26   2.0000      -0.917596       -24.9691
  27   2.0000      -0.903213       -24.5777
  28   2.0000      -0.872902       -23.7529
  29   2.0000      -0.847680       -23.0665
  30   2.0000      -0.843092       -22.9417
  31   2.0000      -0.813569       -22.1383
  32   2.0000      -0.779421       -21.2091
  33   2.0000      -0.769261       -20.9327
  34   2.0000      -0.708182       -19.2706
  35   2.0000      -0.701698       -19.0942
  36   2.0000      -0.691732       -18.8230
  37   2.0000      -0.667635       -18.1673
  38   2.0000      -0.638441       -17.3729
  39   2.0000      -0.610262       -16.6061
  40   2.0000      -0.591493       -16.0953
  41   2.0000      -0.572505       -15.5787
  42   2.0000      -0.561321       -15.2743
  43   2.0000      -0.546152       -14.8615
  44   2.0000      -0.539764       -14.6877
  45   2.0000      -0.524020       -14.2593
  46   2.0000      -0.512242       -13.9388
  47   2.0000      -0.507166       -13.8007
  48   2.0000      -0.501368       -13.6429
  49   2.0000      -0.500624       -13.6227
  50   2.0000      -0.494565       -13.4578
  51   2.0000      -0.476307       -12.9610
  52   2.0000      -0.469860       -12.7855
  53   2.0000      -0.463400       -12.6098
  54   2.0000      -0.455028       -12.3819
  55   2.0000      -0.451314       -12.2809
  56   2.0000      -0.447057       -12.1650
  57   2.0000      -0.442408       -12.0385
  58   2.0000      -0.430542       -11.7156
  59   2.0000      -0.423767       -11.5313
  60   2.0000      -0.416954       -11.3459
  61   2.0000      -0.404802       -11.0152
  62   2.0000      -0.399727       -10.8771
  63   2.0000      -0.341014        -9.2795
  64   2.0000      -0.336552        -9.1580
  65   2.0000      -0.327830        -8.9207
  66   2.0000      -0.296705        -8.0737
  67   0.0000       0.032158         0.8751
  68   0.0000       0.062696         1.7060
  69   0.0000       0.101538         2.7630
  70   0.0000       0.118220         3.2169
  71   0.0000       0.126478         3.4416

MULLIKEN ATOMIC CHARGES
-----------------------
   0 S :    0.121311
   1 C :   -0.114160
   2 C :   -0.104652
   3 C :    0.001928
   4 C :   -0.127882
   5 H :    0.042464
   6 C :    0.070974
   7 H :    0.026353
   8 H :    0.028072
   9 C :   -0.077696
  10 H :    0.024830
  11 H :    0.023304
  12 C :   -0.046130
  13 H :    0.044494
  14 H :    0.034226
  15 H :    0.032678
  16 S :    0.121793
  17 C :   -0.049828
  18 C :   -0.047274
  19 C :   -0.017619
  20 C :   -0.201972
  21 H :    0.008368
  22 C :    0.084850
  23 H :    0.018450
  24 H :    0.022773
  25 C :   -0.055961
  26 H :    0.027365
  27 H :    0.023947
  28 C :   -0.083402
  29 H :    0.025797
  30 H :    0.045220
  31 H :    0.021970
  32 H :    0.042571
  33 H :    0.032840
Sum of atomic charges:    0.0000000

LOEWDIN ATOMIC CHARGES
----------------------
   0 S :    0.389780
   1 C :   -0.202675
   2 C :   -0.058059
   3 C :   -0.066615
   4 C :   -0.178110
   5 H :    0.039711
   6 C :   -0.034967
   7 H :    0.027899
   8 H :    0.035087
   9 C :   -0.051619
  10 H :    0.024151
  11 H :    0.027693
  12 C :   -0.069178
  13 H :    0.029879
  14 H :    0.026153
  15 H :    0.031007
  16 S :    0.428229
  17 C :   -0.187219
  18 C :   -0.068033
  19 C :   -0.057151
  20 C :   -0.201680
  21 H :    0.029831
  22 C :   -0.030726
  23 H :    0.029642
  24 H :    0.030031
  25 C :   -0.044747
  26 H :    0.028326
  27 H :    0.023135
  28 C :   -0.077140
  29 H :    0.023182
  30 H :    0.025725
  31 H :    0.023875
  32 H :    0.028937
  33 H :    0.025644

  Mayer bond orders larger than 0.100000
B(  0-S ,  1-C ) :   1.1105 B(  0-S ,  4-C ) :   1.1367 B(  1-C ,  2-C ) :   1.6517
B(  1-C , 32-H ) :   0.9643 B(  2-C ,  3-C ) :   1.2116 B(  2-C ,  6-C ) :   1.0079
B(  3-C ,  4-C ) :   1.5759 B(  3-C ,  5-H ) :   0.9842 B(  4-C , 20-C ) :   1.0387
B(  6-C ,  7-H ) :   0.9352 B(  6-C ,  8-H ) :   0.9417 B(  6-C ,  9-C ) :   1.0742
B(  9-C , 10-H ) :   0.9530 B(  9-C , 11-H ) :   0.9530 B(  9-C , 12-C ) :   1.0687
B( 12-C , 13-H ) :   0.9767 B( 12-C , 14-H ) :   0.9753 B( 12-C , 15-H ) :   0.9731
B( 16-S , 17-C ) :   1.1544 B( 16-S , 20-C ) :   1.1470 B( 17-C , 18-C ) :   1.5968
B( 17-C , 33-H ) :   0.9666 B( 18-C , 19-C ) :   1.2811 B( 18-C , 21-H ) :   0.9893
B( 19-C , 20-C ) :   1.5808 B( 19-C , 22-C ) :   1.0261 B( 22-C , 23-H ) :   0.9365
B( 22-C , 24-H ) :   0.9369 B( 22-C , 25-C ) :   1.0715 B( 25-C , 26-H ) :   0.9550
B( 25-C , 27-H ) :   0.9542 B( 25-C , 28-C ) :   1.0753 B( 28-C , 29-H ) :   0.9733
B( 28-C , 30-H ) :   0.9756 B( 28-C , 31-H ) :   0.9728

Dispersion correction           -0.015205947
FINAL SINGLE POINT ENERGY     -1339.873019247437

DIPOLE MOMENT
-------------
                                X             Y             Z
Electronic contribution:    -21.15779       6.75370      -5.57896
Nuclear contribution   :     21.40116      -6.83774       5.54698
                        -----------------------------------------
Total Dipole Moment    :      0.24337      -0.08404      -0.03197
                        -----------------------------------------
Magnitude (a.u.)       :      0.25945
Magnitude (Debye)      :      0.65948

Rotational constants in cm-1:     0.021986     0.007822     0.007089
Rotational constants in MHz :   659.111314   234.508296   212.528667

                             ****ORCA TERMINATED NORMALLY****
TOTAL RUN TIME: 0 days 0 hours 0 minutes 20 seconds 885 msec
