                         Program Version 4.2.1 -  RELEASE  -
|  1> ! wB97X-D3 SP def2-SVP
|  2> %pal
|  3> nprocs 24
|  4> end
|  5>
|  6> * xyz 0 1
|  7> S 	 18.7949 	 -20.3546 	 -123.132
|  8> C 	 18.8499 	 -20.5956 	 -124.805
|  9> C 	 19.731 	 -19.7982 	 -125.502
| 10> C 	 20.3211 	 -18.9071 	 -124.607
| 11> C 	 20.0047 	 -19.0862 	 -123.254
| 12> H 	 20.9939 	 -18.1329 	 -125.024
| 13> C 	 19.8742 	 -19.6476 	 -126.984
| 14> H 	 20.1167 	 -18.5527 	 -127.3
| 15> H 	 18.9049 	 -19.7365 	 -127.396
| 16> C 	 20.8259 	 -20.5627 	 -127.708
| 17> H 	 21.7599 	 -20.5153 	 -127.244
| 18> H 	 20.5888 	 -21.5868 	 -127.539
| 19> C 	 21.1148 	 -20.0832 	 -129.11
| 20> H 	 20.3814 	 -20.2742 	 -129.81
| 21> H 	 21.3701 	 -18.9684 	 -129.071
| 22> H 	 22.0725 	 -20.4502 	 -129.499
| 23> S 	 19.4179 	 -17.146 	 -121.355
| 24> C 	 20.6334 	 -16.6467 	 -120.173
| 25> C 	 21.8593 	 -17.2129 	 -120.512
| 26> C 	 21.7854 	 -18.1277 	 -121.595
| 27> C 	 20.4919 	 -18.3042 	 -122.082
| 28> H 	 22.7476 	 -16.9896 	 -119.98
| 29> C 	 22.9761 	 -18.8633 	 -122.117
| 30> H 	 23.787 	 -18.4847 	 -121.451
| 31> H 	 23.2937 	 -18.6183 	 -123.142
| 32> C 	 23.0513 	 -20.428 	 -122.092
| 33> H 	 22.4599 	 -20.7387 	 -123.03
| 34> H 	 22.5359 	 -20.8329 	 -121.275
| 35> C 	 24.4416 	 -20.9472 	 -122.125
| 36> H 	 24.9638 	 -20.6695 	 -123.03
| 37> H 	 24.3783 	 -21.9453 	 -121.893
| 38> H 	 25.036 	 -20.4154 	 -121.378
| 39> H 	 18.1273 	 -21.1818 	 -125.344
| 40> H 	 20.5302 	 -15.9899 	 -119.362
| 41> *
| 42>
| 43>                          ****END OF INPUT****

CARTESIAN COORDINATES (ANGSTROEM)
---------------------------------
  S     18.794900  -20.354600  -123.132000
  C     18.849900  -20.595600  -124.805000
  C     19.731000  -19.798200  -125.502000
  C     20.321100  -18.907100  -124.607000
  C     20.004700  -19.086200  -123.254000
  H     20.993900  -18.132900  -125.024000
  C     19.874200  -19.647600  -126.984000
  H     20.116700  -18.552700  -127.300000
  H     18.904900  -19.736500  -127.396000
  C     20.825900  -20.562700  -127.708000
  H     21.759900  -20.515300  -127.244000
  H     20.588800  -21.586800  -127.539000
  C     21.114800  -20.083200  -129.110000
  H     20.381400  -20.274200  -129.810000
  H     21.370100  -18.968400  -129.071000
  H     22.072500  -20.450200  -129.499000
  S     19.417900  -17.146000  -121.355000
  C     20.633400  -16.646700  -120.173000
  C     21.859300  -17.212900  -120.512000
  C     21.785400  -18.127700  -121.595000
  C     20.491900  -18.304200  -122.082000
  H     22.747600  -16.989600  -119.980000
  C     22.976100  -18.863300  -122.117000
  H     23.787000  -18.484700  -121.451000
  H     23.293700  -18.618300  -123.142000
  C     23.051300  -20.428000  -122.092000
  H     22.459900  -20.738700  -123.030000
  H     22.535900  -20.832900  -121.275000
  C     24.441600  -20.947200  -122.125000
  H     24.963800  -20.669500  -123.030000
  H     24.378300  -21.945300  -121.893000
  H     25.036000  -20.415400  -121.378000
  H     18.127300  -21.181800  -125.344000
  H     20.530200  -15.989900  -119.362000

 Total Charge           Charge          ....    0
 Multiplicity           Mult            ....    1
 Number of Electrons    NEL             ....  134
 Basis Dimension        Dim             ....  322

ORBITAL ENERGIES
----------------

  NO   OCC          E(Eh)            E(eV)
   0   2.0000     -88.970618     -2421.0136
   1   2.0000     -88.964764     -2420.8543
   2   2.0000     -10.331058      -281.1224
   3   2.0000     -10.324669      -280.9485
   4   2.0000     -10.316448      -280.7248
   5   2.0000     -10.309585      -280.5381
   6   2.0000     -10.299445      -280.2622
   7   2.0000     -10.294347      -280.1234
   8   2.0000     -10.293507      -280.1006
   9   2.0000     -10.293039      -280.0878
  10   2.0000     -10.291512      -280.0463
  11   2.0000     -10.288480      -279.9638
  12   2.0000     -10.279248      -279.7126
  13   2.0000     -10.278400      -279.6895
  14   2.0000     -10.276792      -279.6457
  15   2.0000     -10.265568      -279.3403
  16   2.0000      -8.086010      -220.0315
  17   2.0000      -8.079247      -219.8475
  18   2.0000      -6.044267      -164.4729
  19   2.0000      -6.040318      -164.3654
  20   2.0000      -6.037731      -164.2950
  21   2.0000      -6.037107      -164.2780
  22   2.0000      -6.033693      -164.1851
  23   2.0000      -6.030136      -164.0883
  24   2.0000      -1.008518       -27.4432
  25   2.0000      -0.987850       -26.8808
  26   2.0000      -0.920308       -25.0428
  27   2.0000      -0.906993       -24.6805
  28   2.0000      -0.868613       -23.6362
  29   2.0000      -0.856841       -23.3158
  30   2.0000      -0.854403       -23.2495
  31   2.0000      -0.813770       -22.1438
  32   2.0000      -0.782634       -21.2966
  33   2.0000      -0.768751       -20.9188
  34   2.0000      -0.711285       -19.3550
  35   2.0000      -0.705243       -19.1906
  36   2.0000      -0.687741       -18.7144
  37   2.0000      -0.664855       -18.0916
  38   2.0000      -0.640343       -17.4246
  39   2.0000      -0.626163       -17.0388
  40   2.0000      -0.600474       -16.3397
  41   2.0000      -0.576527       -15.6881
  42   2.0000      -0.565764       -15.3952
  43   2.0000      -0.556098       -15.1322
  44   2.0000      -0.534807       -14.5528
  45   2.0000      -0.528056       -14.3691
  46   2.0000      -0.521935       -14.2026
  47   2.0000      -0.513263       -13.9666
  48   2.0000      -0.496634       -13.5141
  49   2.0000      -0.495480       -13.4827
  50   2.0000      -0.489723       -13.3260
  51   2.0000      -0.487077       -13.2540
  52   2.0000      -0.466477       -12.6935
  53   2.0000      -0.462086       -12.5740
  54   2.0000      -0.460139       -12.5210
  55   2.0000      -0.453567       -12.3422
  56   2.0000      -0.448229       -12.1969
  57   2.0000      -0.438718       -11.9381
  58   2.0000      -0.431183       -11.7331
  59   2.0000      -0.430824       -11.7233
  60   2.0000      -0.419660       -11.4195
  61   2.0000      -0.414655       -11.2833
  62   2.0000      -0.403235       -10.9726
  63   2.0000      -0.340625        -9.2689
  64   2.0000      -0.332138        -9.0379
  65   2.0000      -0.322734        -8.7820
  66   2.0000      -0.300867        -8.1870
  67   0.0000       0.032182         0.8757
  68   0.0000       0.063307         1.7227
  69   0.0000       0.115471         3.1421
  70   0.0000       0.118944         3.2366
  71   0.0000       0.132668         3.6101

MULLIKEN ATOMIC CHARGES
-----------------------
   0 S :    0.143794
   1 C :   -0.107485
   2 C :   -0.071620
   3 C :    0.036369
   4 C :   -0.193373
   5 H :    0.018516
   6 C :    0.019243
   7 H :    0.027562
   8 H :    0.012673
   9 C :   -0.002638
  10 H :    0.001032
  11 H :    0.017765
  12 C :   -0.040699
  13 H :    0.027374
  14 H :    0.028950
  15 H :    0.027188
  16 S :    0.112149
  17 C :   -0.068894
  18 C :   -0.026274
  19 C :   -0.013414
  20 C :   -0.148649
  21 H :    0.006431
  22 C :    0.034478
  23 H :    0.001524
  24 H :    0.031436
  25 C :   -0.082700
  26 H :    0.046589
  27 H :    0.015513
  28 C :    0.010982
  29 H :    0.022498
  30 H :    0.026393
  31 H :    0.012556
  32 H :    0.037108
  33 H :    0.037621
Sum of atomic charges:   -0.0000000

LOEWDIN ATOMIC CHARGES
----------------------
   0 S :    0.443253
   1 C :   -0.206481
   2 C :   -0.075629
   3 C :   -0.053773
   4 C :   -0.209964
   5 H :    0.035112
   6 C :   -0.033480
   7 H :    0.038686
   8 H :    0.023958
   9 C :   -0.041583
  10 H :    0.020226
  11 H :    0.022739
  12 C :   -0.058594
  13 H :    0.011942
  14 H :    0.035364
  15 H :    0.028509
  16 S :    0.412013
  17 C :   -0.173654
  18 C :   -0.064353
  19 C :   -0.059977
  20 C :   -0.207784
  21 H :    0.025610
  22 C :   -0.038614
  23 H :    0.025844
  24 H :    0.031952
  25 C :   -0.037664
  26 H :    0.033519
  27 H :    0.013864
  28 C :   -0.055187
  29 H :    0.025060
  30 H :    0.019898
  31 H :    0.024450
  32 H :    0.023545
  33 H :    0.021194

  Mayer bond orders larger than 0.100000
B(  0-S ,  1-C ) :   1.1846 B(  0-S ,  4-C ) :   1.1639 B(  1-C ,  2-C ) :   1.5686
B(  1-C ,  4-C ) :   0.1026 B(  1-C , 32-H ) :   0.9601 B(  2-C ,  3-C ) :   1.3140
B(  2-C ,  6-C ) :   1.0090 B(  3-C ,  4-C ) :   1.5296 B(  3-C ,  5-H ) :   0.9908
B(  4-C , 20-C ) :   1.0146 B(  6-C ,  7-H ) :   0.9481 B(  6-C ,  8-H ) :   0.9366
B(  6-C ,  9-C ) :   1.0634 B(  9-C , 10-H ) :   0.9469 B(  9-C , 11-H ) :   0.9492
B(  9-C , 12-C ) :   1.0813 B( 12-C , 13-H ) :   0.9801 B( 12-C , 14-H ) :   0.9681
B( 12-C , 15-H ) :   0.9742 B( 16-S , 17-C ) :   1.1612 B( 16-S , 20-C ) :   1.1594
B( 17-C , 18-C ) :   1.5800 B( 17-C , 20-C ) :   0.1034 B( 17-C , 33-H ) :   0.9742
B( 18-C , 19-C ) :   1.2788 B( 18-C , 21-H ) :   0.9899 B( 19-C , 20-C ) :   1.5646
B( 19-C , 22-C ) :   1.0495 B( 22-C , 23-H ) :   0.9369 B( 22-C , 24-H ) :   0.9284
B( 22-C , 25-C ) :   1.0572 B( 25-C , 26-H ) :   0.9472 B( 25-C , 27-H ) :   0.9603
B( 25-C , 28-C ) :   1.0955 B( 28-C , 29-H ) :   0.9713 B( 28-C , 30-H ) :   0.9712
B( 28-C , 31-H ) :   0.9691

Dispersion correction           -0.014089500
FINAL SINGLE POINT ENERGY     -1339.862880514645

DIPOLE MOMENT
-------------
                                X             Y             Z
Electronic contribution:    -20.23524       8.99270      19.33059
Nuclear contribution   :     20.65553      -9.01641     -19.73478
                        -----------------------------------------
Total Dipole Moment    :      0.42028      -0.02371      -0.40418
                        -----------------------------------------
Magnitude (a.u.)       :      0.58358
Magnitude (Debye)      :      1.48334

Rotational constants in cm-1:     0.018187     0.008255     0.006811
Rotational constants in MHz :   545.234677   247.470583   204.178379

                             ****ORCA TERMINATED NORMALLY****
TOTAL RUN TIME: 0 days 0 hours 0 minutes 21 seconds 565 msec
