                         Program Version 4.2.1 -  RELEASE  -
|  1> ! wB97X-D3 SP def2-SVP
|  2> %pal
|  3> nprocs 24
|  4> end
|  5>
|  6> * xyz 0 1
|  7> S 	 -96.7448 	 40.1634 	 -87.4535
|  8> C 	 -96.6893 	 38.6866 	 -86.542
|  9> C 	 -97.9683 	 38.2912 	 -86.1207
| 10> C 	 -98.9631 	 39.162 	 -86.7125
| 11> C 	 -98.4817 	 40.1898 	 -87.5003
| 12> H 	 -100.03 	 39.0533 	 -86.5392
| 13> C 	 -98.3133 	 37.0632 	 -85.2966
| 14> H 	 -98.1168 	 36.0585 	 -85.773
| 15> H 	 -99.4248 	 37.0527 	 -85.2888
| 16> C 	 -97.7089 	 37.019 	 -83.8597
| 17> H 	 -96.5883 	 36.8295 	 -83.9045
| 18> H 	 -97.8489 	 38.0587 	 -83.497
| 19> C 	 -98.2196 	 35.8947 	 -82.9869
| 20> H 	 -99.2409 	 35.9376 	 -82.9008
| 21> H 	 -98.15 	 34.8747 	 -83.3928
| 22> H 	 -97.8701 	 36.0047 	 -81.9249
| 23> S 	 -98.7386 	 42.9347 	 -87.9494
| 24> C 	 -100.023 	 43.4321 	 -88.9346
| 25> C 	 -100.769 	 42.434 	 -89.5222
| 26> C 	 -100.392 	 41.1588 	 -89.0348
| 27> C 	 -99.1984 	 41.1773 	 -88.2844
| 28> H 	 -101.532 	 42.7581 	 -90.2298
| 29> C 	 -101.091 	 39.8993 	 -89.5185
| 30> H 	 -100.442 	 39.093 	 -89.2767
| 31> H 	 -101.018 	 39.8281 	 -90.5869
| 32> C 	 -102.563 	 39.7339 	 -88.9853
| 33> H 	 -103.038 	 40.6957 	 -89.1919
| 34> H 	 -102.542 	 39.6054 	 -87.8933
| 35> C 	 -103.288 	 38.6846 	 -89.8647
| 36> H 	 -102.843 	 37.6651 	 -89.7839
| 37> H 	 -103.312 	 38.9326 	 -90.9267
| 38> H 	 -104.33 	 38.5412 	 -89.6017
| 39> H 	 -95.8828 	 38.1157 	 -86.1796
| 40> H 	 -100.239 	 44.4846 	 -89.0874
| 41> *
| 42>
| 43>                          ****END OF INPUT****

CARTESIAN COORDINATES (ANGSTROEM)
---------------------------------
  S    -96.744800   40.163400  -87.453500
  C    -96.689300   38.686600  -86.542000
  C    -97.968300   38.291200  -86.120700
  C    -98.963100   39.162000  -86.712500
  C    -98.481700   40.189800  -87.500300
  H    -100.030000   39.053300  -86.539200
  C    -98.313300   37.063200  -85.296600
  H    -98.116800   36.058500  -85.773000
  H    -99.424800   37.052700  -85.288800
  C    -97.708900   37.019000  -83.859700
  H    -96.588300   36.829500  -83.904500
  H    -97.848900   38.058700  -83.497000
  C    -98.219600   35.894700  -82.986900
  H    -99.240900   35.937600  -82.900800
  H    -98.150000   34.874700  -83.392800
  H    -97.870100   36.004700  -81.924900
  S    -98.738600   42.934700  -87.949400
  C    -100.023000   43.432100  -88.934600
  C    -100.769000   42.434000  -89.522200
  C    -100.392000   41.158800  -89.034800
  C    -99.198400   41.177300  -88.284400
  H    -101.532000   42.758100  -90.229800
  C    -101.091000   39.899300  -89.518500
  H    -100.442000   39.093000  -89.276700
  H    -101.018000   39.828100  -90.586900
  C    -102.563000   39.733900  -88.985300
  H    -103.038000   40.695700  -89.191900
  H    -102.542000   39.605400  -87.893300
  C    -103.288000   38.684600  -89.864700
  H    -102.843000   37.665100  -89.783900
  H    -103.312000   38.932600  -90.926700
  H    -104.330000   38.541200  -89.601700
  H    -95.882800   38.115700  -86.179600
  H    -100.239000   44.484600  -89.087400

 Total Charge           Charge          ....    0
 Multiplicity           Mult            ....    1
 Number of Electrons    NEL             ....  134
 Basis Dimension        Dim             ....  322

ORBITAL ENERGIES
----------------

  NO   OCC          E(Eh)            E(eV)
   0   2.0000     -88.967368     -2420.9252
   1   2.0000     -88.965432     -2420.8725
   2   2.0000     -10.333993      -281.2022
   3   2.0000     -10.328652      -281.0569
   4   2.0000     -10.314444      -280.6703
   5   2.0000     -10.311328      -280.5855
   6   2.0000     -10.309837      -280.5449
   7   2.0000     -10.303454      -280.3712
   8   2.0000     -10.300479      -280.2903
   9   2.0000     -10.296065      -280.1702
  10   2.0000     -10.295273      -280.1486
  11   2.0000     -10.294697      -280.1329
  12   2.0000     -10.292428      -280.0712
  13   2.0000     -10.286552      -279.9113
  14   2.0000     -10.283477      -279.8276
  15   2.0000     -10.276883      -279.6482
  16   2.0000      -8.082284      -219.9301
  17   2.0000      -8.080186      -219.8730
  18   2.0000      -6.040867      -164.3803
  19   2.0000      -6.038544      -164.3171
  20   2.0000      -6.036664      -164.2660
  21   2.0000      -6.034799      -164.2152
  22   2.0000      -6.033052      -164.1677
  23   2.0000      -6.030992      -164.1116
  24   2.0000      -1.004188       -27.3253
  25   2.0000      -0.983158       -26.7531
  26   2.0000      -0.908459       -24.7204
  27   2.0000      -0.906248       -24.6603
  28   2.0000      -0.869013       -23.6471
  29   2.0000      -0.853266       -23.2186
  30   2.0000      -0.846108       -23.0238
  31   2.0000      -0.811713       -22.0878
  32   2.0000      -0.784552       -21.3487
  33   2.0000      -0.771179       -20.9848
  34   2.0000      -0.710743       -19.3403
  35   2.0000      -0.704960       -19.1829
  36   2.0000      -0.697327       -18.9752
  37   2.0000      -0.657539       -17.8926
  38   2.0000      -0.637638       -17.3510
  39   2.0000      -0.617281       -16.7971
  40   2.0000      -0.597058       -16.2468
  41   2.0000      -0.570759       -15.5311
  42   2.0000      -0.558695       -15.2029
  43   2.0000      -0.556654       -15.1473
  44   2.0000      -0.525872       -14.3097
  45   2.0000      -0.522651       -14.2220
  46   2.0000      -0.520608       -14.1665
  47   2.0000      -0.513301       -13.9676
  48   2.0000      -0.503141       -13.6912
  49   2.0000      -0.500746       -13.6260
  50   2.0000      -0.490583       -13.3494
  51   2.0000      -0.475546       -12.9403
  52   2.0000      -0.469238       -12.7686
  53   2.0000      -0.460954       -12.5432
  54   2.0000      -0.457087       -12.4380
  55   2.0000      -0.453677       -12.3452
  56   2.0000      -0.450603       -12.2615
  57   2.0000      -0.440398       -11.9839
  58   2.0000      -0.432461       -11.7679
  59   2.0000      -0.427599       -11.6355
  60   2.0000      -0.421052       -11.4574
  61   2.0000      -0.417488       -11.3604
  62   2.0000      -0.406145       -11.0518
  63   2.0000      -0.349154        -9.5010
  64   2.0000      -0.334653        -9.1064
  65   2.0000      -0.329402        -8.9635
  66   2.0000      -0.285829        -7.7778
  67   0.0000       0.028257         0.7689
  68   0.0000       0.063175         1.7191
  69   0.0000       0.110362         3.0031
  70   0.0000       0.119609         3.2547
  71   0.0000       0.127597         3.4721

MULLIKEN ATOMIC CHARGES
-----------------------
   0 S :    0.119481
   1 C :   -0.072197
   2 C :   -0.114179
   3 C :    0.025024
   4 C :   -0.148977
   5 H :    0.007273
   6 C :    0.029770
   7 H :    0.042575
   8 H :    0.016700
   9 C :   -0.106152
  10 H :    0.040441
  11 H :    0.044742
  12 C :   -0.015774
  13 H :   -0.003888
  14 H :    0.030026
  15 H :    0.047739
  16 S :    0.094004
  17 C :   -0.088898
  18 C :   -0.033473
  19 C :   -0.033992
  20 C :   -0.132828
  21 H :    0.026320
  22 C :    0.057205
  23 H :    0.008244
  24 H :    0.022386
  25 C :   -0.058644
  26 H :    0.030007
  27 H :    0.042101
  28 C :   -0.058317
  29 H :    0.035668
  30 H :    0.034601
  31 H :    0.030890
  32 H :    0.025695
  33 H :    0.056426
Sum of atomic charges:   -0.0000000

LOEWDIN ATOMIC CHARGES
----------------------
   0 S :    0.422168
   1 C :   -0.193753
   2 C :   -0.066016
   3 C :   -0.065777
   4 C :   -0.206283
   5 H :    0.028465
   6 C :   -0.043632
   7 H :    0.035839
   8 H :    0.029926
   9 C :   -0.047279
  10 H :    0.028785
  11 H :    0.030197
  12 C :   -0.072641
  13 H :    0.011227
  14 H :    0.031580
  15 H :    0.038809
  16 S :    0.389730
  17 C :   -0.189144
  18 C :   -0.081854
  19 C :   -0.043080
  20 C :   -0.176017
  21 H :    0.037432
  22 C :   -0.031636
  23 H :    0.024012
  24 H :    0.030631
  25 C :   -0.032651
  26 H :    0.024575
  27 H :    0.027860
  28 C :   -0.070937
  29 H :    0.028724
  30 H :    0.027520
  31 H :    0.023632
  32 H :    0.022086
  33 H :    0.027502

  Mayer bond orders larger than 0.100000
B(  0-S ,  1-C ) :   1.1481 B(  0-S ,  4-C ) :   1.1492 B(  1-C ,  2-C ) :   1.5969
B(  1-C , 32-H ) :   0.9721 B(  2-C ,  3-C ) :   1.2578 B(  2-C ,  6-C ) :   1.0230
B(  3-C ,  4-C ) :   1.5652 B(  3-C ,  5-H ) :   0.9916 B(  4-C , 20-C ) :   1.0378
B(  6-C ,  7-H ) :   0.9392 B(  6-C ,  8-H ) :   0.9440 B(  6-C ,  9-C ) :   1.0466
B(  9-C , 10-H ) :   0.9549 B(  9-C , 11-H ) :   0.9599 B(  9-C , 12-C ) :   1.0815
B( 12-C , 13-H ) :   0.9682 B( 12-C , 14-H ) :   0.9683 B( 12-C , 15-H ) :   0.9710
B( 16-S , 17-C ) :   1.1842 B( 16-S , 20-C ) :   1.1111 B( 17-C , 18-C ) :   1.6117
B( 17-C , 20-C ) :   0.1014 B( 17-C , 33-H ) :   0.9600 B( 18-C , 19-C ) :   1.2144
B( 18-C , 21-H ) :   0.9922 B( 19-C , 20-C ) :   1.6048 B( 19-C , 22-C ) :   1.0410
B( 22-C , 23-H ) :   0.9331 B( 22-C , 24-H ) :   0.9449 B( 22-C , 25-C ) :   1.0351
B( 25-C , 26-H ) :   0.9625 B( 25-C , 27-H ) :   0.9577 B( 25-C , 28-C ) :   1.0717
B( 28-C , 29-H ) :   0.9757 B( 28-C , 30-H ) :   0.9753 B( 28-C , 31-H ) :   0.9751

Dispersion correction           -0.013505654
FINAL SINGLE POINT ENERGY     -1339.871524147479

DIPOLE MOMENT
-------------
                                X             Y             Z
Electronic contribution:     16.48424      23.58042      -7.23281
Nuclear contribution   :    -17.10417     -23.96324       7.24936
                        -----------------------------------------
Total Dipole Moment    :     -0.61993      -0.38282       0.01655
                        -----------------------------------------
Magnitude (a.u.)       :      0.72880
Magnitude (Debye)      :      1.85245

Rotational constants in cm-1:     0.017626     0.007824     0.005919
Rotational constants in MHz :   528.414251   234.545514   177.461831

                             ****ORCA TERMINATED NORMALLY****
TOTAL RUN TIME: 0 days 0 hours 0 minutes 20 seconds 715 msec
