                         Program Version 4.2.1 -  RELEASE  -
|  1> ! wB97X-D3 SP def2-SVP
|  2> %pal
|  3> nprocs 24
|  4> end
|  5>
|  6> * xyz 0 1
|  7> S 	 -0.202295 	 -23.2001 	 -112.619
|  8> C 	 0.150814 	 -21.5393 	 -112.874
|  9> C 	 -0.592496 	 -20.7531 	 -112.026
| 10> C 	 -1.29694 	 -21.5324 	 -111.035
| 11> C 	 -1.19443 	 -22.8901 	 -111.175
| 12> H 	 -1.8765 	 -21.0772 	 -110.231
| 13> C 	 -0.746007 	 -19.2573 	 -112.094
| 14> H 	 -0.266427 	 -19.0228 	 -113.037
| 15> H 	 -0.142884 	 -18.741 	 -111.318
| 16> C 	 -2.14801 	 -18.7365 	 -112.194
| 17> H 	 -2.62803 	 -19.1033 	 -111.265
| 18> H 	 -2.10887 	 -17.6292 	 -112.201
| 19> C 	 -2.98077 	 -19.3344 	 -113.355
| 20> H 	 -2.74239 	 -20.3394 	 -113.504
| 21> H 	 -4.06753 	 -19.2245 	 -113.082
| 22> H 	 -2.80308 	 -18.8409 	 -114.327
| 23> S 	 -0.401564 	 -25.0672 	 -109.826
| 24> C 	 -1.52795 	 -25.8317 	 -108.707
| 25> C 	 -2.70563 	 -25.1476 	 -108.565
| 26> C 	 -2.7797 	 -24.1192 	 -109.568
| 27> C 	 -1.59182 	 -23.8972 	 -110.196
| 28> H 	 -3.426 	 -25.4675 	 -107.855
| 29> C 	 -4.10208 	 -23.3988 	 -109.788
| 30> H 	 -4.03689 	 -22.3591 	 -110.09
| 31> H 	 -4.54474 	 -23.4374 	 -108.805
| 32> C 	 -5.05325 	 -24.2244 	 -110.722
| 33> H 	 -6.03912 	 -23.6518 	 -110.863
| 34> H 	 -5.44853 	 -25.1955 	 -110.28
| 35> C 	 -4.41778 	 -24.6468 	 -112.142
| 36> H 	 -5.13752 	 -25.1302 	 -112.782
| 37> H 	 -3.72652 	 -25.3879 	 -111.947
| 38> H 	 -3.84482 	 -23.8196 	 -112.676
| 39> H 	 0.810444 	 -21.2344 	 -113.65
| 40> H 	 -1.22096 	 -26.6836 	 -108.114
| 41> *
| 42>
| 43>                          ****END OF INPUT****

CARTESIAN COORDINATES (ANGSTROEM)
---------------------------------
  S     -0.202295  -23.200100  -112.619000
  C      0.150814  -21.539300  -112.874000
  C     -0.592496  -20.753100  -112.026000
  C     -1.296940  -21.532400  -111.035000
  C     -1.194430  -22.890100  -111.175000
  H     -1.876500  -21.077200  -110.231000
  C     -0.746007  -19.257300  -112.094000
  H     -0.266427  -19.022800  -113.037000
  H     -0.142884  -18.741000  -111.318000
  C     -2.148010  -18.736500  -112.194000
  H     -2.628030  -19.103300  -111.265000
  H     -2.108870  -17.629200  -112.201000
  C     -2.980770  -19.334400  -113.355000
  H     -2.742390  -20.339400  -113.504000
  H     -4.067530  -19.224500  -113.082000
  H     -2.803080  -18.840900  -114.327000
  S     -0.401564  -25.067200  -109.826000
  C     -1.527950  -25.831700  -108.707000
  C     -2.705630  -25.147600  -108.565000
  C     -2.779700  -24.119200  -109.568000
  C     -1.591820  -23.897200  -110.196000
  H     -3.426000  -25.467500  -107.855000
  C     -4.102080  -23.398800  -109.788000
  H     -4.036890  -22.359100  -110.090000
  H     -4.544740  -23.437400  -108.805000
  C     -5.053250  -24.224400  -110.722000
  H     -6.039120  -23.651800  -110.863000
  H     -5.448530  -25.195500  -110.280000
  C     -4.417780  -24.646800  -112.142000
  H     -5.137520  -25.130200  -112.782000
  H     -3.726520  -25.387900  -111.947000
  H     -3.844820  -23.819600  -112.676000
  H      0.810444  -21.234400  -113.650000
  H     -1.220960  -26.683600  -108.114000

 Total Charge           Charge          ....    0
 Multiplicity           Mult            ....    1
 Number of Electrons    NEL             ....  134
 Basis Dimension        Dim             ....  322

ORBITAL ENERGIES
----------------

  NO   OCC          E(Eh)            E(eV)
   0   2.0000     -88.963937     -2420.8318
   1   2.0000     -88.963746     -2420.8266
   2   2.0000     -10.329856      -281.0897
   3   2.0000     -10.321446      -280.8608
   4   2.0000     -10.316615      -280.7294
   5   2.0000     -10.312764      -280.6246
   6   2.0000     -10.302225      -280.3378
   7   2.0000     -10.301597      -280.3207
   8   2.0000     -10.299677      -280.2685
   9   2.0000     -10.294523      -280.1282
  10   2.0000     -10.294416      -280.1253
  11   2.0000     -10.292830      -280.0821
  12   2.0000     -10.289586      -279.9939
  13   2.0000     -10.287707      -279.9427
  14   2.0000     -10.276169      -279.6288
  15   2.0000     -10.272317      -279.5240
  16   2.0000      -8.079646      -219.8583
  17   2.0000      -8.078787      -219.8350
  18   2.0000      -6.038043      -164.3035
  19   2.0000      -6.037301      -164.2833
  20   2.0000      -6.034126      -164.1969
  21   2.0000      -6.033225      -164.1724
  22   2.0000      -6.030329      -164.0936
  23   2.0000      -6.029540      -164.0721
  24   2.0000      -1.012225       -27.5440
  25   2.0000      -0.989344       -26.9214
  26   2.0000      -0.915542       -24.9132
  27   2.0000      -0.899243       -24.4696
  28   2.0000      -0.874336       -23.7919
  29   2.0000      -0.844257       -22.9734
  30   2.0000      -0.837648       -22.7936
  31   2.0000      -0.816929       -22.2298
  32   2.0000      -0.783488       -21.3198
  33   2.0000      -0.775391       -21.0995
  34   2.0000      -0.708312       -19.2742
  35   2.0000      -0.693240       -18.8640
  36   2.0000      -0.689241       -18.7552
  37   2.0000      -0.667157       -18.1543
  38   2.0000      -0.641832       -17.4651
  39   2.0000      -0.625891       -17.0314
  40   2.0000      -0.594197       -16.1689
  41   2.0000      -0.569183       -15.4883
  42   2.0000      -0.554930       -15.1004
  43   2.0000      -0.545040       -14.8313
  44   2.0000      -0.542253       -14.7555
  45   2.0000      -0.535673       -14.5764
  46   2.0000      -0.514591       -14.0027
  47   2.0000      -0.507557       -13.8113
  48   2.0000      -0.501972       -13.6594
  49   2.0000      -0.496984       -13.5236
  50   2.0000      -0.490449       -13.3458
  51   2.0000      -0.480616       -13.0782
  52   2.0000      -0.467404       -12.7187
  53   2.0000      -0.464631       -12.6433
  54   2.0000      -0.458823       -12.4852
  55   2.0000      -0.448870       -12.2144
  56   2.0000      -0.446383       -12.1467
  57   2.0000      -0.440388       -11.9836
  58   2.0000      -0.434855       -11.8330
  59   2.0000      -0.419745       -11.4218
  60   2.0000      -0.415093       -11.2952
  61   2.0000      -0.411795       -11.2055
  62   2.0000      -0.407584       -11.0909
  63   2.0000      -0.353634        -9.6229
  64   2.0000      -0.332215        -9.0400
  65   2.0000      -0.325873        -8.8674
  66   2.0000      -0.294456        -8.0125
  67   0.0000       0.031534         0.8581
  68   0.0000       0.076572         2.0836
  69   0.0000       0.110342         3.0025
  70   0.0000       0.114847         3.1252
  71   0.0000       0.131356         3.5744

MULLIKEN ATOMIC CHARGES
-----------------------
   0 S :    0.099533
   1 C :   -0.118557
   2 C :   -0.117311
   3 C :    0.018768
   4 C :   -0.139634
   5 H :    0.020508
   6 C :    0.091950
   7 H :   -0.001692
   8 H :    0.047190
   9 C :   -0.086329
  10 H :    0.022563
  11 H :    0.042082
  12 C :   -0.055474
  13 H :    0.035836
  14 H :    0.044297
  15 H :    0.033133
  16 S :    0.109516
  17 C :   -0.097484
  18 C :   -0.012325
  19 C :   -0.075257
  20 C :   -0.141975
  21 H :    0.015843
  22 C :    0.117927
  23 H :    0.029272
  24 H :    0.018597
  25 C :   -0.134981
  26 H :    0.040407
  27 H :    0.034615
  28 C :   -0.047259
  29 H :    0.030779
  30 H :    0.025718
  31 H :    0.050480
  32 H :    0.044508
  33 H :    0.054757
Sum of atomic charges:   -0.0000000

LOEWDIN ATOMIC CHARGES
----------------------
   0 S :    0.397364
   1 C :   -0.195984
   2 C :   -0.069395
   3 C :   -0.062825
   4 C :   -0.186547
   5 H :    0.030598
   6 C :   -0.039794
   7 H :    0.024445
   8 H :    0.036854
   9 C :   -0.042636
  10 H :    0.021346
  11 H :    0.030215
  12 C :   -0.063761
  13 H :    0.018585
  14 H :    0.035127
  15 H :    0.026840
  16 S :    0.415188
  17 C :   -0.171863
  18 C :   -0.062742
  19 C :   -0.056533
  20 C :   -0.209819
  21 H :    0.030717
  22 C :   -0.028527
  23 H :    0.028352
  24 H :    0.032154
  25 C :   -0.045313
  26 H :    0.026870
  27 H :    0.027213
  28 C :   -0.068844
  29 H :    0.024478
  30 H :    0.014821
  31 H :    0.033655
  32 H :    0.024769
  33 H :    0.024990

  Mayer bond orders larger than 0.100000
B(  0-S ,  1-C ) :   1.1434 B(  0-S ,  4-C ) :   1.1369 B(  1-C ,  2-C ) :   1.6015
B(  1-C , 32-H ) :   0.9731 B(  2-C ,  3-C ) :   1.2335 B(  2-C ,  6-C ) :   1.0206
B(  3-C ,  4-C ) :   1.5893 B(  3-C ,  5-H ) :   0.9888 B(  4-C , 20-C ) :   1.0350
B(  6-C ,  7-H ) :   0.9341 B(  6-C ,  8-H ) :   0.9356 B(  6-C ,  9-C ) :   1.0758
B(  9-C , 10-H ) :   0.9565 B(  9-C , 11-H ) :   0.9552 B(  9-C , 12-C ) :   1.0665
B( 12-C , 13-H ) :   0.9763 B( 12-C , 14-H ) :   0.9766 B( 12-C , 15-H ) :   0.9744
B( 16-S , 17-C ) :   1.1505 B( 16-S , 20-C ) :   1.1376 B( 17-C , 18-C ) :   1.6326
B( 17-C , 33-H ) :   0.9665 B( 18-C , 19-C ) :   1.2073 B( 18-C , 21-H ) :   0.9952
B( 19-C , 20-C ) :   1.6288 B( 19-C , 22-C ) :   1.0406 B( 22-C , 23-H ) :   0.9402
B( 22-C , 24-H ) :   0.9286 B( 22-C , 25-C ) :   1.0618 B( 25-C , 26-H ) :   0.9619
B( 25-C , 27-H ) :   0.9580 B( 25-C , 28-C ) :   1.0582 B( 28-C , 29-H ) :   0.9753
B( 28-C , 30-H ) :   0.9733 B( 28-C , 31-H ) :   0.9766

Dispersion correction           -0.015868193
FINAL SINGLE POINT ENERGY     -1339.881462068502

DIPOLE MOMENT
-------------
                                X             Y             Z
Electronic contribution:     19.65751     -14.61872       5.85872
Nuclear contribution   :    -20.02057      14.91687      -5.65933
                        -----------------------------------------
Total Dipole Moment    :     -0.36306       0.29815       0.19939
                        -----------------------------------------
Magnitude (a.u.)       :      0.51035
Magnitude (Debye)      :      1.29721

Rotational constants in cm-1:     0.020392     0.009616     0.007869
Rotational constants in MHz :   611.349785   288.274583   235.897800

                             ****ORCA TERMINATED NORMALLY****
TOTAL RUN TIME: 0 days 0 hours 0 minutes 22 seconds 976 msec
