                         Program Version 4.2.1 -  RELEASE  -
|  1> ! wB97X-D3 SP def2-SVP
|  2> %pal
|  3> nprocs 24
|  4> end
|  5>
|  6> * xyz 0 1
|  7> S 	 -121.44 	 50.1418 	 -32.2278
|  8> C 	 -122.858 	 49.9924 	 -33.1795
|  9> C 	 -123.175 	 51.1421 	 -33.8506
| 10> C 	 -122.509 	 52.2616 	 -33.2601
| 11> C 	 -121.614 	 51.9104 	 -32.2735
| 12> H 	 -122.717 	 53.2898 	 -33.517
| 13> C 	 -124.272 	 51.3397 	 -34.8688
| 14> H 	 -124.55 	 50.3647 	 -35.3215
| 15> H 	 -123.95 	 51.949 	 -35.7674
| 16> C 	 -125.572 	 51.9816 	 -34.3595
| 17> H 	 -125.38 	 53.0276 	 -34.1329
| 18> H 	 -126.254 	 51.9357 	 -35.2179
| 19> C 	 -126.025 	 51.1232 	 -33.125
| 20> H 	 -125.461 	 51.3829 	 -32.2682
| 21> H 	 -127.112 	 51.31 	 -32.874
| 22> H 	 -126.072 	 50.0179 	 -33.0744
| 23> S 	 -119.038 	 52.3655 	 -31.3273
| 24> C 	 -118.755 	 53.7848 	 -30.2888
| 25> C 	 -119.867 	 54.5465 	 -30.2215
| 26> C 	 -120.966 	 53.9866 	 -30.8705
| 27> C 	 -120.729 	 52.7471 	 -31.493
| 28> H 	 -119.841 	 55.5419 	 -29.7722
| 29> C 	 -122.331 	 54.6933 	 -30.8212
| 30> H 	 -122.78 	 54.7523 	 -31.7936
| 31> H 	 -122.041 	 55.6991 	 -30.6498
| 32> C 	 -123.389 	 54.2394 	 -29.7632
| 33> H 	 -123.736 	 53.2263 	 -29.8907
| 34> H 	 -124.296 	 54.9134 	 -29.9152
| 35> C 	 -122.971 	 54.4847 	 -28.2912
| 36> H 	 -123.846 	 54.4724 	 -27.5906
| 37> H 	 -122.388 	 55.3942 	 -28.2195
| 38> H 	 -122.389 	 53.5596 	 -27.9404
| 39> H 	 -123.284 	 49.0473 	 -33.5117
| 40> H 	 -117.845 	 54.1307 	 -29.8939
| 41> *
| 42>
| 43>                          ****END OF INPUT****

CARTESIAN COORDINATES (ANGSTROEM)
---------------------------------
  S    -121.440000   50.141800  -32.227800
  C    -122.858000   49.992400  -33.179500
  C    -123.175000   51.142100  -33.850600
  C    -122.509000   52.261600  -33.260100
  C    -121.614000   51.910400  -32.273500
  H    -122.717000   53.289800  -33.517000
  C    -124.272000   51.339700  -34.868800
  H    -124.550000   50.364700  -35.321500
  H    -123.950000   51.949000  -35.767400
  C    -125.572000   51.981600  -34.359500
  H    -125.380000   53.027600  -34.132900
  H    -126.254000   51.935700  -35.217900
  C    -126.025000   51.123200  -33.125000
  H    -125.461000   51.382900  -32.268200
  H    -127.112000   51.310000  -32.874000
  H    -126.072000   50.017900  -33.074400
  S    -119.038000   52.365500  -31.327300
  C    -118.755000   53.784800  -30.288800
  C    -119.867000   54.546500  -30.221500
  C    -120.966000   53.986600  -30.870500
  C    -120.729000   52.747100  -31.493000
  H    -119.841000   55.541900  -29.772200
  C    -122.331000   54.693300  -30.821200
  H    -122.780000   54.752300  -31.793600
  H    -122.041000   55.699100  -30.649800
  C    -123.389000   54.239400  -29.763200
  H    -123.736000   53.226300  -29.890700
  H    -124.296000   54.913400  -29.915200
  C    -122.971000   54.484700  -28.291200
  H    -123.846000   54.472400  -27.590600
  H    -122.388000   55.394200  -28.219500
  H    -122.389000   53.559600  -27.940400
  H    -123.284000   49.047300  -33.511700
  H    -117.845000   54.130700  -29.893900

 Total Charge           Charge          ....    0
 Multiplicity           Mult            ....    1
 Number of Electrons    NEL             ....  134
 Basis Dimension        Dim             ....  322

ORBITAL ENERGIES
----------------

  NO   OCC          E(Eh)            E(eV)
   0   2.0000     -88.967286     -2420.9229
   1   2.0000     -88.966408     -2420.8990
   2   2.0000     -10.331919      -281.1458
   3   2.0000     -10.327468      -281.0247
   4   2.0000     -10.312438      -280.6157
   5   2.0000     -10.311391      -280.5872
   6   2.0000     -10.299107      -280.2529
   7   2.0000     -10.298781      -280.2441
   8   2.0000     -10.296915      -280.1933
   9   2.0000     -10.295988      -280.1681
  10   2.0000     -10.295458      -280.1537
  11   2.0000     -10.290569      -280.0206
  12   2.0000     -10.288825      -279.9732
  13   2.0000     -10.288141      -279.9546
  14   2.0000     -10.282411      -279.7986
  15   2.0000     -10.280049      -279.7344
  16   2.0000      -8.081599      -219.9115
  17   2.0000      -8.081525      -219.9095
  18   2.0000      -6.040112      -164.3598
  19   2.0000      -6.040072      -164.3587
  20   2.0000      -6.036316      -164.2565
  21   2.0000      -6.036111      -164.2509
  22   2.0000      -6.032258      -164.1461
  23   2.0000      -6.032044      -164.1403
  24   2.0000      -1.010180       -27.4884
  25   2.0000      -0.988934       -26.9103
  26   2.0000      -0.912312       -24.8253
  27   2.0000      -0.899831       -24.4857
  28   2.0000      -0.873791       -23.7771
  29   2.0000      -0.848459       -23.0877
  30   2.0000      -0.840869       -22.8812
  31   2.0000      -0.814952       -22.1760
  32   2.0000      -0.781874       -21.2759
  33   2.0000      -0.772071       -21.0091
  34   2.0000      -0.715110       -19.4591
  35   2.0000      -0.699877       -19.0446
  36   2.0000      -0.688023       -18.7221
  37   2.0000      -0.662480       -18.0270
  38   2.0000      -0.638886       -17.3850
  39   2.0000      -0.625839       -17.0300
  40   2.0000      -0.590946       -16.0805
  41   2.0000      -0.570875       -15.5343
  42   2.0000      -0.551574       -15.0091
  43   2.0000      -0.544675       -14.8214
  44   2.0000      -0.541880       -14.7453
  45   2.0000      -0.535629       -14.5752
  46   2.0000      -0.513705       -13.9786
  47   2.0000      -0.511885       -13.9291
  48   2.0000      -0.501380       -13.6432
  49   2.0000      -0.494803       -13.4643
  50   2.0000      -0.485940       -13.2231
  51   2.0000      -0.477578       -12.9956
  52   2.0000      -0.473522       -12.8852
  53   2.0000      -0.465748       -12.6737
  54   2.0000      -0.460591       -12.5333
  55   2.0000      -0.450517       -12.2592
  56   2.0000      -0.442922       -12.0525
  57   2.0000      -0.438523       -11.9328
  58   2.0000      -0.431322       -11.7369
  59   2.0000      -0.425774       -11.5859
  60   2.0000      -0.419889       -11.4258
  61   2.0000      -0.411716       -11.2034
  62   2.0000      -0.402114       -10.9421
  63   2.0000      -0.357462        -9.7270
  64   2.0000      -0.335660        -9.1338
  65   2.0000      -0.328455        -8.9377
  66   2.0000      -0.285512        -7.7692
  67   0.0000       0.022920         0.6237
  68   0.0000       0.068219         1.8563
  69   0.0000       0.100976         2.7477
  70   0.0000       0.122828         3.3423
  71   0.0000       0.128042         3.4842

MULLIKEN ATOMIC CHARGES
-----------------------
   0 S :    0.112049
   1 C :   -0.100171
   2 C :   -0.078091
   3 C :    0.017485
   4 C :   -0.144583
   5 H :    0.009929
   6 C :    0.005948
   7 H :    0.022080
   8 H :    0.039242
   9 C :   -0.035786
  10 H :    0.035799
  11 H :    0.038683
  12 C :   -0.081548
  13 H :    0.040079
  14 H :    0.028709
  15 H :    0.032105
  16 S :    0.100425
  17 C :   -0.065114
  18 C :   -0.039284
  19 C :   -0.060218
  20 C :   -0.126993
  21 H :    0.025359
  22 C :    0.100521
  23 H :    0.009311
  24 H :   -0.003465
  25 C :   -0.069327
  26 H :    0.038756
  27 H :    0.032987
  28 C :   -0.085772
  29 H :    0.040927
  30 H :    0.032415
  31 H :    0.049467
  32 H :    0.044985
  33 H :    0.033090
Sum of atomic charges:    0.0000000

LOEWDIN ATOMIC CHARGES
----------------------
   0 S :    0.404292
   1 C :   -0.199976
   2 C :   -0.066679
   3 C :   -0.052421
   4 C :   -0.179005
   5 H :    0.028726
   6 C :   -0.041479
   7 H :    0.028399
   8 H :    0.035135
   9 C :   -0.031589
  10 H :    0.024264
  11 H :    0.027799
  12 C :   -0.079033
  13 H :    0.022814
  14 H :    0.028662
  15 H :    0.029959
  16 S :    0.398330
  17 C :   -0.169643
  18 C :   -0.072811
  19 C :   -0.063702
  20 C :   -0.200114
  21 H :    0.037182
  22 C :   -0.029051
  23 H :    0.023817
  24 H :    0.023263
  25 C :   -0.038163
  26 H :    0.022602
  27 H :    0.029324
  28 C :   -0.076183
  29 H :    0.030101
  30 H :    0.019786
  31 H :    0.035728
  32 H :    0.027689
  33 H :    0.021976

  Mayer bond orders larger than 0.100000
B(  0-S ,  1-C ) :   1.1431 B(  0-S ,  4-C ) :   1.1315 B(  1-C ,  2-C ) :   1.6235
B(  1-C , 32-H ) :   0.9591 B(  2-C ,  3-C ) :   1.2153 B(  2-C ,  6-C ) :   1.0406
B(  3-C ,  4-C ) :   1.5793 B(  3-C ,  5-H ) :   0.9980 B(  4-C , 20-C ) :   1.0746
B(  6-C ,  7-H ) :   0.9443 B(  6-C ,  8-H ) :   0.9411 B(  6-C ,  9-C ) :   1.0706
B(  9-C , 10-H ) :   0.9561 B(  9-C , 11-H ) :   0.9593 B(  9-C , 12-C ) :   1.0509
B( 12-C , 13-H ) :   0.9740 B( 12-C , 14-H ) :   0.9748 B( 12-C , 15-H ) :   0.9793
B( 16-S , 17-C ) :   1.1423 B( 16-S , 20-C ) :   1.1441 B( 17-C , 18-C ) :   1.6089
B( 17-C , 20-C ) :   0.1024 B( 17-C , 33-H ) :   0.9693 B( 18-C , 19-C ) :   1.2822
B( 18-C , 21-H ) :   0.9816 B( 19-C , 20-C ) :   1.5646 B( 19-C , 22-C ) :   1.0299
B( 22-C , 23-H ) :   0.9340 B( 22-C , 24-H ) :   0.9280 B( 22-C , 25-C ) :   1.0696
B( 25-C , 26-H ) :   0.9605 B( 25-C , 27-H ) :   0.9563 B( 25-C , 28-C ) :   1.0693
B( 28-C , 29-H ) :   0.9753 B( 28-C , 30-H ) :   0.9767 B( 28-C , 31-H ) :   0.9750

Dispersion correction           -0.015296481
FINAL SINGLE POINT ENERGY     -1339.871411590202

DIPOLE MOMENT
-------------
                                X             Y             Z
Electronic contribution:     25.82223     -10.21916      -2.17594
Nuclear contribution   :    -26.33506      10.67969       1.99880
                        -----------------------------------------
Total Dipole Moment    :     -0.51284       0.46053      -0.17713
                        -----------------------------------------
Magnitude (a.u.)       :      0.71167
Magnitude (Debye)      :      1.80891

Rotational constants in cm-1:     0.019473     0.009551     0.007318
Rotational constants in MHz :   583.773584   286.340997   219.384648

                             ****ORCA TERMINATED NORMALLY****
TOTAL RUN TIME: 0 days 0 hours 0 minutes 22 seconds 467 msec
