                         Program Version 4.2.1 -  RELEASE  -
|  1> ! wB97X-D3 SP def2-SVP
|  2> %pal
|  3> nprocs 24
|  4> end
|  5>
|  6> * xyz 0 1
|  7> S 	 -50.1767 	 29.5731 	 25.655
|  8> C 	 -48.9025 	 29.8934 	 24.504
|  9> C 	 -47.722 	 29.4527 	 24.9361
| 10> C 	 -47.8637 	 28.8217 	 26.2132
| 11> C 	 -49.1257 	 28.8815 	 26.7838
| 12> H 	 -47.1243 	 28.277 	 26.7495
| 13> C 	 -46.4213 	 29.681 	 24.2014
| 14> H 	 -45.9428 	 30.5431 	 24.6086
| 15> H 	 -46.5097 	 30.0413 	 23.2082
| 16> C 	 -45.5389 	 28.4435 	 24.1368
| 17> H 	 -45.1188 	 28.1345 	 25.0785
| 18> H 	 -46.1395 	 27.5981 	 23.7264
| 19> C 	 -44.2585 	 28.5319 	 23.289
| 20> H 	 -43.6437 	 29.3586 	 23.7133
| 21> H 	 -43.6395 	 27.6097 	 23.2542
| 22> H 	 -44.4478 	 28.793 	 22.225
| 23> S 	 -50.2027 	 26.8461 	 28.5139
| 24> C 	 -50.6107 	 27.406 	 30.1378
| 25> C 	 -50.3303 	 28.7429 	 30.3227
| 26> C 	 -49.6014 	 29.3447 	 29.2596
| 27> C 	 -49.6092 	 28.5147 	 28.118
| 28> H 	 -50.5698 	 29.2464 	 31.2917
| 29> C 	 -49.0438 	 30.7518 	 29.2959
| 30> H 	 -49.7767 	 31.4088 	 29.7467
| 31> H 	 -48.9451 	 30.9587 	 28.2403
| 32> C 	 -47.6785 	 31.0533 	 29.9413
| 33> H 	 -46.9201 	 30.3777 	 29.697
| 34> H 	 -47.7656 	 31.0127 	 31.0137
| 35> C 	 -47.3168 	 32.5061 	 29.6718
| 36> H 	 -46.4739 	 32.7873 	 30.2825
| 37> H 	 -48.0557 	 33.2593 	 29.9603
| 38> H 	 -47.1012 	 32.5109 	 28.6163
| 39> H 	 -48.9288 	 30.4402 	 23.6024
| 40> H 	 -51.1824 	 26.8527 	 30.7868
| 41> *
| 42>
| 43>                          ****END OF INPUT****

CARTESIAN COORDINATES (ANGSTROEM)
---------------------------------
  S    -50.176700   29.573100   25.655000
  C    -48.902500   29.893400   24.504000
  C    -47.722000   29.452700   24.936100
  C    -47.863700   28.821700   26.213200
  C    -49.125700   28.881500   26.783800
  H    -47.124300   28.277000   26.749500
  C    -46.421300   29.681000   24.201400
  H    -45.942800   30.543100   24.608600
  H    -46.509700   30.041300   23.208200
  C    -45.538900   28.443500   24.136800
  H    -45.118800   28.134500   25.078500
  H    -46.139500   27.598100   23.726400
  C    -44.258500   28.531900   23.289000
  H    -43.643700   29.358600   23.713300
  H    -43.639500   27.609700   23.254200
  H    -44.447800   28.793000   22.225000
  S    -50.202700   26.846100   28.513900
  C    -50.610700   27.406000   30.137800
  C    -50.330300   28.742900   30.322700
  C    -49.601400   29.344700   29.259600
  C    -49.609200   28.514700   28.118000
  H    -50.569800   29.246400   31.291700
  C    -49.043800   30.751800   29.295900
  H    -49.776700   31.408800   29.746700
  H    -48.945100   30.958700   28.240300
  C    -47.678500   31.053300   29.941300
  H    -46.920100   30.377700   29.697000
  H    -47.765600   31.012700   31.013700
  C    -47.316800   32.506100   29.671800
  H    -46.473900   32.787300   30.282500
  H    -48.055700   33.259300   29.960300
  H    -47.101200   32.510900   28.616300
  H    -48.928800   30.440200   23.602400
  H    -51.182400   26.852700   30.786800

 Total Charge           Charge          ....    0
 Multiplicity           Mult            ....    1
 Number of Electrons    NEL             ....  134
 Basis Dimension        Dim             ....  322

ORBITAL ENERGIES
----------------

  NO   OCC          E(Eh)            E(eV)
   0   2.0000     -88.967668     -2420.9333
   1   2.0000     -88.962277     -2420.7866
   2   2.0000     -10.331951      -281.1467
   3   2.0000     -10.324079      -280.9325
   4   2.0000     -10.314029      -280.6590
   5   2.0000     -10.306076      -280.4426
   6   2.0000     -10.303640      -280.3763
   7   2.0000     -10.295866      -280.1648
   8   2.0000     -10.295703      -280.1603
   9   2.0000     -10.290358      -280.0149
  10   2.0000     -10.289934      -280.0033
  11   2.0000     -10.287700      -279.9426
  12   2.0000     -10.287119      -279.9267
  13   2.0000     -10.285102      -279.8719
  14   2.0000     -10.278810      -279.7006
  15   2.0000     -10.273608      -279.5591
  16   2.0000      -8.081055      -219.8967
  17   2.0000      -8.078126      -219.8170
  18   2.0000      -6.039563      -164.3449
  19   2.0000      -6.036576      -164.2636
  20   2.0000      -6.035882      -164.2447
  21   2.0000      -6.032322      -164.1478
  22   2.0000      -6.031771      -164.1328
  23   2.0000      -6.028999      -164.0574
  24   2.0000      -1.010710       -27.5028
  25   2.0000      -0.981821       -26.7167
  26   2.0000      -0.916713       -24.9450
  27   2.0000      -0.910823       -24.7847
  28   2.0000      -0.872330       -23.7373
  29   2.0000      -0.852843       -23.2071
  30   2.0000      -0.842863       -22.9355
  31   2.0000      -0.815028       -22.1780
  32   2.0000      -0.787657       -21.4332
  33   2.0000      -0.773051       -21.0358
  34   2.0000      -0.712047       -19.3758
  35   2.0000      -0.702113       -19.1055
  36   2.0000      -0.692144       -18.8342
  37   2.0000      -0.657199       -17.8833
  38   2.0000      -0.646397       -17.5894
  39   2.0000      -0.618413       -16.8279
  40   2.0000      -0.597450       -16.2574
  41   2.0000      -0.576635       -15.6910
  42   2.0000      -0.572977       -15.5915
  43   2.0000      -0.567811       -15.4509
  44   2.0000      -0.529285       -14.4026
  45   2.0000      -0.524881       -14.2827
  46   2.0000      -0.515463       -14.0265
  47   2.0000      -0.514035       -13.9876
  48   2.0000      -0.506601       -13.7853
  49   2.0000      -0.501026       -13.6336
  50   2.0000      -0.494171       -13.4471
  51   2.0000      -0.476269       -12.9599
  52   2.0000      -0.467789       -12.7292
  53   2.0000      -0.464072       -12.6281
  54   2.0000      -0.458573       -12.4784
  55   2.0000      -0.451125       -12.2757
  56   2.0000      -0.449827       -12.2404
  57   2.0000      -0.438027       -11.9193
  58   2.0000      -0.429011       -11.6740
  59   2.0000      -0.426638       -11.6094
  60   2.0000      -0.421586       -11.4719
  61   2.0000      -0.416660       -11.3379
  62   2.0000      -0.411084       -11.1862
  63   2.0000      -0.334140        -9.0924
  64   2.0000      -0.329936        -8.9780
  65   2.0000      -0.321050        -8.7362
  66   2.0000      -0.312373        -8.5001
  67   0.0000       0.043301         1.1783
  68   0.0000       0.053488         1.4555
  69   0.0000       0.114808         3.1241
  70   0.0000       0.122100         3.3225
  71   0.0000       0.133912         3.6439

MULLIKEN ATOMIC CHARGES
-----------------------
   0 S :    0.125576
   1 C :   -0.103731
   2 C :   -0.071289
   3 C :    0.048474
   4 C :   -0.213081
   5 H :   -0.005798
   6 C :    0.134794
   7 H :    0.023013
   8 H :   -0.006922
   9 C :   -0.102015
  10 H :    0.032144
  11 H :    0.041966
  12 C :   -0.084125
  13 H :    0.030405
  14 H :    0.047286
  15 H :    0.029902
  16 S :    0.107427
  17 C :   -0.058580
  18 C :   -0.038298
  19 C :   -0.008321
  20 C :   -0.171169
  21 H :    0.034558
  22 C :    0.061722
  23 H :    0.023314
  24 H :    0.022462
  25 C :   -0.028319
  26 H :    0.019157
  27 H :    0.012536
  28 C :   -0.044218
  29 H :    0.026543
  30 H :    0.031392
  31 H :    0.033761
  32 H :    0.020464
  33 H :    0.028969
Sum of atomic charges:   -0.0000000

LOEWDIN ATOMIC CHARGES
----------------------
   0 S :    0.435025
   1 C :   -0.190548
   2 C :   -0.064033
   3 C :   -0.059579
   4 C :   -0.219464
   5 H :    0.023486
   6 C :   -0.027002
   7 H :    0.031232
   8 H :    0.026043
   9 C :   -0.044293
  10 H :    0.021875
  11 H :    0.031085
  12 C :   -0.074112
  13 H :    0.025786
  14 H :    0.031674
  15 H :    0.021475
  16 S :    0.375745
  17 C :   -0.164019
  18 C :   -0.073082
  19 C :   -0.042802
  20 C :   -0.193524
  21 H :    0.039230
  22 C :   -0.029249
  23 H :    0.031964
  24 H :    0.029266
  25 C :   -0.029798
  26 H :    0.017891
  27 H :    0.018789
  28 C :   -0.059486
  29 H :    0.024505
  30 H :    0.027138
  31 H :    0.024495
  32 H :    0.023077
  33 H :    0.011207

  Mayer bond orders larger than 0.100000
B(  0-S ,  1-C ) :   1.1360 B(  0-S ,  4-C ) :   1.1703 B(  1-C ,  2-C ) :   1.6420
B(  1-C , 32-H ) :   0.9688 B(  2-C ,  3-C ) :   1.2199 B(  2-C ,  6-C ) :   1.0253
B(  3-C ,  4-C ) :   1.5894 B(  3-C ,  5-H ) :   1.0076 B(  4-C , 20-C ) :   1.0080
B(  6-C ,  7-H ) :   0.9260 B(  6-C ,  8-H ) :   0.9327 B(  6-C ,  9-C ) :   1.0548
B(  9-C , 10-H ) :   0.9525 B(  9-C , 11-H ) :   0.9607 B(  9-C , 12-C ) :   1.0857
B( 12-C , 13-H ) :   0.9737 B( 12-C , 14-H ) :   0.9755 B( 12-C , 15-H ) :   0.9743
B( 16-S , 17-C ) :   1.1458 B( 16-S , 20-C ) :   1.1282 B( 17-C , 18-C ) :   1.6308
B( 17-C , 20-C ) :   0.1044 B( 17-C , 33-H ) :   0.9725 B( 18-C , 19-C ) :   1.2334
B( 18-C , 21-H ) :   0.9784 B( 19-C , 20-C ) :   1.5970 B( 19-C , 22-C ) :   1.0409
B( 22-C , 23-H ) :   0.9345 B( 22-C , 24-H ) :   0.9265 B( 22-C , 25-C ) :   1.0724
B( 25-C , 26-H ) :   0.9536 B( 25-C , 27-H ) :   0.9510 B( 25-C , 28-C ) :   1.0840
B( 28-C , 29-H ) :   0.9725 B( 28-C , 30-H ) :   0.9728 B( 28-C , 31-H ) :   0.9790

Dispersion correction           -0.013911052
FINAL SINGLE POINT ENERGY     -1339.870628451064

DIPOLE MOMENT
-------------
                                X             Y             Z
Electronic contribution:    -24.36683     -13.16399       2.96179
Nuclear contribution   :     24.87429      13.56838      -2.81102
                        -----------------------------------------
Total Dipole Moment    :      0.50745       0.40439       0.15077
                        -----------------------------------------
Magnitude (a.u.)       :      0.66616
Magnitude (Debye)      :      1.69325

Rotational constants in cm-1:     0.017459     0.008117     0.006880
Rotational constants in MHz :   523.415765   243.336946   206.265274

                             ****ORCA TERMINATED NORMALLY****
TOTAL RUN TIME: 0 days 0 hours 0 minutes 21 seconds 336 msec
