                         Program Version 4.2.1 -  RELEASE  -
|  1> ! wB97X-D3 SP def2-SVP
|  2> %pal
|  3> nprocs 24
|  4> end
|  5>
|  6> * xyz 0 1
|  7> S 	 -16.8122 	 -29.3858 	 -100.827
|  8> C 	 -17.4073 	 -27.9768 	 -101.597
|  9> C 	 -18.5286 	 -28.2957 	 -102.388
| 10> C 	 -18.8451 	 -29.6991 	 -102.298
| 11> C 	 -18.0178 	 -30.3878 	 -101.442
| 12> H 	 -19.6675 	 -30.2748 	 -102.761
| 13> C 	 -19.3897 	 -27.2762 	 -103.084
| 14> H 	 -19.2739 	 -27.293 	 -104.195
| 15> H 	 -19.0967 	 -26.3097 	 -102.75
| 16> C 	 -20.9772 	 -27.4019 	 -102.986
| 17> H 	 -21.4214 	 -26.7319 	 -103.69
| 18> H 	 -21.3098 	 -28.3339 	 -103.362
| 19> C 	 -21.4278 	 -27.0052 	 -101.565
| 20> H 	 -21.1236 	 -27.7859 	 -100.86
| 21> H 	 -20.898 	 -26.0755 	 -101.175
| 22> H 	 -22.5024 	 -26.9381 	 -101.443
| 23> S 	 -16.8248 	 -32.8331 	 -102.204
| 24> C 	 -17.6809 	 -34.2848 	 -101.968
| 25> C 	 -18.7422 	 -34.138 	 -101.105
| 26> C 	 -19.0216 	 -32.7677 	 -100.832
| 27> C 	 -18.0839 	 -31.9007 	 -101.41
| 28> H 	 -19.3164 	 -34.9901 	 -100.747
| 29> C 	 -20.1485 	 -32.213 	 -100.001
| 30> H 	 -20.9494 	 -32.1004 	 -100.747
| 31> H 	 -19.8875 	 -31.1949 	 -99.6181
| 32> C 	 -20.5681 	 -33.0681 	 -98.7793
| 33> H 	 -20.8579 	 -33.9702 	 -99.3374
| 34> H 	 -21.4935 	 -32.5947 	 -98.5076
| 35> C 	 -19.5939 	 -33.4358 	 -97.6832
| 36> H 	 -18.6413 	 -33.8604 	 -98.044
| 37> H 	 -20.0469 	 -34.1647 	 -97.0037
| 38> H 	 -19.2593 	 -32.5545 	 -97.1548
| 39> H 	 -17.0306 	 -26.9705 	 -101.519
| 40> H 	 -17.3204 	 -35.2232 	 -102.147
| 41> *
| 42>
| 43>                          ****END OF INPUT****

CARTESIAN COORDINATES (ANGSTROEM)
---------------------------------
  S    -16.812200  -29.385800  -100.827000
  C    -17.407300  -27.976800  -101.597000
  C    -18.528600  -28.295700  -102.388000
  C    -18.845100  -29.699100  -102.298000
  C    -18.017800  -30.387800  -101.442000
  H    -19.667500  -30.274800  -102.761000
  C    -19.389700  -27.276200  -103.084000
  H    -19.273900  -27.293000  -104.195000
  H    -19.096700  -26.309700  -102.750000
  C    -20.977200  -27.401900  -102.986000
  H    -21.421400  -26.731900  -103.690000
  H    -21.309800  -28.333900  -103.362000
  C    -21.427800  -27.005200  -101.565000
  H    -21.123600  -27.785900  -100.860000
  H    -20.898000  -26.075500  -101.175000
  H    -22.502400  -26.938100  -101.443000
  S    -16.824800  -32.833100  -102.204000
  C    -17.680900  -34.284800  -101.968000
  C    -18.742200  -34.138000  -101.105000
  C    -19.021600  -32.767700  -100.832000
  C    -18.083900  -31.900700  -101.410000
  H    -19.316400  -34.990100  -100.747000
  C    -20.148500  -32.213000  -100.001000
  H    -20.949400  -32.100400  -100.747000
  H    -19.887500  -31.194900  -99.618100
  C    -20.568100  -33.068100  -98.779300
  H    -20.857900  -33.970200  -99.337400
  H    -21.493500  -32.594700  -98.507600
  C    -19.593900  -33.435800  -97.683200
  H    -18.641300  -33.860400  -98.044000
  H    -20.046900  -34.164700  -97.003700
  H    -19.259300  -32.554500  -97.154800
  H    -17.030600  -26.970500  -101.519000
  H    -17.320400  -35.223200  -102.147000

 Total Charge           Charge          ....    0
 Multiplicity           Mult            ....    1
 Number of Electrons    NEL             ....  134
 Basis Dimension        Dim             ....  322

ORBITAL ENERGIES
----------------

  NO   OCC          E(Eh)            E(eV)
   0   2.0000     -88.969403     -2420.9805
   1   2.0000     -88.963656     -2420.8241
   2   2.0000     -10.326501      -280.9984
   3   2.0000     -10.324660      -280.9483
   4   2.0000     -10.314478      -280.6712
   5   2.0000     -10.305902      -280.4379
   6   2.0000     -10.304763      -280.4069
   7   2.0000     -10.300259      -280.2843
   8   2.0000     -10.293746      -280.1071
   9   2.0000     -10.292877      -280.0834
  10   2.0000     -10.292229      -280.0658
  11   2.0000     -10.291276      -280.0399
  12   2.0000     -10.287124      -279.9269
  13   2.0000     -10.284513      -279.8558
  14   2.0000     -10.279845      -279.7288
  15   2.0000     -10.279129      -279.7093
  16   2.0000      -8.085460      -220.0166
  17   2.0000      -8.079104      -219.8436
  18   2.0000      -6.043829      -164.4610
  19   2.0000      -6.039567      -164.3450
  20   2.0000      -6.037466      -164.2878
  21   2.0000      -6.036502      -164.2616
  22   2.0000      -6.033513      -164.1802
  23   2.0000      -6.029982      -164.0842
  24   2.0000      -1.011269       -27.5180
  25   2.0000      -0.991166       -26.9710
  26   2.0000      -0.909304       -24.7434
  27   2.0000      -0.906291       -24.6614
  28   2.0000      -0.866881       -23.5890
  29   2.0000      -0.848888       -23.0994
  30   2.0000      -0.845061       -22.9953
  31   2.0000      -0.816589       -22.2205
  32   2.0000      -0.783671       -21.3248
  33   2.0000      -0.772917       -21.0321
  34   2.0000      -0.710895       -19.3444
  35   2.0000      -0.700245       -19.0546
  36   2.0000      -0.694604       -18.9011
  37   2.0000      -0.649897       -17.6846
  38   2.0000      -0.642176       -17.4745
  39   2.0000      -0.616580       -16.7780
  40   2.0000      -0.596582       -16.2338
  41   2.0000      -0.571205       -15.5433
  42   2.0000      -0.553540       -15.0626
  43   2.0000      -0.547628       -14.9017
  44   2.0000      -0.536223       -14.5914
  45   2.0000      -0.533187       -14.5088
  46   2.0000      -0.519669       -14.1409
  47   2.0000      -0.514903       -14.0112
  48   2.0000      -0.502372       -13.6702
  49   2.0000      -0.496996       -13.5239
  50   2.0000      -0.487361       -13.2618
  51   2.0000      -0.480935       -13.0869
  52   2.0000      -0.475886       -12.9495
  53   2.0000      -0.468897       -12.7593
  54   2.0000      -0.460396       -12.5280
  55   2.0000      -0.450101       -12.2479
  56   2.0000      -0.446670       -12.1545
  57   2.0000      -0.443969       -12.0810
  58   2.0000      -0.436833       -11.8868
  59   2.0000      -0.422302       -11.4914
  60   2.0000      -0.416768       -11.3408
  61   2.0000      -0.414009       -11.2658
  62   2.0000      -0.400126       -10.8880
  63   2.0000      -0.339767        -9.2455
  64   2.0000      -0.327340        -8.9074
  65   2.0000      -0.323183        -8.7943
  66   2.0000      -0.303007        -8.2453
  67   0.0000       0.044648         1.2149
  68   0.0000       0.062791         1.7086
  69   0.0000       0.121307         3.3009
  70   0.0000       0.124698         3.3932
  71   0.0000       0.134263         3.6535

MULLIKEN ATOMIC CHARGES
-----------------------
   0 S :    0.134867
   1 C :   -0.119554
   2 C :   -0.070762
   3 C :    0.017387
   4 C :   -0.166745
   5 H :    0.028355
   6 C :    0.050127
   7 H :    0.041875
   8 H :    0.003207
   9 C :   -0.044322
  10 H :    0.018599
  11 H :    0.017794
  12 C :   -0.067505
  13 H :    0.034399
  14 H :    0.037840
  15 H :    0.034909
  16 S :    0.120590
  17 C :   -0.039489
  18 C :   -0.064620
  19 C :   -0.046149
  20 C :   -0.186788
  21 H :    0.023163
  22 C :    0.035502
  23 H :    0.041912
  24 H :    0.039113
  25 C :   -0.070218
  26 H :    0.013529
  27 H :    0.024262
  28 C :   -0.017505
  29 H :    0.036027
  30 H :    0.044042
  31 H :    0.028876
  32 H :    0.046851
  33 H :    0.020431
Sum of atomic charges:   -0.0000000

LOEWDIN ATOMIC CHARGES
----------------------
   0 S :    0.455707
   1 C :   -0.213382
   2 C :   -0.063196
   3 C :   -0.064316
   4 C :   -0.228314
   5 H :    0.037243
   6 C :   -0.029316
   7 H :    0.038220
   8 H :    0.020222
   9 C :   -0.033088
  10 H :    0.021478
  11 H :    0.016833
  12 C :   -0.073008
  13 H :    0.026702
  14 H :    0.033026
  15 H :    0.021957
  16 S :    0.425506
  17 C :   -0.186241
  18 C :   -0.076522
  19 C :   -0.060281
  20 C :   -0.200919
  21 H :    0.032393
  22 C :   -0.034714
  23 H :    0.037515
  24 H :    0.030435
  25 C :   -0.046005
  26 H :    0.021117
  27 H :    0.024832
  28 C :   -0.064722
  29 H :    0.031810
  30 H :    0.032772
  31 H :    0.025513
  32 H :    0.029684
  33 H :    0.011062

  Mayer bond orders larger than 0.100000
B(  0-S ,  1-C ) :   1.1607 B(  0-S ,  4-C ) :   1.1820 B(  1-C ,  2-C ) :   1.5685
B(  1-C , 32-H ) :   0.9704 B(  2-C ,  3-C ) :   1.2556 B(  2-C ,  6-C ) :   1.0359
B(  3-C ,  4-C ) :   1.5578 B(  3-C ,  5-H ) :   0.9879 B(  4-C , 20-C ) :   0.9954
B(  6-C ,  7-H ) :   0.9332 B(  6-C ,  8-H ) :   0.9455 B(  6-C ,  9-C ) :   1.0778
B(  9-C , 10-H ) :   0.9551 B(  9-C , 11-H ) :   0.9524 B(  9-C , 12-C ) :   1.0658
B( 12-C , 13-H ) :   0.9767 B( 12-C , 14-H ) :   0.9753 B( 12-C , 15-H ) :   0.9763
B( 16-S , 17-C ) :   1.1833 B( 16-S , 20-C ) :   1.1518 B( 17-C , 18-C ) :   1.5930
B( 17-C , 33-H ) :   0.9682 B( 18-C , 19-C ) :   1.2574 B( 18-C , 21-H ) :   0.9881
B( 19-C , 20-C ) :   1.5941 B( 19-C , 22-C ) :   1.0270 B( 22-C , 23-H ) :   0.9313
B( 22-C , 24-H ) :   0.9354 B( 22-C , 25-C ) :   1.0711 B( 25-C , 26-H ) :   0.9496
B( 25-C , 27-H ) :   0.9535 B( 25-C , 28-C ) :   1.0750 B( 28-C , 29-H ) :   0.9691
B( 28-C , 30-H ) :   0.9721 B( 28-C , 31-H ) :   0.9725

Dispersion correction           -0.014696875
FINAL SINGLE POINT ENERGY     -1339.874698234357

DIPOLE MOMENT
-------------
                                X             Y             Z
Electronic contribution:     22.76228      -6.32639      -7.29780
Nuclear contribution   :    -23.31498       6.38460       7.34229
                        -----------------------------------------
Total Dipole Moment    :     -0.55270       0.05822       0.04449
                        -----------------------------------------
Magnitude (a.u.)       :      0.55754
Magnitude (Debye)      :      1.41714

Rotational constants in cm-1:     0.018811     0.008577     0.007193
Rotational constants in MHz :   563.932868   257.132904   215.651147

                             ****ORCA TERMINATED NORMALLY****
TOTAL RUN TIME: 0 days 0 hours 0 minutes 21 seconds 818 msec
