                         Program Version 4.2.1 -  RELEASE  -
|  1> ! wB97X-D3 SP def2-SVP
|  2> %pal
|  3> nprocs 24
|  4> end
|  5>
|  6> * xyz 0 1
|  7> S 	 -124.31 	 50.711 	 -37.3961
|  8> C 	 -123.366 	 49.2908 	 -37.9316
|  9> C 	 -122.911 	 48.6075 	 -36.834
| 10> C 	 -123.457 	 49.1377 	 -35.6002
| 11> C 	 -124.142 	 50.349 	 -35.7353
| 12> H 	 -123.446 	 48.6907 	 -34.6139
| 13> C 	 -121.918 	 47.4129 	 -36.7691
| 14> H 	 -122.031 	 46.8163 	 -37.6715
| 15> H 	 -122.303 	 46.8535 	 -35.9606
| 16> C 	 -120.466 	 47.8247 	 -36.5933
| 17> H 	 -120.371 	 48.3793 	 -35.6025
| 18> H 	 -119.792 	 46.9926 	 -36.5152
| 19> C 	 -119.994 	 48.5705 	 -37.8
| 20> H 	 -118.987 	 48.9124 	 -37.6767
| 21> H 	 -120.182 	 48.1056 	 -38.7686
| 22> H 	 -120.441 	 49.5366 	 -37.7984
| 23> S 	 -126.523 	 51.515 	 -35.1596
| 24> C 	 -126.678 	 52.2785 	 -33.6369
| 25> C 	 -125.528 	 52.3344 	 -32.8854
| 26> C 	 -124.448 	 51.5922 	 -33.4628
| 27> C 	 -124.839 	 51.0873 	 -34.7329
| 28> H 	 -125.422 	 52.9028 	 -31.9606
| 29> C 	 -123.095 	 51.4363 	 -32.7851
| 30> H 	 -122.691 	 52.4402 	 -32.6357
| 31> H 	 -122.271 	 50.9977 	 -33.4013
| 32> C 	 -122.984 	 50.6964 	 -31.3571
| 33> H 	 -123.726 	 51.1005 	 -30.6538
| 34> H 	 -122.05 	 50.8813 	 -30.7667
| 35> C 	 -123.087 	 49.2259 	 -31.4674
| 36> H 	 -122.348 	 48.6084 	 -30.8431
| 37> H 	 -122.893 	 48.9369 	 -32.4762
| 38> H 	 -124.105 	 48.8386 	 -31.2913
| 39> H 	 -123.223 	 48.9675 	 -38.9664
| 40> H 	 -127.645 	 52.8362 	 -33.4442
| 41> *
| 42>
| 43>                          ****END OF INPUT****

CARTESIAN COORDINATES (ANGSTROEM)
---------------------------------
  S    -124.310000   50.711000  -37.396100
  C    -123.366000   49.290800  -37.931600
  C    -122.911000   48.607500  -36.834000
  C    -123.457000   49.137700  -35.600200
  C    -124.142000   50.349000  -35.735300
  H    -123.446000   48.690700  -34.613900
  C    -121.918000   47.412900  -36.769100
  H    -122.031000   46.816300  -37.671500
  H    -122.303000   46.853500  -35.960600
  C    -120.466000   47.824700  -36.593300
  H    -120.371000   48.379300  -35.602500
  H    -119.792000   46.992600  -36.515200
  C    -119.994000   48.570500  -37.800000
  H    -118.987000   48.912400  -37.676700
  H    -120.182000   48.105600  -38.768600
  H    -120.441000   49.536600  -37.798400
  S    -126.523000   51.515000  -35.159600
  C    -126.678000   52.278500  -33.636900
  C    -125.528000   52.334400  -32.885400
  C    -124.448000   51.592200  -33.462800
  C    -124.839000   51.087300  -34.732900
  H    -125.422000   52.902800  -31.960600
  C    -123.095000   51.436300  -32.785100
  H    -122.691000   52.440200  -32.635700
  H    -122.271000   50.997700  -33.401300
  C    -122.984000   50.696400  -31.357100
  H    -123.726000   51.100500  -30.653800
  H    -122.050000   50.881300  -30.766700
  C    -123.087000   49.225900  -31.467400
  H    -122.348000   48.608400  -30.843100
  H    -122.893000   48.936900  -32.476200
  H    -124.105000   48.838600  -31.291300
  H    -123.223000   48.967500  -38.966400
  H    -127.645000   52.836200  -33.444200

 Total Charge           Charge          ....    0
 Multiplicity           Mult            ....    1
 Number of Electrons    NEL             ....  134
 Basis Dimension        Dim             ....  322

ORBITAL ENERGIES
----------------

  NO   OCC          E(Eh)            E(eV)
   0   2.0000     -88.968613     -2420.9590
   1   2.0000     -88.963190     -2420.8115
   2   2.0000     -10.331186      -281.1259
   3   2.0000     -10.324043      -280.9315
   4   2.0000     -10.321368      -280.8587
   5   2.0000     -10.316268      -280.7199
   6   2.0000     -10.315459      -280.6979
   7   2.0000     -10.304080      -280.3883
   8   2.0000     -10.303513      -280.3728
   9   2.0000     -10.297980      -280.2223
  10   2.0000     -10.293934      -280.1122
  11   2.0000     -10.292212      -280.0653
  12   2.0000     -10.289642      -279.9954
  13   2.0000     -10.286574      -279.9119
  14   2.0000     -10.276578      -279.6399
  15   2.0000     -10.266337      -279.3612
  16   2.0000      -8.083716      -219.9691
  17   2.0000      -8.078194      -219.8188
  18   2.0000      -6.042027      -164.4119
  19   2.0000      -6.038291      -164.3102
  20   2.0000      -6.036791      -164.2694
  21   2.0000      -6.034512      -164.2074
  22   2.0000      -6.032598      -164.1553
  23   2.0000      -6.028890      -164.0544
  24   2.0000      -1.007938       -27.4274
  25   2.0000      -0.982563       -26.7369
  26   2.0000      -0.916686       -24.9443
  27   2.0000      -0.905911       -24.6511
  28   2.0000      -0.871386       -23.7116
  29   2.0000      -0.858105       -23.3502
  30   2.0000      -0.841185       -22.8898
  31   2.0000      -0.808186       -21.9919
  32   2.0000      -0.786325       -21.3970
  33   2.0000      -0.775163       -21.0933
  34   2.0000      -0.708106       -19.2686
  35   2.0000      -0.697640       -18.9837
  36   2.0000      -0.692447       -18.8424
  37   2.0000      -0.658303       -17.9133
  38   2.0000      -0.638529       -17.3753
  39   2.0000      -0.617071       -16.7914
  40   2.0000      -0.599868       -16.3232
  41   2.0000      -0.564388       -15.3578
  42   2.0000      -0.556621       -15.1464
  43   2.0000      -0.550592       -14.9824
  44   2.0000      -0.547405       -14.8957
  45   2.0000      -0.538572       -14.6553
  46   2.0000      -0.515239       -14.0204
  47   2.0000      -0.510833       -13.9005
  48   2.0000      -0.499814       -13.6006
  49   2.0000      -0.498260       -13.5583
  50   2.0000      -0.487682       -13.2705
  51   2.0000      -0.481619       -13.1055
  52   2.0000      -0.472510       -12.8577
  53   2.0000      -0.460361       -12.5271
  54   2.0000      -0.458096       -12.4654
  55   2.0000      -0.450323       -12.2539
  56   2.0000      -0.443001       -12.0547
  57   2.0000      -0.436220       -11.8701
  58   2.0000      -0.434800       -11.8315
  59   2.0000      -0.429667       -11.6918
  60   2.0000      -0.420485       -11.4420
  61   2.0000      -0.411606       -11.2004
  62   2.0000      -0.406182       -11.0528
  63   2.0000      -0.346395        -9.4259
  64   2.0000      -0.335156        -9.1201
  65   2.0000      -0.327198        -8.9035
  66   2.0000      -0.288530        -7.8513
  67   0.0000       0.025862         0.7037
  68   0.0000       0.071770         1.9530
  69   0.0000       0.108128         2.9423
  70   0.0000       0.116121         3.1598
  71   0.0000       0.126919         3.4536

MULLIKEN ATOMIC CHARGES
-----------------------
   0 S :    0.091747
   1 C :   -0.134485
   2 C :   -0.100187
   3 C :    0.009755
   4 C :   -0.139109
   5 H :    0.010874
   6 C :    0.097400
   7 H :    0.017413
   8 H :    0.016337
   9 C :   -0.054519
  10 H :    0.033911
  11 H :    0.027358
  12 C :   -0.034388
  13 H :    0.018365
  14 H :    0.034172
  15 H :    0.024983
  16 S :    0.116805
  17 C :   -0.108666
  18 C :   -0.027534
  19 C :    0.015327
  20 C :   -0.176177
  21 H :    0.025156
  22 C :    0.015236
  23 H :    0.034644
  24 H :    0.040155
  25 C :   -0.087920
  26 H :    0.028004
  27 H :    0.034781
  28 C :   -0.041136
  29 H :    0.041488
  30 H :   -0.003694
  31 H :    0.039286
  32 H :    0.054093
  33 H :    0.080524
Sum of atomic charges:   -0.0000000

LOEWDIN ATOMIC CHARGES
----------------------
   0 S :    0.401837
   1 C :   -0.192617
   2 C :   -0.058033
   3 C :   -0.071769
   4 C :   -0.210808
   5 H :    0.026167
   6 C :   -0.023092
   7 H :    0.026676
   8 H :    0.024360
   9 C :   -0.040584
  10 H :    0.032404
  11 H :    0.021279
  12 C :   -0.068544
  13 H :    0.025466
  14 H :    0.026658
  15 H :    0.024955
  16 S :    0.411511
  17 C :   -0.200549
  18 C :   -0.073029
  19 C :   -0.046951
  20 C :   -0.187715
  21 H :    0.035305
  22 C :   -0.037138
  23 H :    0.035991
  24 H :    0.036632
  25 C :   -0.050509
  26 H :    0.022619
  27 H :    0.033740
  28 C :   -0.076929
  29 H :    0.035259
  30 H :    0.014924
  31 H :    0.030099
  32 H :    0.033504
  33 H :    0.038882

  Mayer bond orders larger than 0.100000
B(  0-S ,  1-C ) :   1.1191 B(  0-S ,  4-C ) :   1.1521 B(  1-C ,  2-C ) :   1.6235
B(  1-C , 32-H ) :   0.9715 B(  2-C ,  3-C ) :   1.2272 B(  2-C ,  6-C ) :   1.0085
B(  3-C ,  4-C ) :   1.5666 B(  3-C ,  5-H ) :   0.9901 B(  4-C , 20-C ) :   1.0749
B(  6-C ,  7-H ) :   0.9429 B(  6-C ,  8-H ) :   0.9381 B(  6-C ,  9-C ) :   1.0765
B(  9-C , 10-H ) :   0.9505 B(  9-C , 11-H ) :   0.9558 B(  9-C , 12-C ) :   1.0814
B( 12-C , 13-H ) :   0.9643 B( 12-C , 14-H ) :   0.9740 B( 12-C , 15-H ) :   0.9664
B( 16-S , 17-C ) :   1.1652 B( 16-S , 20-C ) :   1.1443 B( 17-C , 18-C ) :   1.5953
B( 17-C , 33-H ) :   0.9581 B( 18-C , 19-C ) :   1.2423 B( 18-C , 21-H ) :   0.9895
B( 19-C , 20-C ) :   1.5660 B( 19-C , 22-C ) :   1.0406 B( 22-C , 23-H ) :   0.9330
B( 22-C , 24-H ) :   0.9435 B( 22-C , 25-C ) :   1.0641 B( 25-C , 26-H ) :   0.9600
B( 25-C , 27-H ) :   0.9597 B( 25-C , 28-C ) :   1.0626 B( 28-C , 29-H ) :   0.9718
B( 28-C , 30-H ) :   0.9743 B( 28-C , 31-H ) :   0.9741

Dispersion correction           -0.014864720
FINAL SINGLE POINT ENERGY     -1339.869701952413

DIPOLE MOMENT
-------------
                                X             Y             Z
Electronic contribution:    -22.89237      12.60369     -11.02481
Nuclear contribution   :     23.28665     -12.74522      11.42926
                        -----------------------------------------
Total Dipole Moment    :      0.39428      -0.14153       0.40444
                        -----------------------------------------
Magnitude (a.u.)       :      0.58229
Magnitude (Debye)      :      1.48007

Rotational constants in cm-1:     0.018948     0.009432     0.006853
Rotational constants in MHz :   568.032970   282.768999   205.445518

                             ****ORCA TERMINATED NORMALLY****
TOTAL RUN TIME: 0 days 0 hours 0 minutes 22 seconds 285 msec
