                         Program Version 4.2.1 -  RELEASE  -
|  1> ! wB97X-D3 SP def2-SVP
|  2> %pal
|  3> nprocs 24
|  4> end
|  5>
|  6> * xyz 0 1
|  7> S 	 -70.2132 	 19.5106 	 -108.762
|  8> C 	 -69.5729 	 18.9898 	 -107.236
|  9> C 	 -68.4812 	 18.1157 	 -107.345
| 10> C 	 -68.1172 	 18.0376 	 -108.688
| 11> C 	 -68.9113 	 18.7518 	 -109.537
| 12> H 	 -67.3235 	 17.4122 	 -109.156
| 13> C 	 -67.6638 	 17.4495 	 -106.267
| 14> H 	 -67.1852 	 18.1176 	 -105.542
| 15> H 	 -66.8505 	 17.0798 	 -106.83
| 16> C 	 -68.3876 	 16.3635 	 -105.448
| 17> H 	 -69.2307 	 16.9129 	 -104.969
| 18> H 	 -68.9165 	 15.6583 	 -106.195
| 19> C 	 -67.487 	 15.6673 	 -104.417
| 20> H 	 -68.1263 	 15.0759 	 -103.795
| 21> H 	 -66.744 	 15.2328 	 -105.031
| 22> H 	 -67.0027 	 16.2873 	 -103.656
| 23> S 	 -67.4601 	 19.6735 	 -111.59
| 24> C 	 -67.9571 	 19.4014 	 -113.253
| 25> C 	 -69.1903 	 18.8057 	 -113.293
| 26> C 	 -69.5989 	 18.2939 	 -112.028
| 27> C 	 -68.8251 	 18.7794 	 -110.987
| 28> H 	 -69.5684 	 18.6333 	 -114.318
| 29> C 	 -70.8662 	 17.3767 	 -111.902
| 30> H 	 -71.5632 	 17.5974 	 -112.695
| 31> H 	 -71.4299 	 17.7812 	 -111.054
| 32> C 	 -70.6783 	 15.8553 	 -111.798
| 33> H 	 -69.8997 	 15.7398 	 -111.057
| 34> H 	 -70.3297 	 15.3707 	 -112.702
| 35> C 	 -71.9228 	 15.1136 	 -111.327
| 36> H 	 -72.7825 	 15.3811 	 -111.951
| 37> H 	 -72.2915 	 15.5523 	 -110.381
| 38> H 	 -71.7358 	 14.0313 	 -111.148
| 39> H 	 -70.1251 	 19.0896 	 -106.323
| 40> H 	 -67.5293 	 19.7522 	 -114.109
| 41> *
| 42>
| 43>                          ****END OF INPUT****

CARTESIAN COORDINATES (ANGSTROEM)
---------------------------------
  S    -70.213200   19.510600  -108.762000
  C    -69.572900   18.989800  -107.236000
  C    -68.481200   18.115700  -107.345000
  C    -68.117200   18.037600  -108.688000
  C    -68.911300   18.751800  -109.537000
  H    -67.323500   17.412200  -109.156000
  C    -67.663800   17.449500  -106.267000
  H    -67.185200   18.117600  -105.542000
  H    -66.850500   17.079800  -106.830000
  C    -68.387600   16.363500  -105.448000
  H    -69.230700   16.912900  -104.969000
  H    -68.916500   15.658300  -106.195000
  C    -67.487000   15.667300  -104.417000
  H    -68.126300   15.075900  -103.795000
  H    -66.744000   15.232800  -105.031000
  H    -67.002700   16.287300  -103.656000
  S    -67.460100   19.673500  -111.590000
  C    -67.957100   19.401400  -113.253000
  C    -69.190300   18.805700  -113.293000
  C    -69.598900   18.293900  -112.028000
  C    -68.825100   18.779400  -110.987000
  H    -69.568400   18.633300  -114.318000
  C    -70.866200   17.376700  -111.902000
  H    -71.563200   17.597400  -112.695000
  H    -71.429900   17.781200  -111.054000
  C    -70.678300   15.855300  -111.798000
  H    -69.899700   15.739800  -111.057000
  H    -70.329700   15.370700  -112.702000
  C    -71.922800   15.113600  -111.327000
  H    -72.782500   15.381100  -111.951000
  H    -72.291500   15.552300  -110.381000
  H    -71.735800   14.031300  -111.148000
  H    -70.125100   19.089600  -106.323000
  H    -67.529300   19.752200  -114.109000

 Total Charge           Charge          ....    0
 Multiplicity           Mult            ....    1
 Number of Electrons    NEL             ....  134
 Basis Dimension        Dim             ....  322

ORBITAL ENERGIES
----------------

  NO   OCC          E(Eh)            E(eV)
   0   2.0000     -88.970898     -2421.0212
   1   2.0000     -88.962491     -2420.7924
   2   2.0000     -10.323058      -280.9047
   3   2.0000     -10.319389      -280.8048
   4   2.0000     -10.311946      -280.6023
   5   2.0000     -10.306593      -280.4567
   6   2.0000     -10.306202      -280.4460
   7   2.0000     -10.300081      -280.2794
   8   2.0000     -10.295956      -280.1672
   9   2.0000     -10.291737      -280.0524
  10   2.0000     -10.291232      -280.0387
  11   2.0000     -10.290185      -280.0102
  12   2.0000     -10.288300      -279.9589
  13   2.0000     -10.281409      -279.7714
  14   2.0000     -10.279098      -279.7085
  15   2.0000     -10.278399      -279.6895
  16   2.0000      -8.086532      -220.0457
  17   2.0000      -8.077366      -219.7963
  18   2.0000      -6.044714      -164.4850
  19   2.0000      -6.040915      -164.3816
  20   2.0000      -6.037585      -164.2910
  21   2.0000      -6.035851      -164.2439
  22   2.0000      -6.031781      -164.1331
  23   2.0000      -6.028212      -164.0360
  24   2.0000      -1.015612       -27.6362
  25   2.0000      -0.988438       -26.8968
  26   2.0000      -0.914587       -24.8872
  27   2.0000      -0.902815       -24.5668
  28   2.0000      -0.871373       -23.7113
  29   2.0000      -0.858855       -23.3706
  30   2.0000      -0.845433       -23.0054
  31   2.0000      -0.814476       -22.1630
  32   2.0000      -0.786750       -21.4086
  33   2.0000      -0.770563       -20.9681
  34   2.0000      -0.707074       -19.2405
  35   2.0000      -0.700328       -19.0569
  36   2.0000      -0.693228       -18.8637
  37   2.0000      -0.662069       -18.0158
  38   2.0000      -0.644784       -17.5455
  39   2.0000      -0.618689       -16.8354
  40   2.0000      -0.590967       -16.0810
  41   2.0000      -0.574427       -15.6310
  42   2.0000      -0.563921       -15.3451
  43   2.0000      -0.558430       -15.1957
  44   2.0000      -0.529380       -14.4052
  45   2.0000      -0.526903       -14.3377
  46   2.0000      -0.517739       -14.0884
  47   2.0000      -0.515585       -14.0298
  48   2.0000      -0.504802       -13.7364
  49   2.0000      -0.501046       -13.6341
  50   2.0000      -0.488406       -13.2902
  51   2.0000      -0.477684       -12.9985
  52   2.0000      -0.470363       -12.7992
  53   2.0000      -0.464304       -12.6343
  54   2.0000      -0.462176       -12.5765
  55   2.0000      -0.446968       -12.1626
  56   2.0000      -0.440350       -11.9825
  57   2.0000      -0.438048       -11.9199
  58   2.0000      -0.432978       -11.7819
  59   2.0000      -0.432247       -11.7620
  60   2.0000      -0.418481       -11.3875
  61   2.0000      -0.410927       -11.1819
  62   2.0000      -0.409572       -11.1450
  63   2.0000      -0.340307        -9.2602
  64   2.0000      -0.334590        -9.1046
  65   2.0000      -0.326611        -8.8875
  66   2.0000      -0.301366        -8.2006
  67   0.0000       0.038311         1.0425
  68   0.0000       0.063089         1.7167
  69   0.0000       0.113791         3.0964
  70   0.0000       0.119441         3.2501
  71   0.0000       0.126955         3.4546

MULLIKEN ATOMIC CHARGES
-----------------------
   0 S :    0.143617
   1 C :   -0.117471
   2 C :   -0.077329
   3 C :    0.017512
   4 C :   -0.168459
   5 H :    0.027169
   6 C :    0.094220
   7 H :    0.034340
   8 H :   -0.001964
   9 C :   -0.140006
  10 H :    0.026304
  11 H :    0.044950
  12 C :    0.005623
  13 H :    0.032665
  14 H :    0.033195
  15 H :    0.026999
  16 S :    0.111139
  17 C :   -0.055276
  18 C :   -0.054439
  19 C :   -0.025870
  20 C :   -0.185120
  21 H :    0.032370
  22 C :    0.062502
  23 H :    0.008433
  24 H :    0.010357
  25 C :   -0.027977
  26 H :    0.022429
  27 H :    0.028267
  28 C :   -0.061023
  29 H :    0.025474
  30 H :    0.018822
  31 H :    0.052562
  32 H :    0.039888
  33 H :    0.016096
Sum of atomic charges:   -0.0000000

LOEWDIN ATOMIC CHARGES
----------------------
   0 S :    0.453607
   1 C :   -0.198679
   2 C :   -0.060661
   3 C :   -0.067229
   4 C :   -0.225673
   5 H :    0.039921
   6 C :   -0.033782
   7 H :    0.034800
   8 H :    0.021060
   9 C :   -0.045343
  10 H :    0.020502
  11 H :    0.033039
  12 C :   -0.061293
  13 H :    0.028418
  14 H :    0.024771
  15 H :    0.028508
  16 S :    0.411765
  17 C :   -0.172247
  18 C :   -0.072780
  19 C :   -0.058686
  20 C :   -0.204021
  21 H :    0.038632
  22 C :   -0.031785
  23 H :    0.024429
  24 H :    0.025375
  25 C :   -0.039627
  26 H :    0.023273
  27 H :    0.023030
  28 C :   -0.071965
  29 H :    0.024716
  30 H :    0.025097
  31 H :    0.033756
  32 H :    0.019171
  33 H :    0.009901

  Mayer bond orders larger than 0.100000
B(  0-S ,  1-C ) :   1.1686 B(  0-S ,  4-C ) :   1.1803 B(  1-C ,  2-C ) :   1.5717
B(  1-C , 32-H ) :   0.9682 B(  2-C ,  3-C ) :   1.2794 B(  2-C ,  6-C ) :   1.0110
B(  3-C ,  4-C ) :   1.5682 B(  3-C ,  5-H ) :   0.9828 B(  4-C , 20-C ) :   0.9989
B(  6-C ,  7-H ) :   0.9382 B(  6-C ,  8-H ) :   0.9371 B(  6-C ,  9-C ) :   1.0479
B(  9-C , 10-H ) :   0.9587 B(  9-C , 11-H ) :   0.9569 B(  9-C , 12-C ) :   1.0701
B( 12-C , 13-H ) :   0.9719 B( 12-C , 14-H ) :   0.9767 B( 12-C , 15-H ) :   0.9719
B( 16-S , 17-C ) :   1.1452 B( 16-S , 20-C ) :   1.1539 B( 17-C , 18-C ) :   1.6446
B( 17-C , 20-C ) :   0.1025 B( 17-C , 33-H ) :   0.9741 B( 18-C , 19-C ) :   1.2265
B( 18-C , 21-H ) :   0.9818 B( 19-C , 20-C ) :   1.6113 B( 19-C , 22-C ) :   1.0299
B( 22-C , 23-H ) :   0.9342 B( 22-C , 24-H ) :   0.9362 B( 22-C , 25-C ) :   1.0586
B( 25-C , 26-H ) :   0.9550 B( 25-C , 27-H ) :   0.9539 B( 25-C , 28-C ) :   1.0851
B( 28-C , 29-H ) :   0.9729 B( 28-C , 30-H ) :   0.9717 B( 28-C , 31-H ) :   0.9727

Dispersion correction           -0.013856264
FINAL SINGLE POINT ENERGY     -1339.866698918495

DIPOLE MOMENT
-------------
                                X             Y             Z
Electronic contribution:      5.05531      22.76116     -11.99571
Nuclear contribution   :     -5.14855     -23.19373      12.15766
                        -----------------------------------------
Total Dipole Moment    :     -0.09324      -0.43257       0.16195
                        -----------------------------------------
Magnitude (a.u.)       :      0.47121
Magnitude (Debye)      :      1.19772

Rotational constants in cm-1:     0.018498     0.007977     0.006673
Rotational constants in MHz :   554.549726   239.133159   200.041806

                             ****ORCA TERMINATED NORMALLY****
TOTAL RUN TIME: 0 days 0 hours 0 minutes 21 seconds 83 msec
