                         Program Version 4.2.1 -  RELEASE  -
|  1> ! wB97X-D3 SP def2-SVP
|  2> %pal
|  3> nprocs 24
|  4> end
|  5>
|  6> * xyz 0 1
|  7> S 	 -133.367 	 68.4789 	 -55.9625
|  8> C 	 -133.855 	 67.7303 	 -57.494
|  9> C 	 -135.058 	 68.228 	 -57.9475
| 10> C 	 -135.602 	 69.1302 	 -57.0062
| 11> C 	 -134.913 	 69.2662 	 -55.7716
| 12> H 	 -136.563 	 69.5282 	 -57.124
| 13> C 	 -135.742 	 67.854 	 -59.3008
| 14> H 	 -134.951 	 67.2134 	 -59.7275
| 15> H 	 -135.841 	 68.6645 	 -59.9739
| 16> C 	 -136.992 	 66.9818 	 -59.2344
| 17> H 	 -137.797 	 67.5711 	 -58.709
| 18> H 	 -137.313 	 66.7186 	 -60.303
| 19> C 	 -136.755 	 65.7307 	 -58.4414
| 20> H 	 -135.856 	 65.1903 	 -58.7653
| 21> H 	 -136.534 	 65.8834 	 -57.3725
| 22> H 	 -137.658 	 65.0826 	 -58.4911
| 23> S 	 -134.18 	 71.3871 	 -54.1389
| 24> C 	 -135.258 	 71.9206 	 -52.9003
| 25> C 	 -136.47 	 71.2618 	 -52.9437
| 26> C 	 -136.491 	 70.2291 	 -53.9781
| 27> C 	 -135.297 	 70.1694 	 -54.6839
| 28> H 	 -137.282 	 71.5863 	 -52.3101
| 29> C 	 -137.75 	 69.4906 	 -54.3006
| 30> H 	 -138.067 	 68.9955 	 -53.3821
| 31> H 	 -137.435 	 68.7318 	 -54.9828
| 32> C 	 -138.917 	 70.4186 	 -54.7286
| 33> H 	 -138.605 	 71.0785 	 -55.4892
| 34> H 	 -139.165 	 71.0638 	 -53.8307
| 35> C 	 -140.22 	 69.9193 	 -55.3274
| 36> H 	 -140.708 	 69.0954 	 -54.7755
| 37> H 	 -139.921 	 69.445 	 -56.284
| 38> H 	 -140.871 	 70.7652 	 -55.4773
| 39> H 	 -133.137 	 67.1579 	 -58.1084
| 40> H 	 -135.054 	 72.7799 	 -52.1987
| 41> *
| 42>
| 43>                          ****END OF INPUT****

CARTESIAN COORDINATES (ANGSTROEM)
---------------------------------
  S    -133.367000   68.478900  -55.962500
  C    -133.855000   67.730300  -57.494000
  C    -135.058000   68.228000  -57.947500
  C    -135.602000   69.130200  -57.006200
  C    -134.913000   69.266200  -55.771600
  H    -136.563000   69.528200  -57.124000
  C    -135.742000   67.854000  -59.300800
  H    -134.951000   67.213400  -59.727500
  H    -135.841000   68.664500  -59.973900
  C    -136.992000   66.981800  -59.234400
  H    -137.797000   67.571100  -58.709000
  H    -137.313000   66.718600  -60.303000
  C    -136.755000   65.730700  -58.441400
  H    -135.856000   65.190300  -58.765300
  H    -136.534000   65.883400  -57.372500
  H    -137.658000   65.082600  -58.491100
  S    -134.180000   71.387100  -54.138900
  C    -135.258000   71.920600  -52.900300
  C    -136.470000   71.261800  -52.943700
  C    -136.491000   70.229100  -53.978100
  C    -135.297000   70.169400  -54.683900
  H    -137.282000   71.586300  -52.310100
  C    -137.750000   69.490600  -54.300600
  H    -138.067000   68.995500  -53.382100
  H    -137.435000   68.731800  -54.982800
  C    -138.917000   70.418600  -54.728600
  H    -138.605000   71.078500  -55.489200
  H    -139.165000   71.063800  -53.830700
  C    -140.220000   69.919300  -55.327400
  H    -140.708000   69.095400  -54.775500
  H    -139.921000   69.445000  -56.284000
  H    -140.871000   70.765200  -55.477300
  H    -133.137000   67.157900  -58.108400
  H    -135.054000   72.779900  -52.198700

 Total Charge           Charge          ....    0
 Multiplicity           Mult            ....    1
 Number of Electrons    NEL             ....  134
 Basis Dimension        Dim             ....  322

ORBITAL ENERGIES
----------------

  NO   OCC          E(Eh)            E(eV)
   0   2.0000     -88.969706     -2420.9888
   1   2.0000     -88.965722     -2420.8804
   2   2.0000     -10.334963      -281.2286
   3   2.0000     -10.327432      -281.0237
   4   2.0000     -10.320584      -280.8374
   5   2.0000     -10.320122      -280.8248
   6   2.0000     -10.304787      -280.4075
   7   2.0000     -10.304457      -280.3985
   8   2.0000     -10.297115      -280.1987
   9   2.0000     -10.295240      -280.1477
  10   2.0000     -10.295174      -280.1459
  11   2.0000     -10.291766      -280.0532
  12   2.0000     -10.288790      -279.9722
  13   2.0000     -10.287734      -279.9435
  14   2.0000     -10.282034      -279.7884
  15   2.0000     -10.277304      -279.6597
  16   2.0000      -8.083932      -219.9750
  17   2.0000      -8.081147      -219.8992
  18   2.0000      -6.042433      -164.4230
  19   2.0000      -6.039706      -164.3488
  20   2.0000      -6.038437      -164.3142
  21   2.0000      -6.035540      -164.2354
  22   2.0000      -6.034790      -164.2150
  23   2.0000      -6.031824      -164.1343
  24   2.0000      -1.006556       -27.3898
  25   2.0000      -0.984818       -26.7983
  26   2.0000      -0.914018       -24.8717
  27   2.0000      -0.910706       -24.7816
  28   2.0000      -0.869416       -23.6580
  29   2.0000      -0.855570       -23.2813
  30   2.0000      -0.844073       -22.9684
  31   2.0000      -0.812776       -22.1168
  32   2.0000      -0.786339       -21.3974
  33   2.0000      -0.774944       -21.0873
  34   2.0000      -0.705000       -19.1840
  35   2.0000      -0.695897       -18.9363
  36   2.0000      -0.688967       -18.7478
  37   2.0000      -0.658214       -17.9109
  38   2.0000      -0.637874       -17.3574
  39   2.0000      -0.622497       -16.9390
  40   2.0000      -0.591596       -16.0982
  41   2.0000      -0.570134       -15.5141
  42   2.0000      -0.565688       -15.3931
  43   2.0000      -0.555028       -15.1031
  44   2.0000      -0.544805       -14.8249
  45   2.0000      -0.535698       -14.5771
  46   2.0000      -0.519452       -14.1350
  47   2.0000      -0.514161       -13.9910
  48   2.0000      -0.504784       -13.7359
  49   2.0000      -0.496699       -13.5159
  50   2.0000      -0.488676       -13.2975
  51   2.0000      -0.478511       -13.0209
  52   2.0000      -0.471006       -12.8167
  53   2.0000      -0.461240       -12.5510
  54   2.0000      -0.454782       -12.3752
  55   2.0000      -0.450858       -12.2685
  56   2.0000      -0.445387       -12.1196
  57   2.0000      -0.438559       -11.9338
  58   2.0000      -0.433039       -11.7836
  59   2.0000      -0.424841       -11.5605
  60   2.0000      -0.420021       -11.4294
  61   2.0000      -0.414844       -11.2885
  62   2.0000      -0.412835       -11.2338
  63   2.0000      -0.346328        -9.4241
  64   2.0000      -0.335249        -9.1226
  65   2.0000      -0.328268        -8.9326
  66   2.0000      -0.294333        -8.0092
  67   0.0000       0.027794         0.7563
  68   0.0000       0.070727         1.9246
  69   0.0000       0.111308         3.0288
  70   0.0000       0.119027         3.2389
  71   0.0000       0.122932         3.3451

MULLIKEN ATOMIC CHARGES
-----------------------
   0 S :    0.112810
   1 C :   -0.141969
   2 C :   -0.102325
   3 C :    0.051482
   4 C :   -0.165029
   5 H :   -0.012732
   6 C :    0.090991
   7 H :    0.007765
   8 H :    0.033803
   9 C :   -0.084778
  10 H :    0.037475
  11 H :    0.048534
  12 C :   -0.071828
  13 H :    0.022291
  14 H :    0.046835
  15 H :    0.041774
  16 S :    0.115102
  17 C :   -0.112727
  18 C :   -0.036302
  19 C :   -0.069733
  20 C :   -0.147881
  21 H :    0.022894
  22 C :    0.125502
  23 H :    0.025522
  24 H :    0.013440
  25 C :   -0.113624
  26 H :    0.022601
  27 H :    0.030372
  28 C :   -0.031339
  29 H :    0.031478
  30 H :    0.025015
  31 H :    0.044206
  32 H :    0.062472
  33 H :    0.077904
Sum of atomic charges:    0.0000000

LOEWDIN ATOMIC CHARGES
----------------------
   0 S :    0.406713
   1 C :   -0.194522
   2 C :   -0.065256
   3 C :   -0.056685
   4 C :   -0.197846
   5 H :    0.016787
   6 C :   -0.027532
   7 H :    0.029950
   8 H :    0.026186
   9 C :   -0.047819
  10 H :    0.026780
  11 H :    0.035761
  12 C :   -0.075054
  13 H :    0.023129
  14 H :    0.030448
  15 H :    0.030540
  16 S :    0.415984
  17 C :   -0.198055
  18 C :   -0.073371
  19 C :   -0.048548
  20 C :   -0.208302
  21 H :    0.031151
  22 C :   -0.031806
  23 H :    0.034165
  24 H :    0.024023
  25 C :   -0.044845
  26 H :    0.019141
  27 H :    0.026666
  28 C :   -0.063102
  29 H :    0.023576
  30 H :    0.026162
  31 H :    0.029839
  32 H :    0.032817
  33 H :    0.042924

  Mayer bond orders larger than 0.100000
B(  0-S ,  1-C ) :   1.1505 B(  0-S ,  4-C ) :   1.1595 B(  1-C ,  2-C ) :   1.5915
B(  1-C ,  4-C ) :   0.1041 B(  1-C , 32-H ) :   0.9571 B(  2-C ,  3-C ) :   1.2834
B(  2-C ,  6-C ) :   1.0005 B(  3-C ,  4-C ) :   1.5233 B(  3-C ,  5-H ) :   0.9973
B(  4-C , 20-C ) :   1.0498 B(  6-C ,  7-H ) :   0.9371 B(  6-C ,  8-H ) :   0.9463
B(  6-C ,  9-C ) :   1.0721 B(  9-C , 10-H ) :   0.9535 B(  9-C , 11-H ) :   0.9535
B(  9-C , 12-C ) :   1.0780 B( 12-C , 13-H ) :   0.9739 B( 12-C , 14-H ) :   0.9677
B( 12-C , 15-H ) :   0.9722 B( 16-S , 17-C ) :   1.1578 B( 16-S , 20-C ) :   1.1357
B( 17-C , 18-C ) :   1.6230 B( 17-C , 33-H ) :   0.9582 B( 18-C , 19-C ) :   1.2152
B( 18-C , 21-H ) :   0.9916 B( 19-C , 20-C ) :   1.6077 B( 19-C , 22-C ) :   1.0645
B( 22-C , 23-H ) :   0.9197 B( 22-C , 24-H ) :   0.9282 B( 22-C , 25-C ) :   1.0503
B( 25-C , 26-H ) :   0.9600 B( 25-C , 27-H ) :   0.9505 B( 25-C , 28-C ) :   1.0885
B( 28-C , 29-H ) :   0.9742 B( 28-C , 30-H ) :   0.9747 B( 28-C , 31-H ) :   0.9720

Dispersion correction           -0.014611693
FINAL SINGLE POINT ENERGY     -1339.882456779559

DIPOLE MOMENT
-------------
                                X             Y             Z
Electronic contribution:     26.36781      10.72709      11.91842
Nuclear contribution   :    -26.97920     -10.69837     -12.19791
                        -----------------------------------------
Total Dipole Moment    :     -0.61138       0.02872      -0.27949
                        -----------------------------------------
Magnitude (a.u.)       :      0.67285
Magnitude (Debye)      :      1.71026

Rotational constants in cm-1:     0.017113     0.009906     0.006736
Rotational constants in MHz :   513.036663   296.976683   201.953330

                             ****ORCA TERMINATED NORMALLY****
TOTAL RUN TIME: 0 days 0 hours 0 minutes 21 seconds 880 msec
