                         Program Version 4.2.1 -  RELEASE  -
|  1> ! wB97X-D3 SP def2-SVP
|  2> %pal
|  3> nprocs 24
|  4> end
|  5>
|  6> * xyz 0 1
|  7> S 	 -101.079 	 38.1204 	 -88.9968
|  8> C 	 -100.975 	 36.5552 	 -88.2
|  9> C 	 -101.996 	 36.3753 	 -87.356
| 10> C 	 -102.887 	 37.5021 	 -87.2528
| 11> C 	 -102.549 	 38.5084 	 -88.1951
| 12> H 	 -103.896 	 37.6403 	 -86.7255
| 13> C 	 -102.167 	 35.0263 	 -86.5939
| 14> H 	 -101.698 	 34.2615 	 -87.2157
| 15> H 	 -103.21 	 34.8231 	 -86.3268
| 16> C 	 -101.416 	 34.9481 	 -85.2292
| 17> H 	 -100.502 	 35.6648 	 -85.1959
| 18> H 	 -101.997 	 35.2002 	 -84.3208
| 19> C 	 -100.894 	 33.5165 	 -84.8871
| 20> H 	 -100.337 	 33.4479 	 -83.8767
| 21> H 	 -101.668 	 32.7957 	 -84.879
| 22> H 	 -100.226 	 33.0606 	 -85.6417
| 23> S 	 -102.37 	 41.3313 	 -88.1152
| 24> C 	 -103.805 	 42.2744 	 -88.5782
| 25> C 	 -104.903 	 41.4127 	 -88.7286
| 26> C 	 -104.614 	 39.9909 	 -88.5942
| 27> C 	 -103.261 	 39.8076 	 -88.4338
| 28> H 	 -105.885 	 41.8174 	 -88.8786
| 29> C 	 -105.617 	 38.8534 	 -88.4962
| 30> H 	 -105.083 	 37.9743 	 -88.6292
| 31> H 	 -106.38 	 38.9293 	 -89.2873
| 32> C 	 -106.29 	 38.8556 	 -87.1392
| 33> H 	 -106.837 	 39.8342 	 -87.0897
| 34> H 	 -105.444 	 38.9611 	 -86.5234
| 35> C 	 -107.163 	 37.7354 	 -86.9103
| 36> H 	 -106.667 	 36.8348 	 -87.2726
| 37> H 	 -108.15 	 37.882 	 -87.4803
| 38> H 	 -107.349 	 37.5182 	 -85.8957
| 39> H 	 -100.228 	 35.8123 	 -88.4364
| 40> H 	 -103.849 	 43.3877 	 -88.568
| 41> *
| 42>
| 43>                          ****END OF INPUT****

CARTESIAN COORDINATES (ANGSTROEM)
---------------------------------
  S    -101.079000   38.120400  -88.996800
  C    -100.975000   36.555200  -88.200000
  C    -101.996000   36.375300  -87.356000
  C    -102.887000   37.502100  -87.252800
  C    -102.549000   38.508400  -88.195100
  H    -103.896000   37.640300  -86.725500
  C    -102.167000   35.026300  -86.593900
  H    -101.698000   34.261500  -87.215700
  H    -103.210000   34.823100  -86.326800
  C    -101.416000   34.948100  -85.229200
  H    -100.502000   35.664800  -85.195900
  H    -101.997000   35.200200  -84.320800
  C    -100.894000   33.516500  -84.887100
  H    -100.337000   33.447900  -83.876700
  H    -101.668000   32.795700  -84.879000
  H    -100.226000   33.060600  -85.641700
  S    -102.370000   41.331300  -88.115200
  C    -103.805000   42.274400  -88.578200
  C    -104.903000   41.412700  -88.728600
  C    -104.614000   39.990900  -88.594200
  C    -103.261000   39.807600  -88.433800
  H    -105.885000   41.817400  -88.878600
  C    -105.617000   38.853400  -88.496200
  H    -105.083000   37.974300  -88.629200
  H    -106.380000   38.929300  -89.287300
  C    -106.290000   38.855600  -87.139200
  H    -106.837000   39.834200  -87.089700
  H    -105.444000   38.961100  -86.523400
  C    -107.163000   37.735400  -86.910300
  H    -106.667000   36.834800  -87.272600
  H    -108.150000   37.882000  -87.480300
  H    -107.349000   37.518200  -85.895700
  H    -100.228000   35.812300  -88.436400
  H    -103.849000   43.387700  -88.568000

 Total Charge           Charge          ....    0
 Multiplicity           Mult            ....    1
 Number of Electrons    NEL             ....  134
 Basis Dimension        Dim             ....  322

ORBITAL ENERGIES
----------------

  NO   OCC          E(Eh)            E(eV)
   0   2.0000     -88.966707     -2420.9072
   1   2.0000     -88.966677     -2420.9063
   2   2.0000     -10.334087      -281.2048
   3   2.0000     -10.331353      -281.1304
   4   2.0000     -10.327827      -281.0345
   5   2.0000     -10.311266      -280.5838
   6   2.0000     -10.306582      -280.4563
   7   2.0000     -10.306079      -280.4427
   8   2.0000     -10.304712      -280.4055
   9   2.0000     -10.301493      -280.3179
  10   2.0000     -10.300613      -280.2939
  11   2.0000     -10.297435      -280.2075
  12   2.0000     -10.286228      -279.9025
  13   2.0000     -10.283906      -279.8393
  14   2.0000     -10.280081      -279.7352
  15   2.0000     -10.278916      -279.7035
  16   2.0000      -8.081865      -219.9187
  17   2.0000      -8.080324      -219.8768
  18   2.0000      -6.040284      -164.3645
  19   2.0000      -6.039024      -164.3302
  20   2.0000      -6.036242      -164.2545
  21   2.0000      -6.035146      -164.2247
  22   2.0000      -6.032752      -164.1595
  23   2.0000      -6.030785      -164.1060
  24   2.0000      -1.004910       -27.3450
  25   2.0000      -0.981288       -26.7022
  26   2.0000      -0.926916       -25.2227
  27   2.0000      -0.904174       -24.6038
  28   2.0000      -0.865933       -23.5632
  29   2.0000      -0.855192       -23.2710
  30   2.0000      -0.840732       -22.8775
  31   2.0000      -0.811580       -22.0842
  32   2.0000      -0.785810       -21.3830
  33   2.0000      -0.774316       -21.0702
  34   2.0000      -0.701804       -19.0970
  35   2.0000      -0.697529       -18.9807
  36   2.0000      -0.692224       -18.8364
  37   2.0000      -0.661231       -17.9930
  38   2.0000      -0.642431       -17.4814
  39   2.0000      -0.612626       -16.6704
  40   2.0000      -0.595914       -16.2156
  41   2.0000      -0.583016       -15.8647
  42   2.0000      -0.570482       -15.5236
  43   2.0000      -0.551546       -15.0083
  44   2.0000      -0.530521       -14.4362
  45   2.0000      -0.526491       -14.3265
  46   2.0000      -0.516565       -14.0564
  47   2.0000      -0.512369       -13.9423
  48   2.0000      -0.508106       -13.8263
  49   2.0000      -0.500705       -13.6249
  50   2.0000      -0.492798       -13.4097
  51   2.0000      -0.478228       -13.0133
  52   2.0000      -0.473941       -12.8966
  53   2.0000      -0.465927       -12.6785
  54   2.0000      -0.456535       -12.4229
  55   2.0000      -0.453606       -12.3433
  56   2.0000      -0.439863       -11.9693
  57   2.0000      -0.434225       -11.8159
  58   2.0000      -0.429168       -11.6782
  59   2.0000      -0.424733       -11.5576
  60   2.0000      -0.422888       -11.5074
  61   2.0000      -0.420697       -11.4477
  62   2.0000      -0.411676       -11.2023
  63   2.0000      -0.342969        -9.3326
  64   2.0000      -0.334269        -9.0959
  65   2.0000      -0.328461        -8.9379
  66   2.0000      -0.299457        -8.1486
  67   0.0000       0.030604         0.8328
  68   0.0000       0.066801         1.8177
  69   0.0000       0.104910         2.8547
  70   0.0000       0.114742         3.1223
  71   0.0000       0.128831         3.5057

MULLIKEN ATOMIC CHARGES
-----------------------
   0 S :    0.116935
   1 C :   -0.123668
   2 C :   -0.077103
   3 C :    0.015593
   4 C :   -0.190684
   5 H :    0.034565
   6 C :    0.091468
   7 H :    0.026388
   8 H :    0.034984
   9 C :   -0.105370
  10 H :    0.048654
  11 H :    0.039263
  12 C :   -0.093283
  13 H :    0.050415
  14 H :    0.018965
  15 H :    0.026999
  16 S :    0.099878
  17 C :   -0.108399
  18 C :   -0.026804
  19 C :   -0.056039
  20 C :   -0.143994
  21 H :    0.012984
  22 C :    0.093998
  23 H :    0.010002
  24 H :    0.021871
  25 C :   -0.097534
  26 H :    0.028223
  27 H :    0.018751
  28 C :    0.020933
  29 H :    0.014608
  30 H :    0.044866
  31 H :    0.026600
  32 H :    0.047869
  33 H :    0.078067
Sum of atomic charges:   -0.0000000

LOEWDIN ATOMIC CHARGES
----------------------
   0 S :    0.419624
   1 C :   -0.193128
   2 C :   -0.065698
   3 C :   -0.080022
   4 C :   -0.201443
   5 H :    0.044682
   6 C :   -0.024529
   7 H :    0.031864
   8 H :    0.033960
   9 C :   -0.051171
  10 H :    0.032267
  11 H :    0.026223
  12 C :   -0.079734
  13 H :    0.037655
  14 H :    0.014265
  15 H :    0.021182
  16 S :    0.374049
  17 C :   -0.181814
  18 C :   -0.066620
  19 C :   -0.048711
  20 C :   -0.187689
  21 H :    0.025906
  22 C :   -0.019795
  23 H :    0.016622
  24 H :    0.028509
  25 C :   -0.047484
  26 H :    0.030020
  27 H :    0.013777
  28 C :   -0.062589
  29 H :    0.025573
  30 H :    0.040752
  31 H :    0.022982
  32 H :    0.030186
  33 H :    0.040327

  Mayer bond orders larger than 0.100000
B(  0-S ,  1-C ) :   1.1258 B(  0-S ,  4-C ) :   1.1861 B(  1-C ,  2-C ) :   1.6350
B(  1-C , 32-H ) :   0.9692 B(  2-C ,  3-C ) :   1.2291 B(  2-C ,  6-C ) :   1.0267
B(  3-C ,  4-C ) :   1.5518 B(  3-C ,  5-H ) :   0.9754 B(  4-C , 20-C ) :   1.0058
B(  6-C ,  7-H ) :   0.9498 B(  6-C ,  8-H ) :   0.9402 B(  6-C ,  9-C ) :   1.0341
B(  9-C , 10-H ) :   0.9642 B(  9-C , 11-H ) :   0.9595 B(  9-C , 12-C ) :   1.0685
B( 12-C , 13-H ) :   0.9754 B( 12-C , 14-H ) :   0.9753 B( 12-C , 15-H ) :   0.9756
B( 16-S , 17-C ) :   1.1333 B( 16-S , 20-C ) :   1.1371 B( 17-C , 18-C ) :   1.6242
B( 17-C , 33-H ) :   0.9644 B( 18-C , 19-C ) :   1.2106 B( 18-C , 21-H ) :   0.9901
B( 19-C , 20-C ) :   1.6266 B( 19-C , 22-C ) :   1.0591 B( 22-C , 23-H ) :   0.9197
B( 22-C , 24-H ) :   0.9273 B( 22-C , 25-C ) :   1.0577 B( 25-C , 26-H ) :   0.9465
B( 25-C , 27-H ) :   0.9471 B( 25-C , 28-C ) :   1.0991 B( 28-C , 29-H ) :   0.9639
B( 28-C , 30-H ) :   0.9648 B( 28-C , 31-H ) :   0.9686

Dispersion correction           -0.014259837
FINAL SINGLE POINT ENERGY     -1339.864395407460

DIPOLE MOMENT
-------------
                                X             Y             Z
Electronic contribution:     13.13131      22.43950     -15.07593
Nuclear contribution   :    -13.70346     -22.82421      15.38825
                        -----------------------------------------
Total Dipole Moment    :     -0.57215      -0.38471       0.31232
                        -----------------------------------------
Magnitude (a.u.)       :      0.75690
Magnitude (Debye)      :      1.92388

Rotational constants in cm-1:     0.019346     0.008258     0.006374
Rotational constants in MHz :   579.969015   247.580864   191.084154

                             ****ORCA TERMINATED NORMALLY****
TOTAL RUN TIME: 0 days 0 hours 0 minutes 21 seconds 694 msec
