                         Program Version 4.2.1 -  RELEASE  -
|  1> ! wB97X-D3 SP def2-SVP
|  2> %pal
|  3> nprocs 24
|  4> end
|  5>
|  6> * xyz 0 1
|  7> S 	 34.4685 	 -31.6817 	 -133.045
|  8> C 	 34.6406 	 -31.2517 	 -131.413
|  9> C 	 35.32 	 -32.1772 	 -130.716
| 10> C 	 35.6769 	 -33.2903 	 -131.487
| 11> C 	 35.3278 	 -33.2053 	 -132.826
| 12> H 	 36.2873 	 -34.1072 	 -131.147
| 13> C 	 35.5122 	 -32.1496 	 -129.201
| 14> H 	 34.8911 	 -32.9776 	 -128.72
| 15> H 	 35.0247 	 -31.3206 	 -128.798
| 16> C 	 36.9997 	 -32.2984 	 -128.747
| 17> H 	 36.9802 	 -32.4062 	 -127.665
| 18> H 	 37.3458 	 -33.2812 	 -129.193
| 19> C 	 37.9091 	 -31.0437 	 -129.201
| 20> H 	 38.8085 	 -31.1237 	 -128.724
| 21> H 	 38.1219 	 -31.0107 	 -130.236
| 22> H 	 37.5005 	 -30.0645 	 -128.84
| 23> S 	 34.6998 	 -33.5878 	 -135.461
| 24> C 	 35.0513 	 -35.1278 	 -136.207
| 25> C 	 35.9413 	 -35.821 	 -135.437
| 26> C 	 36.1821 	 -35.2482 	 -134.153
| 27> C 	 35.4399 	 -34.0751 	 -133.955
| 28> H 	 36.4221 	 -36.6901 	 -135.847
| 29> C 	 37.154 	 -35.8465 	 -133.162
| 30> H 	 37.5242 	 -35.1172 	 -132.431
| 31> H 	 38.0571 	 -36.1153 	 -133.683
| 32> C 	 36.5018 	 -37.0273 	 -132.337
| 33> H 	 36.0014 	 -37.6064 	 -133.082
| 34> H 	 35.6995 	 -36.642 	 -131.669
| 35> C 	 37.6299 	 -37.6874 	 -131.495
| 36> H 	 38.2082 	 -38.3933 	 -132.07
| 37> H 	 37.1651 	 -38.2497 	 -130.684
| 38> H 	 38.3276 	 -36.9717 	 -131.064
| 39> H 	 33.9761 	 -30.5261 	 -130.972
| 40> H 	 34.9355 	 -35.3881 	 -137.275
| 41> *
| 42>
| 43>                          ****END OF INPUT****

CARTESIAN COORDINATES (ANGSTROEM)
---------------------------------
  S     34.468500  -31.681700  -133.045000
  C     34.640600  -31.251700  -131.413000
  C     35.320000  -32.177200  -130.716000
  C     35.676900  -33.290300  -131.487000
  C     35.327800  -33.205300  -132.826000
  H     36.287300  -34.107200  -131.147000
  C     35.512200  -32.149600  -129.201000
  H     34.891100  -32.977600  -128.720000
  H     35.024700  -31.320600  -128.798000
  C     36.999700  -32.298400  -128.747000
  H     36.980200  -32.406200  -127.665000
  H     37.345800  -33.281200  -129.193000
  C     37.909100  -31.043700  -129.201000
  H     38.808500  -31.123700  -128.724000
  H     38.121900  -31.010700  -130.236000
  H     37.500500  -30.064500  -128.840000
  S     34.699800  -33.587800  -135.461000
  C     35.051300  -35.127800  -136.207000
  C     35.941300  -35.821000  -135.437000
  C     36.182100  -35.248200  -134.153000
  C     35.439900  -34.075100  -133.955000
  H     36.422100  -36.690100  -135.847000
  C     37.154000  -35.846500  -133.162000
  H     37.524200  -35.117200  -132.431000
  H     38.057100  -36.115300  -133.683000
  C     36.501800  -37.027300  -132.337000
  H     36.001400  -37.606400  -133.082000
  H     35.699500  -36.642000  -131.669000
  C     37.629900  -37.687400  -131.495000
  H     38.208200  -38.393300  -132.070000
  H     37.165100  -38.249700  -130.684000
  H     38.327600  -36.971700  -131.064000
  H     33.976100  -30.526100  -130.972000
  H     34.935500  -35.388100  -137.275000

 Total Charge           Charge          ....    0
 Multiplicity           Mult            ....    1
 Number of Electrons    NEL             ....  134
 Basis Dimension        Dim             ....  322

ORBITAL ENERGIES
----------------

  NO   OCC          E(Eh)            E(eV)
   0   2.0000     -88.965635     -2420.8780
   1   2.0000     -88.959331     -2420.7065
   2   2.0000     -10.330046      -281.0948
   3   2.0000     -10.328357      -281.0489
   4   2.0000     -10.317919      -280.7648
   5   2.0000     -10.304138      -280.3898
   6   2.0000     -10.303070      -280.3608
   7   2.0000     -10.299890      -280.2743
   8   2.0000     -10.293177      -280.0916
   9   2.0000     -10.292817      -280.0818
  10   2.0000     -10.292512      -280.0735
  11   2.0000     -10.292365      -280.0695
  12   2.0000     -10.291396      -280.0431
  13   2.0000     -10.290057      -280.0067
  14   2.0000     -10.281301      -279.7684
  15   2.0000     -10.274306      -279.5781
  16   2.0000      -8.080531      -219.8824
  17   2.0000      -8.075486      -219.7452
  18   2.0000      -6.039215      -164.3354
  19   2.0000      -6.035135      -164.2244
  20   2.0000      -6.033977      -164.1929
  21   2.0000      -6.030985      -164.1114
  22   2.0000      -6.029777      -164.0786
  23   2.0000      -6.026209      -163.9815
  24   2.0000      -1.014753       -27.6128
  25   2.0000      -0.991019       -26.9670
  26   2.0000      -0.907377       -24.6910
  27   2.0000      -0.903939       -24.5974
  28   2.0000      -0.873321       -23.7643
  29   2.0000      -0.851699       -23.1759
  30   2.0000      -0.840531       -22.8720
  31   2.0000      -0.817800       -22.2535
  32   2.0000      -0.784428       -21.3454
  33   2.0000      -0.772923       -21.0323
  34   2.0000      -0.715938       -19.4817
  35   2.0000      -0.704095       -19.1594
  36   2.0000      -0.694337       -18.8939
  37   2.0000      -0.664127       -18.0718
  38   2.0000      -0.638733       -17.3808
  39   2.0000      -0.630382       -17.1536
  40   2.0000      -0.598369       -16.2824
  41   2.0000      -0.566129       -15.4052
  42   2.0000      -0.558280       -15.1916
  43   2.0000      -0.542193       -14.7538
  44   2.0000      -0.535353       -14.5677
  45   2.0000      -0.524322       -14.2675
  46   2.0000      -0.515555       -14.0290
  47   2.0000      -0.514012       -13.9870
  48   2.0000      -0.507803       -13.8180
  49   2.0000      -0.499808       -13.6005
  50   2.0000      -0.495296       -13.4777
  51   2.0000      -0.482730       -13.1358
  52   2.0000      -0.471534       -12.8311
  53   2.0000      -0.468290       -12.7428
  54   2.0000      -0.462137       -12.5754
  55   2.0000      -0.455627       -12.3982
  56   2.0000      -0.444599       -12.0982
  57   2.0000      -0.435758       -11.8576
  58   2.0000      -0.432492       -11.7687
  59   2.0000      -0.430909       -11.7256
  60   2.0000      -0.423554       -11.5255
  61   2.0000      -0.416782       -11.3412
  62   2.0000      -0.406880       -11.0718
  63   2.0000      -0.367500       -10.0002
  64   2.0000      -0.336418        -9.1544
  65   2.0000      -0.324507        -8.8303
  66   2.0000      -0.279428        -7.6036
  67   0.0000       0.014352         0.3905
  68   0.0000       0.087145         2.3713
  69   0.0000       0.098782         2.6880
  70   0.0000       0.118949         3.2368
  71   0.0000       0.130695         3.5564

MULLIKEN ATOMIC CHARGES
-----------------------
   0 S :    0.077672
   1 C :   -0.112645
   2 C :   -0.064857
   3 C :   -0.004208
   4 C :   -0.120344
   5 H :   -0.007606
   6 C :    0.066271
   7 H :    0.040593
   8 H :   -0.007920
   9 C :   -0.097790
  10 H :    0.033998
  11 H :    0.036891
  12 C :   -0.018327
  13 H :    0.011468
  14 H :    0.041736
  15 H :    0.033103
  16 S :    0.093043
  17 C :   -0.079127
  18 C :   -0.037167
  19 C :   -0.057122
  20 C :   -0.093868
  21 H :    0.012665
  22 C :    0.025063
  23 H :    0.015960
  24 H :    0.025329
  25 C :   -0.071918
  26 H :    0.024616
  27 H :    0.040302
  28 C :   -0.023758
  29 H :    0.031268
  30 H :    0.034037
  31 H :    0.030787
  32 H :    0.052403
  33 H :    0.069454
Sum of atomic charges:    0.0000000

LOEWDIN ATOMIC CHARGES
----------------------
   0 S :    0.409664
   1 C :   -0.209060
   2 C :   -0.070229
   3 C :   -0.069266
   4 C :   -0.172771
   5 H :    0.023584
   6 C :   -0.031690
   7 H :    0.038748
   8 H :    0.014393
   9 C :   -0.034467
  10 H :    0.023134
  11 H :    0.026718
  12 C :   -0.057359
  13 H :    0.013018
  14 H :    0.024355
  15 H :    0.032371
  16 S :    0.402314
  17 C :   -0.191391
  18 C :   -0.070470
  19 C :   -0.055892
  20 C :   -0.194819
  21 H :    0.029695
  22 C :   -0.033337
  23 H :    0.024446
  24 H :    0.029492
  25 C :   -0.032649
  26 H :    0.019870
  27 H :    0.028766
  28 C :   -0.063897
  29 H :    0.024422
  30 H :    0.027067
  31 H :    0.025525
  32 H :    0.029767
  33 H :    0.039948

  Mayer bond orders larger than 0.100000
B(  0-S ,  1-C ) :   1.1485 B(  0-S ,  4-C ) :   1.1460 B(  1-C ,  2-C ) :   1.6145
B(  1-C , 32-H ) :   0.9613 B(  2-C ,  3-C ) :   1.2599 B(  2-C ,  6-C ) :   1.0210
B(  3-C ,  4-C ) :   1.5546 B(  3-C ,  5-H ) :   0.9881 B(  4-C , 20-C ) :   1.1166
B(  6-C ,  7-H ) :   0.9433 B(  6-C ,  8-H ) :   0.9404 B(  6-C ,  9-C ) :   1.0612
B(  9-C , 10-H ) :   0.9587 B(  9-C , 11-H ) :   0.9593 B(  9-C , 12-C ) :   1.0586
B( 12-C , 13-H ) :   0.9752 B( 12-C , 14-H ) :   0.9777 B( 12-C , 15-H ) :   0.9769
B( 16-S , 17-C ) :   1.1441 B( 16-S , 20-C ) :   1.1353 B( 17-C , 18-C ) :   1.6131
B( 17-C , 33-H ) :   0.9612 B( 18-C , 19-C ) :   1.2497 B( 18-C , 21-H ) :   0.9914
B( 19-C , 20-C ) :   1.5584 B( 19-C , 22-C ) :   1.0499 B( 22-C , 23-H ) :   0.9333
B( 22-C , 24-H ) :   0.9388 B( 22-C , 25-C ) :   1.0466 B( 25-C , 26-H ) :   0.9615
B( 25-C , 27-H ) :   0.9584 B( 25-C , 28-C ) :   1.0642 B( 28-C , 29-H ) :   0.9773
B( 28-C , 30-H ) :   0.9763 B( 28-C , 31-H ) :   0.9734

Dispersion correction           -0.014327912
FINAL SINGLE POINT ENERGY     -1339.875668125585

DIPOLE MOMENT
-------------
                                X             Y             Z
Electronic contribution:    -16.27970      10.52524     -23.40664
Nuclear contribution   :     16.70115     -10.97603      23.82445
                        -----------------------------------------
Total Dipole Moment    :      0.42146      -0.45080       0.41781
                        -----------------------------------------
Magnitude (a.u.)       :      0.74526
Magnitude (Debye)      :      1.89429

Rotational constants in cm-1:     0.017268     0.009888     0.006739
Rotational constants in MHz :   517.676974   296.434602   202.024417

                             ****ORCA TERMINATED NORMALLY****
TOTAL RUN TIME: 0 days 0 hours 0 minutes 22 seconds 33 msec
