                         Program Version 4.2.1 -  RELEASE  -
|  1> ! wB97X-D3 SP def2-SVP
|  2> %pal
|  3> nprocs 24
|  4> end
|  5>
|  6> * xyz 0 1
|  7> S 	 -60.4657 	 9.52127 	 -15.5575
|  8> C 	 -60.5447 	 7.98966 	 -14.7526
|  9> C 	 -60.7831 	 6.94302 	 -15.6234
| 10> C 	 -60.9319 	 7.42941 	 -16.9603
| 11> C 	 -60.735 	 8.79365 	 -17.1141
| 12> H 	 -61.2499 	 6.91036 	 -17.859
| 13> C 	 -60.9122 	 5.47634 	 -15.281
| 14> H 	 -61.623 	 5.04963 	 -16.0424
| 15> H 	 -61.4551 	 5.2505 	 -14.3846
| 16> C 	 -59.5397 	 4.78085 	 -15.1558
| 17> H 	 -58.9564 	 5.03648 	 -16.0326
| 18> H 	 -58.9284 	 5.15793 	 -14.2957
| 19> C 	 -59.6186 	 3.18902 	 -15.0345
| 20> H 	 -59.9319 	 2.90149 	 -14.0154
| 21> H 	 -60.266 	 2.70443 	 -15.7608
| 22> H 	 -58.6172 	 2.77469 	 -15.2698
| 23> S 	 -62.2658 	 10.9869 	 -18.1912
| 24> C 	 -61.9504 	 11.3882 	 -19.829
| 25> C 	 -61.0575 	 10.4809 	 -20.4455
| 26> C 	 -60.5153 	 9.5169 	 -19.5389
| 27> C 	 -61.027 	 9.63561 	 -18.2559
| 28> H 	 -60.8408 	 10.556 	 -21.5268
| 29> C 	 -59.4218 	 8.54763 	 -19.8987
| 30> H 	 -59.34 	 7.74544 	 -19.2042
| 31> H 	 -58.5027 	 9.08972 	 -19.9294
| 32> C 	 -59.4081 	 7.92151 	 -21.3367
| 33> H 	 -58.7996 	 7.02901 	 -21.4552
| 34> H 	 -59.1614 	 8.62527 	 -22.0893
| 35> C 	 -60.8449 	 7.42904 	 -21.5752
| 36> H 	 -60.8681 	 6.84979 	 -22.4524
| 37> H 	 -61.6338 	 8.15635 	 -21.8181
| 38> H 	 -61.0961 	 6.75951 	 -20.7712
| 39> H 	 -60.4816 	 7.86913 	 -13.7313
| 40> H 	 -62.6022 	 12.0893 	 -20.358
| 41> *
| 42>
| 43>                          ****END OF INPUT****

CARTESIAN COORDINATES (ANGSTROEM)
---------------------------------
  S    -60.465700    9.521270  -15.557500
  C    -60.544700    7.989660  -14.752600
  C    -60.783100    6.943020  -15.623400
  C    -60.931900    7.429410  -16.960300
  C    -60.735000    8.793650  -17.114100
  H    -61.249900    6.910360  -17.859000
  C    -60.912200    5.476340  -15.281000
  H    -61.623000    5.049630  -16.042400
  H    -61.455100    5.250500  -14.384600
  C    -59.539700    4.780850  -15.155800
  H    -58.956400    5.036480  -16.032600
  H    -58.928400    5.157930  -14.295700
  C    -59.618600    3.189020  -15.034500
  H    -59.931900    2.901490  -14.015400
  H    -60.266000    2.704430  -15.760800
  H    -58.617200    2.774690  -15.269800
  S    -62.265800   10.986900  -18.191200
  C    -61.950400   11.388200  -19.829000
  C    -61.057500   10.480900  -20.445500
  C    -60.515300    9.516900  -19.538900
  C    -61.027000    9.635610  -18.255900
  H    -60.840800   10.556000  -21.526800
  C    -59.421800    8.547630  -19.898700
  H    -59.340000    7.745440  -19.204200
  H    -58.502700    9.089720  -19.929400
  C    -59.408100    7.921510  -21.336700
  H    -58.799600    7.029010  -21.455200
  H    -59.161400    8.625270  -22.089300
  C    -60.844900    7.429040  -21.575200
  H    -60.868100    6.849790  -22.452400
  H    -61.633800    8.156350  -21.818100
  H    -61.096100    6.759510  -20.771200
  H    -60.481600    7.869130  -13.731300
  H    -62.602200   12.089300  -20.358000

 Total Charge           Charge          ....    0
 Multiplicity           Mult            ....    1
 Number of Electrons    NEL             ....  134
 Basis Dimension        Dim             ....  322

ORBITAL ENERGIES
----------------

  NO   OCC          E(Eh)            E(eV)
   0   2.0000     -88.967098     -2420.9178
   1   2.0000     -88.964521     -2420.8477
   2   2.0000     -10.329094      -281.0689
   3   2.0000     -10.325389      -280.9681
   4   2.0000     -10.321679      -280.8672
   5   2.0000     -10.307589      -280.4838
   6   2.0000     -10.305813      -280.4354
   7   2.0000     -10.302211      -280.3374
   8   2.0000     -10.300148      -280.2813
   9   2.0000     -10.295189      -280.1463
  10   2.0000     -10.294364      -280.1239
  11   2.0000     -10.294307      -280.1223
  12   2.0000     -10.285664      -279.8871
  13   2.0000     -10.285548      -279.8840
  14   2.0000     -10.285391      -279.8797
  15   2.0000     -10.266910      -279.3768
  16   2.0000      -8.081170      -219.8998
  17   2.0000      -8.079801      -219.8626
  18   2.0000      -6.039658      -164.3474
  19   2.0000      -6.038200      -164.3078
  20   2.0000      -6.035752      -164.2412
  21   2.0000      -6.034163      -164.1979
  22   2.0000      -6.032003      -164.1391
  23   2.0000      -6.030721      -164.1043
  24   2.0000      -1.004950       -27.3461
  25   2.0000      -0.981334       -26.7035
  26   2.0000      -0.911625       -24.8066
  27   2.0000      -0.906265       -24.6607
  28   2.0000      -0.867976       -23.6188
  29   2.0000      -0.848942       -23.1009
  30   2.0000      -0.842301       -22.9202
  31   2.0000      -0.808722       -22.0065
  32   2.0000      -0.785920       -21.3860
  33   2.0000      -0.772579       -21.0230
  34   2.0000      -0.706563       -19.2265
  35   2.0000      -0.702565       -19.1178
  36   2.0000      -0.696526       -18.9534
  37   2.0000      -0.655683       -17.8420
  38   2.0000      -0.648965       -17.6592
  39   2.0000      -0.616666       -16.7803
  40   2.0000      -0.599377       -16.3099
  41   2.0000      -0.564770       -15.3682
  42   2.0000      -0.564387       -15.3578
  43   2.0000      -0.552659       -15.0386
  44   2.0000      -0.538926       -14.6649
  45   2.0000      -0.525937       -14.3115
  46   2.0000      -0.517425       -14.0799
  47   2.0000      -0.508585       -13.8393
  48   2.0000      -0.502884       -13.6842
  49   2.0000      -0.496070       -13.4988
  50   2.0000      -0.491275       -13.3683
  51   2.0000      -0.484902       -13.1949
  52   2.0000      -0.468430       -12.7466
  53   2.0000      -0.465527       -12.6676
  54   2.0000      -0.458632       -12.4800
  55   2.0000      -0.444424       -12.0934
  56   2.0000      -0.442647       -12.0450
  57   2.0000      -0.440919       -11.9980
  58   2.0000      -0.432875       -11.7791
  59   2.0000      -0.425648       -11.5825
  60   2.0000      -0.424627       -11.5547
  61   2.0000      -0.413726       -11.2581
  62   2.0000      -0.410982       -11.1834
  63   2.0000      -0.345702        -9.4070
  64   2.0000      -0.332839        -9.0570
  65   2.0000      -0.327443        -8.9102
  66   2.0000      -0.289876        -7.8879
  67   0.0000       0.028792         0.7835
  68   0.0000       0.064862         1.7650
  69   0.0000       0.112364         3.0576
  70   0.0000       0.123435         3.3588
  71   0.0000       0.125354         3.4111

MULLIKEN ATOMIC CHARGES
-----------------------
   0 S :    0.111958
   1 C :   -0.083348
   2 C :   -0.078364
   3 C :    0.035658
   4 C :   -0.201133
   5 H :    0.013004
   6 C :    0.066523
   7 H :    0.030802
   8 H :    0.016746
   9 C :   -0.088536
  10 H :    0.027768
  11 H :    0.041478
  12 C :   -0.061427
  13 H :    0.040328
  14 H :    0.030910
  15 H :    0.038051
  16 S :    0.112460
  17 C :   -0.102543
  18 C :   -0.053089
  19 C :   -0.031892
  20 C :   -0.143252
  21 H :    0.033031
  22 C :    0.108918
  23 H :    0.017991
  24 H :    0.034769
  25 C :   -0.079559
  26 H :    0.037811
  27 H :    0.022507
  28 C :   -0.050531
  29 H :    0.005998
  30 H :    0.038571
  31 H :    0.023376
  32 H :    0.014771
  33 H :    0.070245
Sum of atomic charges:   -0.0000000

LOEWDIN ATOMIC CHARGES
----------------------
   0 S :    0.421947
   1 C :   -0.185661
   2 C :   -0.062264
   3 C :   -0.061575
   4 C :   -0.200357
   5 H :    0.030972
   6 C :   -0.037906
   7 H :    0.037627
   8 H :    0.025526
   9 C :   -0.039055
  10 H :    0.020709
  11 H :    0.031136
  12 C :   -0.070581
  13 H :    0.025839
  14 H :    0.022259
  15 H :    0.030340
  16 S :    0.389651
  17 C :   -0.194604
  18 C :   -0.076810
  19 C :   -0.046284
  20 C :   -0.184342
  21 H :    0.035102
  22 C :   -0.025771
  23 H :    0.024723
  24 H :    0.035161
  25 C :   -0.031387
  26 H :    0.030788
  27 H :    0.014896
  28 C :   -0.068798
  29 H :    0.014260
  30 H :    0.028481
  31 H :    0.021612
  32 H :    0.011796
  33 H :    0.032570

  Mayer bond orders larger than 0.100000
B(  0-S ,  1-C ) :   1.1533 B(  0-S ,  4-C ) :   1.1562 B(  1-C ,  2-C ) :   1.5929
B(  1-C , 32-H ) :   0.9801 B(  2-C ,  3-C ) :   1.2509 B(  2-C ,  6-C ) :   1.0255
B(  3-C ,  4-C ) :   1.5666 B(  3-C ,  5-H ) :   0.9873 B(  4-C , 20-C ) :   1.0582
B(  6-C ,  7-H ) :   0.9442 B(  6-C ,  8-H ) :   0.9404 B(  6-C ,  9-C ) :   1.0487
B(  9-C , 10-H ) :   0.9614 B(  9-C , 11-H ) :   0.9578 B(  9-C , 12-C ) :   1.0691
B( 12-C , 13-H ) :   0.9781 B( 12-C , 14-H ) :   0.9785 B( 12-C , 15-H ) :   0.9774
B( 16-S , 17-C ) :   1.1747 B( 16-S , 20-C ) :   1.1167 B( 17-C , 18-C ) :   1.5884
B( 17-C , 33-H ) :   0.9624 B( 18-C , 19-C ) :   1.2424 B( 18-C , 21-H ) :   0.9829
B( 19-C , 20-C ) :   1.5989 B( 19-C , 22-C ) :   1.0491 B( 22-C , 23-H ) :   0.9312
B( 22-C , 24-H ) :   0.9272 B( 22-C , 25-C ) :   1.0727 B( 25-C , 26-H ) :   0.9586
B( 25-C , 27-H ) :   0.9506 B( 25-C , 28-C ) :   1.0900 B( 28-C , 29-H ) :   0.9703
B( 28-C , 30-H ) :   0.9670 B( 28-C , 31-H ) :   0.9763

Dispersion correction           -0.014362868
FINAL SINGLE POINT ENERGY     -1339.877012127276

DIPOLE MOMENT
-------------
                                X             Y             Z
Electronic contribution:     -7.97866      27.66491       8.13862
Nuclear contribution   :      8.05890     -28.25060      -8.49113
                        -----------------------------------------
Total Dipole Moment    :      0.08024      -0.58568      -0.35251
                        -----------------------------------------
Magnitude (a.u.)       :      0.68828
Magnitude (Debye)      :      1.74946

Rotational constants in cm-1:     0.019397     0.008351     0.006301
Rotational constants in MHz :   581.503971   250.365650   188.893156

                             ****ORCA TERMINATED NORMALLY****
TOTAL RUN TIME: 0 days 0 hours 0 minutes 20 seconds 498 msec
