                         Program Version 4.2.1 -  RELEASE  -
|  1> ! wB97X-D3 SP def2-SVP
|  2> %pal
|  3> nprocs 24
|  4> end
|  5>
|  6> * xyz 0 1
|  7> S 	 -69.6786 	 8.47569 	 -77.8292
|  8> C 	 -69.6496 	 8.53896 	 -79.5918
|  9> C 	 -70.5796 	 7.65569 	 -80.1783
| 10> C 	 -71.336 	 7.05871 	 -79.1465
| 11> C 	 -71.0886 	 7.41702 	 -77.8392
| 12> H 	 -72.1648 	 6.47664 	 -79.2568
| 13> C 	 -70.7904 	 7.35699 	 -81.6314
| 14> H 	 -71.7294 	 7.72592 	 -82.0432
| 15> H 	 -70.8011 	 6.29449 	 -81.6822
| 16> C 	 -69.713 	 7.80114 	 -82.7028
| 17> H 	 -70.2524 	 7.84134 	 -83.6617
| 18> H 	 -69.4585 	 8.85282 	 -82.4023
| 19> C 	 -68.4108 	 6.97081 	 -82.6296
| 20> H 	 -68.1803 	 6.78227 	 -81.6051
| 21> H 	 -68.6287 	 5.98612 	 -82.9532
| 22> H 	 -67.5872 	 7.45794 	 -83.2012
| 23> S 	 -72.5792 	 8.3501 	 -75.697
| 24> C 	 -72.8849 	 7.24451 	 -74.3828
| 25> C 	 -72.7839 	 5.96797 	 -74.8291
| 26> C 	 -72.1978 	 5.83716 	 -76.1325
| 27> C 	 -71.8673 	 7.05529 	 -76.6678
| 28> H 	 -73.0949 	 5.22065 	 -74.1654
| 29> C 	 -71.989 	 4.55857 	 -76.8921
| 30> H 	 -72.4257 	 4.76458 	 -77.8986
| 31> H 	 -72.6849 	 3.86836 	 -76.4099
| 32> C 	 -70.528 	 3.9247 	 -76.9105
| 33> H 	 -70.4333 	 3.42711 	 -75.9147
| 34> H 	 -69.7888 	 4.69012 	 -76.9199
| 35> C 	 -70.3362 	 2.89324 	 -78.0514
| 36> H 	 -70.235 	 3.38041 	 -79.0174
| 37> H 	 -71.2573 	 2.31898 	 -78.2117
| 38> H 	 -69.4638 	 2.26822 	 -77.8991
| 39> H 	 -68.8568 	 9.11015 	 -80.1026
| 40> H 	 -73.3391 	 7.47196 	 -73.4289
| 41> *
| 42>
| 43>                          ****END OF INPUT****

CARTESIAN COORDINATES (ANGSTROEM)
---------------------------------
  S    -69.678600    8.475690  -77.829200
  C    -69.649600    8.538960  -79.591800
  C    -70.579600    7.655690  -80.178300
  C    -71.336000    7.058710  -79.146500
  C    -71.088600    7.417020  -77.839200
  H    -72.164800    6.476640  -79.256800
  C    -70.790400    7.356990  -81.631400
  H    -71.729400    7.725920  -82.043200
  H    -70.801100    6.294490  -81.682200
  C    -69.713000    7.801140  -82.702800
  H    -70.252400    7.841340  -83.661700
  H    -69.458500    8.852820  -82.402300
  C    -68.410800    6.970810  -82.629600
  H    -68.180300    6.782270  -81.605100
  H    -68.628700    5.986120  -82.953200
  H    -67.587200    7.457940  -83.201200
  S    -72.579200    8.350100  -75.697000
  C    -72.884900    7.244510  -74.382800
  C    -72.783900    5.967970  -74.829100
  C    -72.197800    5.837160  -76.132500
  C    -71.867300    7.055290  -76.667800
  H    -73.094900    5.220650  -74.165400
  C    -71.989000    4.558570  -76.892100
  H    -72.425700    4.764580  -77.898600
  H    -72.684900    3.868360  -76.409900
  C    -70.528000    3.924700  -76.910500
  H    -70.433300    3.427110  -75.914700
  H    -69.788800    4.690120  -76.919900
  C    -70.336200    2.893240  -78.051400
  H    -70.235000    3.380410  -79.017400
  H    -71.257300    2.318980  -78.211700
  H    -69.463800    2.268220  -77.899100
  H    -68.856800    9.110150  -80.102600
  H    -73.339100    7.471960  -73.428900

 Total Charge           Charge          ....    0
 Multiplicity           Mult            ....    1
 Number of Electrons    NEL             ....  134
 Basis Dimension        Dim             ....  322

ORBITAL ENERGIES
----------------

  NO   OCC          E(Eh)            E(eV)
   0   2.0000     -88.966453     -2420.9003
   1   2.0000     -88.960431     -2420.7364
   2   2.0000     -10.328147      -281.0432
   3   2.0000     -10.322944      -280.9016
   4   2.0000     -10.321958      -280.8747
   5   2.0000     -10.312963      -280.6300
   6   2.0000     -10.307065      -280.4695
   7   2.0000     -10.301049      -280.3058
   8   2.0000     -10.295897      -280.1656
   9   2.0000     -10.295512      -280.1551
  10   2.0000     -10.293734      -280.1067
  11   2.0000     -10.290909      -280.0299
  12   2.0000     -10.287816      -279.9457
  13   2.0000     -10.285732      -279.8890
  14   2.0000     -10.278627      -279.6957
  15   2.0000     -10.277390      -279.6620
  16   2.0000      -8.080630      -219.8851
  17   2.0000      -8.075367      -219.7419
  18   2.0000      -6.039097      -164.3322
  19   2.0000      -6.035149      -164.2247
  20   2.0000      -6.033953      -164.1922
  21   2.0000      -6.031528      -164.1262
  22   2.0000      -6.029965      -164.0837
  23   2.0000      -6.025898      -163.9730
  24   2.0000      -1.006868       -27.3983
  25   2.0000      -0.984735       -26.7960
  26   2.0000      -0.910518       -24.7765
  27   2.0000      -0.900812       -24.5123
  28   2.0000      -0.868608       -23.6360
  29   2.0000      -0.852451       -23.1964
  30   2.0000      -0.846722       -23.0405
  31   2.0000      -0.815843       -22.2002
  32   2.0000      -0.785285       -21.3687
  33   2.0000      -0.770777       -20.9739
  34   2.0000      -0.709410       -19.3040
  35   2.0000      -0.707375       -19.2486
  36   2.0000      -0.693690       -18.8763
  37   2.0000      -0.662873       -18.0377
  38   2.0000      -0.646463       -17.5912
  39   2.0000      -0.612904       -16.6780
  40   2.0000      -0.588742       -16.0205
  41   2.0000      -0.579791       -15.7769
  42   2.0000      -0.557776       -15.1779
  43   2.0000      -0.552451       -15.0330
  44   2.0000      -0.537911       -14.6373
  45   2.0000      -0.527288       -14.3482
  46   2.0000      -0.520815       -14.1721
  47   2.0000      -0.511835       -13.9277
  48   2.0000      -0.506551       -13.7840
  49   2.0000      -0.497546       -13.5389
  50   2.0000      -0.489041       -13.3075
  51   2.0000      -0.484274       -13.1778
  52   2.0000      -0.476051       -12.9540
  53   2.0000      -0.469172       -12.7668
  54   2.0000      -0.456113       -12.4115
  55   2.0000      -0.444935       -12.1073
  56   2.0000      -0.441685       -12.0189
  57   2.0000      -0.435633       -11.8542
  58   2.0000      -0.433057       -11.7841
  59   2.0000      -0.427970       -11.6456
  60   2.0000      -0.423675       -11.5288
  61   2.0000      -0.415311       -11.3012
  62   2.0000      -0.412742       -11.2313
  63   2.0000      -0.342606        -9.3228
  64   2.0000      -0.330595        -8.9959
  65   2.0000      -0.325557        -8.8589
  66   2.0000      -0.295580        -8.0432
  67   0.0000       0.026618         0.7243
  68   0.0000       0.067743         1.8434
  69   0.0000       0.107527         2.9260
  70   0.0000       0.113992         3.1019
  71   0.0000       0.131807         3.5867

MULLIKEN ATOMIC CHARGES
-----------------------
   0 S :    0.117875
   1 C :   -0.154646
   2 C :   -0.048104
   3 C :    0.055302
   4 C :   -0.152495
   5 H :   -0.031952
   6 C :    0.052242
   7 H :    0.043772
   8 H :    0.018788
   9 C :   -0.106506
  10 H :    0.039484
  11 H :    0.029588
  12 C :   -0.021645
  13 H :    0.025275
  14 H :    0.014858
  15 H :    0.054091
  16 S :    0.104324
  17 C :   -0.084160
  18 C :   -0.026904
  19 C :   -0.017786
  20 C :   -0.190194
  21 H :   -0.004599
  22 C :    0.041441
  23 H :    0.029388
  24 H :    0.018083
  25 C :   -0.042685
  26 H :    0.031262
  27 H :    0.034005
  28 C :   -0.043570
  29 H :    0.026149
  30 H :    0.028540
  31 H :    0.042213
  32 H :    0.065004
  33 H :    0.053562
Sum of atomic charges:    0.0000000

LOEWDIN ATOMIC CHARGES
----------------------
   0 S :    0.400455
   1 C :   -0.193600
   2 C :   -0.063129
   3 C :   -0.050435
   4 C :   -0.193268
   5 H :    0.012043
   6 C :   -0.032201
   7 H :    0.036142
   8 H :    0.027191
   9 C :   -0.040909
  10 H :    0.026967
  11 H :    0.022969
  12 C :   -0.065398
  13 H :    0.024658
  14 H :    0.019663
  15 H :    0.034667
  16 S :    0.393688
  17 C :   -0.180812
  18 C :   -0.069749
  19 C :   -0.056148
  20 C :   -0.193211
  21 H :    0.023170
  22 C :   -0.035437
  23 H :    0.031174
  24 H :    0.030312
  25 C :   -0.030313
  26 H :    0.028892
  27 H :    0.019174
  28 C :   -0.066715
  29 H :    0.024817
  30 H :    0.026588
  31 H :    0.027414
  32 H :    0.030003
  33 H :    0.031336

  Mayer bond orders larger than 0.100000
B(  0-S ,  1-C ) :   1.1568 B(  0-S ,  4-C ) :   1.1359 B(  1-C ,  2-C ) :   1.5684
B(  1-C ,  4-C ) :   0.1001 B(  1-C , 32-H ) :   0.9612 B(  2-C ,  3-C ) :   1.2571
B(  2-C ,  6-C ) :   1.0091 B(  3-C ,  4-C ) :   1.5734 B(  3-C ,  5-H ) :   1.0045
B(  4-C , 20-C ) :   1.0570 B(  6-C ,  7-H ) :   0.9385 B(  6-C ,  8-H ) :   0.9412
B(  6-C ,  9-C ) :   1.0773 B(  9-C , 10-H ) :   0.9593 B(  9-C , 11-H ) :   0.9554
B(  9-C , 12-C ) :   1.0664 B( 12-C , 13-H ) :   0.9743 B( 12-C , 14-H ) :   0.9711
B( 12-C , 15-H ) :   0.9758 B( 16-S , 17-C ) :   1.1429 B( 16-S , 20-C ) :   1.1371
B( 17-C , 18-C ) :   1.6305 B( 17-C , 33-H ) :   0.9651 B( 18-C , 19-C ) :   1.2201
B( 18-C , 21-H ) :   1.0001 B( 19-C , 20-C ) :   1.6015 B( 19-C , 22-C ) :   1.0342
B( 22-C , 23-H ) :   0.9449 B( 22-C , 24-H ) :   0.9264 B( 22-C , 25-C ) :   1.0379
B( 25-C , 26-H ) :   0.9550 B( 25-C , 27-H ) :   0.9669 B( 25-C , 28-C ) :   1.0730
B( 28-C , 29-H ) :   0.9755 B( 28-C , 30-H ) :   0.9746 B( 28-C , 31-H ) :   0.9753

Dispersion correction           -0.014628433
FINAL SINGLE POINT ENERGY     -1339.869632761835

DIPOLE MOMENT
-------------
                                X             Y             Z
Electronic contribution:     -7.44292      18.58080      20.34647
Nuclear contribution   :      7.31908     -19.14271     -20.71597
                        -----------------------------------------
Total Dipole Moment    :     -0.12384      -0.56191      -0.36950
                        -----------------------------------------
Magnitude (a.u.)       :      0.68382
Magnitude (Debye)      :      1.73814

Rotational constants in cm-1:     0.020544     0.008475     0.006705
Rotational constants in MHz :   615.896193   254.067580   201.021220

                             ****ORCA TERMINATED NORMALLY****
TOTAL RUN TIME: 0 days 0 hours 0 minutes 21 seconds 902 msec
