                         Program Version 4.2.1 -  RELEASE  -
|  1> ! wB97X-D3 SP def2-SVP
|  2> %pal
|  3> nprocs 24
|  4> end
|  5>
|  6> * xyz 0 1
|  7> S 	 -40.2739 	 -0.574286 	 -5.77096
|  8> C 	 -39.6468 	 0.301522 	 -4.43029
|  9> C 	 -39.1562 	 1.50008 	 -4.83023
| 10> C 	 -39.0506 	 1.64042 	 -6.26147
| 11> C 	 -39.7082 	 0.638729 	 -6.91875
| 12> H 	 -38.8617 	 2.61125 	 -6.78151
| 13> C 	 -38.6877 	 2.55913 	 -3.85266
| 14> H 	 -39.4098 	 2.53771 	 -3.03339
| 15> H 	 -38.7889 	 3.59828 	 -4.2346
| 16> C 	 -37.2484 	 2.38244 	 -3.37426
| 17> H 	 -37.2135 	 1.44987 	 -2.85565
| 18> H 	 -36.5563 	 2.36755 	 -4.19925
| 19> C 	 -36.9092 	 3.4088 	 -2.34769
| 20> H 	 -36.7534 	 4.26171 	 -2.97417
| 21> H 	 -37.7094 	 3.60389 	 -1.58967
| 22> H 	 -35.9157 	 3.35255 	 -1.84053
| 23> S 	 -38.4767 	 0.640293 	 -9.37681
| 24> C 	 -39.3876 	 0.124714 	 -10.7896
| 25> C 	 -40.7449 	 0.0396746 	 -10.4988
| 26> C 	 -41.0801 	 0.250729 	 -9.14154
| 27> C 	 -39.9122 	 0.567206 	 -8.36049
| 28> H 	 -41.3806 	 -0.244637 	 -11.2942
| 29> C 	 -42.4787 	 0.159477 	 -8.57542
| 30> H 	 -43.1516 	 0.778476 	 -9.17668
| 31> H 	 -42.4357 	 0.552364 	 -7.53821
| 32> C 	 -43.1373 	 -1.1733 	 -8.57084
| 33> H 	 -42.6451 	 -1.8887 	 -7.89769
| 34> H 	 -43.0973 	 -1.51329 	 -9.59556
| 35> C 	 -44.6309 	 -1.00561 	 -8.19764
| 36> H 	 -45.0836 	 -0.416909 	 -8.95151
| 37> H 	 -44.8601 	 -0.508434 	 -7.23183
| 38> H 	 -45.1862 	 -2.00355 	 -8.22786
| 39> H 	 -39.9849 	 0.102174 	 -3.44794
| 40> H 	 -39.0782 	 0.103102 	 -11.7607
| 41> *
| 42>
| 43>                          ****END OF INPUT****

CARTESIAN COORDINATES (ANGSTROEM)
---------------------------------
  S    -40.273900   -0.574286   -5.770960
  C    -39.646800    0.301522   -4.430290
  C    -39.156200    1.500080   -4.830230
  C    -39.050600    1.640420   -6.261470
  C    -39.708200    0.638729   -6.918750
  H    -38.861700    2.611250   -6.781510
  C    -38.687700    2.559130   -3.852660
  H    -39.409800    2.537710   -3.033390
  H    -38.788900    3.598280   -4.234600
  C    -37.248400    2.382440   -3.374260
  H    -37.213500    1.449870   -2.855650
  H    -36.556300    2.367550   -4.199250
  C    -36.909200    3.408800   -2.347690
  H    -36.753400    4.261710   -2.974170
  H    -37.709400    3.603890   -1.589670
  H    -35.915700    3.352550   -1.840530
  S    -38.476700    0.640293   -9.376810
  C    -39.387600    0.124714  -10.789600
  C    -40.744900    0.039675  -10.498800
  C    -41.080100    0.250729   -9.141540
  C    -39.912200    0.567206   -8.360490
  H    -41.380600   -0.244637  -11.294200
  C    -42.478700    0.159477   -8.575420
  H    -43.151600    0.778476   -9.176680
  H    -42.435700    0.552364   -7.538210
  C    -43.137300   -1.173300   -8.570840
  H    -42.645100   -1.888700   -7.897690
  H    -43.097300   -1.513290   -9.595560
  C    -44.630900   -1.005610   -8.197640
  H    -45.083600   -0.416909   -8.951510
  H    -44.860100   -0.508434   -7.231830
  H    -45.186200   -2.003550   -8.227860
  H    -39.984900    0.102174   -3.447940
  H    -39.078200    0.103102  -11.760700

 Total Charge           Charge          ....    0
 Multiplicity           Mult            ....    1
 Number of Electrons    NEL             ....  134
 Basis Dimension        Dim             ....  322

ORBITAL ENERGIES
----------------

  NO   OCC          E(Eh)            E(eV)
   0   2.0000     -88.969533     -2420.9841
   1   2.0000     -88.965423     -2420.8722
   2   2.0000     -10.331369      -281.1308
   3   2.0000     -10.330828      -281.1161
   4   2.0000     -10.313052      -280.6324
   5   2.0000     -10.308390      -280.5055
   6   2.0000     -10.306101      -280.4433
   7   2.0000     -10.299563      -280.2654
   8   2.0000     -10.295023      -280.1418
   9   2.0000     -10.292436      -280.0714
  10   2.0000     -10.291986      -280.0592
  11   2.0000     -10.288077      -279.9528
  12   2.0000     -10.282762      -279.8082
  13   2.0000     -10.280724      -279.7527
  14   2.0000     -10.278358      -279.6883
  15   2.0000     -10.276458      -279.6366
  16   2.0000      -8.083503      -219.9633
  17   2.0000      -8.080408      -219.8791
  18   2.0000      -6.041983      -164.4107
  19   2.0000      -6.038975      -164.3289
  20   2.0000      -6.038016      -164.3028
  21   2.0000      -6.034876      -164.2173
  22   2.0000      -6.034433      -164.2053
  23   2.0000      -6.031092      -164.1144
  24   2.0000      -1.007748       -27.4222
  25   2.0000      -0.984560       -26.7912
  26   2.0000      -0.917369       -24.9629
  27   2.0000      -0.915736       -24.9184
  28   2.0000      -0.875362       -23.8198
  29   2.0000      -0.852424       -23.1956
  30   2.0000      -0.846394       -23.0315
  31   2.0000      -0.818169       -22.2635
  32   2.0000      -0.778873       -21.1942
  33   2.0000      -0.767103       -20.8739
  34   2.0000      -0.707829       -19.2610
  35   2.0000      -0.698437       -19.0054
  36   2.0000      -0.695432       -18.9237
  37   2.0000      -0.664923       -18.0935
  38   2.0000      -0.641643       -17.4600
  39   2.0000      -0.616683       -16.7808
  40   2.0000      -0.597224       -16.2513
  41   2.0000      -0.576945       -15.6995
  42   2.0000      -0.575284       -15.6543
  43   2.0000      -0.567506       -15.4426
  44   2.0000      -0.524785       -14.2801
  45   2.0000      -0.524047       -14.2600
  46   2.0000      -0.514727       -14.0064
  47   2.0000      -0.509079       -13.8527
  48   2.0000      -0.507890       -13.8204
  49   2.0000      -0.500349       -13.6152
  50   2.0000      -0.493785       -13.4366
  51   2.0000      -0.478666       -13.0252
  52   2.0000      -0.468644       -12.7525
  53   2.0000      -0.465747       -12.6736
  54   2.0000      -0.460981       -12.5439
  55   2.0000      -0.444420       -12.0933
  56   2.0000      -0.442873       -12.0512
  57   2.0000      -0.437849       -11.9145
  58   2.0000      -0.435343       -11.8463
  59   2.0000      -0.423661       -11.5284
  60   2.0000      -0.423219       -11.5164
  61   2.0000      -0.419059       -11.4032
  62   2.0000      -0.407943       -11.1007
  63   2.0000      -0.349458        -9.5092
  64   2.0000      -0.334685        -9.1072
  65   2.0000      -0.327275        -8.9056
  66   2.0000      -0.293200        -7.9784
  67   0.0000       0.024991         0.6801
  68   0.0000       0.070740         1.9249
  69   0.0000       0.100579         2.7369
  70   0.0000       0.118853         3.2342
  71   0.0000       0.131020         3.5652

MULLIKEN ATOMIC CHARGES
-----------------------
   0 S :    0.105238
   1 C :   -0.093578
   2 C :   -0.099297
   3 C :    0.004284
   4 C :   -0.132466
   5 H :    0.041406
   6 C :    0.024204
   7 H :    0.017802
   8 H :    0.018115
   9 C :   -0.022675
  10 H :    0.015014
  11 H :    0.030511
  12 C :   -0.051982
  13 H :    0.011579
  14 H :    0.040564
  15 H :    0.039039
  16 S :    0.119622
  17 C :   -0.050928
  18 C :   -0.044988
  19 C :    0.001099
  20 C :   -0.174468
  21 H :    0.007695
  22 C :    0.045737
  23 H :    0.019040
  24 H :    0.028473
  25 C :   -0.053343
  26 H :    0.034643
  27 H :    0.020355
  28 C :   -0.063037
  29 H :    0.015087
  30 H :    0.039671
  31 H :    0.042753
  32 H :    0.042284
  33 H :    0.022546
Sum of atomic charges:   -0.0000000

LOEWDIN ATOMIC CHARGES
----------------------
   0 S :    0.412805
   1 C :   -0.202945
   2 C :   -0.058340
   3 C :   -0.076768
   4 C :   -0.187774
   5 H :    0.042559
   6 C :   -0.032038
   7 H :    0.028262
   8 H :    0.028377
   9 C :   -0.035722
  10 H :    0.018168
  11 H :    0.025735
  12 C :   -0.073035
  13 H :    0.020716
  14 H :    0.030246
  15 H :    0.030797
  16 S :    0.415234
  17 C :   -0.170749
  18 C :   -0.064710
  19 C :   -0.050025
  20 C :   -0.198918
  21 H :    0.025762
  22 C :   -0.038988
  23 H :    0.032301
  24 H :    0.028710
  25 C :   -0.037541
  26 H :    0.023071
  27 H :    0.022228
  28 C :   -0.068709
  29 H :    0.015745
  30 H :    0.028170
  31 H :    0.033841
  32 H :    0.022356
  33 H :    0.011180

  Mayer bond orders larger than 0.100000
B(  0-S ,  1-C ) :   1.1299 B(  0-S ,  4-C ) :   1.1434 B(  1-C ,  2-C ) :   1.6371
B(  1-C , 32-H ) :   0.9646 B(  2-C ,  3-C ) :   1.2381 B(  2-C ,  6-C ) :   1.0261
B(  3-C ,  4-C ) :   1.5796 B(  3-C ,  5-H ) :   0.9799 B(  4-C , 20-C ) :   1.0480
B(  6-C ,  7-H ) :   0.9381 B(  6-C ,  8-H ) :   0.9447 B(  6-C ,  9-C ) :   1.0651
B(  9-C , 10-H ) :   0.9524 B(  9-C , 11-H ) :   0.9567 B(  9-C , 12-C ) :   1.0767
B( 12-C , 13-H ) :   0.9734 B( 12-C , 14-H ) :   0.9717 B( 12-C , 15-H ) :   0.9715
B( 16-S , 17-C ) :   1.1576 B( 16-S , 20-C ) :   1.1570 B( 17-C , 18-C ) :   1.5964
B( 17-C , 20-C ) :   0.1094 B( 17-C , 33-H ) :   0.9737 B( 18-C , 19-C ) :   1.2581
B( 18-C , 21-H ) :   0.9940 B( 19-C , 20-C ) :   1.5301 B( 19-C , 22-C ) :   1.0494
B( 22-C , 23-H ) :   0.9325 B( 22-C , 24-H ) :   0.9283 B( 22-C , 25-C ) :   1.0717
B( 25-C , 26-H ) :   0.9512 B( 25-C , 27-H ) :   0.9527 B( 25-C , 28-C ) :   1.0807
B( 28-C , 29-H ) :   0.9722 B( 28-C , 30-H ) :   0.9757 B( 28-C , 31-H ) :   0.9740

Dispersion correction           -0.013714680
FINAL SINGLE POINT ENERGY     -1339.877219155372

DIPOLE MOMENT
-------------
                                X             Y             Z
Electronic contribution:      8.02412      -6.66100     -12.62933
Nuclear contribution   :     -8.35323       6.97357      12.64950
                        -----------------------------------------
Total Dipole Moment    :     -0.32910       0.31257       0.02016
                        -----------------------------------------
Magnitude (a.u.)       :      0.45433
Magnitude (Debye)      :      1.15482

Rotational constants in cm-1:     0.021968     0.007410     0.005933
Rotational constants in MHz :   658.594467   222.150185   177.871047

                             ****ORCA TERMINATED NORMALLY****
TOTAL RUN TIME: 0 days 0 hours 0 minutes 22 seconds 97 msec
