                         Program Version 4.2.1 -  RELEASE  -
|  1> ! wB97X-D3 SP def2-SVP
|  2> %pal
|  3> nprocs 24
|  4> end
|  5>
|  6> * xyz 0 1
|  7> S 	 -109.916 	 60.5571 	 -73.3897
|  8> C 	 -108.95 	 61.9128 	 -72.9483
|  9> C 	 -109.633 	 63.0627 	 -72.5766
| 10> C 	 -111.027 	 62.7589 	 -72.4929
| 11> C 	 -111.314 	 61.3939 	 -72.7486
| 12> H 	 -111.855 	 63.4181 	 -72.2757
| 13> C 	 -109.015 	 64.4703 	 -72.4248
| 14> H 	 -108.074 	 64.3485 	 -71.9571
| 15> H 	 -109.59 	 65.0389 	 -71.7021
| 16> C 	 -108.663 	 65.3611 	 -73.684
| 17> H 	 -108.12 	 66.2452 	 -73.3065
| 18> H 	 -107.79 	 64.9267 	 -74.1346
| 19> C 	 -109.915 	 65.438 	 -74.675
| 20> H 	 -109.702 	 66.0817 	 -75.5084
| 21> H 	 -110.156 	 64.4717 	 -75.0751
| 22> H 	 -110.774 	 65.8669 	 -74.1886
| 23> S 	 -113.52 	 60.9631 	 -71.195
| 24> C 	 -114.7 	 59.8221 	 -71.8149
| 25> C 	 -114.554 	 59.4756 	 -73.1201
| 26> C 	 -113.36 	 60.027 	 -73.7617
| 27> C 	 -112.658 	 60.762 	 -72.7272
| 28> H 	 -115.368 	 58.8606 	 -73.5675
| 29> C 	 -113.048 	 59.9881 	 -75.256
| 30> H 	 -112.053 	 60.3316 	 -75.5136
| 31> H 	 -113.713 	 60.7264 	 -75.7196
| 32> C 	 -113.336 	 58.5171 	 -75.8468
| 33> H 	 -114.382 	 58.238 	 -75.8322
| 34> H 	 -112.73 	 57.7923 	 -75.2878
| 35> C 	 -112.894 	 58.405 	 -77.2846
| 36> H 	 -113.694 	 58.7274 	 -77.9769
| 37> H 	 -112.715 	 57.3751 	 -77.5638
| 38> H 	 -112.036 	 58.9671 	 -77.5308
| 39> H 	 -107.868 	 62.1313 	 -73.1806
| 40> H 	 -115.544 	 59.4445 	 -71.2866
| 41> *
| 42>
| 43>                          ****END OF INPUT****

CARTESIAN COORDINATES (ANGSTROEM)
---------------------------------
  S    -109.916000   60.557100  -73.389700
  C    -108.950000   61.912800  -72.948300
  C    -109.633000   63.062700  -72.576600
  C    -111.027000   62.758900  -72.492900
  C    -111.314000   61.393900  -72.748600
  H    -111.855000   63.418100  -72.275700
  C    -109.015000   64.470300  -72.424800
  H    -108.074000   64.348500  -71.957100
  H    -109.590000   65.038900  -71.702100
  C    -108.663000   65.361100  -73.684000
  H    -108.120000   66.245200  -73.306500
  H    -107.790000   64.926700  -74.134600
  C    -109.915000   65.438000  -74.675000
  H    -109.702000   66.081700  -75.508400
  H    -110.156000   64.471700  -75.075100
  H    -110.774000   65.866900  -74.188600
  S    -113.520000   60.963100  -71.195000
  C    -114.700000   59.822100  -71.814900
  C    -114.554000   59.475600  -73.120100
  C    -113.360000   60.027000  -73.761700
  C    -112.658000   60.762000  -72.727200
  H    -115.368000   58.860600  -73.567500
  C    -113.048000   59.988100  -75.256000
  H    -112.053000   60.331600  -75.513600
  H    -113.713000   60.726400  -75.719600
  C    -113.336000   58.517100  -75.846800
  H    -114.382000   58.238000  -75.832200
  H    -112.730000   57.792300  -75.287800
  C    -112.894000   58.405000  -77.284600
  H    -113.694000   58.727400  -77.976900
  H    -112.715000   57.375100  -77.563800
  H    -112.036000   58.967100  -77.530800
  H    -107.868000   62.131300  -73.180600
  H    -115.544000   59.444500  -71.286600

 Total Charge           Charge          ....    0
 Multiplicity           Mult            ....    1
 Number of Electrons    NEL             ....  134
 Basis Dimension        Dim             ....  322

ORBITAL ENERGIES
----------------

  NO   OCC          E(Eh)            E(eV)
   0   2.0000     -88.972565     -2421.0666
   1   2.0000     -88.968419     -2420.9538
   2   2.0000     -10.332130      -281.1516
   3   2.0000     -10.329025      -281.0670
   4   2.0000     -10.315225      -280.6915
   5   2.0000     -10.311315      -280.5852
   6   2.0000     -10.309654      -280.5400
   7   2.0000     -10.301751      -280.3249
   8   2.0000     -10.301504      -280.3182
   9   2.0000     -10.296248      -280.1751
  10   2.0000     -10.295249      -280.1480
  11   2.0000     -10.294065      -280.1157
  12   2.0000     -10.291546      -280.0472
  13   2.0000     -10.290472      -280.0180
  14   2.0000     -10.278339      -279.6878
  15   2.0000     -10.271290      -279.4960
  16   2.0000      -8.086888      -220.0554
  17   2.0000      -8.082595      -219.9386
  18   2.0000      -6.045285      -164.5006
  19   2.0000      -6.041656      -164.4018
  20   2.0000      -6.041002      -164.3840
  21   2.0000      -6.037599      -164.2914
  22   2.0000      -6.037512      -164.2890
  23   2.0000      -6.033175      -164.1710
  24   2.0000      -0.999411       -27.1954
  25   2.0000      -0.977644       -26.6031
  26   2.0000      -0.903718       -24.5914
  27   2.0000      -0.900107       -24.4932
  28   2.0000      -0.860165       -23.4063
  29   2.0000      -0.851579       -23.1726
  30   2.0000      -0.843392       -22.9499
  31   2.0000      -0.808834       -22.0095
  32   2.0000      -0.786602       -21.4045
  33   2.0000      -0.767310       -20.8796
  34   2.0000      -0.710409       -19.3312
  35   2.0000      -0.702861       -19.1258
  36   2.0000      -0.692455       -18.8427
  37   2.0000      -0.648191       -17.6382
  38   2.0000      -0.628849       -17.1118
  39   2.0000      -0.608336       -16.5537
  40   2.0000      -0.593019       -16.1369
  41   2.0000      -0.567391       -15.4395
  42   2.0000      -0.564608       -15.3638
  43   2.0000      -0.541636       -14.7387
  44   2.0000      -0.534922       -14.5560
  45   2.0000      -0.526135       -14.3169
  46   2.0000      -0.515180       -14.0188
  47   2.0000      -0.500259       -13.6128
  48   2.0000      -0.498824       -13.5737
  49   2.0000      -0.486147       -13.2287
  50   2.0000      -0.484414       -13.1816
  51   2.0000      -0.470840       -12.8122
  52   2.0000      -0.468072       -12.7369
  53   2.0000      -0.464891       -12.6503
  54   2.0000      -0.463106       -12.6018
  55   2.0000      -0.454382       -12.3644
  56   2.0000      -0.443729       -12.0745
  57   2.0000      -0.442263       -12.0346
  58   2.0000      -0.436708       -11.8834
  59   2.0000      -0.426609       -11.6086
  60   2.0000      -0.423325       -11.5193
  61   2.0000      -0.421941       -11.4816
  62   2.0000      -0.414342       -11.2748
  63   2.0000      -0.342782        -9.3276
  64   2.0000      -0.332235        -9.0406
  65   2.0000      -0.327167        -8.9027
  66   2.0000      -0.282228        -7.6798
  67   0.0000       0.028213         0.7677
  68   0.0000       0.067978         1.8498
  69   0.0000       0.094784         2.5792
  70   0.0000       0.118079         3.2131
  71   0.0000       0.134883         3.6704

MULLIKEN ATOMIC CHARGES
-----------------------
   0 S :    0.138705
   1 C :   -0.119855
   2 C :   -0.101558
   3 C :    0.012804
   4 C :   -0.162342
   5 H :    0.012031
   6 C :    0.061329
   7 H :    0.010209
   8 H :    0.026242
   9 C :   -0.055257
  10 H :    0.027239
  11 H :    0.008457
  12 C :   -0.030852
  13 H :    0.028623
  14 H :    0.047719
  15 H :    0.032225
  16 S :    0.119729
  17 C :   -0.071956
  18 C :   -0.057940
  19 C :   -0.025600
  20 C :   -0.186054
  21 H :    0.033199
  22 C :    0.075469
  23 H :    0.018385
  24 H :    0.047486
  25 C :   -0.107494
  26 H :    0.037959
  27 H :    0.042649
  28 C :   -0.025863
  29 H :    0.025872
  30 H :    0.026943
  31 H :    0.019526
  32 H :    0.053769
  33 H :    0.038203
Sum of atomic charges:   -0.0000000

LOEWDIN ATOMIC CHARGES
----------------------
   0 S :    0.429822
   1 C :   -0.222910
   2 C :   -0.065876
   3 C :   -0.065616
   4 C :   -0.201649
   5 H :    0.027586
   6 C :   -0.031642
   7 H :    0.026477
   8 H :    0.027631
   9 C :   -0.038522
  10 H :    0.029886
  11 H :    0.017244
  12 C :   -0.058180
  13 H :    0.023466
  14 H :    0.029219
  15 H :    0.024259
  16 S :    0.401228
  17 C :   -0.185852
  18 C :   -0.074832
  19 C :   -0.051577
  20 C :   -0.194330
  21 H :    0.038598
  22 C :   -0.026770
  23 H :    0.023083
  24 H :    0.039419
  25 C :   -0.036779
  26 H :    0.024340
  27 H :    0.028451
  28 C :   -0.066310
  29 H :    0.026695
  30 H :    0.025824
  31 H :    0.017070
  32 H :    0.037543
  33 H :    0.023006

  Mayer bond orders larger than 0.100000
B(  0-S ,  1-C ) :   1.1495 B(  0-S ,  4-C ) :   1.1530 B(  1-C ,  2-C ) :   1.6163
B(  1-C , 32-H ) :   0.9503 B(  2-C ,  3-C ) :   1.2530 B(  2-C ,  6-C ) :   1.0221
B(  3-C ,  4-C ) :   1.5495 B(  3-C ,  5-H ) :   0.9929 B(  4-C , 20-C ) :   1.0413
B(  6-C ,  7-H ) :   0.9337 B(  6-C ,  8-H ) :   0.9464 B(  6-C ,  9-C ) :   1.0708
B(  9-C , 10-H ) :   0.9555 B(  9-C , 11-H ) :   0.9561 B(  9-C , 12-C ) :   1.0532
B( 12-C , 13-H ) :   0.9778 B( 12-C , 14-H ) :   0.9742 B( 12-C , 15-H ) :   0.9813
B( 16-S , 17-C ) :   1.1239 B( 16-S , 20-C ) :   1.1499 B( 17-C , 18-C ) :   1.6786
B( 17-C , 33-H ) :   0.9636 B( 18-C , 19-C ) :   1.1971 B( 18-C , 21-H ) :   0.9767
B( 19-C , 20-C ) :   1.5749 B( 19-C , 22-C ) :   1.0466 B( 22-C , 23-H ) :   0.9354
B( 22-C , 24-H ) :   0.9339 B( 22-C , 25-C ) :   1.0476 B( 25-C , 26-H ) :   0.9548
B( 25-C , 27-H ) :   0.9655 B( 25-C , 28-C ) :   1.0917 B( 28-C , 29-H ) :   0.9735
B( 28-C , 30-H ) :   0.9736 B( 28-C , 31-H ) :   0.9740

Dispersion correction           -0.014247665
FINAL SINGLE POINT ENERGY     -1339.856475345015

DIPOLE MOMENT
-------------
                                X             Y             Z
Electronic contribution:     -3.44741      -7.87360      19.03353
Nuclear contribution   :      3.34818       8.12831     -19.56430
                        -----------------------------------------
Total Dipole Moment    :     -0.09923       0.25471      -0.53076
                        -----------------------------------------
Magnitude (a.u.)       :      0.59702
Magnitude (Debye)      :      1.51751

Rotational constants in cm-1:     0.018516     0.008092     0.006642
Rotational constants in MHz :   555.097214   242.588168   199.123679

                             ****ORCA TERMINATED NORMALLY****
TOTAL RUN TIME: 0 days 0 hours 0 minutes 20 seconds 758 msec
