                         Program Version 4.2.1 -  RELEASE  -
|  1> ! wB97X-D3 SP def2-SVP
|  2> %pal
|  3> nprocs 24
|  4> end
|  5>
|  6> * xyz 0 1
|  7> S 	 -102.289 	 62.8279 	 -6.88158
|  8> C 	 -103.608 	 63.6153 	 -7.63893
|  9> C 	 -103.283 	 64.2862 	 -8.78489
| 10> C 	 -101.796 	 64.4024 	 -8.87137
| 11> C 	 -101.144 	 63.674 	 -7.88328
| 12> H 	 -101.166 	 64.9564 	 -9.54421
| 13> C 	 -104.288 	 64.9135 	 -9.74486
| 14> H 	 -105.258 	 64.3107 	 -9.71004
| 15> H 	 -103.984 	 64.8987 	 -10.7336
| 16> C 	 -104.517 	 66.3877 	 -9.57519
| 17> H 	 -104.841 	 66.4215 	 -8.53431
| 18> H 	 -103.624 	 67.0138 	 -9.67248
| 19> C 	 -105.68 	 66.9455 	 -10.363
| 20> H 	 -105.892 	 67.9862 	 -10.145
| 21> H 	 -105.456 	 66.944 	 -11.4705
| 22> H 	 -106.501 	 66.3252 	 -10.0662
| 23> S 	 -98.8722 	 62.1495 	 -7.92585
| 24> C 	 -97.427 	 62.7068 	 -7.09505
| 25> C 	 -97.5021 	 64.0912 	 -6.87912
| 26> C 	 -98.8772 	 64.5638 	 -6.97631
| 27> C 	 -99.7282 	 63.6277 	 -7.57795
| 28> H 	 -96.626 	 64.6151 	 -6.52295
| 29> C 	 -99.3489 	 65.9245 	 -6.42282
| 30> H 	 -100.411 	 66.0286 	 -6.69966
| 31> H 	 -98.76 	 66.6636 	 -7.06237
| 32> C 	 -99.248 	 65.9245 	 -4.91222
| 33> H 	 -99.0416 	 66.983 	 -4.63204
| 34> H 	 -98.3117 	 65.4345 	 -4.66176
| 35> C 	 -100.499 	 65.2863 	 -4.31685
| 36> H 	 -100.902 	 64.5963 	 -5.02302
| 37> H 	 -101.171 	 66.0352 	 -3.91185
| 38> H 	 -100.282 	 64.8024 	 -3.42965
| 39> H 	 -104.615 	 63.5478 	 -7.34989
| 40> H 	 -96.6094 	 62.0658 	 -6.82429
| 41> *
| 42>
| 43>                          ****END OF INPUT****

CARTESIAN COORDINATES (ANGSTROEM)
---------------------------------
  S    -102.289000   62.827900   -6.881580
  C    -103.608000   63.615300   -7.638930
  C    -103.283000   64.286200   -8.784890
  C    -101.796000   64.402400   -8.871370
  C    -101.144000   63.674000   -7.883280
  H    -101.166000   64.956400   -9.544210
  C    -104.288000   64.913500   -9.744860
  H    -105.258000   64.310700   -9.710040
  H    -103.984000   64.898700  -10.733600
  C    -104.517000   66.387700   -9.575190
  H    -104.841000   66.421500   -8.534310
  H    -103.624000   67.013800   -9.672480
  C    -105.680000   66.945500  -10.363000
  H    -105.892000   67.986200  -10.145000
  H    -105.456000   66.944000  -11.470500
  H    -106.501000   66.325200  -10.066200
  S    -98.872200   62.149500   -7.925850
  C    -97.427000   62.706800   -7.095050
  C    -97.502100   64.091200   -6.879120
  C    -98.877200   64.563800   -6.976310
  C    -99.728200   63.627700   -7.577950
  H    -96.626000   64.615100   -6.522950
  C    -99.348900   65.924500   -6.422820
  H    -100.411000   66.028600   -6.699660
  H    -98.760000   66.663600   -7.062370
  C    -99.248000   65.924500   -4.912220
  H    -99.041600   66.983000   -4.632040
  H    -98.311700   65.434500   -4.661760
  C    -100.499000   65.286300   -4.316850
  H    -100.902000   64.596300   -5.023020
  H    -101.171000   66.035200   -3.911850
  H    -100.282000   64.802400   -3.429650
  H    -104.615000   63.547800   -7.349890
  H    -96.609400   62.065800   -6.824290

 Total Charge           Charge          ....    0
 Multiplicity           Mult            ....    1
 Number of Electrons    NEL             ....  134
 Basis Dimension        Dim             ....  322

ORBITAL ENERGIES
----------------

  NO   OCC          E(Eh)            E(eV)
   0   2.0000     -88.966250     -2420.8947
   1   2.0000     -88.960758     -2420.7453
   2   2.0000     -10.327223      -281.0180
   3   2.0000     -10.321920      -280.8737
   4   2.0000     -10.320360      -280.8313
   5   2.0000     -10.309677      -280.5406
   6   2.0000     -10.308767      -280.5158
   7   2.0000     -10.306839      -280.4633
   8   2.0000     -10.302303      -280.3399
   9   2.0000     -10.299452      -280.2623
  10   2.0000     -10.292593      -280.0757
  11   2.0000     -10.291667      -280.0505
  12   2.0000     -10.281777      -279.7814
  13   2.0000     -10.281051      -279.7616
  14   2.0000     -10.280313      -279.7415
  15   2.0000     -10.262096      -279.2458
  16   2.0000      -8.081360      -219.9050
  17   2.0000      -8.075752      -219.7524
  18   2.0000      -6.039905      -164.3542
  19   2.0000      -6.035766      -164.2415
  20   2.0000      -6.034266      -164.2007
  21   2.0000      -6.032077      -164.1412
  22   2.0000      -6.030213      -164.0904
  23   2.0000      -6.026512      -163.9897
  24   2.0000      -1.006063       -27.3764
  25   2.0000      -0.981787       -26.7158
  26   2.0000      -0.920823       -25.0569
  27   2.0000      -0.909266       -24.7424
  28   2.0000      -0.872492       -23.7417
  29   2.0000      -0.847837       -23.0708
  30   2.0000      -0.840613       -22.8742
  31   2.0000      -0.814489       -22.1634
  32   2.0000      -0.784295       -21.3417
  33   2.0000      -0.771531       -20.9944
  34   2.0000      -0.704553       -19.1719
  35   2.0000      -0.695447       -18.9241
  36   2.0000      -0.692548       -18.8452
  37   2.0000      -0.654534       -17.8108
  38   2.0000      -0.651110       -17.7176
  39   2.0000      -0.612935       -16.6788
  40   2.0000      -0.592648       -16.1268
  41   2.0000      -0.583425       -15.8758
  42   2.0000      -0.568175       -15.4608
  43   2.0000      -0.565417       -15.3858
  44   2.0000      -0.533051       -14.5051
  45   2.0000      -0.523522       -14.2458
  46   2.0000      -0.517619       -14.0851
  47   2.0000      -0.508607       -13.8399
  48   2.0000      -0.500812       -13.6278
  49   2.0000      -0.499560       -13.5937
  50   2.0000      -0.489751       -13.3268
  51   2.0000      -0.483269       -13.1504
  52   2.0000      -0.470453       -12.8017
  53   2.0000      -0.465235       -12.6597
  54   2.0000      -0.456427       -12.4200
  55   2.0000      -0.449547       -12.2328
  56   2.0000      -0.440969       -11.9994
  57   2.0000      -0.439560       -11.9610
  58   2.0000      -0.435269       -11.8443
  59   2.0000      -0.428357       -11.6562
  60   2.0000      -0.421251       -11.4628
  61   2.0000      -0.405832       -11.0432
  62   2.0000      -0.401168       -10.9163
  63   2.0000      -0.332184        -9.0392
  64   2.0000      -0.327874        -8.9219
  65   2.0000      -0.324708        -8.8358
  66   2.0000      -0.303181        -8.2500
  67   0.0000       0.040657         1.1063
  68   0.0000       0.058983         1.6050
  69   0.0000       0.108930         2.9641
  70   0.0000       0.113638         3.0923
  71   0.0000       0.134514         3.6603

MULLIKEN ATOMIC CHARGES
-----------------------
   0 S :    0.130530
   1 C :   -0.093340
   2 C :   -0.081519
   3 C :    0.069817
   4 C :   -0.193822
   5 H :    0.008267
   6 C :    0.075965
   7 H :    0.033724
   8 H :    0.000904
   9 C :   -0.086955
  10 H :    0.012513
  11 H :    0.034504
  12 C :   -0.035300
  13 H :    0.035727
  14 H :    0.035356
  15 H :    0.026276
  16 S :    0.103515
  17 C :   -0.110234
  18 C :   -0.022498
  19 C :   -0.066241
  20 C :   -0.169737
  21 H :    0.027231
  22 C :    0.027537
  23 H :    0.034721
  24 H :    0.045056
  25 C :   -0.066120
  26 H :    0.026611
  27 H :    0.020777
  28 C :    0.031692
  29 H :    0.026376
  30 H :    0.028871
  31 H :    0.002705
  32 H :    0.025038
  33 H :    0.062053
Sum of atomic charges:    0.0000000

LOEWDIN ATOMIC CHARGES
----------------------
   0 S :    0.429476
   1 C :   -0.194403
   2 C :   -0.055553
   3 C :   -0.046334
   4 C :   -0.208125
   5 H :    0.030133
   6 C :   -0.033280
   7 H :    0.038826
   8 H :    0.020028
   9 C :   -0.046334
  10 H :    0.020841
  11 H :    0.024226
  12 C :   -0.062487
  13 H :    0.027024
  14 H :    0.028216
  15 H :    0.023300
  16 S :    0.398576
  17 C :   -0.175204
  18 C :   -0.070781
  19 C :   -0.050195
  20 C :   -0.221911
  21 H :    0.030854
  22 C :   -0.036953
  23 H :    0.030249
  24 H :    0.038034
  25 C :   -0.042817
  26 H :    0.026152
  27 H :    0.019290
  28 C :   -0.054590
  29 H :    0.016468
  30 H :    0.032390
  31 H :    0.018897
  32 H :    0.018994
  33 H :    0.026992

  Mayer bond orders larger than 0.100000
B(  0-S ,  1-C ) :   1.1459 B(  0-S ,  4-C ) :   1.1427 B(  1-C ,  2-C ) :   1.6450
B(  1-C , 32-H ) :   0.9707 B(  2-C ,  3-C ) :   1.1754 B(  2-C ,  6-C ) :   1.0349
B(  3-C ,  4-C ) :   1.6232 B(  3-C ,  5-H ) :   0.9961 B(  4-C , 20-C ) :   1.0171
B(  6-C ,  7-H ) :   0.9417 B(  6-C ,  8-H ) :   0.9317 B(  6-C ,  9-C ) :   1.0572
B(  9-C , 10-H ) :   0.9539 B(  9-C , 11-H ) :   0.9543 B(  9-C , 12-C ) :   1.0859
B( 12-C , 13-H ) :   0.9726 B( 12-C , 14-H ) :   0.9735 B( 12-C , 15-H ) :   0.9743
B( 16-S , 17-C ) :   1.1630 B( 16-S , 20-C ) :   1.1379 B( 17-C , 18-C ) :   1.6040
B( 17-C , 33-H ) :   0.9725 B( 18-C , 19-C ) :   1.2200 B( 18-C , 21-H ) :   0.9865
B( 19-C , 20-C ) :   1.6085 B( 19-C , 22-C ) :   1.0328 B( 22-C , 23-H ) :   0.9410
B( 22-C , 24-H ) :   0.9376 B( 22-C , 25-C ) :   1.0509 B( 25-C , 26-H ) :   0.9551
B( 25-C , 27-H ) :   0.9641 B( 25-C , 28-C ) :   1.0608 B( 28-C , 29-H ) :   0.9749
B( 28-C , 30-H ) :   0.9691 B( 28-C , 31-H ) :   0.9643

Dispersion correction           -0.014912545
FINAL SINGLE POINT ENERGY     -1339.857946486581

DIPOLE MOMENT
-------------
                                X             Y             Z
Electronic contribution:     12.78221     -21.73071      -0.33747
Nuclear contribution   :    -12.90291      22.29500       0.36263
                        -----------------------------------------
Total Dipole Moment    :     -0.12070       0.56429       0.02515
                        -----------------------------------------
Magnitude (a.u.)       :      0.57760
Magnitude (Debye)      :      1.46814

Rotational constants in cm-1:     0.022061     0.007721     0.006987
Rotational constants in MHz :   661.380170   231.469331   209.451909

                             ****ORCA TERMINATED NORMALLY****
TOTAL RUN TIME: 0 days 0 hours 0 minutes 22 seconds 81 msec
