                         Program Version 4.2.1 -  RELEASE  -
|  1> ! wB97X-D3 SP def2-SVP
|  2> %pal
|  3> nprocs 24
|  4> end
|  5>
|  6> * xyz 0 1
|  7> S 	 37.9546 	 -22.6075 	 -114.941
|  8> C 	 38.779 	 -23.1883 	 -116.341
|  9> C 	 40.1527 	 -23.0662 	 -116.271
| 10> C 	 40.4969 	 -22.6234 	 -114.928
| 11> C 	 39.4369 	 -22.163 	 -114.145
| 12> H 	 41.4768 	 -22.4965 	 -114.486
| 13> C 	 41.2153 	 -23.5358 	 -117.226
| 14> H 	 42.258 	 -23.3911 	 -116.88
| 15> H 	 41.2274 	 -22.8269 	 -118.004
| 16> C 	 41.059 	 -25.0308 	 -117.584
| 17> H 	 40.0538 	 -25.19 	 -118.061
| 18> H 	 41.7356 	 -25.2341 	 -118.472
| 19> C 	 41.3569 	 -26.052 	 -116.456
| 20> H 	 41.2857 	 -27.0981 	 -116.844
| 21> H 	 42.3877 	 -26.0787 	 -116.188
| 22> H 	 40.6305 	 -25.874 	 -115.676
| 23> S 	 38.993 	 -22.9485 	 -111.544
| 24> C 	 39.2259 	 -21.8042 	 -110.245
| 25> C 	 39.6381 	 -20.5575 	 -110.68
| 26> C 	 39.8413 	 -20.5265 	 -112.09
| 27> C 	 39.4148 	 -21.7354 	 -112.702
| 28> H 	 39.9331 	 -19.7168 	 -110.045
| 29> C 	 40.1948 	 -19.2443 	 -112.798
| 30> H 	 39.4499 	 -18.4895 	 -112.487
| 31> H 	 39.8492 	 -19.4086 	 -113.911
| 32> C 	 41.6127 	 -18.7505 	 -112.736
| 33> H 	 41.7345 	 -18.481 	 -111.652
| 34> H 	 41.7593 	 -17.8178 	 -113.267
| 35> C 	 42.5886 	 -19.7934 	 -113.277
| 36> H 	 42.4226 	 -20.8033 	 -112.816
| 37> H 	 43.5829 	 -19.3499 	 -113.069
| 38> H 	 42.4324 	 -19.838 	 -114.336
| 39> H 	 38.2145 	 -23.4864 	 -117.215
| 40> H 	 39.2068 	 -22.0881 	 -109.227
| 41> *
| 42>
| 43>                          ****END OF INPUT****

CARTESIAN COORDINATES (ANGSTROEM)
---------------------------------
  S     37.954600  -22.607500  -114.941000
  C     38.779000  -23.188300  -116.341000
  C     40.152700  -23.066200  -116.271000
  C     40.496900  -22.623400  -114.928000
  C     39.436900  -22.163000  -114.145000
  H     41.476800  -22.496500  -114.486000
  C     41.215300  -23.535800  -117.226000
  H     42.258000  -23.391100  -116.880000
  H     41.227400  -22.826900  -118.004000
  C     41.059000  -25.030800  -117.584000
  H     40.053800  -25.190000  -118.061000
  H     41.735600  -25.234100  -118.472000
  C     41.356900  -26.052000  -116.456000
  H     41.285700  -27.098100  -116.844000
  H     42.387700  -26.078700  -116.188000
  H     40.630500  -25.874000  -115.676000
  S     38.993000  -22.948500  -111.544000
  C     39.225900  -21.804200  -110.245000
  C     39.638100  -20.557500  -110.680000
  C     39.841300  -20.526500  -112.090000
  C     39.414800  -21.735400  -112.702000
  H     39.933100  -19.716800  -110.045000
  C     40.194800  -19.244300  -112.798000
  H     39.449900  -18.489500  -112.487000
  H     39.849200  -19.408600  -113.911000
  C     41.612700  -18.750500  -112.736000
  H     41.734500  -18.481000  -111.652000
  H     41.759300  -17.817800  -113.267000
  C     42.588600  -19.793400  -113.277000
  H     42.422600  -20.803300  -112.816000
  H     43.582900  -19.349900  -113.069000
  H     42.432400  -19.838000  -114.336000
  H     38.214500  -23.486400  -117.215000
  H     39.206800  -22.088100  -109.227000

 Total Charge           Charge          ....    0
 Multiplicity           Mult            ....    1
 Number of Electrons    NEL             ....  134
 Basis Dimension        Dim             ....  322

ORBITAL ENERGIES
----------------

  NO   OCC          E(Eh)            E(eV)
   0   2.0000     -88.968529     -2420.9568
   1   2.0000     -88.962914     -2420.8040
   2   2.0000     -10.329814      -281.0885
   3   2.0000     -10.328193      -281.0444
   4   2.0000     -10.315293      -280.6934
   5   2.0000     -10.313589      -280.6470
   6   2.0000     -10.304092      -280.3886
   7   2.0000     -10.304029      -280.3869
   8   2.0000     -10.296172      -280.1731
   9   2.0000     -10.294671      -280.1322
  10   2.0000     -10.294538      -280.1286
  11   2.0000     -10.292601      -280.0759
  12   2.0000     -10.292108      -280.0625
  13   2.0000     -10.286115      -279.8994
  14   2.0000     -10.278422      -279.6901
  15   2.0000     -10.278415      -279.6899
  16   2.0000      -8.083577      -219.9653
  17   2.0000      -8.078360      -219.8233
  18   2.0000      -6.041980      -164.4106
  19   2.0000      -6.037998      -164.3023
  20   2.0000      -6.036754      -164.2684
  21   2.0000      -6.034467      -164.2062
  22   2.0000      -6.032664      -164.1571
  23   2.0000      -6.029314      -164.0660
  24   2.0000      -1.004601       -27.3366
  25   2.0000      -0.985080       -26.8054
  26   2.0000      -0.912060       -24.8184
  27   2.0000      -0.908818       -24.7302
  28   2.0000      -0.862769       -23.4771
  29   2.0000      -0.848853       -23.0985
  30   2.0000      -0.843051       -22.9406
  31   2.0000      -0.811727       -22.0882
  32   2.0000      -0.784933       -21.3591
  33   2.0000      -0.771442       -20.9920
  34   2.0000      -0.701485       -19.0884
  35   2.0000      -0.698526       -19.0079
  36   2.0000      -0.687340       -18.7035
  37   2.0000      -0.656578       -17.8664
  38   2.0000      -0.646107       -17.5815
  39   2.0000      -0.607045       -16.5185
  40   2.0000      -0.592906       -16.1338
  41   2.0000      -0.575103       -15.6493
  42   2.0000      -0.558194       -15.1892
  43   2.0000      -0.552884       -15.0447
  44   2.0000      -0.544610       -14.8196
  45   2.0000      -0.535443       -14.5701
  46   2.0000      -0.512742       -13.9524
  47   2.0000      -0.508128       -13.8269
  48   2.0000      -0.497427       -13.5357
  49   2.0000      -0.493547       -13.4301
  50   2.0000      -0.488047       -13.2804
  51   2.0000      -0.472761       -12.8645
  52   2.0000      -0.468712       -12.7543
  53   2.0000      -0.464757       -12.6467
  54   2.0000      -0.458935       -12.4883
  55   2.0000      -0.453733       -12.3467
  56   2.0000      -0.445098       -12.1117
  57   2.0000      -0.434008       -11.8100
  58   2.0000      -0.431574       -11.7437
  59   2.0000      -0.422304       -11.4915
  60   2.0000      -0.417734       -11.3671
  61   2.0000      -0.409715       -11.1489
  62   2.0000      -0.403950       -10.9920
  63   2.0000      -0.340420        -9.2633
  64   2.0000      -0.326510        -8.8848
  65   2.0000      -0.325389        -8.8543
  66   2.0000      -0.303033        -8.2459
  67   0.0000       0.041706         1.1349
  68   0.0000       0.057864         1.5746
  69   0.0000       0.120699         3.2844
  70   0.0000       0.121921         3.3176
  71   0.0000       0.126508         3.4425

MULLIKEN ATOMIC CHARGES
-----------------------
   0 S :    0.108366
   1 C :   -0.137134
   2 C :   -0.083410
   3 C :    0.035750
   4 C :   -0.179026
   5 H :    0.006415
   6 C :    0.106286
   7 H :    0.018242
   8 H :    0.021692
   9 C :   -0.123132
  10 H :    0.033334
  11 H :    0.027601
  12 C :   -0.026349
  13 H :    0.032492
  14 H :    0.024648
  15 H :    0.055608
  16 S :    0.130137
  17 C :   -0.079624
  18 C :   -0.022793
  19 C :   -0.037131
  20 C :   -0.174611
  21 H :    0.027719
  22 C :   -0.016991
  23 H :    0.040005
  24 H :    0.037448
  25 C :   -0.052308
  26 H :    0.022932
  27 H :    0.030085
  28 C :   -0.060490
  29 H :    0.063342
  30 H :    0.039502
  31 H :    0.032254
  32 H :    0.053882
  33 H :    0.045257
Sum of atomic charges:    0.0000000

LOEWDIN ATOMIC CHARGES
----------------------
   0 S :    0.419645
   1 C :   -0.201193
   2 C :   -0.064125
   3 C :   -0.058676
   4 C :   -0.211259
   5 H :    0.027720
   6 C :   -0.036261
   7 H :    0.034868
   8 H :    0.029594
   9 C :   -0.045808
  10 H :    0.023940
  11 H :    0.025311
  12 C :   -0.064224
  13 H :    0.034693
  14 H :    0.022501
  15 H :    0.029769
  16 S :    0.428281
  17 C :   -0.180456
  18 C :   -0.070037
  19 C :   -0.057594
  20 C :   -0.215526
  21 H :    0.035431
  22 C :   -0.049039
  23 H :    0.034255
  24 H :    0.037815
  25 C :   -0.046009
  26 H :    0.023166
  27 H :    0.025848
  28 C :   -0.064202
  29 H :    0.031916
  30 H :    0.030818
  31 H :    0.023089
  32 H :    0.025633
  33 H :    0.020117

  Mayer bond orders larger than 0.100000
B(  0-S ,  1-C ) :   1.1664 B(  0-S ,  4-C ) :   1.1587 B(  1-C ,  2-C ) :   1.5904
B(  1-C , 32-H ) :   0.9668 B(  2-C ,  3-C ) :   1.2343 B(  2-C ,  6-C ) :   1.0177
B(  3-C ,  4-C ) :   1.5953 B(  3-C ,  5-H ) :   0.9894 B(  4-C , 20-C ) :   0.9811
B(  6-C ,  7-H ) :   0.9443 B(  6-C ,  8-H ) :   0.9266 B(  6-C ,  9-C ) :   1.0675
B(  9-C , 10-H ) :   0.9597 B(  9-C , 11-H ) :   0.9554 B(  9-C , 12-C ) :   1.0686
B( 12-C , 13-H ) :   0.9715 B( 12-C , 14-H ) :   0.9727 B( 12-C , 15-H ) :   0.9772
B( 16-S , 17-C ) :   1.1648 B( 16-S , 20-C ) :   1.1734 B( 17-C , 18-C ) :   1.5841
B( 17-C , 33-H ) :   0.9727 B( 18-C , 19-C ) :   1.2690 B( 18-C , 21-H ) :   0.9837
B( 19-C , 20-C ) :   1.5709 B( 19-C , 22-C ) :   1.0336 B( 22-C , 23-H ) :   0.9447
B( 22-C , 24-H ) :   0.9374 B( 22-C , 25-C ) :   1.0674 B( 25-C , 26-H ) :   0.9531
B( 25-C , 27-H ) :   0.9516 B( 25-C , 28-C ) :   1.0697 B( 28-C , 29-H ) :   0.9699
B( 28-C , 30-H ) :   0.9714 B( 28-C , 31-H ) :   0.9729

Dispersion correction           -0.015258880
FINAL SINGLE POINT ENERGY     -1339.878412591105

DIPOLE MOMENT
-------------
                                X             Y             Z
Electronic contribution:    -19.18166      -1.85671      11.20617
Nuclear contribution   :     19.71456       2.00255     -11.37215
                        -----------------------------------------
Total Dipole Moment    :      0.53290       0.14584      -0.16598
                        -----------------------------------------
Magnitude (a.u.)       :      0.57689
Magnitude (Debye)      :      1.46634

Rotational constants in cm-1:     0.020485     0.008453     0.007308
Rotational constants in MHz :   614.136897   253.417815   219.089862

                             ****ORCA TERMINATED NORMALLY****
TOTAL RUN TIME: 0 days 0 hours 0 minutes 22 seconds 49 msec
