                         Program Version 4.2.1 -  RELEASE  -
|  1> ! wB97X-D3 SP def2-SVP
|  2> %pal
|  3> nprocs 24
|  4> end
|  5>
|  6> * xyz 0 1
|  7> S 	 -39.4748 	 17.0088 	 12.7212
|  8> C 	 -41.1952 	 17.278 	 13.1656
|  9> C 	 -41.4614 	 18.6142 	 13.2058
| 10> C 	 -40.3082 	 19.4787 	 13.0013
| 11> C 	 -39.1883 	 18.7535 	 12.672
| 12> H 	 -40.2756 	 20.5951 	 13.1082
| 13> C 	 -42.742 	 19.1647 	 13.8085
| 14> H 	 -43.6345 	 18.923 	 13.0909
| 15> H 	 -42.7376 	 20.219 	 13.7957
| 16> C 	 -43.1431 	 18.7663 	 15.2328
| 17> H 	 -43.2298 	 17.6609 	 15.233
| 18> H 	 -42.3595 	 19.1135 	 15.9474
| 19> C 	 -44.3896 	 19.438 	 15.6427
| 20> H 	 -44.7476 	 18.9755 	 16.5543
| 21> H 	 -44.2187 	 20.4599 	 15.7555
| 22> H 	 -45.246 	 19.2699 	 14.9247
| 23> S 	 -37.1322 	 18.9291 	 10.7718
| 24> C 	 -35.904 	 20.1191 	 10.9587
| 25> C 	 -36.0515 	 20.845 	 12.1385
| 26> C 	 -37.1526 	 20.4008 	 12.9025
| 27> C 	 -37.8933 	 19.3885 	 12.2877
| 28> H 	 -35.3851 	 21.6581 	 12.3412
| 29> C 	 -37.533 	 21.0676 	 14.2099
| 30> H 	 -37.622 	 20.2868 	 15.0082
| 31> H 	 -38.5045 	 21.4641 	 14.0889
| 32> C 	 -36.7131 	 22.2622 	 14.682
| 33> H 	 -35.694 	 22.018 	 14.7807
| 34> H 	 -37.0762 	 22.4956 	 15.6797
| 35> C 	 -36.9453 	 23.6186 	 13.952
| 36> H 	 -36.4331 	 24.4403 	 14.4695
| 37> H 	 -37.957 	 23.9814 	 14.03
| 38> H 	 -36.7324 	 23.672 	 12.8865
| 39> H 	 -41.9709 	 16.5752 	 13.4476
| 40> H 	 -35.0732 	 20.2766 	 10.303
| 41> *
| 42>
| 43>                          ****END OF INPUT****

CARTESIAN COORDINATES (ANGSTROEM)
---------------------------------
  S    -39.474800   17.008800   12.721200
  C    -41.195200   17.278000   13.165600
  C    -41.461400   18.614200   13.205800
  C    -40.308200   19.478700   13.001300
  C    -39.188300   18.753500   12.672000
  H    -40.275600   20.595100   13.108200
  C    -42.742000   19.164700   13.808500
  H    -43.634500   18.923000   13.090900
  H    -42.737600   20.219000   13.795700
  C    -43.143100   18.766300   15.232800
  H    -43.229800   17.660900   15.233000
  H    -42.359500   19.113500   15.947400
  C    -44.389600   19.438000   15.642700
  H    -44.747600   18.975500   16.554300
  H    -44.218700   20.459900   15.755500
  H    -45.246000   19.269900   14.924700
  S    -37.132200   18.929100   10.771800
  C    -35.904000   20.119100   10.958700
  C    -36.051500   20.845000   12.138500
  C    -37.152600   20.400800   12.902500
  C    -37.893300   19.388500   12.287700
  H    -35.385100   21.658100   12.341200
  C    -37.533000   21.067600   14.209900
  H    -37.622000   20.286800   15.008200
  H    -38.504500   21.464100   14.088900
  C    -36.713100   22.262200   14.682000
  H    -35.694000   22.018000   14.780700
  H    -37.076200   22.495600   15.679700
  C    -36.945300   23.618600   13.952000
  H    -36.433100   24.440300   14.469500
  H    -37.957000   23.981400   14.030000
  H    -36.732400   23.672000   12.886500
  H    -41.970900   16.575200   13.447600
  H    -35.073200   20.276600   10.303000

 Total Charge           Charge          ....    0
 Multiplicity           Mult            ....    1
 Number of Electrons    NEL             ....  134
 Basis Dimension        Dim             ....  322

ORBITAL ENERGIES
----------------

  NO   OCC          E(Eh)            E(eV)
   0   2.0000     -88.969665     -2420.9877
   1   2.0000     -88.966390     -2420.8985
   2   2.0000     -10.334345      -281.2118
   3   2.0000     -10.327150      -281.0160
   4   2.0000     -10.316395      -280.7234
   5   2.0000     -10.313792      -280.6525
   6   2.0000     -10.302007      -280.3319
   7   2.0000     -10.300957      -280.3033
   8   2.0000     -10.299989      -280.2769
   9   2.0000     -10.292434      -280.0714
  10   2.0000     -10.290234      -280.0115
  11   2.0000     -10.289818      -280.0002
  12   2.0000     -10.288689      -279.9695
  13   2.0000     -10.287012      -279.9238
  14   2.0000     -10.280264      -279.7402
  15   2.0000     -10.274953      -279.5957
  16   2.0000      -8.083075      -219.9517
  17   2.0000      -8.081303      -219.9034
  18   2.0000      -6.041881      -164.4079
  19   2.0000      -6.039704      -164.3487
  20   2.0000      -6.037825      -164.2976
  21   2.0000      -6.035615      -164.2374
  22   2.0000      -6.033525      -164.1806
  23   2.0000      -6.032356      -164.1488
  24   2.0000      -1.003074       -27.2950
  25   2.0000      -0.982048       -26.7229
  26   2.0000      -0.917120       -24.9561
  27   2.0000      -0.911287       -24.7974
  28   2.0000      -0.869755       -23.6672
  29   2.0000      -0.851391       -23.1675
  30   2.0000      -0.844538       -22.9810
  31   2.0000      -0.815144       -22.1812
  32   2.0000      -0.785584       -21.3768
  33   2.0000      -0.772814       -21.0293
  34   2.0000      -0.710126       -19.3235
  35   2.0000      -0.702738       -19.1225
  36   2.0000      -0.692043       -18.8315
  37   2.0000      -0.656082       -17.8529
  38   2.0000      -0.635269       -17.2865
  39   2.0000      -0.615150       -16.7391
  40   2.0000      -0.599925       -16.3248
  41   2.0000      -0.581791       -15.8313
  42   2.0000      -0.565732       -15.3943
  43   2.0000      -0.552798       -15.0424
  44   2.0000      -0.536752       -14.6058
  45   2.0000      -0.522792       -14.2259
  46   2.0000      -0.520663       -14.1680
  47   2.0000      -0.510762       -13.8985
  48   2.0000      -0.502338       -13.6693
  49   2.0000      -0.498495       -13.5647
  50   2.0000      -0.495063       -13.4713
  51   2.0000      -0.480883       -13.0855
  52   2.0000      -0.475110       -12.9284
  53   2.0000      -0.462400       -12.5825
  54   2.0000      -0.458328       -12.4717
  55   2.0000      -0.453166       -12.3313
  56   2.0000      -0.447716       -12.1830
  57   2.0000      -0.439865       -11.9693
  58   2.0000      -0.427194       -11.6245
  59   2.0000      -0.425994       -11.5919
  60   2.0000      -0.421151       -11.4601
  61   2.0000      -0.418035       -11.3753
  62   2.0000      -0.414055       -11.2670
  63   2.0000      -0.345251        -9.3948
  64   2.0000      -0.331901        -9.0315
  65   2.0000      -0.329831        -8.9752
  66   2.0000      -0.293206        -7.9785
  67   0.0000       0.031693         0.8624
  68   0.0000       0.067631         1.8403
  69   0.0000       0.109155         2.9703
  70   0.0000       0.125144         3.4053
  71   0.0000       0.133036         3.6201

MULLIKEN ATOMIC CHARGES
-----------------------
   0 S :    0.110752
   1 C :   -0.122567
   2 C :   -0.041945
   3 C :   -0.001552
   4 C :   -0.138106
   5 H :    0.041609
   6 C :    0.003989
   7 H :    0.039574
   8 H :   -0.004104
   9 C :   -0.064299
  10 H :    0.025011
  11 H :    0.038024
  12 C :   -0.027275
  13 H :    0.030989
  14 H :    0.025152
  15 H :    0.027834
  16 S :    0.121007
  17 C :   -0.079570
  18 C :   -0.053630
  19 C :   -0.037763
  20 C :   -0.168140
  21 H :    0.017737
  22 C :    0.087626
  23 H :    0.048865
  24 H :    0.004193
  25 C :   -0.051319
  26 H :    0.025945
  27 H :    0.023597
  28 C :   -0.064580
  29 H :    0.032191
  30 H :    0.016649
  31 H :    0.036305
  32 H :    0.050512
  33 H :    0.047290
Sum of atomic charges:    0.0000000

LOEWDIN ATOMIC CHARGES
----------------------
   0 S :    0.379841
   1 C :   -0.182474
   2 C :   -0.065265
   3 C :   -0.064510
   4 C :   -0.184964
   5 H :    0.041286
   6 C :   -0.042029
   7 H :    0.039558
   8 H :    0.016128
   9 C :   -0.042629
  10 H :    0.021419
  11 H :    0.031928
  12 C :   -0.061421
  13 H :    0.028706
  14 H :    0.017805
  15 H :    0.029350
  16 S :    0.423671
  17 C :   -0.191062
  18 C :   -0.074637
  19 C :   -0.056091
  20 C :   -0.203705
  21 H :    0.030449
  22 C :   -0.031812
  23 H :    0.042826
  24 H :    0.022926
  25 C :   -0.037326
  26 H :    0.016186
  27 H :    0.032529
  28 C :   -0.071196
  29 H :    0.030702
  30 H :    0.022814
  31 H :    0.021283
  32 H :    0.033492
  33 H :    0.026222

  Mayer bond orders larger than 0.100000
B(  0-S ,  1-C ) :   1.1037 B(  0-S ,  4-C ) :   1.1383 B(  1-C ,  2-C ) :   1.6532
B(  1-C , 32-H ) :   0.9688 B(  2-C ,  3-C ) :   1.2114 B(  2-C ,  6-C ) :   1.0278
B(  3-C ,  4-C ) :   1.6050 B(  3-C ,  5-H ) :   0.9795 B(  4-C , 20-C ) :   1.0276
B(  6-C ,  7-H ) :   0.9326 B(  6-C ,  8-H ) :   0.9462 B(  6-C ,  9-C ) :   1.0691
B(  9-C , 10-H ) :   0.9498 B(  9-C , 11-H ) :   0.9505 B(  9-C , 12-C ) :   1.0922
B( 12-C , 13-H ) :   0.9685 B( 12-C , 14-H ) :   0.9740 B( 12-C , 15-H ) :   0.9710
B( 16-S , 17-C ) :   1.1814 B( 16-S , 20-C ) :   1.1503 B( 17-C , 18-C ) :   1.5735
B( 17-C , 20-C ) :   0.1040 B( 17-C , 33-H ) :   0.9647 B( 18-C , 19-C ) :   1.2814
B( 18-C , 21-H ) :   0.9882 B( 19-C , 20-C ) :   1.5761 B( 19-C , 22-C ) :   1.0261
B( 22-C , 23-H ) :   0.9259 B( 22-C , 24-H ) :   0.9240 B( 22-C , 25-C ) :   1.0970
B( 25-C , 26-H ) :   0.9533 B( 25-C , 27-H ) :   0.9445 B( 25-C , 28-C ) :   1.0737
B( 28-C , 29-H ) :   0.9732 B( 28-C , 30-H ) :   0.9690 B( 28-C , 31-H ) :   0.9791

Dispersion correction           -0.013739919
FINAL SINGLE POINT ENERGY     -1339.878064626477

DIPOLE MOMENT
-------------
                                X             Y             Z
Electronic contribution:     13.75863     -19.40543     -18.86981
Nuclear contribution   :    -14.02026      20.03847      19.41041
                        -----------------------------------------
Total Dipole Moment    :     -0.26164       0.63304       0.54060
                        -----------------------------------------
Magnitude (a.u.)       :      0.87261
Magnitude (Debye)      :      2.21799

Rotational constants in cm-1:     0.018806     0.008024     0.005995
Rotational constants in MHz :   563.800764   240.539414   179.721656

                             ****ORCA TERMINATED NORMALLY****
TOTAL RUN TIME: 0 days 0 hours 0 minutes 21 seconds 97 msec
