                         Program Version 4.2.1 -  RELEASE  -
|  1> ! wB97X-D3 SP def2-SVP
|  2> %pal
|  3> nprocs 24
|  4> end
|  5>
|  6> * xyz 0 1
|  7> S 	 27.3509 	 -7.41869 	 -119.332
|  8> C 	 28.856 	 -7.61207 	 -120.147
|  9> C 	 29.9065 	 -7.31236 	 -119.289
| 10> C 	 29.4793 	 -6.87962 	 -117.956
| 11> C 	 28.0898 	 -6.82271 	 -117.869
| 12> H 	 30.004 	 -6.54977 	 -117.048
| 13> C 	 31.3414 	 -7.3586 	 -119.81
| 14> H 	 31.9112 	 -6.47145 	 -120.082
| 15> H 	 31.234 	 -7.8478 	 -120.865
| 16> C 	 32.2873 	 -8.27262 	 -119.01
| 17> H 	 33.2938 	 -8.14563 	 -119.297
| 18> H 	 32.2382 	 -7.87256 	 -117.984
| 19> C 	 31.92 	 -9.79435 	 -119.021
| 20> H 	 31.8107 	 -10.1723 	 -120.06
| 21> H 	 32.606 	 -10.5069 	 -118.549
| 22> H 	 30.8896 	 -9.97851 	 -118.64
| 23> S 	 26.876 	 -4.85147 	 -116.253
| 24> C 	 25.9413 	 -5.44837 	 -114.926
| 25> C 	 25.9868 	 -6.81128 	 -114.759
| 26> C 	 26.648 	 -7.39875 	 -115.857
| 27> C 	 27.2946 	 -6.4961 	 -116.662
| 28> H 	 25.7101 	 -7.28971 	 -113.88
| 29> C 	 26.8682 	 -8.91922 	 -115.836
| 30> H 	 27.1968 	 -9.16172 	 -116.813
| 31> H 	 25.9488 	 -9.4759 	 -115.681
| 32> C 	 27.7145 	 -9.46668 	 -114.629
| 33> H 	 27.2048 	 -9.61142 	 -113.697
| 34> H 	 28.6608 	 -8.9377 	 -114.442
| 35> C 	 27.9052 	 -10.9458 	 -114.833
| 36> H 	 28.826 	 -10.9846 	 -115.405
| 37> H 	 27.1594 	 -11.453 	 -115.469
| 38> H 	 28.0407 	 -11.4877 	 -113.928
| 39> H 	 28.9653 	 -7.90325 	 -121.161
| 40> H 	 25.3643 	 -4.82882 	 -114.197
| 41> *
| 42>
| 43>                          ****END OF INPUT****

CARTESIAN COORDINATES (ANGSTROEM)
---------------------------------
  S     27.350900   -7.418690  -119.332000
  C     28.856000   -7.612070  -120.147000
  C     29.906500   -7.312360  -119.289000
  C     29.479300   -6.879620  -117.956000
  C     28.089800   -6.822710  -117.869000
  H     30.004000   -6.549770  -117.048000
  C     31.341400   -7.358600  -119.810000
  H     31.911200   -6.471450  -120.082000
  H     31.234000   -7.847800  -120.865000
  C     32.287300   -8.272620  -119.010000
  H     33.293800   -8.145630  -119.297000
  H     32.238200   -7.872560  -117.984000
  C     31.920000   -9.794350  -119.021000
  H     31.810700  -10.172300  -120.060000
  H     32.606000  -10.506900  -118.549000
  H     30.889600   -9.978510  -118.640000
  S     26.876000   -4.851470  -116.253000
  C     25.941300   -5.448370  -114.926000
  C     25.986800   -6.811280  -114.759000
  C     26.648000   -7.398750  -115.857000
  C     27.294600   -6.496100  -116.662000
  H     25.710100   -7.289710  -113.880000
  C     26.868200   -8.919220  -115.836000
  H     27.196800   -9.161720  -116.813000
  H     25.948800   -9.475900  -115.681000
  C     27.714500   -9.466680  -114.629000
  H     27.204800   -9.611420  -113.697000
  H     28.660800   -8.937700  -114.442000
  C     27.905200  -10.945800  -114.833000
  H     28.826000  -10.984600  -115.405000
  H     27.159400  -11.453000  -115.469000
  H     28.040700  -11.487700  -113.928000
  H     28.965300   -7.903250  -121.161000
  H     25.364300   -4.828820  -114.197000

 Total Charge           Charge          ....    0
 Multiplicity           Mult            ....    1
 Number of Electrons    NEL             ....  134
 Basis Dimension        Dim             ....  322

ORBITAL ENERGIES
----------------

  NO   OCC          E(Eh)            E(eV)
   0   2.0000     -88.969326     -2420.9784
   1   2.0000     -88.965960     -2420.8868
   2   2.0000     -10.330129      -281.0971
   3   2.0000     -10.322976      -280.9025
   4   2.0000     -10.317467      -280.7526
   5   2.0000     -10.313942      -280.6566
   6   2.0000     -10.310048      -280.5507
   7   2.0000     -10.302510      -280.3456
   8   2.0000     -10.299119      -280.2533
   9   2.0000     -10.297044      -280.1968
  10   2.0000     -10.289350      -279.9874
  11   2.0000     -10.286004      -279.8964
  12   2.0000     -10.284387      -279.8524
  13   2.0000     -10.283688      -279.8334
  14   2.0000     -10.280320      -279.7417
  15   2.0000     -10.269998      -279.4609
  16   2.0000      -8.084350      -219.9863
  17   2.0000      -8.081016      -219.8956
  18   2.0000      -6.042763      -164.4319
  19   2.0000      -6.039404      -164.3405
  20   2.0000      -6.038898      -164.3268
  21   2.0000      -6.035327      -164.2296
  22   2.0000      -6.035117      -164.2239
  23   2.0000      -6.032011      -164.1394
  24   2.0000      -1.008733       -27.4490
  25   2.0000      -0.987773       -26.8787
  26   2.0000      -0.910759       -24.7830
  27   2.0000      -0.904952       -24.6250
  28   2.0000      -0.867961       -23.6184
  29   2.0000      -0.858118       -23.3506
  30   2.0000      -0.839534       -22.8449
  31   2.0000      -0.816309       -22.2129
  32   2.0000      -0.779790       -21.2192
  33   2.0000      -0.768612       -20.9150
  34   2.0000      -0.705106       -19.1869
  35   2.0000      -0.697718       -18.9859
  36   2.0000      -0.687812       -18.7163
  37   2.0000      -0.663570       -18.0567
  38   2.0000      -0.646107       -17.5815
  39   2.0000      -0.614151       -16.7119
  40   2.0000      -0.598173       -16.2771
  41   2.0000      -0.575162       -15.6510
  42   2.0000      -0.567845       -15.4518
  43   2.0000      -0.544600       -14.8193
  44   2.0000      -0.533995       -14.5307
  45   2.0000      -0.531475       -14.4622
  46   2.0000      -0.520135       -14.1536
  47   2.0000      -0.515295       -14.0219
  48   2.0000      -0.499982       -13.6052
  49   2.0000      -0.495817       -13.4919
  50   2.0000      -0.482032       -13.1168
  51   2.0000      -0.473567       -12.8864
  52   2.0000      -0.472569       -12.8593
  53   2.0000      -0.465899       -12.6778
  54   2.0000      -0.457605       -12.4521
  55   2.0000      -0.448566       -12.2061
  56   2.0000      -0.446035       -12.1372
  57   2.0000      -0.438590       -11.9346
  58   2.0000      -0.434380       -11.8201
  59   2.0000      -0.427994       -11.6463
  60   2.0000      -0.418470       -11.3872
  61   2.0000      -0.408490       -11.1156
  62   2.0000      -0.395859       -10.7719
  63   2.0000      -0.336692        -9.1619
  64   2.0000      -0.334699        -9.1076
  65   2.0000      -0.322589        -8.7781
  66   2.0000      -0.309141        -8.4122
  67   0.0000       0.047077         1.2810
  68   0.0000       0.056526         1.5382
  69   0.0000       0.111407         3.0315
  70   0.0000       0.120787         3.2868
  71   0.0000       0.126654         3.4464

MULLIKEN ATOMIC CHARGES
-----------------------
   0 S :    0.123484
   1 C :   -0.106466
   2 C :   -0.059168
   3 C :    0.045436
   4 C :   -0.191393
   5 H :    0.028571
   6 C :    0.015564
   7 H :    0.045944
   8 H :    0.014034
   9 C :   -0.052851
  10 H :    0.018788
  11 H :    0.028652
  12 C :   -0.077843
  13 H :    0.019401
  14 H :    0.041991
  15 H :    0.040090
  16 S :    0.131127
  17 C :   -0.103133
  18 C :   -0.009153
  19 C :   -0.022269
  20 C :   -0.187791
  21 H :   -0.000089
  22 C :    0.096420
  23 H :    0.014621
  24 H :    0.018611
  25 C :   -0.075750
  26 H :    0.022027
  27 H :    0.041023
  28 C :   -0.055964
  29 H :    0.024511
  30 H :    0.034104
  31 H :    0.027400
  32 H :    0.044838
  33 H :    0.065232
Sum of atomic charges:   -0.0000000

LOEWDIN ATOMIC CHARGES
----------------------
   0 S :    0.422569
   1 C :   -0.198027
   2 C :   -0.063302
   3 C :   -0.063924
   4 C :   -0.196487
   5 H :    0.040012
   6 C :   -0.038273
   7 H :    0.032664
   8 H :    0.032437
   9 C :   -0.041045
  10 H :    0.017371
  11 H :    0.024039
  12 C :   -0.076963
  13 H :    0.024367
  14 H :    0.026604
  15 H :    0.029537
  16 S :    0.420534
  17 C :   -0.189184
  18 C :   -0.063035
  19 C :   -0.051266
  20 C :   -0.218495
  21 H :    0.023194
  22 C :   -0.022019
  23 H :    0.018109
  24 H :    0.032862
  25 C :   -0.040462
  26 H :    0.023035
  27 H :    0.025611
  28 C :   -0.063984
  29 H :    0.025671
  30 H :    0.028252
  31 H :    0.018195
  32 H :    0.025159
  33 H :    0.036244

  Mayer bond orders larger than 0.100000
B(  0-S ,  1-C ) :   1.1487 B(  0-S ,  4-C ) :   1.1578 B(  1-C ,  2-C ) :   1.6115
B(  1-C , 32-H ) :   0.9716 B(  2-C ,  3-C ) :   1.2017 B(  2-C ,  6-C ) :   1.0137
B(  3-C ,  4-C ) :   1.6046 B(  3-C ,  5-H ) :   0.9886 B(  4-C , 20-C ) :   1.0010
B(  6-C ,  7-H ) :   0.9498 B(  6-C ,  8-H ) :   0.9445 B(  6-C ,  9-C ) :   1.0691
B(  9-C , 10-H ) :   0.9574 B(  9-C , 11-H ) :   0.9573 B(  9-C , 12-C ) :   1.0621
B( 12-C , 13-H ) :   0.9737 B( 12-C , 14-H ) :   0.9787 B( 12-C , 15-H ) :   0.9753
B( 16-S , 17-C ) :   1.1679 B( 16-S , 20-C ) :   1.1335 B( 17-C , 18-C ) :   1.6128
B( 17-C , 33-H ) :   0.9573 B( 18-C , 19-C ) :   1.2328 B( 18-C , 21-H ) :   1.0025
B( 19-C , 20-C ) :   1.6145 B( 19-C , 22-C ) :   1.0542 B( 22-C , 23-H ) :   0.9358
B( 22-C , 24-H ) :   0.9257 B( 22-C , 25-C ) :   1.0585 B( 25-C , 26-H ) :   0.9607
B( 25-C , 27-H ) :   0.9636 B( 25-C , 28-C ) :   1.0571 B( 28-C , 29-H ) :   0.9762
B( 28-C , 30-H ) :   0.9695 B( 28-C , 31-H ) :   0.9817

Dispersion correction           -0.014538741
FINAL SINGLE POINT ENERGY     -1339.858205898536

DIPOLE MOMENT
-------------
                                X             Y             Z
Electronic contribution:    -17.00693      22.55346      -4.23851
Nuclear contribution   :     17.29734     -22.90799       4.52006
                        -----------------------------------------
Total Dipole Moment    :      0.29041      -0.35453       0.28155
                        -----------------------------------------
Magnitude (a.u.)       :      0.53787
Magnitude (Debye)      :      1.36715

Rotational constants in cm-1:     0.017734     0.009182     0.007218
Rotational constants in MHz :   531.638234   275.277165   216.391066

                             ****ORCA TERMINATED NORMALLY****
TOTAL RUN TIME: 0 days 0 hours 0 minutes 21 seconds 922 msec
