                         Program Version 4.2.1 -  RELEASE  -
|  1> ! wB97X-D3 SP def2-SVP
|  2> %pal
|  3> nprocs 24
|  4> end
|  5>
|  6> * xyz 0 1
|  7> S 	 46.0774 	 -32.6862 	 -121.534
|  8> C 	 44.9998 	 -31.7591 	 -122.585
|  9> C 	 43.7964 	 -31.5733 	 -121.974
| 10> C 	 43.7795 	 -32.0214 	 -120.607
| 11> C 	 44.9381 	 -32.6264 	 -120.217
| 12> H 	 43.01 	 -31.9533 	 -119.935
| 13> C 	 42.614 	 -30.8689 	 -122.647
| 14> H 	 42.7801 	 -29.7669 	 -122.493
| 15> H 	 41.6982 	 -31.1154 	 -122.088
| 16> C 	 42.3715 	 -31.1001 	 -124.187
| 17> H 	 43.1406 	 -30.676 	 -124.797
| 18> H 	 42.4738 	 -32.1941 	 -124.294
| 19> C 	 41.0688 	 -30.5944 	 -124.748
| 20> H 	 40.8554 	 -29.4696 	 -124.538
| 21> H 	 41.0995 	 -30.5125 	 -125.869
| 22> H 	 40.202 	 -31.0769 	 -124.393
| 23> S 	 46.5756 	 -33.3634 	 -118.136
| 24> C 	 46.0693 	 -34.5341 	 -116.962
| 25> C 	 44.7536 	 -34.8813 	 -117.147
| 26> C 	 44.102 	 -34.1238 	 -118.219
| 27> C 	 45.0607 	 -33.4697 	 -119.003
| 28> H 	 44.3515 	 -35.5228 	 -116.43
| 29> C 	 42.6213 	 -34.239 	 -118.525
| 30> H 	 42.5389 	 -35.3211 	 -118.277
| 31> H 	 42.51 	 -34.2334 	 -119.618
| 32> C 	 41.6779 	 -33.4025 	 -117.666
| 33> H 	 41.7165 	 -32.342 	 -117.875
| 34> H 	 41.9353 	 -33.458 	 -116.515
| 35> C 	 40.2378 	 -33.871 	 -117.704
| 36> H 	 40.0801 	 -34.8443 	 -117.325
| 37> H 	 39.9239 	 -33.9907 	 -118.732
| 38> H 	 39.5273 	 -33.1986 	 -117.188
| 39> H 	 45.2554 	 -31.4671 	 -123.59
| 40> H 	 46.5758 	 -34.9532 	 -116.117
| 41> *
| 42>
| 43>                          ****END OF INPUT****

CARTESIAN COORDINATES (ANGSTROEM)
---------------------------------
  S     46.077400  -32.686200  -121.534000
  C     44.999800  -31.759100  -122.585000
  C     43.796400  -31.573300  -121.974000
  C     43.779500  -32.021400  -120.607000
  C     44.938100  -32.626400  -120.217000
  H     43.010000  -31.953300  -119.935000
  C     42.614000  -30.868900  -122.647000
  H     42.780100  -29.766900  -122.493000
  H     41.698200  -31.115400  -122.088000
  C     42.371500  -31.100100  -124.187000
  H     43.140600  -30.676000  -124.797000
  H     42.473800  -32.194100  -124.294000
  C     41.068800  -30.594400  -124.748000
  H     40.855400  -29.469600  -124.538000
  H     41.099500  -30.512500  -125.869000
  H     40.202000  -31.076900  -124.393000
  S     46.575600  -33.363400  -118.136000
  C     46.069300  -34.534100  -116.962000
  C     44.753600  -34.881300  -117.147000
  C     44.102000  -34.123800  -118.219000
  C     45.060700  -33.469700  -119.003000
  H     44.351500  -35.522800  -116.430000
  C     42.621300  -34.239000  -118.525000
  H     42.538900  -35.321100  -118.277000
  H     42.510000  -34.233400  -119.618000
  C     41.677900  -33.402500  -117.666000
  H     41.716500  -32.342000  -117.875000
  H     41.935300  -33.458000  -116.515000
  C     40.237800  -33.871000  -117.704000
  H     40.080100  -34.844300  -117.325000
  H     39.923900  -33.990700  -118.732000
  H     39.527300  -33.198600  -117.188000
  H     45.255400  -31.467100  -123.590000
  H     46.575800  -34.953200  -116.117000

 Total Charge           Charge          ....    0
 Multiplicity           Mult            ....    1
 Number of Electrons    NEL             ....  134
 Basis Dimension        Dim             ....  322

ORBITAL ENERGIES
----------------

  NO   OCC          E(Eh)            E(eV)
   0   2.0000     -88.963725     -2420.8260
   1   2.0000     -88.963061     -2420.8080
   2   2.0000     -10.328627      -281.0562
   3   2.0000     -10.328292      -281.0471
   4   2.0000     -10.313221      -280.6370
   5   2.0000     -10.313024      -280.6316
   6   2.0000     -10.310295      -280.5574
   7   2.0000     -10.302999      -280.3589
   8   2.0000     -10.300424      -280.2888
   9   2.0000     -10.299524      -280.2643
  10   2.0000     -10.298114      -280.2259
  11   2.0000     -10.291209      -280.0380
  12   2.0000     -10.290745      -280.0254
  13   2.0000     -10.287054      -279.9250
  14   2.0000     -10.286980      -279.9229
  15   2.0000     -10.276018      -279.6247
  16   2.0000      -8.078478      -219.8266
  17   2.0000      -8.078163      -219.8180
  18   2.0000      -6.037103      -164.2779
  19   2.0000      -6.036700      -164.2670
  20   2.0000      -6.032948      -164.1649
  21   2.0000      -6.032698      -164.1581
  22   2.0000      -6.029142      -164.0613
  23   2.0000      -6.028779      -164.0514
  24   2.0000      -1.006949       -27.4005
  25   2.0000      -0.984832       -26.7986
  26   2.0000      -0.912386       -24.8273
  27   2.0000      -0.906919       -24.6785
  28   2.0000      -0.870677       -23.6923
  29   2.0000      -0.855678       -23.2842
  30   2.0000      -0.847425       -23.0596
  31   2.0000      -0.820555       -22.3284
  32   2.0000      -0.782019       -21.2798
  33   2.0000      -0.771303       -20.9882
  34   2.0000      -0.709917       -19.3178
  35   2.0000      -0.705390       -19.1946
  36   2.0000      -0.692721       -18.8499
  37   2.0000      -0.664465       -18.0810
  38   2.0000      -0.643696       -17.5159
  39   2.0000      -0.617065       -16.7912
  40   2.0000      -0.589387       -16.0380
  41   2.0000      -0.573452       -15.6044
  42   2.0000      -0.567447       -15.4410
  43   2.0000      -0.560398       -15.2492
  44   2.0000      -0.534171       -14.5355
  45   2.0000      -0.523084       -14.2338
  46   2.0000      -0.519937       -14.1482
  47   2.0000      -0.514444       -13.9987
  48   2.0000      -0.509882       -13.8746
  49   2.0000      -0.499053       -13.5799
  50   2.0000      -0.494127       -13.4459
  51   2.0000      -0.482451       -13.1282
  52   2.0000      -0.476346       -12.9620
  53   2.0000      -0.460716       -12.5367
  54   2.0000      -0.459264       -12.4972
  55   2.0000      -0.452828       -12.3221
  56   2.0000      -0.450429       -12.2568
  57   2.0000      -0.443207       -12.0603
  58   2.0000      -0.432841       -11.7782
  59   2.0000      -0.423123       -11.5138
  60   2.0000      -0.416398       -11.3308
  61   2.0000      -0.412750       -11.2315
  62   2.0000      -0.409966       -11.1558
  63   2.0000      -0.352442        -9.5904
  64   2.0000      -0.329550        -8.9675
  65   2.0000      -0.325532        -8.8582
  66   2.0000      -0.293269        -7.9803
  67   0.0000       0.028408         0.7730
  68   0.0000       0.079511         2.1636
  69   0.0000       0.113220         3.0809
  70   0.0000       0.117151         3.1878
  71   0.0000       0.130415         3.5488

MULLIKEN ATOMIC CHARGES
-----------------------
   0 S :    0.100929
   1 C :   -0.127997
   2 C :   -0.063841
   3 C :    0.026024
   4 C :   -0.079052
   5 H :   -0.045753
   6 C :    0.039879
   7 H :    0.050918
   8 H :    0.023907
   9 C :   -0.068422
  10 H :    0.024617
  11 H :    0.037188
  12 C :   -0.068177
  13 H :    0.028276
  14 H :    0.041637
  15 H :    0.031692
  16 S :    0.101665
  17 C :   -0.066219
  18 C :   -0.023522
  19 C :   -0.057503
  20 C :   -0.142797
  21 H :   -0.003817
  22 C :    0.019008
  23 H :    0.028330
  24 H :    0.045482
  25 C :   -0.072555
  26 H :    0.038128
  27 H :    0.043537
  28 C :   -0.029523
  29 H :    0.018556
  30 H :    0.015584
  31 H :    0.040597
  32 H :    0.046621
  33 H :    0.046601
Sum of atomic charges:    0.0000000

LOEWDIN ATOMIC CHARGES
----------------------
   0 S :    0.397486
   1 C :   -0.187879
   2 C :   -0.062027
   3 C :   -0.056738
   4 C :   -0.190960
   5 H :    0.014659
   6 C :   -0.035372
   7 H :    0.039683
   8 H :    0.028754
   9 C :   -0.046370
  10 H :    0.020455
  11 H :    0.028981
  12 C :   -0.073264
  13 H :    0.033801
  14 H :    0.035360
  15 H :    0.016690
  16 S :    0.407996
  17 C :   -0.186759
  18 C :   -0.068798
  19 C :   -0.049066
  20 C :   -0.197831
  21 H :    0.021276
  22 C :   -0.044540
  23 H :    0.040220
  24 H :    0.036107
  25 C :   -0.045438
  26 H :    0.021330
  27 H :    0.039427
  28 C :   -0.066155
  29 H :    0.018599
  30 H :    0.021311
  31 H :    0.031221
  32 H :    0.027176
  33 H :    0.030665

  Mayer bond orders larger than 0.100000
B(  0-S ,  1-C ) :   1.1228 B(  0-S ,  4-C ) :   1.1515 B(  1-C ,  2-C ) :   1.6192
B(  1-C , 32-H ) :   0.9750 B(  2-C ,  3-C ) :   1.2213 B(  2-C ,  6-C ) :   1.0159
B(  3-C ,  4-C ) :   1.5805 B(  3-C ,  5-H ) :   1.0197 B(  4-C , 20-C ) :   1.0176
B(  6-C ,  7-H ) :   0.9345 B(  6-C ,  8-H ) :   0.9485 B(  6-C ,  9-C ) :   1.0566
B(  9-C , 10-H ) :   0.9489 B(  9-C , 11-H ) :   0.9596 B(  9-C , 12-C ) :   1.0925
B( 12-C , 13-H ) :   0.9692 B( 12-C , 14-H ) :   0.9728 B( 12-C , 15-H ) :   0.9765
B( 16-S , 17-C ) :   1.1442 B( 16-S , 20-C ) :   1.1357 B( 17-C , 18-C ) :   1.6460
B( 17-C , 33-H ) :   0.9659 B( 18-C , 19-C ) :   1.2149 B( 18-C , 21-H ) :   0.9941
B( 19-C , 20-C ) :   1.6009 B( 19-C , 22-C ) :   1.0257 B( 22-C , 23-H ) :   0.9397
B( 22-C , 24-H ) :   0.9379 B( 22-C , 25-C ) :   1.0432 B( 25-C , 26-H ) :   0.9515
B( 25-C , 27-H ) :   0.9565 B( 25-C , 28-C ) :   1.0822 B( 28-C , 29-H ) :   0.9749
B( 28-C , 30-H ) :   0.9700 B( 28-C , 31-H ) :   0.9738

Dispersion correction           -0.013718895
FINAL SINGLE POINT ENERGY     -1339.868029709227

DIPOLE MOMENT
-------------
                                X             Y             Z
Electronic contribution:     31.08673      -4.63131       7.74430
Nuclear contribution   :    -31.91301       4.61918      -7.72075
                        -----------------------------------------
Total Dipole Moment    :     -0.82628      -0.01213       0.02355
                        -----------------------------------------
Magnitude (a.u.)       :      0.82671
Magnitude (Debye)      :      2.10132

Rotational constants in cm-1:     0.018213     0.008366     0.005936
Rotational constants in MHz :   546.013070   250.814116   177.967296

                             ****ORCA TERMINATED NORMALLY****
TOTAL RUN TIME: 0 days 0 hours 0 minutes 21 seconds 185 msec
