                         Program Version 4.2.1 -  RELEASE  -
|  1> ! wB97X-D3 SP def2-SVP
|  2> %pal
|  3> nprocs 24
|  4> end
|  5>
|  6> * xyz 0 1
|  7> S 	 -46.5848 	 16.4962 	 21.6741
|  8> C 	 -48.2442 	 16.805 	 22.2573
|  9> C 	 -49.1684 	 16.2166 	 21.3879
| 10> C 	 -48.5667 	 15.6322 	 20.2823
| 11> C 	 -47.154 	 15.7867 	 20.2362
| 12> H 	 -48.9959 	 14.9904 	 19.4962
| 13> C 	 -50.6802 	 16.2686 	 21.5137
| 14> H 	 -51.0696 	 16.5808 	 20.4828
| 15> H 	 -50.9201 	 17.0939 	 22.1065
| 16> C 	 -51.4286 	 15.0225 	 22.0773
| 17> H 	 -50.8609 	 14.5324 	 22.8949
| 18> H 	 -52.4281 	 15.3157 	 22.3823
| 19> C 	 -51.6733 	 13.9162 	 21.023
| 20> H 	 -50.7294 	 13.4171 	 20.7662
| 21> H 	 -52.3827 	 13.2417 	 21.5092
| 22> H 	 -52.1399 	 14.1749 	 20.0573
| 23> S 	 -44.6822 	 14.598 	 19.8924
| 24> C 	 -44.2717 	 13.6503 	 18.5752
| 25> C 	 -45.2877 	 13.7587 	 17.6108
| 26> C 	 -46.3901 	 14.6266 	 17.9601
| 27> C 	 -46.2373 	 15.0977 	 19.2651
| 28> H 	 -45.1836 	 13.0839 	 16.7746
| 29> C 	 -47.5445 	 14.8023 	 16.9748
| 30> H 	 -48.4333 	 15.1144 	 17.5736
| 31> H 	 -47.8059 	 13.8442 	 16.6792
| 32> C 	 -47.2315 	 15.6023 	 15.672
| 33> H 	 -48.1733 	 15.7926 	 15.0947
| 34> H 	 -46.6566 	 14.9748 	 14.9732
| 35> C 	 -46.5466 	 17.0303 	 16.0246
| 36> H 	 -46.5162 	 17.7082 	 15.1786
| 37> H 	 -45.5414 	 16.8416 	 16.426
| 38> H 	 -47.1873 	 17.4959 	 16.7455
| 39> H 	 -48.5965 	 17.4448 	 23.0373
| 40> H 	 -43.5151 	 12.8202 	 18.5655
| 41> *
| 42>
| 43>                          ****END OF INPUT****

CARTESIAN COORDINATES (ANGSTROEM)
---------------------------------
  S    -46.584800   16.496200   21.674100
  C    -48.244200   16.805000   22.257300
  C    -49.168400   16.216600   21.387900
  C    -48.566700   15.632200   20.282300
  C    -47.154000   15.786700   20.236200
  H    -48.995900   14.990400   19.496200
  C    -50.680200   16.268600   21.513700
  H    -51.069600   16.580800   20.482800
  H    -50.920100   17.093900   22.106500
  C    -51.428600   15.022500   22.077300
  H    -50.860900   14.532400   22.894900
  H    -52.428100   15.315700   22.382300
  C    -51.673300   13.916200   21.023000
  H    -50.729400   13.417100   20.766200
  H    -52.382700   13.241700   21.509200
  H    -52.139900   14.174900   20.057300
  S    -44.682200   14.598000   19.892400
  C    -44.271700   13.650300   18.575200
  C    -45.287700   13.758700   17.610800
  C    -46.390100   14.626600   17.960100
  C    -46.237300   15.097700   19.265100
  H    -45.183600   13.083900   16.774600
  C    -47.544500   14.802300   16.974800
  H    -48.433300   15.114400   17.573600
  H    -47.805900   13.844200   16.679200
  C    -47.231500   15.602300   15.672000
  H    -48.173300   15.792600   15.094700
  H    -46.656600   14.974800   14.973200
  C    -46.546600   17.030300   16.024600
  H    -46.516200   17.708200   15.178600
  H    -45.541400   16.841600   16.426000
  H    -47.187300   17.495900   16.745500
  H    -48.596500   17.444800   23.037300
  H    -43.515100   12.820200   18.565500

 Total Charge           Charge          ....    0
 Multiplicity           Mult            ....    1
 Number of Electrons    NEL             ....  134
 Basis Dimension        Dim             ....  322

ORBITAL ENERGIES
----------------

  NO   OCC          E(Eh)            E(eV)
   0   2.0000     -88.972611     -2421.0678
   1   2.0000     -88.964867     -2420.8571
   2   2.0000     -10.335819      -281.2519
   3   2.0000     -10.335096      -281.2323
   4   2.0000     -10.317725      -280.7596
   5   2.0000     -10.315555      -280.7005
   6   2.0000     -10.310010      -280.5496
   7   2.0000     -10.300754      -280.2978
   8   2.0000     -10.298802      -280.2446
   9   2.0000     -10.295317      -280.1498
  10   2.0000     -10.293888      -280.1109
  11   2.0000     -10.293786      -280.1082
  12   2.0000     -10.293532      -280.1012
  13   2.0000     -10.293167      -280.0913
  14   2.0000     -10.279157      -279.7101
  15   2.0000     -10.276386      -279.6347
  16   2.0000      -8.087044      -220.0597
  17   2.0000      -8.081092      -219.8977
  18   2.0000      -6.045562      -164.5081
  19   2.0000      -6.041502      -164.3976
  20   2.0000      -6.039504      -164.3433
  21   2.0000      -6.037909      -164.2998
  22   2.0000      -6.035191      -164.2259
  23   2.0000      -6.032059      -164.1407
  24   2.0000      -1.010764       -27.5043
  25   2.0000      -0.988720       -26.9044
  26   2.0000      -0.909213       -24.7410
  27   2.0000      -0.903469       -24.5846
  28   2.0000      -0.865989       -23.5647
  29   2.0000      -0.848713       -23.0947
  30   2.0000      -0.838037       -22.8041
  31   2.0000      -0.810565       -22.0566
  32   2.0000      -0.784542       -21.3485
  33   2.0000      -0.777187       -21.1483
  34   2.0000      -0.706945       -19.2369
  35   2.0000      -0.699670       -19.0390
  36   2.0000      -0.693048       -18.8588
  37   2.0000      -0.658215       -17.9109
  38   2.0000      -0.634418       -17.2634
  39   2.0000      -0.619900       -16.8683
  40   2.0000      -0.589886       -16.0516
  41   2.0000      -0.571304       -15.5460
  42   2.0000      -0.549631       -14.9562
  43   2.0000      -0.547630       -14.9018
  44   2.0000      -0.542930       -14.7739
  45   2.0000      -0.532710       -14.4958
  46   2.0000      -0.517243       -14.0749
  47   2.0000      -0.512780       -13.9535
  48   2.0000      -0.505261       -13.7488
  49   2.0000      -0.493771       -13.4362
  50   2.0000      -0.486208       -13.2304
  51   2.0000      -0.481667       -13.1068
  52   2.0000      -0.472102       -12.8466
  53   2.0000      -0.463149       -12.6029
  54   2.0000      -0.461418       -12.5558
  55   2.0000      -0.448025       -12.1914
  56   2.0000      -0.444261       -12.0890
  57   2.0000      -0.436719       -11.8837
  58   2.0000      -0.428639       -11.6639
  59   2.0000      -0.423741       -11.5306
  60   2.0000      -0.419465       -11.4142
  61   2.0000      -0.418278       -11.3819
  62   2.0000      -0.409491       -11.1428
  63   2.0000      -0.356977        -9.7138
  64   2.0000      -0.337056        -9.1718
  65   2.0000      -0.327811        -8.9202
  66   2.0000      -0.282413        -7.6849
  67   0.0000       0.020734         0.5642
  68   0.0000       0.076736         2.0881
  69   0.0000       0.102537         2.7902
  70   0.0000       0.112793         3.0693
  71   0.0000       0.139834         3.8051

MULLIKEN ATOMIC CHARGES
-----------------------
   0 S :    0.111343
   1 C :   -0.103418
   2 C :   -0.087520
   3 C :   -0.018447
   4 C :   -0.108235
   5 H :    0.025686
   6 C :    0.070615
   7 H :    0.036847
   8 H :   -0.001320
   9 C :   -0.053815
  10 H :    0.046601
  11 H :    0.031074
  12 C :   -0.084926
  13 H :    0.041498
  14 H :    0.034670
  15 H :    0.029056
  16 S :    0.099724
  17 C :   -0.107083
  18 C :   -0.068829
  19 C :   -0.073624
  20 C :   -0.140674
  21 H :    0.019352
  22 C :    0.108491
  23 H :    0.017483
  24 H :    0.007749
  25 C :   -0.098905
  26 H :    0.037143
  27 H :    0.033700
  28 C :   -0.051032
  29 H :    0.033678
  30 H :    0.058252
  31 H :    0.033006
  32 H :    0.037027
  33 H :    0.084833
Sum of atomic charges:   -0.0000000

LOEWDIN ATOMIC CHARGES
----------------------
   0 S :    0.422418
   1 C :   -0.196403
   2 C :   -0.062138
   3 C :   -0.078300
   4 C :   -0.199655
   5 H :    0.031330
   6 C :   -0.031763
   7 H :    0.039980
   8 H :    0.018930
   9 C :   -0.033681
  10 H :    0.034558
  11 H :    0.024420
  12 C :   -0.073696
  13 H :    0.024043
  14 H :    0.027291
  15 H :    0.022539
  16 S :    0.432619
  17 C :   -0.225764
  18 C :   -0.075754
  19 C :   -0.060243
  20 C :   -0.194855
  21 H :    0.027559
  22 C :   -0.031564
  23 H :    0.031092
  24 H :    0.023369
  25 C :   -0.037803
  26 H :    0.028904
  27 H :    0.021797
  28 C :   -0.061530
  29 H :    0.022883
  30 H :    0.031327
  31 H :    0.024360
  32 H :    0.026641
  33 H :    0.047087

  Mayer bond orders larger than 0.100000
B(  0-S ,  1-C ) :   1.1326 B(  0-S ,  4-C ) :   1.1870 B(  1-C ,  2-C ) :   1.5785
B(  1-C ,  4-C ) :   0.1095 B(  1-C , 32-H ) :   0.9684 B(  2-C ,  3-C ) :   1.2951
B(  2-C ,  6-C ) :   1.0182 B(  3-C ,  4-C ) :   1.5175 B(  3-C ,  5-H ) :   0.9769
B(  4-C , 20-C ) :   1.0391 B(  6-C ,  7-H ) :   0.9479 B(  6-C ,  8-H ) :   0.9347
B(  6-C ,  9-C ) :   1.0596 B(  9-C , 10-H ) :   0.9546 B(  9-C , 11-H ) :   0.9595
B(  9-C , 12-C ) :   1.0779 B( 12-C , 13-H ) :   0.9755 B( 12-C , 14-H ) :   0.9753
B( 12-C , 15-H ) :   0.9769 B( 16-S , 17-C ) :   1.1824 B( 16-S , 20-C ) :   1.1585
B( 17-C , 18-C ) :   1.5887 B( 17-C , 33-H ) :   0.9595 B( 18-C , 19-C ) :   1.2471
B( 18-C , 21-H ) :   0.9920 B( 19-C , 20-C ) :   1.5718 B( 19-C , 22-C ) :   1.0335
B( 22-C , 23-H ) :   0.9330 B( 22-C , 24-H ) :   0.9288 B( 22-C , 25-C ) :   1.0663
B( 25-C , 26-H ) :   0.9586 B( 25-C , 27-H ) :   0.9588 B( 25-C , 28-C ) :   1.0590
B( 28-C , 29-H ) :   0.9792 B( 28-C , 30-H ) :   0.9741 B( 28-C , 31-H ) :   0.9794

Dispersion correction           -0.014445790
FINAL SINGLE POINT ENERGY     -1339.864677869070

DIPOLE MOMENT
-------------
                                X             Y             Z
Electronic contribution:     22.43441       1.59348      12.51461
Nuclear contribution   :    -23.04001      -1.90370     -12.80440
                        -----------------------------------------
Total Dipole Moment    :     -0.60560      -0.31022      -0.28979
                        -----------------------------------------
Magnitude (a.u.)       :      0.73957
Magnitude (Debye)      :      1.87984

Rotational constants in cm-1:     0.018232     0.008706     0.007253
Rotational constants in MHz :   546.577327   261.002756   217.425322

                             ****ORCA TERMINATED NORMALLY****
TOTAL RUN TIME: 0 days 0 hours 0 minutes 21 seconds 753 msec
