                         Program Version 4.2.1 -  RELEASE  -
|  1> ! wB97X-D3 SP def2-SVP
|  2> %pal
|  3> nprocs 24
|  4> end
|  5>
|  6> * xyz 0 1
|  7> S 	 -83.7152 	 -11.8029 	 -59.3856
|  8> C 	 -82.7065 	 -10.352 	 -59.6515
|  9> C 	 -81.8313 	 -10.5181 	 -60.7103
| 10> C 	 -82.0472 	 -11.7825 	 -61.2967
| 11> C 	 -83.041 	 -12.5951 	 -60.7648
| 12> H 	 -81.6049 	 -12.1754 	 -62.2226
| 13> C 	 -80.8464 	 -9.48702 	 -61.3115
| 14> H 	 -80.1823 	 -9.21394 	 -60.5531
| 15> H 	 -81.5175 	 -8.63129 	 -61.4924
| 16> C 	 -80.1069 	 -9.86545 	 -62.6262
| 17> H 	 -79.5821 	 -10.8703 	 -62.6923
| 18> H 	 -80.75 	 -9.71668 	 -63.4787
| 19> C 	 -78.9057 	 -8.96317 	 -62.8493
| 20> H 	 -78.4358 	 -9.16415 	 -63.8102
| 21> H 	 -79.3118 	 -8.00101 	 -62.8181
| 22> H 	 -78.2005 	 -8.90577 	 -61.9931
| 23> S 	 -82.9192 	 -15.1635 	 -59.9043
| 24> C 	 -83.2563 	 -16.373 	 -61.0368
| 25> C 	 -83.9111 	 -15.9526 	 -62.1318
| 26> C 	 -84.0012 	 -14.5176 	 -62.1251
| 27> C 	 -83.3367 	 -13.9744 	 -61.0377
| 28> H 	 -84.3699 	 -16.6653 	 -62.902
| 29> C 	 -84.7378 	 -13.7041 	 -63.2074
| 30> H 	 -84.4644 	 -12.6778 	 -62.9251
| 31> H 	 -85.8319 	 -13.6938 	 -63.0092
| 32> C 	 -84.3709 	 -13.9614 	 -64.6582
| 33> H 	 -84.9261 	 -13.301 	 -65.2947
| 34> H 	 -84.7474 	 -14.9249 	 -65.0435
| 35> C 	 -82.8599 	 -13.9056 	 -64.9555
| 36> H 	 -82.2377 	 -13.9802 	 -64.0562
| 37> H 	 -82.5945 	 -13.0623 	 -65.5095
| 38> H 	 -82.7384 	 -14.7318 	 -65.7356
| 39> H 	 -82.7848 	 -9.49553 	 -58.9859
| 40> H 	 -83.1969 	 -17.4494 	 -60.9673
| 41> *
| 42>
| 43>                          ****END OF INPUT****

CARTESIAN COORDINATES (ANGSTROEM)
---------------------------------
  S    -83.715200  -11.802900  -59.385600
  C    -82.706500  -10.352000  -59.651500
  C    -81.831300  -10.518100  -60.710300
  C    -82.047200  -11.782500  -61.296700
  C    -83.041000  -12.595100  -60.764800
  H    -81.604900  -12.175400  -62.222600
  C    -80.846400   -9.487020  -61.311500
  H    -80.182300   -9.213940  -60.553100
  H    -81.517500   -8.631290  -61.492400
  C    -80.106900   -9.865450  -62.626200
  H    -79.582100  -10.870300  -62.692300
  H    -80.750000   -9.716680  -63.478700
  C    -78.905700   -8.963170  -62.849300
  H    -78.435800   -9.164150  -63.810200
  H    -79.311800   -8.001010  -62.818100
  H    -78.200500   -8.905770  -61.993100
  S    -82.919200  -15.163500  -59.904300
  C    -83.256300  -16.373000  -61.036800
  C    -83.911100  -15.952600  -62.131800
  C    -84.001200  -14.517600  -62.125100
  C    -83.336700  -13.974400  -61.037700
  H    -84.369900  -16.665300  -62.902000
  C    -84.737800  -13.704100  -63.207400
  H    -84.464400  -12.677800  -62.925100
  H    -85.831900  -13.693800  -63.009200
  C    -84.370900  -13.961400  -64.658200
  H    -84.926100  -13.301000  -65.294700
  H    -84.747400  -14.924900  -65.043500
  C    -82.859900  -13.905600  -64.955500
  H    -82.237700  -13.980200  -64.056200
  H    -82.594500  -13.062300  -65.509500
  H    -82.738400  -14.731800  -65.735600
  H    -82.784800   -9.495530  -58.985900
  H    -83.196900  -17.449400  -60.967300

 Total Charge           Charge          ....    0
 Multiplicity           Mult            ....    1
 Number of Electrons    NEL             ....  134
 Basis Dimension        Dim             ....  322

ORBITAL ENERGIES
----------------

  NO   OCC          E(Eh)            E(eV)
   0   2.0000     -88.964855     -2420.8568
   1   2.0000     -88.962599     -2420.7954
   2   2.0000     -10.321817      -280.8709
   3   2.0000     -10.316493      -280.7260
   4   2.0000     -10.316133      -280.7162
   5   2.0000     -10.305437      -280.4252
   6   2.0000     -10.303817      -280.3811
   7   2.0000     -10.299821      -280.2724
   8   2.0000     -10.298436      -280.2347
   9   2.0000     -10.293038      -280.0878
  10   2.0000     -10.290938      -280.0307
  11   2.0000     -10.289964      -280.0041
  12   2.0000     -10.289637      -279.9953
  13   2.0000     -10.282924      -279.8126
  14   2.0000     -10.274621      -279.5866
  15   2.0000     -10.274491      -279.5831
  16   2.0000      -8.081824      -219.9176
  17   2.0000      -8.077332      -219.7954
  18   2.0000      -6.040254      -164.3637
  19   2.0000      -6.036188      -164.2530
  20   2.0000      -6.035790      -164.2422
  21   2.0000      -6.032340      -164.1483
  22   2.0000      -6.031700      -164.1309
  23   2.0000      -6.028290      -164.0381
  24   2.0000      -1.017186       -27.6790
  25   2.0000      -0.987444       -26.8697
  26   2.0000      -0.913845       -24.8670
  27   2.0000      -0.906080       -24.6557
  28   2.0000      -0.876185       -23.8422
  29   2.0000      -0.847495       -23.0615
  30   2.0000      -0.846086       -23.0232
  31   2.0000      -0.814217       -22.1560
  32   2.0000      -0.785263       -21.3681
  33   2.0000      -0.773005       -21.0345
  34   2.0000      -0.711011       -19.3476
  35   2.0000      -0.697792       -18.9879
  36   2.0000      -0.690599       -18.7922
  37   2.0000      -0.648590       -17.6490
  38   2.0000      -0.644266       -17.5314
  39   2.0000      -0.614417       -16.7191
  40   2.0000      -0.591115       -16.0851
  41   2.0000      -0.574788       -15.6408
  42   2.0000      -0.567260       -15.4359
  43   2.0000      -0.556768       -15.1504
  44   2.0000      -0.536661       -14.6033
  45   2.0000      -0.532193       -14.4817
  46   2.0000      -0.513502       -13.9731
  47   2.0000      -0.505574       -13.7574
  48   2.0000      -0.505124       -13.7451
  49   2.0000      -0.499222       -13.5845
  50   2.0000      -0.490296       -13.3416
  51   2.0000      -0.481507       -13.1025
  52   2.0000      -0.468859       -12.7583
  53   2.0000      -0.456788       -12.4298
  54   2.0000      -0.455813       -12.4033
  55   2.0000      -0.450649       -12.2628
  56   2.0000      -0.447461       -12.1760
  57   2.0000      -0.438652       -11.9363
  58   2.0000      -0.438183       -11.9236
  59   2.0000      -0.428431       -11.6582
  60   2.0000      -0.422705       -11.5024
  61   2.0000      -0.407851       -11.0982
  62   2.0000      -0.398987       -10.8570
  63   2.0000      -0.338624        -9.2144
  64   2.0000      -0.331717        -9.0265
  65   2.0000      -0.326147        -8.8749
  66   2.0000      -0.298221        -8.1150
  67   0.0000       0.042606         1.1594
  68   0.0000       0.062135         1.6908
  69   0.0000       0.114801         3.1239
  70   0.0000       0.129359         3.5200
  71   0.0000       0.137079         3.7301

MULLIKEN ATOMIC CHARGES
-----------------------
   0 S :    0.100145
   1 C :   -0.158158
   2 C :   -0.059813
   3 C :    0.024183
   4 C :   -0.191339
   5 H :    0.010380
   6 C :    0.087032
   7 H :    0.023582
   8 H :    0.045227
   9 C :   -0.100639
  10 H :    0.053532
  11 H :    0.036052
  12 C :   -0.034557
  13 H :    0.041801
  14 H :    0.002415
  15 H :    0.033069
  16 S :    0.147539
  17 C :   -0.061772
  18 C :   -0.072586
  19 C :   -0.067835
  20 C :   -0.171327
  21 H :    0.046720
  22 C :    0.077975
  23 H :    0.021333
  24 H :    0.043941
  25 C :   -0.059362
  26 H :    0.017407
  27 H :    0.019262
  28 C :   -0.056101
  29 H :    0.062571
  30 H :    0.018014
  31 H :    0.032303
  32 H :    0.047572
  33 H :    0.041434
Sum of atomic charges:    0.0000000

LOEWDIN ATOMIC CHARGES
----------------------
   0 S :    0.400084
   1 C :   -0.189456
   2 C :   -0.062477
   3 C :   -0.067250
   4 C :   -0.208692
   5 H :    0.030716
   6 C :   -0.022772
   7 H :    0.024661
   8 H :    0.043529
   9 C :   -0.044479
  10 H :    0.033975
  11 H :    0.025323
  12 C :   -0.063283
  13 H :    0.028420
  14 H :    0.012961
  15 H :    0.027325
  16 S :    0.454079
  17 C :   -0.204159
  18 C :   -0.083389
  19 C :   -0.052846
  20 C :   -0.230981
  21 H :    0.046371
  22 C :   -0.037776
  23 H :    0.031221
  24 H :    0.039033
  25 C :   -0.046463
  26 H :    0.023559
  27 H :    0.019879
  28 C :   -0.066689
  29 H :    0.029071
  30 H :    0.015508
  31 H :    0.038626
  32 H :    0.025071
  33 H :    0.031300

  Mayer bond orders larger than 0.100000
B(  0-S ,  1-C ) :   1.1486 B(  0-S ,  4-C ) :   1.1560 B(  1-C ,  2-C ) :   1.5917
B(  1-C ,  4-C ) :   0.1093 B(  1-C , 32-H ) :   0.9759 B(  2-C ,  3-C ) :   1.2713
B(  2-C ,  6-C ) :   0.9803 B(  3-C ,  4-C ) :   1.5712 B(  3-C ,  5-H ) :   0.9847
B(  4-C , 20-C ) :   1.0155 B(  6-C ,  7-H ) :   0.9424 B(  6-C ,  8-H ) :   0.9358
B(  6-C ,  9-C ) :   1.0786 B(  9-C , 10-H ) :   0.9573 B(  9-C , 11-H ) :   0.9516
B(  9-C , 12-C ) :   1.0793 B( 12-C , 13-H ) :   0.9726 B( 12-C , 14-H ) :   0.9695
B( 12-C , 15-H ) :   0.9764 B( 16-S , 17-C ) :   1.1595 B( 16-S , 20-C ) :   1.1525
B( 17-C , 18-C ) :   1.6372 B( 17-C , 33-H ) :   0.9589 B( 18-C , 19-C ) :   1.2350
B( 18-C , 21-H ) :   0.9794 B( 19-C , 20-C ) :   1.5966 B( 19-C , 22-C ) :   1.0363
B( 22-C , 23-H ) :   0.9273 B( 22-C , 24-H ) :   0.9342 B( 22-C , 25-C ) :   1.0750
B( 25-C , 26-H ) :   0.9512 B( 25-C , 27-H ) :   0.9647 B( 25-C , 28-C ) :   1.0548
B( 28-C , 29-H ) :   0.9751 B( 28-C , 30-H ) :   0.9777 B( 28-C , 31-H ) :   0.9778

Dispersion correction           -0.014542215
FINAL SINGLE POINT ENERGY     -1339.858058744767

DIPOLE MOMENT
-------------
                                X             Y             Z
Electronic contribution:    -10.78348     -12.05083      24.62625
Nuclear contribution   :     10.89115      12.32111     -25.21527
                        -----------------------------------------
Total Dipole Moment    :      0.10767       0.27028      -0.58901
                        -----------------------------------------
Magnitude (a.u.)       :      0.65694
Magnitude (Debye)      :      1.66982

Rotational constants in cm-1:     0.017615     0.009080     0.007123
Rotational constants in MHz :   528.099325   272.214345   213.543853

                             ****ORCA TERMINATED NORMALLY****
TOTAL RUN TIME: 0 days 0 hours 0 minutes 22 seconds 16 msec
