                         Program Version 4.2.1 -  RELEASE  -
|  1> ! wB97X-D3 SP def2-SVP
|  2> %pal
|  3> nprocs 24
|  4> end
|  5>
|  6> * xyz 0 1
|  7> S 	 -106.409 	 68.7316 	 -14.2082
|  8> C 	 -106.178 	 69.5156 	 -12.6143
|  9> C 	 -106.395 	 68.652 	 -11.527
| 10> C 	 -106.506 	 67.2796 	 -11.9512
| 11> C 	 -106.369 	 67.158 	 -13.3459
| 12> H 	 -106.598 	 66.363 	 -11.3479
| 13> C 	 -106.178 	 69.0311 	 -10.0846
| 14> H 	 -106.995 	 68.698 	 -9.42852
| 15> H 	 -106.246 	 70.1325 	 -10.0289
| 16> C 	 -104.802 	 68.4739 	 -9.4504
| 17> H 	 -104.665 	 67.4244 	 -9.63652
| 18> H 	 -103.854 	 69.0087 	 -9.85892
| 19> C 	 -104.689 	 68.7256 	 -7.93347
| 20> H 	 -105.431 	 68.1996 	 -7.35081
| 21> H 	 -103.659 	 68.315 	 -7.67194
| 22> H 	 -104.74 	 69.7824 	 -7.65149
| 23> S 	 -105.139 	 65.5478 	 -15.345
| 24> C 	 -105.76 	 63.9592 	 -15.6323
| 25> C 	 -106.806 	 63.6414 	 -14.808
| 26> C 	 -107.149 	 64.7572 	 -13.9692
| 27> C 	 -106.33 	 65.864 	 -14.0325
| 28> H 	 -107.39 	 62.7725 	 -15.0171
| 29> C 	 -108.341 	 64.6067 	 -13.0685
| 30> H 	 -109.191 	 64.1644 	 -13.5982
| 31> H 	 -108.598 	 65.5656 	 -12.7676
| 32> C 	 -107.961 	 63.817 	 -11.8219
| 33> H 	 -108.476 	 64.1603 	 -10.9239
| 34> H 	 -106.937 	 63.9957 	 -11.5757
| 35> C 	 -108.127 	 62.2905 	 -11.9397
| 36> H 	 -109.138 	 62.0368 	 -12.2563
| 37> H 	 -107.751 	 61.7651 	 -11.065
| 38> H 	 -107.466 	 61.805 	 -12.6979
| 39> H 	 -105.955 	 70.5606 	 -12.4799
| 40> H 	 -105.563 	 63.3645 	 -16.5189
| 41> *
| 42>
| 43>                          ****END OF INPUT****

CARTESIAN COORDINATES (ANGSTROEM)
---------------------------------
  S    -106.409000   68.731600  -14.208200
  C    -106.178000   69.515600  -12.614300
  C    -106.395000   68.652000  -11.527000
  C    -106.506000   67.279600  -11.951200
  C    -106.369000   67.158000  -13.345900
  H    -106.598000   66.363000  -11.347900
  C    -106.178000   69.031100  -10.084600
  H    -106.995000   68.698000   -9.428520
  H    -106.246000   70.132500  -10.028900
  C    -104.802000   68.473900   -9.450400
  H    -104.665000   67.424400   -9.636520
  H    -103.854000   69.008700   -9.858920
  C    -104.689000   68.725600   -7.933470
  H    -105.431000   68.199600   -7.350810
  H    -103.659000   68.315000   -7.671940
  H    -104.740000   69.782400   -7.651490
  S    -105.139000   65.547800  -15.345000
  C    -105.760000   63.959200  -15.632300
  C    -106.806000   63.641400  -14.808000
  C    -107.149000   64.757200  -13.969200
  C    -106.330000   65.864000  -14.032500
  H    -107.390000   62.772500  -15.017100
  C    -108.341000   64.606700  -13.068500
  H    -109.191000   64.164400  -13.598200
  H    -108.598000   65.565600  -12.767600
  C    -107.961000   63.817000  -11.821900
  H    -108.476000   64.160300  -10.923900
  H    -106.937000   63.995700  -11.575700
  C    -108.127000   62.290500  -11.939700
  H    -109.138000   62.036800  -12.256300
  H    -107.751000   61.765100  -11.065000
  H    -107.466000   61.805000  -12.697900
  H    -105.955000   70.560600  -12.479900
  H    -105.563000   63.364500  -16.518900

 Total Charge           Charge          ....    0
 Multiplicity           Mult            ....    1
 Number of Electrons    NEL             ....  134
 Basis Dimension        Dim             ....  322

ORBITAL ENERGIES
----------------

  NO   OCC          E(Eh)            E(eV)
   0   2.0000     -88.972251     -2421.0580
   1   2.0000     -88.961809     -2420.7739
   2   2.0000     -10.337402      -281.2950
   3   2.0000     -10.327321      -281.0207
   4   2.0000     -10.320082      -280.8237
   5   2.0000     -10.315626      -280.7025
   6   2.0000     -10.308102      -280.4977
   7   2.0000     -10.302979      -280.3583
   8   2.0000     -10.301937      -280.3299
   9   2.0000     -10.301299      -280.3126
  10   2.0000     -10.299313      -280.2586
  11   2.0000     -10.289311      -279.9864
  12   2.0000     -10.283992      -279.8416
  13   2.0000     -10.283495      -279.8281
  14   2.0000     -10.281320      -279.7689
  15   2.0000     -10.279379      -279.7161
  16   2.0000      -8.085395      -220.0148
  17   2.0000      -8.076332      -219.7682
  18   2.0000      -6.044024      -164.4663
  19   2.0000      -6.040444      -164.3688
  20   2.0000      -6.035802      -164.2425
  21   2.0000      -6.034893      -164.2178
  22   2.0000      -6.030864      -164.1082
  23   2.0000      -6.027046      -164.0043
  24   2.0000      -1.000082       -27.2136
  25   2.0000      -0.977394       -26.5962
  26   2.0000      -0.912848       -24.8399
  27   2.0000      -0.901338       -24.5267
  28   2.0000      -0.866633       -23.5823
  29   2.0000      -0.849544       -23.1173
  30   2.0000      -0.842552       -22.9270
  31   2.0000      -0.814566       -22.1655
  32   2.0000      -0.782914       -21.3042
  33   2.0000      -0.767760       -20.8918
  34   2.0000      -0.708326       -19.2745
  35   2.0000      -0.697847       -18.9894
  36   2.0000      -0.692982       -18.8570
  37   2.0000      -0.661156       -17.9910
  38   2.0000      -0.640089       -17.4177
  39   2.0000      -0.616664       -16.7803
  40   2.0000      -0.596417       -16.2293
  41   2.0000      -0.567720       -15.4485
  42   2.0000      -0.558971       -15.2104
  43   2.0000      -0.550953       -14.9922
  44   2.0000      -0.539741       -14.6871
  45   2.0000      -0.526744       -14.3334
  46   2.0000      -0.517537       -14.0829
  47   2.0000      -0.506297       -13.7770
  48   2.0000      -0.503026       -13.6880
  49   2.0000      -0.498937       -13.5768
  50   2.0000      -0.493892       -13.4395
  51   2.0000      -0.472004       -12.8439
  52   2.0000      -0.469508       -12.7760
  53   2.0000      -0.462589       -12.5877
  54   2.0000      -0.458945       -12.4885
  55   2.0000      -0.447987       -12.1903
  56   2.0000      -0.442494       -12.0409
  57   2.0000      -0.437003       -11.8915
  58   2.0000      -0.432447       -11.7675
  59   2.0000      -0.428330       -11.6555
  60   2.0000      -0.424177       -11.5425
  61   2.0000      -0.419953       -11.4275
  62   2.0000      -0.407682       -11.0936
  63   2.0000      -0.343805        -9.3554
  64   2.0000      -0.331913        -9.0318
  65   2.0000      -0.328168        -8.9299
  66   2.0000      -0.291622        -7.9354
  67   0.0000       0.021781         0.5927
  68   0.0000       0.069918         1.9026
  69   0.0000       0.098278         2.6743
  70   0.0000       0.125512         3.4154
  71   0.0000       0.129194         3.5155

MULLIKEN ATOMIC CHARGES
-----------------------
   0 S :    0.117203
   1 C :   -0.119096
   2 C :   -0.048247
   3 C :    0.001558
   4 C :   -0.143774
   5 H :    0.025502
   6 C :    0.049043
   7 H :    0.031586
   8 H :    0.021874
   9 C :   -0.098647
  10 H :    0.035483
  11 H :    0.046303
  12 C :   -0.069717
  13 H :    0.030402
  14 H :    0.042978
  15 H :    0.038081
  16 S :    0.091967
  17 C :   -0.083469
  18 C :   -0.020787
  19 C :   -0.088490
  20 C :   -0.154258
  21 H :    0.019736
  22 C :    0.124174
  23 H :    0.029153
  24 H :   -0.002564
  25 C :   -0.074109
  26 H :    0.026917
  27 H :    0.027942
  28 C :   -0.049551
  29 H :    0.029389
  30 H :    0.032156
  31 H :    0.024479
  32 H :    0.044806
  33 H :    0.061976
Sum of atomic charges:    0.0000000

LOEWDIN ATOMIC CHARGES
----------------------
   0 S :    0.373506
   1 C :   -0.180369
   2 C :   -0.061248
   3 C :   -0.056400
   4 C :   -0.173727
   5 H :    0.037267
   6 C :   -0.037629
   7 H :    0.032557
   8 H :    0.031034
   9 C :   -0.039976
  10 H :    0.020353
  11 H :    0.036527
  12 C :   -0.071866
  13 H :    0.017815
  14 H :    0.036188
  15 H :    0.024498
  16 S :    0.386306
  17 C :   -0.181100
  18 C :   -0.077652
  19 C :   -0.045495
  20 C :   -0.196982
  21 H :    0.029799
  22 C :   -0.024298
  23 H :    0.032269
  24 H :    0.019100
  25 C :   -0.038342
  26 H :    0.023465
  27 H :    0.020310
  28 C :   -0.069927
  29 H :    0.021687
  30 H :    0.027729
  31 H :    0.026948
  32 H :    0.024437
  33 H :    0.033217

  Mayer bond orders larger than 0.100000
B(  0-S ,  1-C ) :   1.1186 B(  0-S ,  4-C ) :   1.1314 B(  1-C ,  2-C ) :   1.6255
B(  1-C , 32-H ) :   0.9664 B(  2-C ,  3-C ) :   1.1989 B(  2-C ,  6-C ) :   1.0535
B(  3-C ,  4-C ) :   1.5840 B(  3-C ,  5-H ) :   0.9889 B(  4-C , 20-C ) :   1.0741
B(  6-C ,  7-H ) :   0.9387 B(  6-C ,  8-H ) :   0.9406 B(  6-C ,  9-C ) :   1.0376
B(  9-C , 10-H ) :   0.9608 B(  9-C , 11-H ) :   0.9596 B(  9-C , 12-C ) :   1.0756
B( 12-C , 13-H ) :   0.9758 B( 12-C , 14-H ) :   0.9746 B( 12-C , 15-H ) :   0.9777
B( 16-S , 17-C ) :   1.1695 B( 16-S , 20-C ) :   1.1001 B( 17-C , 18-C ) :   1.6181
B( 17-C , 33-H ) :   0.9587 B( 18-C , 19-C ) :   1.2298 B( 18-C , 21-H ) :   0.9861
B( 19-C , 20-C ) :   1.6072 B( 19-C , 22-C ) :   1.0664 B( 22-C , 23-H ) :   0.9408
B( 22-C , 24-H ) :   0.9148 B( 22-C , 25-C ) :   1.0553 B( 25-C , 26-H ) :   0.9574
B( 25-C , 27-H ) :   0.9470 B( 25-C , 28-C ) :   1.0845 B( 28-C , 29-H ) :   0.9769
B( 28-C , 30-H ) :   0.9701 B( 28-C , 31-H ) :   0.9673

Dispersion correction           -0.014454093
FINAL SINGLE POINT ENERGY     -1339.872940717238

DIPOLE MOMENT
-------------
                                X             Y             Z
Electronic contribution:      3.88438       7.70208     -27.26878
Nuclear contribution   :     -4.13226      -7.92241      27.79329
                        -----------------------------------------
Total Dipole Moment    :     -0.24789      -0.22033       0.52451
                        -----------------------------------------
Magnitude (a.u.)       :      0.62057
Magnitude (Debye)      :      1.57736

Rotational constants in cm-1:     0.017657     0.008557     0.006651
Rotational constants in MHz :   529.343669   256.541375   199.389112

                             ****ORCA TERMINATED NORMALLY****
TOTAL RUN TIME: 0 days 0 hours 0 minutes 21 seconds 854 msec
