                         Program Version 4.2.1 -  RELEASE  -
|  1> ! wB97X-D3 SP def2-SVP
|  2> %pal
|  3> nprocs 24
|  4> end
|  5>
|  6> * xyz 0 1
|  7> S 	 -101.116 	 13.529 	 -122.418
|  8> C 	 -102.398 	 13.1777 	 -123.545
|  9> C 	 -102.561 	 11.7768 	 -123.723
| 10> C 	 -101.731 	 11.0198 	 -122.833
| 11> C 	 -100.92 	 11.8171 	 -122.036
| 12> H 	 -101.609 	 9.93742 	 -122.829
| 13> C 	 -103.497 	 11.0996 	 -124.765
| 14> H 	 -103.114 	 10.1133 	 -124.994
| 15> H 	 -103.53 	 11.6505 	 -125.698
| 16> C 	 -104.923 	 10.7267 	 -124.314
| 17> H 	 -105.533 	 11.6053 	 -124.162
| 18> H 	 -105.534 	 10.2305 	 -125.138
| 19> C 	 -105.037 	 9.71431 	 -123.148
| 20> H 	 -104.469 	 8.85537 	 -123.377
| 21> H 	 -104.526 	 10.0873 	 -122.319
| 22> H 	 -106.097 	 9.40769 	 -122.972
| 23> S 	 -98.279 	 11.4863 	 -121.275
| 24> C 	 -98.0543 	 10.8319 	 -119.662
| 25> C 	 -99.2116 	 10.4925 	 -118.989
| 26> C 	 -100.37 	 10.8343 	 -119.716
| 27> C 	 -100.006 	 11.3237 	 -120.968
| 28> H 	 -99.116 	 10.091 	 -118.022
| 29> C 	 -101.806 	 10.4658 	 -119.261
| 30> H 	 -102.1 	 9.41531 	 -119.294
| 31> H 	 -102.492 	 10.9304 	 -119.994
| 32> C 	 -102.174 	 11.1951 	 -117.947
| 33> H 	 -101.747 	 10.4833 	 -117.186
| 34> H 	 -103.205 	 11.2113 	 -117.837
| 35> C 	 -101.68 	 12.6305 	 -117.795
| 36> H 	 -102.199 	 13.2009 	 -118.606
| 37> H 	 -100.663 	 12.8399 	 -118.011
| 38> H 	 -101.977 	 13.1705 	 -116.886
| 39> H 	 -102.819 	 13.8093 	 -124.183
| 40> H 	 -97.1309 	 10.7387 	 -119.133
| 41> *
| 42>
| 43>                          ****END OF INPUT****

CARTESIAN COORDINATES (ANGSTROEM)
---------------------------------
  S    -101.116000   13.529000  -122.418000
  C    -102.398000   13.177700  -123.545000
  C    -102.561000   11.776800  -123.723000
  C    -101.731000   11.019800  -122.833000
  C    -100.920000   11.817100  -122.036000
  H    -101.609000    9.937420  -122.829000
  C    -103.497000   11.099600  -124.765000
  H    -103.114000   10.113300  -124.994000
  H    -103.530000   11.650500  -125.698000
  C    -104.923000   10.726700  -124.314000
  H    -105.533000   11.605300  -124.162000
  H    -105.534000   10.230500  -125.138000
  C    -105.037000    9.714310  -123.148000
  H    -104.469000    8.855370  -123.377000
  H    -104.526000   10.087300  -122.319000
  H    -106.097000    9.407690  -122.972000
  S    -98.279000   11.486300  -121.275000
  C    -98.054300   10.831900  -119.662000
  C    -99.211600   10.492500  -118.989000
  C    -100.370000   10.834300  -119.716000
  C    -100.006000   11.323700  -120.968000
  H    -99.116000   10.091000  -118.022000
  C    -101.806000   10.465800  -119.261000
  H    -102.100000    9.415310  -119.294000
  H    -102.492000   10.930400  -119.994000
  C    -102.174000   11.195100  -117.947000
  H    -101.747000   10.483300  -117.186000
  H    -103.205000   11.211300  -117.837000
  C    -101.680000   12.630500  -117.795000
  H    -102.199000   13.200900  -118.606000
  H    -100.663000   12.839900  -118.011000
  H    -101.977000   13.170500  -116.886000
  H    -102.819000   13.809300  -124.183000
  H    -97.130900   10.738700  -119.133000

 Total Charge           Charge          ....    0
 Multiplicity           Mult            ....    1
 Number of Electrons    NEL             ....  134
 Basis Dimension        Dim             ....  322

ORBITAL ENERGIES
----------------

  NO   OCC          E(Eh)            E(eV)
   0   2.0000     -88.972374     -2421.0614
   1   2.0000     -88.970279     -2421.0044
   2   2.0000     -10.329555      -281.0815
   3   2.0000     -10.327843      -281.0349
   4   2.0000     -10.314327      -280.6671
   5   2.0000     -10.309325      -280.5310
   6   2.0000     -10.308378      -280.5052
   7   2.0000     -10.306348      -280.4500
   8   2.0000     -10.296057      -280.1699
   9   2.0000     -10.295912      -280.1660
  10   2.0000     -10.294447      -280.1262
  11   2.0000     -10.288832      -279.9734
  12   2.0000     -10.288674      -279.9690
  13   2.0000     -10.283536      -279.8292
  14   2.0000     -10.272402      -279.5263
  15   2.0000     -10.271772      -279.5091
  16   2.0000      -8.086677      -220.0497
  17   2.0000      -8.084419      -219.9882
  18   2.0000      -6.044976      -164.4922
  19   2.0000      -6.042819      -164.4335
  20   2.0000      -6.041506      -164.3977
  21   2.0000      -6.038983      -164.3291
  22   2.0000      -6.037422      -164.2866
  23   2.0000      -6.035356      -164.2304
  24   2.0000      -1.002845       -27.2888
  25   2.0000      -0.981092       -26.6969
  26   2.0000      -0.906722       -24.6732
  27   2.0000      -0.905126       -24.6297
  28   2.0000      -0.864530       -23.5251
  29   2.0000      -0.849239       -23.1090
  30   2.0000      -0.844927       -22.9916
  31   2.0000      -0.813063       -22.1246
  32   2.0000      -0.786831       -21.4108
  33   2.0000      -0.775164       -21.0933
  34   2.0000      -0.704957       -19.1829
  35   2.0000      -0.699739       -19.0409
  36   2.0000      -0.691337       -18.8122
  37   2.0000      -0.658723       -17.9248
  38   2.0000      -0.645878       -17.5752
  39   2.0000      -0.613752       -16.7010
  40   2.0000      -0.594672       -16.1819
  41   2.0000      -0.569180       -15.4882
  42   2.0000      -0.554826       -15.0976
  43   2.0000      -0.550469       -14.9790
  44   2.0000      -0.547949       -14.9104
  45   2.0000      -0.539987       -14.6938
  46   2.0000      -0.508614       -13.8401
  47   2.0000      -0.504738       -13.7346
  48   2.0000      -0.501720       -13.6525
  49   2.0000      -0.490652       -13.3513
  50   2.0000      -0.483330       -13.1521
  51   2.0000      -0.476004       -12.9527
  52   2.0000      -0.470352       -12.7989
  53   2.0000      -0.463759       -12.6195
  54   2.0000      -0.457200       -12.4411
  55   2.0000      -0.451688       -12.2910
  56   2.0000      -0.450093       -12.2477
  57   2.0000      -0.445646       -12.1266
  58   2.0000      -0.436860       -11.8876
  59   2.0000      -0.429531       -11.6881
  60   2.0000      -0.424626       -11.5547
  61   2.0000      -0.405668       -11.0388
  62   2.0000      -0.395813       -10.7706
  63   2.0000      -0.342189        -9.3114
  64   2.0000      -0.333784        -9.0827
  65   2.0000      -0.324203        -8.8220
  66   2.0000      -0.301891        -8.2149
  67   0.0000       0.036353         0.9892
  68   0.0000       0.056910         1.5486
  69   0.0000       0.109615         2.9828
  70   0.0000       0.114492         3.1155
  71   0.0000       0.128623         3.5000

MULLIKEN ATOMIC CHARGES
-----------------------
   0 S :    0.124323
   1 C :   -0.049814
   2 C :   -0.105842
   3 C :    0.037521
   4 C :   -0.172185
   5 H :    0.021930
   6 C :    0.083419
   7 H :    0.015136
   8 H :    0.031131
   9 C :   -0.101175
  10 H :    0.021332
  11 H :    0.028216
  12 C :   -0.019818
  13 H :    0.005062
  14 H :    0.021611
  15 H :    0.046844
  16 S :    0.128728
  17 C :   -0.079717
  18 C :   -0.021822
  19 C :   -0.018321
  20 C :   -0.201209
  21 H :    0.002228
  22 C :    0.067837
  23 H :    0.049761
  24 H :    0.027463
  25 C :   -0.075621
  26 H :    0.028858
  27 H :    0.019707
  28 C :   -0.043552
  29 H :    0.019849
  30 H :    0.036671
  31 H :    0.039849
  32 H :   -0.008401
  33 H :    0.040001
Sum of atomic charges:    0.0000000

LOEWDIN ATOMIC CHARGES
----------------------
   0 S :    0.412051
   1 C :   -0.182513
   2 C :   -0.054854
   3 C :   -0.063863
   4 C :   -0.197016
   5 H :    0.035207
   6 C :   -0.030226
   7 H :    0.029346
   8 H :    0.031983
   9 C :   -0.045279
  10 H :    0.015475
  11 H :    0.028931
  12 C :   -0.060613
  13 H :    0.016498
  14 H :    0.015326
  15 H :    0.035720
  16 S :    0.405485
  17 C :   -0.178038
  18 C :   -0.062800
  19 C :   -0.047848
  20 C :   -0.198733
  21 H :    0.026238
  22 C :   -0.030336
  23 H :    0.035243
  24 H :    0.030939
  25 C :   -0.038715
  26 H :    0.021527
  27 H :    0.016866
  28 C :   -0.070058
  29 H :    0.032040
  30 H :    0.021033
  31 H :    0.030135
  32 H :   -0.001741
  33 H :    0.022588

  Mayer bond orders larger than 0.100000
B(  0-S ,  1-C ) :   1.1502 B(  0-S ,  4-C ) :   1.1599 B(  1-C ,  2-C ) :   1.5914
B(  1-C ,  4-C ) :   0.1039 B(  1-C , 32-H ) :   0.9803 B(  2-C ,  3-C ) :   1.2496
B(  2-C ,  6-C ) :   1.0210 B(  3-C ,  4-C ) :   1.5766 B(  3-C ,  5-H ) :   0.9909
B(  4-C , 20-C ) :   1.0030 B(  6-C ,  7-H ) :   0.9430 B(  6-C ,  8-H ) :   0.9425
B(  6-C ,  9-C ) :   1.0689 B(  9-C , 10-H ) :   0.9577 B(  9-C , 11-H ) :   0.9557
B(  9-C , 12-C ) :   1.0731 B( 12-C , 13-H ) :   0.9704 B( 12-C , 14-H ) :   0.9754
B( 12-C , 15-H ) :   0.9730 B( 16-S , 17-C ) :   1.1420 B( 16-S , 20-C ) :   1.1547
B( 17-C , 18-C ) :   1.6426 B( 17-C , 33-H ) :   0.9651 B( 18-C , 19-C ) :   1.2134
B( 18-C , 21-H ) :   0.9960 B( 19-C , 20-C ) :   1.6137 B( 19-C , 22-C ) :   1.0315
B( 22-C , 23-H ) :   0.9522 B( 22-C , 24-H ) :   0.9255 B( 22-C , 25-C ) :   1.0579
B( 25-C , 26-H ) :   0.9564 B( 25-C , 27-H ) :   0.9593 B( 25-C , 28-C ) :   1.0798
B( 28-C , 29-H ) :   0.9687 B( 28-C , 30-H ) :   0.9670 B( 28-C , 31-H ) :   0.9744

Dispersion correction           -0.015542639
FINAL SINGLE POINT ENERGY     -1339.861640376582

DIPOLE MOMENT
-------------
                                X             Y             Z
Electronic contribution:     22.97661       8.94434      -5.15161
Nuclear contribution   :    -23.31031      -9.28425       5.19334
                        -----------------------------------------
Total Dipole Moment    :     -0.33370      -0.33991       0.04173
                        -----------------------------------------
Magnitude (a.u.)       :      0.47815
Magnitude (Debye)      :      1.21537

Rotational constants in cm-1:     0.019257     0.008924     0.007621
Rotational constants in MHz :   577.298293   267.530427   228.482903

                             ****ORCA TERMINATED NORMALLY****
TOTAL RUN TIME: 0 days 0 hours 0 minutes 22 seconds 398 msec
