                         Program Version 4.2.1 -  RELEASE  -
|  1> ! wB97X-D3 SP def2-SVP
|  2> %pal
|  3> nprocs 24
|  4> end
|  5>
|  6> * xyz 0 1
|  7> S 	 -74.3718 	 -3.56788 	 -66.4954
|  8> C 	 -74.0361 	 -2.85201 	 -64.8744
|  9> C 	 -74.0535 	 -1.44064 	 -64.9891
| 10> C 	 -74.3887 	 -0.94029 	 -66.2682
| 11> C 	 -74.8002 	 -1.92306 	 -67.1113
| 12> H 	 -74.2275 	 0.0349632 	 -66.6345
| 13> C 	 -73.8523 	 -0.506707 	 -63.7922
| 14> H 	 -72.8492 	 -0.0761288 	 -64.008
| 15> H 	 -73.7585 	 -1.11552 	 -62.9357
| 16> C 	 -74.9161 	 0.551135 	 -63.5166
| 17> H 	 -75.0548 	 1.20333 	 -64.3943
| 18> H 	 -75.8362 	 0.130644 	 -63.2623
| 19> C 	 -74.4556 	 1.43056 	 -62.3331
| 20> H 	 -74.4398 	 0.831986 	 -61.408
| 21> H 	 -73.4311 	 1.77561 	 -62.4423
| 22> H 	 -75.1355 	 2.20459 	 -62.106
| 23> S 	 -74.1321 	 -2.97104 	 -69.6944
| 24> C 	 -75.085 	 -2.31593 	 -71.0338
| 25> C 	 -75.8718 	 -1.26594 	 -70.647
| 26> C 	 -75.9298 	 -1.0255 	 -69.2345
| 27> C 	 -75.0342 	 -1.85489 	 -68.5338
| 28> H 	 -76.3683 	 -0.693864 	 -71.4412
| 29> C 	 -76.7788 	 0.165602 	 -68.6784
| 30> H 	 -76.5971 	 0.163136 	 -67.6052
| 31> H 	 -77.8694 	 0.0800464 	 -68.7524
| 32> C 	 -76.2911 	 1.57021 	 -69.1851
| 33> H 	 -76.538 	 1.62454 	 -70.2973
| 34> H 	 -75.2004 	 1.56521 	 -69.1914
| 35> C 	 -76.9414 	 2.80001 	 -68.4747
| 36> H 	 -76.5927 	 2.83951 	 -67.4305
| 37> H 	 -78.0312 	 2.79243 	 -68.5141
| 38> H 	 -76.6698 	 3.77476 	 -69.0064
| 39> H 	 -73.8312 	 -3.31682 	 -63.9239
| 40> H 	 -74.8934 	 -2.64298 	 -72.0417
| 41> *
| 42>
| 43>                          ****END OF INPUT****

CARTESIAN COORDINATES (ANGSTROEM)
---------------------------------
  S    -74.371800   -3.567880  -66.495400
  C    -74.036100   -2.852010  -64.874400
  C    -74.053500   -1.440640  -64.989100
  C    -74.388700   -0.940290  -66.268200
  C    -74.800200   -1.923060  -67.111300
  H    -74.227500    0.034963  -66.634500
  C    -73.852300   -0.506707  -63.792200
  H    -72.849200   -0.076129  -64.008000
  H    -73.758500   -1.115520  -62.935700
  C    -74.916100    0.551135  -63.516600
  H    -75.054800    1.203330  -64.394300
  H    -75.836200    0.130644  -63.262300
  C    -74.455600    1.430560  -62.333100
  H    -74.439800    0.831986  -61.408000
  H    -73.431100    1.775610  -62.442300
  H    -75.135500    2.204590  -62.106000
  S    -74.132100   -2.971040  -69.694400
  C    -75.085000   -2.315930  -71.033800
  C    -75.871800   -1.265940  -70.647000
  C    -75.929800   -1.025500  -69.234500
  C    -75.034200   -1.854890  -68.533800
  H    -76.368300   -0.693864  -71.441200
  C    -76.778800    0.165602  -68.678400
  H    -76.597100    0.163136  -67.605200
  H    -77.869400    0.080046  -68.752400
  C    -76.291100    1.570210  -69.185100
  H    -76.538000    1.624540  -70.297300
  H    -75.200400    1.565210  -69.191400
  C    -76.941400    2.800010  -68.474700
  H    -76.592700    2.839510  -67.430500
  H    -78.031200    2.792430  -68.514100
  H    -76.669800    3.774760  -69.006400
  H    -73.831200   -3.316820  -63.923900
  H    -74.893400   -2.642980  -72.041700

 Total Charge           Charge          ....    0
 Multiplicity           Mult            ....    1
 Number of Electrons    NEL             ....  134
 Basis Dimension        Dim             ....  322

ORBITAL ENERGIES
----------------

  NO   OCC          E(Eh)            E(eV)
   0   2.0000     -88.966811     -2420.9100
   1   2.0000     -88.966244     -2420.8946
   2   2.0000     -10.335574      -281.2453
   3   2.0000     -10.331849      -281.1439
   4   2.0000     -10.320399      -280.8323
   5   2.0000     -10.317742      -280.7600
   6   2.0000     -10.311843      -280.5995
   7   2.0000     -10.303800      -280.3807
   8   2.0000     -10.298942      -280.2485
   9   2.0000     -10.298255      -280.2298
  10   2.0000     -10.294585      -280.1299
  11   2.0000     -10.292922      -280.0846
  12   2.0000     -10.291823      -280.0547
  13   2.0000     -10.291330      -280.0413
  14   2.0000     -10.286282      -279.9040
  15   2.0000     -10.276507      -279.6380
  16   2.0000      -8.079888      -219.8649
  17   2.0000      -8.079195      -219.8461
  18   2.0000      -6.038629      -164.3194
  19   2.0000      -6.037934      -164.3005
  20   2.0000      -6.034759      -164.2141
  21   2.0000      -6.034173      -164.1982
  22   2.0000      -6.030361      -164.0945
  23   2.0000      -6.029571      -164.0730
  24   2.0000      -0.997770       -27.1507
  25   2.0000      -0.972904       -26.4741
  26   2.0000      -0.912715       -24.8362
  27   2.0000      -0.898309       -24.4442
  28   2.0000      -0.868215       -23.6253
  29   2.0000      -0.849744       -23.1227
  30   2.0000      -0.839972       -22.8568
  31   2.0000      -0.814896       -22.1744
  32   2.0000      -0.782120       -21.2826
  33   2.0000      -0.767430       -20.8828
  34   2.0000      -0.712671       -19.3928
  35   2.0000      -0.699206       -19.0264
  36   2.0000      -0.697097       -18.9690
  37   2.0000      -0.652641       -17.7593
  38   2.0000      -0.643405       -17.5080
  39   2.0000      -0.623307       -16.9610
  40   2.0000      -0.596333       -16.2270
  41   2.0000      -0.572159       -15.5692
  42   2.0000      -0.561189       -15.2707
  43   2.0000      -0.555137       -15.1060
  44   2.0000      -0.528902       -14.3922
  45   2.0000      -0.521339       -14.1864
  46   2.0000      -0.515016       -14.0143
  47   2.0000      -0.508410       -13.8345
  48   2.0000      -0.504916       -13.7395
  49   2.0000      -0.496175       -13.5016
  50   2.0000      -0.490723       -13.3532
  51   2.0000      -0.478632       -13.0242
  52   2.0000      -0.467414       -12.7190
  53   2.0000      -0.463225       -12.6050
  54   2.0000      -0.458405       -12.4738
  55   2.0000      -0.452187       -12.3046
  56   2.0000      -0.447642       -12.1810
  57   2.0000      -0.441872       -12.0240
  58   2.0000      -0.433723       -11.8022
  59   2.0000      -0.426629       -11.6092
  60   2.0000      -0.424011       -11.5379
  61   2.0000      -0.413021       -11.2389
  62   2.0000      -0.411362       -11.1937
  63   2.0000      -0.351411        -9.5624
  64   2.0000      -0.332953        -9.0601
  65   2.0000      -0.326946        -8.8966
  66   2.0000      -0.286641        -7.7999
  67   0.0000       0.018589         0.5058
  68   0.0000       0.063239         1.7208
  69   0.0000       0.093911         2.5555
  70   0.0000       0.119656         3.2560
  71   0.0000       0.124047         3.3755

MULLIKEN ATOMIC CHARGES
-----------------------
   0 S :    0.080577
   1 C :   -0.095990
   2 C :   -0.114548
   3 C :    0.043440
   4 C :   -0.128855
   5 H :    0.014369
   6 C :    0.064409
   7 H :    0.040362
   8 H :   -0.001949
   9 C :   -0.040663
  10 H :    0.030056
  11 H :    0.022716
  12 C :   -0.041792
  13 H :    0.020983
  14 H :    0.027402
  15 H :    0.027731
  16 S :    0.089705
  17 C :   -0.096368
  18 C :   -0.027433
  19 C :   -0.030607
  20 C :   -0.151663
  21 H :    0.029304
  22 C :    0.069488
  23 H :    0.010735
  24 H :    0.040751
  25 C :   -0.116271
  26 H :    0.033590
  27 H :    0.036818
  28 C :   -0.062521
  29 H :    0.041970
  30 H :    0.037432
  31 H :    0.046812
  32 H :    0.042482
  33 H :    0.057528
Sum of atomic charges:    0.0000000

LOEWDIN ATOMIC CHARGES
----------------------
   0 S :    0.360053
   1 C :   -0.185928
   2 C :   -0.056956
   3 C :   -0.055047
   4 C :   -0.159586
   5 H :    0.029922
   6 C :   -0.030169
   7 H :    0.038533
   8 H :    0.020494
   9 C :   -0.031193
  10 H :    0.023230
  11 H :    0.019412
  12 C :   -0.060898
  13 H :    0.025884
  14 H :    0.024051
  15 H :    0.019766
  16 S :    0.353079
  17 C :   -0.171466
  18 C :   -0.074256
  19 C :   -0.050632
  20 C :   -0.172302
  21 H :    0.035547
  22 C :   -0.032535
  23 H :    0.024192
  24 H :    0.032294
  25 C :   -0.046927
  26 H :    0.025463
  27 H :    0.023272
  28 C :   -0.071620
  29 H :    0.026259
  30 H :    0.025745
  31 H :    0.037230
  32 H :    0.028270
  33 H :    0.026820

  Mayer bond orders larger than 0.100000
B(  0-S ,  1-C ) :   1.1089 B(  0-S ,  4-C ) :   1.1207 B(  1-C ,  2-C ) :   1.6310
B(  1-C , 32-H ) :   0.9668 B(  2-C ,  3-C ) :   1.2183 B(  2-C ,  6-C ) :   1.0211
B(  3-C ,  4-C ) :   1.5874 B(  3-C ,  5-H ) :   0.9933 B(  4-C , 20-C ) :   1.0702
B(  6-C ,  7-H ) :   0.9325 B(  6-C ,  8-H ) :   0.9433 B(  6-C ,  9-C ) :   1.0694
B(  9-C , 10-H ) :   0.9525 B(  9-C , 11-H ) :   0.9556 B(  9-C , 12-C ) :   1.0852
B( 12-C , 13-H ) :   0.9738 B( 12-C , 14-H ) :   0.9759 B( 12-C , 15-H ) :   0.9739
B( 16-S , 17-C ) :   1.1282 B( 16-S , 20-C ) :   1.1120 B( 17-C , 18-C ) :   1.6452
B( 17-C , 33-H ) :   0.9672 B( 18-C , 19-C ) :   1.2071 B( 18-C , 21-H ) :   0.9854
B( 19-C , 20-C ) :   1.6185 B( 19-C , 22-C ) :   1.0398 B( 22-C , 23-H ) :   0.9340
B( 22-C , 24-H ) :   0.9401 B( 22-C , 25-C ) :   1.0470 B( 25-C , 26-H ) :   0.9543
B( 25-C , 27-H ) :   0.9591 B( 25-C , 28-C ) :   1.0742 B( 28-C , 29-H ) :   0.9766
B( 28-C , 30-H ) :   0.9749 B( 28-C , 31-H ) :   0.9741

Dispersion correction           -0.013814291
FINAL SINGLE POINT ENERGY     -1339.869357662765

DIPOLE MOMENT
-------------
                                X             Y             Z
Electronic contribution:      7.57655     -29.34622     -14.35669
Nuclear contribution   :     -7.67673      30.14614      14.55488
                        -----------------------------------------
Total Dipole Moment    :     -0.10018       0.79992       0.19819
                        -----------------------------------------
Magnitude (a.u.)       :      0.83017
Magnitude (Debye)      :      2.11013

Rotational constants in cm-1:     0.016167     0.009467     0.006218
Rotational constants in MHz :   484.671487   283.800581   186.416370

                             ****ORCA TERMINATED NORMALLY****
TOTAL RUN TIME: 0 days 0 hours 0 minutes 20 seconds 154 msec
