                         Program Version 4.2.1 -  RELEASE  -
|  1> ! wB97X-D3 SP def2-SVP
|  2> %pal
|  3> nprocs 24
|  4> end
|  5>
|  6> * xyz 0 1
|  7> S 	 -81.5548 	 -33.049 	 -55.7501
|  8> C 	 -79.8461 	 -33.3327 	 -55.6406
|  9> C 	 -79.3335 	 -32.6802 	 -54.5082
| 10> C 	 -80.3303 	 -31.9584 	 -53.7965
| 11> C 	 -81.562 	 -32.0199 	 -54.3415
| 12> H 	 -80.2039 	 -31.3293 	 -52.9011
| 13> C 	 -77.8303 	 -32.7005 	 -54.1992
| 14> H 	 -77.7327 	 -33.6721 	 -53.5583
| 15> H 	 -77.5904 	 -31.9638 	 -53.4849
| 16> C 	 -76.8796 	 -32.3619 	 -55.3364
| 17> H 	 -75.8278 	 -32.3777 	 -55.0806
| 18> H 	 -76.9832 	 -33.0243 	 -56.1813
| 19> C 	 -77.1521 	 -30.8503 	 -55.6892
| 20> H 	 -76.2308 	 -30.3852 	 -56.0257
| 21> H 	 -77.8367 	 -30.6594 	 -56.5952
| 22> H 	 -77.452 	 -30.1975 	 -54.9351
| 23> S 	 -83.8267 	 -30.4649 	 -55.1204
| 24> C 	 -84.8307 	 -29.8708 	 -53.7944
| 25> C 	 -84.3463 	 -30.1886 	 -52.5522
| 26> C 	 -83.2231 	 -31.0883 	 -52.6415
| 27> C 	 -82.7603 	 -31.3412 	 -53.9436
| 28> H 	 -84.8792 	 -29.8883 	 -51.71
| 29> C 	 -82.6042 	 -31.6448 	 -51.3742
| 30> H 	 -82.0142 	 -30.8179 	 -50.9589
| 31> H 	 -81.8783 	 -32.3643 	 -51.7073
| 32> C 	 -83.5 	 -32.1619 	 -50.2772
| 33> H 	 -84.1049 	 -31.3867 	 -49.7574
| 34> H 	 -82.8632 	 -32.5437 	 -49.5058
| 35> C 	 -84.4499 	 -33.2797 	 -50.7643
| 36> H 	 -84.1013 	 -33.9264 	 -51.5815
| 37> H 	 -85.4255 	 -32.9492 	 -50.9961
| 38> H 	 -84.4884 	 -33.8937 	 -49.8855
| 39> H 	 -79.2527 	 -33.8926 	 -56.354
| 40> H 	 -85.7717 	 -29.3283 	 -53.9919
| 41> *
| 42>
| 43>                          ****END OF INPUT****

CARTESIAN COORDINATES (ANGSTROEM)
---------------------------------
  S    -81.554800  -33.049000  -55.750100
  C    -79.846100  -33.332700  -55.640600
  C    -79.333500  -32.680200  -54.508200
  C    -80.330300  -31.958400  -53.796500
  C    -81.562000  -32.019900  -54.341500
  H    -80.203900  -31.329300  -52.901100
  C    -77.830300  -32.700500  -54.199200
  H    -77.732700  -33.672100  -53.558300
  H    -77.590400  -31.963800  -53.484900
  C    -76.879600  -32.361900  -55.336400
  H    -75.827800  -32.377700  -55.080600
  H    -76.983200  -33.024300  -56.181300
  C    -77.152100  -30.850300  -55.689200
  H    -76.230800  -30.385200  -56.025700
  H    -77.836700  -30.659400  -56.595200
  H    -77.452000  -30.197500  -54.935100
  S    -83.826700  -30.464900  -55.120400
  C    -84.830700  -29.870800  -53.794400
  C    -84.346300  -30.188600  -52.552200
  C    -83.223100  -31.088300  -52.641500
  C    -82.760300  -31.341200  -53.943600
  H    -84.879200  -29.888300  -51.710000
  C    -82.604200  -31.644800  -51.374200
  H    -82.014200  -30.817900  -50.958900
  H    -81.878300  -32.364300  -51.707300
  C    -83.500000  -32.161900  -50.277200
  H    -84.104900  -31.386700  -49.757400
  H    -82.863200  -32.543700  -49.505800
  C    -84.449900  -33.279700  -50.764300
  H    -84.101300  -33.926400  -51.581500
  H    -85.425500  -32.949200  -50.996100
  H    -84.488400  -33.893700  -49.885500
  H    -79.252700  -33.892600  -56.354000
  H    -85.771700  -29.328300  -53.991900

 Total Charge           Charge          ....    0
 Multiplicity           Mult            ....    1
 Number of Electrons    NEL             ....  134
 Basis Dimension        Dim             ....  322

ORBITAL ENERGIES
----------------

  NO   OCC          E(Eh)            E(eV)
   0   2.0000     -88.964164     -2420.8380
   1   2.0000     -88.962735     -2420.7991
   2   2.0000     -10.328495      -281.0526
   3   2.0000     -10.323465      -280.9158
   4   2.0000     -10.321380      -280.8590
   5   2.0000     -10.313460      -280.6435
   6   2.0000     -10.305446      -280.4254
   7   2.0000     -10.303877      -280.3828
   8   2.0000     -10.295632      -280.1584
   9   2.0000     -10.293311      -280.0952
  10   2.0000     -10.292927      -280.0848
  11   2.0000     -10.290482      -280.0183
  12   2.0000     -10.286889      -279.9205
  13   2.0000     -10.285459      -279.8816
  14   2.0000     -10.277247      -279.6581
  15   2.0000     -10.268058      -279.4081
  16   2.0000      -8.077924      -219.8115
  17   2.0000      -8.077799      -219.8081
  18   2.0000      -6.036425      -164.2595
  19   2.0000      -6.036362      -164.2578
  20   2.0000      -6.032559      -164.1543
  21   2.0000      -6.032267      -164.1463
  22   2.0000      -6.028823      -164.0526
  23   2.0000      -6.028403      -164.0412
  24   2.0000      -1.006161       -27.3790
  25   2.0000      -0.978966       -26.6390
  26   2.0000      -0.911925       -24.8148
  27   2.0000      -0.909305       -24.7435
  28   2.0000      -0.870546       -23.6888
  29   2.0000      -0.849135       -23.1061
  30   2.0000      -0.840823       -22.8800
  31   2.0000      -0.814151       -22.1542
  32   2.0000      -0.784038       -21.3348
  33   2.0000      -0.770039       -20.9538
  34   2.0000      -0.713155       -19.4059
  35   2.0000      -0.707632       -19.2557
  36   2.0000      -0.693671       -18.8758
  37   2.0000      -0.657062       -17.8796
  38   2.0000      -0.641266       -17.4497
  39   2.0000      -0.612017       -16.6538
  40   2.0000      -0.591808       -16.1039
  41   2.0000      -0.577255       -15.7079
  42   2.0000      -0.554316       -15.0837
  43   2.0000      -0.551303       -15.0017
  44   2.0000      -0.549603       -14.9555
  45   2.0000      -0.535582       -14.5739
  46   2.0000      -0.518345       -14.1049
  47   2.0000      -0.509688       -13.8693
  48   2.0000      -0.500426       -13.6173
  49   2.0000      -0.495483       -13.4828
  50   2.0000      -0.488105       -13.2820
  51   2.0000      -0.479432       -13.0460
  52   2.0000      -0.469011       -12.7624
  53   2.0000      -0.460993       -12.5443
  54   2.0000      -0.458572       -12.4784
  55   2.0000      -0.451458       -12.2848
  56   2.0000      -0.440382       -11.9834
  57   2.0000      -0.435869       -11.8606
  58   2.0000      -0.429987       -11.7006
  59   2.0000      -0.423895       -11.5348
  60   2.0000      -0.417576       -11.3628
  61   2.0000      -0.412764       -11.2319
  62   2.0000      -0.410892       -11.1809
  63   2.0000      -0.351974        -9.5777
  64   2.0000      -0.329791        -8.9741
  65   2.0000      -0.328116        -8.9285
  66   2.0000      -0.286677        -7.8009
  67   0.0000       0.025584         0.6962
  68   0.0000       0.077278         2.1029
  69   0.0000       0.111334         3.0296
  70   0.0000       0.122788         3.3412
  71   0.0000       0.133900         3.6436

MULLIKEN ATOMIC CHARGES
-----------------------
   0 S :    0.109162
   1 C :   -0.120883
   2 C :   -0.103449
   3 C :    0.020457
   4 C :   -0.170841
   5 H :    0.019236
   6 C :    0.049043
   7 H :    0.054329
   8 H :    0.005281
   9 C :   -0.029796
  10 H :    0.034104
  11 H :    0.029252
  12 C :   -0.077177
  13 H :    0.017919
  14 H :    0.049321
  15 H :    0.023300
  16 S :    0.094376
  17 C :   -0.107714
  18 C :    0.006500
  19 C :   -0.068292
  20 C :   -0.118075
  21 H :   -0.002225
  22 C :    0.058681
  23 H :    0.035071
  24 H :    0.023706
  25 C :   -0.062458
  26 H :    0.029531
  27 H :    0.024164
  28 C :   -0.034194
  29 H :    0.042111
  30 H :    0.027735
  31 H :    0.020916
  32 H :    0.050446
  33 H :    0.070464
Sum of atomic charges:    0.0000000

LOEWDIN ATOMIC CHARGES
----------------------
   0 S :    0.413256
   1 C :   -0.201819
   2 C :   -0.061558
   3 C :   -0.068849
   4 C :   -0.194978
   5 H :    0.037967
   6 C :   -0.041232
   7 H :    0.043361
   8 H :    0.019673
   9 C :   -0.032036
  10 H :    0.028530
  11 H :    0.020224
  12 C :   -0.069234
  13 H :    0.023183
  14 H :    0.038508
  15 H :    0.016414
  16 S :    0.366992
  17 C :   -0.169402
  18 C :   -0.067044
  19 C :   -0.044409
  20 C :   -0.190639
  21 H :    0.023149
  22 C :   -0.039861
  23 H :    0.034308
  24 H :    0.027150
  25 C :   -0.039293
  26 H :    0.026833
  27 H :    0.024151
  28 C :   -0.063356
  29 H :    0.031332
  30 H :    0.019509
  31 H :    0.026160
  32 H :    0.028425
  33 H :    0.034586

  Mayer bond orders larger than 0.100000
B(  0-S ,  1-C ) :   1.1455 B(  0-S ,  4-C ) :   1.1492 B(  1-C ,  2-C ) :   1.5874
B(  1-C , 32-H ) :   0.9747 B(  2-C ,  3-C ) :   1.2522 B(  2-C ,  6-C ) :   1.0084
B(  3-C ,  4-C ) :   1.5690 B(  3-C ,  5-H ) :   0.9910 B(  4-C , 20-C ) :   1.0693
B(  6-C ,  7-H ) :   0.9336 B(  6-C ,  8-H ) :   0.9517 B(  6-C ,  9-C ) :   1.0658
B(  9-C , 10-H ) :   0.9624 B(  9-C , 11-H ) :   0.9600 B(  9-C , 12-C ) :   1.0509
B( 12-C , 13-H ) :   0.9775 B( 12-C , 14-H ) :   0.9759 B( 12-C , 15-H ) :   0.9813
B( 16-S , 17-C ) :   1.1497 B( 16-S , 20-C ) :   1.1027 B( 17-C , 18-C ) :   1.6250
B( 17-C , 33-H ) :   0.9610 B( 18-C , 19-C ) :   1.2127 B( 18-C , 21-H ) :   1.0013
B( 19-C , 20-C ) :   1.6002 B( 19-C , 22-C ) :   1.0444 B( 22-C , 23-H ) :   0.9245
B( 22-C , 24-H ) :   0.9296 B( 22-C , 25-C ) :   1.0889 B( 25-C , 26-H ) :   0.9476
B( 25-C , 27-H ) :   0.9577 B( 25-C , 28-C ) :   1.0625 B( 28-C , 29-H ) :   0.9793
B( 28-C , 30-H ) :   0.9768 B( 28-C , 31-H ) :   0.9773

Dispersion correction           -0.014603126
FINAL SINGLE POINT ENERGY     -1339.869268566042

DIPOLE MOMENT
-------------
                                X             Y             Z
Electronic contribution:    -13.69347       2.00255     -14.50509
Nuclear contribution   :     14.06315      -1.87794      15.11771
                        -----------------------------------------
Total Dipole Moment    :      0.36967       0.12462       0.61262
                        -----------------------------------------
Magnitude (a.u.)       :      0.72629
Magnitude (Debye)      :      1.84607

Rotational constants in cm-1:     0.021753     0.007873     0.006895
Rotational constants in MHz :   652.133841   236.041214   206.691980

                             ****ORCA TERMINATED NORMALLY****
TOTAL RUN TIME: 0 days 0 hours 0 minutes 21 seconds 641 msec
