                         Program Version 4.2.1 -  RELEASE  -
|  1> ! wB97X-D3 SP def2-SVP
|  2> %pal
|  3> nprocs 24
|  4> end
|  5>
|  6> * xyz 0 1
|  7> S 	 35.0547 	 -31.7335 	 -112.182
|  8> C 	 34.6697 	 -33.1856 	 -111.325
|  9> C 	 35.7299 	 -34.0227 	 -111.286
| 10> C 	 36.897 	 -33.5407 	 -111.947
| 11> C 	 36.6659 	 -32.2948 	 -112.559
| 12> H 	 37.7842 	 -34.1703 	 -112.047
| 13> C 	 35.7293 	 -35.409 	 -110.665
| 14> H 	 35.2985 	 -35.2971 	 -109.672
| 15> H 	 36.7606 	 -35.7026 	 -110.323
| 16> C 	 35.0878 	 -36.5036 	 -111.492
| 17> H 	 34.1219 	 -36.0896 	 -111.87
| 18> H 	 35.7258 	 -36.67 	 -112.406
| 19> C 	 34.8974 	 -37.8035 	 -110.726
| 20> H 	 35.7928 	 -37.9869 	 -110.173
| 21> H 	 33.9843 	 -37.792 	 -110.127
| 22> H 	 34.8954 	 -38.6394 	 -111.428
| 23> S 	 36.9317 	 -30.8786 	 -114.948
| 24> C 	 38.4249 	 -30.1735 	 -115.433
| 25> C 	 39.4173 	 -30.3709 	 -114.457
| 26> C 	 38.8951 	 -31.1142 	 -113.345
| 27> C 	 37.5778 	 -31.5371 	 -113.429
| 28> H 	 40.4543 	 -30.064 	 -114.58
| 29> C 	 39.8327 	 -31.5923 	 -112.245
| 30> H 	 39.2473 	 -32.2433 	 -111.6
| 31> H 	 40.1166 	 -30.7845 	 -111.571
| 32> C 	 41.0758 	 -32.3336 	 -112.717
| 33> H 	 41.6625 	 -32.6521 	 -111.858
| 34> H 	 41.6833 	 -31.6706 	 -113.301
| 35> C 	 40.8362 	 -33.6237 	 -113.42
| 36> H 	 40.195 	 -33.5273 	 -114.339
| 37> H 	 40.1359 	 -34.2918 	 -112.959
| 38> H 	 41.7848 	 -34.1981 	 -113.508
| 39> H 	 33.7495 	 -33.327 	 -110.759
| 40> H 	 38.5796 	 -29.8114 	 -116.477
| 41> *
| 42>
| 43>                          ****END OF INPUT****

CARTESIAN COORDINATES (ANGSTROEM)
---------------------------------
  S     35.054700  -31.733500  -112.182000
  C     34.669700  -33.185600  -111.325000
  C     35.729900  -34.022700  -111.286000
  C     36.897000  -33.540700  -111.947000
  C     36.665900  -32.294800  -112.559000
  H     37.784200  -34.170300  -112.047000
  C     35.729300  -35.409000  -110.665000
  H     35.298500  -35.297100  -109.672000
  H     36.760600  -35.702600  -110.323000
  C     35.087800  -36.503600  -111.492000
  H     34.121900  -36.089600  -111.870000
  H     35.725800  -36.670000  -112.406000
  C     34.897400  -37.803500  -110.726000
  H     35.792800  -37.986900  -110.173000
  H     33.984300  -37.792000  -110.127000
  H     34.895400  -38.639400  -111.428000
  S     36.931700  -30.878600  -114.948000
  C     38.424900  -30.173500  -115.433000
  C     39.417300  -30.370900  -114.457000
  C     38.895100  -31.114200  -113.345000
  C     37.577800  -31.537100  -113.429000
  H     40.454300  -30.064000  -114.580000
  C     39.832700  -31.592300  -112.245000
  H     39.247300  -32.243300  -111.600000
  H     40.116600  -30.784500  -111.571000
  C     41.075800  -32.333600  -112.717000
  H     41.662500  -32.652100  -111.858000
  H     41.683300  -31.670600  -113.301000
  C     40.836200  -33.623700  -113.420000
  H     40.195000  -33.527300  -114.339000
  H     40.135900  -34.291800  -112.959000
  H     41.784800  -34.198100  -113.508000
  H     33.749500  -33.327000  -110.759000
  H     38.579600  -29.811400  -116.477000

 Total Charge           Charge          ....    0
 Multiplicity           Mult            ....    1
 Number of Electrons    NEL             ....  134
 Basis Dimension        Dim             ....  322

ORBITAL ENERGIES
----------------

  NO   OCC          E(Eh)            E(eV)
   0   2.0000     -88.969473     -2420.9824
   1   2.0000     -88.963487     -2420.8196
   2   2.0000     -10.337784      -281.3054
   3   2.0000     -10.330735      -281.1136
   4   2.0000     -10.324708      -280.9496
   5   2.0000     -10.311037      -280.5776
   6   2.0000     -10.304545      -280.4009
   7   2.0000     -10.299330      -280.2590
   8   2.0000     -10.297888      -280.2198
   9   2.0000     -10.296438      -280.1803
  10   2.0000     -10.291386      -280.0428
  11   2.0000     -10.290228      -280.0113
  12   2.0000     -10.285136      -279.8728
  13   2.0000     -10.281200      -279.7657
  14   2.0000     -10.277400      -279.6623
  15   2.0000     -10.275188      -279.6021
  16   2.0000      -8.084445      -219.9889
  17   2.0000      -8.078522      -219.8278
  18   2.0000      -6.042936      -164.4367
  19   2.0000      -6.038824      -164.3248
  20   2.0000      -6.036967      -164.2742
  21   2.0000      -6.035297      -164.2288
  22   2.0000      -6.032791      -164.1606
  23   2.0000      -6.029510      -164.0713
  24   2.0000      -1.008035       -27.4300
  25   2.0000      -0.987327       -26.8665
  26   2.0000      -0.913890       -24.8682
  27   2.0000      -0.912635       -24.8340
  28   2.0000      -0.870432       -23.6857
  29   2.0000      -0.853245       -23.2180
  30   2.0000      -0.846035       -23.0218
  31   2.0000      -0.813778       -22.1440
  32   2.0000      -0.782962       -21.3055
  33   2.0000      -0.773734       -21.0544
  34   2.0000      -0.706586       -19.2272
  35   2.0000      -0.698663       -19.0116
  36   2.0000      -0.695245       -18.9186
  37   2.0000      -0.659013       -17.9327
  38   2.0000      -0.640183       -17.4203
  39   2.0000      -0.621886       -16.9224
  40   2.0000      -0.597799       -16.2669
  41   2.0000      -0.573494       -15.6056
  42   2.0000      -0.560514       -15.2524
  43   2.0000      -0.555605       -15.1188
  44   2.0000      -0.542084       -14.7509
  45   2.0000      -0.523924       -14.2567
  46   2.0000      -0.516112       -14.0441
  47   2.0000      -0.514339       -13.9959
  48   2.0000      -0.507255       -13.8031
  49   2.0000      -0.506113       -13.7720
  50   2.0000      -0.498326       -13.5601
  51   2.0000      -0.477758       -13.0004
  52   2.0000      -0.472523       -12.8580
  53   2.0000      -0.464572       -12.6417
  54   2.0000      -0.457048       -12.4369
  55   2.0000      -0.450533       -12.2596
  56   2.0000      -0.442680       -12.0459
  57   2.0000      -0.434458       -11.8222
  58   2.0000      -0.433372       -11.7927
  59   2.0000      -0.423702       -11.5295
  60   2.0000      -0.417621       -11.3641
  61   2.0000      -0.410851       -11.1798
  62   2.0000      -0.402412       -10.9502
  63   2.0000      -0.352180        -9.5833
  64   2.0000      -0.334502        -9.1023
  65   2.0000      -0.329568        -8.9680
  66   2.0000      -0.292222        -7.9518
  67   0.0000       0.029438         0.8011
  68   0.0000       0.065777         1.7899
  69   0.0000       0.115022         3.1299
  70   0.0000       0.121652         3.3103
  71   0.0000       0.134675         3.6647

MULLIKEN ATOMIC CHARGES
-----------------------
   0 S :    0.124542
   1 C :   -0.132909
   2 C :   -0.085072
   3 C :    0.037356
   4 C :   -0.141765
   5 H :    0.012764
   6 C :    0.036051
   7 H :    0.016858
   8 H :    0.014054
   9 C :   -0.084569
  10 H :    0.031318
  11 H :    0.034060
  12 C :   -0.007565
  13 H :    0.018542
  14 H :    0.045543
  15 H :    0.027337
  16 S :    0.096236
  17 C :   -0.111112
  18 C :   -0.030780
  19 C :   -0.052870
  20 C :   -0.151905
  21 H :    0.029301
  22 C :    0.077435
  23 H :    0.002019
  24 H :    0.031591
  25 C :   -0.042827
  26 H :    0.024776
  27 H :    0.022810
  28 C :   -0.064191
  29 H :    0.038067
  30 H :    0.003478
  31 H :    0.044581
  32 H :    0.053139
  33 H :    0.083707
Sum of atomic charges:   -0.0000000

LOEWDIN ATOMIC CHARGES
----------------------
   0 S :    0.424203
   1 C :   -0.205990
   2 C :   -0.067931
   3 C :   -0.064042
   4 C :   -0.191074
   5 H :    0.031739
   6 C :   -0.042488
   7 H :    0.027441
   8 H :    0.028673
   9 C :   -0.045567
  10 H :    0.026220
  11 H :    0.029679
  12 C :   -0.062315
  13 H :    0.022086
  14 H :    0.029615
  15 H :    0.028882
  16 S :    0.406903
  17 C :   -0.194651
  18 C :   -0.075156
  19 C :   -0.056856
  20 C :   -0.197739
  21 H :    0.034356
  22 C :   -0.031866
  23 H :    0.025698
  24 H :    0.033380
  25 C :   -0.040903
  26 H :    0.029023
  27 H :    0.017917
  28 C :   -0.077933
  29 H :    0.033436
  30 H :    0.017557
  31 H :    0.033691
  32 H :    0.033382
  33 H :    0.040635

  Mayer bond orders larger than 0.100000
B(  0-S ,  1-C ) :   1.1337 B(  0-S ,  4-C ) :   1.1773 B(  1-C ,  2-C ) :   1.6102
B(  1-C , 32-H ) :   0.9671 B(  2-C ,  3-C ) :   1.2804 B(  2-C ,  6-C ) :   1.0191
B(  3-C ,  4-C ) :   1.5242 B(  3-C ,  5-H ) :   0.9893 B(  4-C , 20-C ) :   1.0384
B(  6-C ,  7-H ) :   0.9387 B(  6-C ,  8-H ) :   0.9348 B(  6-C ,  9-C ) :   1.0606
B(  9-C , 10-H ) :   0.9575 B(  9-C , 11-H ) :   0.9537 B(  9-C , 12-C ) :   1.0766
B( 12-C , 13-H ) :   0.9710 B( 12-C , 14-H ) :   0.9760 B( 12-C , 15-H ) :   0.9731
B( 16-S , 17-C ) :   1.1879 B( 16-S , 20-C ) :   1.1325 B( 17-C , 18-C ) :   1.5619
B( 17-C , 20-C ) :   0.1015 B( 17-C , 33-H ) :   0.9614 B( 18-C , 19-C ) :   1.2551
B( 18-C , 21-H ) :   0.9925 B( 19-C , 20-C ) :   1.5831 B( 19-C , 22-C ) :   1.0438
B( 22-C , 23-H ) :   0.9367 B( 22-C , 24-H ) :   0.9268 B( 22-C , 25-C ) :   1.0838
B( 25-C , 26-H ) :   0.9494 B( 25-C , 27-H ) :   0.9511 B( 25-C , 28-C ) :   1.0807
B( 28-C , 29-H ) :   0.9665 B( 28-C , 30-H ) :   0.9674 B( 28-C , 31-H ) :   0.9713

Dispersion correction           -0.014496947
FINAL SINGLE POINT ENERGY     -1339.889080378826

DIPOLE MOMENT
-------------
                                X             Y             Z
Electronic contribution:    -11.67853      23.89761      -9.67207
Nuclear contribution   :     12.05448     -24.39034       9.91240
                        -----------------------------------------
Total Dipole Moment    :      0.37595      -0.49273       0.24033
                        -----------------------------------------
Magnitude (a.u.)       :      0.66474
Magnitude (Debye)      :      1.68964

Rotational constants in cm-1:     0.020266     0.008111     0.006496
Rotational constants in MHz :   607.552017   243.162728   194.742951

                             ****ORCA TERMINATED NORMALLY****
TOTAL RUN TIME: 0 days 0 hours 0 minutes 21 seconds 596 msec
