                         Program Version 4.2.1 -  RELEASE  -
|  1> ! wB97X-D3 SP def2-SVP
|  2> %pal
|  3> nprocs 24
|  4> end
|  5>
|  6> * xyz 0 1
|  7> S 	 -129.116 	 62.496 	 -57.8035
|  8> C 	 -128.77 	 60.8692 	 -58.3872
|  9> C 	 -129.23 	 59.9167 	 -57.4415
| 10> C 	 -129.847 	 60.5412 	 -56.3629
| 11> C 	 -129.904 	 61.9298 	 -56.2901
| 12> H 	 -130.383 	 59.9245 	 -55.5799
| 13> C 	 -129.186 	 58.394 	 -57.6165
| 14> H 	 -129.051 	 58.32 	 -58.669
| 15> H 	 -130.197 	 58.2194 	 -57.2753
| 16> C 	 -128.141 	 57.6719 	 -56.8252
| 17> H 	 -127.135 	 58.1971 	 -56.875
| 18> H 	 -128.293 	 57.5718 	 -55.7285
| 19> C 	 -127.953 	 56.2478 	 -57.3636
| 20> H 	 -128.901 	 55.8501 	 -57.7354
| 21> H 	 -127.236 	 56.2178 	 -58.2276
| 22> H 	 -127.693 	 55.5813 	 -56.5213
| 23> S 	 -132.239 	 63.3112 	 -55.7102
| 24> C 	 -132.308 	 64.0545 	 -54.0991
| 25> C 	 -131.076 	 63.9497 	 -53.4074
| 26> C 	 -130.108 	 63.2104 	 -54.1388
| 27> C 	 -130.59 	 62.8174 	 -55.3638
| 28> H 	 -131.024 	 64.4798 	 -52.4369
| 29> C 	 -128.791 	 63.0265 	 -53.488
| 30> H 	 -128.241 	 62.2406 	 -54.0174
| 31> H 	 -128.998 	 62.8263 	 -52.4146
| 32> C 	 -127.844 	 64.2785 	 -53.5966
| 33> H 	 -128.214 	 65.1826 	 -53.0984
| 34> H 	 -127.604 	 64.4585 	 -54.674
| 35> C 	 -126.535 	 64.0568 	 -52.8149
| 36> H 	 -125.654 	 64.6775 	 -53.0938
| 37> H 	 -126.277 	 63.0462 	 -53.0041
| 38> H 	 -126.66 	 64.1776 	 -51.6797
| 39> H 	 -128.166 	 60.5687 	 -59.1987
| 40> H 	 -133.212 	 64.5628 	 -53.7643
| 41> *
| 42>
| 43>                          ****END OF INPUT****

CARTESIAN COORDINATES (ANGSTROEM)
---------------------------------
  S    -129.116000   62.496000  -57.803500
  C    -128.770000   60.869200  -58.387200
  C    -129.230000   59.916700  -57.441500
  C    -129.847000   60.541200  -56.362900
  C    -129.904000   61.929800  -56.290100
  H    -130.383000   59.924500  -55.579900
  C    -129.186000   58.394000  -57.616500
  H    -129.051000   58.320000  -58.669000
  H    -130.197000   58.219400  -57.275300
  C    -128.141000   57.671900  -56.825200
  H    -127.135000   58.197100  -56.875000
  H    -128.293000   57.571800  -55.728500
  C    -127.953000   56.247800  -57.363600
  H    -128.901000   55.850100  -57.735400
  H    -127.236000   56.217800  -58.227600
  H    -127.693000   55.581300  -56.521300
  S    -132.239000   63.311200  -55.710200
  C    -132.308000   64.054500  -54.099100
  C    -131.076000   63.949700  -53.407400
  C    -130.108000   63.210400  -54.138800
  C    -130.590000   62.817400  -55.363800
  H    -131.024000   64.479800  -52.436900
  C    -128.791000   63.026500  -53.488000
  H    -128.241000   62.240600  -54.017400
  H    -128.998000   62.826300  -52.414600
  C    -127.844000   64.278500  -53.596600
  H    -128.214000   65.182600  -53.098400
  H    -127.604000   64.458500  -54.674000
  C    -126.535000   64.056800  -52.814900
  H    -125.654000   64.677500  -53.093800
  H    -126.277000   63.046200  -53.004100
  H    -126.660000   64.177600  -51.679700
  H    -128.166000   60.568700  -59.198700
  H    -133.212000   64.562800  -53.764300

 Total Charge           Charge          ....    0
 Multiplicity           Mult            ....    1
 Number of Electrons    NEL             ....  134
 Basis Dimension        Dim             ....  322

ORBITAL ENERGIES
----------------

  NO   OCC          E(Eh)            E(eV)
   0   2.0000     -88.969119     -2420.9728
   1   2.0000     -88.964172     -2420.8382
   2   2.0000     -10.330831      -281.1162
   3   2.0000     -10.325906      -280.9822
   4   2.0000     -10.324764      -280.9511
   5   2.0000     -10.315255      -280.6924
   6   2.0000     -10.302845      -280.3547
   7   2.0000     -10.299471      -280.2629
   8   2.0000     -10.297093      -280.1982
   9   2.0000     -10.295959      -280.1673
  10   2.0000     -10.294384      -280.1244
  11   2.0000     -10.291848      -280.0554
  12   2.0000     -10.291203      -280.0379
  13   2.0000     -10.291177      -280.0372
  14   2.0000     -10.282648      -279.8051
  15   2.0000     -10.279771      -279.7268
  16   2.0000      -8.083363      -219.9595
  17   2.0000      -8.077628      -219.8034
  18   2.0000      -6.041796      -164.4056
  19   2.0000      -6.038038      -164.3034
  20   2.0000      -6.036157      -164.2522
  21   2.0000      -6.034127      -164.1969
  22   2.0000      -6.032086      -164.1414
  23   2.0000      -6.028659      -164.0481
  24   2.0000      -1.001760       -27.2593
  25   2.0000      -0.979429       -26.6516
  26   2.0000      -0.914750       -24.8916
  27   2.0000      -0.907995       -24.7078
  28   2.0000      -0.865612       -23.5545
  29   2.0000      -0.853322       -23.2201
  30   2.0000      -0.844651       -22.9841
  31   2.0000      -0.809736       -22.0340
  32   2.0000      -0.780261       -21.2320
  33   2.0000      -0.766933       -20.8693
  34   2.0000      -0.704508       -19.1706
  35   2.0000      -0.696757       -18.9597
  36   2.0000      -0.690723       -18.7955
  37   2.0000      -0.664589       -18.0844
  38   2.0000      -0.635367       -17.2892
  39   2.0000      -0.618906       -16.8413
  40   2.0000      -0.596756       -16.2386
  41   2.0000      -0.567856       -15.4522
  42   2.0000      -0.566042       -15.4028
  43   2.0000      -0.561364       -15.2755
  44   2.0000      -0.531071       -14.4512
  45   2.0000      -0.522352       -14.2139
  46   2.0000      -0.517834       -14.0910
  47   2.0000      -0.510428       -13.8894
  48   2.0000      -0.505662       -13.7598
  49   2.0000      -0.495630       -13.4868
  50   2.0000      -0.492738       -13.4081
  51   2.0000      -0.475281       -12.9330
  52   2.0000      -0.467085       -12.7100
  53   2.0000      -0.457029       -12.4364
  54   2.0000      -0.453822       -12.3491
  55   2.0000      -0.449210       -12.2236
  56   2.0000      -0.442608       -12.0440
  57   2.0000      -0.435741       -11.8571
  58   2.0000      -0.431634       -11.7454
  59   2.0000      -0.425349       -11.5743
  60   2.0000      -0.419832       -11.4242
  61   2.0000      -0.416388       -11.3305
  62   2.0000      -0.405785       -11.0420
  63   2.0000      -0.337273        -9.1777
  64   2.0000      -0.328891        -8.9496
  65   2.0000      -0.319344        -8.6898
  66   2.0000      -0.305781        -8.3207
  67   0.0000       0.040584         1.1044
  68   0.0000       0.046715         1.2712
  69   0.0000       0.112765         3.0685
  70   0.0000       0.120087         3.2677
  71   0.0000       0.122811         3.3419

MULLIKEN ATOMIC CHARGES
-----------------------
   0 S :    0.097299
   1 C :   -0.099463
   2 C :   -0.147762
   3 C :    0.030777
   4 C :   -0.195955
   5 H :    0.025041
   6 C :    0.118733
   7 H :    0.014527
   8 H :    0.033922
   9 C :   -0.091834
  10 H :    0.039301
  11 H :    0.034580
  12 C :   -0.063187
  13 H :    0.025655
  14 H :    0.047002
  15 H :    0.037504
  16 S :    0.125460
  17 C :   -0.119222
  18 C :   -0.048213
  19 C :    0.020341
  20 C :   -0.174833
  21 H :    0.037647
  22 C :    0.063193
  23 H :    0.034645
  24 H :    0.037228
  25 C :   -0.089800
  26 H :    0.032981
  27 H :    0.045952
  28 C :   -0.064770
  29 H :    0.044904
  30 H :    0.012954
  31 H :    0.038389
  32 H :    0.033360
  33 H :    0.063643
Sum of atomic charges:    0.0000000

LOEWDIN ATOMIC CHARGES
----------------------
   0 S :    0.385632
   1 C :   -0.194143
   2 C :   -0.069266
   3 C :   -0.071292
   4 C :   -0.192197
   5 H :    0.037240
   6 C :   -0.025880
   7 H :    0.029492
   8 H :    0.038055
   9 C :   -0.052381
  10 H :    0.031999
  11 H :    0.028710
  12 C :   -0.070734
  13 H :    0.022527
  14 H :    0.030203
  15 H :    0.029391
  16 S :    0.401562
  17 C :   -0.173772
  18 C :   -0.070975
  19 C :   -0.048808
  20 C :   -0.212117
  21 H :    0.039918
  22 C :   -0.030044
  23 H :    0.033974
  24 H :    0.038164
  25 C :   -0.038860
  26 H :    0.022789
  27 H :    0.031937
  28 C :   -0.074793
  29 H :    0.030846
  30 H :    0.013947
  31 H :    0.030375
  32 H :    0.020931
  33 H :    0.027568

  Mayer bond orders larger than 0.100000
B(  0-S ,  1-C ) :   1.1596 B(  0-S ,  4-C ) :   1.1400 B(  1-C ,  2-C ) :   1.5643
B(  1-C ,  4-C ) :   0.1188 B(  1-C , 32-H ) :   0.9686 B(  2-C ,  3-C ) :   1.3044
B(  2-C ,  6-C ) :   0.9924 B(  3-C ,  4-C ) :   1.5659 B(  3-C ,  5-H ) :   0.9776
B(  4-C , 20-C ) :   1.0226 B(  6-C ,  7-H ) :   0.9430 B(  6-C ,  8-H ) :   0.9305
B(  6-C ,  9-C ) :   1.0698 B(  9-C , 10-H ) :   0.9588 B(  9-C , 11-H ) :   0.9561
B(  9-C , 12-C ) :   1.0727 B( 12-C , 13-H ) :   0.9739 B( 12-C , 14-H ) :   0.9775
B( 12-C , 15-H ) :   0.9772 B( 16-S , 17-C ) :   1.1590 B( 16-S , 20-C ) :   1.1359
B( 17-C , 18-C ) :   1.6098 B( 17-C , 33-H ) :   0.9672 B( 18-C , 19-C ) :   1.2156
B( 18-C , 21-H ) :   0.9865 B( 19-C , 20-C ) :   1.6099 B( 19-C , 22-C ) :   1.0617
B( 22-C , 23-H ) :   0.9158 B( 22-C , 24-H ) :   0.9331 B( 22-C , 25-C ) :   1.0722
B( 25-C , 26-H ) :   0.9611 B( 25-C , 27-H ) :   0.9535 B( 25-C , 28-C ) :   1.0700
B( 28-C , 29-H ) :   0.9747 B( 28-C , 30-H ) :   0.9729 B( 28-C , 31-H ) :   0.9768

Dispersion correction           -0.013619640
FINAL SINGLE POINT ENERGY     -1339.866236861551

DIPOLE MOMENT
-------------
                                X             Y             Z
Electronic contribution:    -18.50543      15.24391      -9.57183
Nuclear contribution   :     18.66998     -15.58635      10.00411
                        -----------------------------------------
Total Dipole Moment    :      0.16455      -0.34243       0.43229
                        -----------------------------------------
Magnitude (a.u.)       :      0.57551
Magnitude (Debye)      :      1.46283

Rotational constants in cm-1:     0.017885     0.007620     0.006512
Rotational constants in MHz :   536.186841   228.433129   195.213164

                             ****ORCA TERMINATED NORMALLY****
TOTAL RUN TIME: 0 days 0 hours 0 minutes 20 seconds 876 msec
