                         Program Version 4.2.1 -  RELEASE  -
|  1> ! wB97X-D3 SP def2-SVP
|  2> %pal
|  3> nprocs 24
|  4> end
|  5>
|  6> * xyz 0 1
|  7> S 	 -145.075 	 6.9272 	 -5.40227
|  8> C 	 -145.608 	 8.4431 	 -4.84515
|  9> C 	 -144.916 	 8.88194 	 -3.74378
| 10> C 	 -143.962 	 7.99008 	 -3.26083
| 11> C 	 -143.849 	 6.88233 	 -4.05488
| 12> H 	 -143.35 	 8.14537 	 -2.47834
| 13> C 	 -145.099 	 10.2207 	 -3.21309
| 14> H 	 -145.389 	 10.8657 	 -4.04649
| 15> H 	 -144.046 	 10.4479 	 -2.88509
| 16> C 	 -145.972 	 10.2729 	 -2.07739
| 17> H 	 -146.978 	 9.90471 	 -2.40134
| 18> H 	 -145.546 	 9.6322 	 -1.31165
| 19> C 	 -146.026 	 11.6437 	 -1.40452
| 20> H 	 -145.11 	 12.054 	 -1.08535
| 21> H 	 -146.506 	 12.4232 	 -2.00837
| 22> H 	 -146.7 	 11.5267 	 -0.539125
| 23> S 	 -143.47 	 4.10958 	 -4.03693
| 24> C 	 -141.881 	 3.50462 	 -3.57984
| 25> C 	 -140.974 	 4.47421 	 -3.28942
| 26> C 	 -141.554 	 5.78865 	 -3.40945
| 27> C 	 -142.927 	 5.804 	 -3.79445
| 28> H 	 -139.992 	 4.20946 	 -2.90291
| 29> C 	 -140.563 	 7.0012 	 -3.27603
| 30> H 	 -140.032 	 6.81976 	 -2.375
| 31> H 	 -141.061 	 7.96246 	 -3.06363
| 32> C 	 -139.666 	 7.1511 	 -4.45771
| 33> H 	 -139.08 	 6.2226 	 -4.69815
| 34> H 	 -138.8 	 7.80707 	 -4.14493
| 35> C 	 -140.396 	 7.77227 	 -5.69157
| 36> H 	 -140.665 	 6.98941 	 -6.39024
| 37> H 	 -139.767 	 8.46061 	 -6.26658
| 38> H 	 -141.307 	 8.3185 	 -5.57332
| 39> H 	 -146.396 	 9.02359 	 -5.2815
| 40> H 	 -141.771 	 2.47256 	 -3.41156
| 41> *
| 42>
| 43>                          ****END OF INPUT****

CARTESIAN COORDINATES (ANGSTROEM)
---------------------------------
  S    -145.075000    6.927200   -5.402270
  C    -145.608000    8.443100   -4.845150
  C    -144.916000    8.881940   -3.743780
  C    -143.962000    7.990080   -3.260830
  C    -143.849000    6.882330   -4.054880
  H    -143.350000    8.145370   -2.478340
  C    -145.099000   10.220700   -3.213090
  H    -145.389000   10.865700   -4.046490
  H    -144.046000   10.447900   -2.885090
  C    -145.972000   10.272900   -2.077390
  H    -146.978000    9.904710   -2.401340
  H    -145.546000    9.632200   -1.311650
  C    -146.026000   11.643700   -1.404520
  H    -145.110000   12.054000   -1.085350
  H    -146.506000   12.423200   -2.008370
  H    -146.700000   11.526700   -0.539125
  S    -143.470000    4.109580   -4.036930
  C    -141.881000    3.504620   -3.579840
  C    -140.974000    4.474210   -3.289420
  C    -141.554000    5.788650   -3.409450
  C    -142.927000    5.804000   -3.794450
  H    -139.992000    4.209460   -2.902910
  C    -140.563000    7.001200   -3.276030
  H    -140.032000    6.819760   -2.375000
  H    -141.061000    7.962460   -3.063630
  C    -139.666000    7.151100   -4.457710
  H    -139.080000    6.222600   -4.698150
  H    -138.800000    7.807070   -4.144930
  C    -140.396000    7.772270   -5.691570
  H    -140.665000    6.989410   -6.390240
  H    -139.767000    8.460610   -6.266580
  H    -141.307000    8.318500   -5.573320
  H    -146.396000    9.023590   -5.281500
  H    -141.771000    2.472560   -3.411560

 Total Charge           Charge          ....    0
 Multiplicity           Mult            ....    1
 Number of Electrons    NEL             ....  134
 Basis Dimension        Dim             ....  322

ORBITAL ENERGIES
----------------

  NO   OCC          E(Eh)            E(eV)
   0   2.0000     -88.967537     -2420.9298
   1   2.0000     -88.962932     -2420.8044
   2   2.0000     -10.333234      -281.1816
   3   2.0000     -10.331149      -281.1248
   4   2.0000     -10.314506      -280.6720
   5   2.0000     -10.311649      -280.5942
   6   2.0000     -10.305347      -280.4228
   7   2.0000     -10.295805      -280.1631
   8   2.0000     -10.293042      -280.0879
   9   2.0000     -10.291682      -280.0509
  10   2.0000     -10.286009      -279.8965
  11   2.0000     -10.282131      -279.7910
  12   2.0000     -10.282117      -279.7906
  13   2.0000     -10.280051      -279.7344
  14   2.0000     -10.274331      -279.5788
  15   2.0000     -10.270162      -279.4653
  16   2.0000      -8.081944      -219.9209
  17   2.0000      -8.077165      -219.7908
  18   2.0000      -6.040438      -164.3687
  19   2.0000      -6.036537      -164.2625
  20   2.0000      -6.035729      -164.2405
  21   2.0000      -6.032706      -164.1583
  22   2.0000      -6.031784      -164.1332
  23   2.0000      -6.027872      -164.0267
  24   2.0000      -1.006013       -27.3750
  25   2.0000      -0.982285       -26.7293
  26   2.0000      -0.929021       -25.2800
  27   2.0000      -0.905504       -24.6400
  28   2.0000      -0.874880       -23.8067
  29   2.0000      -0.857964       -23.3464
  30   2.0000      -0.838928       -22.8284
  31   2.0000      -0.817148       -22.2357
  32   2.0000      -0.784405       -21.3447
  33   2.0000      -0.770167       -20.9573
  34   2.0000      -0.712134       -19.3781
  35   2.0000      -0.697789       -18.9878
  36   2.0000      -0.694266       -18.8919
  37   2.0000      -0.662405       -18.0250
  38   2.0000      -0.645856       -17.5746
  39   2.0000      -0.627264       -17.0687
  40   2.0000      -0.598303       -16.2806
  41   2.0000      -0.578895       -15.7525
  42   2.0000      -0.563867       -15.3436
  43   2.0000      -0.553223       -15.0540
  44   2.0000      -0.535400       -14.5690
  45   2.0000      -0.529801       -14.4166
  46   2.0000      -0.515082       -14.0161
  47   2.0000      -0.512425       -13.9438
  48   2.0000      -0.502212       -13.6659
  49   2.0000      -0.500397       -13.6165
  50   2.0000      -0.497074       -13.5261
  51   2.0000      -0.474457       -12.9106
  52   2.0000      -0.469482       -12.7752
  53   2.0000      -0.467809       -12.7297
  54   2.0000      -0.460284       -12.5250
  55   2.0000      -0.448793       -12.2123
  56   2.0000      -0.444462       -12.0944
  57   2.0000      -0.438590       -11.9346
  58   2.0000      -0.431884       -11.7522
  59   2.0000      -0.426198       -11.5974
  60   2.0000      -0.420014       -11.4292
  61   2.0000      -0.413311       -11.2468
  62   2.0000      -0.399785       -10.8787
  63   2.0000      -0.358556        -9.7568
  64   2.0000      -0.332834        -9.0569
  65   2.0000      -0.328568        -8.9408
  66   2.0000      -0.282361        -7.6834
  67   0.0000       0.024866         0.6766
  68   0.0000       0.072057         1.9608
  69   0.0000       0.105350         2.8667
  70   0.0000       0.117532         3.1982
  71   0.0000       0.131468         3.5774

MULLIKEN ATOMIC CHARGES
-----------------------
   0 S :    0.116151
   1 C :   -0.113153
   2 C :   -0.077676
   3 C :    0.057611
   4 C :   -0.120370
   5 H :   -0.037201
   6 C :    0.064881
   7 H :    0.021057
   8 H :    0.015801
   9 C :   -0.063686
  10 H :    0.028085
  11 H :    0.021252
  12 C :   -0.013896
  13 H :    0.019447
  14 H :    0.022023
  15 H :    0.031335
  16 S :    0.085263
  17 C :   -0.075305
  18 C :   -0.026592
  19 C :   -0.055943
  20 C :   -0.157435
  21 H :    0.027493
  22 C :    0.088664
  23 H :    0.011833
  24 H :    0.017986
  25 C :   -0.086639
  26 H :    0.036315
  27 H :    0.030810
  28 C :   -0.043271
  29 H :    0.035859
  30 H :    0.025923
  31 H :    0.032513
  32 H :    0.035504
  33 H :    0.045363
Sum of atomic charges:    0.0000000

LOEWDIN ATOMIC CHARGES
----------------------
   0 S :    0.395555
   1 C :   -0.210047
   2 C :   -0.066049
   3 C :   -0.042133
   4 C :   -0.165438
   5 H :    0.012884
   6 C :   -0.040415
   7 H :    0.029792
   8 H :    0.034878
   9 C :   -0.042034
  10 H :    0.029638
  11 H :    0.027162
  12 C :   -0.062199
  13 H :    0.017160
  14 H :    0.023412
  15 H :    0.030030
  16 S :    0.375056
  17 C :   -0.164187
  18 C :   -0.072301
  19 C :   -0.049476
  20 C :   -0.185848
  21 H :    0.036629
  22 C :   -0.031601
  23 H :    0.024525
  24 H :    0.028221
  25 C :   -0.046743
  26 H :    0.029378
  27 H :    0.028425
  28 C :   -0.070032
  29 H :    0.030022
  30 H :    0.027075
  31 H :    0.025275
  32 H :    0.025366
  33 H :    0.018022

  Mayer bond orders larger than 0.100000
B(  0-S ,  1-C ) :   1.1343 B(  0-S ,  4-C ) :   1.1288 B(  1-C ,  2-C ) :   1.6031
B(  1-C , 32-H ) :   0.9658 B(  2-C ,  3-C ) :   1.2498 B(  2-C ,  6-C ) :   1.0173
B(  3-C ,  4-C ) :   1.5584 B(  3-C ,  5-H ) :   1.0129 B(  4-C , 20-C ) :   1.0932
B(  6-C ,  7-H ) :   0.9354 B(  6-C ,  8-H ) :   0.9301 B(  6-C ,  9-C ) :   1.0917
B(  9-C , 10-H ) :   0.9468 B(  9-C , 11-H ) :   0.9479 B(  9-C , 12-C ) :   1.0877
B( 12-C , 13-H ) :   0.9725 B( 12-C , 14-H ) :   0.9716 B( 12-C , 15-H ) :   0.9737
B( 16-S , 17-C ) :   1.1505 B( 16-S , 20-C ) :   1.1197 B( 17-C , 18-C ) :   1.6215
B( 17-C , 33-H ) :   0.9704 B( 18-C , 19-C ) :   1.2236 B( 18-C , 21-H ) :   0.9890
B( 19-C , 20-C ) :   1.5912 B( 19-C , 22-C ) :   1.0263 B( 22-C , 23-H ) :   0.9282
B( 22-C , 24-H ) :   0.9404 B( 22-C , 25-C ) :   1.0903 B( 25-C , 26-H ) :   0.9561
B( 25-C , 27-H ) :   0.9563 B( 25-C , 28-C ) :   1.0459 B( 28-C , 29-H ) :   0.9767
B( 28-C , 30-H ) :   0.9776 B( 28-C , 31-H ) :   0.9811

Dispersion correction           -0.014703010
FINAL SINGLE POINT ENERGY     -1339.865751275061

DIPOLE MOMENT
-------------
                                X             Y             Z
Electronic contribution:     -7.60364     -23.44902      -7.72185
Nuclear contribution   :      7.99065      23.89979       8.07208
                        -----------------------------------------
Total Dipole Moment    :      0.38701       0.45077       0.35023
                        -----------------------------------------
Magnitude (a.u.)       :      0.68966
Magnitude (Debye)      :      1.75297

Rotational constants in cm-1:     0.020298     0.008084     0.007082
Rotational constants in MHz :   608.529049   242.351208   212.318657

                             ****ORCA TERMINATED NORMALLY****
TOTAL RUN TIME: 0 days 0 hours 0 minutes 22 seconds 217 msec
