                         Program Version 4.2.1 -  RELEASE  -
|  1> ! wB97X-D3 SP def2-SVP
|  2> %pal
|  3> nprocs 24
|  4> end
|  5>
|  6> * xyz 0 1
|  7> S 	 -67.0688 	 7.93945 	 -68.3342
|  8> C 	 -66.5686 	 8.69763 	 -69.852
|  9> C 	 -65.547 	 7.95589 	 -70.5142
| 10> C 	 -65.2558 	 6.73984 	 -69.8324
| 11> C 	 -65.8296 	 6.68029 	 -68.5695
| 12> H 	 -64.681 	 5.9866 	 -70.1951
| 13> C 	 -64.9381 	 8.19824 	 -71.8765
| 14> H 	 -64.0958 	 7.50542 	 -71.9517
| 15> H 	 -64.462 	 9.13172 	 -71.7236
| 16> C 	 -65.8384 	 8.21102 	 -73.1605
| 17> H 	 -66.5716 	 9.00753 	 -73.0881
| 18> H 	 -65.3273 	 8.49787 	 -74.0501
| 19> C 	 -66.4856 	 6.8884 	 -73.4256
| 20> H 	 -67.1647 	 6.5548 	 -72.6353
| 21> H 	 -67.1053 	 7.06506 	 -74.2749
| 22> H 	 -65.8466 	 6.13264 	 -73.8224
| 23> S 	 -64.9603 	 6.14532 	 -65.9765
| 24> C 	 -64.9574 	 4.48273 	 -65.4563
| 25> C 	 -65.336 	 3.62599 	 -66.4563
| 26> C 	 -65.6009 	 4.29051 	 -67.71
| 27> C 	 -65.5637 	 5.66618 	 -67.5344
| 28> H 	 -65.4676 	 2.52748 	 -66.2765
| 29> C 	 -66.0773 	 3.50295 	 -68.8817
| 30> H 	 -66.2276 	 2.50665 	 -68.53
| 31> H 	 -65.2729 	 3.5574 	 -69.6583
| 32> C 	 -67.5078 	 3.94496 	 -69.3389
| 33> H 	 -67.695 	 4.91367 	 -68.8795
| 34> H 	 -68.3388 	 3.4384 	 -68.8737
| 35> C 	 -67.8396 	 3.85009 	 -70.8889
| 36> H 	 -68.7023 	 4.46414 	 -71.2594
| 37> H 	 -68.1827 	 2.8166 	 -71.2353
| 38> H 	 -66.9729 	 4.14147 	 -71.4477
| 39> H 	 -67.0595 	 9.55201 	 -70.3655
| 40> H 	 -64.761 	 3.9421 	 -64.5329
| 41> *
| 42>
| 43>                          ****END OF INPUT****

CARTESIAN COORDINATES (ANGSTROEM)
---------------------------------
  S    -67.068800    7.939450  -68.334200
  C    -66.568600    8.697630  -69.852000
  C    -65.547000    7.955890  -70.514200
  C    -65.255800    6.739840  -69.832400
  C    -65.829600    6.680290  -68.569500
  H    -64.681000    5.986600  -70.195100
  C    -64.938100    8.198240  -71.876500
  H    -64.095800    7.505420  -71.951700
  H    -64.462000    9.131720  -71.723600
  C    -65.838400    8.211020  -73.160500
  H    -66.571600    9.007530  -73.088100
  H    -65.327300    8.497870  -74.050100
  C    -66.485600    6.888400  -73.425600
  H    -67.164700    6.554800  -72.635300
  H    -67.105300    7.065060  -74.274900
  H    -65.846600    6.132640  -73.822400
  S    -64.960300    6.145320  -65.976500
  C    -64.957400    4.482730  -65.456300
  C    -65.336000    3.625990  -66.456300
  C    -65.600900    4.290510  -67.710000
  C    -65.563700    5.666180  -67.534400
  H    -65.467600    2.527480  -66.276500
  C    -66.077300    3.502950  -68.881700
  H    -66.227600    2.506650  -68.530000
  H    -65.272900    3.557400  -69.658300
  C    -67.507800    3.944960  -69.338900
  H    -67.695000    4.913670  -68.879500
  H    -68.338800    3.438400  -68.873700
  C    -67.839600    3.850090  -70.888900
  H    -68.702300    4.464140  -71.259400
  H    -68.182700    2.816600  -71.235300
  H    -66.972900    4.141470  -71.447700
  H    -67.059500    9.552010  -70.365500
  H    -64.761000    3.942100  -64.532900

 Total Charge           Charge          ....    0
 Multiplicity           Mult            ....    1
 Number of Electrons    NEL             ....  134
 Basis Dimension        Dim             ....  322

ORBITAL ENERGIES
----------------

  NO   OCC          E(Eh)            E(eV)
   0   2.0000     -88.972250     -2421.0580
   1   2.0000     -88.970764     -2421.0176
   2   2.0000     -10.331279      -281.1284
   3   2.0000     -10.323970      -280.9295
   4   2.0000     -10.320649      -280.8391
   5   2.0000     -10.311614      -280.5933
   6   2.0000     -10.304300      -280.3943
   7   2.0000     -10.298594      -280.2390
   8   2.0000     -10.294182      -280.1189
   9   2.0000     -10.292222      -280.0656
  10   2.0000     -10.289282      -279.9856
  11   2.0000     -10.287851      -279.9467
  12   2.0000     -10.286963      -279.9225
  13   2.0000     -10.283942      -279.8403
  14   2.0000     -10.283698      -279.8337
  15   2.0000     -10.268830      -279.4291
  16   2.0000      -8.085399      -220.0149
  17   2.0000      -8.085193      -220.0093
  18   2.0000      -6.043957      -164.4644
  19   2.0000      -6.043865      -164.4619
  20   2.0000      -6.040112      -164.3598
  21   2.0000      -6.039745      -164.3498
  22   2.0000      -6.036223      -164.2540
  23   2.0000      -6.035799      -164.2424
  24   2.0000      -1.004246       -27.3269
  25   2.0000      -0.979228       -26.6461
  26   2.0000      -0.910446       -24.7745
  27   2.0000      -0.903817       -24.5941
  28   2.0000      -0.865253       -23.5447
  29   2.0000      -0.854252       -23.2454
  30   2.0000      -0.842137       -22.9157
  31   2.0000      -0.814031       -22.1509
  32   2.0000      -0.782727       -21.2991
  33   2.0000      -0.767981       -20.8978
  34   2.0000      -0.710669       -19.3383
  35   2.0000      -0.708812       -19.2878
  36   2.0000      -0.689218       -18.7546
  37   2.0000      -0.658563       -17.9204
  38   2.0000      -0.637477       -17.3466
  39   2.0000      -0.615151       -16.7391
  40   2.0000      -0.587735       -15.9931
  41   2.0000      -0.570746       -15.5308
  42   2.0000      -0.556221       -15.1355
  43   2.0000      -0.552765       -15.0415
  44   2.0000      -0.542816       -14.7708
  45   2.0000      -0.522650       -14.2220
  46   2.0000      -0.512740       -13.9524
  47   2.0000      -0.508080       -13.8256
  48   2.0000      -0.496722       -13.5165
  49   2.0000      -0.492766       -13.4089
  50   2.0000      -0.486919       -13.2497
  51   2.0000      -0.480797       -13.0831
  52   2.0000      -0.475615       -12.9421
  53   2.0000      -0.464210       -12.6318
  54   2.0000      -0.460342       -12.5265
  55   2.0000      -0.445694       -12.1280
  56   2.0000      -0.440016       -11.9734
  57   2.0000      -0.436510       -11.8780
  58   2.0000      -0.432627       -11.7724
  59   2.0000      -0.430611       -11.7175
  60   2.0000      -0.425330       -11.5738
  61   2.0000      -0.418221       -11.3804
  62   2.0000      -0.397451       -10.8152
  63   2.0000      -0.343155        -9.3377
  64   2.0000      -0.330461        -8.9923
  65   2.0000      -0.327990        -8.9251
  66   2.0000      -0.289788        -7.8855
  67   0.0000       0.028905         0.7866
  68   0.0000       0.065757         1.7893
  69   0.0000       0.106501         2.8980
  70   0.0000       0.119427         3.2498
  71   0.0000       0.129557         3.5254

MULLIKEN ATOMIC CHARGES
-----------------------
   0 S :    0.121237
   1 C :   -0.128771
   2 C :   -0.125742
   3 C :    0.082732
   4 C :   -0.180978
   5 H :   -0.032099
   6 C :    0.090450
   7 H :    0.013849
   8 H :    0.023393
   9 C :   -0.033449
  10 H :    0.015204
  11 H :    0.017174
  12 C :   -0.034990
  13 H :    0.050153
  14 H :    0.010563
  15 H :    0.024713
  16 S :    0.139734
  17 C :   -0.072358
  18 C :   -0.078042
  19 C :   -0.062706
  20 C :   -0.166146
  21 H :    0.036625
  22 C :    0.103877
  23 H :    0.016664
  24 H :    0.050814
  25 C :   -0.063215
  26 H :    0.027794
  27 H :    0.019884
  28 C :   -0.080807
  29 H :    0.041662
  30 H :    0.035968
  31 H :    0.028683
  32 H :    0.060288
  33 H :    0.047841
Sum of atomic charges:   -0.0000000

LOEWDIN ATOMIC CHARGES
----------------------
   0 S :    0.396035
   1 C :   -0.207336
   2 C :   -0.055620
   3 C :   -0.045226
   4 C :   -0.179685
   5 H :    0.013296
   6 C :   -0.033860
   7 H :    0.029612
   8 H :    0.030854
   9 C :   -0.033736
  10 H :    0.022310
  11 H :    0.023728
  12 C :   -0.066702
  13 H :    0.030755
  14 H :    0.025851
  15 H :    0.022779
  16 S :    0.423463
  17 C :   -0.204548
  18 C :   -0.077131
  19 C :   -0.059832
  20 C :   -0.212040
  21 H :    0.037947
  22 C :   -0.028532
  23 H :    0.030121
  24 H :    0.038339
  25 C :   -0.042986
  26 H :    0.022833
  27 H :    0.024737
  28 C :   -0.074834
  29 H :    0.031751
  30 H :    0.029483
  31 H :    0.015272
  32 H :    0.034744
  33 H :    0.038157

  Mayer bond orders larger than 0.100000
B(  0-S ,  1-C ) :   1.1352 B(  0-S ,  4-C ) :   1.1490 B(  1-C ,  2-C ) :   1.5900
B(  1-C ,  4-C ) :   0.1057 B(  1-C , 32-H ) :   0.9643 B(  2-C ,  3-C ) :   1.2550
B(  2-C ,  6-C ) :   1.0136 B(  3-C ,  4-C ) :   1.5610 B(  3-C ,  5-H ) :   1.0073
B(  4-C , 20-C ) :   1.0269 B(  6-C ,  7-H ) :   0.9440 B(  6-C ,  8-H ) :   0.9269
B(  6-C ,  9-C ) :   1.0661 B(  9-C , 10-H ) :   0.9543 B(  9-C , 11-H ) :   0.9508
B(  9-C , 12-C ) :   1.0922 B( 12-C , 13-H ) :   0.9719 B( 12-C , 14-H ) :   0.9636
B( 12-C , 15-H ) :   0.9720 B( 16-S , 17-C ) :   1.1350 B( 16-S , 20-C ) :   1.1441
B( 17-C , 18-C ) :   1.6506 B( 17-C , 33-H ) :   0.9581 B( 18-C , 19-C ) :   1.2477
B( 18-C , 21-H ) :   0.9722 B( 19-C , 20-C ) :   1.5891 B( 19-C , 22-C ) :   1.0479
B( 22-C , 23-H ) :   0.9321 B( 22-C , 24-H ) :   0.9321 B( 22-C , 25-C ) :   1.0400
B( 25-C , 26-H ) :   0.9656 B( 25-C , 27-H ) :   0.9540 B( 25-C , 28-C ) :   1.0555
B( 28-C , 29-H ) :   0.9744 B( 28-C , 30-H ) :   0.9764 B( 28-C , 31-H ) :   0.9807

Dispersion correction           -0.016235512
FINAL SINGLE POINT ENERGY     -1339.853066496561

DIPOLE MOMENT
-------------
                                X             Y             Z
Electronic contribution:      5.57995       8.65566      28.17466
Nuclear contribution   :     -5.63020      -8.97839     -28.81337
                        -----------------------------------------
Total Dipole Moment    :     -0.05026      -0.32274      -0.63871
                        -----------------------------------------
Magnitude (a.u.)       :      0.71738
Magnitude (Debye)      :      1.82344

Rotational constants in cm-1:     0.021286     0.009359     0.007550
Rotational constants in MHz :   638.149857   280.568416   226.336923

                             ****ORCA TERMINATED NORMALLY****
TOTAL RUN TIME: 0 days 0 hours 0 minutes 21 seconds 835 msec
