                         Program Version 4.2.1 -  RELEASE  -
|  1> ! wB97X-D3 SP def2-SVP
|  2> %pal
|  3> nprocs 24
|  4> end
|  5>
|  6> * xyz 0 1
|  7> S 	 -109.221 	 3.81638 	 -106.239
|  8> C 	 -108.528 	 5.08465 	 -107.277
|  9> C 	 -107.21 	 5.32822 	 -107.046
| 10> C 	 -106.686 	 4.48217 	 -106.008
| 11> C 	 -107.592 	 3.55906 	 -105.606
| 12> H 	 -105.674 	 4.45383 	 -105.611
| 13> C 	 -106.322 	 6.34862 	 -107.842
| 14> H 	 -105.746 	 6.86654 	 -107.086
| 15> H 	 -107.028 	 7.14681 	 -108.274
| 16> C 	 -105.346 	 5.80931 	 -108.924
| 17> H 	 -104.522 	 5.39849 	 -108.406
| 18> H 	 -105.741 	 4.98835 	 -109.548
| 19> C 	 -104.836 	 6.89744 	 -109.898
| 20> H 	 -104.555 	 7.74592 	 -109.305
| 21> H 	 -103.991 	 6.46442 	 -110.421
| 22> H 	 -105.472 	 7.31656 	 -110.647
| 23> S 	 -106.48 	 1.07751 	 -105.19
| 24> C 	 -106.383 	 0.418376 	 -103.582
| 25> C 	 -107.025 	 1.26548 	 -102.663
| 26> C 	 -107.574 	 2.44834 	 -103.287
| 27> C 	 -107.371 	 2.48162 	 -104.659
| 28> H 	 -106.972 	 0.996709 	 -101.634
| 29> C 	 -108.309 	 3.48475 	 -102.495
| 30> H 	 -108.277 	 4.43703 	 -103.129
| 31> H 	 -107.797 	 3.70819 	 -101.534
| 32> C 	 -109.686 	 3.09605 	 -102.038
| 33> H 	 -110.278 	 3.91926 	 -101.528
| 34> H 	 -109.529 	 2.37051 	 -101.283
| 35> C 	 -110.654 	 2.37642 	 -103.089
| 36> H 	 -111.606 	 2.26151 	 -102.659
| 37> H 	 -110.508 	 1.37419 	 -103.278
| 38> H 	 -110.89 	 2.93519 	 -104.048
| 39> H 	 -109.017 	 5.56893 	 -108.068
| 40> H 	 -105.933 	 -0.509289 	 -103.339
| 41> *
| 42>
| 43>                          ****END OF INPUT****

CARTESIAN COORDINATES (ANGSTROEM)
---------------------------------
  S    -109.221000    3.816380  -106.239000
  C    -108.528000    5.084650  -107.277000
  C    -107.210000    5.328220  -107.046000
  C    -106.686000    4.482170  -106.008000
  C    -107.592000    3.559060  -105.606000
  H    -105.674000    4.453830  -105.611000
  C    -106.322000    6.348620  -107.842000
  H    -105.746000    6.866540  -107.086000
  H    -107.028000    7.146810  -108.274000
  C    -105.346000    5.809310  -108.924000
  H    -104.522000    5.398490  -108.406000
  H    -105.741000    4.988350  -109.548000
  C    -104.836000    6.897440  -109.898000
  H    -104.555000    7.745920  -109.305000
  H    -103.991000    6.464420  -110.421000
  H    -105.472000    7.316560  -110.647000
  S    -106.480000    1.077510  -105.190000
  C    -106.383000    0.418376  -103.582000
  C    -107.025000    1.265480  -102.663000
  C    -107.574000    2.448340  -103.287000
  C    -107.371000    2.481620  -104.659000
  H    -106.972000    0.996709  -101.634000
  C    -108.309000    3.484750  -102.495000
  H    -108.277000    4.437030  -103.129000
  H    -107.797000    3.708190  -101.534000
  C    -109.686000    3.096050  -102.038000
  H    -110.278000    3.919260  -101.528000
  H    -109.529000    2.370510  -101.283000
  C    -110.654000    2.376420  -103.089000
  H    -111.606000    2.261510  -102.659000
  H    -110.508000    1.374190  -103.278000
  H    -110.890000    2.935190  -104.048000
  H    -109.017000    5.568930  -108.068000
  H    -105.933000   -0.509289  -103.339000

 Total Charge           Charge          ....    0
 Multiplicity           Mult            ....    1
 Number of Electrons    NEL             ....  134
 Basis Dimension        Dim             ....  322

ORBITAL ENERGIES
----------------

  NO   OCC          E(Eh)            E(eV)
   0   2.0000     -88.966446     -2420.9001
   1   2.0000     -88.964334     -2420.8426
   2   2.0000     -10.325528      -280.9719
   3   2.0000     -10.321076      -280.8508
   4   2.0000     -10.316105      -280.7155
   5   2.0000     -10.308120      -280.4982
   6   2.0000     -10.302701      -280.3507
   7   2.0000     -10.302575      -280.3473
   8   2.0000     -10.302068      -280.3335
   9   2.0000     -10.294300      -280.1222
  10   2.0000     -10.293911      -280.1116
  11   2.0000     -10.291359      -280.0421
  12   2.0000     -10.288512      -279.9646
  13   2.0000     -10.287827      -279.9460
  14   2.0000     -10.274764      -279.5906
  15   2.0000     -10.265408      -279.3359
  16   2.0000      -8.080181      -219.8729
  17   2.0000      -8.079193      -219.8460
  18   2.0000      -6.038701      -164.3214
  19   2.0000      -6.037631      -164.2923
  20   2.0000      -6.035054      -164.2222
  21   2.0000      -6.033548      -164.1812
  22   2.0000      -6.030757      -164.1052
  23   2.0000      -6.030158      -164.0890
  24   2.0000      -1.005077       -27.3495
  25   2.0000      -0.980754       -26.6877
  26   2.0000      -0.905613       -24.6430
  27   2.0000      -0.903274       -24.5793
  28   2.0000      -0.869244       -23.6533
  29   2.0000      -0.847372       -23.0582
  30   2.0000      -0.839615       -22.8471
  31   2.0000      -0.813492       -22.1362
  32   2.0000      -0.785958       -21.3870
  33   2.0000      -0.774254       -21.0685
  34   2.0000      -0.708283       -19.2734
  35   2.0000      -0.701586       -19.0911
  36   2.0000      -0.692429       -18.8419
  37   2.0000      -0.659966       -17.9586
  38   2.0000      -0.641982       -17.4692
  39   2.0000      -0.614976       -16.7343
  40   2.0000      -0.588814       -16.0224
  41   2.0000      -0.569153       -15.4874
  42   2.0000      -0.554779       -15.0963
  43   2.0000      -0.550019       -14.9668
  44   2.0000      -0.537730       -14.6324
  45   2.0000      -0.526348       -14.3227
  46   2.0000      -0.516923       -14.0662
  47   2.0000      -0.511911       -13.9298
  48   2.0000      -0.500565       -13.6211
  49   2.0000      -0.493754       -13.4357
  50   2.0000      -0.490637       -13.3509
  51   2.0000      -0.476879       -12.9765
  52   2.0000      -0.468507       -12.7487
  53   2.0000      -0.462168       -12.5762
  54   2.0000      -0.459074       -12.4920
  55   2.0000      -0.443256       -12.0616
  56   2.0000      -0.441424       -12.0118
  57   2.0000      -0.437211       -11.8971
  58   2.0000      -0.432353       -11.7649
  59   2.0000      -0.428548       -11.6614
  60   2.0000      -0.416223       -11.3260
  61   2.0000      -0.411960       -11.2100
  62   2.0000      -0.407060       -11.0767
  63   2.0000      -0.337103        -9.1730
  64   2.0000      -0.328313        -8.9339
  65   2.0000      -0.324779        -8.8377
  66   2.0000      -0.308031        -8.3820
  67   0.0000       0.045960         1.2506
  68   0.0000       0.056928         1.5491
  69   0.0000       0.104278         2.8375
  70   0.0000       0.121121         3.2959
  71   0.0000       0.131201         3.5702

MULLIKEN ATOMIC CHARGES
-----------------------
   0 S :    0.110908
   1 C :   -0.088972
   2 C :   -0.081312
   3 C :    0.048892
   4 C :   -0.191899
   5 H :    0.019116
   6 C :    0.032679
   7 H :    0.027467
   8 H :    0.033307
   9 C :   -0.041658
  10 H :    0.020603
  11 H :    0.038068
  12 C :   -0.048963
  13 H :    0.020255
  14 H :    0.034365
  15 H :    0.031528
  16 S :    0.117530
  17 C :   -0.094316
  18 C :   -0.031332
  19 C :   -0.004882
  20 C :   -0.179412
  21 H :    0.012376
  22 C :    0.067194
  23 H :    0.045639
  24 H :    0.029169
  25 C :   -0.073643
  26 H :    0.044563
  27 H :    0.013596
  28 C :   -0.035834
  29 H :    0.001721
  30 H :    0.016433
  31 H :    0.039436
  32 H :    0.019873
  33 H :    0.047503
Sum of atomic charges:   -0.0000000

LOEWDIN ATOMIC CHARGES
----------------------
   0 S :    0.393649
   1 C :   -0.177515
   2 C :   -0.060883
   3 C :   -0.055483
   4 C :   -0.185630
   5 H :    0.036988
   6 C :   -0.033578
   7 H :    0.028950
   8 H :    0.034861
   9 C :   -0.037157
  10 H :    0.019955
  11 H :    0.028218
  12 C :   -0.062307
  13 H :    0.021304
  14 H :    0.029172
  15 H :    0.021903
  16 S :    0.418058
  17 C :   -0.183114
  18 C :   -0.068566
  19 C :   -0.051032
  20 C :   -0.212600
  21 H :    0.026853
  22 C :   -0.043134
  23 H :    0.036871
  24 H :    0.036718
  25 C :   -0.037843
  26 H :    0.034571
  27 H :    0.017765
  28 C :   -0.078179
  29 H :    0.021668
  30 H :    0.016170
  31 H :    0.024323
  32 H :    0.016734
  33 H :    0.022290

  Mayer bond orders larger than 0.100000
B(  0-S ,  1-C ) :   1.1123 B(  0-S ,  4-C ) :   1.1327 B(  1-C ,  2-C ) :   1.6863
B(  1-C , 32-H ) :   0.9678 B(  2-C ,  3-C ) :   1.1806 B(  2-C ,  6-C ) :   1.0147
B(  3-C ,  4-C ) :   1.6491 B(  3-C ,  5-H ) :   0.9941 B(  4-C , 20-C ) :   1.0006
B(  6-C ,  7-H ) :   0.9366 B(  6-C ,  8-H ) :   0.9518 B(  6-C ,  9-C ) :   1.0519
B(  9-C , 10-H ) :   0.9531 B(  9-C , 11-H ) :   0.9618 B(  9-C , 12-C ) :   1.0796
B( 12-C , 13-H ) :   0.9751 B( 12-C , 14-H ) :   0.9750 B( 12-C , 15-H ) :   0.9784
B( 16-S , 17-C ) :   1.1693 B( 16-S , 20-C ) :   1.1501 B( 17-C , 18-C ) :   1.5926
B( 17-C , 33-H ) :   0.9731 B( 18-C , 19-C ) :   1.2278 B( 18-C , 21-H ) :   0.9980
B( 19-C , 20-C ) :   1.5896 B( 19-C , 22-C ) :   1.0562 B( 22-C , 23-H ) :   0.9289
B( 22-C , 24-H ) :   0.9353 B( 22-C , 25-C ) :   1.0636 B( 25-C , 26-H ) :   0.9598
B( 25-C , 27-H ) :   0.9528 B( 25-C , 28-C ) :   1.0733 B( 28-C , 29-H ) :   0.9645
B( 28-C , 30-H ) :   0.9709 B( 28-C , 31-H ) :   0.9734

Dispersion correction           -0.014894221
FINAL SINGLE POINT ENERGY     -1339.870710745716

DIPOLE MOMENT
-------------
                                X             Y             Z
Electronic contribution:     -1.32579     -13.64323       2.01421
Nuclear contribution   :      1.61194      13.87680      -1.84528
                        -----------------------------------------
Total Dipole Moment    :      0.28615       0.23357       0.16893
                        -----------------------------------------
Magnitude (a.u.)       :      0.40617
Magnitude (Debye)      :      1.03240

Rotational constants in cm-1:     0.023670     0.007599     0.006481
Rotational constants in MHz :   709.613271   227.811317   194.284693

                             ****ORCA TERMINATED NORMALLY****
TOTAL RUN TIME: 0 days 0 hours 0 minutes 20 seconds 241 msec
