                         Program Version 4.2.1 -  RELEASE  -
|  1> ! wB97X-D3 SP def2-SVP
|  2> %pal
|  3> nprocs 24
|  4> end
|  5>
|  6> * xyz 0 1
|  7> S 	 -50.0569 	 28.8841 	 25.9753
|  8> C 	 -49.9988 	 30.3542 	 24.9288
|  9> C 	 -48.6961 	 30.8339 	 24.8598
| 10> C 	 -47.7366 	 30.0265 	 25.5455
| 11> C 	 -48.3564 	 28.9693 	 26.23
| 12> H 	 -46.65 	 30.2064 	 25.6859
| 13> C 	 -48.3004 	 32.0397 	 24.0961
| 14> H 	 -48.2868 	 32.9083 	 24.6812
| 15> H 	 -49.1738 	 32.3064 	 23.3934
| 16> C 	 -47.118 	 31.7485 	 23.1811
| 17> H 	 -46.3002 	 31.333 	 23.7231
| 18> H 	 -47.4412 	 30.9781 	 22.4523
| 19> C 	 -46.6772 	 32.9599 	 22.3384
| 20> H 	 -45.7917 	 32.5858 	 21.725
| 21> H 	 -47.3732 	 33.3948 	 21.7277
| 22> H 	 -46.2117 	 33.7117 	 22.9656
| 23> S 	 -47.1365 	 26.5457 	 26.9041
| 24> C 	 -46.4481 	 26.3647 	 28.5354
| 25> C 	 -46.6815 	 27.4426 	 29.2864
| 26> C 	 -47.2734 	 28.5244 	 28.5726
| 27> C 	 -47.5435 	 28.2361 	 27.2516
| 28> H 	 -46.3498 	 27.4297 	 30.2981
| 29> C 	 -47.8018 	 29.7853 	 29.2652
| 30> H 	 -47.4877 	 30.7029 	 28.8222
| 31> H 	 -47.5246 	 29.8703 	 30.3155
| 32> C 	 -49.3371 	 29.9097 	 29.3978
| 33> H 	 -49.747 	 28.9908 	 29.5041
| 34> H 	 -49.7547 	 30.4794 	 28.5067
| 35> C 	 -49.7917 	 30.8279 	 30.5756
| 36> H 	 -49.7275 	 30.2332 	 31.4601
| 37> H 	 -50.8185 	 31.1782 	 30.4055
| 38> H 	 -49.148 	 31.6371 	 30.73
| 39> H 	 -50.8636 	 30.8699 	 24.4679
| 40> H 	 -45.8886 	 25.478 	 28.8386
| 41> *
| 42>
| 43>                          ****END OF INPUT****

CARTESIAN COORDINATES (ANGSTROEM)
---------------------------------
  S    -50.056900   28.884100   25.975300
  C    -49.998800   30.354200   24.928800
  C    -48.696100   30.833900   24.859800
  C    -47.736600   30.026500   25.545500
  C    -48.356400   28.969300   26.230000
  H    -46.650000   30.206400   25.685900
  C    -48.300400   32.039700   24.096100
  H    -48.286800   32.908300   24.681200
  H    -49.173800   32.306400   23.393400
  C    -47.118000   31.748500   23.181100
  H    -46.300200   31.333000   23.723100
  H    -47.441200   30.978100   22.452300
  C    -46.677200   32.959900   22.338400
  H    -45.791700   32.585800   21.725000
  H    -47.373200   33.394800   21.727700
  H    -46.211700   33.711700   22.965600
  S    -47.136500   26.545700   26.904100
  C    -46.448100   26.364700   28.535400
  C    -46.681500   27.442600   29.286400
  C    -47.273400   28.524400   28.572600
  C    -47.543500   28.236100   27.251600
  H    -46.349800   27.429700   30.298100
  C    -47.801800   29.785300   29.265200
  H    -47.487700   30.702900   28.822200
  H    -47.524600   29.870300   30.315500
  C    -49.337100   29.909700   29.397800
  H    -49.747000   28.990800   29.504100
  H    -49.754700   30.479400   28.506700
  C    -49.791700   30.827900   30.575600
  H    -49.727500   30.233200   31.460100
  H    -50.818500   31.178200   30.405500
  H    -49.148000   31.637100   30.730000
  H    -50.863600   30.869900   24.467900
  H    -45.888600   25.478000   28.838600

 Total Charge           Charge          ....    0
 Multiplicity           Mult            ....    1
 Number of Electrons    NEL             ....  134
 Basis Dimension        Dim             ....  322

ORBITAL ENERGIES
----------------

  NO   OCC          E(Eh)            E(eV)
   0   2.0000     -88.971777     -2421.0451
   1   2.0000     -88.959966     -2420.7237
   2   2.0000     -10.330726      -281.1133
   3   2.0000     -10.328044      -281.0404
   4   2.0000     -10.320489      -280.8348
   5   2.0000     -10.316041      -280.7137
   6   2.0000     -10.305145      -280.4172
   7   2.0000     -10.300688      -280.2960
   8   2.0000     -10.297076      -280.1977
   9   2.0000     -10.288891      -279.9750
  10   2.0000     -10.288819      -279.9730
  11   2.0000     -10.285960      -279.8952
  12   2.0000     -10.285676      -279.8875
  13   2.0000     -10.275570      -279.6125
  14   2.0000     -10.274410      -279.5809
  15   2.0000     -10.268736      -279.4265
  16   2.0000      -8.085226      -220.0102
  17   2.0000      -8.074404      -219.7157
  18   2.0000      -6.043809      -164.4604
  19   2.0000      -6.039847      -164.3526
  20   2.0000      -6.036019      -164.2484
  21   2.0000      -6.032933      -164.1644
  22   2.0000      -6.029021      -164.0580
  23   2.0000      -6.025088      -163.9510
  24   2.0000      -1.002576       -27.2815
  25   2.0000      -0.982290       -26.7295
  26   2.0000      -0.915662       -24.9164
  27   2.0000      -0.902927       -24.5699
  28   2.0000      -0.867127       -23.5957
  29   2.0000      -0.848082       -23.0775
  30   2.0000      -0.844330       -22.9754
  31   2.0000      -0.815206       -22.1829
  32   2.0000      -0.780963       -21.2511
  33   2.0000      -0.770868       -20.9764
  34   2.0000      -0.710973       -19.3466
  35   2.0000      -0.696341       -18.9484
  36   2.0000      -0.688389       -18.7320
  37   2.0000      -0.659375       -17.9425
  38   2.0000      -0.637156       -17.3379
  39   2.0000      -0.617871       -16.8131
  40   2.0000      -0.600832       -16.3495
  41   2.0000      -0.571715       -15.5572
  42   2.0000      -0.567749       -15.4492
  43   2.0000      -0.562270       -15.3001
  44   2.0000      -0.525465       -14.2986
  45   2.0000      -0.522038       -14.2054
  46   2.0000      -0.517470       -14.0811
  47   2.0000      -0.507903       -13.8207
  48   2.0000      -0.503189       -13.6925
  49   2.0000      -0.497011       -13.5243
  50   2.0000      -0.494572       -13.4580
  51   2.0000      -0.479839       -13.0571
  52   2.0000      -0.475156       -12.9296
  53   2.0000      -0.465178       -12.6581
  54   2.0000      -0.455734       -12.4012
  55   2.0000      -0.448112       -12.1937
  56   2.0000      -0.444155       -12.0861
  57   2.0000      -0.435620       -11.8538
  58   2.0000      -0.432246       -11.7620
  59   2.0000      -0.424115       -11.5408
  60   2.0000      -0.422472       -11.4960
  61   2.0000      -0.410486       -11.1699
  62   2.0000      -0.398969       -10.8565
  63   2.0000      -0.336054        -9.1445
  64   2.0000      -0.332028        -9.0349
  65   2.0000      -0.322245        -8.7687
  66   2.0000      -0.308814        -8.4033
  67   0.0000       0.042582         1.1587
  68   0.0000       0.052297         1.4231
  69   0.0000       0.115406         3.1404
  70   0.0000       0.118506         3.2247
  71   0.0000       0.131394         3.5754

MULLIKEN ATOMIC CHARGES
-----------------------
   0 S :    0.124738
   1 C :   -0.141884
   2 C :   -0.072050
   3 C :    0.007808
   4 C :   -0.128606
   5 H :    0.041968
   6 C :    0.080151
   7 H :    0.025331
   8 H :    0.013847
   9 C :   -0.106982
  10 H :    0.029768
  11 H :    0.041110
  12 C :   -0.021151
  13 H :    0.035176
  14 H :    0.022084
  15 H :    0.023047
  16 S :    0.082460
  17 C :   -0.098522
  18 C :   -0.013041
  19 C :   -0.010292
  20 C :   -0.194108
  21 H :    0.011806
  22 C :    0.092380
  23 H :    0.017177
  24 H :    0.003588
  25 C :   -0.083667
  26 H :    0.011301
  27 H :    0.045968
  28 C :   -0.039317
  29 H :    0.021159
  30 H :    0.040350
  31 H :    0.016474
  32 H :    0.060381
  33 H :    0.061549
Sum of atomic charges:    0.0000000

LOEWDIN ATOMIC CHARGES
----------------------
   0 S :    0.412817
   1 C :   -0.195326
   2 C :   -0.062245
   3 C :   -0.063766
   4 C :   -0.206306
   5 H :    0.041291
   6 C :   -0.036480
   7 H :    0.022726
   8 H :    0.036400
   9 C :   -0.036755
  10 H :    0.017815
  11 H :    0.033589
  12 C :   -0.059199
  13 H :    0.036881
  14 H :    0.010500
  15 H :    0.022873
  16 S :    0.374189
  17 C :   -0.166250
  18 C :   -0.072634
  19 C :   -0.053374
  20 C :   -0.186791
  21 H :    0.031757
  22 C :   -0.030520
  23 H :    0.027490
  24 H :    0.025943
  25 C :   -0.031647
  26 H :    0.004984
  27 H :    0.027256
  28 C :   -0.058631
  29 H :    0.018956
  30 H :    0.030761
  31 H :    0.014073
  32 H :    0.036961
  33 H :    0.032660

  Mayer bond orders larger than 0.100000
B(  0-S ,  1-C ) :   1.1172 B(  0-S ,  4-C ) :   1.1698 B(  1-C ,  2-C ) :   1.6190
B(  1-C , 32-H ) :   0.9637 B(  2-C ,  3-C ) :   1.2287 B(  2-C ,  6-C ) :   1.0282
B(  3-C ,  4-C ) :   1.5667 B(  3-C ,  5-H ) :   0.9844 B(  4-C , 20-C ) :   1.0033
B(  6-C ,  7-H ) :   0.9348 B(  6-C ,  8-H ) :   0.9391 B(  6-C ,  9-C ) :   1.0531
B(  9-C , 10-H ) :   0.9567 B(  9-C , 11-H ) :   0.9564 B(  9-C , 12-C ) :   1.0892
B( 12-C , 13-H ) :   0.9730 B( 12-C , 14-H ) :   0.9771 B( 12-C , 15-H ) :   0.9739
B( 16-S , 17-C ) :   1.1429 B( 16-S , 20-C ) :   1.1311 B( 17-C , 18-C ) :   1.6358
B( 17-C , 33-H ) :   0.9647 B( 18-C , 19-C ) :   1.2223 B( 18-C , 21-H ) :   0.9962
B( 19-C , 20-C ) :   1.6238 B( 19-C , 22-C ) :   1.0471 B( 22-C , 23-H ) :   0.9266
B( 22-C , 24-H ) :   0.9446 B( 22-C , 25-C ) :   1.0539 B( 25-C , 26-H ) :   0.9635
B( 25-C , 27-H ) :   0.9564 B( 25-C , 28-C ) :   1.0829 B( 28-C , 29-H ) :   0.9743
B( 28-C , 30-H ) :   0.9768 B( 28-C , 31-H ) :   0.9759

Dispersion correction           -0.014680487
FINAL SINGLE POINT ENERGY     -1339.860762129546

DIPOLE MOMENT
-------------
                                X             Y             Z
Electronic contribution:     -1.81836     -23.44284       0.05810
Nuclear contribution   :      1.94377      24.01724       0.14254
                        -----------------------------------------
Total Dipole Moment    :      0.12541       0.57439       0.20064
                        -----------------------------------------
Magnitude (a.u.)       :      0.62122
Magnitude (Debye)      :      1.57901

Rotational constants in cm-1:     0.018210     0.008361     0.007200
Rotational constants in MHz :   545.910132   250.659873   215.844608

                             ****ORCA TERMINATED NORMALLY****
TOTAL RUN TIME: 0 days 0 hours 0 minutes 21 seconds 697 msec
