                         Program Version 4.2.1 -  RELEASE  -
|  1> ! wB97X-D3 SP def2-SVP
|  2> %pal
|  3> nprocs 24
|  4> end
|  5>
|  6> * xyz 0 1
|  7> S 	 -84.9 	 -30.5561 	 -59.6649
|  8> C 	 -86.1554 	 -30.0733 	 -60.7206
|  9> C 	 -87.33 	 -29.7347 	 -60.0312
| 10> C 	 -87.2053 	 -29.9347 	 -58.6197
| 11> C 	 -85.927 	 -30.3742 	 -58.2553
| 12> H 	 -87.9848 	 -29.7967 	 -57.8784
| 13> C 	 -88.627 	 -29.275 	 -60.6431
| 14> H 	 -88.4089 	 -29.0169 	 -61.6282
| 15> H 	 -88.9199 	 -28.3808 	 -60.1377
| 16> C 	 -89.9044 	 -30.1827 	 -60.6927
| 17> H 	 -90.6069 	 -29.8597 	 -61.4033
| 18> H 	 -89.6 	 -31.2054 	 -60.9167
| 19> C 	 -90.6219 	 -30.3311 	 -59.3024
| 20> H 	 -90.5339 	 -29.4383 	 -58.7204
| 21> H 	 -91.6945 	 -30.5254 	 -59.4706
| 22> H 	 -90.0416 	 -31.1798 	 -58.8586
| 23> S 	 -87.0171 	 -31.5273 	 -56.0599
| 24> C 	 -86.0292 	 -31.7331 	 -54.5947
| 25> C 	 -84.6819 	 -31.4237 	 -54.8096
| 26> C 	 -84.5029 	 -30.8418 	 -56.0946
| 27> C 	 -85.6376 	 -30.8707 	 -56.9116
| 28> H 	 -83.9276 	 -31.3386 	 -54.0214
| 29> C 	 -83.1649 	 -30.225 	 -56.434
| 30> H 	 -83.0305 	 -30.145 	 -57.5039
| 31> H 	 -82.3883 	 -30.9246 	 -56.0537
| 32> C 	 -83.0133 	 -28.7922 	 -55.8547
| 33> H 	 -82.0144 	 -28.4402 	 -56.0735
| 34> H 	 -83.1674 	 -28.6837 	 -54.7766
| 35> C 	 -83.9517 	 -27.7086 	 -56.5829
| 36> H 	 -83.6629 	 -26.7407 	 -56.2452
| 37> H 	 -85.0257 	 -27.8942 	 -56.3706
| 38> H 	 -83.9924 	 -27.6393 	 -57.726
| 39> H 	 -86.1687 	 -30.0621 	 -61.7865
| 40> H 	 -86.3711 	 -32.1628 	 -53.7131
| 41> *
| 42>
| 43>                          ****END OF INPUT****

CARTESIAN COORDINATES (ANGSTROEM)
---------------------------------
  S    -84.900000  -30.556100  -59.664900
  C    -86.155400  -30.073300  -60.720600
  C    -87.330000  -29.734700  -60.031200
  C    -87.205300  -29.934700  -58.619700
  C    -85.927000  -30.374200  -58.255300
  H    -87.984800  -29.796700  -57.878400
  C    -88.627000  -29.275000  -60.643100
  H    -88.408900  -29.016900  -61.628200
  H    -88.919900  -28.380800  -60.137700
  C    -89.904400  -30.182700  -60.692700
  H    -90.606900  -29.859700  -61.403300
  H    -89.600000  -31.205400  -60.916700
  C    -90.621900  -30.331100  -59.302400
  H    -90.533900  -29.438300  -58.720400
  H    -91.694500  -30.525400  -59.470600
  H    -90.041600  -31.179800  -58.858600
  S    -87.017100  -31.527300  -56.059900
  C    -86.029200  -31.733100  -54.594700
  C    -84.681900  -31.423700  -54.809600
  C    -84.502900  -30.841800  -56.094600
  C    -85.637600  -30.870700  -56.911600
  H    -83.927600  -31.338600  -54.021400
  C    -83.164900  -30.225000  -56.434000
  H    -83.030500  -30.145000  -57.503900
  H    -82.388300  -30.924600  -56.053700
  C    -83.013300  -28.792200  -55.854700
  H    -82.014400  -28.440200  -56.073500
  H    -83.167400  -28.683700  -54.776600
  C    -83.951700  -27.708600  -56.582900
  H    -83.662900  -26.740700  -56.245200
  H    -85.025700  -27.894200  -56.370600
  H    -83.992400  -27.639300  -57.726000
  H    -86.168700  -30.062100  -61.786500
  H    -86.371100  -32.162800  -53.713100

 Total Charge           Charge          ....    0
 Multiplicity           Mult            ....    1
 Number of Electrons    NEL             ....  134
 Basis Dimension        Dim             ....  322

ORBITAL ENERGIES
----------------

  NO   OCC          E(Eh)            E(eV)
   0   2.0000     -88.973690     -2421.0972
   1   2.0000     -88.969203     -2420.9751
   2   2.0000     -10.332405      -281.1590
   3   2.0000     -10.327552      -281.0270
   4   2.0000     -10.317977      -280.7664
   5   2.0000     -10.312562      -280.6191
   6   2.0000     -10.302134      -280.3353
   7   2.0000     -10.300850      -280.3004
   8   2.0000     -10.297249      -280.2024
   9   2.0000     -10.293647      -280.1044
  10   2.0000     -10.293406      -280.0978
  11   2.0000     -10.292187      -280.0647
  12   2.0000     -10.284585      -279.8578
  13   2.0000     -10.284007      -279.8420
  14   2.0000     -10.278823      -279.7010
  15   2.0000     -10.278252      -279.6855
  16   2.0000      -8.088150      -220.0898
  17   2.0000      -8.083153      -219.9538
  18   2.0000      -6.046706      -164.5392
  19   2.0000      -6.042630      -164.4283
  20   2.0000      -6.041764      -164.4048
  21   2.0000      -6.038955      -164.3283
  22   2.0000      -6.037770      -164.2961
  23   2.0000      -6.033860      -164.1897
  24   2.0000      -1.006845       -27.3976
  25   2.0000      -0.983102       -26.7516
  26   2.0000      -0.907623       -24.6977
  27   2.0000      -0.901377       -24.5277
  28   2.0000      -0.871794       -23.7227
  29   2.0000      -0.850145       -23.1336
  30   2.0000      -0.837831       -22.7986
  31   2.0000      -0.811696       -22.0874
  32   2.0000      -0.781688       -21.2708
  33   2.0000      -0.768644       -20.9159
  34   2.0000      -0.705131       -19.1876
  35   2.0000      -0.701223       -19.0812
  36   2.0000      -0.693712       -18.8769
  37   2.0000      -0.670576       -18.2473
  38   2.0000      -0.638846       -17.3839
  39   2.0000      -0.612322       -16.6621
  40   2.0000      -0.596222       -16.2240
  41   2.0000      -0.573210       -15.5978
  42   2.0000      -0.551489       -15.0068
  43   2.0000      -0.548148       -14.9159
  44   2.0000      -0.541808       -14.7433
  45   2.0000      -0.534825       -14.5533
  46   2.0000      -0.515381       -14.0242
  47   2.0000      -0.507108       -13.7991
  48   2.0000      -0.500828       -13.6282
  49   2.0000      -0.496401       -13.5078
  50   2.0000      -0.487397       -13.2628
  51   2.0000      -0.482905       -13.1405
  52   2.0000      -0.469185       -12.7672
  53   2.0000      -0.462841       -12.5946
  54   2.0000      -0.458263       -12.4700
  55   2.0000      -0.446094       -12.1388
  56   2.0000      -0.444755       -12.1024
  57   2.0000      -0.437389       -11.9020
  58   2.0000      -0.430017       -11.7014
  59   2.0000      -0.427372       -11.6294
  60   2.0000      -0.422509       -11.4970
  61   2.0000      -0.413819       -11.2606
  62   2.0000      -0.408336       -11.1114
  63   2.0000      -0.355207        -9.6657
  64   2.0000      -0.333428        -9.0730
  65   2.0000      -0.331732        -9.0269
  66   2.0000      -0.281652        -7.6641
  67   0.0000       0.021897         0.5958
  68   0.0000       0.075133         2.0445
  69   0.0000       0.101804         2.7702
  70   0.0000       0.115810         3.1514
  71   0.0000       0.128855         3.5063

MULLIKEN ATOMIC CHARGES
-----------------------
   0 S :    0.127606
   1 C :   -0.099736
   2 C :   -0.104775
   3 C :   -0.029975
   4 C :   -0.109418
   5 H :    0.025352
   6 C :    0.106367
   7 H :   -0.006339
   8 H :    0.022766
   9 C :   -0.063165
  10 H :    0.024527
  11 H :    0.028623
  12 C :   -0.082741
  13 H :    0.028112
  14 H :    0.042795
  15 H :    0.052012
  16 S :    0.095399
  17 C :   -0.073744
  18 C :   -0.016110
  19 C :   -0.085621
  20 C :   -0.130240
  21 H :    0.031087
  22 C :    0.074584
  23 H :    0.013195
  24 H :    0.037239
  25 C :   -0.059885
  26 H :    0.029953
  27 H :    0.037228
  28 C :   -0.100078
  29 H :    0.028199
  30 H :    0.045897
  31 H :    0.041353
  32 H :    0.034518
  33 H :    0.035018
Sum of atomic charges:   -0.0000000

LOEWDIN ATOMIC CHARGES
----------------------
   0 S :    0.433863
   1 C :   -0.212613
   2 C :   -0.058285
   3 C :   -0.074204
   4 C :   -0.192467
   5 H :    0.025313
   6 C :   -0.027173
   7 H :    0.020637
   8 H :    0.029173
   9 C :   -0.030426
  10 H :    0.015817
  11 H :    0.024569
  12 C :   -0.069991
  13 H :    0.014285
  14 H :    0.029936
  15 H :    0.034769
  16 S :    0.409642
  17 C :   -0.164402
  18 C :   -0.065211
  19 C :   -0.062001
  20 C :   -0.196326
  21 H :    0.036116
  22 C :   -0.033493
  23 H :    0.020672
  24 H :    0.035874
  25 C :   -0.031397
  26 H :    0.022212
  27 H :    0.025141
  28 C :   -0.077294
  29 H :    0.018144
  30 H :    0.027572
  31 H :    0.032274
  32 H :    0.025783
  33 H :    0.013490

  Mayer bond orders larger than 0.100000
B(  0-S ,  1-C ) :   1.1455 B(  0-S ,  4-C ) :   1.1546 B(  1-C ,  2-C ) :   1.5963
B(  1-C , 32-H ) :   0.9643 B(  2-C ,  3-C ) :   1.2567 B(  2-C ,  6-C ) :   1.0372
B(  3-C ,  4-C ) :   1.5319 B(  3-C ,  5-H ) :   0.9854 B(  4-C , 20-C ) :   1.0662
B(  6-C ,  7-H ) :   0.9288 B(  6-C ,  8-H ) :   0.9389 B(  6-C ,  9-C ) :   1.0642
B(  9-C , 10-H ) :   0.9618 B(  9-C , 11-H ) :   0.9644 B(  9-C , 12-C ) :   1.0620
B( 12-C , 13-H ) :   0.9792 B( 12-C , 14-H ) :   0.9746 B( 12-C , 15-H ) :   0.9819
B( 16-S , 17-C ) :   1.1558 B( 16-S , 20-C ) :   1.1300 B( 17-C , 18-C ) :   1.5960
B( 17-C , 33-H ) :   0.9741 B( 18-C , 19-C ) :   1.2636 B( 18-C , 21-H ) :   0.9793
B( 19-C , 20-C ) :   1.5748 B( 19-C , 22-C ) :   1.0465 B( 22-C , 23-H ) :   0.9355
B( 22-C , 24-H ) :   0.9362 B( 22-C , 25-C ) :   1.0642 B( 25-C , 26-H ) :   0.9596
B( 25-C , 27-H ) :   0.9602 B( 25-C , 28-C ) :   1.0570 B( 28-C , 29-H ) :   0.9771
B( 28-C , 30-H ) :   0.9779 B( 28-C , 31-H ) :   0.9767

Dispersion correction           -0.015570389
FINAL SINGLE POINT ENERGY     -1339.876070509194

DIPOLE MOMENT
-------------
                                X             Y             Z
Electronic contribution:      6.17169     -11.26266       1.97226
Nuclear contribution   :     -6.26271      11.47571      -1.95800
                        -----------------------------------------
Total Dipole Moment    :     -0.09102       0.21305       0.01426
                        -----------------------------------------
Magnitude (a.u.)       :      0.23212
Magnitude (Debye)      :      0.59001

Rotational constants in cm-1:     0.020962     0.009150     0.007377
Rotational constants in MHz :   628.431384   274.310041   221.162325

                             ****ORCA TERMINATED NORMALLY****
TOTAL RUN TIME: 0 days 0 hours 0 minutes 21 seconds 145 msec
