                         Program Version 4.2.1 -  RELEASE  -
|  1> ! wB97X-D3 SP def2-SVP
|  2> %pal
|  3> nprocs 24
|  4> end
|  5>
|  6> * xyz 0 1
|  7> S 	 -77.298 	 -17.3746 	 -52.9116
|  8> C 	 -78.1931 	 -18.6279 	 -52.0958
|  9> C 	 -79.4028 	 -18.134 	 -51.6269
| 10> C 	 -79.4817 	 -16.7696 	 -51.8523
| 11> C 	 -78.4525 	 -16.202 	 -52.5074
| 12> H 	 -80.2606 	 -16.1221 	 -51.4323
| 13> C 	 -80.3131 	 -18.8093 	 -50.607
| 14> H 	 -80.1301 	 -18.4862 	 -49.6134
| 15> H 	 -80.0274 	 -19.9371 	 -50.5645
| 16> C 	 -81.7764 	 -18.6262 	 -50.7574
| 17> H 	 -82.3439 	 -19.306 	 -50.1411
| 18> H 	 -82.1316 	 -17.6636 	 -50.5526
| 19> C 	 -82.246 	 -18.925 	 -52.1748
| 20> H 	 -82.0197 	 -19.9261 	 -52.6253
| 21> H 	 -83.3541 	 -18.6971 	 -52.2993
| 22> H 	 -81.7975 	 -18.0798 	 -52.7699
| 23> S 	 -78.2257 	 -14.4661 	 -54.5923
| 24> C 	 -78.4556 	 -12.7355 	 -54.4028
| 25> C 	 -78.4739 	 -12.4485 	 -53.072
| 26> C 	 -78.5592 	 -13.596 	 -52.1816
| 27> C 	 -78.4691 	 -14.7898 	 -52.89
| 28> H 	 -78.5693 	 -11.4356 	 -52.798
| 29> C 	 -78.6785 	 -13.3873 	 -50.7141
| 30> H 	 -78.0088 	 -12.6175 	 -50.3414
| 31> H 	 -78.2011 	 -14.2973 	 -50.3062
| 32> C 	 -80.0649 	 -13.2017 	 -50.115
| 33> H 	 -80.5601 	 -14.0918 	 -50.3629
| 34> H 	 -80.5293 	 -12.426 	 -50.8145
| 35> C 	 -79.9986 	 -12.8869 	 -48.5498
| 36> H 	 -79.5135 	 -11.9956 	 -48.3453
| 37> H 	 -79.4043 	 -13.6823 	 -48.0723
| 38> H 	 -80.9879 	 -12.7517 	 -48.117
| 39> H 	 -77.7194 	 -19.5341 	 -51.9263
| 40> H 	 -78.3306 	 -12.0059 	 -55.1873
| 41> *
| 42>
| 43>                          ****END OF INPUT****

CARTESIAN COORDINATES (ANGSTROEM)
---------------------------------
  S    -77.298000  -17.374600  -52.911600
  C    -78.193100  -18.627900  -52.095800
  C    -79.402800  -18.134000  -51.626900
  C    -79.481700  -16.769600  -51.852300
  C    -78.452500  -16.202000  -52.507400
  H    -80.260600  -16.122100  -51.432300
  C    -80.313100  -18.809300  -50.607000
  H    -80.130100  -18.486200  -49.613400
  H    -80.027400  -19.937100  -50.564500
  C    -81.776400  -18.626200  -50.757400
  H    -82.343900  -19.306000  -50.141100
  H    -82.131600  -17.663600  -50.552600
  C    -82.246000  -18.925000  -52.174800
  H    -82.019700  -19.926100  -52.625300
  H    -83.354100  -18.697100  -52.299300
  H    -81.797500  -18.079800  -52.769900
  S    -78.225700  -14.466100  -54.592300
  C    -78.455600  -12.735500  -54.402800
  C    -78.473900  -12.448500  -53.072000
  C    -78.559200  -13.596000  -52.181600
  C    -78.469100  -14.789800  -52.890000
  H    -78.569300  -11.435600  -52.798000
  C    -78.678500  -13.387300  -50.714100
  H    -78.008800  -12.617500  -50.341400
  H    -78.201100  -14.297300  -50.306200
  C    -80.064900  -13.201700  -50.115000
  H    -80.560100  -14.091800  -50.362900
  H    -80.529300  -12.426000  -50.814500
  C    -79.998600  -12.886900  -48.549800
  H    -79.513500  -11.995600  -48.345300
  H    -79.404300  -13.682300  -48.072300
  H    -80.987900  -12.751700  -48.117000
  H    -77.719400  -19.534100  -51.926300
  H    -78.330600  -12.005900  -55.187300

 Total Charge           Charge          ....    0
 Multiplicity           Mult            ....    1
 Number of Electrons    NEL             ....  134
 Basis Dimension        Dim             ....  322

ORBITAL ENERGIES
----------------

  NO   OCC          E(Eh)            E(eV)
   0   2.0000     -88.968413     -2420.9536
   1   2.0000     -88.960185     -2420.7297
   2   2.0000     -10.330150      -281.0977
   3   2.0000     -10.322945      -280.9016
   4   2.0000     -10.314402      -280.6691
   5   2.0000     -10.313700      -280.6500
   6   2.0000     -10.304462      -280.3987
   7   2.0000     -10.301087      -280.3068
   8   2.0000     -10.295222      -280.1472
   9   2.0000     -10.292271      -280.0669
  10   2.0000     -10.289334      -279.9870
  11   2.0000     -10.286291      -279.9042
  12   2.0000     -10.285866      -279.8926
  13   2.0000     -10.283616      -279.8314
  14   2.0000     -10.279532      -279.7203
  15   2.0000     -10.277758      -279.6720
  16   2.0000      -8.084445      -219.9889
  17   2.0000      -8.075295      -219.7399
  18   2.0000      -6.042812      -164.4333
  19   2.0000      -6.038675      -164.3207
  20   2.0000      -6.035364      -164.2306
  21   2.0000      -6.033913      -164.1911
  22   2.0000      -6.029717      -164.0769
  23   2.0000      -6.025934      -163.9740
  24   2.0000      -1.018663       -27.7192
  25   2.0000      -0.989612       -26.9287
  26   2.0000      -0.921789       -25.0832
  27   2.0000      -0.909650       -24.7528
  28   2.0000      -0.874916       -23.8077
  29   2.0000      -0.853392       -23.2220
  30   2.0000      -0.844170       -22.9710
  31   2.0000      -0.818635       -22.2762
  32   2.0000      -0.783296       -21.3146
  33   2.0000      -0.776217       -21.1220
  34   2.0000      -0.712924       -19.3997
  35   2.0000      -0.699246       -19.0275
  36   2.0000      -0.696943       -18.9648
  37   2.0000      -0.663180       -18.0460
  38   2.0000      -0.647256       -17.6127
  39   2.0000      -0.629475       -17.1289
  40   2.0000      -0.596806       -16.2399
  41   2.0000      -0.571510       -15.5516
  42   2.0000      -0.560702       -15.2575
  43   2.0000      -0.558926       -15.2092
  44   2.0000      -0.545460       -14.8427
  45   2.0000      -0.525202       -14.2915
  46   2.0000      -0.524433       -14.2706
  47   2.0000      -0.516816       -14.0633
  48   2.0000      -0.511521       -13.9192
  49   2.0000      -0.503074       -13.6893
  50   2.0000      -0.486980       -13.2514
  51   2.0000      -0.477919       -13.0048
  52   2.0000      -0.475820       -12.9477
  53   2.0000      -0.463334       -12.6080
  54   2.0000      -0.460503       -12.5309
  55   2.0000      -0.448861       -12.2141
  56   2.0000      -0.440989       -11.9999
  57   2.0000      -0.437326       -11.9002
  58   2.0000      -0.431335       -11.7372
  59   2.0000      -0.426749       -11.6124
  60   2.0000      -0.418698       -11.3933
  61   2.0000      -0.411716       -11.2034
  62   2.0000      -0.410825       -11.1791
  63   2.0000      -0.349704        -9.5159
  64   2.0000      -0.335593        -9.1320
  65   2.0000      -0.326094        -8.8735
  66   2.0000      -0.298620        -8.1259
  67   0.0000       0.036691         0.9984
  68   0.0000       0.066816         1.8182
  69   0.0000       0.114653         3.1199
  70   0.0000       0.118518         3.2250
  71   0.0000       0.130581         3.5533

MULLIKEN ATOMIC CHARGES
-----------------------
   0 S :    0.123673
   1 C :   -0.124570
   2 C :   -0.028514
   3 C :   -0.005830
   4 C :   -0.129590
   5 H :    0.011534
   6 C :    0.067027
   7 H :    0.032446
   8 H :    0.029682
   9 C :   -0.044736
  10 H :    0.025553
  11 H :    0.015014
  12 C :   -0.115764
  13 H :    0.050186
  14 H :    0.034549
  15 H :    0.040429
  16 S :    0.086381
  17 C :   -0.084839
  18 C :   -0.016524
  19 C :   -0.038299
  20 C :   -0.155529
  21 H :    0.003809
  22 C :    0.024170
  23 H :    0.019944
  24 H :    0.018605
  25 C :   -0.046909
  26 H :    0.004734
  27 H :    0.031876
  28 C :   -0.011976
  29 H :    0.016671
  30 H :    0.038209
  31 H :    0.040770
  32 H :    0.029364
  33 H :    0.058454
Sum of atomic charges:   -0.0000000

LOEWDIN ATOMIC CHARGES
----------------------
   0 S :    0.437961
   1 C :   -0.177375
   2 C :   -0.063830
   3 C :   -0.067543
   4 C :   -0.218150
   5 H :    0.031253
   6 C :   -0.030506
   7 H :    0.029785
   8 H :    0.039006
   9 C :   -0.045262
  10 H :    0.026581
  11 H :    0.017580
  12 C :   -0.079210
  13 H :    0.028307
  14 H :    0.028669
  15 H :    0.029978
  16 S :    0.394938
  17 C :   -0.181852
  18 C :   -0.064641
  19 C :   -0.060808
  20 C :   -0.184186
  21 H :    0.023115
  22 C :   -0.044497
  23 H :    0.028773
  24 H :    0.029792
  25 C :   -0.035899
  26 H :    0.010479
  27 H :    0.030627
  28 C :   -0.055427
  29 H :    0.016051
  30 H :    0.032720
  31 H :    0.029766
  32 H :    0.012941
  33 H :    0.030867

  Mayer bond orders larger than 0.100000
B(  0-S ,  1-C ) :   1.1642 B(  0-S ,  4-C ) :   1.1640 B(  1-C ,  2-C ) :   1.5556
B(  1-C , 32-H ) :   0.9845 B(  2-C ,  3-C ) :   1.2663 B(  2-C ,  6-C ) :   1.0197
B(  3-C ,  4-C ) :   1.5661 B(  3-C ,  5-H ) :   0.9920 B(  4-C , 20-C ) :   1.0160
B(  6-C ,  7-H ) :   0.9437 B(  6-C ,  8-H ) :   0.9408 B(  6-C ,  9-C ) :   1.0799
B(  9-C , 10-H ) :   0.9510 B(  9-C , 11-H ) :   0.9474 B(  9-C , 12-C ) :   1.0846
B( 12-C , 13-H ) :   0.9765 B( 12-C , 14-H ) :   0.9731 B( 12-C , 15-H ) :   0.9662
B( 16-S , 17-C ) :   1.1377 B( 16-S , 20-C ) :   1.1427 B( 17-C , 18-C ) :   1.6370
B( 17-C , 33-H ) :   0.9676 B( 18-C , 19-C ) :   1.2139 B( 18-C , 21-H ) :   0.9936
B( 19-C , 20-C ) :   1.6102 B( 19-C , 22-C ) :   1.0553 B( 22-C , 23-H ) :   0.9385
B( 22-C , 24-H ) :   0.9228 B( 22-C , 25-C ) :   1.0516 B( 25-C , 26-H ) :   0.9528
B( 25-C , 27-H ) :   0.9569 B( 25-C , 28-C ) :   1.0608 B( 28-C , 29-H ) :   0.9769
B( 28-C , 30-H ) :   0.9744 B( 28-C , 31-H ) :   0.9765

Dispersion correction           -0.014477998
FINAL SINGLE POINT ENERGY     -1339.864028657253

DIPOLE MOMENT
-------------
                                X             Y             Z
Electronic contribution:     18.93511       0.14415     -20.54399
Nuclear contribution   :    -19.16062       0.03255      21.23037
                        -----------------------------------------
Total Dipole Moment    :     -0.22551       0.17670       0.68638
                        -----------------------------------------
Magnitude (a.u.)       :      0.74377
Magnitude (Debye)      :      1.89052

Rotational constants in cm-1:     0.016004     0.009888     0.007392
Rotational constants in MHz :   479.773366   296.429571   221.591688

                             ****ORCA TERMINATED NORMALLY****
TOTAL RUN TIME: 0 days 0 hours 0 minutes 22 seconds 363 msec
