                         Program Version 4.2.1 -  RELEASE  -
|  1> ! wB97X-D3 SP def2-SVP
|  2> %pal
|  3> nprocs 24
|  4> end
|  5>
|  6> * xyz 0 1
|  7> S 	 -59.2432 	 13.3408 	 -107.44
|  8> C 	 -60.4946 	 12.2964 	 -107.815
|  9> C 	 -61.3682 	 12.8045 	 -108.745
| 10> C 	 -60.9667 	 14.1437 	 -109.159
| 11> C 	 -59.8722 	 14.6455 	 -108.472
| 12> H 	 -61.5107 	 14.7089 	 -109.918
| 13> C 	 -62.4056 	 12.0115 	 -109.468
| 14> H 	 -63.2055 	 12.6935 	 -109.66
| 15> H 	 -62.652 	 11.1802 	 -108.81
| 16> C 	 -62.0065 	 11.4215 	 -110.832
| 17> H 	 -61.3887 	 12.1447 	 -111.358
| 18> H 	 -61.2764 	 10.6348 	 -110.713
| 19> C 	 -63.1272 	 10.8388 	 -111.713
| 20> H 	 -63.8819 	 11.5387 	 -112.04
| 21> H 	 -62.8883 	 10.3828 	 -112.676
| 22> H 	 -63.5485 	 10.0286 	 -111.128
| 23> S 	 -57.5959 	 15.9865 	 -107.726
| 24> C 	 -57.2083 	 17.6276 	 -108.279
| 25> C 	 -58.2388 	 18.037 	 -109.135
| 26> C 	 -59.2414 	 17.0248 	 -109.416
| 27> C 	 -59.0864 	 15.8739 	 -108.673
| 28> H 	 -58.2577 	 19.0738 	 -109.5
| 29> C 	 -60.4448 	 17.3084 	 -110.304
| 30> H 	 -60.8059 	 18.3897 	 -110.287
| 31> H 	 -61.3113 	 16.6912 	 -109.948
| 32> C 	 -60.1637 	 16.8887 	 -111.739
| 33> H 	 -59.9399 	 15.8421 	 -111.694
| 34> H 	 -59.242 	 17.3816 	 -111.988
| 35> C 	 -61.3846 	 17.1644 	 -112.722
| 36> H 	 -61.0034 	 17.272 	 -113.724
| 37> H 	 -61.7799 	 18.1881 	 -112.642
| 38> H 	 -62.2281 	 16.4327 	 -112.692
| 39> H 	 -60.4544 	 11.2001 	 -107.51
| 40> H 	 -56.4637 	 18.3499 	 -107.989
| 41> *
| 42>
| 43>                          ****END OF INPUT****

CARTESIAN COORDINATES (ANGSTROEM)
---------------------------------
  S    -59.243200   13.340800  -107.440000
  C    -60.494600   12.296400  -107.815000
  C    -61.368200   12.804500  -108.745000
  C    -60.966700   14.143700  -109.159000
  C    -59.872200   14.645500  -108.472000
  H    -61.510700   14.708900  -109.918000
  C    -62.405600   12.011500  -109.468000
  H    -63.205500   12.693500  -109.660000
  H    -62.652000   11.180200  -108.810000
  C    -62.006500   11.421500  -110.832000
  H    -61.388700   12.144700  -111.358000
  H    -61.276400   10.634800  -110.713000
  C    -63.127200   10.838800  -111.713000
  H    -63.881900   11.538700  -112.040000
  H    -62.888300   10.382800  -112.676000
  H    -63.548500   10.028600  -111.128000
  S    -57.595900   15.986500  -107.726000
  C    -57.208300   17.627600  -108.279000
  C    -58.238800   18.037000  -109.135000
  C    -59.241400   17.024800  -109.416000
  C    -59.086400   15.873900  -108.673000
  H    -58.257700   19.073800  -109.500000
  C    -60.444800   17.308400  -110.304000
  H    -60.805900   18.389700  -110.287000
  H    -61.311300   16.691200  -109.948000
  C    -60.163700   16.888700  -111.739000
  H    -59.939900   15.842100  -111.694000
  H    -59.242000   17.381600  -111.988000
  C    -61.384600   17.164400  -112.722000
  H    -61.003400   17.272000  -113.724000
  H    -61.779900   18.188100  -112.642000
  H    -62.228100   16.432700  -112.692000
  H    -60.454400   11.200100  -107.510000
  H    -56.463700   18.349900  -107.989000

 Total Charge           Charge          ....    0
 Multiplicity           Mult            ....    1
 Number of Electrons    NEL             ....  134
 Basis Dimension        Dim             ....  322

ORBITAL ENERGIES
----------------

  NO   OCC          E(Eh)            E(eV)
   0   2.0000     -88.967247     -2420.9219
   1   2.0000     -88.966696     -2420.9069
   2   2.0000     -10.338977      -281.3379
   3   2.0000     -10.335506      -281.2434
   4   2.0000     -10.323043      -280.9043
   5   2.0000     -10.316130      -280.7162
   6   2.0000     -10.307201      -280.4732
   7   2.0000     -10.302306      -280.3400
   8   2.0000     -10.301657      -280.3223
   9   2.0000     -10.300955      -280.3032
  10   2.0000     -10.297379      -280.2059
  11   2.0000     -10.291217      -280.0383
  12   2.0000     -10.286431      -279.9080
  13   2.0000     -10.286273      -279.9037
  14   2.0000     -10.286247      -279.9030
  15   2.0000     -10.279623      -279.7228
  16   2.0000      -8.083135      -219.9533
  17   2.0000      -8.080624      -219.8850
  18   2.0000      -6.041687      -164.4027
  19   2.0000      -6.039442      -164.3416
  20   2.0000      -6.037473      -164.2880
  21   2.0000      -6.035169      -164.2253
  22   2.0000      -6.033766      -164.1871
  23   2.0000      -6.031159      -164.1162
  24   2.0000      -1.010250       -27.4903
  25   2.0000      -0.985261       -26.8103
  26   2.0000      -0.913989       -24.8709
  27   2.0000      -0.907478       -24.6937
  28   2.0000      -0.871993       -23.7281
  29   2.0000      -0.853574       -23.2269
  30   2.0000      -0.840493       -22.8710
  31   2.0000      -0.819730       -22.3060
  32   2.0000      -0.780903       -21.2495
  33   2.0000      -0.773521       -21.0486
  34   2.0000      -0.711185       -19.3523
  35   2.0000      -0.702908       -19.1271
  36   2.0000      -0.694645       -18.9022
  37   2.0000      -0.668142       -18.1811
  38   2.0000      -0.638314       -17.3694
  39   2.0000      -0.626689       -17.0531
  40   2.0000      -0.591690       -16.1007
  41   2.0000      -0.572348       -15.5744
  42   2.0000      -0.565493       -15.3878
  43   2.0000      -0.559750       -15.2316
  44   2.0000      -0.526715       -14.3326
  45   2.0000      -0.520900       -14.1744
  46   2.0000      -0.516757       -14.0617
  47   2.0000      -0.512098       -13.9349
  48   2.0000      -0.506603       -13.7854
  49   2.0000      -0.502121       -13.6634
  50   2.0000      -0.495192       -13.4749
  51   2.0000      -0.485325       -13.2064
  52   2.0000      -0.474466       -12.9109
  53   2.0000      -0.465768       -12.6742
  54   2.0000      -0.461322       -12.5532
  55   2.0000      -0.452839       -12.3224
  56   2.0000      -0.446862       -12.1597
  57   2.0000      -0.432985       -11.7821
  58   2.0000      -0.430164       -11.7054
  59   2.0000      -0.424676       -11.5560
  60   2.0000      -0.423560       -11.5256
  61   2.0000      -0.417099       -11.3498
  62   2.0000      -0.407829       -11.0976
  63   2.0000      -0.368967       -10.0401
  64   2.0000      -0.334932        -9.1140
  65   2.0000      -0.324846        -8.8395
  66   2.0000      -0.285719        -7.7748
  67   0.0000       0.017162         0.4670
  68   0.0000       0.087057         2.3689
  69   0.0000       0.093086         2.5330
  70   0.0000       0.112632         3.0649
  71   0.0000       0.127313         3.4643

MULLIKEN ATOMIC CHARGES
-----------------------
   0 S :    0.101906
   1 C :   -0.128446
   2 C :   -0.108239
   3 C :   -0.026027
   4 C :   -0.081166
   5 H :    0.014562
   6 C :    0.098725
   7 H :    0.018368
   8 H :    0.022850
   9 C :   -0.062005
  10 H :    0.015777
  11 H :    0.014023
  12 C :   -0.042953
  13 H :    0.027868
  14 H :    0.031108
  15 H :    0.028505
  16 S :    0.079716
  17 C :   -0.071339
  18 C :   -0.053019
  19 C :   -0.065806
  20 C :   -0.094894
  21 H :    0.029388
  22 C :   -0.009222
  23 H :    0.036962
  24 H :    0.028691
  25 C :   -0.047068
  26 H :    0.024635
  27 H :    0.020470
  28 C :   -0.041569
  29 H :    0.027101
  30 H :    0.023204
  31 H :    0.049523
  32 H :    0.079439
  33 H :    0.058931
Sum of atomic charges:   -0.0000000

LOEWDIN ATOMIC CHARGES
----------------------
   0 S :    0.423822
   1 C :   -0.224307
   2 C :   -0.071126
   3 C :   -0.063896
   4 C :   -0.179936
   5 H :    0.028966
   6 C :   -0.027183
   7 H :    0.028473
   8 H :    0.032107
   9 C :   -0.042949
  10 H :    0.019955
  11 H :    0.022451
  12 C :   -0.069378
  13 H :    0.022282
  14 H :    0.030432
  15 H :    0.026279
  16 S :    0.384396
  17 C :   -0.183537
  18 C :   -0.070687
  19 C :   -0.064413
  20 C :   -0.179816
  21 H :    0.034219
  22 C :   -0.039252
  23 H :    0.033881
  24 H :    0.027337
  25 C :   -0.036164
  26 H :    0.022100
  27 H :    0.022558
  28 C :   -0.074655
  29 H :    0.027166
  30 H :    0.026878
  31 H :    0.031295
  32 H :    0.046495
  33 H :    0.036208

  Mayer bond orders larger than 0.100000
B(  0-S ,  1-C ) :   1.1643 B(  0-S ,  4-C ) :   1.1429 B(  1-C ,  2-C ) :   1.6036
B(  1-C , 32-H ) :   0.9522 B(  2-C ,  3-C ) :   1.2500 B(  2-C ,  6-C ) :   1.0525
B(  3-C ,  4-C ) :   1.5618 B(  3-C ,  5-H ) :   0.9840 B(  4-C , 20-C ) :   1.0772
B(  6-C ,  7-H ) :   0.9302 B(  6-C ,  8-H ) :   0.9350 B(  6-C ,  9-C ) :   1.0612
B(  9-C , 10-H ) :   0.9563 B(  9-C , 11-H ) :   0.9518 B(  9-C , 12-C ) :   1.0735
B( 12-C , 13-H ) :   0.9769 B( 12-C , 14-H ) :   0.9737 B( 12-C , 15-H ) :   0.9755
B( 16-S , 17-C ) :   1.1358 B( 16-S , 20-C ) :   1.1193 B( 17-C , 18-C ) :   1.6280
B( 17-C , 33-H ) :   0.9679 B( 18-C , 19-C ) :   1.2357 B( 18-C , 21-H ) :   0.9820
B( 19-C , 20-C ) :   1.6104 B( 19-C , 22-C ) :   1.0376 B( 22-C , 23-H ) :   0.9409
B( 22-C , 24-H ) :   0.9398 B( 22-C , 25-C ) :   1.0558 B( 25-C , 26-H ) :   0.9550
B( 25-C , 27-H ) :   0.9559 B( 25-C , 28-C ) :   1.0655 B( 28-C , 29-H ) :   0.9740
B( 28-C , 30-H ) :   0.9722 B( 28-C , 31-H ) :   0.9769

Dispersion correction           -0.013913917
FINAL SINGLE POINT ENERGY     -1339.875144522633

DIPOLE MOMENT
-------------
                                X             Y             Z
Electronic contribution:     20.70056       3.89287      25.23250
Nuclear contribution   :    -21.06029      -3.83409     -25.83017
                        -----------------------------------------
Total Dipole Moment    :     -0.35973       0.05878      -0.59768
                        -----------------------------------------
Magnitude (a.u.)       :      0.70005
Magnitude (Debye)      :      1.77940

Rotational constants in cm-1:     0.017624     0.009195     0.006297
Rotational constants in MHz :   528.364875   275.671797   188.789806

                             ****ORCA TERMINATED NORMALLY****
TOTAL RUN TIME: 0 days 0 hours 0 minutes 20 seconds 246 msec
