                         Program Version 4.2.1 -  RELEASE  -
|  1> ! wB97X-D3 SP def2-SVP
|  2> %pal
|  3> nprocs 24
|  4> end
|  5>
|  6> * xyz 0 1
|  7> S 	 -100.495 	 14.7989 	 -120.921
|  8> C 	 -98.9522 	 15.4087 	 -121.625
|  9> C 	 -98.1376 	 14.3926 	 -122.088
| 10> C 	 -98.7988 	 13.0966 	 -121.997
| 11> C 	 -100.052 	 13.1393 	 -121.345
| 12> H 	 -98.3549 	 12.1641 	 -122.216
| 13> C 	 -96.6566 	 14.6085 	 -122.577
| 14> H 	 -95.9861 	 14.027 	 -121.946
| 15> H 	 -96.3627 	 15.6672 	 -122.467
| 16> C 	 -96.4818 	 14.2106 	 -124.051
| 17> H 	 -96.5049 	 13.1054 	 -124.159
| 18> H 	 -97.3397 	 14.5829 	 -124.653
| 19> C 	 -95.2353 	 14.7766 	 -124.775
| 20> H 	 -95.1743 	 14.3954 	 -125.795
| 21> H 	 -95.3016 	 15.8564 	 -124.88
| 22> H 	 -94.2314 	 14.4658 	 -124.449
| 23> S 	 -102.299 	 11.6532 	 -121.788
| 24> C 	 -102.431 	 9.96881 	 -121.119
| 25> C 	 -101.523 	 9.85086 	 -120.105
| 26> C 	 -100.604 	 10.9528 	 -119.971
| 27> C 	 -100.81 	 11.9443 	 -120.898
| 28> H 	 -101.461 	 8.98108 	 -119.46
| 29> C 	 -99.4679 	 10.9508 	 -119.037
| 30> H 	 -99.3618 	 11.8299 	 -118.367
| 31> H 	 -98.5859 	 10.9671 	 -119.676
| 32> C 	 -99.2235 	 9.67744 	 -118.196
| 33> H 	 -99.3942 	 8.82913 	 -118.819
| 34> H 	 -99.9662 	 9.76798 	 -117.39
| 35> C 	 -97.9003 	 9.77541 	 -117.437
| 36> H 	 -97.7645 	 8.83288 	 -116.944
| 37> H 	 -97.8366 	 10.6298 	 -116.727
| 38> H 	 -97.1113 	 9.77443 	 -118.082
| 39> H 	 -98.5876 	 16.3692 	 -121.741
| 40> H 	 -103.127 	 9.29815 	 -121.35
| 41> *
| 42>
| 43>                          ****END OF INPUT****

CARTESIAN COORDINATES (ANGSTROEM)
---------------------------------
  S    -100.495000   14.798900  -120.921000
  C    -98.952200   15.408700  -121.625000
  C    -98.137600   14.392600  -122.088000
  C    -98.798800   13.096600  -121.997000
  C    -100.052000   13.139300  -121.345000
  H    -98.354900   12.164100  -122.216000
  C    -96.656600   14.608500  -122.577000
  H    -95.986100   14.027000  -121.946000
  H    -96.362700   15.667200  -122.467000
  C    -96.481800   14.210600  -124.051000
  H    -96.504900   13.105400  -124.159000
  H    -97.339700   14.582900  -124.653000
  C    -95.235300   14.776600  -124.775000
  H    -95.174300   14.395400  -125.795000
  H    -95.301600   15.856400  -124.880000
  H    -94.231400   14.465800  -124.449000
  S    -102.299000   11.653200  -121.788000
  C    -102.431000    9.968810  -121.119000
  C    -101.523000    9.850860  -120.105000
  C    -100.604000   10.952800  -119.971000
  C    -100.810000   11.944300  -120.898000
  H    -101.461000    8.981080  -119.460000
  C    -99.467900   10.950800  -119.037000
  H    -99.361800   11.829900  -118.367000
  H    -98.585900   10.967100  -119.676000
  C    -99.223500    9.677440  -118.196000
  H    -99.394200    8.829130  -118.819000
  H    -99.966200    9.767980  -117.390000
  C    -97.900300    9.775410  -117.437000
  H    -97.764500    8.832880  -116.944000
  H    -97.836600   10.629800  -116.727000
  H    -97.111300    9.774430  -118.082000
  H    -98.587600   16.369200  -121.741000
  H    -103.127000    9.298150  -121.350000

 Total Charge           Charge          ....    0
 Multiplicity           Mult            ....    1
 Number of Electrons    NEL             ....  134
 Basis Dimension        Dim             ....  322

ORBITAL ENERGIES
----------------

  NO   OCC          E(Eh)            E(eV)
   0   2.0000     -88.970541     -2421.0115
   1   2.0000     -88.959347     -2420.7069
   2   2.0000     -10.337204      -281.2896
   3   2.0000     -10.325940      -280.9831
   4   2.0000     -10.314725      -280.6779
   5   2.0000     -10.313002      -280.6310
   6   2.0000     -10.307564      -280.4831
   7   2.0000     -10.302330      -280.3407
   8   2.0000     -10.302079      -280.3338
   9   2.0000     -10.298739      -280.2429
  10   2.0000     -10.295657      -280.1591
  11   2.0000     -10.293583      -280.1026
  12   2.0000     -10.285917      -279.8940
  13   2.0000     -10.285539      -279.8837
  14   2.0000     -10.280944      -279.7587
  15   2.0000     -10.273535      -279.5571
  16   2.0000      -8.083682      -219.9682
  17   2.0000      -8.073395      -219.6882
  18   2.0000      -6.042408      -164.4223
  19   2.0000      -6.038449      -164.3146
  20   2.0000      -6.034261      -164.2006
  21   2.0000      -6.032113      -164.1421
  22   2.0000      -6.028018      -164.0307
  23   2.0000      -6.023945      -163.9199
  24   2.0000      -0.998374       -27.1671
  25   2.0000      -0.974765       -26.5247
  26   2.0000      -0.913547       -24.8589
  27   2.0000      -0.904523       -24.6133
  28   2.0000      -0.867950       -23.6181
  29   2.0000      -0.851034       -23.1578
  30   2.0000      -0.841178       -22.8896
  31   2.0000      -0.816261       -22.2116
  32   2.0000      -0.782729       -21.2991
  33   2.0000      -0.774026       -21.0623
  34   2.0000      -0.709596       -19.3091
  35   2.0000      -0.708248       -19.2724
  36   2.0000      -0.693503       -18.8712
  37   2.0000      -0.656490       -17.8640
  38   2.0000      -0.640692       -17.4341
  39   2.0000      -0.614411       -16.7190
  40   2.0000      -0.606611       -16.5067
  41   2.0000      -0.579483       -15.7685
  42   2.0000      -0.569324       -15.4921
  43   2.0000      -0.561249       -15.2724
  44   2.0000      -0.529895       -14.4192
  45   2.0000      -0.516926       -14.0663
  46   2.0000      -0.514066       -13.9884
  47   2.0000      -0.507856       -13.8195
  48   2.0000      -0.504940       -13.7401
  49   2.0000      -0.502424       -13.6717
  50   2.0000      -0.494960       -13.4685
  51   2.0000      -0.484714       -13.1897
  52   2.0000      -0.468400       -12.7458
  53   2.0000      -0.465127       -12.6568
  54   2.0000      -0.461934       -12.5699
  55   2.0000      -0.453472       -12.3396
  56   2.0000      -0.446301       -12.1445
  57   2.0000      -0.434067       -11.8116
  58   2.0000      -0.429121       -11.6770
  59   2.0000      -0.426183       -11.5970
  60   2.0000      -0.419262       -11.4087
  61   2.0000      -0.416466       -11.3326
  62   2.0000      -0.408327       -11.1111
  63   2.0000      -0.336591        -9.1591
  64   2.0000      -0.331489        -9.0203
  65   2.0000      -0.319201        -8.6859
  66   2.0000      -0.304836        -8.2950
  67   0.0000       0.037661         1.0248
  68   0.0000       0.052176         1.4198
  69   0.0000       0.108687         2.9575
  70   0.0000       0.114417         3.1134
  71   0.0000       0.128881         3.5070

MULLIKEN ATOMIC CHARGES
-----------------------
   0 S :    0.117244
   1 C :   -0.077320
   2 C :   -0.113945
   3 C :    0.069383
   4 C :   -0.155654
   5 H :    0.001155
   6 C :    0.091417
   7 H :    0.039048
   8 H :    0.018694
   9 C :   -0.110716
  10 H :    0.037131
  11 H :    0.042652
  12 C :   -0.055593
  13 H :    0.025594
  14 H :    0.035951
  15 H :    0.028411
  16 S :    0.081885
  17 C :   -0.022314
  18 C :   -0.040626
  19 C :   -0.003354
  20 C :   -0.177707
  21 H :    0.026117
  22 C :    0.035010
  23 H :    0.041701
  24 H :    0.018643
  25 C :   -0.116476
  26 H :    0.034627
  27 H :    0.031574
  28 C :    0.017031
  29 H :    0.021306
  30 H :    0.044858
  31 H :    0.000396
  32 H :    0.010784
  33 H :    0.003094
Sum of atomic charges:    0.0000000

LOEWDIN ATOMIC CHARGES
----------------------
   0 S :    0.382955
   1 C :   -0.177450
   2 C :   -0.054414
   3 C :   -0.050526
   4 C :   -0.191141
   5 H :    0.022845
   6 C :   -0.024983
   7 H :    0.032046
   8 H :    0.029607
   9 C :   -0.048148
  10 H :    0.025381
  11 H :    0.032384
  12 C :   -0.075001
  13 H :    0.029277
  14 H :    0.024428
  15 H :    0.024298
  16 S :    0.373437
  17 C :   -0.136419
  18 C :   -0.067391
  19 C :   -0.057238
  20 C :   -0.194671
  21 H :    0.032077
  22 C :   -0.041411
  23 H :    0.037094
  24 H :    0.032543
  25 C :   -0.039348
  26 H :    0.018689
  27 H :    0.025979
  28 C :   -0.053327
  29 H :    0.027997
  30 H :    0.034746
  31 H :    0.008825
  32 H :    0.014535
  33 H :    0.002324

  Mayer bond orders larger than 0.100000
B(  0-S ,  1-C ) :   1.1153 B(  0-S ,  4-C ) :   1.1401 B(  1-C ,  2-C ) :   1.6593
B(  1-C , 32-H ) :   0.9676 B(  2-C ,  3-C ) :   1.2122 B(  2-C ,  6-C ) :   1.0194
B(  3-C ,  4-C ) :   1.6003 B(  3-C ,  5-H ) :   0.9935 B(  4-C , 20-C ) :   1.0086
B(  6-C ,  7-H ) :   0.9409 B(  6-C ,  8-H ) :   0.9469 B(  6-C ,  9-C ) :   1.0498
B(  9-C , 10-H ) :   0.9560 B(  9-C , 11-H ) :   0.9586 B(  9-C , 12-C ) :   1.0892
B( 12-C , 13-H ) :   0.9715 B( 12-C , 14-H ) :   0.9756 B( 12-C , 15-H ) :   0.9740
B( 16-S , 17-C ) :   1.1362 B( 16-S , 20-C ) :   1.1304 B( 17-C , 18-C ) :   1.6125
B( 17-C , 33-H ) :   0.9842 B( 18-C , 19-C ) :   1.2322 B( 18-C , 21-H ) :   0.9800
B( 19-C , 20-C ) :   1.6259 B( 19-C , 22-C ) :   1.0380 B( 22-C , 23-H ) :   0.9307
B( 22-C , 24-H ) :   0.9280 B( 22-C , 25-C ) :   1.0827 B( 25-C , 26-H ) :   0.9494
B( 25-C , 27-H ) :   0.9525 B( 25-C , 28-C ) :   1.0863 B( 28-C , 29-H ) :   0.9668
B( 28-C , 30-H ) :   0.9727 B( 28-C , 31-H ) :   0.9709

Dispersion correction           -0.013387231
FINAL SINGLE POINT ENERGY     -1339.855885199270

DIPOLE MOMENT
-------------
                                X             Y             Z
Electronic contribution:    -26.93145       5.71681      -1.42114
Nuclear contribution   :     27.70454      -6.10642       1.55796
                        -----------------------------------------
Total Dipole Moment    :      0.77309      -0.38961       0.13681
                        -----------------------------------------
Magnitude (a.u.)       :      0.87646
Magnitude (Debye)      :      2.22777

Rotational constants in cm-1:     0.017126     0.007507     0.006324
Rotational constants in MHz :   513.422993   225.049538   189.588348

                             ****ORCA TERMINATED NORMALLY****
TOTAL RUN TIME: 0 days 0 hours 0 minutes 20 seconds 574 msec
