                         Program Version 4.2.1 -  RELEASE  -
|  1> ! wB97X-D3 SP def2-SVP
|  2> %pal
|  3> nprocs 24
|  4> end
|  5>
|  6> * xyz 0 1
|  7> S 	 -122.115 	 66.9296 	 -41.1231
|  8> C 	 -121.712 	 68.6459 	 -40.8409
|  9> C 	 -121.263 	 69.2253 	 -41.9817
| 10> C 	 -121.255 	 68.3293 	 -43.0841
| 11> C 	 -121.794 	 67.119 	 -42.8228
| 12> H 	 -120.984 	 68.698 	 -44.0663
| 13> C 	 -120.869 	 70.7176 	 -42.0706
| 14> H 	 -120.167 	 70.7574 	 -42.9048
| 15> H 	 -120.34 	 71.0417 	 -41.1692
| 16> C 	 -121.931 	 71.7791 	 -42.4623
| 17> H 	 -121.389 	 72.7493 	 -42.3989
| 18> H 	 -122.286 	 71.6618 	 -43.4968
| 19> C 	 -123.157 	 71.6959 	 -41.4763
| 20> H 	 -123.763 	 72.5925 	 -41.514
| 21> H 	 -123.678 	 70.8044 	 -41.5668
| 22> H 	 -122.649 	 71.7906 	 -40.5175
| 23> S 	 -121.166 	 64.6579 	 -43.9013
| 24> C 	 -122.192 	 64.0787 	 -45.2816
| 25> C 	 -123.116 	 65.0481 	 -45.6994
| 26> C 	 -123.182 	 66.1893 	 -44.8216
| 27> C 	 -122.19 	 66.0995 	 -43.8326
| 28> H 	 -123.738 	 64.8452 	 -46.5314
| 29> C 	 -124.092 	 67.3934 	 -45.1589
| 30> H 	 -123.814 	 68.2378 	 -44.5125
| 31> H 	 -125.166 	 67.0963 	 -44.9339
| 32> C 	 -124.094 	 67.9088 	 -46.6476
| 33> H 	 -124.841 	 68.7696 	 -46.6949
| 34> H 	 -124.426 	 67.179 	 -47.3697
| 35> C 	 -122.786 	 68.6719 	 -47.0035
| 36> H 	 -121.98 	 67.9545 	 -47.0715
| 37> H 	 -122.65 	 69.5344 	 -46.355
| 38> H 	 -122.835 	 69.0773 	 -48.008
| 39> H 	 -121.899 	 69.1105 	 -39.8894
| 40> H 	 -122.032 	 63.0937 	 -45.7974
| 41> *
| 42>
| 43>                          ****END OF INPUT****

CARTESIAN COORDINATES (ANGSTROEM)
---------------------------------
  S    -122.115000   66.929600  -41.123100
  C    -121.712000   68.645900  -40.840900
  C    -121.263000   69.225300  -41.981700
  C    -121.255000   68.329300  -43.084100
  C    -121.794000   67.119000  -42.822800
  H    -120.984000   68.698000  -44.066300
  C    -120.869000   70.717600  -42.070600
  H    -120.167000   70.757400  -42.904800
  H    -120.340000   71.041700  -41.169200
  C    -121.931000   71.779100  -42.462300
  H    -121.389000   72.749300  -42.398900
  H    -122.286000   71.661800  -43.496800
  C    -123.157000   71.695900  -41.476300
  H    -123.763000   72.592500  -41.514000
  H    -123.678000   70.804400  -41.566800
  H    -122.649000   71.790600  -40.517500
  S    -121.166000   64.657900  -43.901300
  C    -122.192000   64.078700  -45.281600
  C    -123.116000   65.048100  -45.699400
  C    -123.182000   66.189300  -44.821600
  C    -122.190000   66.099500  -43.832600
  H    -123.738000   64.845200  -46.531400
  C    -124.092000   67.393400  -45.158900
  H    -123.814000   68.237800  -44.512500
  H    -125.166000   67.096300  -44.933900
  C    -124.094000   67.908800  -46.647600
  H    -124.841000   68.769600  -46.694900
  H    -124.426000   67.179000  -47.369700
  C    -122.786000   68.671900  -47.003500
  H    -121.980000   67.954500  -47.071500
  H    -122.650000   69.534400  -46.355000
  H    -122.835000   69.077300  -48.008000
  H    -121.899000   69.110500  -39.889400
  H    -122.032000   63.093700  -45.797400

 Total Charge           Charge          ....    0
 Multiplicity           Mult            ....    1
 Number of Electrons    NEL             ....  134
 Basis Dimension        Dim             ....  322

ORBITAL ENERGIES
----------------

  NO   OCC          E(Eh)            E(eV)
   0   2.0000     -88.968823     -2420.9648
   1   2.0000     -88.961702     -2420.7710
   2   2.0000     -10.331498      -281.1343
   3   2.0000     -10.327969      -281.0383
   4   2.0000     -10.325789      -280.9790
   5   2.0000     -10.312064      -280.6055
   6   2.0000     -10.311068      -280.5784
   7   2.0000     -10.303664      -280.3769
   8   2.0000     -10.297863      -280.2191
   9   2.0000     -10.297719      -280.2152
  10   2.0000     -10.297403      -280.2066
  11   2.0000     -10.295217      -280.1471
  12   2.0000     -10.294679      -280.1324
  13   2.0000     -10.289874      -280.0017
  14   2.0000     -10.278151      -279.6827
  15   2.0000     -10.272748      -279.5357
  16   2.0000      -8.082174      -219.9271
  17   2.0000      -8.076563      -219.7744
  18   2.0000      -6.040712      -164.3761
  19   2.0000      -6.037035      -164.2761
  20   2.0000      -6.035082      -164.2229
  21   2.0000      -6.032832      -164.1617
  22   2.0000      -6.031130      -164.1154
  23   2.0000      -6.027215      -164.0089
  24   2.0000      -1.002906       -27.2905
  25   2.0000      -0.976028       -26.5591
  26   2.0000      -0.906293       -24.6615
  27   2.0000      -0.899348       -24.4725
  28   2.0000      -0.862428       -23.4678
  29   2.0000      -0.845922       -23.0187
  30   2.0000      -0.843491       -22.9526
  31   2.0000      -0.811088       -22.0708
  32   2.0000      -0.784429       -21.3454
  33   2.0000      -0.772951       -21.0331
  34   2.0000      -0.704393       -19.1675
  35   2.0000      -0.694873       -18.9085
  36   2.0000      -0.689338       -18.7578
  37   2.0000      -0.657165       -17.8824
  38   2.0000      -0.640216       -17.4212
  39   2.0000      -0.621194       -16.9035
  40   2.0000      -0.591987       -16.1088
  41   2.0000      -0.566279       -15.4092
  42   2.0000      -0.551176       -14.9982
  43   2.0000      -0.547846       -14.9076
  44   2.0000      -0.542380       -14.7589
  45   2.0000      -0.539976       -14.6935
  46   2.0000      -0.516876       -14.0649
  47   2.0000      -0.512757       -13.9528
  48   2.0000      -0.495361       -13.4794
  49   2.0000      -0.493126       -13.4187
  50   2.0000      -0.489132       -13.3100
  51   2.0000      -0.472308       -12.8522
  52   2.0000      -0.468440       -12.7469
  53   2.0000      -0.465069       -12.6552
  54   2.0000      -0.460903       -12.5418
  55   2.0000      -0.449704       -12.2371
  56   2.0000      -0.444943       -12.1075
  57   2.0000      -0.437510       -11.9053
  58   2.0000      -0.431788       -11.7495
  59   2.0000      -0.428694       -11.6653
  60   2.0000      -0.422046       -11.4844
  61   2.0000      -0.411619       -11.2007
  62   2.0000      -0.410066       -11.1585
  63   2.0000      -0.337352        -9.1798
  64   2.0000      -0.331219        -9.0129
  65   2.0000      -0.325574        -8.8593
  66   2.0000      -0.304191        -8.2775
  67   0.0000       0.039339         1.0705
  68   0.0000       0.057230         1.5573
  69   0.0000       0.102304         2.7838
  70   0.0000       0.115731         3.1492
  71   0.0000       0.122482         3.3329

MULLIKEN ATOMIC CHARGES
-----------------------
   0 S :    0.101037
   1 C :   -0.140829
   2 C :   -0.080392
   3 C :    0.059139
   4 C :   -0.154453
   5 H :    0.004020
   6 C :    0.042926
   7 H :    0.019349
   8 H :    0.037651
   9 C :   -0.088191
  10 H :    0.039527
  11 H :    0.029254
  12 C :   -0.029779
  13 H :    0.032094
  14 H :    0.047407
  15 H :    0.012287
  16 S :    0.106938
  17 C :   -0.117698
  18 C :   -0.026484
  19 C :    0.003711
  20 C :   -0.185222
  21 H :    0.011476
  22 C :    0.050570
  23 H :    0.031942
  24 H :    0.050465
  25 C :   -0.110604
  26 H :    0.036660
  27 H :    0.036238
  28 C :   -0.043874
  29 H :    0.040457
  30 H :    0.035698
  31 H :    0.026288
  32 H :    0.045992
  33 H :    0.076399
Sum of atomic charges:   -0.0000000

LOEWDIN ATOMIC CHARGES
----------------------
   0 S :    0.388650
   1 C :   -0.176820
   2 C :   -0.068996
   3 C :   -0.061586
   4 C :   -0.199109
   5 H :    0.031217
   6 C :   -0.032492
   7 H :    0.030053
   8 H :    0.031144
   9 C :   -0.036764
  10 H :    0.029704
  11 H :    0.018444
  12 C :   -0.059329
  13 H :    0.025310
  14 H :    0.017786
  15 H :    0.023381
  16 S :    0.376768
  17 C :   -0.173152
  18 C :   -0.064760
  19 C :   -0.053347
  20 C :   -0.192292
  21 H :    0.025823
  22 C :   -0.032854
  23 H :    0.031253
  24 H :    0.041298
  25 C :   -0.042533
  26 H :    0.033282
  27 H :    0.018840
  28 C :   -0.066417
  29 H :    0.024199
  30 H :    0.025106
  31 H :    0.025562
  32 H :    0.024548
  33 H :    0.038083

  Mayer bond orders larger than 0.100000
B(  0-S ,  1-C ) :   1.1271 B(  0-S ,  4-C ) :   1.1533 B(  1-C ,  2-C ) :   1.6254
B(  1-C , 32-H ) :   0.9762 B(  2-C ,  3-C ) :   1.2358 B(  2-C ,  6-C ) :   1.0114
B(  3-C ,  4-C ) :   1.5949 B(  3-C ,  5-H ) :   0.9999 B(  4-C , 20-C ) :   0.9873
B(  6-C ,  7-H ) :   0.9375 B(  6-C ,  8-H ) :   0.9485 B(  6-C ,  9-C ) :   1.0721
B(  9-C , 10-H ) :   0.9561 B(  9-C , 11-H ) :   0.9588 B(  9-C , 12-C ) :   1.0670
B( 12-C , 13-H ) :   0.9748 B( 12-C , 14-H ) :   0.9767 B( 12-C , 15-H ) :   0.9753
B( 16-S , 17-C ) :   1.1309 B( 16-S , 20-C ) :   1.1515 B( 17-C , 18-C ) :   1.6383
B( 17-C , 33-H ) :   0.9611 B( 18-C , 19-C ) :   1.2081 B( 18-C , 21-H ) :   0.9899
B( 19-C , 20-C ) :   1.6184 B( 19-C , 22-C ) :   1.0366 B( 22-C , 23-H ) :   0.9393
B( 22-C , 24-H ) :   0.9324 B( 22-C , 25-C ) :   1.0712 B( 25-C , 26-H ) :   0.9572
B( 25-C , 27-H ) :   0.9562 B( 25-C , 28-C ) :   1.0711 B( 28-C , 29-H ) :   0.9771
B( 28-C , 30-H ) :   0.9734 B( 28-C , 31-H ) :   0.9721

Dispersion correction           -0.015444767
FINAL SINGLE POINT ENERGY     -1339.876997224712

DIPOLE MOMENT
-------------
                                X             Y             Z
Electronic contribution:      7.78868     -26.54985      10.70415
Nuclear contribution   :     -8.02270      27.18080     -11.20594
                        -----------------------------------------
Total Dipole Moment    :     -0.23401       0.63095      -0.50179
                        -----------------------------------------
Magnitude (a.u.)       :      0.83943
Magnitude (Debye)      :      2.13367

Rotational constants in cm-1:     0.018801     0.009583     0.007158
Rotational constants in MHz :   563.629340   287.293613   214.582709

                             ****ORCA TERMINATED NORMALLY****
TOTAL RUN TIME: 0 days 0 hours 0 minutes 22 seconds 757 msec
