                         Program Version 4.2.1 -  RELEASE  -
|  1> ! wB97X-D3 SP def2-SVP
|  2> %pal
|  3> nprocs 24
|  4> end
|  5>
|  6> * xyz 0 1
|  7> S 	 -74.2173 	 0.281846 	 -63.3266
|  8> C 	 -74.4608 	 1.98578 	 -63.4376
|  9> C 	 -75.2926 	 2.42476 	 -62.4535
| 10> C 	 -75.734 	 1.38265 	 -61.5638
| 11> C 	 -75.1184 	 0.179154 	 -61.8054
| 12> H 	 -76.4056 	 1.57605 	 -60.7477
| 13> C 	 -75.8641 	 3.80901 	 -62.3566
| 14> H 	 -75.0322 	 4.48641 	 -62.2115
| 15> H 	 -76.5503 	 3.78147 	 -61.4656
| 16> C 	 -76.7666 	 4.12698 	 -63.5436
| 17> H 	 -76.2975 	 3.94695 	 -64.483
| 18> H 	 -77.5721 	 3.41874 	 -63.5063
| 19> C 	 -77.3368 	 5.52347 	 -63.4922
| 20> H 	 -77.8484 	 5.64653 	 -62.5325
| 21> H 	 -76.5407 	 6.23478 	 -63.4522
| 22> H 	 -78.1018 	 5.69946 	 -64.239
| 23> S 	 -73.9185 	 -1.78338 	 -60.2837
| 24> C 	 -74.9726 	 -3.069 	 -59.6304
| 25> C 	 -76.306 	 -2.7696 	 -59.9083
| 26> C 	 -76.509 	 -1.75537 	 -60.8568
| 27> C 	 -75.3347 	 -1.04994 	 -61.0715
| 28> H 	 -76.9751 	 -3.43728 	 -59.4753
| 29> C 	 -77.8177 	 -1.52389 	 -61.4483
| 30> H 	 -78.0261 	 -2.37042 	 -62.0597
| 31> H 	 -77.8104 	 -0.626317 	 -62.0743
| 32> C 	 -78.9988 	 -1.48882 	 -60.4735
| 33> H 	 -78.6566 	 -1.06105 	 -59.476
| 34> H 	 -79.3239 	 -2.51418 	 -60.1316
| 35> C 	 -80.1845 	 -0.611742 	 -60.8965
| 36> H 	 -80.7004 	 -0.974919 	 -61.8057
| 37> H 	 -79.8686 	 0.399764 	 -61.2401
| 38> H 	 -80.8076 	 -0.388384 	 -60.0496
| 39> H 	 -73.9609 	 2.64661 	 -64.1288
| 40> H 	 -74.6556 	 -3.86512 	 -58.9562
| 41> *
| 42>
| 43>                          ****END OF INPUT****

CARTESIAN COORDINATES (ANGSTROEM)
---------------------------------
  S    -74.217300    0.281846  -63.326600
  C    -74.460800    1.985780  -63.437600
  C    -75.292600    2.424760  -62.453500
  C    -75.734000    1.382650  -61.563800
  C    -75.118400    0.179154  -61.805400
  H    -76.405600    1.576050  -60.747700
  C    -75.864100    3.809010  -62.356600
  H    -75.032200    4.486410  -62.211500
  H    -76.550300    3.781470  -61.465600
  C    -76.766600    4.126980  -63.543600
  H    -76.297500    3.946950  -64.483000
  H    -77.572100    3.418740  -63.506300
  C    -77.336800    5.523470  -63.492200
  H    -77.848400    5.646530  -62.532500
  H    -76.540700    6.234780  -63.452200
  H    -78.101800    5.699460  -64.239000
  S    -73.918500   -1.783380  -60.283700
  C    -74.972600   -3.069000  -59.630400
  C    -76.306000   -2.769600  -59.908300
  C    -76.509000   -1.755370  -60.856800
  C    -75.334700   -1.049940  -61.071500
  H    -76.975100   -3.437280  -59.475300
  C    -77.817700   -1.523890  -61.448300
  H    -78.026100   -2.370420  -62.059700
  H    -77.810400   -0.626317  -62.074300
  C    -78.998800   -1.488820  -60.473500
  H    -78.656600   -1.061050  -59.476000
  H    -79.323900   -2.514180  -60.131600
  C    -80.184500   -0.611742  -60.896500
  H    -80.700400   -0.974919  -61.805700
  H    -79.868600    0.399764  -61.240100
  H    -80.807600   -0.388384  -60.049600
  H    -73.960900    2.646610  -64.128800
  H    -74.655600   -3.865120  -58.956200

 Total Charge           Charge          ....    0
 Multiplicity           Mult            ....    1
 Number of Electrons    NEL             ....  134
 Basis Dimension        Dim             ....  322

ORBITAL ENERGIES
----------------

  NO   OCC          E(Eh)            E(eV)
   0   2.0000     -88.964525     -2420.8478
   1   2.0000     -88.962719     -2420.7986
   2   2.0000     -10.326175      -280.9895
   3   2.0000     -10.324848      -280.9534
   4   2.0000     -10.321087      -280.8511
   5   2.0000     -10.308116      -280.4981
   6   2.0000     -10.300619      -280.2941
   7   2.0000     -10.296577      -280.1841
   8   2.0000     -10.292947      -280.0853
   9   2.0000     -10.291884      -280.0564
  10   2.0000     -10.291477      -280.0453
  11   2.0000     -10.287757      -279.9441
  12   2.0000     -10.285929      -279.8944
  13   2.0000     -10.283984      -279.8414
  14   2.0000     -10.278350      -279.6881
  15   2.0000     -10.273326      -279.5514
  16   2.0000      -8.078313      -219.8221
  17   2.0000      -8.077667      -219.8045
  18   2.0000      -6.036845      -164.2709
  19   2.0000      -6.036233      -164.2542
  20   2.0000      -6.033010      -164.1666
  21   2.0000      -6.032142      -164.1429
  22   2.0000      -6.029044      -164.0586
  23   2.0000      -6.028348      -164.0397
  24   2.0000      -1.005482       -27.3606
  25   2.0000      -0.984224       -26.7821
  26   2.0000      -0.917147       -24.9568
  27   2.0000      -0.912904       -24.8414
  28   2.0000      -0.870623       -23.6909
  29   2.0000      -0.853035       -23.2123
  30   2.0000      -0.849185       -23.1075
  31   2.0000      -0.815624       -22.1943
  32   2.0000      -0.783421       -21.3180
  33   2.0000      -0.769646       -20.9431
  34   2.0000      -0.706751       -19.2317
  35   2.0000      -0.703672       -19.1479
  36   2.0000      -0.698467       -19.0062
  37   2.0000      -0.658929       -17.9304
  38   2.0000      -0.641370       -17.4526
  39   2.0000      -0.620527       -16.8854
  40   2.0000      -0.600133       -16.3304
  41   2.0000      -0.574334       -15.6284
  42   2.0000      -0.568164       -15.4605
  43   2.0000      -0.559142       -15.2150
  44   2.0000      -0.534565       -14.5463
  45   2.0000      -0.530863       -14.4455
  46   2.0000      -0.527052       -14.3418
  47   2.0000      -0.510008       -13.8780
  48   2.0000      -0.504559       -13.7298
  49   2.0000      -0.496328       -13.5058
  50   2.0000      -0.488615       -13.2959
  51   2.0000      -0.481226       -13.0948
  52   2.0000      -0.472627       -12.8608
  53   2.0000      -0.467013       -12.7081
  54   2.0000      -0.459766       -12.5109
  55   2.0000      -0.447425       -12.1751
  56   2.0000      -0.440630       -11.9902
  57   2.0000      -0.439235       -11.9522
  58   2.0000      -0.436609       -11.8807
  59   2.0000      -0.430238       -11.7074
  60   2.0000      -0.419373       -11.4117
  61   2.0000      -0.417968       -11.3735
  62   2.0000      -0.408351       -11.1118
  63   2.0000      -0.337888        -9.1944
  64   2.0000      -0.329408        -8.9637
  65   2.0000      -0.325043        -8.8449
  66   2.0000      -0.298559        -8.1242
  67   0.0000       0.033052         0.8994
  68   0.0000       0.063858         1.7377
  69   0.0000       0.114175         3.1069
  70   0.0000       0.118045         3.2122
  71   0.0000       0.127761         3.4766

MULLIKEN ATOMIC CHARGES
-----------------------
   0 S :    0.114171
   1 C :   -0.121308
   2 C :   -0.106354
   3 C :    0.042383
   4 C :   -0.155884
   5 H :    0.008445
   6 C :    0.060596
   7 H :    0.035177
   8 H :    0.020523
   9 C :   -0.063533
  10 H :    0.018614
  11 H :    0.013343
  12 C :   -0.003594
  13 H :    0.011940
  14 H :    0.020614
  15 H :    0.038038
  16 S :    0.105136
  17 C :   -0.102396
  18 C :   -0.024746
  19 C :   -0.008849
  20 C :   -0.187975
  21 H :   -0.004730
  22 C :    0.144359
  23 H :    0.032363
  24 H :    0.022945
  25 C :   -0.145206
  26 H :    0.032100
  27 H :    0.037414
  28 C :   -0.041453
  29 H :    0.038797
  30 H :    0.021435
  31 H :    0.038420
  32 H :    0.045457
  33 H :    0.063758
Sum of atomic charges:    0.0000000

LOEWDIN ATOMIC CHARGES
----------------------
   0 S :    0.405812
   1 C :   -0.202467
   2 C :   -0.068521
   3 C :   -0.056553
   4 C :   -0.193886
   5 H :    0.029344
   6 C :   -0.029386
   7 H :    0.029211
   8 H :    0.033454
   9 C :   -0.037341
  10 H :    0.016088
  11 H :    0.022517
  12 C :   -0.060899
  13 H :    0.024174
  14 H :    0.020584
  15 H :    0.027334
  16 S :    0.381296
  17 C :   -0.170409
  18 C :   -0.063183
  19 C :   -0.049546
  20 C :   -0.193775
  21 H :    0.020697
  22 C :   -0.031666
  23 H :    0.038215
  24 H :    0.032842
  25 C :   -0.049338
  26 H :    0.026892
  27 H :    0.026396
  28 C :   -0.069649
  29 H :    0.027671
  30 H :    0.026384
  31 H :    0.027209
  32 H :    0.028748
  33 H :    0.031746

  Mayer bond orders larger than 0.100000
B(  0-S ,  1-C ) :   1.1373 B(  0-S ,  4-C ) :   1.1494 B(  1-C ,  2-C ) :   1.6118
B(  1-C , 32-H ) :   0.9691 B(  2-C ,  3-C ) :   1.2528 B(  2-C ,  6-C ) :   1.0210
B(  3-C ,  4-C ) :   1.5675 B(  3-C ,  5-H ) :   0.9983 B(  4-C , 20-C ) :   1.0362
B(  6-C ,  7-H ) :   0.9339 B(  6-C ,  8-H ) :   0.9429 B(  6-C ,  9-C ) :   1.0674
B(  9-C , 10-H ) :   0.9578 B(  9-C , 11-H ) :   0.9490 B(  9-C , 12-C ) :   1.0901
B( 12-C , 13-H ) :   0.9690 B( 12-C , 14-H ) :   0.9731 B( 12-C , 15-H ) :   0.9727
B( 16-S , 17-C ) :   1.1432 B( 16-S , 20-C ) :   1.1355 B( 17-C , 18-C ) :   1.6293
B( 17-C , 20-C ) :   0.1041 B( 17-C , 33-H ) :   0.9647 B( 18-C , 19-C ) :   1.2084
B( 18-C , 21-H ) :   0.9964 B( 19-C , 20-C ) :   1.5917 B( 19-C , 22-C ) :   1.0751
B( 22-C , 23-H ) :   0.9072 B( 22-C , 24-H ) :   0.9311 B( 22-C , 25-C ) :   1.0432
B( 25-C , 26-H ) :   0.9662 B( 25-C , 27-H ) :   0.9456 B( 25-C , 28-C ) :   1.0868
B( 28-C , 29-H ) :   0.9734 B( 28-C , 30-H ) :   0.9720 B( 28-C , 31-H ) :   0.9741

Dispersion correction           -0.013988627
FINAL SINGLE POINT ENERGY     -1339.880213324426

DIPOLE MOMENT
-------------
                                X             Y             Z
Electronic contribution:     25.96771     -16.94864       1.60435
Nuclear contribution   :    -26.65032      17.16737      -1.48577
                        -----------------------------------------
Total Dipole Moment    :     -0.68261       0.21872       0.11859
                        -----------------------------------------
Magnitude (a.u.)       :      0.72654
Magnitude (Debye)      :      1.84672

Rotational constants in cm-1:     0.018120     0.008630     0.006364
Rotational constants in MHz :   543.223358   258.730184   190.782404

                             ****ORCA TERMINATED NORMALLY****
TOTAL RUN TIME: 0 days 0 hours 0 minutes 21 seconds 389 msec
