                         Program Version 4.2.1 -  RELEASE  -
|  1> ! wB97X-D3 SP def2-SVP
|  2> %pal
|  3> nprocs 24
|  4> end
|  5>
|  6> * xyz 0 1
|  7> S 	 -75.9585 	 7.06771 	 -106.465
|  8> C 	 -77.3359 	 8.10855 	 -106.637
|  9> C 	 -77.5949 	 8.40689 	 -107.993
| 10> C 	 -76.5652 	 7.90264 	 -108.838
| 11> C 	 -75.4929 	 7.30628 	 -108.143
| 12> H 	 -76.5715 	 7.92072 	 -109.89
| 13> C 	 -78.8121 	 9.11824 	 -108.464
| 14> H 	 -79.6292 	 8.63419 	 -107.929
| 15> H 	 -79.0203 	 8.95769 	 -109.553
| 16> C 	 -78.8177 	 10.5865 	 -108.095
| 17> H 	 -79.0107 	 10.6831 	 -107.004
| 18> H 	 -77.9055 	 11.0556 	 -108.364
| 19> C 	 -79.9958 	 11.4511 	 -108.648
| 20> H 	 -81.0029 	 10.9637 	 -108.516
| 21> H 	 -80.0681 	 12.3994 	 -108.121
| 22> H 	 -79.9799 	 11.6767 	 -109.726
| 23> S 	 -73.405 	 5.65906 	 -107.545
| 24> C 	 -72.5149 	 5.0303 	 -108.796
| 25> C 	 -72.7931 	 5.5769 	 -110.038
| 26> C 	 -73.7669 	 6.6018 	 -109.935
| 27> C 	 -74.354 	 6.66335 	 -108.649
| 28> H 	 -72.2303 	 5.40116 	 -110.905
| 29> C 	 -74.2242 	 7.26139 	 -111.308
| 30> H 	 -73.3244 	 7.70205 	 -111.752
| 31> H 	 -74.9738 	 8.04502 	 -110.987
| 32> C 	 -74.855 	 6.2866 	 -112.305
| 33> H 	 -75.3768 	 5.41908 	 -111.81
| 34> H 	 -74.0593 	 5.88254 	 -112.921
| 35> C 	 -75.7962 	 6.99275 	 -113.236
| 36> H 	 -76.4828 	 7.5951 	 -112.66
| 37> H 	 -76.252 	 6.22015 	 -113.872
| 38> H 	 -75.2694 	 7.68851 	 -113.842
| 39> H 	 -77.9994 	 8.09343 	 -105.732
| 40> H 	 -71.654 	 4.39291 	 -108.616
| 41> *
| 42>
| 43>                          ****END OF INPUT****

CARTESIAN COORDINATES (ANGSTROEM)
---------------------------------
  S    -75.958500    7.067710  -106.465000
  C    -77.335900    8.108550  -106.637000
  C    -77.594900    8.406890  -107.993000
  C    -76.565200    7.902640  -108.838000
  C    -75.492900    7.306280  -108.143000
  H    -76.571500    7.920720  -109.890000
  C    -78.812100    9.118240  -108.464000
  H    -79.629200    8.634190  -107.929000
  H    -79.020300    8.957690  -109.553000
  C    -78.817700   10.586500  -108.095000
  H    -79.010700   10.683100  -107.004000
  H    -77.905500   11.055600  -108.364000
  C    -79.995800   11.451100  -108.648000
  H    -81.002900   10.963700  -108.516000
  H    -80.068100   12.399400  -108.121000
  H    -79.979900   11.676700  -109.726000
  S    -73.405000    5.659060  -107.545000
  C    -72.514900    5.030300  -108.796000
  C    -72.793100    5.576900  -110.038000
  C    -73.766900    6.601800  -109.935000
  C    -74.354000    6.663350  -108.649000
  H    -72.230300    5.401160  -110.905000
  C    -74.224200    7.261390  -111.308000
  H    -73.324400    7.702050  -111.752000
  H    -74.973800    8.045020  -110.987000
  C    -74.855000    6.286600  -112.305000
  H    -75.376800    5.419080  -111.810000
  H    -74.059300    5.882540  -112.921000
  C    -75.796200    6.992750  -113.236000
  H    -76.482800    7.595100  -112.660000
  H    -76.252000    6.220150  -113.872000
  H    -75.269400    7.688510  -113.842000
  H    -77.999400    8.093430  -105.732000
  H    -71.654000    4.392910  -108.616000

 Total Charge           Charge          ....    0
 Multiplicity           Mult            ....    1
 Number of Electrons    NEL             ....  134
 Basis Dimension        Dim             ....  322

ORBITAL ENERGIES
----------------

  NO   OCC          E(Eh)            E(eV)
   0   2.0000     -88.967130     -2420.9187
   1   2.0000     -88.963376     -2420.8165
   2   2.0000     -10.328867      -281.0628
   3   2.0000     -10.326712      -281.0041
   4   2.0000     -10.315954      -280.7114
   5   2.0000     -10.312213      -280.6096
   6   2.0000     -10.306805      -280.4624
   7   2.0000     -10.304840      -280.4089
   8   2.0000     -10.302067      -280.3335
   9   2.0000     -10.292450      -280.0718
  10   2.0000     -10.291856      -280.0556
  11   2.0000     -10.287263      -279.9307
  12   2.0000     -10.287066      -279.9253
  13   2.0000     -10.286349      -279.9058
  14   2.0000     -10.281744      -279.7805
  15   2.0000     -10.275403      -279.6079
  16   2.0000      -8.083511      -219.9635
  17   2.0000      -8.078572      -219.8291
  18   2.0000      -6.041793      -164.4055
  19   2.0000      -6.037813      -164.2972
  20   2.0000      -6.037030      -164.2759
  21   2.0000      -6.034389      -164.2041
  22   2.0000      -6.033068      -164.1681
  23   2.0000      -6.029332      -164.0665
  24   2.0000      -1.012502       -27.5516
  25   2.0000      -0.985893       -26.8275
  26   2.0000      -0.915025       -24.8991
  27   2.0000      -0.913327       -24.8529
  28   2.0000      -0.871428       -23.7128
  29   2.0000      -0.860248       -23.4085
  30   2.0000      -0.846282       -23.0285
  31   2.0000      -0.809881       -22.0380
  32   2.0000      -0.784770       -21.3547
  33   2.0000      -0.767369       -20.8812
  34   2.0000      -0.703871       -19.1533
  35   2.0000      -0.699426       -19.0323
  36   2.0000      -0.692699       -18.8493
  37   2.0000      -0.667418       -18.1614
  38   2.0000      -0.638740       -17.3810
  39   2.0000      -0.622208       -16.9311
  40   2.0000      -0.597131       -16.2487
  41   2.0000      -0.575548       -15.6615
  42   2.0000      -0.566966       -15.4279
  43   2.0000      -0.559078       -15.2133
  44   2.0000      -0.533418       -14.5150
  45   2.0000      -0.527915       -14.3653
  46   2.0000      -0.518952       -14.1214
  47   2.0000      -0.512451       -13.9445
  48   2.0000      -0.502959       -13.6862
  49   2.0000      -0.497125       -13.5275
  50   2.0000      -0.491122       -13.3641
  51   2.0000      -0.485073       -13.1995
  52   2.0000      -0.472979       -12.8704
  53   2.0000      -0.462391       -12.5823
  54   2.0000      -0.460084       -12.5195
  55   2.0000      -0.456664       -12.4265
  56   2.0000      -0.444652       -12.0996
  57   2.0000      -0.437262       -11.8985
  58   2.0000      -0.430670       -11.7191
  59   2.0000      -0.424339       -11.5468
  60   2.0000      -0.419369       -11.4116
  61   2.0000      -0.417484       -11.3603
  62   2.0000      -0.410888       -11.1808
  63   2.0000      -0.365659        -9.9501
  64   2.0000      -0.336828        -9.1655
  65   2.0000      -0.327151        -8.9022
  66   2.0000      -0.269019        -7.3204
  67   0.0000       0.011661         0.3173
  68   0.0000       0.085719         2.3325
  69   0.0000       0.092269         2.5108
  70   0.0000       0.110858         3.0166
  71   0.0000       0.138002         3.7552

MULLIKEN ATOMIC CHARGES
-----------------------
   0 S :    0.082436
   1 C :   -0.142856
   2 C :   -0.072902
   3 C :    0.008902
   4 C :   -0.097982
   5 H :   -0.026699
   6 C :    0.076612
   7 H :    0.024525
   8 H :    0.030025
   9 C :   -0.066727
  10 H :    0.036284
  11 H :    0.031582
  12 C :   -0.079108
  13 H :    0.026172
  14 H :    0.037080
  15 H :    0.032672
  16 S :    0.115060
  17 C :   -0.071966
  18 C :   -0.020205
  19 C :   -0.069591
  20 C :   -0.134493
  21 H :   -0.001086
  22 C :    0.025332
  23 H :    0.039721
  24 H :    0.028096
  25 C :   -0.086104
  26 H :    0.051453
  27 H :    0.024385
  28 C :   -0.015588
  29 H :    0.021655
  30 H :    0.042299
  31 H :    0.016794
  32 H :    0.073739
  33 H :    0.060483
Sum of atomic charges:   -0.0000000

LOEWDIN ATOMIC CHARGES
----------------------
   0 S :    0.404628
   1 C :   -0.215445
   2 C :   -0.055797
   3 C :   -0.065801
   4 C :   -0.181162
   5 H :    0.017240
   6 C :   -0.037813
   7 H :    0.034205
   8 H :    0.033661
   9 C :   -0.036104
  10 H :    0.031906
  11 H :    0.020976
  12 C :   -0.076072
  13 H :    0.027040
  14 H :    0.026444
  15 H :    0.021640
  16 S :    0.437444
  17 C :   -0.206076
  18 C :   -0.072855
  19 C :   -0.048527
  20 C :   -0.200915
  21 H :    0.022766
  22 C :   -0.030592
  23 H :    0.034821
  24 H :    0.028133
  25 C :   -0.048080
  26 H :    0.032819
  27 H :    0.023063
  28 C :   -0.057198
  29 H :    0.019378
  30 H :    0.032304
  31 H :    0.019670
  32 H :    0.034467
  33 H :    0.029831

  Mayer bond orders larger than 0.100000
B(  0-S ,  1-C ) :   1.1521 B(  0-S ,  4-C ) :   1.1572 B(  1-C ,  2-C ) :   1.5450
B(  1-C ,  4-C ) :   0.1065 B(  1-C , 32-H ) :   0.9650 B(  2-C ,  3-C ) :   1.2926
B(  2-C ,  6-C ) :   1.0321 B(  3-C ,  4-C ) :   1.4975 B(  3-C ,  5-H ) :   0.9992
B(  4-C , 20-C ) :   1.1627 B(  6-C ,  7-H ) :   0.9255 B(  6-C ,  8-H ) :   0.9471
B(  6-C ,  9-C ) :   1.0671 B(  9-C , 10-H ) :   0.9547 B(  9-C , 11-H ) :   0.9608
B(  9-C , 12-C ) :   1.0764 B( 12-C , 13-H ) :   0.9737 B( 12-C , 14-H ) :   0.9771
B( 12-C , 15-H ) :   0.9763 B( 16-S , 17-C ) :   1.1970 B( 16-S , 20-C ) :   1.1313
B( 17-C , 18-C ) :   1.5550 B( 17-C , 33-H ) :   0.9650 B( 18-C , 19-C ) :   1.2819
B( 18-C , 21-H ) :   1.0000 B( 19-C , 20-C ) :   1.5344 B( 19-C , 22-C ) :   1.0370
B( 22-C , 23-H ) :   0.9284 B( 22-C , 24-H ) :   0.9493 B( 22-C , 25-C ) :   1.0543
B( 25-C , 26-H ) :   0.9624 B( 25-C , 27-H ) :   0.9454 B( 25-C , 28-C ) :   1.0912
B( 28-C , 29-H ) :   0.9778 B( 28-C , 30-H ) :   0.9712 B( 28-C , 31-H ) :   0.9702

Dispersion correction           -0.013603156
FINAL SINGLE POINT ENERGY     -1339.870418742916

DIPOLE MOMENT
-------------
                                X             Y             Z
Electronic contribution:     17.60932     -15.03955      21.57784
Nuclear contribution   :    -17.78015      15.06451     -22.19047
                        -----------------------------------------
Total Dipole Moment    :     -0.17083       0.02496      -0.61263
                        -----------------------------------------
Magnitude (a.u.)       :      0.63650
Magnitude (Debye)      :      1.61784

Rotational constants in cm-1:     0.018244     0.008586     0.006062
Rotational constants in MHz :   546.939119   257.406535   181.742196

                             ****ORCA TERMINATED NORMALLY****
TOTAL RUN TIME: 0 days 0 hours 0 minutes 20 seconds 122 msec
