                         Program Version 4.2.1 -  RELEASE  -
|  1> ! wB97X-D3 SP def2-SVP
|  2> %pal
|  3> nprocs 24
|  4> end
|  5>
|  6> * xyz 0 1
|  7> S 	 -147.725 	 13.1235 	 -6.7507
|  8> C 	 -147.593 	 11.4071 	 -6.47714
|  9> C 	 -148.292 	 10.6633 	 -7.46145
| 10> C 	 -149.027 	 11.5516 	 -8.31016
| 11> C 	 -148.925 	 12.8962 	 -7.98306
| 12> H 	 -149.722 	 11.1459 	 -9.10797
| 13> C 	 -148.251 	 9.15942 	 -7.7872
| 14> H 	 -149.278 	 8.91171 	 -7.78912
| 15> H 	 -147.797 	 8.7106 	 -6.88564
| 16> C 	 -147.578 	 8.75606 	 -9.16245
| 17> H 	 -147.751 	 7.73685 	 -9.42611
| 18> H 	 -147.974 	 9.27106 	 -10.0063
| 19> C 	 -146.068 	 8.92468 	 -9.10162
| 20> H 	 -145.727 	 8.8897 	 -8.09318
| 21> H 	 -145.537 	 8.15023 	 -9.64693
| 22> H 	 -145.881 	 9.89724 	 -9.51027
| 23> S 	 -148.522 	 15.4082 	 -9.06448
| 24> C 	 -149.767 	 16.0835 	 -10.0437
| 25> C 	 -150.954 	 15.403 	 -9.9483
| 26> C 	 -150.832 	 14.1983 	 -9.19206
| 27> C 	 -149.562 	 14.0574 	 -8.59911
| 28> H 	 -151.764 	 15.8476 	 -10.3905
| 29> C 	 -151.999 	 13.2485 	 -9.02359
| 30> H 	 -151.834 	 12.2599 	 -9.39188
| 31> H 	 -152.75 	 13.6549 	 -9.72096
| 32> C 	 -152.562 	 13.0656 	 -7.59333
| 33> H 	 -152.031 	 12.2996 	 -7.03202
| 34> H 	 -153.594 	 12.6083 	 -7.78849
| 35> C 	 -152.719 	 14.4012 	 -6.82788
| 36> H 	 -153.191 	 15.1612 	 -7.4206
| 37> H 	 -151.762 	 14.8912 	 -6.5071
| 38> H 	 -153.493 	 14.3096 	 -5.99463
| 39> H 	 -147.003 	 10.8742 	 -5.67483
| 40> H 	 -149.781 	 17.0798 	 -10.4951
| 41> *
| 42>
| 43>                          ****END OF INPUT****

CARTESIAN COORDINATES (ANGSTROEM)
---------------------------------
  S    -147.725000   13.123500   -6.750700
  C    -147.593000   11.407100   -6.477140
  C    -148.292000   10.663300   -7.461450
  C    -149.027000   11.551600   -8.310160
  C    -148.925000   12.896200   -7.983060
  H    -149.722000   11.145900   -9.107970
  C    -148.251000    9.159420   -7.787200
  H    -149.278000    8.911710   -7.789120
  H    -147.797000    8.710600   -6.885640
  C    -147.578000    8.756060   -9.162450
  H    -147.751000    7.736850   -9.426110
  H    -147.974000    9.271060  -10.006300
  C    -146.068000    8.924680   -9.101620
  H    -145.727000    8.889700   -8.093180
  H    -145.537000    8.150230   -9.646930
  H    -145.881000    9.897240   -9.510270
  S    -148.522000   15.408200   -9.064480
  C    -149.767000   16.083500  -10.043700
  C    -150.954000   15.403000   -9.948300
  C    -150.832000   14.198300   -9.192060
  C    -149.562000   14.057400   -8.599110
  H    -151.764000   15.847600  -10.390500
  C    -151.999000   13.248500   -9.023590
  H    -151.834000   12.259900   -9.391880
  H    -152.750000   13.654900   -9.720960
  C    -152.562000   13.065600   -7.593330
  H    -152.031000   12.299600   -7.032020
  H    -153.594000   12.608300   -7.788490
  C    -152.719000   14.401200   -6.827880
  H    -153.191000   15.161200   -7.420600
  H    -151.762000   14.891200   -6.507100
  H    -153.493000   14.309600   -5.994630
  H    -147.003000   10.874200   -5.674830
  H    -149.781000   17.079800  -10.495100

 Total Charge           Charge          ....    0
 Multiplicity           Mult            ....    1
 Number of Electrons    NEL             ....  134
 Basis Dimension        Dim             ....  322

ORBITAL ENERGIES
----------------

  NO   OCC          E(Eh)            E(eV)
   0   2.0000     -88.968913     -2420.9672
   1   2.0000     -88.967265     -2420.9224
   2   2.0000     -10.330867      -281.1172
   3   2.0000     -10.328818      -281.0614
   4   2.0000     -10.321598      -280.8649
   5   2.0000     -10.314193      -280.6635
   6   2.0000     -10.305834      -280.4360
   7   2.0000     -10.304727      -280.4059
   8   2.0000     -10.298122      -280.2262
   9   2.0000     -10.297684      -280.2142
  10   2.0000     -10.291601      -280.0487
  11   2.0000     -10.289990      -280.0049
  12   2.0000     -10.287144      -279.9274
  13   2.0000     -10.285064      -279.8708
  14   2.0000     -10.278435      -279.6904
  15   2.0000     -10.266940      -279.3777
  16   2.0000      -8.083834      -219.9723
  17   2.0000      -8.082215      -219.9282
  18   2.0000      -6.042339      -164.4204
  19   2.0000      -6.040706      -164.3760
  20   2.0000      -6.038363      -164.3122
  21   2.0000      -6.036646      -164.2655
  22   2.0000      -6.034546      -164.2083
  23   2.0000      -6.033029      -164.1671
  24   2.0000      -1.007087       -27.4042
  25   2.0000      -0.984273       -26.7834
  26   2.0000      -0.909244       -24.7418
  27   2.0000      -0.904562       -24.6144
  28   2.0000      -0.868964       -23.6457
  29   2.0000      -0.848896       -23.0996
  30   2.0000      -0.843464       -22.9518
  31   2.0000      -0.810807       -22.0632
  32   2.0000      -0.783640       -21.3239
  33   2.0000      -0.772226       -21.0133
  34   2.0000      -0.712773       -19.3955
  35   2.0000      -0.702172       -19.1071
  36   2.0000      -0.684364       -18.6225
  37   2.0000      -0.663066       -18.0429
  38   2.0000      -0.630936       -17.1686
  39   2.0000      -0.620980       -16.8977
  40   2.0000      -0.589277       -16.0350
  41   2.0000      -0.567285       -15.4366
  42   2.0000      -0.555086       -15.1047
  43   2.0000      -0.546734       -14.8774
  44   2.0000      -0.543646       -14.7934
  45   2.0000      -0.536331       -14.5943
  46   2.0000      -0.517425       -14.0799
  47   2.0000      -0.505875       -13.7656
  48   2.0000      -0.502968       -13.6865
  49   2.0000      -0.492706       -13.4072
  50   2.0000      -0.483225       -13.1492
  51   2.0000      -0.478903       -13.0316
  52   2.0000      -0.468412       -12.7461
  53   2.0000      -0.465520       -12.6674
  54   2.0000      -0.455483       -12.3943
  55   2.0000      -0.447655       -12.1813
  56   2.0000      -0.442854       -12.0507
  57   2.0000      -0.437282       -11.8991
  58   2.0000      -0.432842       -11.7782
  59   2.0000      -0.430013       -11.7012
  60   2.0000      -0.423066       -11.5122
  61   2.0000      -0.414501       -11.2792
  62   2.0000      -0.406675       -11.0662
  63   2.0000      -0.352361        -9.5882
  64   2.0000      -0.333816        -9.0836
  65   2.0000      -0.328251        -8.9322
  66   2.0000      -0.284927        -7.7533
  67   0.0000       0.024228         0.6593
  68   0.0000       0.069549         1.8925
  69   0.0000       0.106128         2.8879
  70   0.0000       0.117739         3.2039
  71   0.0000       0.132551         3.6069

MULLIKEN ATOMIC CHARGES
-----------------------
   0 S :    0.113567
   1 C :   -0.132113
   2 C :   -0.133391
   3 C :   -0.002797
   4 C :   -0.143322
   5 H :    0.032529
   6 C :    0.073488
   7 H :    0.022788
   8 H :    0.025904
   9 C :   -0.045817
  10 H :    0.018817
  11 H :    0.021734
  12 C :   -0.030002
  13 H :    0.017732
  14 H :    0.031174
  15 H :    0.038697
  16 S :    0.105192
  17 C :   -0.087883
  18 C :   -0.019519
  19 C :   -0.058257
  20 C :   -0.118463
  21 H :   -0.014346
  22 C :    0.083544
  23 H :    0.019380
  24 H :    0.013898
  25 C :   -0.082609
  26 H :    0.043850
  27 H :    0.034074
  28 C :   -0.058665
  29 H :    0.009638
  30 H :    0.057287
  31 H :    0.038150
  32 H :    0.066058
  33 H :    0.059683
Sum of atomic charges:    0.0000000

LOEWDIN ATOMIC CHARGES
----------------------
   0 S :    0.416633
   1 C :   -0.218331
   2 C :   -0.066522
   3 C :   -0.073067
   4 C :   -0.198839
   5 H :    0.038710
   6 C :   -0.024132
   7 H :    0.025777
   8 H :    0.031750
   9 C :   -0.032806
  10 H :    0.021116
  11 H :    0.021127
  12 C :   -0.057561
  13 H :    0.019371
  14 H :    0.025910
  15 H :    0.028112
  16 S :    0.411375
  17 C :   -0.193704
  18 C :   -0.065390
  19 C :   -0.051810
  20 C :   -0.197655
  21 H :    0.018613
  22 C :   -0.035559
  23 H :    0.025450
  24 H :    0.031743
  25 C :   -0.040935
  26 H :    0.024460
  27 H :    0.033296
  28 C :   -0.079026
  29 H :    0.018538
  30 H :    0.035169
  31 H :    0.033459
  32 H :    0.040296
  33 H :    0.034433

  Mayer bond orders larger than 0.100000
B(  0-S ,  1-C ) :   1.1441 B(  0-S ,  4-C ) :   1.1569 B(  1-C ,  2-C ) :   1.5996
B(  1-C ,  4-C ) :   0.1007 B(  1-C , 32-H ) :   0.9580 B(  2-C ,  3-C ) :   1.2592
B(  2-C ,  6-C ) :   1.0111 B(  3-C ,  4-C ) :   1.5598 B(  3-C ,  5-H ) :   0.9802
B(  4-C , 20-C ) :   1.0406 B(  6-C ,  7-H ) :   0.9363 B(  6-C ,  8-H ) :   0.9468
B(  6-C ,  9-C ) :   1.0696 B(  9-C , 10-H ) :   0.9603 B(  9-C , 11-H ) :   0.9600
B(  9-C , 12-C ) :   1.0617 B( 12-C , 13-H ) :   0.9800 B( 12-C , 14-H ) :   0.9777
B( 12-C , 15-H ) :   0.9793 B( 16-S , 17-C ) :   1.1657 B( 16-S , 20-C ) :   1.1360
B( 17-C , 18-C ) :   1.6189 B( 17-C , 33-H ) :   0.9562 B( 18-C , 19-C ) :   1.2398
B( 18-C , 21-H ) :   1.0018 B( 19-C , 20-C ) :   1.5763 B( 19-C , 22-C ) :   1.0480
B( 22-C , 23-H ) :   0.9301 B( 22-C , 24-H ) :   0.9304 B( 22-C , 25-C ) :   1.0700
B( 25-C , 26-H ) :   0.9558 B( 25-C , 27-H ) :   0.9551 B( 25-C , 28-C ) :   1.0755
B( 28-C , 29-H ) :   0.9745 B( 28-C , 30-H ) :   0.9683 B( 28-C , 31-H ) :   0.9738

Dispersion correction           -0.015205061
FINAL SINGLE POINT ENERGY     -1339.870881528075

DIPOLE MOMENT
-------------
                                X             Y             Z
Electronic contribution:      9.79644      17.90084       1.65553
Nuclear contribution   :    -10.20939     -18.33288      -1.94507
                        -----------------------------------------
Total Dipole Moment    :     -0.41295      -0.43204      -0.28953
                        -----------------------------------------
Magnitude (a.u.)       :      0.66410
Magnitude (Debye)      :      1.68800

Rotational constants in cm-1:     0.020585     0.008474     0.007606
Rotational constants in MHz :   617.110950   254.030215   228.018215

                             ****ORCA TERMINATED NORMALLY****
TOTAL RUN TIME: 0 days 0 hours 0 minutes 22 seconds 182 msec
