                         Program Version 4.2.1 -  RELEASE  -
|  1> ! wB97X-D3 SP def2-SVP
|  2> %pal
|  3> nprocs 24
|  4> end
|  5>
|  6> * xyz 0 1
|  7> S 	 -107.426 	 18.7429 	 -109.492
|  8> C 	 -105.836 	 19.241 	 -109.045
|  9> C 	 -105.72 	 20.5645 	 -108.737
| 10> C 	 -107.032 	 21.0844 	 -108.573
| 11> C 	 -108.03 	 20.3798 	 -109.236
| 12> H 	 -107.397 	 22.0288 	 -108.161
| 13> C 	 -104.486 	 21.3338 	 -108.47
| 14> H 	 -104.647 	 22.4632 	 -108.519
| 15> H 	 -103.755 	 21.1421 	 -109.219
| 16> C 	 -103.885 	 21.1034 	 -107.102
| 17> H 	 -103.524 	 20.1195 	 -106.867
| 18> H 	 -103.005 	 21.7247 	 -107.019
| 19> C 	 -104.925 	 21.4867 	 -105.997
| 20> H 	 -105.41 	 22.4838 	 -106.098
| 21> H 	 -105.787 	 20.7958 	 -105.792
| 22> H 	 -104.355 	 21.5776 	 -105.155
| 23> S 	 -110.458 	 21.4227 	 -108.169
| 24> C 	 -111.675 	 21.7151 	 -109.358
| 25> C 	 -111.49 	 21.143 	 -110.596
| 26> C 	 -110.16 	 20.6117 	 -110.659
| 27> C 	 -109.414 	 20.8073 	 -109.484
| 28> H 	 -112.221 	 21.0609 	 -111.296
| 29> C 	 -109.635 	 19.9738 	 -111.972
| 30> H 	 -110.525 	 19.5385 	 -112.373
| 31> H 	 -108.876 	 19.2306 	 -111.728
| 32> C 	 -109.083 	 21.0641 	 -112.909
| 33> H 	 -109.769 	 21.866 	 -113.138
| 34> H 	 -108.958 	 20.511 	 -113.873
| 35> C 	 -107.796 	 21.6304 	 -112.53
| 36> H 	 -107.699 	 22.081 	 -111.5
| 37> H 	 -107.473 	 22.3697 	 -113.265
| 38> H 	 -107.065 	 20.7845 	 -112.656
| 39> H 	 -104.906 	 18.671 	 -109.25
| 40> H 	 -112.564 	 22.3958 	 -109.199
| 41> *
| 42>
| 43>                          ****END OF INPUT****

CARTESIAN COORDINATES (ANGSTROEM)
---------------------------------
  S    -107.426000   18.742900  -109.492000
  C    -105.836000   19.241000  -109.045000
  C    -105.720000   20.564500  -108.737000
  C    -107.032000   21.084400  -108.573000
  C    -108.030000   20.379800  -109.236000
  H    -107.397000   22.028800  -108.161000
  C    -104.486000   21.333800  -108.470000
  H    -104.647000   22.463200  -108.519000
  H    -103.755000   21.142100  -109.219000
  C    -103.885000   21.103400  -107.102000
  H    -103.524000   20.119500  -106.867000
  H    -103.005000   21.724700  -107.019000
  C    -104.925000   21.486700  -105.997000
  H    -105.410000   22.483800  -106.098000
  H    -105.787000   20.795800  -105.792000
  H    -104.355000   21.577600  -105.155000
  S    -110.458000   21.422700  -108.169000
  C    -111.675000   21.715100  -109.358000
  C    -111.490000   21.143000  -110.596000
  C    -110.160000   20.611700  -110.659000
  C    -109.414000   20.807300  -109.484000
  H    -112.221000   21.060900  -111.296000
  C    -109.635000   19.973800  -111.972000
  H    -110.525000   19.538500  -112.373000
  H    -108.876000   19.230600  -111.728000
  C    -109.083000   21.064100  -112.909000
  H    -109.769000   21.866000  -113.138000
  H    -108.958000   20.511000  -113.873000
  C    -107.796000   21.630400  -112.530000
  H    -107.699000   22.081000  -111.500000
  H    -107.473000   22.369700  -113.265000
  H    -107.065000   20.784500  -112.656000
  H    -104.906000   18.671000  -109.250000
  H    -112.564000   22.395800  -109.199000

 Total Charge           Charge          ....    0
 Multiplicity           Mult            ....    1
 Number of Electrons    NEL             ....  134
 Basis Dimension        Dim             ....  322

ORBITAL ENERGIES
----------------

  NO   OCC          E(Eh)            E(eV)
   0   2.0000     -88.968580     -2420.9581
   1   2.0000     -88.965076     -2420.8628
   2   2.0000     -10.326397      -280.9955
   3   2.0000     -10.326170      -280.9894
   4   2.0000     -10.319666      -280.8124
   5   2.0000     -10.310244      -280.5560
   6   2.0000     -10.303571      -280.3744
   7   2.0000     -10.297359      -280.2054
   8   2.0000     -10.292018      -280.0600
   9   2.0000     -10.291638      -280.0497
  10   2.0000     -10.288385      -279.9612
  11   2.0000     -10.287430      -279.9352
  12   2.0000     -10.286244      -279.9029
  13   2.0000     -10.278932      -279.7040
  14   2.0000     -10.272863      -279.5388
  15   2.0000     -10.270277      -279.4684
  16   2.0000      -8.082973      -219.9489
  17   2.0000      -8.079564      -219.8561
  18   2.0000      -6.041462      -164.3966
  19   2.0000      -6.038138      -164.3061
  20   2.0000      -6.037806      -164.2970
  21   2.0000      -6.034179      -164.1984
  22   2.0000      -6.033512      -164.1802
  23   2.0000      -6.030203      -164.0902
  24   2.0000      -1.005361       -27.3573
  25   2.0000      -0.985624       -26.8202
  26   2.0000      -0.916464       -24.9382
  27   2.0000      -0.910691       -24.7812
  28   2.0000      -0.865812       -23.5599
  29   2.0000      -0.852103       -23.1869
  30   2.0000      -0.843178       -22.9440
  31   2.0000      -0.812547       -22.1105
  32   2.0000      -0.786378       -21.3984
  33   2.0000      -0.770653       -20.9705
  34   2.0000      -0.705519       -19.1982
  35   2.0000      -0.696128       -18.9426
  36   2.0000      -0.681978       -18.5576
  37   2.0000      -0.663644       -18.0587
  38   2.0000      -0.636555       -17.3215
  39   2.0000      -0.612228       -16.6596
  40   2.0000      -0.592671       -16.1274
  41   2.0000      -0.578393       -15.7389
  42   2.0000      -0.557009       -15.1570
  43   2.0000      -0.550524       -14.9805
  44   2.0000      -0.542110       -14.7515
  45   2.0000      -0.535925       -14.5833
  46   2.0000      -0.518565       -14.1109
  47   2.0000      -0.509769       -13.8715
  48   2.0000      -0.495926       -13.4948
  49   2.0000      -0.491967       -13.3871
  50   2.0000      -0.486567       -13.2402
  51   2.0000      -0.477035       -12.9808
  52   2.0000      -0.466046       -12.6818
  53   2.0000      -0.463859       -12.6222
  54   2.0000      -0.459847       -12.5131
  55   2.0000      -0.449775       -12.2390
  56   2.0000      -0.441440       -12.0122
  57   2.0000      -0.437013       -11.8917
  58   2.0000      -0.431345       -11.7375
  59   2.0000      -0.425713       -11.5843
  60   2.0000      -0.421450       -11.4682
  61   2.0000      -0.415556       -11.3078
  62   2.0000      -0.399966       -10.8836
  63   2.0000      -0.336992        -9.1700
  64   2.0000      -0.332208        -9.0399
  65   2.0000      -0.326837        -8.8937
  66   2.0000      -0.287831        -7.8323
  67   0.0000       0.026391         0.7181
  68   0.0000       0.071665         1.9501
  69   0.0000       0.093794         2.5523
  70   0.0000       0.117858         3.2071
  71   0.0000       0.131771         3.5857

MULLIKEN ATOMIC CHARGES
-----------------------
   0 S :    0.114409
   1 C :   -0.116639
   2 C :   -0.074721
   3 C :    0.003551
   4 C :   -0.167842
   5 H :    0.011374
   6 C :    0.062134
   7 H :    0.039136
   8 H :    0.019620
   9 C :   -0.046797
  10 H :    0.025457
  11 H :    0.024168
  12 C :   -0.066311
  13 H :    0.024288
  14 H :    0.057984
  15 H :    0.009493
  16 S :    0.121215
  17 C :   -0.103536
  18 C :    0.005411
  19 C :   -0.085579
  20 C :   -0.153546
  21 H :   -0.018746
  22 C :    0.120131
  23 H :    0.014253
  24 H :    0.020249
  25 C :   -0.067575
  26 H :    0.020436
  27 H :    0.028291
  28 C :   -0.059157
  29 H :    0.059050
  30 H :    0.028522
  31 H :    0.024940
  32 H :    0.053231
  33 H :    0.073102
Sum of atomic charges:   -0.0000000

LOEWDIN ATOMIC CHARGES
----------------------
   0 S :    0.412947
   1 C :   -0.206790
   2 C :   -0.064039
   3 C :   -0.058895
   4 C :   -0.191811
   5 H :    0.027430
   6 C :   -0.036055
   7 H :    0.042324
   8 H :    0.026702
   9 C :   -0.029664
  10 H :    0.021268
  11 H :    0.023529
  12 C :   -0.069312
  13 H :    0.025747
  14 H :    0.035450
  15 H :    0.011958
  16 S :    0.398357
  17 C :   -0.188834
  18 C :   -0.062417
  19 C :   -0.043022
  20 C :   -0.205057
  21 H :    0.016204
  22 C :   -0.023079
  23 H :    0.027465
  24 H :    0.018527
  25 C :   -0.045299
  26 H :    0.019555
  27 H :    0.028697
  28 C :   -0.073565
  29 H :    0.033949
  30 H :    0.025901
  31 H :    0.029347
  32 H :    0.033355
  33 H :    0.039128

  Mayer bond orders larger than 0.100000
B(  0-S ,  1-C ) :   1.1437 B(  0-S ,  4-C ) :   1.1271 B(  1-C ,  2-C ) :   1.6322
B(  1-C , 32-H ) :   0.9529 B(  2-C ,  3-C ) :   1.2104 B(  2-C ,  6-C ) :   1.0353
B(  3-C ,  4-C ) :   1.5953 B(  3-C ,  5-H ) :   0.9880 B(  4-C , 20-C ) :   1.0713
B(  6-C ,  7-H ) :   0.9430 B(  6-C ,  8-H ) :   0.9294 B(  6-C ,  9-C ) :   1.0882
B(  9-C , 10-H ) :   0.9540 B(  9-C , 11-H ) :   0.9560 B(  9-C , 12-C ) :   1.0669
B( 12-C , 13-H ) :   0.9743 B( 12-C , 14-H ) :   0.9733 B( 12-C , 15-H ) :   0.9730
B( 16-S , 17-C ) :   1.1635 B( 16-S , 20-C ) :   1.1107 B( 17-C , 18-C ) :   1.6137
B( 17-C , 33-H ) :   0.9526 B( 18-C , 19-C ) :   1.2375 B( 18-C , 21-H ) :   1.0069
B( 19-C , 20-C ) :   1.5843 B( 19-C , 22-C ) :   1.0335 B( 22-C , 23-H ) :   0.9275
B( 22-C , 24-H ) :   0.9276 B( 22-C , 25-C ) :   1.0747 B( 25-C , 26-H ) :   0.9536
B( 25-C , 27-H ) :   0.9504 B( 25-C , 28-C ) :   1.0946 B( 28-C , 29-H ) :   0.9671
B( 28-C , 30-H ) :   0.9668 B( 28-C , 31-H ) :   0.9709

Dispersion correction           -0.016017583
FINAL SINGLE POINT ENERGY     -1339.855384786370

DIPOLE MOMENT
-------------
                                X             Y             Z
Electronic contribution:    -15.54616      -7.70853       4.90355
Nuclear contribution   :     15.80964       7.98362      -5.15309
                        -----------------------------------------
Total Dipole Moment    :      0.26348       0.27509      -0.24954
                        -----------------------------------------
Magnitude (a.u.)       :      0.45537
Magnitude (Debye)      :      1.15747

Rotational constants in cm-1:     0.021606     0.009020     0.007580
Rotational constants in MHz :   647.722222   270.403949   227.255885

                             ****ORCA TERMINATED NORMALLY****
TOTAL RUN TIME: 0 days 0 hours 0 minutes 22 seconds 875 msec
