                         Program Version 4.2.1 -  RELEASE  -
|  1> ! wB97X-D3 SP def2-SVP
|  2> %pal
|  3> nprocs 24
|  4> end
|  5>
|  6> * xyz 0 1
|  7> S 	 -122.304 	 32.8481 	 -113.957
|  8> C 	 -121.184 	 31.997 	 -114.965
|  9> C 	 -120.09 	 32.7499 	 -115.296
| 10> C 	 -120.078 	 33.8956 	 -114.453
| 11> C 	 -121.124 	 34.0829 	 -113.646
| 12> H 	 -119.214 	 34.5227 	 -114.436
| 13> C 	 -118.963 	 32.3716 	 -116.226
| 14> H 	 -118.895 	 33.0009 	 -117.077
| 15> H 	 -119.187 	 31.4489 	 -116.566
| 16> C 	 -117.512 	 32.2579 	 -115.442
| 17> H 	 -117.821 	 31.8474 	 -114.521
| 18> H 	 -116.965 	 31.5806 	 -116.026
| 19> C 	 -116.691 	 33.6453 	 -115.342
| 20> H 	 -115.678 	 33.3951 	 -115.249
| 21> H 	 -116.821 	 34.1728 	 -116.289
| 22> H 	 -117.052 	 34.39 	 -114.66
| 23> S 	 -121.794 	 34.2988 	 -111.045
| 24> C 	 -121.588 	 35.819 	 -110.233
| 25> C 	 -121.291 	 36.7966 	 -111.105
| 26> C 	 -120.845 	 36.3164 	 -112.387
| 27> C 	 -121.197 	 34.9982 	 -112.515
| 28> H 	 -121.31 	 37.7968 	 -110.651
| 29> C 	 -120.424 	 37.377 	 -113.447
| 30> H 	 -121.364 	 37.8817 	 -113.638
| 31> H 	 -120.293 	 36.7278 	 -114.346
| 32> C 	 -119.23 	 38.2276 	 -113.152
| 33> H 	 -118.333 	 37.6824 	 -113.129
| 34> H 	 -119.377 	 38.7527 	 -112.266
| 35> C 	 -119.034 	 39.2962 	 -114.232
| 36> H 	 -118.787 	 38.7176 	 -115.104
| 37> H 	 -118.238 	 39.9785 	 -113.973
| 38> H 	 -119.922 	 39.7559 	 -114.389
| 39> H 	 -121.456 	 31.0103 	 -115.404
| 40> H 	 -121.976 	 36.0205 	 -109.235
| 41> *
| 42>
| 43>                          ****END OF INPUT****

CARTESIAN COORDINATES (ANGSTROEM)
---------------------------------
  S    -122.304000   32.848100  -113.957000
  C    -121.184000   31.997000  -114.965000
  C    -120.090000   32.749900  -115.296000
  C    -120.078000   33.895600  -114.453000
  C    -121.124000   34.082900  -113.646000
  H    -119.214000   34.522700  -114.436000
  C    -118.963000   32.371600  -116.226000
  H    -118.895000   33.000900  -117.077000
  H    -119.187000   31.448900  -116.566000
  C    -117.512000   32.257900  -115.442000
  H    -117.821000   31.847400  -114.521000
  H    -116.965000   31.580600  -116.026000
  C    -116.691000   33.645300  -115.342000
  H    -115.678000   33.395100  -115.249000
  H    -116.821000   34.172800  -116.289000
  H    -117.052000   34.390000  -114.660000
  S    -121.794000   34.298800  -111.045000
  C    -121.588000   35.819000  -110.233000
  C    -121.291000   36.796600  -111.105000
  C    -120.845000   36.316400  -112.387000
  C    -121.197000   34.998200  -112.515000
  H    -121.310000   37.796800  -110.651000
  C    -120.424000   37.377000  -113.447000
  H    -121.364000   37.881700  -113.638000
  H    -120.293000   36.727800  -114.346000
  C    -119.230000   38.227600  -113.152000
  H    -118.333000   37.682400  -113.129000
  H    -119.377000   38.752700  -112.266000
  C    -119.034000   39.296200  -114.232000
  H    -118.787000   38.717600  -115.104000
  H    -118.238000   39.978500  -113.973000
  H    -119.922000   39.755900  -114.389000
  H    -121.456000   31.010300  -115.404000
  H    -121.976000   36.020500  -109.235000

 Total Charge           Charge          ....    0
 Multiplicity           Mult            ....    1
 Number of Electrons    NEL             ....  134
 Basis Dimension        Dim             ....  322

ORBITAL ENERGIES
----------------

  NO   OCC          E(Eh)            E(eV)
   0   2.0000     -88.961670     -2420.7701
   1   2.0000     -88.959635     -2420.7147
   2   2.0000     -10.323849      -280.9262
   3   2.0000     -10.319802      -280.8161
   4   2.0000     -10.312666      -280.6219
   5   2.0000     -10.306334      -280.4496
   6   2.0000     -10.302437      -280.3436
   7   2.0000     -10.295977      -280.1678
   8   2.0000     -10.293713      -280.1062
   9   2.0000     -10.292741      -280.0797
  10   2.0000     -10.287576      -279.9392
  11   2.0000     -10.286312      -279.9048
  12   2.0000     -10.281606      -279.7767
  13   2.0000     -10.281380      -279.7706
  14   2.0000     -10.275267      -279.6042
  15   2.0000     -10.266161      -279.3564
  16   2.0000      -8.077434      -219.7982
  17   2.0000      -8.075328      -219.7408
  18   2.0000      -6.035914      -164.2456
  19   2.0000      -6.033836      -164.1890
  20   2.0000      -6.031956      -164.1379
  21   2.0000      -6.029844      -164.0804
  22   2.0000      -6.028006      -164.0304
  23   2.0000      -6.025871      -163.9723
  24   2.0000      -1.015016       -27.6200
  25   2.0000      -0.991370       -26.9765
  26   2.0000      -0.916903       -24.9502
  27   2.0000      -0.903632       -24.5891
  28   2.0000      -0.870062       -23.6756
  29   2.0000      -0.855076       -23.2678
  30   2.0000      -0.842438       -22.9239
  31   2.0000      -0.820298       -22.3214
  32   2.0000      -0.786791       -21.4097
  33   2.0000      -0.775618       -21.1056
  34   2.0000      -0.714944       -19.4546
  35   2.0000      -0.707001       -19.2385
  36   2.0000      -0.694763       -18.9055
  37   2.0000      -0.659320       -17.9410
  38   2.0000      -0.637448       -17.3458
  39   2.0000      -0.629462       -17.1285
  40   2.0000      -0.593359       -16.1461
  41   2.0000      -0.579128       -15.7589
  42   2.0000      -0.570636       -15.5278
  43   2.0000      -0.543913       -14.8006
  44   2.0000      -0.539035       -14.6679
  45   2.0000      -0.536088       -14.5877
  46   2.0000      -0.518539       -14.1102
  47   2.0000      -0.515084       -14.0162
  48   2.0000      -0.509888       -13.8748
  49   2.0000      -0.496225       -13.5030
  50   2.0000      -0.492476       -13.4010
  51   2.0000      -0.479304       -13.0425
  52   2.0000      -0.473204       -12.8765
  53   2.0000      -0.464600       -12.6424
  54   2.0000      -0.456969       -12.4348
  55   2.0000      -0.452946       -12.3253
  56   2.0000      -0.445747       -12.1294
  57   2.0000      -0.442338       -12.0366
  58   2.0000      -0.435960       -11.8631
  59   2.0000      -0.431825       -11.7505
  60   2.0000      -0.423025       -11.5111
  61   2.0000      -0.419644       -11.4191
  62   2.0000      -0.410139       -11.1604
  63   2.0000      -0.354096        -9.6354
  64   2.0000      -0.328388        -8.9359
  65   2.0000      -0.326668        -8.8891
  66   2.0000      -0.291467        -7.9312
  67   0.0000       0.035415         0.9637
  68   0.0000       0.080613         2.1936
  69   0.0000       0.113196         3.0802
  70   0.0000       0.122741         3.3400
  71   0.0000       0.131054         3.5662

MULLIKEN ATOMIC CHARGES
-----------------------
   0 S :    0.106204
   1 C :   -0.161667
   2 C :   -0.093614
   3 C :    0.028919
   4 C :   -0.122449
   5 H :   -0.026858
   6 C :    0.134334
   7 H :    0.027520
   8 H :   -0.022178
   9 C :   -0.067126
  10 H :    0.038004
  11 H :    0.025602
  12 C :   -0.048068
  13 H :    0.035939
  14 H :    0.020142
  15 H :    0.046572
  16 S :    0.101363
  17 C :   -0.098341
  18 C :   -0.040453
  19 C :   -0.045841
  20 C :   -0.139543
  21 H :    0.027346
  22 C :    0.032529
  23 H :    0.039176
  24 H :    0.013094
  25 C :   -0.019159
  26 H :    0.018367
  27 H :    0.011217
  28 C :    0.008816
  29 H :    0.015328
  30 H :    0.036771
  31 H :    0.002563
  32 H :    0.058914
  33 H :    0.056575
Sum of atomic charges:    0.0000000

LOEWDIN ATOMIC CHARGES
----------------------
   0 S :    0.403844
   1 C :   -0.200465
   2 C :   -0.064633
   3 C :   -0.062291
   4 C :   -0.197825
   5 H :    0.021751
   6 C :   -0.014374
   7 H :    0.025896
   8 H :    0.012989
   9 C :   -0.012496
  10 H :    0.019715
  11 H :    0.017370
  12 C :   -0.063308
  13 H :    0.022099
  14 H :    0.026826
  15 H :    0.022450
  16 S :    0.407123
  17 C :   -0.193736
  18 C :   -0.073480
  19 C :   -0.058496
  20 C :   -0.194107
  21 H :    0.035402
  22 C :   -0.029754
  23 H :    0.035949
  24 H :    0.030161
  25 C :   -0.028561
  26 H :    0.021388
  27 H :    0.014315
  28 C :   -0.043522
  29 H :    0.023421
  30 H :    0.026940
  31 H :    0.008004
  32 H :    0.031747
  33 H :    0.029657

  Mayer bond orders larger than 0.100000
B(  0-S ,  1-C ) :   1.1433 B(  0-S ,  4-C ) :   1.1315 B(  1-C ,  2-C ) :   1.6127
B(  1-C , 32-H ) :   0.9584 B(  2-C ,  3-C ) :   1.2312 B(  2-C ,  6-C ) :   1.0436
B(  3-C ,  4-C ) :   1.6052 B(  3-C ,  5-H ) :   0.9958 B(  4-C , 20-C ) :   1.0329
B(  6-C ,  7-H ) :   0.9348 B(  6-C ,  8-H ) :   0.9255 B(  6-C ,  9-C ) :   1.0572
B(  9-C , 10-H ) :   0.9669 B(  9-C , 11-H ) :   0.9631 B(  9-C , 12-C ) :   1.0566
B( 12-C , 13-H ) :   0.9756 B( 12-C , 14-H ) :   0.9772 B( 12-C , 15-H ) :   0.9760
B( 16-S , 17-C ) :   1.1318 B( 16-S , 20-C ) :   1.1447 B( 17-C , 18-C ) :   1.6782
B( 17-C , 33-H ) :   0.9606 B( 18-C , 19-C ) :   1.1860 B( 18-C , 21-H ) :   0.9802
B( 19-C , 20-C ) :   1.6247 B( 19-C , 22-C ) :   1.0246 B( 22-C , 23-H ) :   0.9410
B( 22-C , 24-H ) :   0.9316 B( 22-C , 25-C ) :   1.0718 B( 25-C , 26-H ) :   0.9526
B( 25-C , 27-H ) :   0.9534 B( 25-C , 28-C ) :   1.0882 B( 28-C , 29-H ) :   0.9750
B( 28-C , 30-H ) :   0.9744 B( 28-C , 31-H ) :   0.9742

Dispersion correction           -0.013966040
FINAL SINGLE POINT ENERGY     -1339.844484327391

DIPOLE MOMENT
-------------
                                X             Y             Z
Electronic contribution:    -22.91942     -13.60397      13.41110
Nuclear contribution   :     23.41161      13.92372     -13.73553
                        -----------------------------------------
Total Dipole Moment    :      0.49219       0.31976      -0.32443
                        -----------------------------------------
Magnitude (a.u.)       :      0.67064
Magnitude (Debye)      :      1.70462

Rotational constants in cm-1:     0.015124     0.010241     0.007030
Rotational constants in MHz :   453.414162   307.007927   210.764573

                             ****ORCA TERMINATED NORMALLY****
TOTAL RUN TIME: 0 days 0 hours 0 minutes 21 seconds 790 msec
