                         Program Version 4.2.1 -  RELEASE  -
|  1> ! wB97X-D3 SP def2-SVP
|  2> %pal
|  3> nprocs 24
|  4> end
|  5>
|  6> * xyz 0 1
|  7> S 	 -135.311 	 72.5819 	 -66.5457
|  8> C 	 -134.038 	 73.7523 	 -67.0041
|  9> C 	 -134.079 	 74.8722 	 -66.2237
| 10> C 	 -135.312 	 74.9586 	 -65.4643
| 11> C 	 -136.134 	 73.8486 	 -65.707
| 12> H 	 -135.715 	 75.7971 	 -64.8733
| 13> C 	 -133.136 	 76.0469 	 -66.2112
| 14> H 	 -132.297 	 75.7744 	 -66.9196
| 15> H 	 -132.715 	 75.9852 	 -65.1768
| 16> C 	 -133.76 	 77.4027 	 -66.5075
| 17> H 	 -134.744 	 77.397 	 -66.2852
| 18> H 	 -133.237 	 78.28 	 -65.9832
| 19> C 	 -133.789 	 77.584 	 -68.0039
| 20> H 	 -134.254 	 76.7628 	 -68.5492
| 21> H 	 -134.21 	 78.5626 	 -68.2304
| 22> H 	 -132.788 	 77.5702 	 -68.4356
| 23> S 	 -137.721 	 71.9084 	 -64.6364
| 24> C 	 -139.336 	 72.2558 	 -64.2039
| 25> C 	 -139.702 	 73.5869 	 -64.3174
| 26> C 	 -138.592 	 74.3654 	 -64.8342
| 27> C 	 -137.443 	 73.6042 	 -65.0887
| 28> H 	 -140.762 	 73.8986 	 -64.1757
| 29> C 	 -138.699 	 75.8199 	 -65.1747
| 30> H 	 -137.811 	 76.4233 	 -64.9398
| 31> H 	 -139.437 	 76.2415 	 -64.4664
| 32> C 	 -139.082 	 76.1742 	 -66.633
| 33> H 	 -139.518 	 77.196 	 -66.7468
| 34> H 	 -139.933 	 75.5254 	 -66.9524
| 35> C 	 -138.013 	 76.0393 	 -67.6963
| 36> H 	 -137.336 	 76.9156 	 -67.6099
| 37> H 	 -138.393 	 76.1388 	 -68.7101
| 38> H 	 -137.337 	 75.1722 	 -67.7921
| 39> H 	 -133.167 	 73.5384 	 -67.6176
| 40> H 	 -139.979 	 71.5178 	 -63.7782
| 41> *
| 42>
| 43>                          ****END OF INPUT****

CARTESIAN COORDINATES (ANGSTROEM)
---------------------------------
  S    -135.311000   72.581900  -66.545700
  C    -134.038000   73.752300  -67.004100
  C    -134.079000   74.872200  -66.223700
  C    -135.312000   74.958600  -65.464300
  C    -136.134000   73.848600  -65.707000
  H    -135.715000   75.797100  -64.873300
  C    -133.136000   76.046900  -66.211200
  H    -132.297000   75.774400  -66.919600
  H    -132.715000   75.985200  -65.176800
  C    -133.760000   77.402700  -66.507500
  H    -134.744000   77.397000  -66.285200
  H    -133.237000   78.280000  -65.983200
  C    -133.789000   77.584000  -68.003900
  H    -134.254000   76.762800  -68.549200
  H    -134.210000   78.562600  -68.230400
  H    -132.788000   77.570200  -68.435600
  S    -137.721000   71.908400  -64.636400
  C    -139.336000   72.255800  -64.203900
  C    -139.702000   73.586900  -64.317400
  C    -138.592000   74.365400  -64.834200
  C    -137.443000   73.604200  -65.088700
  H    -140.762000   73.898600  -64.175700
  C    -138.699000   75.819900  -65.174700
  H    -137.811000   76.423300  -64.939800
  H    -139.437000   76.241500  -64.466400
  C    -139.082000   76.174200  -66.633000
  H    -139.518000   77.196000  -66.746800
  H    -139.933000   75.525400  -66.952400
  C    -138.013000   76.039300  -67.696300
  H    -137.336000   76.915600  -67.609900
  H    -138.393000   76.138800  -68.710100
  H    -137.337000   75.172200  -67.792100
  H    -133.167000   73.538400  -67.617600
  H    -139.979000   71.517800  -63.778200

 Total Charge           Charge          ....    0
 Multiplicity           Mult            ....    1
 Number of Electrons    NEL             ....  134
 Basis Dimension        Dim             ....  322

ORBITAL ENERGIES
----------------

  NO   OCC          E(Eh)            E(eV)
   0   2.0000     -88.968156     -2420.9466
   1   2.0000     -88.965490     -2420.8740
   2   2.0000     -10.332692      -281.1668
   3   2.0000     -10.329918      -281.0914
   4   2.0000     -10.314922      -280.6833
   5   2.0000     -10.314278      -280.6658
   6   2.0000     -10.309531      -280.5366
   7   2.0000     -10.303376      -280.3691
   8   2.0000     -10.301511      -280.3184
   9   2.0000     -10.298208      -280.2285
  10   2.0000     -10.296202      -280.1739
  11   2.0000     -10.295405      -280.1522
  12   2.0000     -10.291437      -280.0442
  13   2.0000     -10.284335      -279.8510
  14   2.0000     -10.273181      -279.5475
  15   2.0000     -10.272586      -279.5313
  16   2.0000      -8.082666      -219.9405
  17   2.0000      -8.080924      -219.8931
  18   2.0000      -6.041303      -164.3922
  19   2.0000      -6.039299      -164.3377
  20   2.0000      -6.037500      -164.2887
  21   2.0000      -6.035348      -164.2302
  22   2.0000      -6.032983      -164.1658
  23   2.0000      -6.031782      -164.1331
  24   2.0000      -1.007173       -27.4066
  25   2.0000      -0.983601       -26.7651
  26   2.0000      -0.920671       -25.0527
  27   2.0000      -0.906924       -24.6787
  28   2.0000      -0.870753       -23.6944
  29   2.0000      -0.851036       -23.1579
  30   2.0000      -0.843403       -22.9502
  31   2.0000      -0.812241       -22.1022
  32   2.0000      -0.782602       -21.2957
  33   2.0000      -0.773872       -21.0581
  34   2.0000      -0.711254       -19.3542
  35   2.0000      -0.697509       -18.9802
  36   2.0000      -0.690764       -18.7966
  37   2.0000      -0.660307       -17.9679
  38   2.0000      -0.635090       -17.2817
  39   2.0000      -0.620949       -16.8969
  40   2.0000      -0.598155       -16.2766
  41   2.0000      -0.569148       -15.4873
  42   2.0000      -0.559519       -15.2253
  43   2.0000      -0.547574       -14.9002
  44   2.0000      -0.539306       -14.6753
  45   2.0000      -0.531279       -14.4568
  46   2.0000      -0.518432       -14.1072
  47   2.0000      -0.505120       -13.7450
  48   2.0000      -0.501433       -13.6447
  49   2.0000      -0.496047       -13.4981
  50   2.0000      -0.488285       -13.2869
  51   2.0000      -0.479099       -13.0369
  52   2.0000      -0.475853       -12.9486
  53   2.0000      -0.466375       -12.6907
  54   2.0000      -0.452549       -12.3145
  55   2.0000      -0.448493       -12.2041
  56   2.0000      -0.447560       -12.1787
  57   2.0000      -0.438581       -11.9344
  58   2.0000      -0.434683       -11.8283
  59   2.0000      -0.424845       -11.5606
  60   2.0000      -0.419024       -11.4022
  61   2.0000      -0.412853       -11.2343
  62   2.0000      -0.406321       -11.0565
  63   2.0000      -0.354147        -9.6368
  64   2.0000      -0.334353        -9.0982
  65   2.0000      -0.327671        -8.9164
  66   2.0000      -0.284655        -7.7458
  67   0.0000       0.022622         0.6156
  68   0.0000       0.070966         1.9311
  69   0.0000       0.097452         2.6518
  70   0.0000       0.115217         3.1352
  71   0.0000       0.128578         3.4988

MULLIKEN ATOMIC CHARGES
-----------------------
   0 S :    0.099700
   1 C :   -0.114063
   2 C :   -0.098995
   3 C :   -0.002936
   4 C :   -0.122964
   5 H :    0.031224
   6 C :    0.041816
   7 H :    0.023424
   8 H :    0.048309
   9 C :   -0.012170
  10 H :    0.001038
  11 H :    0.045952
  12 C :   -0.062753
  13 H :    0.037647
  14 H :    0.032056
  15 H :    0.014728
  16 S :    0.094223
  17 C :   -0.081676
  18 C :   -0.044130
  19 C :   -0.046226
  20 C :   -0.144409
  21 H :    0.041238
  22 C :    0.057991
  23 H :    0.016454
  24 H :    0.022251
  25 C :   -0.060589
  26 H :    0.033486
  27 H :    0.025976
  28 C :   -0.065600
  29 H :    0.018418
  30 H :    0.023046
  31 H :    0.053979
  32 H :    0.042726
  33 H :    0.050829
Sum of atomic charges:   -0.0000000

LOEWDIN ATOMIC CHARGES
----------------------
   0 S :    0.389707
   1 C :   -0.196537
   2 C :   -0.058113
   3 C :   -0.069661
   4 C :   -0.190754
   5 H :    0.033381
   6 C :   -0.035110
   7 H :    0.031808
   8 H :    0.041528
   9 C :   -0.036513
  10 H :    0.008052
  11 H :    0.037059
  12 C :   -0.062017
  13 H :    0.028015
  14 H :    0.024567
  15 H :    0.019799
  16 S :    0.406587
  17 C :   -0.189786
  18 C :   -0.076210
  19 C :   -0.056692
  20 C :   -0.183602
  21 H :    0.043041
  22 C :   -0.039360
  23 H :    0.027005
  24 H :    0.035798
  25 C :   -0.043837
  26 H :    0.031200
  27 H :    0.025385
  28 C :   -0.077728
  29 H :    0.022717
  30 H :    0.026594
  31 H :    0.031445
  32 H :    0.028416
  33 H :    0.023815

  Mayer bond orders larger than 0.100000
B(  0-S ,  1-C ) :   1.0959 B(  0-S ,  4-C ) :   1.1439 B(  1-C ,  2-C ) :   1.6520
B(  1-C , 32-H ) :   0.9639 B(  2-C ,  3-C ) :   1.1910 B(  2-C ,  6-C ) :   1.0289
B(  3-C ,  4-C ) :   1.5772 B(  3-C ,  5-H ) :   0.9868 B(  4-C , 20-C ) :   1.0623
B(  6-C ,  7-H ) :   0.9476 B(  6-C ,  8-H ) :   0.9267 B(  6-C ,  9-C ) :   1.0570
B(  9-C , 10-H ) :   0.9565 B(  9-C , 11-H ) :   0.9515 B(  9-C , 12-C ) :   1.0751
B( 12-C , 13-H ) :   0.9743 B( 12-C , 14-H ) :   0.9719 B( 12-C , 15-H ) :   0.9741
B( 16-S , 17-C ) :   1.1729 B( 16-S , 20-C ) :   1.1296 B( 17-C , 18-C ) :   1.6120
B( 17-C , 33-H ) :   0.9663 B( 18-C , 19-C ) :   1.2350 B( 18-C , 21-H ) :   0.9843
B( 19-C , 20-C ) :   1.6016 B( 19-C , 22-C ) :   1.0491 B( 22-C , 23-H ) :   0.9405
B( 22-C , 24-H ) :   0.9247 B( 22-C , 25-C ) :   1.0625 B( 25-C , 26-H ) :   0.9527
B( 25-C , 27-H ) :   0.9560 B( 25-C , 28-C ) :   1.0798 B( 28-C , 29-H ) :   0.9719
B( 28-C , 30-H ) :   0.9685 B( 28-C , 31-H ) :   0.9743

Dispersion correction           -0.016332352
FINAL SINGLE POINT ENERGY     -1339.872966104012

DIPOLE MOMENT
-------------
                                X             Y             Z
Electronic contribution:     -3.18072     -27.44248      10.59583
Nuclear contribution   :      3.09345      28.05399     -10.58150
                        -----------------------------------------
Total Dipole Moment    :     -0.08727       0.61151       0.01434
                        -----------------------------------------
Magnitude (a.u.)       :      0.61787
Magnitude (Debye)      :      1.57051

Rotational constants in cm-1:     0.021339     0.009931     0.007646
Rotational constants in MHz :   639.721242   297.710946   229.224835

                             ****ORCA TERMINATED NORMALLY****
TOTAL RUN TIME: 0 days 0 hours 0 minutes 23 seconds 593 msec
