                         Program Version 4.2.1 -  RELEASE  -
|  1> ! wB97X-D3 SP def2-SVP
|  2> %pal
|  3> nprocs 24
|  4> end
|  5>
|  6> * xyz 0 1
|  7> S 	 -47.4828 	 4.98185 	 -18.5056
|  8> C 	 -48.1861 	 3.72317 	 -19.5446
|  9> C 	 -49.5753 	 3.6166 	 -19.3257
| 10> C 	 -49.996 	 4.58786 	 -18.3218
| 11> C 	 -48.9682 	 5.27319 	 -17.7426
| 12> H 	 -50.9466 	 4.64854 	 -17.8764
| 13> C 	 -50.5678 	 2.64927 	 -20.0368
| 14> H 	 -51.5729 	 2.63245 	 -19.5764
| 15> H 	 -50.2196 	 1.65782 	 -19.8613
| 16> C 	 -50.5739 	 2.92172 	 -21.5789
| 17> H 	 -50.9778 	 3.94683 	 -21.7516
| 18> H 	 -49.47 	 2.98244 	 -21.8503
| 19> C 	 -51.4486 	 2.03428 	 -22.4979
| 20> H 	 -51.587 	 2.43525 	 -23.4618
| 21> H 	 -50.9555 	 1.0573 	 -22.7141
| 22> H 	 -52.4682 	 1.89807 	 -22.009
| 23> S 	 -48.7195 	 7.9567 	 -17.0598
| 24> C 	 -48.9772 	 8.40336 	 -15.4405
| 25> C 	 -49.6006 	 7.38506 	 -14.6914
| 26> C 	 -49.6427 	 6.19129 	 -15.4841
| 27> C 	 -49.1277 	 6.29484 	 -16.7399
| 28> H 	 -49.7948 	 7.50103 	 -13.6992
| 29> C 	 -50.1742 	 4.89987 	 -14.8395
| 30> H 	 -51.1064 	 4.64348 	 -15.3569
| 31> H 	 -50.3559 	 5.05317 	 -13.7889
| 32> C 	 -49.2822 	 3.64613 	 -14.9942
| 33> H 	 -49.2308 	 3.4189 	 -16.0391
| 34> H 	 -49.8369 	 2.77575 	 -14.6574
| 35> C 	 -47.9192 	 3.66297 	 -14.3207
| 36> H 	 -47.2442 	 4.09799 	 -15.0056
| 37> H 	 -47.5676 	 2.66189 	 -14.1467
| 38> H 	 -47.9623 	 4.25522 	 -13.4037
| 39> H 	 -47.6603 	 2.98431 	 -20.0648
| 40> H 	 -48.7388 	 9.41824 	 -15.132
| 41> *
| 42>
| 43>                          ****END OF INPUT****

CARTESIAN COORDINATES (ANGSTROEM)
---------------------------------
  S    -47.482800    4.981850  -18.505600
  C    -48.186100    3.723170  -19.544600
  C    -49.575300    3.616600  -19.325700
  C    -49.996000    4.587860  -18.321800
  C    -48.968200    5.273190  -17.742600
  H    -50.946600    4.648540  -17.876400
  C    -50.567800    2.649270  -20.036800
  H    -51.572900    2.632450  -19.576400
  H    -50.219600    1.657820  -19.861300
  C    -50.573900    2.921720  -21.578900
  H    -50.977800    3.946830  -21.751600
  H    -49.470000    2.982440  -21.850300
  C    -51.448600    2.034280  -22.497900
  H    -51.587000    2.435250  -23.461800
  H    -50.955500    1.057300  -22.714100
  H    -52.468200    1.898070  -22.009000
  S    -48.719500    7.956700  -17.059800
  C    -48.977200    8.403360  -15.440500
  C    -49.600600    7.385060  -14.691400
  C    -49.642700    6.191290  -15.484100
  C    -49.127700    6.294840  -16.739900
  H    -49.794800    7.501030  -13.699200
  C    -50.174200    4.899870  -14.839500
  H    -51.106400    4.643480  -15.356900
  H    -50.355900    5.053170  -13.788900
  C    -49.282200    3.646130  -14.994200
  H    -49.230800    3.418900  -16.039100
  H    -49.836900    2.775750  -14.657400
  C    -47.919200    3.662970  -14.320700
  H    -47.244200    4.097990  -15.005600
  H    -47.567600    2.661890  -14.146700
  H    -47.962300    4.255220  -13.403700
  H    -47.660300    2.984310  -20.064800
  H    -48.738800    9.418240  -15.132000

 Total Charge           Charge          ....    0
 Multiplicity           Mult            ....    1
 Number of Electrons    NEL             ....  134
 Basis Dimension        Dim             ....  322

ORBITAL ENERGIES
----------------

  NO   OCC          E(Eh)            E(eV)
   0   2.0000     -88.969870     -2420.9932
   1   2.0000     -88.963317     -2420.8149
   2   2.0000     -10.322921      -280.9010
   3   2.0000     -10.317499      -280.7534
   4   2.0000     -10.317179      -280.7447
   5   2.0000     -10.316545      -280.7275
   6   2.0000     -10.313164      -280.6355
   7   2.0000     -10.300472      -280.2901
   8   2.0000     -10.299686      -280.2687
   9   2.0000     -10.297225      -280.2017
  10   2.0000     -10.289949      -280.0038
  11   2.0000     -10.289827      -280.0004
  12   2.0000     -10.288812      -279.9728
  13   2.0000     -10.285628      -279.8862
  14   2.0000     -10.271587      -279.5041
  15   2.0000     -10.263657      -279.2883
  16   2.0000      -8.084810      -219.9989
  17   2.0000      -8.079408      -219.8519
  18   2.0000      -6.043302      -164.4466
  19   2.0000      -6.039155      -164.3338
  20   2.0000      -6.037763      -164.2959
  21   2.0000      -6.035702      -164.2398
  22   2.0000      -6.033651      -164.1840
  23   2.0000      -6.030337      -164.0938
  24   2.0000      -1.013563       -27.5804
  25   2.0000      -0.987059       -26.8592
  26   2.0000      -0.906514       -24.6675
  27   2.0000      -0.904083       -24.6013
  28   2.0000      -0.867844       -23.6152
  29   2.0000      -0.850707       -23.1489
  30   2.0000      -0.845586       -23.0096
  31   2.0000      -0.813336       -22.1320
  32   2.0000      -0.786686       -21.4068
  33   2.0000      -0.776262       -21.1232
  34   2.0000      -0.706795       -19.2329
  35   2.0000      -0.696835       -18.9618
  36   2.0000      -0.684925       -18.6378
  37   2.0000      -0.671503       -18.2725
  38   2.0000      -0.648346       -17.6424
  39   2.0000      -0.615383       -16.7454
  40   2.0000      -0.590394       -16.0654
  41   2.0000      -0.573909       -15.6169
  42   2.0000      -0.558072       -15.1859
  43   2.0000      -0.551617       -15.0103
  44   2.0000      -0.543701       -14.7948
  45   2.0000      -0.523641       -14.2490
  46   2.0000      -0.518120       -14.0988
  47   2.0000      -0.512685       -13.9509
  48   2.0000      -0.505460       -13.7543
  49   2.0000      -0.498267       -13.5585
  50   2.0000      -0.492560       -13.4033
  51   2.0000      -0.481078       -13.0908
  52   2.0000      -0.474096       -12.9008
  53   2.0000      -0.468653       -12.7527
  54   2.0000      -0.461638       -12.5618
  55   2.0000      -0.451284       -12.2801
  56   2.0000      -0.438945       -11.9443
  57   2.0000      -0.434208       -11.8154
  58   2.0000      -0.430959       -11.7270
  59   2.0000      -0.427995       -11.6463
  60   2.0000      -0.420442       -11.4408
  61   2.0000      -0.413563       -11.2536
  62   2.0000      -0.403593       -10.9823
  63   2.0000      -0.339567        -9.2401
  64   2.0000      -0.334235        -9.0950
  65   2.0000      -0.328485        -8.9385
  66   2.0000      -0.297192        -8.0870
  67   0.0000       0.033504         0.9117
  68   0.0000       0.065253         1.7756
  69   0.0000       0.115195         3.1346
  70   0.0000       0.119580         3.2539
  71   0.0000       0.128954         3.5090

MULLIKEN ATOMIC CHARGES
-----------------------
   0 S :    0.127263
   1 C :   -0.108801
   2 C :   -0.103638
   3 C :    0.054180
   4 C :   -0.189199
   5 H :   -0.006963
   6 C :    0.098038
   7 H :    0.024337
   8 H :    0.022313
   9 C :   -0.132455
  10 H :    0.038292
  11 H :    0.039470
  12 C :   -0.034524
  13 H :    0.029451
  14 H :    0.033835
  15 H :    0.042250
  16 S :    0.122691
  17 C :   -0.107908
  18 C :    0.005004
  19 C :   -0.039701
  20 C :   -0.150478
  21 H :   -0.014229
  22 C :    0.082289
  23 H :    0.031054
  24 H :    0.013920
  25 C :   -0.090400
  26 H :    0.025194
  27 H :    0.010047
  28 C :    0.008579
  29 H :    0.019521
  30 H :    0.026400
  31 H :    0.025517
  32 H :    0.036831
  33 H :    0.061818
Sum of atomic charges:    0.0000000

LOEWDIN ATOMIC CHARGES
----------------------
   0 S :    0.428356
   1 C :   -0.192845
   2 C :   -0.044135
   3 C :   -0.060436
   4 C :   -0.210761
   5 H :    0.022375
   6 C :   -0.030925
   7 H :    0.030248
   8 H :    0.026010
   9 C :   -0.049237
  10 H :    0.028860
  11 H :    0.029452
  12 C :   -0.071302
  13 H :    0.020876
  14 H :    0.027315
  15 H :    0.035141
  16 S :    0.431006
  17 C :   -0.189937
  18 C :   -0.062065
  19 C :   -0.052915
  20 C :   -0.215812
  21 H :    0.015387
  22 C :   -0.024259
  23 H :    0.033797
  24 H :    0.023598
  25 C :   -0.046620
  26 H :    0.020899
  27 H :    0.020566
  28 C :   -0.056970
  29 H :    0.019959
  30 H :    0.025646
  31 H :    0.025190
  32 H :    0.016844
  33 H :    0.026691

  Mayer bond orders larger than 0.100000
B(  0-S ,  1-C ) :   1.1348 B(  0-S ,  4-C ) :   1.1646 B(  1-C ,  2-C ) :   1.6087
B(  1-C , 32-H ) :   0.9704 B(  2-C ,  3-C ) :   1.2378 B(  2-C ,  6-C ) :   1.0145
B(  3-C ,  4-C ) :   1.5774 B(  3-C ,  5-H ) :   0.9977 B(  4-C , 20-C ) :   1.0200
B(  6-C ,  7-H ) :   0.9455 B(  6-C ,  8-H ) :   0.9380 B(  6-C ,  9-C ) :   1.0468
B(  9-C , 10-H ) :   0.9599 B(  9-C , 11-H ) :   0.9597 B(  9-C , 12-C ) :   1.0735
B( 12-C , 13-H ) :   0.9759 B( 12-C , 14-H ) :   0.9748 B( 12-C , 15-H ) :   0.9716
B( 16-S , 17-C ) :   1.1966 B( 16-S , 20-C ) :   1.1393 B( 17-C , 18-C ) :   1.5570
B( 17-C , 33-H ) :   0.9684 B( 18-C , 19-C ) :   1.2510 B( 18-C , 21-H ) :   1.0130
B( 19-C , 20-C ) :   1.6100 B( 19-C , 22-C ) :   1.0328 B( 22-C , 23-H ) :   0.9267
B( 22-C , 24-H ) :   0.9413 B( 22-C , 25-C ) :   1.0898 B( 25-C , 26-H ) :   0.9479
B( 25-C , 27-H ) :   0.9506 B( 25-C , 28-C ) :   1.0713 B( 28-C , 29-H ) :   0.9714
B( 28-C , 30-H ) :   0.9739 B( 28-C , 31-H ) :   0.9775

Dispersion correction           -0.015289594
FINAL SINGLE POINT ENERGY     -1339.874561232664

DIPOLE MOMENT
-------------
                                X             Y             Z
Electronic contribution:     10.71318      21.25685       3.06350
Nuclear contribution   :    -11.09771     -21.70398      -3.01070
                        -----------------------------------------
Total Dipole Moment    :     -0.38453      -0.44714       0.05281
                        -----------------------------------------
Magnitude (a.u.)       :      0.59210
Magnitude (Debye)      :      1.50499

Rotational constants in cm-1:     0.022804     0.007727     0.006987
Rotational constants in MHz :   683.657089   231.639963   209.460192

                             ****ORCA TERMINATED NORMALLY****
TOTAL RUN TIME: 0 days 0 hours 0 minutes 22 seconds 172 msec
