                         Program Version 4.2.1 -  RELEASE  -
|  1> ! wB97X-D3 SP def2-SVP
|  2> %pal
|  3> nprocs 24
|  4> end
|  5>
|  6> * xyz 0 1
|  7> S 	 33.6637 	 -36.5789 	 -130.194
|  8> C 	 34.0205 	 -34.9708 	 -129.547
|  9> C 	 33.9943 	 -34.0539 	 -130.586
| 10> C 	 33.5414 	 -34.6311 	 -131.829
| 11> C 	 33.2948 	 -35.9699 	 -131.742
| 12> H 	 33.3711 	 -34.2397 	 -132.781
| 13> C 	 34.259 	 -32.5507 	 -130.487
| 14> H 	 34.9148 	 -32.2386 	 -131.26
| 15> H 	 34.5761 	 -32.3442 	 -129.469
| 16> C 	 32.976 	 -31.7465 	 -130.738
| 17> H 	 32.6605 	 -32.0089 	 -131.769
| 18> H 	 32.0591 	 -32.0146 	 -130.13
| 19> C 	 33.1279 	 -30.2543 	 -130.567
| 20> H 	 33.136 	 -29.9378 	 -129.557
| 21> H 	 34.0053 	 -29.8763 	 -131.153
| 22> H 	 32.3235 	 -29.6854 	 -130.957
| 23> S 	 33.9049 	 -38.0084 	 -133.488
| 24> C 	 32.6115 	 -38.6917 	 -134.523
| 25> C 	 31.4748 	 -37.9656 	 -134.437
| 26> C 	 31.5131 	 -36.9096 	 -133.454
| 27> C 	 32.7716 	 -36.8663 	 -132.812
| 28> H 	 30.6502 	 -38.3147 	 -135.025
| 29> C 	 30.3412 	 -35.9663 	 -133.175
| 30> H 	 29.5228 	 -36.3075 	 -133.846
| 31> H 	 30.6812 	 -34.9415 	 -133.293
| 32> C 	 29.8629 	 -36.1316 	 -131.675
| 33> H 	 28.9701 	 -35.5145 	 -131.456
| 34> H 	 30.5911 	 -35.6869 	 -130.928
| 35> C 	 29.6803 	 -37.5609 	 -131.221
| 36> H 	 29.2198 	 -37.4738 	 -130.221
| 37> H 	 30.6598 	 -38.0893 	 -131.161
| 38> H 	 29.0106 	 -38.1939 	 -131.858
| 39> H 	 34.2855 	 -34.7611 	 -128.471
| 40> H 	 32.6721 	 -39.623 	 -135.045
| 41> *
| 42>
| 43>                          ****END OF INPUT****

CARTESIAN COORDINATES (ANGSTROEM)
---------------------------------
  S     33.663700  -36.578900  -130.194000
  C     34.020500  -34.970800  -129.547000
  C     33.994300  -34.053900  -130.586000
  C     33.541400  -34.631100  -131.829000
  C     33.294800  -35.969900  -131.742000
  H     33.371100  -34.239700  -132.781000
  C     34.259000  -32.550700  -130.487000
  H     34.914800  -32.238600  -131.260000
  H     34.576100  -32.344200  -129.469000
  C     32.976000  -31.746500  -130.738000
  H     32.660500  -32.008900  -131.769000
  H     32.059100  -32.014600  -130.130000
  C     33.127900  -30.254300  -130.567000
  H     33.136000  -29.937800  -129.557000
  H     34.005300  -29.876300  -131.153000
  H     32.323500  -29.685400  -130.957000
  S     33.904900  -38.008400  -133.488000
  C     32.611500  -38.691700  -134.523000
  C     31.474800  -37.965600  -134.437000
  C     31.513100  -36.909600  -133.454000
  C     32.771600  -36.866300  -132.812000
  H     30.650200  -38.314700  -135.025000
  C     30.341200  -35.966300  -133.175000
  H     29.522800  -36.307500  -133.846000
  H     30.681200  -34.941500  -133.293000
  C     29.862900  -36.131600  -131.675000
  H     28.970100  -35.514500  -131.456000
  H     30.591100  -35.686900  -130.928000
  C     29.680300  -37.560900  -131.221000
  H     29.219800  -37.473800  -130.221000
  H     30.659800  -38.089300  -131.161000
  H     29.010600  -38.193900  -131.858000
  H     34.285500  -34.761100  -128.471000
  H     32.672100  -39.623000  -135.045000

 Total Charge           Charge          ....    0
 Multiplicity           Mult            ....    1
 Number of Electrons    NEL             ....  134
 Basis Dimension        Dim             ....  322

ORBITAL ENERGIES
----------------

  NO   OCC          E(Eh)            E(eV)
   0   2.0000     -88.964942     -2420.8591
   1   2.0000     -88.964890     -2420.8577
   2   2.0000     -10.329352      -281.0760
   3   2.0000     -10.325882      -280.9815
   4   2.0000     -10.322389      -280.8865
   5   2.0000     -10.314929      -280.6835
   6   2.0000     -10.308950      -280.5208
   7   2.0000     -10.307404      -280.4787
   8   2.0000     -10.298151      -280.2269
   9   2.0000     -10.292750      -280.0800
  10   2.0000     -10.292672      -280.0778
  11   2.0000     -10.290022      -280.0057
  12   2.0000     -10.288928      -279.9760
  13   2.0000     -10.287155      -279.9277
  14   2.0000     -10.274343      -279.5791
  15   2.0000     -10.273879      -279.5665
  16   2.0000      -8.080090      -219.8704
  17   2.0000      -8.079132      -219.8444
  18   2.0000      -6.038557      -164.3175
  19   2.0000      -6.037644      -164.2926
  20   2.0000      -6.034444      -164.2056
  21   2.0000      -6.033740      -164.1864
  22   2.0000      -6.030947      -164.1104
  23   2.0000      -6.029897      -164.0818
  24   2.0000      -1.007229       -27.4081
  25   2.0000      -0.982561       -26.7368
  26   2.0000      -0.915017       -24.8989
  27   2.0000      -0.900354       -24.4999
  28   2.0000      -0.870104       -23.6767
  29   2.0000      -0.848641       -23.0927
  30   2.0000      -0.840868       -22.8812
  31   2.0000      -0.818924       -22.2840
  32   2.0000      -0.785309       -21.3694
  33   2.0000      -0.769047       -20.9268
  34   2.0000      -0.704801       -19.1786
  35   2.0000      -0.693178       -18.8623
  36   2.0000      -0.678688       -18.4680
  37   2.0000      -0.658901       -17.9296
  38   2.0000      -0.649993       -17.6872
  39   2.0000      -0.618541       -16.8314
  40   2.0000      -0.583955       -15.8902
  41   2.0000      -0.578861       -15.7516
  42   2.0000      -0.562778       -15.3140
  43   2.0000      -0.551656       -15.0113
  44   2.0000      -0.542706       -14.7678
  45   2.0000      -0.519360       -14.1325
  46   2.0000      -0.517301       -14.0765
  47   2.0000      -0.513393       -13.9701
  48   2.0000      -0.502729       -13.6799
  49   2.0000      -0.499117       -13.5817
  50   2.0000      -0.488197       -13.2845
  51   2.0000      -0.483720       -13.1627
  52   2.0000      -0.472999       -12.8710
  53   2.0000      -0.467568       -12.7232
  54   2.0000      -0.459161       -12.4944
  55   2.0000      -0.445782       -12.1303
  56   2.0000      -0.439279       -11.9534
  57   2.0000      -0.430266       -11.7081
  58   2.0000      -0.428697       -11.6654
  59   2.0000      -0.423236       -11.5168
  60   2.0000      -0.420305       -11.4371
  61   2.0000      -0.415424       -11.3043
  62   2.0000      -0.404457       -11.0058
  63   2.0000      -0.341098        -9.2817
  64   2.0000      -0.329922        -8.9776
  65   2.0000      -0.326147        -8.8749
  66   2.0000      -0.304110        -8.2753
  67   0.0000       0.038004         1.0341
  68   0.0000       0.063013         1.7147
  69   0.0000       0.111497         3.0340
  70   0.0000       0.118820         3.2332
  71   0.0000       0.130440         3.5495

MULLIKEN ATOMIC CHARGES
-----------------------
   0 S :    0.114287
   1 C :   -0.155741
   2 C :   -0.070778
   3 C :    0.060638
   4 C :   -0.179043
   5 H :   -0.012181
   6 C :    0.137523
   7 H :    0.025991
   8 H :    0.015081
   9 C :   -0.137159
  10 H :    0.023625
  11 H :    0.035622
  12 C :   -0.014115
  13 H :    0.026781
  14 H :    0.026149
  15 H :    0.018251
  16 S :    0.105253
  17 C :   -0.087953
  18 C :   -0.031209
  19 C :   -0.053013
  20 C :   -0.184268
  21 H :    0.015031
  22 C :    0.126345
  23 H :    0.029857
  24 H :    0.037941
  25 C :   -0.127691
  26 H :    0.029797
  27 H :    0.046353
  28 C :   -0.060509
  29 H :    0.037156
  30 H :    0.050896
  31 H :    0.027550
  32 H :    0.073143
  33 H :    0.050388
Sum of atomic charges:   -0.0000000

LOEWDIN ATOMIC CHARGES
----------------------
   0 S :    0.417627
   1 C :   -0.205308
   2 C :   -0.055119
   3 C :   -0.063151
   4 C :   -0.208183
   5 H :    0.023269
   6 C :   -0.020744
   7 H :    0.030808
   8 H :    0.027546
   9 C :   -0.048453
  10 H :    0.020731
  11 H :    0.029864
  12 C :   -0.067521
  13 H :    0.021181
  14 H :    0.028466
  15 H :    0.023722
  16 S :    0.390851
  17 C :   -0.168709
  18 C :   -0.071941
  19 C :   -0.052978
  20 C :   -0.204487
  21 H :    0.031747
  22 C :   -0.027390
  23 H :    0.034996
  24 H :    0.033448
  25 C :   -0.052627
  26 H :    0.022413
  27 H :    0.032682
  28 C :   -0.074843
  29 H :    0.030596
  30 H :    0.029333
  31 H :    0.021649
  32 H :    0.043265
  33 H :    0.027260

  Mayer bond orders larger than 0.100000
B(  0-S ,  1-C ) :   1.1304 B(  0-S ,  4-C ) :   1.1681 B(  1-C ,  2-C ) :   1.6223
B(  1-C , 32-H ) :   0.9640 B(  2-C ,  3-C ) :   1.1902 B(  2-C ,  6-C ) :   1.0403
B(  3-C ,  4-C ) :   1.6126 B(  3-C ,  5-H ) :   1.0032 B(  4-C , 20-C ) :   0.9889
B(  6-C ,  7-H ) :   0.9290 B(  6-C ,  8-H ) :   0.9430 B(  6-C ,  9-C ) :   1.0572
B(  9-C , 10-H ) :   0.9546 B(  9-C , 11-H ) :   0.9553 B(  9-C , 12-C ) :   1.0934
B( 12-C , 13-H ) :   0.9743 B( 12-C , 14-H ) :   0.9697 B( 12-C , 15-H ) :   0.9686
B( 16-S , 17-C ) :   1.1308 B( 16-S , 20-C ) :   1.1604 B( 17-C , 18-C ) :   1.6533
B( 17-C , 33-H ) :   0.9661 B( 18-C , 19-C ) :   1.2177 B( 18-C , 21-H ) :   0.9877
B( 19-C , 20-C ) :   1.5928 B( 19-C , 22-C ) :   1.0338 B( 22-C , 23-H ) :   0.9356
B( 22-C , 24-H ) :   0.9352 B( 22-C , 25-C ) :   1.0603 B( 25-C , 26-H ) :   0.9610
B( 25-C , 27-H ) :   0.9497 B( 25-C , 28-C ) :   1.0802 B( 28-C , 29-H ) :   0.9707
B( 28-C , 30-H ) :   0.9642 B( 28-C , 31-H ) :   0.9772

Dispersion correction           -0.015725804
FINAL SINGLE POINT ENERGY     -1339.882958636004

DIPOLE MOMENT
-------------
                                X             Y             Z
Electronic contribution:     14.16167     -20.57666      -5.00277
Nuclear contribution   :    -14.54877      21.07742       4.96406
                        -----------------------------------------
Total Dipole Moment    :     -0.38710       0.50076      -0.03871
                        -----------------------------------------
Magnitude (a.u.)       :      0.63412
Magnitude (Debye)      :      1.61181

Rotational constants in cm-1:     0.021163     0.008360     0.007608
Rotational constants in MHz :   634.437614   250.627114   228.088001

                             ****ORCA TERMINATED NORMALLY****
TOTAL RUN TIME: 0 days 0 hours 0 minutes 22 seconds 539 msec
