                         Program Version 4.2.1 -  RELEASE  -
|  1> ! wB97X-D3 SP def2-SVP
|  2> %pal
|  3> nprocs 24
|  4> end
|  5>
|  6> * xyz 0 1
|  7> S 	 -78.2212 	 -0.613396 	 -58.8772
|  8> C 	 -79.9346 	 -0.22586 	 -58.614
|  9> C 	 -80.7914 	 -1.28094 	 -58.8941
| 10> C 	 -79.9858 	 -2.46455 	 -59.1937
| 11> C 	 -78.6089 	 -2.24868 	 -59.154
| 12> H 	 -80.3737 	 -3.34097 	 -59.456
| 13> C 	 -82.3069 	 -1.20212 	 -58.813
| 14> H 	 -82.7308 	 -1.52061 	 -59.7912
| 15> H 	 -82.496 	 -0.0941367 	 -58.8469
| 16> C 	 -82.9378 	 -1.94392 	 -57.5878
| 17> H 	 -82.8729 	 -3.04938 	 -57.664
| 18> H 	 -82.3577 	 -1.74265 	 -56.6616
| 19> C 	 -84.3908 	 -1.64522 	 -57.2828
| 20> H 	 -85.0339 	 -1.8073 	 -58.1417
| 21> H 	 -84.8609 	 -2.08535 	 -56.3757
| 22> H 	 -84.6059 	 -0.572243 	 -57.029
| 23> S 	 -76.4545 	 -3.28254 	 -60.6949
| 24> C 	 -75.7429 	 -4.76874 	 -60.1629
| 25> C 	 -76.288 	 -5.22468 	 -58.945
| 26> C 	 -77.2615 	 -4.33557 	 -58.4121
| 27> C 	 -77.5322 	 -3.24535 	 -59.2321
| 28> H 	 -76.0924 	 -6.15432 	 -58.4031
| 29> C 	 -77.9872 	 -4.7659 	 -57.154
| 30> H 	 -78.0031 	 -5.82786 	 -56.9993
| 31> H 	 -79.0492 	 -4.41612 	 -57.1597
| 32> C 	 -77.382 	 -4.27497 	 -55.8442
| 33> H 	 -76.3082 	 -4.5549 	 -55.8308
| 34> H 	 -77.6883 	 -4.91375 	 -55.0201
| 35> C 	 -77.4862 	 -2.81254 	 -55.5191
| 36> H 	 -78.5198 	 -2.69787 	 -55.27
| 37> H 	 -77.2442 	 -2.15261 	 -56.3609
| 38> H 	 -76.8102 	 -2.54109 	 -54.6766
| 39> H 	 -80.1991 	 0.777219 	 -58.4426
| 40> H 	 -74.974 	 -5.23081 	 -60.7691
| 41> *
| 42>
| 43>                          ****END OF INPUT****

CARTESIAN COORDINATES (ANGSTROEM)
---------------------------------
  S    -78.221200   -0.613396  -58.877200
  C    -79.934600   -0.225860  -58.614000
  C    -80.791400   -1.280940  -58.894100
  C    -79.985800   -2.464550  -59.193700
  C    -78.608900   -2.248680  -59.154000
  H    -80.373700   -3.340970  -59.456000
  C    -82.306900   -1.202120  -58.813000
  H    -82.730800   -1.520610  -59.791200
  H    -82.496000   -0.094137  -58.846900
  C    -82.937800   -1.943920  -57.587800
  H    -82.872900   -3.049380  -57.664000
  H    -82.357700   -1.742650  -56.661600
  C    -84.390800   -1.645220  -57.282800
  H    -85.033900   -1.807300  -58.141700
  H    -84.860900   -2.085350  -56.375700
  H    -84.605900   -0.572243  -57.029000
  S    -76.454500   -3.282540  -60.694900
  C    -75.742900   -4.768740  -60.162900
  C    -76.288000   -5.224680  -58.945000
  C    -77.261500   -4.335570  -58.412100
  C    -77.532200   -3.245350  -59.232100
  H    -76.092400   -6.154320  -58.403100
  C    -77.987200   -4.765900  -57.154000
  H    -78.003100   -5.827860  -56.999300
  H    -79.049200   -4.416120  -57.159700
  C    -77.382000   -4.274970  -55.844200
  H    -76.308200   -4.554900  -55.830800
  H    -77.688300   -4.913750  -55.020100
  C    -77.486200   -2.812540  -55.519100
  H    -78.519800   -2.697870  -55.270000
  H    -77.244200   -2.152610  -56.360900
  H    -76.810200   -2.541090  -54.676600
  H    -80.199100    0.777219  -58.442600
  H    -74.974000   -5.230810  -60.769100

 Total Charge           Charge          ....    0
 Multiplicity           Mult            ....    1
 Number of Electrons    NEL             ....  134
 Basis Dimension        Dim             ....  322

ORBITAL ENERGIES
----------------

  NO   OCC          E(Eh)            E(eV)
   0   2.0000     -88.966992     -2420.9149
   1   2.0000     -88.965261     -2420.8678
   2   2.0000     -10.330505      -281.1073
   3   2.0000     -10.327958      -281.0380
   4   2.0000     -10.323693      -280.9220
   5   2.0000     -10.313581      -280.6468
   6   2.0000     -10.308444      -280.5070
   7   2.0000     -10.307698      -280.4867
   8   2.0000     -10.304026      -280.3868
   9   2.0000     -10.298191      -280.2280
  10   2.0000     -10.297425      -280.2072
  11   2.0000     -10.290246      -280.0118
  12   2.0000     -10.289835      -280.0007
  13   2.0000     -10.283376      -279.8249
  14   2.0000     -10.277807      -279.6734
  15   2.0000     -10.267024      -279.3799
  16   2.0000      -8.081192      -219.9004
  17   2.0000      -8.080451      -219.8803
  18   2.0000      -6.039659      -164.3475
  19   2.0000      -6.038803      -164.3242
  20   2.0000      -6.035703      -164.2398
  21   2.0000      -6.034908      -164.2182
  22   2.0000      -6.032104      -164.1419
  23   2.0000      -6.031326      -164.1207
  24   2.0000      -1.002632       -27.2830
  25   2.0000      -0.979966       -26.6662
  26   2.0000      -0.909804       -24.7570
  27   2.0000      -0.908713       -24.7273
  28   2.0000      -0.866138       -23.5688
  29   2.0000      -0.851764       -23.1777
  30   2.0000      -0.845556       -23.0088
  31   2.0000      -0.809987       -22.0409
  32   2.0000      -0.785677       -21.3794
  33   2.0000      -0.773447       -21.0465
  34   2.0000      -0.707559       -19.2536
  35   2.0000      -0.696169       -18.9437
  36   2.0000      -0.687393       -18.7049
  37   2.0000      -0.661433       -17.9985
  38   2.0000      -0.652432       -17.7536
  39   2.0000      -0.618822       -16.8390
  40   2.0000      -0.600440       -16.3388
  41   2.0000      -0.566967       -15.4279
  42   2.0000      -0.550107       -14.9692
  43   2.0000      -0.548802       -14.9337
  44   2.0000      -0.539664       -14.6850
  45   2.0000      -0.527023       -14.3410
  46   2.0000      -0.520844       -14.1729
  47   2.0000      -0.513758       -13.9801
  48   2.0000      -0.502699       -13.6791
  49   2.0000      -0.497474       -13.5370
  50   2.0000      -0.493760       -13.4359
  51   2.0000      -0.477109       -12.9828
  52   2.0000      -0.468750       -12.7553
  53   2.0000      -0.461641       -12.5619
  54   2.0000      -0.456796       -12.4300
  55   2.0000      -0.449421       -12.2294
  56   2.0000      -0.440512       -11.9869
  57   2.0000      -0.436604       -11.8806
  58   2.0000      -0.433011       -11.7828
  59   2.0000      -0.428243       -11.6531
  60   2.0000      -0.424930       -11.5629
  61   2.0000      -0.412183       -11.2161
  62   2.0000      -0.400117       -10.8877
  63   2.0000      -0.335362        -9.1257
  64   2.0000      -0.331755        -9.0275
  65   2.0000      -0.329043        -8.9537
  66   2.0000      -0.300446        -8.1755
  67   0.0000       0.036357         0.9893
  68   0.0000       0.057171         1.5557
  69   0.0000       0.110754         3.0138
  70   0.0000       0.113595         3.0911
  71   0.0000       0.122674         3.3381

MULLIKEN ATOMIC CHARGES
-----------------------
   0 S :    0.111189
   1 C :   -0.114798
   2 C :   -0.099881
   3 C :    0.107248
   4 C :   -0.166229
   5 H :   -0.050419
   6 C :    0.071502
   7 H :    0.039452
   8 H :    0.025819
   9 C :   -0.064684
  10 H :    0.037703
  11 H :    0.038427
  12 C :   -0.071963
  13 H :    0.028700
  14 H :    0.041115
  15 H :    0.022038
  16 S :    0.103595
  17 C :   -0.092928
  18 C :   -0.024353
  19 C :   -0.003636
  20 C :   -0.175691
  21 H :    0.023477
  22 C :    0.069988
  23 H :    0.016439
  24 H :    0.027411
  25 C :   -0.094087
  26 H :    0.006373
  27 H :    0.017861
  28 C :   -0.017616
  29 H :    0.021327
  30 H :    0.031858
  31 H :    0.037703
  32 H :    0.031042
  33 H :    0.066019
Sum of atomic charges:    0.0000000

LOEWDIN ATOMIC CHARGES
----------------------
   0 S :    0.419294
   1 C :   -0.179602
   2 C :   -0.055731
   3 C :   -0.040640
   4 C :   -0.207641
   5 H :    0.005179
   6 C :   -0.033634
   7 H :    0.036612
   8 H :    0.037386
   9 C :   -0.047457
  10 H :    0.029867
  11 H :    0.031518
  12 C :   -0.080902
  13 H :    0.022272
  14 H :    0.033163
  15 H :    0.026522
  16 S :    0.390892
  17 C :   -0.182772
  18 C :   -0.071734
  19 C :   -0.048575
  20 C :   -0.193289
  21 H :    0.034067
  22 C :   -0.030730
  23 H :    0.030098
  24 H :    0.032835
  25 C :   -0.049834
  26 H :    0.019330
  27 H :    0.021466
  28 C :   -0.064444
  29 H :    0.021159
  30 H :    0.022308
  31 H :    0.031807
  32 H :    0.013116
  33 H :    0.028095

  Mayer bond orders larger than 0.100000
B(  0-S ,  1-C ) :   1.1425 B(  0-S ,  4-C ) :   1.1705 B(  1-C ,  2-C ) :   1.6148
B(  1-C , 32-H ) :   0.9746 B(  2-C ,  3-C ) :   1.2155 B(  2-C ,  6-C ) :   1.0293
B(  3-C ,  4-C ) :   1.5791 B(  3-C ,  5-H ) :   1.0219 B(  4-C , 20-C ) :   1.0035
B(  6-C ,  7-H ) :   0.9344 B(  6-C ,  8-H ) :   0.9439 B(  6-C ,  9-C ) :   1.0383
B(  9-C , 10-H ) :   0.9539 B(  9-C , 11-H ) :   0.9583 B(  9-C , 12-C ) :   1.0853
B( 12-C , 13-H ) :   0.9739 B( 12-C , 14-H ) :   0.9741 B( 12-C , 15-H ) :   0.9727
B( 16-S , 17-C ) :   1.1774 B( 16-S , 20-C ) :   1.1282 B( 17-C , 18-C ) :   1.5596
B( 17-C , 20-C ) :   0.1055 B( 17-C , 33-H ) :   0.9705 B( 18-C , 19-C ) :   1.2695
B( 18-C , 21-H ) :   0.9842 B( 19-C , 20-C ) :   1.5983 B( 19-C , 22-C ) :   1.0433
B( 22-C , 23-H ) :   0.9322 B( 22-C , 24-H ) :   0.9345 B( 22-C , 25-C ) :   1.0789
B( 25-C , 26-H ) :   0.9472 B( 25-C , 27-H ) :   0.9533 B( 25-C , 28-C ) :   1.0790
B( 28-C , 29-H ) :   0.9743 B( 28-C , 30-H ) :   0.9711 B( 28-C , 31-H ) :   0.9713

Dispersion correction           -0.014985221
FINAL SINGLE POINT ENERGY     -1339.879468693745

DIPOLE MOMENT
-------------
                                X             Y             Z
Electronic contribution:     20.48221       3.72310     -19.45839
Nuclear contribution   :    -20.99036      -4.04793      19.73035
                        -----------------------------------------
Total Dipole Moment    :     -0.50815      -0.32483       0.27196
                        -----------------------------------------
Magnitude (a.u.)       :      0.66158
Magnitude (Debye)      :      1.68161

Rotational constants in cm-1:     0.020280     0.008137     0.007132
Rotational constants in MHz :   607.991134   243.945662   213.802544

                             ****ORCA TERMINATED NORMALLY****
TOTAL RUN TIME: 0 days 0 hours 0 minutes 22 seconds 124 msec
