                         Program Version 4.2.1 -  RELEASE  -
|  1> ! wB97X-D3 SP def2-SVP
|  2> %pal
|  3> nprocs 24
|  4> end
|  5>
|  6> * xyz 0 1
|  7> S 	 -120.468 	 27.6119 	 -18.6643
|  8> C 	 -119.66 	 26.6721 	 -19.9058
|  9> C 	 -118.853 	 25.6944 	 -19.4015
| 10> C 	 -118.819 	 25.7393 	 -18.0055
| 11> C 	 -119.665 	 26.6549 	 -17.3602
| 12> H 	 -118.141 	 25.0942 	 -17.4284
| 13> C 	 -118.003 	 24.7157 	 -20.2347
| 14> H 	 -116.982 	 25.0511 	 -20.0479
| 15> H 	 -118.166 	 24.8387 	 -21.3136
| 16> C 	 -118.256 	 23.1365 	 -19.9938
| 17> H 	 -117.714 	 22.5984 	 -20.7846
| 18> H 	 -117.754 	 22.9002 	 -19.0637
| 19> C 	 -119.716 	 22.6663 	 -19.9036
| 20> H 	 -120.208 	 22.8174 	 -20.8426
| 21> H 	 -119.773 	 21.5901 	 -19.604
| 22> H 	 -120.257 	 23.2433 	 -19.0844
| 23> S 	 -120.52 	 25.7443 	 -14.862
| 24> C 	 -120.302 	 26.6718 	 -13.4276
| 25> C 	 -119.761 	 27.8879 	 -13.6897
| 26> C 	 -119.573 	 28.1103 	 -15.1475
| 27> C 	 -119.892 	 26.9566 	 -15.9082
| 28> H 	 -119.508 	 28.5643 	 -12.8526
| 29> C 	 -119.059 	 29.454 	 -15.6944
| 30> H 	 -119.303 	 29.561 	 -16.813
| 31> H 	 -117.964 	 29.3772 	 -15.6286
| 32> C 	 -119.411 	 30.7775 	 -14.984
| 33> H 	 -119.14 	 31.6187 	 -15.6342
| 34> H 	 -118.819 	 30.8076 	 -14.1379
| 35> C 	 -120.928 	 30.9792 	 -14.6267
| 36> H 	 -121.621 	 31.1327 	 -15.5064
| 37> H 	 -121.075 	 31.7831 	 -13.8055
| 38> H 	 -121.229 	 30.0482 	 -14.184
| 39> H 	 -119.714 	 26.9684 	 -20.9391
| 40> H 	 -120.568 	 26.2661 	 -12.4664
| 41> *
| 42>
| 43>                          ****END OF INPUT****

CARTESIAN COORDINATES (ANGSTROEM)
---------------------------------
  S    -120.468000   27.611900  -18.664300
  C    -119.660000   26.672100  -19.905800
  C    -118.853000   25.694400  -19.401500
  C    -118.819000   25.739300  -18.005500
  C    -119.665000   26.654900  -17.360200
  H    -118.141000   25.094200  -17.428400
  C    -118.003000   24.715700  -20.234700
  H    -116.982000   25.051100  -20.047900
  H    -118.166000   24.838700  -21.313600
  C    -118.256000   23.136500  -19.993800
  H    -117.714000   22.598400  -20.784600
  H    -117.754000   22.900200  -19.063700
  C    -119.716000   22.666300  -19.903600
  H    -120.208000   22.817400  -20.842600
  H    -119.773000   21.590100  -19.604000
  H    -120.257000   23.243300  -19.084400
  S    -120.520000   25.744300  -14.862000
  C    -120.302000   26.671800  -13.427600
  C    -119.761000   27.887900  -13.689700
  C    -119.573000   28.110300  -15.147500
  C    -119.892000   26.956600  -15.908200
  H    -119.508000   28.564300  -12.852600
  C    -119.059000   29.454000  -15.694400
  H    -119.303000   29.561000  -16.813000
  H    -117.964000   29.377200  -15.628600
  C    -119.411000   30.777500  -14.984000
  H    -119.140000   31.618700  -15.634200
  H    -118.819000   30.807600  -14.137900
  C    -120.928000   30.979200  -14.626700
  H    -121.621000   31.132700  -15.506400
  H    -121.075000   31.783100  -13.805500
  H    -121.229000   30.048200  -14.184000
  H    -119.714000   26.968400  -20.939100
  H    -120.568000   26.266100  -12.466400

 Total Charge           Charge          ....    0
 Multiplicity           Mult            ....    1
 Number of Electrons    NEL             ....  134
 Basis Dimension        Dim             ....  322

ORBITAL ENERGIES
----------------

  NO   OCC          E(Eh)            E(eV)
   0   2.0000     -88.965236     -2420.8672
   1   2.0000     -88.964010     -2420.8338
   2   2.0000     -10.340563      -281.3810
   3   2.0000     -10.332832      -281.1707
   4   2.0000     -10.316569      -280.7281
   5   2.0000     -10.316381      -280.7230
   6   2.0000     -10.313156      -280.6352
   7   2.0000     -10.301657      -280.3223
   8   2.0000     -10.300883      -280.3013
   9   2.0000     -10.299324      -280.2589
  10   2.0000     -10.298268      -280.2301
  11   2.0000     -10.296689      -280.1871
  12   2.0000     -10.293033      -280.0877
  13   2.0000     -10.284017      -279.8423
  14   2.0000     -10.282473      -279.8003
  15   2.0000     -10.282073      -279.7894
  16   2.0000      -8.079880      -219.8647
  17   2.0000      -8.078882      -219.8376
  18   2.0000      -6.038382      -164.3127
  19   2.0000      -6.037454      -164.2875
  20   2.0000      -6.034070      -164.1954
  21   2.0000      -6.033458      -164.1787
  22   2.0000      -6.030731      -164.1045
  23   2.0000      -6.029741      -164.0776
  24   2.0000      -1.002952       -27.2917
  25   2.0000      -0.985002       -26.8033
  26   2.0000      -0.901666       -24.5356
  27   2.0000      -0.898427       -24.4474
  28   2.0000      -0.866598       -23.5813
  29   2.0000      -0.844494       -22.9798
  30   2.0000      -0.837399       -22.7868
  31   2.0000      -0.816273       -22.2119
  32   2.0000      -0.780254       -21.2318
  33   2.0000      -0.770035       -20.9537
  34   2.0000      -0.706448       -19.2234
  35   2.0000      -0.695364       -18.9218
  36   2.0000      -0.687843       -18.7171
  37   2.0000      -0.655155       -17.8277
  38   2.0000      -0.635626       -17.2963
  39   2.0000      -0.621809       -16.9203
  40   2.0000      -0.594395       -16.1743
  41   2.0000      -0.565266       -15.3817
  42   2.0000      -0.550816       -14.9885
  43   2.0000      -0.548918       -14.9368
  44   2.0000      -0.537786       -14.6339
  45   2.0000      -0.534112       -14.5339
  46   2.0000      -0.512163       -13.9367
  47   2.0000      -0.508287       -13.8312
  48   2.0000      -0.499380       -13.5888
  49   2.0000      -0.493740       -13.4354
  50   2.0000      -0.484984       -13.1971
  51   2.0000      -0.476959       -12.9787
  52   2.0000      -0.468437       -12.7468
  53   2.0000      -0.466168       -12.6851
  54   2.0000      -0.463842       -12.6218
  55   2.0000      -0.443160       -12.0590
  56   2.0000      -0.437545       -11.9062
  57   2.0000      -0.435564       -11.8523
  58   2.0000      -0.434254       -11.8166
  59   2.0000      -0.423352       -11.5200
  60   2.0000      -0.418485       -11.3876
  61   2.0000      -0.411236       -11.1903
  62   2.0000      -0.408955       -11.1282
  63   2.0000      -0.341698        -9.2981
  64   2.0000      -0.333567        -9.0768
  65   2.0000      -0.324847        -8.8395
  66   2.0000      -0.299986        -8.1630
  67   0.0000       0.033673         0.9163
  68   0.0000       0.068590         1.8664
  69   0.0000       0.110532         3.0077
  70   0.0000       0.125930         3.4267
  71   0.0000       0.128105         3.4859

MULLIKEN ATOMIC CHARGES
-----------------------
   0 S :    0.094716
   1 C :   -0.131410
   2 C :   -0.078909
   3 C :    0.031675
   4 C :   -0.163847
   5 H :    0.016530
   6 C :    0.057057
   7 H :    0.044815
   8 H :    0.020902
   9 C :   -0.091569
  10 H :    0.037348
  11 H :    0.027636
  12 C :   -0.067255
  13 H :    0.033534
  14 H :    0.046003
  15 H :    0.055242
  16 S :    0.114179
  17 C :   -0.091981
  18 C :   -0.040261
  19 C :   -0.056293
  20 C :   -0.154064
  21 H :    0.039026
  22 C :    0.028852
  23 H :    0.040679
  24 H :    0.046073
  25 C :   -0.045551
  26 H :    0.037474
  27 H :    0.012446
  28 C :   -0.088448
  29 H :    0.048129
  30 H :    0.046462
  31 H :    0.026204
  32 H :    0.046961
  33 H :    0.057644
Sum of atomic charges:    0.0000000

LOEWDIN ATOMIC CHARGES
----------------------
   0 S :    0.385763
   1 C :   -0.185361
   2 C :   -0.076346
   3 C :   -0.060344
   4 C :   -0.177866
   5 H :    0.033605
   6 C :   -0.028467
   7 H :    0.035138
   8 H :    0.027938
   9 C :   -0.041359
  10 H :    0.026114
  11 H :    0.018327
  12 C :   -0.070395
  13 H :    0.020513
  14 H :    0.033761
  15 H :    0.037314
  16 S :    0.430642
  17 C :   -0.188554
  18 C :   -0.081566
  19 C :   -0.047757
  20 C :   -0.223434
  21 H :    0.039356
  22 C :   -0.045000
  23 H :    0.031752
  24 H :    0.039709
  25 C :   -0.038168
  26 H :    0.031328
  27 H :    0.011128
  28 C :   -0.078090
  29 H :    0.032873
  30 H :    0.035189
  31 H :    0.017866
  32 H :    0.025611
  33 H :    0.028778

  Mayer bond orders larger than 0.100000
B(  0-S ,  1-C ) :   1.1528 B(  0-S ,  4-C ) :   1.1395 B(  1-C ,  2-C ) :   1.6063
B(  1-C ,  4-C ) :   0.1044 B(  1-C , 32-H ) :   0.9649 B(  2-C ,  3-C ) :   1.2580
B(  2-C ,  6-C ) :   1.0079 B(  3-C ,  4-C ) :   1.5811 B(  3-C ,  5-H ) :   0.9913
B(  4-C , 20-C ) :   1.0109 B(  6-C ,  7-H ) :   0.9470 B(  6-C ,  8-H ) :   0.9488
B(  6-C ,  9-C ) :   1.0483 B(  9-C , 10-H ) :   0.9613 B(  9-C , 11-H ) :   0.9587
B(  9-C , 12-C ) :   1.0788 B( 12-C , 13-H ) :   0.9779 B( 12-C , 14-H ) :   0.9728
B( 12-C , 15-H ) :   0.9687 B( 16-S , 17-C ) :   1.1702 B( 16-S , 20-C ) :   1.1557
B( 17-C , 18-C ) :   1.6070 B( 17-C , 33-H ) :   0.9690 B( 18-C , 19-C ) :   1.2270
B( 18-C , 21-H ) :   0.9847 B( 19-C , 20-C ) :   1.5867 B( 19-C , 22-C ) :   1.0305
B( 22-C , 23-H ) :   0.9387 B( 22-C , 24-H ) :   0.9327 B( 22-C , 25-C ) :   1.0756
B( 25-C , 26-H ) :   0.9562 B( 25-C , 27-H ) :   0.9497 B( 25-C , 28-C ) :   1.0732
B( 28-C , 29-H ) :   0.9751 B( 28-C , 30-H ) :   0.9752 B( 28-C , 31-H ) :   0.9735

Dispersion correction           -0.014584344
FINAL SINGLE POINT ENERGY     -1339.881477995232

DIPOLE MOMENT
-------------
                                X             Y             Z
Electronic contribution:     -5.63532      -1.44464       4.43587
Nuclear contribution   :      6.11834       1.41217      -4.40664
                        -----------------------------------------
Total Dipole Moment    :      0.48302      -0.03247       0.02923
                        -----------------------------------------
Magnitude (a.u.)       :      0.48500
Magnitude (Debye)      :      1.23276

Rotational constants in cm-1:     0.024359     0.007508     0.006300
Rotational constants in MHz :   730.271906   225.070143   188.869305

                             ****ORCA TERMINATED NORMALLY****
TOTAL RUN TIME: 0 days 0 hours 0 minutes 21 seconds 17 msec
