                         Program Version 4.2.1 -  RELEASE  -
|  1> ! wB97X-D3 SP def2-SVP
|  2> %pal
|  3> nprocs 24
|  4> end
|  5>
|  6> * xyz 0 1
|  7> S 	 -116.035 	 46.4105 	 -115.222
|  8> C 	 -116.643 	 44.8637 	 -115.818
|  9> C 	 -116.341 	 43.8121 	 -115.005
| 10> C 	 -115.632 	 44.2205 	 -113.866
| 11> C 	 -115.302 	 45.5373 	 -113.884
| 12> H 	 -115.249 	 43.5719 	 -113.018
| 13> C 	 -116.729 	 42.3545 	 -115.25
| 14> H 	 -117.289 	 42.3321 	 -116.178
| 15> H 	 -117.408 	 42.1047 	 -114.407
| 16> C 	 -115.668 	 41.3325 	 -115.365
| 17> H 	 -114.946 	 41.694 	 -116.112
| 18> H 	 -115.221 	 41.3161 	 -114.338
| 19> C 	 -116.071 	 39.9513 	 -115.693
| 20> H 	 -116.887 	 39.658 	 -115.046
| 21> H 	 -116.495 	 39.9565 	 -116.644
| 22> H 	 -115.291 	 39.2001 	 -115.548
| 23> S 	 -115.392 	 47.1191 	 -111.611
| 24> C 	 -113.883 	 47.5716 	 -110.851
| 25> C 	 -112.813 	 46.8744 	 -111.334
| 26> C 	 -113.187 	 46.0886 	 -112.511
| 27> C 	 -114.528 	 46.1903 	 -112.825
| 28> H 	 -111.812 	 46.9178 	 -110.937
| 29> C 	 -112.162 	 45.5009 	 -113.45
| 30> H 	 -112.601 	 45.2825 	 -114.445
| 31> H 	 -111.956 	 44.5151 	 -112.995
| 32> C 	 -110.793 	 46.173 	 -113.598
| 33> H 	 -110.3 	 45.7489 	 -114.372
| 34> H 	 -110.203 	 46.0899 	 -112.642
| 35> C 	 -111.029 	 47.5609 	 -114.129
| 36> H 	 -111.278 	 48.2793 	 -113.333
| 37> H 	 -111.816 	 47.7027 	 -114.923
| 38> H 	 -110.134 	 47.9257 	 -114.556
| 39> H 	 -117.056 	 44.6132 	 -116.755
| 40> H 	 -113.87 	 48.0051 	 -109.876
| 41> *
| 42>
| 43>                          ****END OF INPUT****

CARTESIAN COORDINATES (ANGSTROEM)
---------------------------------
  S    -116.035000   46.410500  -115.222000
  C    -116.643000   44.863700  -115.818000
  C    -116.341000   43.812100  -115.005000
  C    -115.632000   44.220500  -113.866000
  C    -115.302000   45.537300  -113.884000
  H    -115.249000   43.571900  -113.018000
  C    -116.729000   42.354500  -115.250000
  H    -117.289000   42.332100  -116.178000
  H    -117.408000   42.104700  -114.407000
  C    -115.668000   41.332500  -115.365000
  H    -114.946000   41.694000  -116.112000
  H    -115.221000   41.316100  -114.338000
  C    -116.071000   39.951300  -115.693000
  H    -116.887000   39.658000  -115.046000
  H    -116.495000   39.956500  -116.644000
  H    -115.291000   39.200100  -115.548000
  S    -115.392000   47.119100  -111.611000
  C    -113.883000   47.571600  -110.851000
  C    -112.813000   46.874400  -111.334000
  C    -113.187000   46.088600  -112.511000
  C    -114.528000   46.190300  -112.825000
  H    -111.812000   46.917800  -110.937000
  C    -112.162000   45.500900  -113.450000
  H    -112.601000   45.282500  -114.445000
  H    -111.956000   44.515100  -112.995000
  C    -110.793000   46.173000  -113.598000
  H    -110.300000   45.748900  -114.372000
  H    -110.203000   46.089900  -112.642000
  C    -111.029000   47.560900  -114.129000
  H    -111.278000   48.279300  -113.333000
  H    -111.816000   47.702700  -114.923000
  H    -110.134000   47.925700  -114.556000
  H    -117.056000   44.613200  -116.755000
  H    -113.870000   48.005100  -109.876000

 Total Charge           Charge          ....    0
 Multiplicity           Mult            ....    1
 Number of Electrons    NEL             ....  134
 Basis Dimension        Dim             ....  322

ORBITAL ENERGIES
----------------

  NO   OCC          E(Eh)            E(eV)
   0   2.0000     -88.969952     -2420.9955
   1   2.0000     -88.960314     -2420.7332
   2   2.0000     -10.325338      -280.9667
   3   2.0000     -10.321339      -280.8579
   4   2.0000     -10.312892      -280.6281
   5   2.0000     -10.309249      -280.5289
   6   2.0000     -10.302403      -280.3426
   7   2.0000     -10.296164      -280.1729
   8   2.0000     -10.295205      -280.1468
   9   2.0000     -10.292867      -280.0831
  10   2.0000     -10.291157      -280.0366
  11   2.0000     -10.287989      -279.9504
  12   2.0000     -10.282790      -279.8090
  13   2.0000     -10.280722      -279.7527
  14   2.0000     -10.271695      -279.5070
  15   2.0000     -10.268961      -279.4326
  16   2.0000      -8.084078      -219.9789
  17   2.0000      -8.075347      -219.7414
  18   2.0000      -6.042578      -164.4269
  19   2.0000      -6.038858      -164.3257
  20   2.0000      -6.034693      -164.2124
  21   2.0000      -6.033884      -164.1903
  22   2.0000      -6.029863      -164.0809
  23   2.0000      -6.026024      -163.9765
  24   2.0000      -1.007276       -27.4094
  25   2.0000      -0.984676       -26.7944
  26   2.0000      -0.923899       -25.1406
  27   2.0000      -0.912616       -24.8335
  28   2.0000      -0.873739       -23.7756
  29   2.0000      -0.854178       -23.2434
  30   2.0000      -0.844942       -22.9920
  31   2.0000      -0.817542       -22.2465
  32   2.0000      -0.786884       -21.4122
  33   2.0000      -0.771787       -21.0014
  34   2.0000      -0.708304       -19.2739
  35   2.0000      -0.695378       -18.9222
  36   2.0000      -0.691754       -18.8236
  37   2.0000      -0.658102       -17.9079
  38   2.0000      -0.637599       -17.3500
  39   2.0000      -0.618253       -16.8235
  40   2.0000      -0.594564       -16.1789
  41   2.0000      -0.581815       -15.8320
  42   2.0000      -0.567080       -15.4310
  43   2.0000      -0.553115       -15.0510
  44   2.0000      -0.550174       -14.9710
  45   2.0000      -0.528943       -14.3933
  46   2.0000      -0.519548       -14.1376
  47   2.0000      -0.508982       -13.8501
  48   2.0000      -0.503175       -13.6921
  49   2.0000      -0.495697       -13.4886
  50   2.0000      -0.489953       -13.3323
  51   2.0000      -0.481507       -13.1025
  52   2.0000      -0.470800       -12.8111
  53   2.0000      -0.462541       -12.5864
  54   2.0000      -0.460440       -12.5292
  55   2.0000      -0.451124       -12.2757
  56   2.0000      -0.445223       -12.1151
  57   2.0000      -0.436317       -11.8728
  58   2.0000      -0.433230       -11.7888
  59   2.0000      -0.422999       -11.5104
  60   2.0000      -0.420581       -11.4446
  61   2.0000      -0.413342       -11.2476
  62   2.0000      -0.407508       -11.0888
  63   2.0000      -0.340090        -9.2543
  64   2.0000      -0.330951        -9.0056
  65   2.0000      -0.322867        -8.7856
  66   2.0000      -0.305354        -8.3091
  67   0.0000       0.043727         1.1899
  68   0.0000       0.060178         1.6375
  69   0.0000       0.115511         3.1432
  70   0.0000       0.121007         3.2928
  71   0.0000       0.131516         3.5787

MULLIKEN ATOMIC CHARGES
-----------------------
   0 S :    0.123662
   1 C :   -0.088163
   2 C :   -0.088774
   3 C :    0.020191
   4 C :   -0.183901
   5 H :    0.041813
   6 C :    0.074943
   7 H :   -0.002083
   8 H :    0.037725
   9 C :   -0.096433
  10 H :    0.032145
  11 H :    0.023949
  12 C :    0.015506
  13 H :    0.009887
  14 H :    0.011018
  15 H :    0.043234
  16 S :    0.099067
  17 C :   -0.067807
  18 C :   -0.035501
  19 C :   -0.023327
  20 C :   -0.191277
  21 H :    0.019731
  22 C :    0.028503
  23 H :    0.041125
  24 H :    0.026097
  25 C :   -0.013692
  26 H :    0.005760
  27 H :    0.040321
  28 C :   -0.064627
  29 H :    0.031776
  30 H :    0.041850
  31 H :    0.014147
  32 H :    0.019075
  33 H :    0.054058
Sum of atomic charges:    0.0000000

LOEWDIN ATOMIC CHARGES
----------------------
   0 S :    0.397972
   1 C :   -0.186955
   2 C :   -0.063456
   3 C :   -0.062530
   4 C :   -0.194752
   5 H :    0.045941
   6 C :   -0.031015
   7 H :    0.021850
   8 H :    0.036831
   9 C :   -0.050528
  10 H :    0.026734
  11 H :    0.025490
  12 C :   -0.056910
  13 H :    0.024449
  14 H :    0.016905
  15 H :    0.032995
  16 S :    0.395054
  17 C :   -0.179894
  18 C :   -0.066482
  19 C :   -0.052254
  20 C :   -0.203502
  21 H :    0.030628
  22 C :   -0.036887
  23 H :    0.034785
  24 H :    0.032935
  25 C :   -0.036406
  26 H :    0.015467
  27 H :    0.031431
  28 C :   -0.068483
  29 H :    0.025712
  30 H :    0.035246
  31 H :    0.015256
  32 H :    0.019936
  33 H :    0.024437

  Mayer bond orders larger than 0.100000
B(  0-S ,  1-C ) :   1.1189 B(  0-S ,  4-C ) :   1.1381 B(  1-C ,  2-C ) :   1.6634
B(  1-C , 32-H ) :   0.9584 B(  2-C ,  3-C ) :   1.2135 B(  2-C ,  6-C ) :   1.0219
B(  3-C ,  4-C ) :   1.6227 B(  3-C ,  5-H ) :   0.9822 B(  4-C , 20-C ) :   1.0077
B(  6-C ,  7-H ) :   0.9334 B(  6-C ,  8-H ) :   0.9298 B(  6-C ,  9-C ) :   1.0781
B(  9-C , 10-H ) :   0.9522 B(  9-C , 11-H ) :   0.9452 B(  9-C , 12-C ) :   1.1025
B( 12-C , 13-H ) :   0.9654 B( 12-C , 14-H ) :   0.9685 B( 12-C , 15-H ) :   0.9707
B( 16-S , 17-C ) :   1.1466 B( 16-S , 20-C ) :   1.1361 B( 17-C , 18-C ) :   1.6344
B( 17-C , 33-H ) :   0.9623 B( 18-C , 19-C ) :   1.2196 B( 18-C , 21-H ) :   0.9858
B( 19-C , 20-C ) :   1.6359 B( 19-C , 22-C ) :   1.0342 B( 22-C , 23-H ) :   0.9429
B( 22-C , 24-H ) :   0.9183 B( 22-C , 25-C ) :   1.0971 B( 25-C , 26-H ) :   0.9464
B( 25-C , 27-H ) :   0.9450 B( 25-C , 28-C ) :   1.0777 B( 28-C , 29-H ) :   0.9705
B( 28-C , 30-H ) :   0.9729 B( 28-C , 31-H ) :   0.9749

Dispersion correction           -0.014461221
FINAL SINGLE POINT ENERGY     -1339.869040955484

DIPOLE MOMENT
-------------
                                X             Y             Z
Electronic contribution:    -12.81694      18.60360       8.04206
Nuclear contribution   :     13.24668     -19.24983      -8.09295
                        -----------------------------------------
Total Dipole Moment    :      0.42974      -0.64623      -0.05088
                        -----------------------------------------
Magnitude (a.u.)       :      0.77774
Magnitude (Debye)      :      1.97686

Rotational constants in cm-1:     0.019882     0.007753     0.006938
Rotational constants in MHz :   596.060708   232.415013   208.004755

                             ****ORCA TERMINATED NORMALLY****
TOTAL RUN TIME: 0 days 0 hours 0 minutes 21 seconds 613 msec
