                         Program Version 4.2.1 -  RELEASE  -
|  1> ! wB97X-D3 SP def2-SVP
|  2> %pal
|  3> nprocs 24
|  4> end
|  5>
|  6> * xyz 0 1
|  7> S 	 -106.162 	 55.6048 	 -97.1126
|  8> C 	 -105.969 	 54.6815 	 -95.5878
|  9> C 	 -106.275 	 53.3465 	 -95.7652
| 10> C 	 -106.672 	 53.1015 	 -97.1234
| 11> C 	 -106.649 	 54.2151 	 -97.9354
| 12> H 	 -106.934 	 52.0966 	 -97.481
| 13> C 	 -106.288 	 52.4053 	 -94.5792
| 14> H 	 -107.286 	 51.9967 	 -94.4613
| 15> H 	 -106.137 	 52.91 	 -93.701
| 16> C 	 -105.259 	 51.3019 	 -94.6168
| 17> H 	 -105.597 	 50.3778 	 -94.0903
| 18> H 	 -105.117 	 51.0574 	 -95.6981
| 19> C 	 -103.867 	 51.5913 	 -93.9108
| 20> H 	 -104.083 	 51.5229 	 -92.812
| 21> H 	 -103.218 	 50.7927 	 -94.2443
| 22> H 	 -103.33 	 52.5036 	 -94.1514
| 23> S 	 -105.11 	 54.6168 	 -100.2
| 24> C 	 -105.667 	 53.9316 	 -101.665
| 25> C 	 -106.958 	 53.4407 	 -101.574
| 26> C 	 -107.525 	 53.5733 	 -100.246
| 27> C 	 -106.609 	 54.1967 	 -99.3644
| 28> H 	 -107.455 	 52.891 	 -102.414
| 29> C 	 -108.91 	 53.1887 	 -99.8542
| 30> H 	 -109.022 	 53.1246 	 -98.7423
| 31> H 	 -109.095 	 52.1324 	 -100.116
| 32> C 	 -110.044 	 54.0408 	 -100.394
| 33> H 	 -109.773 	 54.3438 	 -101.397
| 34> H 	 -110.136 	 55.0296 	 -99.9043
| 35> C 	 -111.471 	 53.4735 	 -100.306
| 36> H 	 -111.769 	 53.2194 	 -99.2328
| 37> H 	 -111.623 	 52.5192 	 -100.735
| 38> H 	 -112.268 	 54.089 	 -100.714
| 39> H 	 -105.452 	 55.1981 	 -94.7762
| 40> H 	 -105.066 	 53.8342 	 -102.563
| 41> *
| 42>
| 43>                          ****END OF INPUT****

CARTESIAN COORDINATES (ANGSTROEM)
---------------------------------
  S    -106.162000   55.604800  -97.112600
  C    -105.969000   54.681500  -95.587800
  C    -106.275000   53.346500  -95.765200
  C    -106.672000   53.101500  -97.123400
  C    -106.649000   54.215100  -97.935400
  H    -106.934000   52.096600  -97.481000
  C    -106.288000   52.405300  -94.579200
  H    -107.286000   51.996700  -94.461300
  H    -106.137000   52.910000  -93.701000
  C    -105.259000   51.301900  -94.616800
  H    -105.597000   50.377800  -94.090300
  H    -105.117000   51.057400  -95.698100
  C    -103.867000   51.591300  -93.910800
  H    -104.083000   51.522900  -92.812000
  H    -103.218000   50.792700  -94.244300
  H    -103.330000   52.503600  -94.151400
  S    -105.110000   54.616800  -100.200000
  C    -105.667000   53.931600  -101.665000
  C    -106.958000   53.440700  -101.574000
  C    -107.525000   53.573300  -100.246000
  C    -106.609000   54.196700  -99.364400
  H    -107.455000   52.891000  -102.414000
  C    -108.910000   53.188700  -99.854200
  H    -109.022000   53.124600  -98.742300
  H    -109.095000   52.132400  -100.116000
  C    -110.044000   54.040800  -100.394000
  H    -109.773000   54.343800  -101.397000
  H    -110.136000   55.029600  -99.904300
  C    -111.471000   53.473500  -100.306000
  H    -111.769000   53.219400  -99.232800
  H    -111.623000   52.519200  -100.735000
  H    -112.268000   54.089000  -100.714000
  H    -105.452000   55.198100  -94.776200
  H    -105.066000   53.834200  -102.563000

 Total Charge           Charge          ....    0
 Multiplicity           Mult            ....    1
 Number of Electrons    NEL             ....  134
 Basis Dimension        Dim             ....  322

ORBITAL ENERGIES
----------------

  NO   OCC          E(Eh)            E(eV)
   0   2.0000     -88.967046     -2420.9164
   1   2.0000     -88.962413     -2420.7903
   2   2.0000     -10.325056      -280.9591
   3   2.0000     -10.322357      -280.8856
   4   2.0000     -10.316859      -280.7360
   5   2.0000     -10.315978      -280.7120
   6   2.0000     -10.306047      -280.4418
   7   2.0000     -10.304811      -280.4082
   8   2.0000     -10.299235      -280.2564
   9   2.0000     -10.296135      -280.1721
  10   2.0000     -10.292142      -280.0634
  11   2.0000     -10.292095      -280.0621
  12   2.0000     -10.284922      -279.8670
  13   2.0000     -10.284292      -279.8498
  14   2.0000     -10.282795      -279.8091
  15   2.0000     -10.278548      -279.6935
  16   2.0000      -8.082159      -219.9267
  17   2.0000      -8.078251      -219.8204
  18   2.0000      -6.040636      -164.3741
  19   2.0000      -6.036576      -164.2636
  20   2.0000      -6.036536      -164.2625
  21   2.0000      -6.032999      -164.1662
  22   2.0000      -6.032571      -164.1546
  23   2.0000      -6.029178      -164.0623
  24   2.0000      -1.010880       -27.5075
  25   2.0000      -0.983534       -26.7633
  26   2.0000      -0.915240       -24.9049
  27   2.0000      -0.908708       -24.7272
  28   2.0000      -0.868251       -23.6263
  29   2.0000      -0.850913       -23.1545
  30   2.0000      -0.841192       -22.8900
  31   2.0000      -0.811829       -22.0910
  32   2.0000      -0.788309       -21.4510
  33   2.0000      -0.773079       -21.0365
  34   2.0000      -0.708638       -19.2830
  35   2.0000      -0.699370       -19.0308
  36   2.0000      -0.688947       -18.7472
  37   2.0000      -0.654492       -17.8096
  38   2.0000      -0.644159       -17.5285
  39   2.0000      -0.623963       -16.9789
  40   2.0000      -0.601300       -16.3622
  41   2.0000      -0.568506       -15.4698
  42   2.0000      -0.551348       -15.0029
  43   2.0000      -0.547110       -14.8876
  44   2.0000      -0.541099       -14.7240
  45   2.0000      -0.523382       -14.2420
  46   2.0000      -0.519812       -14.1448
  47   2.0000      -0.516022       -14.0417
  48   2.0000      -0.505863       -13.7652
  49   2.0000      -0.496646       -13.5144
  50   2.0000      -0.490798       -13.3553
  51   2.0000      -0.475446       -12.9375
  52   2.0000      -0.468717       -12.7544
  53   2.0000      -0.463448       -12.6111
  54   2.0000      -0.460070       -12.5191
  55   2.0000      -0.448523       -12.2049
  56   2.0000      -0.447043       -12.1647
  57   2.0000      -0.437769       -11.9123
  58   2.0000      -0.435514       -11.8509
  59   2.0000      -0.426200       -11.5975
  60   2.0000      -0.421610       -11.4726
  61   2.0000      -0.412276       -11.2186
  62   2.0000      -0.401701       -10.9308
  63   2.0000      -0.342605        -9.3228
  64   2.0000      -0.333482        -9.0745
  65   2.0000      -0.329586        -8.9685
  66   2.0000      -0.291626        -7.9356
  67   0.0000       0.031668         0.8617
  68   0.0000       0.066119         1.7992
  69   0.0000       0.112246         3.0544
  70   0.0000       0.123673         3.3653
  71   0.0000       0.124479         3.3873

MULLIKEN ATOMIC CHARGES
-----------------------
   0 S :    0.091639
   1 C :   -0.151824
   2 C :   -0.097640
   3 C :    0.040632
   4 C :   -0.160112
   5 H :    0.017454
   6 C :    0.160035
   7 H :    0.030743
   8 H :   -0.018263
   9 C :   -0.127468
  10 H :    0.034215
  11 H :    0.036348
  12 C :   -0.070018
  13 H :    0.043239
  14 H :    0.037783
  15 H :    0.039332
  16 S :    0.124277
  17 C :   -0.098160
  18 C :   -0.040719
  19 C :   -0.055365
  20 C :   -0.130739
  21 H :    0.037514
  22 C :    0.056548
  23 H :    0.028592
  24 H :    0.020911
  25 C :   -0.044803
  26 H :    0.016766
  27 H :    0.032542
  28 C :   -0.056199
  29 H :    0.026980
  30 H :    0.011853
  31 H :    0.039471
  32 H :    0.062799
  33 H :    0.061636
Sum of atomic charges:   -0.0000000

LOEWDIN ATOMIC CHARGES
----------------------
   0 S :    0.411152
   1 C :   -0.184267
   2 C :   -0.055985
   3 C :   -0.061670
   4 C :   -0.217061
   5 H :    0.032652
   6 C :   -0.026616
   7 H :    0.036826
   8 H :    0.017803
   9 C :   -0.044196
  10 H :    0.028663
  11 H :    0.024851
  12 C :   -0.069779
  13 H :    0.029778
  14 H :    0.028013
  15 H :    0.022155
  16 S :    0.420466
  17 C :   -0.198749
  18 C :   -0.078206
  19 C :   -0.051759
  20 C :   -0.200732
  21 H :    0.039486
  22 C :   -0.042701
  23 H :    0.035273
  24 H :    0.032008
  25 C :   -0.042663
  26 H :    0.020234
  27 H :    0.031847
  28 C :   -0.071782
  29 H :    0.031695
  30 H :    0.014198
  31 H :    0.029227
  32 H :    0.027619
  33 H :    0.032222

  Mayer bond orders larger than 0.100000
B(  0-S ,  1-C ) :   1.1347 B(  0-S ,  4-C ) :   1.1668 B(  1-C ,  2-C ) :   1.6007
B(  1-C , 32-H ) :   0.9690 B(  2-C ,  3-C ) :   1.2533 B(  2-C ,  6-C ) :   1.0274
B(  3-C ,  4-C ) :   1.5494 B(  3-C ,  5-H ) :   0.9899 B(  4-C , 20-C ) :   1.0359
B(  6-C ,  7-H ) :   0.9350 B(  6-C ,  8-H ) :   0.9336 B(  6-C ,  9-C ) :   1.0521
B(  9-C , 10-H ) :   0.9572 B(  9-C , 11-H ) :   0.9662 B(  9-C , 12-C ) :   1.0697
B( 12-C , 13-H ) :   0.9769 B( 12-C , 14-H ) :   0.9756 B( 12-C , 15-H ) :   0.9795
B( 16-S , 17-C ) :   1.1688 B( 16-S , 20-C ) :   1.1384 B( 17-C , 18-C ) :   1.5967
B( 17-C , 33-H ) :   0.9663 B( 18-C , 19-C ) :   1.2475 B( 18-C , 21-H ) :   0.9823
B( 19-C , 20-C ) :   1.5787 B( 19-C , 22-C ) :   1.0638 B( 22-C , 23-H ) :   0.9252
B( 22-C , 24-H ) :   0.9303 B( 22-C , 25-C ) :   1.0566 B( 25-C , 26-H ) :   0.9583
B( 25-C , 27-H ) :   0.9501 B( 25-C , 28-C ) :   1.0762 B( 28-C , 29-H ) :   0.9727
B( 28-C , 30-H ) :   0.9744 B( 28-C , 31-H ) :   0.9747

Dispersion correction           -0.013729555
FINAL SINGLE POINT ENERGY     -1339.877964323967

DIPOLE MOMENT
-------------
                                X             Y             Z
Electronic contribution:     12.09688      16.04007      -9.36638
Nuclear contribution   :    -12.23237     -16.63699       9.49986
                        -----------------------------------------
Total Dipole Moment    :     -0.13549      -0.59692       0.13348
                        -----------------------------------------
Magnitude (a.u.)       :      0.62649
Magnitude (Debye)      :      1.59241

Rotational constants in cm-1:     0.018743     0.007782     0.006719
Rotational constants in MHz :   561.887218   233.293398   201.422867

                             ****ORCA TERMINATED NORMALLY****
TOTAL RUN TIME: 0 days 0 hours 0 minutes 21 seconds 235 msec
