                         Program Version 4.2.1 -  RELEASE  -
|  1> ! wB97X-D3 SP def2-SVP
|  2> %pal
|  3> nprocs 24
|  4> end
|  5>
|  6> * xyz 0 1
|  7> S 	 -113.49 	 71.9519 	 -9.15092
|  8> C 	 -112.698 	 73.3293 	 -9.79779
|  9> C 	 -111.504 	 73.0149 	 -10.4269
| 10> C 	 -111.266 	 71.6348 	 -10.2943
| 11> C 	 -112.301 	 70.8141 	 -9.82208
| 12> H 	 -110.45 	 70.9763 	 -10.601
| 13> C 	 -110.625 	 73.9089 	 -11.2686
| 14> H 	 -111.118 	 74.8814 	 -11.4082
| 15> H 	 -110.402 	 73.5188 	 -12.2419
| 16> C 	 -109.231 	 74.1258 	 -10.6515
| 17> H 	 -109.174 	 74.2368 	 -9.57347
| 18> H 	 -108.608 	 73.265 	 -10.6697
| 19> C 	 -108.42 	 75.2315 	 -11.2594
| 20> H 	 -107.384 	 75.1864 	 -10.7838
| 21> H 	 -108.011 	 75.0554 	 -12.2576
| 22> H 	 -108.803 	 76.2542 	 -11.2328
| 23> S 	 -112.811 	 68.7439 	 -8.04535
| 24> C 	 -112.366 	 67.1112 	 -8.46643
| 25> C 	 -111.734 	 67.0817 	 -9.73668
| 26> C 	 -111.87 	 68.3132 	 -10.4109
| 27> C 	 -112.244 	 69.4039 	 -9.57465
| 28> H 	 -111.47 	 66.1116 	 -10.215
| 29> C 	 -111.531 	 68.4765 	 -11.8721
| 30> H 	 -110.418 	 68.682 	 -11.8685
| 31> H 	 -111.967 	 69.3331 	 -12.3177
| 32> C 	 -111.881 	 67.422 	 -12.821
| 33> H 	 -111.274 	 66.5742 	 -12.6567
| 34> H 	 -111.62 	 67.6934 	 -13.8206
| 35> C 	 -113.306 	 66.8742 	 -12.8503
| 36> H 	 -113.607 	 66.4686 	 -11.8658
| 37> H 	 -113.366 	 66.0403 	 -13.5542
| 38> H 	 -114.031 	 67.6152 	 -13.1809
| 39> H 	 -113.216 	 74.2674 	 -9.78818
| 40> H 	 -112.145 	 66.246 	 -7.82883
| 41> *
| 42>
| 43>                          ****END OF INPUT****

CARTESIAN COORDINATES (ANGSTROEM)
---------------------------------
  S    -113.490000   71.951900   -9.150920
  C    -112.698000   73.329300   -9.797790
  C    -111.504000   73.014900  -10.426900
  C    -111.266000   71.634800  -10.294300
  C    -112.301000   70.814100   -9.822080
  H    -110.450000   70.976300  -10.601000
  C    -110.625000   73.908900  -11.268600
  H    -111.118000   74.881400  -11.408200
  H    -110.402000   73.518800  -12.241900
  C    -109.231000   74.125800  -10.651500
  H    -109.174000   74.236800   -9.573470
  H    -108.608000   73.265000  -10.669700
  C    -108.420000   75.231500  -11.259400
  H    -107.384000   75.186400  -10.783800
  H    -108.011000   75.055400  -12.257600
  H    -108.803000   76.254200  -11.232800
  S    -112.811000   68.743900   -8.045350
  C    -112.366000   67.111200   -8.466430
  C    -111.734000   67.081700   -9.736680
  C    -111.870000   68.313200  -10.410900
  C    -112.244000   69.403900   -9.574650
  H    -111.470000   66.111600  -10.215000
  C    -111.531000   68.476500  -11.872100
  H    -110.418000   68.682000  -11.868500
  H    -111.967000   69.333100  -12.317700
  C    -111.881000   67.422000  -12.821000
  H    -111.274000   66.574200  -12.656700
  H    -111.620000   67.693400  -13.820600
  C    -113.306000   66.874200  -12.850300
  H    -113.607000   66.468600  -11.865800
  H    -113.366000   66.040300  -13.554200
  H    -114.031000   67.615200  -13.180900
  H    -113.216000   74.267400   -9.788180
  H    -112.145000   66.246000   -7.828830

 Total Charge           Charge          ....    0
 Multiplicity           Mult            ....    1
 Number of Electrons    NEL             ....  134
 Basis Dimension        Dim             ....  322

ORBITAL ENERGIES
----------------

  NO   OCC          E(Eh)            E(eV)
   0   2.0000     -88.971041     -2421.0251
   1   2.0000     -88.964191     -2420.8387
   2   2.0000     -10.331706      -281.1400
   3   2.0000     -10.330624      -281.1106
   4   2.0000     -10.322551      -280.8909
   5   2.0000     -10.315731      -280.7053
   6   2.0000     -10.306961      -280.4667
   7   2.0000     -10.304924      -280.4112
   8   2.0000     -10.299781      -280.2713
   9   2.0000     -10.295610      -280.1578
  10   2.0000     -10.294491      -280.1274
  11   2.0000     -10.285640      -279.8865
  12   2.0000     -10.281627      -279.7773
  13   2.0000     -10.281039      -279.7613
  14   2.0000     -10.275030      -279.5978
  15   2.0000     -10.274256      -279.5767
  16   2.0000      -8.085200      -220.0095
  17   2.0000      -8.079273      -219.8482
  18   2.0000      -6.043763      -164.4591
  19   2.0000      -6.039586      -164.3455
  20   2.0000      -6.037736      -164.2952
  21   2.0000      -6.036130      -164.2514
  22   2.0000      -6.033642      -164.1837
  23   2.0000      -6.030143      -164.0885
  24   2.0000      -1.007725       -27.4216
  25   2.0000      -0.986311       -26.8389
  26   2.0000      -0.919638       -25.0246
  27   2.0000      -0.914103       -24.8740
  28   2.0000      -0.874919       -23.8077
  29   2.0000      -0.853636       -23.2286
  30   2.0000      -0.846782       -23.0421
  31   2.0000      -0.814685       -22.1687
  32   2.0000      -0.787203       -21.4209
  33   2.0000      -0.774852       -21.0848
  34   2.0000      -0.711956       -19.3733
  35   2.0000      -0.701706       -19.0944
  36   2.0000      -0.695741       -18.9321
  37   2.0000      -0.658278       -17.9126
  38   2.0000      -0.649036       -17.6612
  39   2.0000      -0.616862       -16.7857
  40   2.0000      -0.599226       -16.3058
  41   2.0000      -0.574767       -15.6402
  42   2.0000      -0.561966       -15.2919
  43   2.0000      -0.556000       -15.1295
  44   2.0000      -0.543125       -14.7792
  45   2.0000      -0.526966       -14.3395
  46   2.0000      -0.519871       -14.1464
  47   2.0000      -0.511288       -13.9129
  48   2.0000      -0.507019       -13.7967
  49   2.0000      -0.502733       -13.6801
  50   2.0000      -0.487855       -13.2752
  51   2.0000      -0.478165       -13.0115
  52   2.0000      -0.473903       -12.8955
  53   2.0000      -0.472085       -12.8461
  54   2.0000      -0.464074       -12.6281
  55   2.0000      -0.448140       -12.1945
  56   2.0000      -0.445220       -12.1151
  57   2.0000      -0.439565       -11.9612
  58   2.0000      -0.431074       -11.7301
  59   2.0000      -0.421135       -11.4597
  60   2.0000      -0.413674       -11.2566
  61   2.0000      -0.410053       -11.1581
  62   2.0000      -0.406625       -11.0648
  63   2.0000      -0.354647        -9.6504
  64   2.0000      -0.332018        -9.0347
  65   2.0000      -0.328329        -8.9343
  66   2.0000      -0.282897        -7.6980
  67   0.0000       0.019114         0.5201
  68   0.0000       0.065075         1.7708
  69   0.0000       0.112442         3.0597
  70   0.0000       0.114490         3.1154
  71   0.0000       0.135927         3.6988

MULLIKEN ATOMIC CHARGES
-----------------------
   0 S :    0.098767
   1 C :   -0.123506
   2 C :   -0.038533
   3 C :    0.001251
   4 C :   -0.164613
   5 H :    0.013119
   6 C :    0.124281
   7 H :    0.019289
   8 H :    0.029650
   9 C :   -0.071353
  10 H :    0.023733
  11 H :    0.010510
  12 C :   -0.072393
  13 H :    0.026303
  14 H :    0.018997
  15 H :    0.043895
  16 S :    0.119432
  17 C :   -0.094855
  18 C :   -0.070963
  19 C :   -0.075713
  20 C :   -0.144139
  21 H :    0.045589
  22 C :    0.078316
  23 H :    0.048975
  24 H :    0.017357
  25 C :   -0.046565
  26 H :    0.000982
  27 H :    0.013918
  28 C :   -0.054371
  29 H :    0.038007
  30 H :    0.028603
  31 H :    0.031976
  32 H :    0.050299
  33 H :    0.073755
Sum of atomic charges:   -0.0000000

LOEWDIN ATOMIC CHARGES
----------------------
   0 S :    0.404371
   1 C :   -0.192073
   2 C :   -0.067819
   3 C :   -0.059264
   4 C :   -0.194837
   5 H :    0.031615
   6 C :   -0.021223
   7 H :    0.031808
   8 H :    0.032592
   9 C :   -0.049519
  10 H :    0.027210
  11 H :    0.022727
  12 C :   -0.077711
  13 H :    0.037587
  14 H :    0.022475
  15 H :    0.023675
  16 S :    0.418940
  17 C :   -0.202832
  18 C :   -0.077414
  19 C :   -0.055248
  20 C :   -0.201547
  21 H :    0.039484
  22 C :   -0.038871
  23 H :    0.043332
  24 H :    0.027138
  25 C :   -0.045685
  26 H :    0.013832
  27 H :    0.025697
  28 C :   -0.061470
  29 H :    0.027247
  30 H :    0.026969
  31 H :    0.023279
  32 H :    0.025604
  33 H :    0.039930

  Mayer bond orders larger than 0.100000
B(  0-S ,  1-C ) :   1.1710 B(  0-S ,  4-C ) :   1.1302 B(  1-C ,  2-C ) :   1.5656
B(  1-C ,  4-C ) :   0.1028 B(  1-C , 32-H ) :   0.9708 B(  2-C ,  3-C ) :   1.2392
B(  2-C ,  6-C ) :   1.0373 B(  3-C ,  4-C ) :   1.5619 B(  3-C ,  5-H ) :   0.9878
B(  4-C , 20-C ) :   1.1029 B(  6-C ,  7-H ) :   0.9441 B(  6-C ,  8-H ) :   0.9378
B(  6-C ,  9-C ) :   1.0428 B(  9-C , 10-H ) :   0.9548 B(  9-C , 11-H ) :   0.9454
B(  9-C , 12-C ) :   1.1035 B( 12-C , 13-H ) :   0.9662 B( 12-C , 14-H ) :   0.9682
B( 12-C , 15-H ) :   0.9767 B( 16-S , 17-C ) :   1.1756 B( 16-S , 20-C ) :   1.1384
B( 17-C , 18-C ) :   1.5749 B( 17-C , 20-C ) :   0.1113 B( 17-C , 33-H ) :   0.9570
B( 18-C , 19-C ) :   1.2917 B( 18-C , 21-H ) :   0.9721 B( 19-C , 20-C ) :   1.5333
B( 19-C , 22-C ) :   1.0387 B( 22-C , 23-H ) :   0.9251 B( 22-C , 24-H ) :   0.9317
B( 22-C , 25-C ) :   1.0905 B( 25-C , 26-H ) :   0.9411 B( 25-C , 27-H ) :   0.9454
B( 25-C , 28-C ) :   1.0905 B( 28-C , 29-H ) :   0.9698 B( 28-C , 30-H ) :   0.9725
B( 28-C , 31-H ) :   0.9750

Dispersion correction           -0.013805421
FINAL SINGLE POINT ENERGY     -1339.855284033496

DIPOLE MOMENT
-------------
                                X             Y             Z
Electronic contribution:    -15.28174      -3.87495      20.59469
Nuclear contribution   :     15.83791       3.83727     -21.16702
                        -----------------------------------------
Total Dipole Moment    :      0.55617      -0.03767      -0.57233
                        -----------------------------------------
Magnitude (a.u.)       :      0.79894
Magnitude (Debye)      :      2.03073

Rotational constants in cm-1:     0.019777     0.007538     0.006398
Rotational constants in MHz :   592.902068   225.978224   191.810548

                             ****ORCA TERMINATED NORMALLY****
TOTAL RUN TIME: 0 days 0 hours 0 minutes 21 seconds 370 msec
