                         Program Version 4.2.1 -  RELEASE  -
|  1> ! wB97X-D3 SP def2-SVP
|  2> %pal
|  3> nprocs 24
|  4> end
|  5>
|  6> * xyz 0 1
|  7> S 	 -111.68 	 60.3007 	 -75.2979
|  8> C 	 -110.408 	 61.4935 	 -75.6063
|  9> C 	 -110.119 	 62.2435 	 -74.4829
| 10> C 	 -110.799 	 61.7774 	 -73.3385
| 11> C 	 -111.737 	 60.7586 	 -73.569
| 12> H 	 -110.774 	 62.1736 	 -72.3944
| 13> C 	 -109.061 	 63.325 	 -74.4642
| 14> H 	 -108.128 	 63.1726 	 -74.9418
| 15> H 	 -108.786 	 63.3925 	 -73.422
| 16> C 	 -109.487 	 64.738 	 -74.898
| 17> H 	 -108.598 	 65.2578 	 -75.3722
| 18> H 	 -110.104 	 64.7099 	 -75.6879
| 19> C 	 -110.183 	 65.5898 	 -73.7765
| 20> H 	 -110.306 	 66.559 	 -74.2033
| 21> H 	 -111.125 	 65.1502 	 -73.4357
| 22> H 	 -109.564 	 65.7207 	 -72.8693
| 23> S 	 -113.138 	 61.1597 	 -71.2764
| 24> C 	 -113.958 	 59.8348 	 -70.4679
| 25> C 	 -113.908 	 58.7465 	 -71.3164
| 26> C 	 -113.202 	 58.9389 	 -72.5407
| 27> C 	 -112.639 	 60.1591 	 -72.5776
| 28> H 	 -114.423 	 57.8279 	 -70.8484
| 29> C 	 -112.918 	 57.7788 	 -73.4182
| 30> H 	 -112.785 	 56.8454 	 -72.8346
| 31> H 	 -111.974 	 58.0025 	 -73.8507
| 32> C 	 -113.955 	 57.4494 	 -74.532
| 33> H 	 -114.338 	 58.2993 	 -75.0277
| 34> H 	 -114.871 	 57.0611 	 -74.142
| 35> C 	 -113.3 	 56.4833 	 -75.5927
| 36> H 	 -114.094 	 55.894 	 -76.0841
| 37> H 	 -112.561 	 55.8261 	 -75.1835
| 38> H 	 -112.885 	 57.1075 	 -76.3132
| 39> H 	 -109.857 	 61.5766 	 -76.5155
| 40> H 	 -114.542 	 59.9179 	 -69.565
| 41> *
| 42>
| 43>                          ****END OF INPUT****

CARTESIAN COORDINATES (ANGSTROEM)
---------------------------------
  S    -111.680000   60.300700  -75.297900
  C    -110.408000   61.493500  -75.606300
  C    -110.119000   62.243500  -74.482900
  C    -110.799000   61.777400  -73.338500
  C    -111.737000   60.758600  -73.569000
  H    -110.774000   62.173600  -72.394400
  C    -109.061000   63.325000  -74.464200
  H    -108.128000   63.172600  -74.941800
  H    -108.786000   63.392500  -73.422000
  C    -109.487000   64.738000  -74.898000
  H    -108.598000   65.257800  -75.372200
  H    -110.104000   64.709900  -75.687900
  C    -110.183000   65.589800  -73.776500
  H    -110.306000   66.559000  -74.203300
  H    -111.125000   65.150200  -73.435700
  H    -109.564000   65.720700  -72.869300
  S    -113.138000   61.159700  -71.276400
  C    -113.958000   59.834800  -70.467900
  C    -113.908000   58.746500  -71.316400
  C    -113.202000   58.938900  -72.540700
  C    -112.639000   60.159100  -72.577600
  H    -114.423000   57.827900  -70.848400
  C    -112.918000   57.778800  -73.418200
  H    -112.785000   56.845400  -72.834600
  H    -111.974000   58.002500  -73.850700
  C    -113.955000   57.449400  -74.532000
  H    -114.338000   58.299300  -75.027700
  H    -114.871000   57.061100  -74.142000
  C    -113.300000   56.483300  -75.592700
  H    -114.094000   55.894000  -76.084100
  H    -112.561000   55.826100  -75.183500
  H    -112.885000   57.107500  -76.313200
  H    -109.857000   61.576600  -76.515500
  H    -114.542000   59.917900  -69.565000

 Total Charge           Charge          ....    0
 Multiplicity           Mult            ....    1
 Number of Electrons    NEL             ....  134
 Basis Dimension        Dim             ....  322

ORBITAL ENERGIES
----------------

  NO   OCC          E(Eh)            E(eV)
   0   2.0000     -88.971864     -2421.0475
   1   2.0000     -88.964052     -2420.8349
   2   2.0000     -10.337242      -281.2907
   3   2.0000     -10.325340      -280.9668
   4   2.0000     -10.317013      -280.7402
   5   2.0000     -10.314919      -280.6832
   6   2.0000     -10.302262      -280.3388
   7   2.0000     -10.299052      -280.2514
   8   2.0000     -10.297242      -280.2022
   9   2.0000     -10.290575      -280.0208
  10   2.0000     -10.287117      -279.9267
  11   2.0000     -10.285637      -279.8864
  12   2.0000     -10.281818      -279.7825
  13   2.0000     -10.279442      -279.7178
  14   2.0000     -10.277526      -279.6657
  15   2.0000     -10.270520      -279.4751
  16   2.0000      -8.084843      -219.9998
  17   2.0000      -8.079504      -219.8545
  18   2.0000      -6.043431      -164.4501
  19   2.0000      -6.039548      -164.3445
  20   2.0000      -6.038068      -164.3042
  21   2.0000      -6.035691      -164.2395
  22   2.0000      -6.033902      -164.1908
  23   2.0000      -6.030167      -164.0892
  24   2.0000      -1.013000       -27.5651
  25   2.0000      -0.985059       -26.8048
  26   2.0000      -0.909931       -24.7605
  27   2.0000      -0.906313       -24.6620
  28   2.0000      -0.870154       -23.6781
  29   2.0000      -0.853290       -23.2192
  30   2.0000      -0.845511       -23.0075
  31   2.0000      -0.814509       -22.1639
  32   2.0000      -0.783035       -21.3075
  33   2.0000      -0.774123       -21.0650
  34   2.0000      -0.710582       -19.3359
  35   2.0000      -0.708152       -19.2698
  36   2.0000      -0.701935       -19.1006
  37   2.0000      -0.669935       -18.2299
  38   2.0000      -0.640899       -17.4398
  39   2.0000      -0.618487       -16.8299
  40   2.0000      -0.597818       -16.2675
  41   2.0000      -0.571877       -15.5616
  42   2.0000      -0.562189       -15.2979
  43   2.0000      -0.546838       -14.8802
  44   2.0000      -0.533729       -14.5235
  45   2.0000      -0.527604       -14.3568
  46   2.0000      -0.517357       -14.0780
  47   2.0000      -0.513784       -13.9808
  48   2.0000      -0.505767       -13.7626
  49   2.0000      -0.498134       -13.5549
  50   2.0000      -0.492106       -13.3909
  51   2.0000      -0.481026       -13.0894
  52   2.0000      -0.476473       -12.9655
  53   2.0000      -0.468441       -12.7469
  54   2.0000      -0.463825       -12.6213
  55   2.0000      -0.447156       -12.1677
  56   2.0000      -0.443850       -12.0778
  57   2.0000      -0.436459       -11.8766
  58   2.0000      -0.432444       -11.7674
  59   2.0000      -0.422505       -11.4969
  60   2.0000      -0.417563       -11.3625
  61   2.0000      -0.416005       -11.3201
  62   2.0000      -0.410841       -11.1796
  63   2.0000      -0.358496        -9.7552
  64   2.0000      -0.334982        -9.1153
  65   2.0000      -0.330679        -8.9982
  66   2.0000      -0.288133        -7.8405
  67   0.0000       0.019901         0.5415
  68   0.0000       0.082674         2.2497
  69   0.0000       0.106082         2.8866
  70   0.0000       0.116860         3.1799
  71   0.0000       0.132348         3.6014

MULLIKEN ATOMIC CHARGES
-----------------------
   0 S :    0.102624
   1 C :   -0.113185
   2 C :   -0.052512
   3 C :    0.033334
   4 C :   -0.135333
   5 H :   -0.021743
   6 C :    0.082725
   7 H :    0.019734
   8 H :    0.008095
   9 C :   -0.049796
  10 H :    0.024061
  11 H :   -0.003014
  12 C :   -0.055240
  13 H :    0.030902
  14 H :    0.043828
  15 H :    0.029683
  16 S :    0.091237
  17 C :   -0.101706
  18 C :   -0.069279
  19 C :   -0.023515
  20 C :   -0.109874
  21 H :    0.047052
  22 C :    0.033184
  23 H :    0.035173
  24 H :    0.012638
  25 C :   -0.042134
  26 H :    0.011574
  27 H :    0.012729
  28 C :   -0.029236
  29 H :    0.031872
  30 H :    0.032311
  31 H :    0.023841
  32 H :    0.041383
  33 H :    0.058585
Sum of atomic charges:   -0.0000000

LOEWDIN ATOMIC CHARGES
----------------------
   0 S :    0.395078
   1 C :   -0.182569
   2 C :   -0.059743
   3 C :   -0.058548
   4 C :   -0.169745
   5 H :    0.010654
   6 C :   -0.030875
   7 H :    0.028681
   8 H :    0.029694
   9 C :   -0.032278
  10 H :    0.030379
  11 H :    0.005035
  12 C :   -0.062244
  13 H :    0.023405
  14 H :    0.027974
  15 H :    0.024432
  16 S :    0.414579
  17 C :   -0.188550
  18 C :   -0.074702
  19 C :   -0.070469
  20 C :   -0.196606
  21 H :    0.045931
  22 C :   -0.032382
  23 H :    0.037656
  24 H :    0.015630
  25 C :   -0.031881
  26 H :    0.015109
  27 H :    0.016759
  28 C :   -0.054409
  29 H :    0.029295
  30 H :    0.021270
  31 H :    0.017350
  32 H :    0.024815
  33 H :    0.031276

  Mayer bond orders larger than 0.100000
B(  0-S ,  1-C ) :   1.1370 B(  0-S ,  4-C ) :   1.1377 B(  1-C ,  2-C ) :   1.5959
B(  1-C , 32-H ) :   0.9713 B(  2-C ,  3-C ) :   1.2575 B(  2-C ,  6-C ) :   1.0172
B(  3-C ,  4-C ) :   1.5465 B(  3-C ,  5-H ) :   0.9982 B(  4-C , 20-C ) :   1.0598
B(  6-C ,  7-H ) :   0.9479 B(  6-C ,  8-H ) :   0.9429 B(  6-C ,  9-C ) :   1.0605
B(  9-C , 10-H ) :   0.9571 B(  9-C , 11-H ) :   0.9548 B(  9-C , 12-C ) :   1.0767
B( 12-C , 13-H ) :   0.9750 B( 12-C , 14-H ) :   0.9770 B( 12-C , 15-H ) :   0.9776
B( 16-S , 17-C ) :   1.1355 B( 16-S , 20-C ) :   1.1430 B( 17-C , 18-C ) :   1.6326
B( 17-C , 33-H ) :   0.9711 B( 18-C , 19-C ) :   1.2157 B( 18-C , 21-H ) :   0.9778
B( 19-C , 20-C ) :   1.5888 B( 19-C , 22-C ) :   1.0473 B( 22-C , 23-H ) :   0.9357
B( 22-C , 24-H ) :   0.9358 B( 22-C , 25-C ) :   1.0508 B( 25-C , 26-H ) :   0.9593
B( 25-C , 27-H ) :   0.9582 B( 25-C , 28-C ) :   1.0659 B( 28-C , 29-H ) :   0.9763
B( 28-C , 30-H ) :   0.9780 B( 28-C , 31-H ) :   0.9798

Dispersion correction           -0.014191887
FINAL SINGLE POINT ENERGY     -1339.864535547467

DIPOLE MOMENT
-------------
                                X             Y             Z
Electronic contribution:     -5.23687      -1.92020       8.07930
Nuclear contribution   :      5.37927       1.90744      -8.08907
                        -----------------------------------------
Total Dipole Moment    :      0.14240      -0.01277      -0.00977
                        -----------------------------------------
Magnitude (a.u.)       :      0.14331
Magnitude (Debye)      :      0.36425

Rotational constants in cm-1:     0.020768     0.008572     0.006311
Rotational constants in MHz :   622.604700   256.974736   189.208948

                             ****ORCA TERMINATED NORMALLY****
TOTAL RUN TIME: 0 days 0 hours 0 minutes 21 seconds 203 msec
