                         Program Version 4.2.1 -  RELEASE  -
|  1> ! wB97X-D3 SP def2-SVP
|  2> %pal
|  3> nprocs 24
|  4> end
|  5>
|  6> * xyz 0 1
|  7> S 	 -27.9989 	 -34.7269 	 -91.0987
|  8> C 	 -28.8738 	 -35.7502 	 -92.2334
|  9> C 	 -28.1368 	 -36.8181 	 -92.6281
| 10> C 	 -26.7739 	 -36.7589 	 -92.1363
| 11> C 	 -26.471 	 -35.6555 	 -91.3439
| 12> H 	 -25.948 	 -37.4376 	 -92.4091
| 13> C 	 -28.6116 	 -37.9158 	 -93.5083
| 14> H 	 -27.8308 	 -38.2163 	 -94.1196
| 15> H 	 -29.3832 	 -37.442 	 -94.1842
| 16> C 	 -29.1702 	 -39.1708 	 -92.8703
| 17> H 	 -28.3191 	 -39.7976 	 -92.5435
| 18> H 	 -29.8318 	 -39.0183 	 -92.0842
| 19> C 	 -29.762 	 -40.153 	 -93.864
| 20> H 	 -29.0475 	 -40.3426 	 -94.6993
| 21> H 	 -30.0824 	 -41.0703 	 -93.3956
| 22> H 	 -30.6677 	 -39.685 	 -94.2982
| 23> S 	 -23.9005 	 -36.2985 	 -90.8662
| 24> C 	 -22.7893 	 -35.219 	 -90.021
| 25> C 	 -23.4509 	 -34.0916 	 -89.6462
| 26> C 	 -24.8752 	 -34.065 	 -90.0075
| 27> C 	 -25.2835 	 -35.2352 	 -90.6301
| 28> H 	 -22.9107 	 -33.4117 	 -89.0044
| 29> C 	 -25.667 	 -32.8264 	 -89.5605
| 30> H 	 -25.2522 	 -32.4061 	 -88.6416
| 31> H 	 -26.617 	 -33.2159 	 -89.173
| 32> C 	 -25.9563 	 -31.809 	 -90.6636
| 33> H 	 -26.1866 	 -32.2408 	 -91.6386
| 34> H 	 -24.9307 	 -31.2853 	 -90.852
| 35> C 	 -27.0606 	 -30.7694 	 -90.3043
| 36> H 	 -27.0229 	 -29.9267 	 -90.9723
| 37> H 	 -26.7768 	 -30.3126 	 -89.4002
| 38> H 	 -28.0222 	 -31.3587 	 -90.1646
| 39> H 	 -29.923 	 -35.586 	 -92.5658
| 40> H 	 -21.7687 	 -35.4075 	 -89.7776
| 41> *
| 42>
| 43>                          ****END OF INPUT****

CARTESIAN COORDINATES (ANGSTROEM)
---------------------------------
  S    -27.998900  -34.726900  -91.098700
  C    -28.873800  -35.750200  -92.233400
  C    -28.136800  -36.818100  -92.628100
  C    -26.773900  -36.758900  -92.136300
  C    -26.471000  -35.655500  -91.343900
  H    -25.948000  -37.437600  -92.409100
  C    -28.611600  -37.915800  -93.508300
  H    -27.830800  -38.216300  -94.119600
  H    -29.383200  -37.442000  -94.184200
  C    -29.170200  -39.170800  -92.870300
  H    -28.319100  -39.797600  -92.543500
  H    -29.831800  -39.018300  -92.084200
  C    -29.762000  -40.153000  -93.864000
  H    -29.047500  -40.342600  -94.699300
  H    -30.082400  -41.070300  -93.395600
  H    -30.667700  -39.685000  -94.298200
  S    -23.900500  -36.298500  -90.866200
  C    -22.789300  -35.219000  -90.021000
  C    -23.450900  -34.091600  -89.646200
  C    -24.875200  -34.065000  -90.007500
  C    -25.283500  -35.235200  -90.630100
  H    -22.910700  -33.411700  -89.004400
  C    -25.667000  -32.826400  -89.560500
  H    -25.252200  -32.406100  -88.641600
  H    -26.617000  -33.215900  -89.173000
  C    -25.956300  -31.809000  -90.663600
  H    -26.186600  -32.240800  -91.638600
  H    -24.930700  -31.285300  -90.852000
  C    -27.060600  -30.769400  -90.304300
  H    -27.022900  -29.926700  -90.972300
  H    -26.776800  -30.312600  -89.400200
  H    -28.022200  -31.358700  -90.164600
  H    -29.923000  -35.586000  -92.565800
  H    -21.768700  -35.407500  -89.777600

 Total Charge           Charge          ....    0
 Multiplicity           Mult            ....    1
 Number of Electrons    NEL             ....  134
 Basis Dimension        Dim             ....  322

ORBITAL ENERGIES
----------------

  NO   OCC          E(Eh)            E(eV)
   0   2.0000     -88.965048     -2420.8620
   1   2.0000     -88.963800     -2420.8281
   2   2.0000     -10.339347      -281.3479
   3   2.0000     -10.335109      -281.2326
   4   2.0000     -10.318226      -280.7732
   5   2.0000     -10.316446      -280.7248
   6   2.0000     -10.312690      -280.6226
   7   2.0000     -10.300981      -280.3040
   8   2.0000     -10.300730      -280.2971
   9   2.0000     -10.295314      -280.1497
  10   2.0000     -10.294556      -280.1291
  11   2.0000     -10.290228      -280.0113
  12   2.0000     -10.288407      -279.9618
  13   2.0000     -10.279895      -279.7302
  14   2.0000     -10.279782      -279.7271
  15   2.0000     -10.276607      -279.6407
  16   2.0000      -8.078435      -219.8254
  17   2.0000      -8.078410      -219.8247
  18   2.0000      -6.037257      -164.2821
  19   2.0000      -6.037177      -164.2799
  20   2.0000      -6.033185      -164.1713
  21   2.0000      -6.032874      -164.1629
  22   2.0000      -6.028987      -164.0571
  23   2.0000      -6.028903      -164.0548
  24   2.0000      -1.004529       -27.3346
  25   2.0000      -0.981577       -26.7101
  26   2.0000      -0.918411       -24.9912
  27   2.0000      -0.903586       -24.5878
  28   2.0000      -0.877313       -23.8729
  29   2.0000      -0.850596       -23.1459
  30   2.0000      -0.842320       -22.9207
  31   2.0000      -0.817247       -22.2384
  32   2.0000      -0.783397       -21.3173
  33   2.0000      -0.771651       -20.9977
  34   2.0000      -0.710100       -19.3228
  35   2.0000      -0.698182       -18.9985
  36   2.0000      -0.690321       -18.7846
  37   2.0000      -0.669926       -18.2296
  38   2.0000      -0.632723       -17.2173
  39   2.0000      -0.617513       -16.8034
  40   2.0000      -0.594889       -16.1878
  41   2.0000      -0.584268       -15.8987
  42   2.0000      -0.562615       -15.3095
  43   2.0000      -0.558634       -15.2012
  44   2.0000      -0.528331       -14.3766
  45   2.0000      -0.522940       -14.2299
  46   2.0000      -0.519796       -14.1444
  47   2.0000      -0.516357       -14.0508
  48   2.0000      -0.511368       -13.9150
  49   2.0000      -0.506581       -13.7848
  50   2.0000      -0.491845       -13.3838
  51   2.0000      -0.478811       -13.0291
  52   2.0000      -0.466576       -12.6962
  53   2.0000      -0.463594       -12.6150
  54   2.0000      -0.458838       -12.4856
  55   2.0000      -0.445094       -12.1116
  56   2.0000      -0.444041       -12.0830
  57   2.0000      -0.440873       -11.9968
  58   2.0000      -0.435892       -11.8612
  59   2.0000      -0.422433       -11.4950
  60   2.0000      -0.411060       -11.1855
  61   2.0000      -0.407664       -11.0931
  62   2.0000      -0.403475       -10.9791
  63   2.0000      -0.369242       -10.0476
  64   2.0000      -0.331058        -9.0085
  65   2.0000      -0.327974        -8.9246
  66   2.0000      -0.286152        -7.7866
  67   0.0000       0.015891         0.4324
  68   0.0000       0.086272         2.3476
  69   0.0000       0.107065         2.9134
  70   0.0000       0.118127         3.2144
  71   0.0000       0.125424         3.4130

MULLIKEN ATOMIC CHARGES
-----------------------
   0 S :    0.068305
   1 C :   -0.121530
   2 C :   -0.065194
   3 C :   -0.006972
   4 C :   -0.121878
   5 H :    0.029888
   6 C :    0.071893
   7 H :    0.001125
   8 H :    0.023359
   9 C :   -0.039299
  10 H :    0.025694
  11 H :    0.018846
  12 C :   -0.060732
  13 H :    0.033448
  14 H :    0.038278
  15 H :    0.022225
  16 S :    0.061600
  17 C :   -0.066798
  18 C :   -0.031437
  19 C :   -0.072091
  20 C :   -0.075175
  21 H :    0.020462
  22 C :    0.046981
  23 H :    0.025191
  24 H :    0.019889
  25 C :   -0.104598
  26 H :    0.040506
  27 H :    0.028110
  28 C :   -0.012369
  29 H :    0.032801
  30 H :    0.008700
  31 H :    0.051248
  32 H :    0.059412
  33 H :    0.050112
Sum of atomic charges:   -0.0000000

LOEWDIN ATOMIC CHARGES
----------------------
   0 S :    0.379857
   1 C :   -0.193647
   2 C :   -0.063891
   3 C :   -0.073401
   4 C :   -0.164716
   5 H :    0.030752
   6 C :   -0.030124
   7 H :    0.022161
   8 H :    0.035398
   9 C :   -0.035951
  10 H :    0.030254
  11 H :    0.014624
  12 C :   -0.062727
  13 H :    0.027568
  14 H :    0.025161
  15 H :    0.020620
  16 S :    0.390593
  17 C :   -0.169935
  18 C :   -0.070538
  19 C :   -0.051246
  20 C :   -0.188873
  21 H :    0.031449
  22 C :   -0.040754
  23 H :    0.032310
  24 H :    0.020838
  25 C :   -0.047978
  26 H :    0.020585
  27 H :    0.028516
  28 C :   -0.063654
  29 H :    0.027330
  30 H :    0.015637
  31 H :    0.036181
  32 H :    0.038496
  33 H :    0.029104

  Mayer bond orders larger than 0.100000
B(  0-S ,  1-C ) :   1.1174 B(  0-S ,  4-C ) :   1.1199 B(  1-C ,  2-C ) :   1.6501
B(  1-C , 32-H ) :   0.9589 B(  2-C ,  3-C ) :   1.2187 B(  2-C ,  6-C ) :   1.0332
B(  3-C ,  4-C ) :   1.5952 B(  3-C ,  5-H ) :   0.9726 B(  4-C , 20-C ) :   1.0961
B(  6-C ,  7-H ) :   0.9269 B(  6-C ,  8-H ) :   0.9422 B(  6-C ,  9-C ) :   1.0719
B(  9-C , 10-H ) :   0.9506 B(  9-C , 11-H ) :   0.9584 B(  9-C , 12-C ) :   1.0841
B( 12-C , 13-H ) :   0.9736 B( 12-C , 14-H ) :   0.9741 B( 12-C , 15-H ) :   0.9743
B( 16-S , 17-C ) :   1.1358 B( 16-S , 20-C ) :   1.1147 B( 17-C , 18-C ) :   1.6518
B( 17-C , 33-H ) :   0.9689 B( 18-C , 19-C ) :   1.2160 B( 18-C , 21-H ) :   0.9871
B( 19-C , 20-C ) :   1.5965 B( 19-C , 22-C ) :   1.0257 B( 22-C , 23-H ) :   0.9367
B( 22-C , 24-H ) :   0.9415 B( 22-C , 25-C ) :   1.0423 B( 25-C , 26-H ) :   0.9619
B( 25-C , 27-H ) :   0.9506 B( 25-C , 28-C ) :   1.0751 B( 28-C , 29-H ) :   0.9723
B( 28-C , 30-H ) :   0.9720 B( 28-C , 31-H ) :   0.9728

Dispersion correction           -0.013714133
FINAL SINGLE POINT ENERGY     -1339.875617707949

DIPOLE MOMENT
-------------
                                X             Y             Z
Electronic contribution:     12.66338      -0.17757       6.07752
Nuclear contribution   :    -12.65337       0.17059      -6.08254
                        -----------------------------------------
Total Dipole Moment    :      0.01001      -0.00698      -0.00502
                        -----------------------------------------
Magnitude (a.u.)       :      0.01319
Magnitude (Debye)      :      0.03353

Rotational constants in cm-1:     0.021602     0.007740     0.005871
Rotational constants in MHz :   647.598318   232.042544   176.003859

                             ****ORCA TERMINATED NORMALLY****
TOTAL RUN TIME: 0 days 0 hours 0 minutes 20 seconds 826 msec
