                         Program Version 4.2.1 -  RELEASE  -
|  1> ! wB97X-D3 SP def2-SVP
|  2> %pal
|  3> nprocs 24
|  4> end
|  5>
|  6> * xyz 0 1
|  7> S 	 -118.902 	 26.1818 	 -15.2223
|  8> C 	 -118.54 	 26.8829 	 -16.7452
|  9> C 	 -118.217 	 28.2211 	 -16.6784
| 10> C 	 -118.151 	 28.7182 	 -15.3319
| 11> C 	 -118.687 	 27.7497 	 -14.517
| 12> H 	 -117.829 	 29.7357 	 -15.056
| 13> C 	 -117.596 	 28.9901 	 -17.7855
| 14> H 	 -117.32 	 28.3474 	 -18.6099
| 15> H 	 -116.659 	 29.2703 	 -17.3529
| 16> C 	 -118.33 	 30.2296 	 -18.3277
| 17> H 	 -119.261 	 30.011 	 -18.8224
| 18> H 	 -118.644 	 30.6668 	 -17.3536
| 19> C 	 -117.598 	 31.2676 	 -19.1483
| 20> H 	 -116.623 	 31.6127 	 -18.8235
| 21> H 	 -117.434 	 30.9102 	 -20.1852
| 22> H 	 -118.257 	 32.225 	 -19.1281
| 23> S 	 -117.752 	 27.3416 	 -11.9528
| 24> C 	 -118.766 	 27.773 	 -10.6156
| 25> C 	 -119.934 	 28.369 	 -11.0659
| 26> C 	 -120.054 	 28.5013 	 -12.5072
| 27> C 	 -118.974 	 27.8438 	 -13.1003
| 28> H 	 -120.736 	 28.6705 	 -10.4372
| 29> C 	 -121.11 	 29.3254 	 -13.1896
| 30> H 	 -120.585 	 29.8088 	 -13.9261
| 31> H 	 -121.462 	 30.1693 	 -12.5492
| 32> C 	 -122.27 	 28.5106 	 -13.7572
| 33> H 	 -121.975 	 27.7637 	 -14.4431
| 34> H 	 -122.827 	 29.2067 	 -14.3519
| 35> C 	 -123.199 	 27.8281 	 -12.7698
| 36> H 	 -123.958 	 27.1545 	 -13.1917
| 37> H 	 -123.622 	 28.6315 	 -12.2062
| 38> H 	 -122.694 	 27.1017 	 -12.0914
| 39> H 	 -118.49 	 26.3113 	 -17.6799
| 40> H 	 -118.737 	 27.431 	 -9.57098
| 41> *
| 42>
| 43>                          ****END OF INPUT****

CARTESIAN COORDINATES (ANGSTROEM)
---------------------------------
  S    -118.902000   26.181800  -15.222300
  C    -118.540000   26.882900  -16.745200
  C    -118.217000   28.221100  -16.678400
  C    -118.151000   28.718200  -15.331900
  C    -118.687000   27.749700  -14.517000
  H    -117.829000   29.735700  -15.056000
  C    -117.596000   28.990100  -17.785500
  H    -117.320000   28.347400  -18.609900
  H    -116.659000   29.270300  -17.352900
  C    -118.330000   30.229600  -18.327700
  H    -119.261000   30.011000  -18.822400
  H    -118.644000   30.666800  -17.353600
  C    -117.598000   31.267600  -19.148300
  H    -116.623000   31.612700  -18.823500
  H    -117.434000   30.910200  -20.185200
  H    -118.257000   32.225000  -19.128100
  S    -117.752000   27.341600  -11.952800
  C    -118.766000   27.773000  -10.615600
  C    -119.934000   28.369000  -11.065900
  C    -120.054000   28.501300  -12.507200
  C    -118.974000   27.843800  -13.100300
  H    -120.736000   28.670500  -10.437200
  C    -121.110000   29.325400  -13.189600
  H    -120.585000   29.808800  -13.926100
  H    -121.462000   30.169300  -12.549200
  C    -122.270000   28.510600  -13.757200
  H    -121.975000   27.763700  -14.443100
  H    -122.827000   29.206700  -14.351900
  C    -123.199000   27.828100  -12.769800
  H    -123.958000   27.154500  -13.191700
  H    -123.622000   28.631500  -12.206200
  H    -122.694000   27.101700  -12.091400
  H    -118.490000   26.311300  -17.679900
  H    -118.737000   27.431000   -9.570980

 Total Charge           Charge          ....    0
 Multiplicity           Mult            ....    1
 Number of Electrons    NEL             ....  134
 Basis Dimension        Dim             ....  322

ORBITAL ENERGIES
----------------

  NO   OCC          E(Eh)            E(eV)
   0   2.0000     -88.968850     -2420.9655
   1   2.0000     -88.964784     -2420.8548
   2   2.0000     -10.324408      -280.9414
   3   2.0000     -10.318762      -280.7878
   4   2.0000     -10.312865      -280.6273
   5   2.0000     -10.309764      -280.5430
   6   2.0000     -10.299420      -280.2615
   7   2.0000     -10.299172      -280.2547
   8   2.0000     -10.297084      -280.1979
   9   2.0000     -10.287816      -279.9457
  10   2.0000     -10.287807      -279.9455
  11   2.0000     -10.286810      -279.9183
  12   2.0000     -10.286775      -279.9174
  13   2.0000     -10.284779      -279.8631
  14   2.0000     -10.275534      -279.6115
  15   2.0000     -10.273185      -279.5476
  16   2.0000      -8.084463      -219.9894
  17   2.0000      -8.079551      -219.8558
  18   2.0000      -6.042737      -164.4312
  19   2.0000      -6.039015      -164.3299
  20   2.0000      -6.038193      -164.3076
  21   2.0000      -6.035256      -164.2277
  22   2.0000      -6.034025      -164.1942
  23   2.0000      -6.030209      -164.0903
  24   2.0000      -1.011528       -27.5251
  25   2.0000      -0.984232       -26.7823
  26   2.0000      -0.914354       -24.8808
  27   2.0000      -0.911348       -24.7990
  28   2.0000      -0.867380       -23.6026
  29   2.0000      -0.856416       -23.3043
  30   2.0000      -0.846941       -23.0464
  31   2.0000      -0.813602       -22.1392
  32   2.0000      -0.787692       -21.4342
  33   2.0000      -0.770037       -20.9538
  34   2.0000      -0.708331       -19.2747
  35   2.0000      -0.698438       -19.0055
  36   2.0000      -0.688417       -18.7328
  37   2.0000      -0.657585       -17.8938
  38   2.0000      -0.643569       -17.5124
  39   2.0000      -0.622412       -16.9367
  40   2.0000      -0.595154       -16.1950
  41   2.0000      -0.565024       -15.3751
  42   2.0000      -0.560970       -15.2648
  43   2.0000      -0.552924       -15.0458
  44   2.0000      -0.538424       -14.6513
  45   2.0000      -0.528317       -14.3762
  46   2.0000      -0.515445       -14.0260
  47   2.0000      -0.513042       -13.9606
  48   2.0000      -0.506978       -13.7956
  49   2.0000      -0.500426       -13.6173
  50   2.0000      -0.490384       -13.3440
  51   2.0000      -0.477816       -13.0020
  52   2.0000      -0.472159       -12.8481
  53   2.0000      -0.461584       -12.5603
  54   2.0000      -0.459332       -12.4991
  55   2.0000      -0.453279       -12.3343
  56   2.0000      -0.447436       -12.1754
  57   2.0000      -0.436102       -11.8669
  58   2.0000      -0.433278       -11.7901
  59   2.0000      -0.428816       -11.6687
  60   2.0000      -0.416364       -11.3298
  61   2.0000      -0.412246       -11.2178
  62   2.0000      -0.406072       -11.0498
  63   2.0000      -0.338954        -9.2234
  64   2.0000      -0.326239        -8.8774
  65   2.0000      -0.317357        -8.6357
  66   2.0000      -0.307294        -8.3619
  67   0.0000       0.042519         1.1570
  68   0.0000       0.060025         1.6334
  69   0.0000       0.107891         2.9359
  70   0.0000       0.116826         3.1790
  71   0.0000       0.129231         3.5166

MULLIKEN ATOMIC CHARGES
-----------------------
   0 S :    0.135603
   1 C :   -0.123930
   2 C :   -0.093293
   3 C :    0.047241
   4 C :   -0.190916
   5 H :    0.036798
   6 C :    0.083598
   7 H :    0.006167
   8 H :    0.018350
   9 C :   -0.072444
  10 H :    0.028453
  11 H :    0.010426
  12 C :   -0.063093
  13 H :    0.025032
  14 H :    0.039776
  15 H :    0.048819
  16 S :    0.124022
  17 C :   -0.088389
  18 C :   -0.041021
  19 C :   -0.044211
  20 C :   -0.195095
  21 H :    0.003596
  22 C :    0.136817
  23 H :   -0.007518
  24 H :    0.026984
  25 C :   -0.036202
  26 H :    0.017993
  27 H :    0.016242
  28 C :   -0.060226
  29 H :    0.036813
  30 H :    0.021574
  31 H :    0.034725
  32 H :    0.049433
  33 H :    0.067878
Sum of atomic charges:   -0.0000000

LOEWDIN ATOMIC CHARGES
----------------------
   0 S :    0.434947
   1 C :   -0.210922
   2 C :   -0.065799
   3 C :   -0.053921
   4 C :   -0.197415
   5 H :    0.041105
   6 C :   -0.033565
   7 H :    0.022268
   8 H :    0.032215
   9 C :   -0.048355
  10 H :    0.025246
  11 H :    0.022800
  12 C :   -0.072837
  13 H :    0.020004
  14 H :    0.027409
  15 H :    0.041966
  16 S :    0.413463
  17 C :   -0.209188
  18 C :   -0.067447
  19 C :   -0.047599
  20 C :   -0.215870
  21 H :    0.021736
  22 C :   -0.024125
  23 H :    0.022303
  24 H :    0.037462
  25 C :   -0.033730
  26 H :    0.019181
  27 H :    0.021760
  28 C :   -0.069098
  29 H :    0.030238
  30 H :    0.018637
  31 H :    0.028696
  32 H :    0.029219
  33 H :    0.039213

  Mayer bond orders larger than 0.100000
B(  0-S ,  1-C ) :   1.1364 B(  0-S ,  4-C ) :   1.1745 B(  1-C ,  2-C ) :   1.6298
B(  1-C , 32-H ) :   0.9637 B(  2-C ,  3-C ) :   1.2126 B(  2-C ,  6-C ) :   1.0353
B(  3-C ,  4-C ) :   1.5955 B(  3-C ,  5-H ) :   0.9887 B(  4-C , 20-C ) :   0.9908
B(  6-C ,  7-H ) :   0.9387 B(  6-C ,  8-H ) :   0.9357 B(  6-C ,  9-C ) :   1.0472
B(  9-C , 10-H ) :   0.9520 B(  9-C , 11-H ) :   0.9580 B(  9-C , 12-C ) :   1.0854
B( 12-C , 13-H ) :   0.9744 B( 12-C , 14-H ) :   0.9738 B( 12-C , 15-H ) :   0.9723
B( 16-S , 17-C ) :   1.1402 B( 16-S , 20-C ) :   1.1597 B( 17-C , 18-C ) :   1.6187
B( 17-C , 33-H ) :   0.9598 B( 18-C , 19-C ) :   1.2399 B( 18-C , 21-H ) :   0.9865
B( 19-C , 20-C ) :   1.6005 B( 19-C , 22-C ) :   1.0300 B( 22-C , 23-H ) :   0.9085
B( 22-C , 24-H ) :   0.9373 B( 22-C , 25-C ) :   1.0815 B( 25-C , 26-H ) :   0.9543
B( 25-C , 27-H ) :   0.9523 B( 25-C , 28-C ) :   1.0760 B( 28-C , 29-H ) :   0.9728
B( 28-C , 30-H ) :   0.9770 B( 28-C , 31-H ) :   0.9727

Dispersion correction           -0.014691442
FINAL SINGLE POINT ENERGY     -1339.868484421252

DIPOLE MOMENT
-------------
                                X             Y             Z
Electronic contribution:     11.54318     -16.69233      14.48753
Nuclear contribution   :    -11.71406      17.08391     -14.79916
                        -----------------------------------------
Total Dipole Moment    :     -0.17088       0.39158      -0.31163
                        -----------------------------------------
Magnitude (a.u.)       :      0.52882
Magnitude (Debye)      :      1.34416

Rotational constants in cm-1:     0.019541     0.008037     0.007188
Rotational constants in MHz :   585.835778   240.930615   215.500034

                             ****ORCA TERMINATED NORMALLY****
TOTAL RUN TIME: 0 days 0 hours 0 minutes 20 seconds 731 msec
