                         Program Version 4.2.1 -  RELEASE  -
|  1> ! wB97X-D3 SP def2-SVP
|  2> %pal
|  3> nprocs 24
|  4> end
|  5>
|  6> * xyz 0 1
|  7> S 	 -89.8332 	 2.22227 	 -115.46
|  8> C 	 -88.8675 	 0.809076 	 -115.415
|  9> C 	 -88.089 	 0.775877 	 -116.583
| 10> C 	 -88.2549 	 1.95195 	 -117.413
| 11> C 	 -89.1492 	 2.84275 	 -116.937
| 12> H 	 -87.8128 	 2.09103 	 -118.413
| 13> C 	 -87.1987 	 -0.370969 	 -117.137
| 14> H 	 -86.7206 	 -0.738174 	 -116.164
| 15> H 	 -86.411 	 0.110455 	 -117.683
| 16> C 	 -87.8906 	 -1.4956 	 -117.886
| 17> H 	 -87.1882 	 -2.28218 	 -117.848
| 18> H 	 -88.7359 	 -1.97715 	 -117.401
| 19> C 	 -88.2328 	 -1.11404 	 -119.291
| 20> H 	 -88.9408 	 -0.300495 	 -119.452
| 21> H 	 -87.3411 	 -0.655464 	 -119.76
| 22> H 	 -88.6054 	 -1.88681 	 -119.996
| 23> S 	 -88.7254 	 4.70612 	 -118.919
| 24> C 	 -89.8821 	 5.90438 	 -119.377
| 25> C 	 -91.0162 	 5.5607 	 -118.775
| 26> C 	 -90.9719 	 4.53593 	 -117.734
| 27> C 	 -89.7145 	 3.96321 	 -117.688
| 28> H 	 -91.8296 	 6.23747 	 -118.933
| 29> C 	 -92.1534 	 4.35554 	 -116.842
| 30> H 	 -92.4853 	 5.39371 	 -116.613
| 31> H 	 -91.9093 	 4.06833 	 -115.839
| 32> C 	 -93.3124 	 3.52486 	 -117.338
| 33> H 	 -92.9896 	 2.54145 	 -117.564
| 34> H 	 -93.6492 	 3.84443 	 -118.289
| 35> C 	 -94.424 	 3.44551 	 -116.238
| 36> H 	 -95.2738 	 2.79237 	 -116.556
| 37> H 	 -94.7291 	 4.44453 	 -115.986
| 38> H 	 -94.0235 	 3.00279 	 -115.303
| 39> H 	 -88.8517 	 0.111717 	 -114.641
| 40> H 	 -89.7045 	 6.77918 	 -119.964
| 41> *
| 42>
| 43>                          ****END OF INPUT****

CARTESIAN COORDINATES (ANGSTROEM)
---------------------------------
  S    -89.833200    2.222270  -115.460000
  C    -88.867500    0.809076  -115.415000
  C    -88.089000    0.775877  -116.583000
  C    -88.254900    1.951950  -117.413000
  C    -89.149200    2.842750  -116.937000
  H    -87.812800    2.091030  -118.413000
  C    -87.198700   -0.370969  -117.137000
  H    -86.720600   -0.738174  -116.164000
  H    -86.411000    0.110455  -117.683000
  C    -87.890600   -1.495600  -117.886000
  H    -87.188200   -2.282180  -117.848000
  H    -88.735900   -1.977150  -117.401000
  C    -88.232800   -1.114040  -119.291000
  H    -88.940800   -0.300495  -119.452000
  H    -87.341100   -0.655464  -119.760000
  H    -88.605400   -1.886810  -119.996000
  S    -88.725400    4.706120  -118.919000
  C    -89.882100    5.904380  -119.377000
  C    -91.016200    5.560700  -118.775000
  C    -90.971900    4.535930  -117.734000
  C    -89.714500    3.963210  -117.688000
  H    -91.829600    6.237470  -118.933000
  C    -92.153400    4.355540  -116.842000
  H    -92.485300    5.393710  -116.613000
  H    -91.909300    4.068330  -115.839000
  C    -93.312400    3.524860  -117.338000
  H    -92.989600    2.541450  -117.564000
  H    -93.649200    3.844430  -118.289000
  C    -94.424000    3.445510  -116.238000
  H    -95.273800    2.792370  -116.556000
  H    -94.729100    4.444530  -115.986000
  H    -94.023500    3.002790  -115.303000
  H    -88.851700    0.111717  -114.641000
  H    -89.704500    6.779180  -119.964000

 Total Charge           Charge          ....    0
 Multiplicity           Mult            ....    1
 Number of Electrons    NEL             ....  134
 Basis Dimension        Dim             ....  322

ORBITAL ENERGIES
----------------

  NO   OCC          E(Eh)            E(eV)
   0   2.0000     -88.966097     -2420.8906
   1   2.0000     -88.958059     -2420.6719
   2   2.0000     -10.330761      -281.1143
   3   2.0000     -10.328658      -281.0571
   4   2.0000     -10.312865      -280.6273
   5   2.0000     -10.311357      -280.5863
   6   2.0000     -10.304637      -280.4034
   7   2.0000     -10.304308      -280.3945
   8   2.0000     -10.297251      -280.2025
   9   2.0000     -10.291304      -280.0406
  10   2.0000     -10.287827      -279.9460
  11   2.0000     -10.287439      -279.9354
  12   2.0000     -10.283221      -279.8207
  13   2.0000     -10.281719      -279.7798
  14   2.0000     -10.278202      -279.6841
  15   2.0000     -10.276635      -279.6415
  16   2.0000      -8.081158      -219.8995
  17   2.0000      -8.073753      -219.6980
  18   2.0000      -6.039773      -164.3506
  19   2.0000      -6.035454      -164.2330
  20   2.0000      -6.032452      -164.1514
  21   2.0000      -6.031955      -164.1379
  22   2.0000      -6.028086      -164.0326
  23   2.0000      -6.024282      -163.9291
  24   2.0000      -1.013544       -27.5799
  25   2.0000      -0.991701       -26.9856
  26   2.0000      -0.914146       -24.8752
  27   2.0000      -0.911828       -24.8121
  28   2.0000      -0.879484       -23.9320
  29   2.0000      -0.850388       -23.1402
  30   2.0000      -0.842047       -22.9133
  31   2.0000      -0.820019       -22.3139
  32   2.0000      -0.780140       -21.2287
  33   2.0000      -0.771170       -20.9846
  34   2.0000      -0.712784       -19.3958
  35   2.0000      -0.710208       -19.3257
  36   2.0000      -0.700261       -19.0551
  37   2.0000      -0.668362       -18.1871
  38   2.0000      -0.638723       -17.3805
  39   2.0000      -0.616422       -16.7737
  40   2.0000      -0.601440       -16.3660
  41   2.0000      -0.575843       -15.6695
  42   2.0000      -0.557937       -15.1822
  43   2.0000      -0.552842       -15.0436
  44   2.0000      -0.543517       -14.7898
  45   2.0000      -0.526959       -14.3393
  46   2.0000      -0.526269       -14.3205
  47   2.0000      -0.514932       -14.0120
  48   2.0000      -0.510549       -13.8928
  49   2.0000      -0.494637       -13.4597
  50   2.0000      -0.490722       -13.3532
  51   2.0000      -0.487781       -13.2732
  52   2.0000      -0.472374       -12.8539
  53   2.0000      -0.465441       -12.6653
  54   2.0000      -0.457562       -12.4509
  55   2.0000      -0.449896       -12.2423
  56   2.0000      -0.443949       -12.0805
  57   2.0000      -0.441748       -12.0206
  58   2.0000      -0.430495       -11.7144
  59   2.0000      -0.427395       -11.6300
  60   2.0000      -0.415870       -11.3164
  61   2.0000      -0.405444       -11.0327
  62   2.0000      -0.399622       -10.8743
  63   2.0000      -0.369316       -10.0496
  64   2.0000      -0.328046        -8.9266
  65   2.0000      -0.324332        -8.8255
  66   2.0000      -0.289246        -7.8708
  67   0.0000       0.027056         0.7362
  68   0.0000       0.084210         2.2915
  69   0.0000       0.119052         3.2396
  70   0.0000       0.126383         3.4391
  71   0.0000       0.133141         3.6229

MULLIKEN ATOMIC CHARGES
-----------------------
   0 S :    0.091892
   1 C :   -0.086023
   2 C :   -0.105475
   3 C :   -0.035457
   4 C :   -0.076471
   5 H :    0.028971
   6 C :    0.020183
   7 H :    0.032566
   8 H :    0.026410
   9 C :    0.029971
  10 H :    0.016362
  11 H :    0.023045
  12 C :   -0.076208
  13 H :    0.034207
  14 H :    0.013549
  15 H :    0.039620
  16 S :    0.065697
  17 C :   -0.074425
  18 C :   -0.019071
  19 C :   -0.053165
  20 C :   -0.107647
  21 H :    0.008374
  22 C :    0.021656
  23 H :    0.021021
  24 H :    0.008287
  25 C :   -0.003549
  26 H :    0.012719
  27 H :    0.009006
  28 C :   -0.053720
  29 H :    0.045889
  30 H :    0.023495
  31 H :    0.033808
  32 H :    0.026710
  33 H :    0.057772
Sum of atomic charges:    0.0000000

LOEWDIN ATOMIC CHARGES
----------------------
   0 S :    0.429746
   1 C :   -0.202224
   2 C :   -0.058899
   3 C :   -0.077947
   4 C :   -0.191591
   5 H :    0.031099
   6 C :   -0.029365
   7 H :    0.038320
   8 H :    0.027600
   9 C :   -0.039637
  10 H :    0.023571
  11 H :    0.028133
  12 C :   -0.076223
  13 H :    0.026575
  14 H :    0.024755
  15 H :    0.030531
  16 S :    0.400641
  17 C :   -0.182945
  18 C :   -0.071142
  19 C :   -0.063485
  20 C :   -0.182372
  21 H :    0.024781
  22 C :   -0.041698
  23 H :    0.036433
  24 H :    0.018114
  25 C :   -0.030770
  26 H :    0.020381
  27 H :    0.017053
  28 C :   -0.062238
  29 H :    0.031767
  30 H :    0.019130
  31 H :    0.028526
  32 H :    0.018710
  33 H :    0.034669

  Mayer bond orders larger than 0.100000
B(  0-S ,  1-C ) :   1.1427 B(  0-S ,  4-C ) :   1.1522 B(  1-C ,  2-C ) :   1.5862
B(  1-C , 32-H ) :   0.9855 B(  2-C ,  3-C ) :   1.2654 B(  2-C ,  6-C ) :   1.0128
B(  3-C ,  4-C ) :   1.5649 B(  3-C ,  5-H ) :   0.9813 B(  4-C , 20-C ) :   1.0506
B(  6-C ,  7-H ) :   0.9402 B(  6-C ,  8-H ) :   0.9468 B(  6-C ,  9-C ) :   1.0667
B(  9-C , 10-H ) :   0.9473 B(  9-C , 11-H ) :   0.9513 B(  9-C , 12-C ) :   1.0737
B( 12-C , 13-H ) :   0.9744 B( 12-C , 14-H ) :   0.9711 B( 12-C , 15-H ) :   0.9726
B( 16-S , 17-C ) :   1.1280 B( 16-S , 20-C ) :   1.1359 B( 17-C , 18-C ) :   1.6461
B( 17-C , 33-H ) :   0.9745 B( 18-C , 19-C ) :   1.2160 B( 18-C , 21-H ) :   0.9854
B( 19-C , 20-C ) :   1.5940 B( 19-C , 22-C ) :   1.0397 B( 22-C , 23-H ) :   0.9282
B( 22-C , 24-H ) :   0.9401 B( 22-C , 25-C ) :   1.0576 B( 25-C , 26-H ) :   0.9490
B( 25-C , 27-H ) :   0.9532 B( 25-C , 28-C ) :   1.0752 B( 28-C , 29-H ) :   0.9752
B( 28-C , 30-H ) :   0.9771 B( 28-C , 31-H ) :   0.9742

Dispersion correction           -0.014163918
FINAL SINGLE POINT ENERGY     -1339.870586563712

DIPOLE MOMENT
-------------
                                X             Y             Z
Electronic contribution:      9.86604      13.68502       2.75257
Nuclear contribution   :    -10.09599     -13.90261      -2.85822
                        -----------------------------------------
Total Dipole Moment    :     -0.22995      -0.21759      -0.10566
                        -----------------------------------------
Magnitude (a.u.)       :      0.33375
Magnitude (Debye)      :      0.84832

Rotational constants in cm-1:     0.017906     0.008919     0.007189
Rotational constants in MHz :   536.806264   267.381265   215.534973

                             ****ORCA TERMINATED NORMALLY****
TOTAL RUN TIME: 0 days 0 hours 0 minutes 20 seconds 208 msec
