                         Program Version 4.2.1 -  RELEASE  -
|  1> ! wB97X-D3 SP def2-SVP
|  2> %pal
|  3> nprocs 24
|  4> end
|  5>
|  6> * xyz 0 1
|  7> S 	 -100.234 	 -4.97143 	 -102.272
|  8> C 	 -99.5492 	 -5.42757 	 -103.85
|  9> C 	 -100.357 	 -5.10026 	 -104.916
| 10> C 	 -101.612 	 -4.56093 	 -104.363
| 11> C 	 -101.81 	 -4.54548 	 -103.01
| 12> H 	 -102.441 	 -4.21028 	 -105.004
| 13> C 	 -100.035 	 -5.36044 	 -106.412
| 14> H 	 -99.224 	 -6.13762 	 -106.403
| 15> H 	 -99.6193 	 -4.47557 	 -106.926
| 16> C 	 -101.108 	 -5.94876 	 -107.247
| 17> H 	 -101.483 	 -6.88728 	 -106.84
| 18> H 	 -102.026 	 -5.35372 	 -107.185
| 19> C 	 -100.494 	 -6.06584 	 -108.704
| 20> H 	 -100.501 	 -5.01215 	 -109.193
| 21> H 	 -99.5344 	 -6.50026 	 -108.581
| 22> H 	 -101.045 	 -6.76891 	 -109.384
| 23> S 	 -102.652 	 -3.00919 	 -100.936
| 24> C 	 -104.37 	 -2.85675 	 -100.641
| 25> C 	 -105.053 	 -3.4108 	 -101.711
| 26> C 	 -104.282 	 -4.33863 	 -102.451
| 27> C 	 -102.955 	 -4.08183 	 -102.314
| 28> H 	 -106.097 	 -3.13729 	 -101.835
| 29> C 	 -104.958 	 -5.12217 	 -103.578
| 30> H 	 -105.743 	 -5.74754 	 -103.22
| 31> H 	 -104.165 	 -5.76054 	 -104.004
| 32> C 	 -105.606 	 -4.22861 	 -104.681
| 33> H 	 -104.877 	 -3.5248 	 -104.935
| 34> H 	 -106.432 	 -3.65592 	 -104.156
| 35> C 	 -106.082 	 -5.03018 	 -105.834
| 36> H 	 -106.515 	 -4.41512 	 -106.62
| 37> H 	 -106.773 	 -5.87602 	 -105.493
| 38> H 	 -105.188 	 -5.47562 	 -106.253
| 39> H 	 -98.5106 	 -5.67086 	 -103.876
| 40> H 	 -104.877 	 -2.27239 	 -99.909
| 41> *
| 42>
| 43>                          ****END OF INPUT****

CARTESIAN COORDINATES (ANGSTROEM)
---------------------------------
  S    -100.234000   -4.971430  -102.272000
  C    -99.549200   -5.427570  -103.850000
  C    -100.357000   -5.100260  -104.916000
  C    -101.612000   -4.560930  -104.363000
  C    -101.810000   -4.545480  -103.010000
  H    -102.441000   -4.210280  -105.004000
  C    -100.035000   -5.360440  -106.412000
  H    -99.224000   -6.137620  -106.403000
  H    -99.619300   -4.475570  -106.926000
  C    -101.108000   -5.948760  -107.247000
  H    -101.483000   -6.887280  -106.840000
  H    -102.026000   -5.353720  -107.185000
  C    -100.494000   -6.065840  -108.704000
  H    -100.501000   -5.012150  -109.193000
  H    -99.534400   -6.500260  -108.581000
  H    -101.045000   -6.768910  -109.384000
  S    -102.652000   -3.009190  -100.936000
  C    -104.370000   -2.856750  -100.641000
  C    -105.053000   -3.410800  -101.711000
  C    -104.282000   -4.338630  -102.451000
  C    -102.955000   -4.081830  -102.314000
  H    -106.097000   -3.137290  -101.835000
  C    -104.958000   -5.122170  -103.578000
  H    -105.743000   -5.747540  -103.220000
  H    -104.165000   -5.760540  -104.004000
  C    -105.606000   -4.228610  -104.681000
  H    -104.877000   -3.524800  -104.935000
  H    -106.432000   -3.655920  -104.156000
  C    -106.082000   -5.030180  -105.834000
  H    -106.515000   -4.415120  -106.620000
  H    -106.773000   -5.876020  -105.493000
  H    -105.188000   -5.475620  -106.253000
  H    -98.510600   -5.670860  -103.876000
  H    -104.877000   -2.272390  -99.909000

 Total Charge           Charge          ....    0
 Multiplicity           Mult            ....    1
 Number of Electrons    NEL             ....  134
 Basis Dimension        Dim             ....  322

ORBITAL ENERGIES
----------------

  NO   OCC          E(Eh)            E(eV)
   0   2.0000     -88.964204     -2420.8391
   1   2.0000     -88.962267     -2420.7863
   2   2.0000     -10.329673      -281.0847
   3   2.0000     -10.325966      -280.9838
   4   2.0000     -10.317954      -280.7658
   5   2.0000     -10.314896      -280.6826
   6   2.0000     -10.311239      -280.5831
   7   2.0000     -10.302354      -280.3413
   8   2.0000     -10.301245      -280.3111
   9   2.0000     -10.300342      -280.2866
  10   2.0000     -10.294099      -280.1167
  11   2.0000     -10.291765      -280.0532
  12   2.0000     -10.290613      -280.0218
  13   2.0000     -10.290517      -280.0192
  14   2.0000     -10.286080      -279.8985
  15   2.0000     -10.283441      -279.8267
  16   2.0000      -8.078827      -219.8361
  17   2.0000      -8.076258      -219.7662
  18   2.0000      -6.037393      -164.2858
  19   2.0000      -6.034958      -164.2195
  20   2.0000      -6.033494      -164.1797
  21   2.0000      -6.030984      -164.1114
  22   2.0000      -6.029358      -164.0672
  23   2.0000      -6.026737      -163.9959
  24   2.0000      -1.008777       -27.4502
  25   2.0000      -0.980848       -26.6902
  26   2.0000      -0.917350       -24.9624
  27   2.0000      -0.914113       -24.8743
  28   2.0000      -0.876346       -23.8466
  29   2.0000      -0.855718       -23.2853
  30   2.0000      -0.836432       -22.7605
  31   2.0000      -0.814089       -22.1525
  32   2.0000      -0.779752       -21.2181
  33   2.0000      -0.771721       -20.9996
  34   2.0000      -0.713756       -19.4223
  35   2.0000      -0.699213       -19.0266
  36   2.0000      -0.697261       -18.9734
  37   2.0000      -0.663425       -18.0527
  38   2.0000      -0.646056       -17.5801
  39   2.0000      -0.617600       -16.8057
  40   2.0000      -0.597075       -16.2472
  41   2.0000      -0.574295       -15.6273
  42   2.0000      -0.572722       -15.5845
  43   2.0000      -0.564575       -15.3629
  44   2.0000      -0.531195       -14.4545
  45   2.0000      -0.526846       -14.3362
  46   2.0000      -0.514310       -13.9951
  47   2.0000      -0.511983       -13.9318
  48   2.0000      -0.501661       -13.6509
  49   2.0000      -0.496647       -13.5145
  50   2.0000      -0.495601       -13.4860
  51   2.0000      -0.481748       -13.1090
  52   2.0000      -0.472983       -12.8705
  53   2.0000      -0.468216       -12.7408
  54   2.0000      -0.458979       -12.4894
  55   2.0000      -0.447241       -12.1700
  56   2.0000      -0.444516       -12.0959
  57   2.0000      -0.441078       -12.0023
  58   2.0000      -0.431636       -11.7454
  59   2.0000      -0.426435       -11.6039
  60   2.0000      -0.420409       -11.4399
  61   2.0000      -0.418417       -11.3857
  62   2.0000      -0.414382       -11.2759
  63   2.0000      -0.350535        -9.5386
  64   2.0000      -0.329025        -8.9532
  65   2.0000      -0.327452        -8.9104
  66   2.0000      -0.292584        -7.9616
  67   0.0000       0.024020         0.6536
  68   0.0000       0.071703         1.9511
  69   0.0000       0.098284         2.6745
  70   0.0000       0.119247         3.2449
  71   0.0000       0.121629         3.3097

MULLIKEN ATOMIC CHARGES
-----------------------
   0 S :    0.085849
   1 C :   -0.124857
   2 C :   -0.044850
   3 C :   -0.011604
   4 C :   -0.116553
   5 H :    0.013214
   6 C :    0.039257
   7 H :    0.030192
   8 H :    0.047136
   9 C :   -0.088972
  10 H :    0.029371
  11 H :    0.029310
  12 C :   -0.073601
  13 H :    0.059111
  14 H :    0.029927
  15 H :    0.042441
  16 S :    0.102690
  17 C :   -0.075234
  18 C :   -0.062516
  19 C :   -0.024629
  20 C :   -0.144836
  21 H :    0.029199
  22 C :    0.037077
  23 H :    0.019538
  24 H :    0.029076
  25 C :   -0.087168
  26 H :    0.019632
  27 H :    0.032014
  28 C :   -0.021245
  29 H :    0.041545
  30 H :    0.042807
  31 H :    0.020738
  32 H :    0.048290
  33 H :    0.047652
Sum of atomic charges:    0.0000000

LOEWDIN ATOMIC CHARGES
----------------------
   0 S :    0.364144
   1 C :   -0.171184
   2 C :   -0.062725
   3 C :   -0.062293
   4 C :   -0.186060
   5 H :    0.028412
   6 C :   -0.035298
   7 H :    0.036226
   8 H :    0.035753
   9 C :   -0.047820
  10 H :    0.024636
  11 H :    0.019681
  12 C :   -0.065901
  13 H :    0.040680
  14 H :    0.018921
  15 H :    0.029721
  16 S :    0.392734
  17 C :   -0.179582
  18 C :   -0.067063
  19 C :   -0.055674
  20 C :   -0.183825
  21 H :    0.030565
  22 C :   -0.026636
  23 H :    0.024476
  24 H :    0.028072
  25 C :   -0.039962
  26 H :    0.012804
  27 H :    0.026010
  28 C :   -0.065648
  29 H :    0.028535
  30 H :    0.035821
  31 H :    0.024401
  32 H :    0.022083
  33 H :    0.025998

  Mayer bond orders larger than 0.100000
B(  0-S ,  1-C ) :   1.1357 B(  0-S ,  4-C ) :   1.1002 B(  1-C ,  2-C ) :   1.6420
B(  1-C , 32-H ) :   0.9669 B(  2-C ,  3-C ) :   1.2074 B(  2-C ,  6-C ) :   1.0017
B(  3-C ,  4-C ) :   1.6064 B(  3-C ,  5-H ) :   0.9857 B(  4-C , 20-C ) :   1.0893
B(  6-C ,  7-H ) :   0.9464 B(  6-C ,  8-H ) :   0.9401 B(  6-C ,  9-C ) :   1.0623
B(  9-C , 10-H ) :   0.9568 B(  9-C , 11-H ) :   0.9544 B(  9-C , 12-C ) :   1.0630
B( 12-C , 13-H ) :   0.9744 B( 12-C , 14-H ) :   0.9747 B( 12-C , 15-H ) :   0.9757
B( 16-S , 17-C ) :   1.1405 B( 16-S , 20-C ) :   1.1177 B( 17-C , 18-C ) :   1.6412
B( 17-C , 20-C ) :   0.1011 B( 17-C , 33-H ) :   0.9704 B( 18-C , 19-C ) :   1.1957
B( 18-C , 21-H ) :   0.9836 B( 19-C , 20-C ) :   1.6130 B( 19-C , 22-C ) :   1.0652
B( 22-C , 23-H ) :   0.9274 B( 22-C , 24-H ) :   0.9390 B( 22-C , 25-C ) :   1.0534
B( 25-C , 26-H ) :   0.9553 B( 25-C , 27-H ) :   0.9457 B( 25-C , 28-C ) :   1.0913
B( 28-C , 29-H ) :   0.9696 B( 28-C , 30-H ) :   0.9696 B( 28-C , 31-H ) :   0.9699

Dispersion correction           -0.014109563
FINAL SINGLE POINT ENERGY     -1339.863097727194

DIPOLE MOMENT
-------------
                                X             Y             Z
Electronic contribution:     10.36874       8.32418      30.89235
Nuclear contribution   :    -10.72448      -8.34263     -31.68004
                        -----------------------------------------
Total Dipole Moment    :     -0.35574      -0.01845      -0.78769
                        -----------------------------------------
Magnitude (a.u.)       :      0.86449
Magnitude (Debye)      :      2.19737

Rotational constants in cm-1:     0.017164     0.009510     0.006386
Rotational constants in MHz :   514.572656   285.115538   191.441593

                             ****ORCA TERMINATED NORMALLY****
TOTAL RUN TIME: 0 days 0 hours 0 minutes 20 seconds 881 msec
