                         Program Version 4.2.1 -  RELEASE  -
|  1> ! wB97X-D3 SP def2-SVP
|  2> %pal
|  3> nprocs 24
|  4> end
|  5>
|  6> * xyz 0 1
|  7> S 	 -53.8562 	 17.3781 	 25.4443
|  8> C 	 -54.8354 	 17.5756 	 26.9408
|  9> C 	 -56.1239 	 17.1128 	 26.6691
| 10> C 	 -56.2426 	 16.4455 	 25.421
| 11> C 	 -55.1482 	 16.6303 	 24.5648
| 12> H 	 -57.1233 	 15.9975 	 24.9915
| 13> C 	 -57.2993 	 17.22 	 27.5977
| 14> H 	 -58.0822 	 17.7125 	 26.9768
| 15> H 	 -57.0618 	 17.8688 	 28.416
| 16> C 	 -57.8156 	 15.8561 	 28.0558
| 17> H 	 -58.0033 	 15.3869 	 27.0869
| 18> H 	 -56.9955 	 15.3132 	 28.5235
| 19> C 	 -59.1352 	 16.131 	 28.8987
| 20> H 	 -59.8606 	 16.7799 	 28.4411
| 21> H 	 -59.7053 	 15.1957 	 28.9822
| 22> H 	 -58.9033 	 16.5646 	 29.8926
| 23> S 	 -54.6874 	 17.7122 	 22.0014
| 24> C 	 -55.0001 	 16.6742 	 20.6205
| 25> C 	 -55.4839 	 15.4563 	 21.03
| 26> C 	 -55.5046 	 15.259 	 22.4139
| 27> C 	 -55.0945 	 16.3958 	 23.0784
| 28> H 	 -55.8694 	 14.731 	 20.3261
| 29> C 	 -56.011 	 13.9313 	 22.9921
| 30> H 	 -57.1208 	 13.7187 	 22.9602
| 31> H 	 -55.801 	 13.7981 	 24.0347
| 32> C 	 -55.3646 	 12.7481 	 22.2582
| 33> H 	 -55.7345 	 12.7382 	 21.2656
| 34> H 	 -55.8183 	 11.8491 	 22.6396
| 35> C 	 -53.8367 	 12.8024 	 22.2621
| 36> H 	 -53.4395 	 11.777 	 22.0398
| 37> H 	 -53.5123 	 13.2058 	 23.2734
| 38> H 	 -53.4458 	 13.4529 	 21.5052
| 39> H 	 -54.5959 	 18.0859 	 27.8357
| 40> H 	 -54.9409 	 16.9907 	 19.561
| 41> *
| 42>
| 43>                          ****END OF INPUT****

CARTESIAN COORDINATES (ANGSTROEM)
---------------------------------
  S    -53.856200   17.378100   25.444300
  C    -54.835400   17.575600   26.940800
  C    -56.123900   17.112800   26.669100
  C    -56.242600   16.445500   25.421000
  C    -55.148200   16.630300   24.564800
  H    -57.123300   15.997500   24.991500
  C    -57.299300   17.220000   27.597700
  H    -58.082200   17.712500   26.976800
  H    -57.061800   17.868800   28.416000
  C    -57.815600   15.856100   28.055800
  H    -58.003300   15.386900   27.086900
  H    -56.995500   15.313200   28.523500
  C    -59.135200   16.131000   28.898700
  H    -59.860600   16.779900   28.441100
  H    -59.705300   15.195700   28.982200
  H    -58.903300   16.564600   29.892600
  S    -54.687400   17.712200   22.001400
  C    -55.000100   16.674200   20.620500
  C    -55.483900   15.456300   21.030000
  C    -55.504600   15.259000   22.413900
  C    -55.094500   16.395800   23.078400
  H    -55.869400   14.731000   20.326100
  C    -56.011000   13.931300   22.992100
  H    -57.120800   13.718700   22.960200
  H    -55.801000   13.798100   24.034700
  C    -55.364600   12.748100   22.258200
  H    -55.734500   12.738200   21.265600
  H    -55.818300   11.849100   22.639600
  C    -53.836700   12.802400   22.262100
  H    -53.439500   11.777000   22.039800
  H    -53.512300   13.205800   23.273400
  H    -53.445800   13.452900   21.505200
  H    -54.595900   18.085900   27.835700
  H    -54.940900   16.990700   19.561000

 Total Charge           Charge          ....    0
 Multiplicity           Mult            ....    1
 Number of Electrons    NEL             ....  134
 Basis Dimension        Dim             ....  322

ORBITAL ENERGIES
----------------

  NO   OCC          E(Eh)            E(eV)
   0   2.0000     -88.970916     -2421.0217
   1   2.0000     -88.965410     -2420.8719
   2   2.0000     -10.333878      -281.1991
   3   2.0000     -10.331939      -281.1464
   4   2.0000     -10.320903      -280.8460
   5   2.0000     -10.314415      -280.6695
   6   2.0000     -10.301752      -280.3249
   7   2.0000     -10.300119      -280.2805
   8   2.0000     -10.294682      -280.1325
   9   2.0000     -10.292642      -280.0770
  10   2.0000     -10.291982      -280.0591
  11   2.0000     -10.290891      -280.0294
  12   2.0000     -10.287793      -279.9451
  13   2.0000     -10.285989      -279.8960
  14   2.0000     -10.278369      -279.6886
  15   2.0000     -10.278313      -279.6871
  16   2.0000      -8.085442      -220.0161
  17   2.0000      -8.079379      -219.8511
  18   2.0000      -6.043979      -164.4650
  19   2.0000      -6.040050      -164.3581
  20   2.0000      -6.038000      -164.3023
  21   2.0000      -6.036094      -164.2505
  22   2.0000      -6.033836      -164.1890
  23   2.0000      -6.030218      -164.0906
  24   2.0000      -1.006706       -27.3939
  25   2.0000      -0.984305       -26.7843
  26   2.0000      -0.913797       -24.8657
  27   2.0000      -0.911648       -24.8072
  28   2.0000      -0.863206       -23.4890
  29   2.0000      -0.847638       -23.0654
  30   2.0000      -0.839601       -22.8467
  31   2.0000      -0.811679       -22.0869
  32   2.0000      -0.782259       -21.2863
  33   2.0000      -0.773174       -21.0391
  34   2.0000      -0.709899       -19.3173
  35   2.0000      -0.698926       -19.0187
  36   2.0000      -0.696050       -18.9405
  37   2.0000      -0.657645       -17.8954
  38   2.0000      -0.640814       -17.4374
  39   2.0000      -0.620251       -16.8779
  40   2.0000      -0.604813       -16.4578
  41   2.0000      -0.567580       -15.4446
  42   2.0000      -0.562205       -15.2984
  43   2.0000      -0.551116       -14.9966
  44   2.0000      -0.536118       -14.5885
  45   2.0000      -0.518353       -14.1051
  46   2.0000      -0.516307       -14.0494
  47   2.0000      -0.504682       -13.7331
  48   2.0000      -0.501643       -13.6504
  49   2.0000      -0.499286       -13.5863
  50   2.0000      -0.489786       -13.3278
  51   2.0000      -0.476442       -12.9646
  52   2.0000      -0.474705       -12.9174
  53   2.0000      -0.463894       -12.6232
  54   2.0000      -0.462473       -12.5845
  55   2.0000      -0.452503       -12.3132
  56   2.0000      -0.446327       -12.1452
  57   2.0000      -0.436512       -11.8781
  58   2.0000      -0.432960       -11.7814
  59   2.0000      -0.428393       -11.6572
  60   2.0000      -0.424027       -11.5384
  61   2.0000      -0.413095       -11.2409
  62   2.0000      -0.408301       -11.1104
  63   2.0000      -0.344806        -9.3827
  64   2.0000      -0.335297        -9.1239
  65   2.0000      -0.327147        -8.9021
  66   2.0000      -0.293897        -7.9973
  67   0.0000       0.028908         0.7866
  68   0.0000       0.071244         1.9387
  69   0.0000       0.112518         3.0618
  70   0.0000       0.120380         3.2757
  71   0.0000       0.127317         3.4645

MULLIKEN ATOMIC CHARGES
-----------------------
   0 S :    0.097327
   1 C :   -0.097943
   2 C :   -0.103059
   3 C :    0.025930
   4 C :   -0.161994
   5 H :    0.014290
   6 C :    0.053655
   7 H :    0.038164
   8 H :    0.008695
   9 C :   -0.078254
  10 H :    0.025580
  11 H :    0.041977
  12 C :   -0.041026
  13 H :    0.025226
  14 H :    0.035389
  15 H :    0.044367
  16 S :    0.124265
  17 C :   -0.105016
  18 C :   -0.038431
  19 C :   -0.017645
  20 C :   -0.156359
  21 H :    0.018479
  22 C :    0.051253
  23 H :    0.044289
  24 H :    0.021868
  25 C :   -0.075519
  26 H :    0.005870
  27 H :    0.015276
  28 C :   -0.041196
  29 H :    0.041652
  30 H :    0.042991
  31 H :    0.037078
  32 H :    0.033533
  33 H :    0.069288
Sum of atomic charges:   -0.0000000

LOEWDIN ATOMIC CHARGES
----------------------
   0 S :    0.394787
   1 C :   -0.190523
   2 C :   -0.058646
   3 C :   -0.072581
   4 C :   -0.190800
   5 H :    0.027697
   6 C :   -0.032838
   7 H :    0.036704
   8 H :    0.020057
   9 C :   -0.034042
  10 H :    0.023264
  11 H :    0.028122
  12 C :   -0.067225
  13 H :    0.023757
  14 H :    0.027537
  15 H :    0.030758
  16 S :    0.412163
  17 C :   -0.188640
  18 C :   -0.068276
  19 C :   -0.060989
  20 C :   -0.196610
  21 H :    0.031608
  22 C :   -0.033008
  23 H :    0.038719
  24 H :    0.024150
  25 C :   -0.043782
  26 H :    0.011907
  27 H :    0.021377
  28 C :   -0.066649
  29 H :    0.031933
  30 H :    0.034577
  31 H :    0.024125
  32 H :    0.023145
  33 H :    0.038222

  Mayer bond orders larger than 0.100000
B(  0-S ,  1-C ) :   1.1156 B(  0-S ,  4-C ) :   1.1709 B(  1-C ,  2-C ) :   1.6044
B(  1-C ,  4-C ) :   0.1010 B(  1-C , 32-H ) :   0.9747 B(  2-C ,  3-C ) :   1.2407
B(  2-C ,  6-C ) :   1.0298 B(  3-C ,  4-C ) :   1.5637 B(  3-C ,  5-H ) :   0.9849
B(  4-C , 20-C ) :   1.0100 B(  6-C ,  7-H ) :   0.9390 B(  6-C ,  8-H ) :   0.9436
B(  6-C ,  9-C ) :   1.0481 B(  9-C , 10-H ) :   0.9575 B(  9-C , 11-H ) :   0.9605
B(  9-C , 12-C ) :   1.0635 B( 12-C , 13-H ) :   0.9753 B( 12-C , 14-H ) :   0.9760
B( 12-C , 15-H ) :   0.9770 B( 16-S , 17-C ) :   1.1465 B( 16-S , 20-C ) :   1.1567
B( 17-C , 18-C ) :   1.6027 B( 17-C , 33-H ) :   0.9643 B( 18-C , 19-C ) :   1.2569
B( 18-C , 21-H ) :   0.9870 B( 19-C , 20-C ) :   1.5952 B( 19-C , 22-C ) :   1.0323
B( 22-C , 23-H ) :   0.9407 B( 22-C , 24-H ) :   0.9331 B( 22-C , 25-C ) :   1.0818
B( 25-C , 26-H ) :   0.9478 B( 25-C , 27-H ) :   0.9535 B( 25-C , 28-C ) :   1.0676
B( 28-C , 29-H ) :   0.9738 B( 28-C , 30-H ) :   0.9771 B( 28-C , 31-H ) :   0.9683

Dispersion correction           -0.014286956
FINAL SINGLE POINT ENERGY     -1339.878790458571

DIPOLE MOMENT
-------------
                                X             Y             Z
Electronic contribution:     14.74259      18.03558     -10.31575
Nuclear contribution   :    -15.41403     -18.36388      10.30032
                        -----------------------------------------
Total Dipole Moment    :     -0.67143      -0.32829      -0.01543
                        -----------------------------------------
Magnitude (a.u.)       :      0.74755
Magnitude (Debye)      :      1.90013

Rotational constants in cm-1:     0.019694     0.007940     0.006714
Rotational constants in MHz :   590.400738   238.042925   201.265985

                             ****ORCA TERMINATED NORMALLY****
TOTAL RUN TIME: 0 days 0 hours 0 minutes 21 seconds 613 msec
