                         Program Version 4.2.1 -  RELEASE  -
|  1> ! wB97X-D3 SP def2-SVP
|  2> %pal
|  3> nprocs 24
|  4> end
|  5>
|  6> * xyz 0 1
|  7> S 	 41.4694 	 -32.829 	 -118.996
|  8> C 	 41.6269 	 -31.3892 	 -119.943
|  9> C 	 41.2854 	 -31.6823 	 -121.302
| 10> C 	 40.7709 	 -32.9825 	 -121.463
| 11> C 	 40.7784 	 -33.7679 	 -120.339
| 12> H 	 40.3498 	 -33.412 	 -122.354
| 13> C 	 41.2219 	 -30.6388 	 -122.382
| 14> H 	 40.7347 	 -29.7875 	 -121.954
| 15> H 	 40.4896 	 -31.0106 	 -123.127
| 16> C 	 42.4439 	 -30.1742 	 -123.103
| 17> H 	 42.1024 	 -29.4214 	 -123.792
| 18> H 	 43.1505 	 -29.7106 	 -122.428
| 19> C 	 43.1531 	 -31.2209 	 -123.867
| 20> H 	 43.8229 	 -30.7515 	 -124.512
| 21> H 	 43.7505 	 -31.814 	 -123.163
| 22> H 	 42.5199 	 -31.8869 	 -124.478
| 23> S 	 41.5274 	 -36.4043 	 -120.276
| 24> C 	 40.2475 	 -37.5469 	 -119.894
| 25> C 	 38.9892 	 -36.9839 	 -119.752
| 26> C 	 38.9681 	 -35.5584 	 -119.908
| 27> C 	 40.3053 	 -35.1011 	 -120.116
| 28> H 	 38.1108 	 -37.5864 	 -119.52
| 29> C 	 37.7507 	 -34.6847 	 -119.679
| 30> H 	 38.1523 	 -33.7788 	 -119.14
| 31> H 	 37.2247 	 -35.175 	 -118.897
| 32> C 	 36.7085 	 -34.4749 	 -120.888
| 33> H 	 36.6534 	 -35.483 	 -121.352
| 34> H 	 37.0899 	 -33.8097 	 -121.709
| 35> C 	 35.236 	 -34.0628 	 -120.722
| 36> H 	 34.7746 	 -33.8311 	 -121.689
| 37> H 	 35.2374 	 -33.1492 	 -120.047
| 38> H 	 34.6647 	 -34.8354 	 -120.309
| 39> H 	 41.9649 	 -30.475 	 -119.49
| 40> H 	 40.3004 	 -38.643 	 -119.764
| 41> *
| 42>
| 43>                          ****END OF INPUT****

CARTESIAN COORDINATES (ANGSTROEM)
---------------------------------
  S     41.469400  -32.829000  -118.996000
  C     41.626900  -31.389200  -119.943000
  C     41.285400  -31.682300  -121.302000
  C     40.770900  -32.982500  -121.463000
  C     40.778400  -33.767900  -120.339000
  H     40.349800  -33.412000  -122.354000
  C     41.221900  -30.638800  -122.382000
  H     40.734700  -29.787500  -121.954000
  H     40.489600  -31.010600  -123.127000
  C     42.443900  -30.174200  -123.103000
  H     42.102400  -29.421400  -123.792000
  H     43.150500  -29.710600  -122.428000
  C     43.153100  -31.220900  -123.867000
  H     43.822900  -30.751500  -124.512000
  H     43.750500  -31.814000  -123.163000
  H     42.519900  -31.886900  -124.478000
  S     41.527400  -36.404300  -120.276000
  C     40.247500  -37.546900  -119.894000
  C     38.989200  -36.983900  -119.752000
  C     38.968100  -35.558400  -119.908000
  C     40.305300  -35.101100  -120.116000
  H     38.110800  -37.586400  -119.520000
  C     37.750700  -34.684700  -119.679000
  H     38.152300  -33.778800  -119.140000
  H     37.224700  -35.175000  -118.897000
  C     36.708500  -34.474900  -120.888000
  H     36.653400  -35.483000  -121.352000
  H     37.089900  -33.809700  -121.709000
  C     35.236000  -34.062800  -120.722000
  H     34.774600  -33.831100  -121.689000
  H     35.237400  -33.149200  -120.047000
  H     34.664700  -34.835400  -120.309000
  H     41.964900  -30.475000  -119.490000
  H     40.300400  -38.643000  -119.764000

 Total Charge           Charge          ....    0
 Multiplicity           Mult            ....    1
 Number of Electrons    NEL             ....  134
 Basis Dimension        Dim             ....  322

ORBITAL ENERGIES
----------------

  NO   OCC          E(Eh)            E(eV)
   0   2.0000     -88.971540     -2421.0387
   1   2.0000     -88.962231     -2420.7854
   2   2.0000     -10.328141      -281.0430
   3   2.0000     -10.322175      -280.8807
   4   2.0000     -10.319399      -280.8051
   5   2.0000     -10.316762      -280.7334
   6   2.0000     -10.311210      -280.5823
   7   2.0000     -10.301760      -280.3252
   8   2.0000     -10.300306      -280.2856
   9   2.0000     -10.297017      -280.1961
  10   2.0000     -10.294382      -280.1244
  11   2.0000     -10.290084      -280.0074
  12   2.0000     -10.282840      -279.8103
  13   2.0000     -10.281808      -279.7822
  14   2.0000     -10.274851      -279.5929
  15   2.0000     -10.265797      -279.3465
  16   2.0000      -8.085138      -220.0078
  17   2.0000      -8.076862      -219.7826
  18   2.0000      -6.043643      -164.4559
  19   2.0000      -6.039945      -164.3553
  20   2.0000      -6.035819      -164.2430
  21   2.0000      -6.035203      -164.2262
  22   2.0000      -6.031136      -164.1155
  23   2.0000      -6.028061      -164.0319
  24   2.0000      -1.000421       -27.2229
  25   2.0000      -0.976951       -26.5842
  26   2.0000      -0.918317       -24.9887
  27   2.0000      -0.897367       -24.4186
  28   2.0000      -0.868015       -23.6199
  29   2.0000      -0.853602       -23.2277
  30   2.0000      -0.850827       -23.1522
  31   2.0000      -0.814114       -22.1532
  32   2.0000      -0.786932       -21.4135
  33   2.0000      -0.766167       -20.8485
  34   2.0000      -0.702571       -19.1179
  35   2.0000      -0.698178       -18.9984
  36   2.0000      -0.689244       -18.7553
  37   2.0000      -0.654953       -17.8222
  38   2.0000      -0.647318       -17.6144
  39   2.0000      -0.610937       -16.6245
  40   2.0000      -0.587163       -15.9775
  41   2.0000      -0.575287       -15.6543
  42   2.0000      -0.557216       -15.1626
  43   2.0000      -0.555019       -15.1028
  44   2.0000      -0.541711       -14.7407
  45   2.0000      -0.522183       -14.2093
  46   2.0000      -0.515396       -14.0247
  47   2.0000      -0.512464       -13.9448
  48   2.0000      -0.506907       -13.7936
  49   2.0000      -0.498384       -13.5617
  50   2.0000      -0.488158       -13.2835
  51   2.0000      -0.475003       -12.9255
  52   2.0000      -0.470734       -12.8093
  53   2.0000      -0.460219       -12.5232
  54   2.0000      -0.458437       -12.4747
  55   2.0000      -0.453709       -12.3460
  56   2.0000      -0.442646       -12.0450
  57   2.0000      -0.434486       -11.8230
  58   2.0000      -0.431582       -11.7439
  59   2.0000      -0.424346       -11.5470
  60   2.0000      -0.417815       -11.3693
  61   2.0000      -0.411937       -11.2094
  62   2.0000      -0.408601       -11.1186
  63   2.0000      -0.339628        -9.2418
  64   2.0000      -0.331434        -9.0188
  65   2.0000      -0.313311        -8.5256
  66   2.0000      -0.302939        -8.2434
  67   0.0000       0.040825         1.1109
  68   0.0000       0.045593         1.2407
  69   0.0000       0.108793         2.9604
  70   0.0000       0.118161         3.2153
  71   0.0000       0.126992         3.4556

MULLIKEN ATOMIC CHARGES
-----------------------
   0 S :    0.108427
   1 C :   -0.129041
   2 C :   -0.074800
   3 C :    0.064275
   4 C :   -0.199044
   5 H :    0.006048
   6 C :    0.051048
   7 H :    0.021141
   8 H :    0.016175
   9 C :   -0.039561
  10 H :    0.019951
  11 H :    0.019437
  12 C :   -0.025161
  13 H :    0.014201
  14 H :    0.036189
  15 H :    0.024483
  16 S :    0.130455
  17 C :   -0.084937
  18 C :   -0.051482
  19 C :   -0.011541
  20 C :   -0.203670
  21 H :    0.020943
  22 C :    0.098451
  23 H :    0.041596
  24 H :    0.007644
  25 C :   -0.106872
  26 H :    0.025822
  27 H :    0.040737
  28 C :   -0.043028
  29 H :    0.040459
  30 H :    0.043945
  31 H :    0.024036
  32 H :    0.053622
  33 H :    0.060047
Sum of atomic charges:    0.0000000

LOEWDIN ATOMIC CHARGES
----------------------
   0 S :    0.408231
   1 C :   -0.199043
   2 C :   -0.066244
   3 C :   -0.056473
   4 C :   -0.202427
   5 H :    0.032716
   6 C :   -0.036826
   7 H :    0.030314
   8 H :    0.031688
   9 C :   -0.041184
  10 H :    0.023883
  11 H :    0.023393
  12 C :   -0.059904
  13 H :    0.018061
  14 H :    0.029805
  15 H :    0.024672
  16 S :    0.398846
  17 C :   -0.191006
  18 C :   -0.075003
  19 C :   -0.042008
  20 C :   -0.197232
  21 H :    0.032351
  22 C :   -0.035798
  23 H :    0.040484
  24 H :    0.027015
  25 C :   -0.049000
  26 H :    0.025838
  27 H :    0.028702
  28 C :   -0.065322
  29 H :    0.032822
  30 H :    0.033360
  31 H :    0.014044
  32 H :    0.025154
  33 H :    0.036088

  Mayer bond orders larger than 0.100000
B(  0-S ,  1-C ) :   1.1777 B(  0-S ,  4-C ) :   1.1496 B(  1-C ,  2-C ) :   1.5333
B(  1-C ,  4-C ) :   0.1163 B(  1-C , 32-H ) :   0.9789 B(  2-C ,  3-C ) :   1.2655
B(  2-C ,  6-C ) :   1.0141 B(  3-C ,  4-C ) :   1.5757 B(  3-C ,  5-H ) :   0.9985
B(  4-C , 20-C ) :   1.0321 B(  6-C ,  7-H ) :   0.9371 B(  6-C ,  8-H ) :   0.9412
B(  6-C ,  9-C ) :   1.0937 B(  9-C , 10-H ) :   0.9483 B(  9-C , 11-H ) :   0.9493
B(  9-C , 12-C ) :   1.0906 B( 12-C , 13-H ) :   0.9699 B( 12-C , 14-H ) :   0.9715
B( 12-C , 15-H ) :   0.9743 B( 16-S , 17-C ) :   1.1396 B( 16-S , 20-C ) :   1.1447
B( 17-C , 18-C ) :   1.6408 B( 17-C , 20-C ) :   0.1024 B( 17-C , 33-H ) :   0.9584
B( 18-C , 19-C ) :   1.2367 B( 18-C , 21-H ) :   0.9791 B( 19-C , 20-C ) :   1.5833
B( 19-C , 22-C ) :   1.0414 B( 22-C , 23-H ) :   0.9301 B( 22-C , 24-H ) :   0.9340
B( 22-C , 25-C ) :   1.0281 B( 25-C , 26-H ) :   0.9590 B( 25-C , 27-H ) :   0.9617
B( 25-C , 28-C ) :   1.0852 B( 28-C , 29-H ) :   0.9723 B( 28-C , 30-H ) :   0.9761
B( 28-C , 31-H ) :   0.9765

Dispersion correction           -0.013998635
FINAL SINGLE POINT ENERGY     -1339.868542729265

DIPOLE MOMENT
-------------
                                X             Y             Z
Electronic contribution:     13.40285     -13.04821      14.65718
Nuclear contribution   :    -13.88116      13.24592     -14.93987
                        -----------------------------------------
Total Dipole Moment    :     -0.47831       0.19771      -0.28269
                        -----------------------------------------
Magnitude (a.u.)       :      0.58973
Magnitude (Debye)      :      1.49898

Rotational constants in cm-1:     0.017089     0.008319     0.006826
Rotational constants in MHz :   512.304107   249.396094   204.638697

                             ****ORCA TERMINATED NORMALLY****
TOTAL RUN TIME: 0 days 0 hours 0 minutes 20 seconds 148 msec
