                         Program Version 4.2.1 -  RELEASE  -
|  1> ! wB97X-D3 SP def2-SVP
|  2> %pal
|  3> nprocs 24
|  4> end
|  5>
|  6> * xyz 0 1
|  7> S 	 -109.058 	 55.8547 	 -92.3873
|  8> C 	 -110.538 	 55.1853 	 -91.6079
|  9> C 	 -110.387 	 54.9105 	 -90.2414
| 10> C 	 -109.104 	 55.3474 	 -89.8965
| 11> C 	 -108.284 	 55.939 	 -90.8282
| 12> H 	 -108.507 	 55.2415 	 -88.9742
| 13> C 	 -111.466 	 54.4391 	 -89.3309
| 14> H 	 -112.333 	 54.6066 	 -89.9255
| 15> H 	 -111.531 	 55.1248 	 -88.4789
| 16> C 	 -111.337 	 52.9907 	 -88.8155
| 17> H 	 -110.434 	 53.0576 	 -88.1414
| 18> H 	 -112.242 	 52.6842 	 -88.2583
| 19> C 	 -111.136 	 51.953 	 -89.9962
| 20> H 	 -111.939 	 51.9597 	 -90.6054
| 21> H 	 -110.233 	 52.1524 	 -90.5768
| 22> H 	 -111.132 	 50.8853 	 -89.5369
| 23> S 	 -105.668 	 55.0329 	 -91.2147
| 24> C 	 -104.329 	 56.1253 	 -90.7432
| 25> C 	 -104.786 	 57.2264 	 -89.9687
| 26> C 	 -106.206 	 57.3091 	 -89.9491
| 27> C 	 -106.87 	 56.3095 	 -90.7465
| 28> H 	 -104.11 	 57.925 	 -89.5112
| 29> C 	 -107.113 	 58.3938 	 -89.3539
| 30> H 	 -106.45 	 58.8133 	 -88.6049
| 31> H 	 -107.921 	 57.8615 	 -88.907
| 32> C 	 -107.556 	 59.3467 	 -90.5223
| 33> H 	 -108.387 	 58.9794 	 -91.0661
| 34> H 	 -106.823 	 59.3581 	 -91.3927
| 35> C 	 -107.849 	 60.8575 	 -90.1991
| 36> H 	 -108.83 	 60.8797 	 -89.6386
| 37> H 	 -107.953 	 61.5367 	 -91.0091
| 38> H 	 -107.128 	 61.2716 	 -89.5119
| 39> H 	 -111.496 	 55.1546 	 -92.1317
| 40> H 	 -103.299 	 56.0303 	 -90.9324
| 41> *
| 42>
| 43>                          ****END OF INPUT****

CARTESIAN COORDINATES (ANGSTROEM)
---------------------------------
  S    -109.058000   55.854700  -92.387300
  C    -110.538000   55.185300  -91.607900
  C    -110.387000   54.910500  -90.241400
  C    -109.104000   55.347400  -89.896500
  C    -108.284000   55.939000  -90.828200
  H    -108.507000   55.241500  -88.974200
  C    -111.466000   54.439100  -89.330900
  H    -112.333000   54.606600  -89.925500
  H    -111.531000   55.124800  -88.478900
  C    -111.337000   52.990700  -88.815500
  H    -110.434000   53.057600  -88.141400
  H    -112.242000   52.684200  -88.258300
  C    -111.136000   51.953000  -89.996200
  H    -111.939000   51.959700  -90.605400
  H    -110.233000   52.152400  -90.576800
  H    -111.132000   50.885300  -89.536900
  S    -105.668000   55.032900  -91.214700
  C    -104.329000   56.125300  -90.743200
  C    -104.786000   57.226400  -89.968700
  C    -106.206000   57.309100  -89.949100
  C    -106.870000   56.309500  -90.746500
  H    -104.110000   57.925000  -89.511200
  C    -107.113000   58.393800  -89.353900
  H    -106.450000   58.813300  -88.604900
  H    -107.921000   57.861500  -88.907000
  C    -107.556000   59.346700  -90.522300
  H    -108.387000   58.979400  -91.066100
  H    -106.823000   59.358100  -91.392700
  C    -107.849000   60.857500  -90.199100
  H    -108.830000   60.879700  -89.638600
  H    -107.953000   61.536700  -91.009100
  H    -107.128000   61.271600  -89.511900
  H    -111.496000   55.154600  -92.131700
  H    -103.299000   56.030300  -90.932400

 Total Charge           Charge          ....    0
 Multiplicity           Mult            ....    1
 Number of Electrons    NEL             ....  134
 Basis Dimension        Dim             ....  322

ORBITAL ENERGIES
----------------

  NO   OCC          E(Eh)            E(eV)
   0   2.0000     -88.968505     -2420.9561
   1   2.0000     -88.966308     -2420.8963
   2   2.0000     -10.329499      -281.0800
   3   2.0000     -10.326562      -281.0000
   4   2.0000     -10.324328      -280.9392
   5   2.0000     -10.322915      -280.9008
   6   2.0000     -10.311008      -280.5768
   7   2.0000     -10.305771      -280.4343
   8   2.0000     -10.301211      -280.3102
   9   2.0000     -10.298858      -280.2462
  10   2.0000     -10.294531      -280.1284
  11   2.0000     -10.293486      -280.1000
  12   2.0000     -10.292846      -280.0826
  13   2.0000     -10.288766      -279.9715
  14   2.0000     -10.277873      -279.6752
  15   2.0000     -10.275700      -279.6160
  16   2.0000      -8.081199      -219.9006
  17   2.0000      -8.080395      -219.8787
  18   2.0000      -6.039823      -164.3519
  19   2.0000      -6.038763      -164.3231
  20   2.0000      -6.036076      -164.2500
  21   2.0000      -6.035029      -164.2215
  22   2.0000      -6.031862      -164.1353
  23   2.0000      -6.031279      -164.1194
  24   2.0000      -1.001351       -27.2482
  25   2.0000      -0.973304       -26.4849
  26   2.0000      -0.914006       -24.8714
  27   2.0000      -0.897414       -24.4199
  28   2.0000      -0.863013       -23.4838
  29   2.0000      -0.843225       -22.9453
  30   2.0000      -0.841376       -22.8950
  31   2.0000      -0.812094       -22.0982
  32   2.0000      -0.787312       -21.4239
  33   2.0000      -0.767204       -20.8767
  34   2.0000      -0.711937       -19.3728
  35   2.0000      -0.700159       -19.0523
  36   2.0000      -0.693018       -18.8580
  37   2.0000      -0.660035       -17.9605
  38   2.0000      -0.646494       -17.5920
  39   2.0000      -0.613894       -16.7049
  40   2.0000      -0.583114       -15.8673
  41   2.0000      -0.568500       -15.4697
  42   2.0000      -0.556054       -15.1310
  43   2.0000      -0.550024       -14.9669
  44   2.0000      -0.543785       -14.7972
  45   2.0000      -0.523359       -14.2413
  46   2.0000      -0.516055       -14.0426
  47   2.0000      -0.515101       -14.0166
  48   2.0000      -0.496845       -13.5199
  49   2.0000      -0.491250       -13.3676
  50   2.0000      -0.483182       -13.1481
  51   2.0000      -0.476753       -12.9731
  52   2.0000      -0.470827       -12.8119
  53   2.0000      -0.463442       -12.6109
  54   2.0000      -0.459002       -12.4901
  55   2.0000      -0.444849       -12.1050
  56   2.0000      -0.441460       -12.0127
  57   2.0000      -0.437386       -11.9019
  58   2.0000      -0.430646       -11.7185
  59   2.0000      -0.427132       -11.6229
  60   2.0000      -0.423762       -11.5312
  61   2.0000      -0.416126       -11.3234
  62   2.0000      -0.402596       -10.9552
  63   2.0000      -0.339009        -9.2249
  64   2.0000      -0.330231        -8.9860
  65   2.0000      -0.322284        -8.7698
  66   2.0000      -0.298364        -8.1189
  67   0.0000       0.027009         0.7350
  68   0.0000       0.046151         1.2558
  69   0.0000       0.103419         2.8142
  70   0.0000       0.115297         3.1374
  71   0.0000       0.120010         3.2656

MULLIKEN ATOMIC CHARGES
-----------------------
   0 S :    0.105528
   1 C :   -0.135626
   2 C :   -0.083748
   3 C :    0.041846
   4 C :   -0.222859
   5 H :    0.015853
   6 C :    0.101929
   7 H :    0.003183
   8 H :    0.038400
   9 C :   -0.097420
  10 H :    0.044323
  11 H :    0.044704
  12 C :   -0.048118
  13 H :    0.006761
  14 H :    0.057100
  15 H :    0.042601
  16 S :    0.107976
  17 C :   -0.069760
  18 C :   -0.038962
  19 C :   -0.087155
  20 C :   -0.151366
  21 H :    0.018884
  22 C :    0.148119
  23 H :    0.020205
  24 H :    0.027239
  25 C :   -0.087253
  26 H :    0.024088
  27 H :    0.040263
  28 C :   -0.049858
  29 H :    0.028885
  30 H :    0.032028
  31 H :    0.024191
  32 H :    0.055008
  33 H :    0.043011
Sum of atomic charges:   -0.0000000

LOEWDIN ATOMIC CHARGES
----------------------
   0 S :    0.392559
   1 C :   -0.174412
   2 C :   -0.064585
   3 C :   -0.066629
   4 C :   -0.211631
   5 H :    0.034420
   6 C :   -0.031188
   7 H :    0.024289
   8 H :    0.036513
   9 C :   -0.038240
  10 H :    0.029971
  11 H :    0.028817
  12 C :   -0.061123
  13 H :    0.005357
  14 H :    0.030271
  15 H :    0.037883
  16 S :    0.375548
  17 C :   -0.160737
  18 C :   -0.072327
  19 C :   -0.040170
  20 C :   -0.201527
  21 H :    0.031217
  22 C :   -0.020565
  23 H :    0.028987
  24 H :    0.029210
  25 C :   -0.042031
  26 H :    0.020463
  27 H :    0.032530
  28 C :   -0.069124
  29 H :    0.028813
  30 H :    0.021472
  31 H :    0.019345
  32 H :    0.025997
  33 H :    0.020628

  Mayer bond orders larger than 0.100000
B(  0-S ,  1-C ) :   1.1600 B(  0-S ,  4-C ) :   1.1317 B(  1-C ,  2-C ) :   1.5831
B(  1-C ,  4-C ) :   0.1061 B(  1-C , 32-H ) :   0.9607 B(  2-C ,  3-C ) :   1.2194
B(  2-C ,  6-C ) :   1.0168 B(  3-C ,  4-C ) :   1.6111 B(  3-C ,  5-H ) :   0.9813
B(  4-C , 20-C ) :   1.0200 B(  6-C ,  7-H ) :   0.9327 B(  6-C ,  8-H ) :   0.9435
B(  6-C ,  9-C ) :   1.0569 B(  9-C , 10-H ) :   0.9605 B(  9-C , 11-H ) :   0.9588
B(  9-C , 12-C ) :   1.0690 B( 12-C , 13-H ) :   0.9778 B( 12-C , 14-H ) :   0.9730
B( 12-C , 15-H ) :   0.9755 B( 16-S , 17-C ) :   1.1669 B( 16-S , 20-C ) :   1.1256
B( 17-C , 18-C ) :   1.5811 B( 17-C , 20-C ) :   0.1208 B( 17-C , 33-H ) :   0.9709
B( 18-C , 19-C ) :   1.2743 B( 18-C , 21-H ) :   0.9899 B( 19-C , 20-C ) :   1.5491
B( 19-C , 22-C ) :   1.0366 B( 22-C , 23-H ) :   0.9403 B( 22-C , 24-H ) :   0.9239
B( 22-C , 25-C ) :   1.0359 B( 25-C , 26-H ) :   0.9531 B( 25-C , 27-H ) :   0.9651
B( 25-C , 28-C ) :   1.0747 B( 28-C , 29-H ) :   0.9763 B( 28-C , 30-H ) :   0.9779
B( 28-C , 31-H ) :   0.9802

Dispersion correction           -0.014836147
FINAL SINGLE POINT ENERGY     -1339.842629235322

DIPOLE MOMENT
-------------
                                X             Y             Z
Electronic contribution:     13.10719      -5.20609     -11.59148
Nuclear contribution   :    -13.35535       5.35233      12.07504
                        -----------------------------------------
Total Dipole Moment    :     -0.24816       0.14624       0.48356
                        -----------------------------------------
Magnitude (a.u.)       :      0.56285
Magnitude (Debye)      :      1.43065

Rotational constants in cm-1:     0.019213     0.008385     0.007062
Rotational constants in MHz :   575.994971   251.374510   211.708563

                             ****ORCA TERMINATED NORMALLY****
TOTAL RUN TIME: 0 days 0 hours 0 minutes 21 seconds 566 msec
