                         Program Version 4.2.1 -  RELEASE  -
|  1> ! wB97X-D3 SP def2-SVP
|  2> %pal
|  3> nprocs 24
|  4> end
|  5>
|  6> * xyz 0 1
|  7> S 	 -102.535 	 0.604414 	 -105.971
|  8> C 	 -101.174 	 1.1109 	 -104.988
|  9> C 	 -101.474 	 2.17262 	 -104.114
| 10> C 	 -102.9 	 2.40862 	 -104.197
| 11> C 	 -103.651 	 1.67937 	 -105.098
| 12> H 	 -103.352 	 3.17173 	 -103.648
| 13> C 	 -100.508 	 2.98464 	 -103.35
| 14> H 	 -100.639 	 3.94662 	 -103.821
| 15> H 	 -99.5343 	 2.5958 	 -103.521
| 16> C 	 -100.679 	 3.05686 	 -101.734
| 17> H 	 -99.8595 	 3.68736 	 -101.289
| 18> H 	 -101.697 	 3.43028 	 -101.543
| 19> C 	 -100.554 	 1.64762 	 -101.181
| 20> H 	 -99.6239 	 1.31122 	 -101.633
| 21> H 	 -100.418 	 1.67315 	 -100.066
| 22> H 	 -101.352 	 0.963363 	 -101.508
| 23> S 	 -105.509 	 1.2599 	 -107.037
| 24> C 	 -107.183 	 1.21601 	 -106.59
| 25> C 	 -107.411 	 1.36247 	 -105.265
| 26> C 	 -106.199 	 1.74255 	 -104.561
| 27> C 	 -105.058 	 1.67383 	 -105.37
| 28> H 	 -108.405 	 1.34115 	 -104.912
| 29> C 	 -106.154 	 1.94518 	 -103.047
| 30> H 	 -106.506 	 3.01713 	 -102.874
| 31> H 	 -105.108 	 2.03641 	 -102.689
| 32> C 	 -106.869 	 0.912201 	 -102.141
| 33> H 	 -106.514 	 -0.00223805 	 -102.505
| 34> H 	 -107.983 	 0.903417 	 -102.183
| 35> C 	 -106.33 	 0.969805 	 -100.664
| 36> H 	 -105.284 	 0.706061 	 -100.71
| 37> H 	 -106.859 	 0.174508 	 -100.043
| 38> H 	 -106.359 	 1.96829 	 -100.211
| 39> H 	 -100.15 	 0.708392 	 -105.094
| 40> H 	 -107.975 	 1.13073 	 -107.33
| 41> *
| 42>
| 43>                          ****END OF INPUT****

CARTESIAN COORDINATES (ANGSTROEM)
---------------------------------
  S    -102.535000    0.604414  -105.971000
  C    -101.174000    1.110900  -104.988000
  C    -101.474000    2.172620  -104.114000
  C    -102.900000    2.408620  -104.197000
  C    -103.651000    1.679370  -105.098000
  H    -103.352000    3.171730  -103.648000
  C    -100.508000    2.984640  -103.350000
  H    -100.639000    3.946620  -103.821000
  H    -99.534300    2.595800  -103.521000
  C    -100.679000    3.056860  -101.734000
  H    -99.859500    3.687360  -101.289000
  H    -101.697000    3.430280  -101.543000
  C    -100.554000    1.647620  -101.181000
  H    -99.623900    1.311220  -101.633000
  H    -100.418000    1.673150  -100.066000
  H    -101.352000    0.963363  -101.508000
  S    -105.509000    1.259900  -107.037000
  C    -107.183000    1.216010  -106.590000
  C    -107.411000    1.362470  -105.265000
  C    -106.199000    1.742550  -104.561000
  C    -105.058000    1.673830  -105.370000
  H    -108.405000    1.341150  -104.912000
  C    -106.154000    1.945180  -103.047000
  H    -106.506000    3.017130  -102.874000
  H    -105.108000    2.036410  -102.689000
  C    -106.869000    0.912201  -102.141000
  H    -106.514000   -0.002238  -102.505000
  H    -107.983000    0.903417  -102.183000
  C    -106.330000    0.969805  -100.664000
  H    -105.284000    0.706061  -100.710000
  H    -106.859000    0.174508  -100.043000
  H    -106.359000    1.968290  -100.211000
  H    -100.150000    0.708392  -105.094000
  H    -107.975000    1.130730  -107.330000

 Total Charge           Charge          ....    0
 Multiplicity           Mult            ....    1
 Number of Electrons    NEL             ....  134
 Basis Dimension        Dim             ....  322

ORBITAL ENERGIES
----------------

  NO   OCC          E(Eh)            E(eV)
   0   2.0000     -88.965643     -2420.8782
   1   2.0000     -88.964755     -2420.8541
   2   2.0000     -10.332263      -281.1552
   3   2.0000     -10.330708      -281.1129
   4   2.0000     -10.317703      -280.7590
   5   2.0000     -10.316355      -280.7223
   6   2.0000     -10.312099      -280.6065
   7   2.0000     -10.304471      -280.3989
   8   2.0000     -10.299806      -280.2720
   9   2.0000     -10.299109      -280.2530
  10   2.0000     -10.294051      -280.1154
  11   2.0000     -10.293318      -280.0954
  12   2.0000     -10.290319      -280.0138
  13   2.0000     -10.289837      -280.0007
  14   2.0000     -10.286016      -279.8967
  15   2.0000     -10.280095      -279.7356
  16   2.0000      -8.079837      -219.8635
  17   2.0000      -8.079788      -219.8622
  18   2.0000      -6.038554      -164.3174
  19   2.0000      -6.038337      -164.3115
  20   2.0000      -6.034408      -164.2046
  21   2.0000      -6.034373      -164.2036
  22   2.0000      -6.030403      -164.0956
  23   2.0000      -6.030380      -164.0950
  24   2.0000      -1.005872       -27.3712
  25   2.0000      -0.981256       -26.7013
  26   2.0000      -0.912182       -24.8217
  27   2.0000      -0.904131       -24.6027
  28   2.0000      -0.872537       -23.7429
  29   2.0000      -0.851207       -23.1625
  30   2.0000      -0.844019       -22.9669
  31   2.0000      -0.817528       -22.2461
  32   2.0000      -0.780632       -21.2421
  33   2.0000      -0.766810       -20.8660
  34   2.0000      -0.710672       -19.3384
  35   2.0000      -0.699477       -19.0337
  36   2.0000      -0.691733       -18.8230
  37   2.0000      -0.658863       -17.9286
  38   2.0000      -0.637592       -17.3498
  39   2.0000      -0.627040       -17.0626
  40   2.0000      -0.597529       -16.2596
  41   2.0000      -0.567879       -15.4528
  42   2.0000      -0.563038       -15.3210
  43   2.0000      -0.555740       -15.1224
  44   2.0000      -0.547339       -14.8939
  45   2.0000      -0.523313       -14.2401
  46   2.0000      -0.518421       -14.1070
  47   2.0000      -0.512671       -13.9505
  48   2.0000      -0.499280       -13.5861
  49   2.0000      -0.498088       -13.5537
  50   2.0000      -0.485921       -13.2226
  51   2.0000      -0.477134       -12.9835
  52   2.0000      -0.466540       -12.6952
  53   2.0000      -0.462185       -12.5767
  54   2.0000      -0.454836       -12.3767
  55   2.0000      -0.452621       -12.3164
  56   2.0000      -0.447472       -12.1763
  57   2.0000      -0.436941       -11.8898
  58   2.0000      -0.433116       -11.7857
  59   2.0000      -0.427949       -11.6451
  60   2.0000      -0.425474       -11.5777
  61   2.0000      -0.418513       -11.3883
  62   2.0000      -0.413353       -11.2479
  63   2.0000      -0.359459        -9.7814
  64   2.0000      -0.332515        -9.0482
  65   2.0000      -0.326385        -8.8814
  66   2.0000      -0.282732        -7.6935
  67   0.0000       0.024661         0.6710
  68   0.0000       0.070222         1.9108
  69   0.0000       0.109888         2.9902
  70   0.0000       0.116086         3.1588
  71   0.0000       0.125557         3.4166

MULLIKEN ATOMIC CHARGES
-----------------------
   0 S :    0.101819
   1 C :   -0.134356
   2 C :   -0.104527
   3 C :    0.016190
   4 C :   -0.114555
   5 H :   -0.011932
   6 C :    0.073401
   7 H :    0.047199
   8 H :    0.008632
   9 C :   -0.091741
  10 H :    0.050677
  11 H :    0.035579
  12 C :   -0.066238
  13 H :    0.014852
  14 H :    0.046591
  15 H :    0.056789
  16 S :    0.088617
  17 C :   -0.082150
  18 C :   -0.009539
  19 C :   -0.041626
  20 C :   -0.136733
  21 H :    0.008090
  22 C :    0.023375
  23 H :    0.040686
  24 H :    0.011262
  25 C :   -0.053581
  26 H :    0.024857
  27 H :    0.043433
  28 C :   -0.082566
  29 H :    0.033456
  30 H :    0.050159
  31 H :    0.039266
  32 H :    0.056091
  33 H :    0.058519
Sum of atomic charges:    0.0000000

LOEWDIN ATOMIC CHARGES
----------------------
   0 S :    0.387371
   1 C :   -0.202486
   2 C :   -0.062370
   3 C :   -0.066304
   4 C :   -0.181033
   5 H :    0.015252
   6 C :   -0.029257
   7 H :    0.038484
   8 H :    0.023394
   9 C :   -0.037528
  10 H :    0.033063
  11 H :    0.019956
  12 C :   -0.071900
  13 H :    0.021155
  14 H :    0.031454
  15 H :    0.030706
  16 S :    0.391935
  17 C :   -0.176708
  18 C :   -0.067677
  19 C :   -0.048178
  20 C :   -0.188923
  21 H :    0.028449
  22 C :   -0.042735
  23 H :    0.037634
  24 H :    0.030242
  25 C :   -0.038006
  26 H :    0.020956
  27 H :    0.025606
  28 C :   -0.067631
  29 H :    0.023351
  30 H :    0.035946
  31 H :    0.023884
  32 H :    0.031751
  33 H :    0.030147

  Mayer bond orders larger than 0.100000
B(  0-S ,  1-C ) :   1.1405 B(  0-S ,  4-C ) :   1.1203 B(  1-C ,  2-C ) :   1.5977
B(  1-C , 32-H ) :   0.9590 B(  2-C ,  3-C ) :   1.2310 B(  2-C ,  6-C ) :   1.0254
B(  3-C ,  4-C ) :   1.5781 B(  3-C ,  5-H ) :   0.9990 B(  4-C , 20-C ) :   1.0927
B(  6-C ,  7-H ) :   0.9369 B(  6-C ,  8-H ) :   0.9393 B(  6-C ,  9-C ) :   1.0564
B(  9-C , 10-H ) :   0.9595 B(  9-C , 11-H ) :   0.9587 B(  9-C , 12-C ) :   1.0661
B( 12-C , 13-H ) :   0.9760 B( 12-C , 14-H ) :   0.9735 B( 12-C , 15-H ) :   0.9721
B( 16-S , 17-C ) :   1.1496 B( 16-S , 20-C ) :   1.1164 B( 17-C , 18-C ) :   1.6377
B( 17-C , 33-H ) :   0.9635 B( 18-C , 19-C ) :   1.2119 B( 18-C , 21-H ) :   0.9988
B( 19-C , 20-C ) :   1.5896 B( 19-C , 22-C ) :   1.0486 B( 22-C , 23-H ) :   0.9211
B( 22-C , 24-H ) :   0.9371 B( 22-C , 25-C ) :   1.0539 B( 25-C , 26-H ) :   0.9575
B( 25-C , 27-H ) :   0.9545 B( 25-C , 28-C ) :   1.0803 B( 28-C , 29-H ) :   0.9746
B( 28-C , 30-H ) :   0.9747 B( 28-C , 31-H ) :   0.9787

Dispersion correction           -0.014098106
FINAL SINGLE POINT ENERGY     -1339.877965004162

DIPOLE MOMENT
-------------
                                X             Y             Z
Electronic contribution:     -4.08640      -4.13449     -30.35423
Nuclear contribution   :      4.02594       4.36236      30.94538
                        -----------------------------------------
Total Dipole Moment    :     -0.06046       0.22787       0.59114
                        -----------------------------------------
Magnitude (a.u.)       :      0.63642
Magnitude (Debye)      :      1.61765

Rotational constants in cm-1:     0.017134     0.009633     0.006683
Rotational constants in MHz :   513.664957   288.804329   200.364616

                             ****ORCA TERMINATED NORMALLY****
TOTAL RUN TIME: 0 days 0 hours 0 minutes 21 seconds 877 msec
