                         Program Version 4.2.1 -  RELEASE  -
|  1> ! wB97X-D3 SP def2-SVP
|  2> %pal
|  3> nprocs 24
|  4> end
|  5>
|  6> * xyz 0 1
|  7> S 	 -111.959 	 25.3276 	 -112.546
|  8> C 	 -110.893 	 24.076 	 -111.751
|  9> C 	 -110.784 	 22.981 	 -112.617
| 10> C 	 -111.424 	 23.1886 	 -113.879
| 11> C 	 -112.102 	 24.4287 	 -114.07
| 12> H 	 -111.533 	 22.37 	 -114.583
| 13> C 	 -110.039 	 21.6971 	 -112.27
| 14> H 	 -109.949 	 21.0698 	 -113.167
| 15> H 	 -110.692 	 21.1806 	 -111.636
| 16> C 	 -108.811 	 21.9166 	 -111.458
| 17> H 	 -109.059 	 22.5508 	 -110.608
| 18> H 	 -108.525 	 20.9961 	 -110.951
| 19> C 	 -107.612 	 22.4776 	 -112.154
| 20> H 	 -107.73 	 23.5333 	 -112.408
| 21> H 	 -106.773 	 22.5118 	 -111.381
| 22> H 	 -107.166 	 21.7657 	 -112.858
| 23> S 	 -114.516 	 25.5269 	 -114.896
| 24> C 	 -115.028 	 24.9497 	 -116.472
| 25> C 	 -114.022 	 24.4492 	 -117.272
| 26> C 	 -112.763 	 24.3646 	 -116.565
| 27> C 	 -112.946 	 24.7583 	 -115.223
| 28> H 	 -114.238 	 24.1486 	 -118.321
| 29> C 	 -111.556 	 23.6856 	 -117.219
| 30> H 	 -111.927 	 23.1972 	 -118.119
| 31> H 	 -111.069 	 22.9422 	 -116.63
| 32> C 	 -110.398 	 24.7172 	 -117.495
| 33> H 	 -110.853 	 25.565 	 -117.945
| 34> H 	 -109.782 	 24.1841 	 -118.254
| 35> C 	 -109.614 	 25.1865 	 -116.257
| 36> H 	 -108.622 	 25.5148 	 -116.636
| 37> H 	 -109.414 	 24.4149 	 -115.478
| 38> H 	 -110.089 	 26.0795 	 -115.9
| 39> H 	 -110.521 	 24.1395 	 -110.78
| 40> H 	 -116.085 	 25.0702 	 -116.769
| 41> *
| 42>
| 43>                          ****END OF INPUT****

CARTESIAN COORDINATES (ANGSTROEM)
---------------------------------
  S    -111.959000   25.327600  -112.546000
  C    -110.893000   24.076000  -111.751000
  C    -110.784000   22.981000  -112.617000
  C    -111.424000   23.188600  -113.879000
  C    -112.102000   24.428700  -114.070000
  H    -111.533000   22.370000  -114.583000
  C    -110.039000   21.697100  -112.270000
  H    -109.949000   21.069800  -113.167000
  H    -110.692000   21.180600  -111.636000
  C    -108.811000   21.916600  -111.458000
  H    -109.059000   22.550800  -110.608000
  H    -108.525000   20.996100  -110.951000
  C    -107.612000   22.477600  -112.154000
  H    -107.730000   23.533300  -112.408000
  H    -106.773000   22.511800  -111.381000
  H    -107.166000   21.765700  -112.858000
  S    -114.516000   25.526900  -114.896000
  C    -115.028000   24.949700  -116.472000
  C    -114.022000   24.449200  -117.272000
  C    -112.763000   24.364600  -116.565000
  C    -112.946000   24.758300  -115.223000
  H    -114.238000   24.148600  -118.321000
  C    -111.556000   23.685600  -117.219000
  H    -111.927000   23.197200  -118.119000
  H    -111.069000   22.942200  -116.630000
  C    -110.398000   24.717200  -117.495000
  H    -110.853000   25.565000  -117.945000
  H    -109.782000   24.184100  -118.254000
  C    -109.614000   25.186500  -116.257000
  H    -108.622000   25.514800  -116.636000
  H    -109.414000   24.414900  -115.478000
  H    -110.089000   26.079500  -115.900000
  H    -110.521000   24.139500  -110.780000
  H    -116.085000   25.070200  -116.769000

 Total Charge           Charge          ....    0
 Multiplicity           Mult            ....    1
 Number of Electrons    NEL             ....  134
 Basis Dimension        Dim             ....  322

ORBITAL ENERGIES
----------------

  NO   OCC          E(Eh)            E(eV)
   0   2.0000     -88.969421     -2420.9810
   1   2.0000     -88.965771     -2420.8817
   2   2.0000     -10.338190      -281.3165
   3   2.0000     -10.333931      -281.2006
   4   2.0000     -10.321961      -280.8748
   5   2.0000     -10.315923      -280.7105
   6   2.0000     -10.311697      -280.5955
   7   2.0000     -10.303648      -280.3765
   8   2.0000     -10.302115      -280.3348
   9   2.0000     -10.293862      -280.1102
  10   2.0000     -10.292257      -280.0665
  11   2.0000     -10.286646      -279.9139
  12   2.0000     -10.284148      -279.8459
  13   2.0000     -10.283123      -279.8180
  14   2.0000     -10.279374      -279.7160
  15   2.0000     -10.273043      -279.5437
  16   2.0000      -8.083918      -219.9746
  17   2.0000      -8.078602      -219.8299
  18   2.0000      -6.042357      -164.4209
  19   2.0000      -6.038758      -164.3230
  20   2.0000      -6.037358      -164.2849
  21   2.0000      -6.034473      -164.2064
  22   2.0000      -6.033285      -164.1740
  23   2.0000      -6.029316      -164.0660
  24   2.0000      -0.997716       -27.1492
  25   2.0000      -0.973215       -26.4825
  26   2.0000      -0.919158       -25.0116
  27   2.0000      -0.903856       -24.5952
  28   2.0000      -0.864003       -23.5107
  29   2.0000      -0.847293       -23.0560
  30   2.0000      -0.840705       -22.8767
  31   2.0000      -0.807099       -21.9623
  32   2.0000      -0.786527       -21.4025
  33   2.0000      -0.774716       -21.0811
  34   2.0000      -0.708255       -19.2726
  35   2.0000      -0.697409       -18.9775
  36   2.0000      -0.684436       -18.6244
  37   2.0000      -0.659132       -17.9359
  38   2.0000      -0.633682       -17.2434
  39   2.0000      -0.614014       -16.7082
  40   2.0000      -0.596367       -16.2280
  41   2.0000      -0.579009       -15.7556
  42   2.0000      -0.557282       -15.1644
  43   2.0000      -0.549308       -14.9474
  44   2.0000      -0.543339       -14.7850
  45   2.0000      -0.532892       -14.5007
  46   2.0000      -0.521474       -14.1900
  47   2.0000      -0.505444       -13.7538
  48   2.0000      -0.498065       -13.5530
  49   2.0000      -0.495229       -13.4759
  50   2.0000      -0.481907       -13.1133
  51   2.0000      -0.478217       -13.0129
  52   2.0000      -0.473156       -12.8752
  53   2.0000      -0.462144       -12.5756
  54   2.0000      -0.456830       -12.4310
  55   2.0000      -0.451833       -12.2950
  56   2.0000      -0.437313       -11.8999
  57   2.0000      -0.434031       -11.8106
  58   2.0000      -0.428364       -11.6564
  59   2.0000      -0.426366       -11.6020
  60   2.0000      -0.418925       -11.3995
  61   2.0000      -0.411551       -11.1989
  62   2.0000      -0.408689       -11.1210
  63   2.0000      -0.349961        -9.5229
  64   2.0000      -0.334891        -9.1129
  65   2.0000      -0.325140        -8.8475
  66   2.0000      -0.278536        -7.5793
  67   0.0000       0.015180         0.4131
  68   0.0000       0.068597         1.8666
  69   0.0000       0.097098         2.6422
  70   0.0000       0.119901         3.2627
  71   0.0000       0.129097         3.5129

MULLIKEN ATOMIC CHARGES
-----------------------
   0 S :    0.082854
   1 C :   -0.127301
   2 C :   -0.097596
   3 C :   -0.013824
   4 C :   -0.111757
   5 H :    0.018912
   6 C :    0.142616
   7 H :    0.017173
   8 H :    0.022269
   9 C :   -0.092223
  10 H :    0.013153
  11 H :    0.016563
  12 C :   -0.042827
  13 H :    0.050455
  14 H :    0.022101
  15 H :    0.035121
  16 S :    0.110738
  17 C :   -0.108589
  18 C :   -0.044151
  19 C :   -0.046348
  20 C :   -0.148418
  21 H :    0.039225
  22 C :    0.077607
  23 H :    0.017881
  24 H :    0.016856
  25 C :   -0.081190
  26 H :    0.021954
  27 H :    0.032027
  28 C :   -0.043623
  29 H :    0.029770
  30 H :    0.053260
  31 H :    0.040385
  32 H :    0.030617
  33 H :    0.066311
Sum of atomic charges:   -0.0000000

LOEWDIN ATOMIC CHARGES
----------------------
   0 S :    0.364547
   1 C :   -0.179601
   2 C :   -0.053173
   3 C :   -0.076449
   4 C :   -0.177649
   5 H :    0.026303
   6 C :   -0.027951
   7 H :    0.029798
   8 H :    0.032689
   9 C :   -0.047419
  10 H :    0.023856
  11 H :    0.025053
  12 C :   -0.071422
  13 H :    0.029840
  14 H :    0.032715
  15 H :    0.027677
  16 S :    0.390052
  17 C :   -0.179576
  18 C :   -0.074823
  19 C :   -0.046091
  20 C :   -0.189179
  21 H :    0.041240
  22 C :   -0.027556
  23 H :    0.028933
  24 H :    0.022668
  25 C :   -0.032670
  26 H :    0.018282
  27 H :    0.023649
  28 C :   -0.068116
  29 H :    0.030637
  30 H :    0.031438
  31 H :    0.027271
  32 H :    0.013985
  33 H :    0.031042

  Mayer bond orders larger than 0.100000
B(  0-S ,  1-C ) :   1.1136 B(  0-S ,  4-C ) :   1.1495 B(  1-C ,  2-C ) :   1.5810
B(  1-C ,  4-C ) :   0.1070 B(  1-C , 32-H ) :   0.9796 B(  2-C ,  3-C ) :   1.2801
B(  2-C ,  6-C ) :   1.0070 B(  3-C ,  4-C ) :   1.5294 B(  3-C ,  5-H ) :   0.9813
B(  4-C , 20-C ) :   1.0801 B(  6-C ,  7-H ) :   0.9455 B(  6-C ,  8-H ) :   0.9155
B(  6-C ,  9-C ) :   1.0916 B(  9-C , 10-H ) :   0.9434 B(  9-C , 11-H ) :   0.9467
B(  9-C , 12-C ) :   1.0988 B( 12-C , 13-H ) :   0.9705 B( 12-C , 14-H ) :   0.9672
B( 12-C , 15-H ) :   0.9717 B( 16-S , 17-C ) :   1.1489 B( 16-S , 20-C ) :   1.1243
B( 17-C , 18-C ) :   1.6331 B( 17-C , 33-H ) :   0.9638 B( 18-C , 19-C ) :   1.2181
B( 18-C , 21-H ) :   0.9834 B( 19-C , 20-C ) :   1.5825 B( 19-C , 22-C ) :   1.0329
B( 22-C , 23-H ) :   0.9370 B( 22-C , 24-H ) :   0.9409 B( 22-C , 25-C ) :   1.0600
B( 25-C , 26-H ) :   0.9580 B( 25-C , 27-H ) :   0.9611 B( 25-C , 28-C ) :   1.0712
B( 28-C , 29-H ) :   0.9705 B( 28-C , 30-H ) :   0.9734 B( 28-C , 31-H ) :   0.9740

Dispersion correction           -0.015474120
FINAL SINGLE POINT ENERGY     -1339.863401497822

DIPOLE MOMENT
-------------
                                X             Y             Z
Electronic contribution:    -24.91121      12.43559       3.01665
Nuclear contribution   :     25.15621     -13.08279      -3.26760
                        -----------------------------------------
Total Dipole Moment    :      0.24500      -0.64720      -0.25094
                        -----------------------------------------
Magnitude (a.u.)       :      0.73611
Magnitude (Debye)      :      1.87105

Rotational constants in cm-1:     0.021910     0.008803     0.007252
Rotational constants in MHz :   656.850532   263.892424   217.403158

                             ****ORCA TERMINATED NORMALLY****
TOTAL RUN TIME: 0 days 0 hours 0 minutes 22 seconds 633 msec
