                         Program Version 4.2.1 -  RELEASE  -
|  1> ! wB97X-D3 SP def2-SVP
|  2> %pal
|  3> nprocs 24
|  4> end
|  5>
|  6> * xyz 0 1
|  7> S 	 -119.253 	 32.2136 	 -22.3352
|  8> C 	 -119.04 	 31.1504 	 -23.6755
|  9> C 	 -118.241 	 30.0368 	 -23.4403
| 10> C 	 -118.012 	 29.9308 	 -22.0291
| 11> C 	 -118.333 	 31.0905 	 -21.3026
| 12> H 	 -117.74 	 28.962 	 -21.592
| 13> C 	 -117.902 	 28.9764 	 -24.452
| 14> H 	 -117.893 	 29.4676 	 -25.4392
| 15> H 	 -118.761 	 28.291 	 -24.5584
| 16> C 	 -116.667 	 28.0751 	 -24.1482
| 17> H 	 -115.752 	 28.7242 	 -24.1781
| 18> H 	 -116.749 	 27.6023 	 -23.2106
| 19> C 	 -116.54 	 26.9033 	 -25.1971
| 20> H 	 -117.356 	 26.2176 	 -25.3754
| 21> H 	 -116.136 	 27.3341 	 -26.0984
| 22> H 	 -115.767 	 26.2209 	 -24.9558
| 23> S 	 -119.667 	 31.6541 	 -19
| 24> C 	 -118.851 	 31.5904 	 -17.4446
| 25> C 	 -117.463 	 31.3043 	 -17.6037
| 26> C 	 -117.105 	 31.1083 	 -19.0096
| 27> C 	 -118.212 	 31.2719 	 -19.8517
| 28> H 	 -116.819 	 31.193 	 -16.7272
| 29> C 	 -115.699 	 30.8521 	 -19.5288
| 30> H 	 -114.987 	 31.4868 	 -19.0836
| 31> H 	 -115.742 	 31.1282 	 -20.5604
| 32> C 	 -115.138 	 29.4366 	 -19.4986
| 33> H 	 -114.16 	 29.3813 	 -19.9819
| 34> H 	 -115.775 	 28.7957 	 -20.1512
| 35> C 	 -114.984 	 28.7472 	 -18.1369
| 36> H 	 -115.368 	 27.7793 	 -18.2128
| 37> H 	 -115.523 	 29.1976 	 -17.2984
| 38> H 	 -113.978 	 28.6643 	 -17.7682
| 39> H 	 -119.404 	 31.3324 	 -24.6573
| 40> H 	 -119.288 	 31.5072 	 -16.4788
| 41> *
| 42>
| 43>                          ****END OF INPUT****

CARTESIAN COORDINATES (ANGSTROEM)
---------------------------------
  S    -119.253000   32.213600  -22.335200
  C    -119.040000   31.150400  -23.675500
  C    -118.241000   30.036800  -23.440300
  C    -118.012000   29.930800  -22.029100
  C    -118.333000   31.090500  -21.302600
  H    -117.740000   28.962000  -21.592000
  C    -117.902000   28.976400  -24.452000
  H    -117.893000   29.467600  -25.439200
  H    -118.761000   28.291000  -24.558400
  C    -116.667000   28.075100  -24.148200
  H    -115.752000   28.724200  -24.178100
  H    -116.749000   27.602300  -23.210600
  C    -116.540000   26.903300  -25.197100
  H    -117.356000   26.217600  -25.375400
  H    -116.136000   27.334100  -26.098400
  H    -115.767000   26.220900  -24.955800
  S    -119.667000   31.654100  -19.000000
  C    -118.851000   31.590400  -17.444600
  C    -117.463000   31.304300  -17.603700
  C    -117.105000   31.108300  -19.009600
  C    -118.212000   31.271900  -19.851700
  H    -116.819000   31.193000  -16.727200
  C    -115.699000   30.852100  -19.528800
  H    -114.987000   31.486800  -19.083600
  H    -115.742000   31.128200  -20.560400
  C    -115.138000   29.436600  -19.498600
  H    -114.160000   29.381300  -19.981900
  H    -115.775000   28.795700  -20.151200
  C    -114.984000   28.747200  -18.136900
  H    -115.368000   27.779300  -18.212800
  H    -115.523000   29.197600  -17.298400
  H    -113.978000   28.664300  -17.768200
  H    -119.404000   31.332400  -24.657300
  H    -119.288000   31.507200  -16.478800

 Total Charge           Charge          ....    0
 Multiplicity           Mult            ....    1
 Number of Electrons    NEL             ....  134
 Basis Dimension        Dim             ....  322

ORBITAL ENERGIES
----------------

  NO   OCC          E(Eh)            E(eV)
   0   2.0000     -88.970479     -2421.0098
   1   2.0000     -88.967682     -2420.9337
   2   2.0000     -10.333418      -281.1866
   3   2.0000     -10.326252      -280.9916
   4   2.0000     -10.318860      -280.7905
   5   2.0000     -10.310279      -280.5569
   6   2.0000     -10.307570      -280.4832
   7   2.0000     -10.302506      -280.3454
   8   2.0000     -10.300491      -280.2906
   9   2.0000     -10.299108      -280.2530
  10   2.0000     -10.298200      -280.2283
  11   2.0000     -10.297588      -280.2116
  12   2.0000     -10.285346      -279.8785
  13   2.0000     -10.281042      -279.7614
  14   2.0000     -10.277591      -279.6675
  15   2.0000     -10.266825      -279.3745
  16   2.0000      -8.084835      -219.9995
  17   2.0000      -8.082370      -219.9325
  18   2.0000      -6.043347      -164.4478
  19   2.0000      -6.040922      -164.3818
  20   2.0000      -6.039427      -164.3412
  21   2.0000      -6.036773      -164.2689
  22   2.0000      -6.035593      -164.2368
  23   2.0000      -6.033195      -164.1716
  24   2.0000      -1.002622       -27.2827
  25   2.0000      -0.979404       -26.6509
  26   2.0000      -0.908287       -24.7157
  27   2.0000      -0.906139       -24.6573
  28   2.0000      -0.865429       -23.5495
  29   2.0000      -0.850537       -23.1443
  30   2.0000      -0.844261       -22.9735
  31   2.0000      -0.813405       -22.1339
  32   2.0000      -0.786936       -21.4136
  33   2.0000      -0.774222       -21.0677
  34   2.0000      -0.715543       -19.4709
  35   2.0000      -0.698899       -19.0180
  36   2.0000      -0.688926       -18.7466
  37   2.0000      -0.660891       -17.9838
  38   2.0000      -0.636775       -17.3275
  39   2.0000      -0.621773       -16.9193
  40   2.0000      -0.588445       -16.0124
  41   2.0000      -0.570059       -15.5121
  42   2.0000      -0.564237       -15.3537
  43   2.0000      -0.551645       -15.0110
  44   2.0000      -0.540786       -14.7155
  45   2.0000      -0.524071       -14.2607
  46   2.0000      -0.517077       -14.0704
  47   2.0000      -0.508616       -13.8401
  48   2.0000      -0.499561       -13.5937
  49   2.0000      -0.497248       -13.5308
  50   2.0000      -0.492635       -13.4053
  51   2.0000      -0.479615       -13.0510
  52   2.0000      -0.473708       -12.8903
  53   2.0000      -0.467559       -12.7229
  54   2.0000      -0.457273       -12.4430
  55   2.0000      -0.450366       -12.2551
  56   2.0000      -0.439842       -11.9687
  57   2.0000      -0.436850       -11.8873
  58   2.0000      -0.432270       -11.7627
  59   2.0000      -0.429547       -11.6886
  60   2.0000      -0.425534       -11.5794
  61   2.0000      -0.421540       -11.4707
  62   2.0000      -0.411571       -11.1994
  63   2.0000      -0.344293        -9.3687
  64   2.0000      -0.328800        -8.9471
  65   2.0000      -0.327670        -8.9163
  66   2.0000      -0.288313        -7.8454
  67   0.0000       0.027812         0.7568
  68   0.0000       0.065983         1.7955
  69   0.0000       0.109515         2.9801
  70   0.0000       0.115783         3.1506
  71   0.0000       0.128987         3.5099

MULLIKEN ATOMIC CHARGES
-----------------------
   0 S :    0.122951
   1 C :   -0.102774
   2 C :   -0.083721
   3 C :    0.007433
   4 C :   -0.157369
   5 H :    0.036323
   6 C :    0.043789
   7 H :    0.025775
   8 H :    0.039409
   9 C :   -0.082545
  10 H :    0.047918
  11 H :    0.029630
  12 C :   -0.038482
  13 H :    0.036594
  14 H :    0.025189
  15 H :    0.013906
  16 S :    0.118597
  17 C :   -0.090639
  18 C :   -0.054258
  19 C :   -0.040087
  20 C :   -0.158889
  21 H :    0.034446
  22 C :    0.111757
  23 H :    0.016197
  24 H :    0.019778
  25 C :   -0.076048
  26 H :    0.030178
  27 H :    0.010702
  28 C :   -0.022284
  29 H :    0.016291
  30 H :    0.013300
  31 H :    0.024467
  32 H :    0.028794
  33 H :    0.053672
Sum of atomic charges:    0.0000000

LOEWDIN ATOMIC CHARGES
----------------------
   0 S :    0.407470
   1 C :   -0.197773
   2 C :   -0.066512
   3 C :   -0.056528
   4 C :   -0.193560
   5 H :    0.032998
   6 C :   -0.039547
   7 H :    0.033886
   8 H :    0.036980
   9 C :   -0.030707
  10 H :    0.034216
  11 H :    0.015864
  12 C :   -0.068573
  13 H :    0.026402
  14 H :    0.025425
  15 H :    0.022661
  16 S :    0.418551
  17 C :   -0.190469
  18 C :   -0.066522
  19 C :   -0.050856
  20 C :   -0.208125
  21 H :    0.031965
  22 C :   -0.028293
  23 H :    0.024909
  24 H :    0.032382
  25 C :   -0.039805
  26 H :    0.028140
  27 H :    0.020589
  28 C :   -0.068668
  29 H :    0.021773
  30 H :    0.024170
  31 H :    0.023197
  32 H :    0.018756
  33 H :    0.025606

  Mayer bond orders larger than 0.100000
B(  0-S ,  1-C ) :   1.1484 B(  0-S ,  4-C ) :   1.1400 B(  1-C ,  2-C ) :   1.6125
B(  1-C , 32-H ) :   0.9661 B(  2-C ,  3-C ) :   1.2511 B(  2-C ,  6-C ) :   1.0263
B(  3-C ,  4-C ) :   1.5659 B(  3-C ,  5-H ) :   0.9775 B(  4-C , 20-C ) :   1.0375
B(  6-C ,  7-H ) :   0.9398 B(  6-C ,  8-H ) :   0.9362 B(  6-C ,  9-C ) :   1.0600
B(  9-C , 10-H ) :   0.9601 B(  9-C , 11-H ) :   0.9539 B(  9-C , 12-C ) :   1.0825
B( 12-C , 13-H ) :   0.9762 B( 12-C , 14-H ) :   0.9761 B( 12-C , 15-H ) :   0.9720
B( 16-S , 17-C ) :   1.1539 B( 16-S , 20-C ) :   1.1544 B( 17-C , 18-C ) :   1.6034
B( 17-C , 33-H ) :   0.9698 B( 18-C , 19-C ) :   1.2349 B( 18-C , 21-H ) :   0.9824
B( 19-C , 20-C ) :   1.5871 B( 19-C , 22-C ) :   1.0450 B( 22-C , 23-H ) :   0.9372
B( 22-C , 24-H ) :   0.9196 B( 22-C , 25-C ) :   1.0866 B( 25-C , 26-H ) :   0.9542
B( 25-C , 27-H ) :   0.9587 B( 25-C , 28-C ) :   1.0611 B( 28-C , 29-H ) :   0.9748
B( 28-C , 30-H ) :   0.9772 B( 28-C , 31-H ) :   0.9764

Dispersion correction           -0.014355583
FINAL SINGLE POINT ENERGY     -1339.870609097640

DIPOLE MOMENT
-------------
                                X             Y             Z
Electronic contribution:    -21.37955      22.70650       7.45202
Nuclear contribution   :     21.78427     -23.37681      -7.63588
                        -----------------------------------------
Total Dipole Moment    :      0.40473      -0.67031      -0.18386
                        -----------------------------------------
Magnitude (a.u.)       :      0.80432
Magnitude (Debye)      :      2.04442

Rotational constants in cm-1:     0.017195     0.009348     0.006524
Rotational constants in MHz :   515.497736   280.253641   195.574264

                             ****ORCA TERMINATED NORMALLY****
TOTAL RUN TIME: 0 days 0 hours 0 minutes 21 seconds 818 msec
