                         Program Version 4.2.1 -  RELEASE  -
|  1> ! wB97X-D3 SP def2-SVP
|  2> %pal
|  3> nprocs 24
|  4> end
|  5>
|  6> * xyz 0 1
|  7> S 	 -32.6368 	 -4.24612 	 9.01869
|  8> C 	 -32.7903 	 -3.67084 	 10.6897
|  9> C 	 -33.971 	 -4.10659 	 11.3173
| 10> C 	 -34.8089 	 -4.88498 	 10.4685
| 11> C 	 -34.1757 	 -5.18468 	 9.27603
| 12> H 	 -35.8052 	 -5.18715 	 10.7864
| 13> C 	 -34.4168 	 -3.7331 	 12.7157
| 14> H 	 -33.8846 	 -2.82505 	 13.0352
| 15> H 	 -34.0981 	 -4.45914 	 13.4582
| 16> C 	 -35.9348 	 -3.60712 	 12.973
| 17> H 	 -36.3035 	 -2.91024 	 12.2964
| 18> H 	 -36.5124 	 -4.57454 	 12.7772
| 19> C 	 -36.2909 	 -3.1032 	 14.3714
| 20> H 	 -35.823 	 -3.78027 	 15.1409
| 21> H 	 -35.7627 	 -2.15178 	 14.5565
| 22> H 	 -37.3179 	 -2.91218 	 14.5953
| 23> S 	 -33.5121 	 -6.80544 	 7.26393
| 24> C 	 -34.6886 	 -7.45159 	 6.08345
| 25> C 	 -35.9481 	 -6.95254 	 6.29856
| 26> C 	 -35.9884 	 -6.08473 	 7.49088
| 27> C 	 -34.7576 	 -5.9587 	 8.17308
| 28> H 	 -36.8428 	 -7.29973 	 5.8199
| 29> C 	 -37.2296 	 -5.30646 	 7.87084
| 30> H 	 -37.8352 	 -5.09545 	 6.98402
| 31> H 	 -36.9742 	 -4.37156 	 8.2849
| 32> C 	 -38.1603 	 -5.99058 	 8.89219
| 33> H 	 -37.6451 	 -5.90194 	 9.84684
| 34> H 	 -38.3467 	 -7.03542 	 8.78522
| 35> C 	 -39.5256 	 -5.19583 	 9.14346
| 36> H 	 -40.2639 	 -5.39516 	 8.37179
| 37> H 	 -39.3591 	 -4.15478 	 9.17419
| 38> H 	 -40.0061 	 -5.47452 	 10.1185
| 39> H 	 -32.0907 	 -3.03863 	 11.0979
| 40> H 	 -34.535 	 -8.0051 	 5.15701
| 41> *
| 42>
| 43>                          ****END OF INPUT****

CARTESIAN COORDINATES (ANGSTROEM)
---------------------------------
  S    -32.636800   -4.246120    9.018690
  C    -32.790300   -3.670840   10.689700
  C    -33.971000   -4.106590   11.317300
  C    -34.808900   -4.884980   10.468500
  C    -34.175700   -5.184680    9.276030
  H    -35.805200   -5.187150   10.786400
  C    -34.416800   -3.733100   12.715700
  H    -33.884600   -2.825050   13.035200
  H    -34.098100   -4.459140   13.458200
  C    -35.934800   -3.607120   12.973000
  H    -36.303500   -2.910240   12.296400
  H    -36.512400   -4.574540   12.777200
  C    -36.290900   -3.103200   14.371400
  H    -35.823000   -3.780270   15.140900
  H    -35.762700   -2.151780   14.556500
  H    -37.317900   -2.912180   14.595300
  S    -33.512100   -6.805440    7.263930
  C    -34.688600   -7.451590    6.083450
  C    -35.948100   -6.952540    6.298560
  C    -35.988400   -6.084730    7.490880
  C    -34.757600   -5.958700    8.173080
  H    -36.842800   -7.299730    5.819900
  C    -37.229600   -5.306460    7.870840
  H    -37.835200   -5.095450    6.984020
  H    -36.974200   -4.371560    8.284900
  C    -38.160300   -5.990580    8.892190
  H    -37.645100   -5.901940    9.846840
  H    -38.346700   -7.035420    8.785220
  C    -39.525600   -5.195830    9.143460
  H    -40.263900   -5.395160    8.371790
  H    -39.359100   -4.154780    9.174190
  H    -40.006100   -5.474520   10.118500
  H    -32.090700   -3.038630   11.097900
  H    -34.535000   -8.005100    5.157010

 Total Charge           Charge          ....    0
 Multiplicity           Mult            ....    1
 Number of Electrons    NEL             ....  134
 Basis Dimension        Dim             ....  322

ORBITAL ENERGIES
----------------

  NO   OCC          E(Eh)            E(eV)
   0   2.0000     -88.973781     -2421.0997
   1   2.0000     -88.963396     -2420.8171
   2   2.0000     -10.339710      -281.3578
   3   2.0000     -10.330827      -281.1161
   4   2.0000     -10.319839      -280.8171
   5   2.0000     -10.315156      -280.6897
   6   2.0000     -10.309839      -280.5450
   7   2.0000     -10.306722      -280.4602
   8   2.0000     -10.298995      -280.2499
   9   2.0000     -10.296995      -280.1955
  10   2.0000     -10.296283      -280.1761
  11   2.0000     -10.292136      -280.0632
  12   2.0000     -10.288291      -279.9586
  13   2.0000     -10.287570      -279.9390
  14   2.0000     -10.284594      -279.8580
  15   2.0000     -10.281304      -279.7685
  16   2.0000      -8.086735      -220.0512
  17   2.0000      -8.077464      -219.7990
  18   2.0000      -6.045358      -164.5026
  19   2.0000      -6.041711      -164.4033
  20   2.0000      -6.037249      -164.2819
  21   2.0000      -6.036219      -164.2539
  22   2.0000      -6.031984      -164.1386
  23   2.0000      -6.028063      -164.0319
  24   2.0000      -0.998832       -27.1796
  25   2.0000      -0.974946       -26.5296
  26   2.0000      -0.912873       -24.8405
  27   2.0000      -0.903174       -24.5766
  28   2.0000      -0.870002       -23.6740
  29   2.0000      -0.852550       -23.1991
  30   2.0000      -0.839667       -22.8485
  31   2.0000      -0.818360       -22.2687
  32   2.0000      -0.779033       -21.1986
  33   2.0000      -0.768140       -20.9021
  34   2.0000      -0.714365       -19.4389
  35   2.0000      -0.703040       -19.1307
  36   2.0000      -0.694030       -18.8855
  37   2.0000      -0.663707       -18.0604
  38   2.0000      -0.643369       -17.5070
  39   2.0000      -0.629298       -17.1241
  40   2.0000      -0.592780       -16.1304
  41   2.0000      -0.573119       -15.5954
  42   2.0000      -0.564803       -15.3691
  43   2.0000      -0.556230       -15.1358
  44   2.0000      -0.528736       -14.3876
  45   2.0000      -0.517596       -14.0845
  46   2.0000      -0.514056       -13.9882
  47   2.0000      -0.509063       -13.8523
  48   2.0000      -0.506711       -13.7883
  49   2.0000      -0.497968       -13.5504
  50   2.0000      -0.486242       -13.2313
  51   2.0000      -0.484371       -13.1804
  52   2.0000      -0.474204       -12.9038
  53   2.0000      -0.464488       -12.6394
  54   2.0000      -0.463602       -12.6153
  55   2.0000      -0.450248       -12.2519
  56   2.0000      -0.443622       -12.0716
  57   2.0000      -0.442054       -12.0289
  58   2.0000      -0.433871       -11.8062
  59   2.0000      -0.429630       -11.6908
  60   2.0000      -0.422677       -11.5016
  61   2.0000      -0.419280       -11.4092
  62   2.0000      -0.410849       -11.1798
  63   2.0000      -0.353137        -9.6093
  64   2.0000      -0.334910        -9.1134
  65   2.0000      -0.325659        -8.8616
  66   2.0000      -0.286384        -7.7929
  67   0.0000       0.021726         0.5912
  68   0.0000       0.062611         1.7037
  69   0.0000       0.098901         2.6912
  70   0.0000       0.114569         3.1176
  71   0.0000       0.119767         3.2590

MULLIKEN ATOMIC CHARGES
-----------------------
   0 S :    0.114355
   1 C :   -0.098386
   2 C :   -0.061102
   3 C :    0.006467
   4 C :   -0.085342
   5 H :    0.005654
   6 C :    0.066131
   7 H :    0.018193
   8 H :    0.035652
   9 C :   -0.108578
  10 H :    0.021125
  11 H :    0.049161
  12 C :   -0.043091
  13 H :    0.030970
  14 H :    0.022454
  15 H :    0.040527
  16 S :    0.075876
  17 C :   -0.073908
  18 C :   -0.021635
  19 C :   -0.065594
  20 C :   -0.146074
  21 H :    0.024246
  22 C :    0.072826
  23 H :    0.020666
  24 H :    0.015118
  25 C :   -0.069674
  26 H :    0.013272
  27 H :    0.028141
  28 C :   -0.062701
  29 H :    0.035478
  30 H :    0.022352
  31 H :    0.038493
  32 H :    0.016488
  33 H :    0.062440
Sum of atomic charges:    0.0000000

LOEWDIN ATOMIC CHARGES
----------------------
   0 S :    0.377258
   1 C :   -0.176187
   2 C :   -0.055114
   3 C :   -0.056256
   4 C :   -0.170331
   5 H :    0.031729
   6 C :   -0.034077
   7 H :    0.031704
   8 H :    0.033495
   9 C :   -0.044445
  10 H :    0.014050
  11 H :    0.030243
  12 C :   -0.066398
  13 H :    0.029305
  14 H :    0.026519
  15 H :    0.024687
  16 S :    0.383799
  17 C :   -0.178391
  18 C :   -0.066805
  19 C :   -0.053371
  20 C :   -0.189986
  21 H :    0.031511
  22 C :   -0.030775
  23 H :    0.029791
  24 H :    0.025203
  25 C :   -0.034362
  26 H :    0.017959
  27 H :    0.019368
  28 C :   -0.066112
  29 H :    0.022329
  30 H :    0.016909
  31 H :    0.031648
  32 H :    0.008480
  33 H :    0.036623

  Mayer bond orders larger than 0.100000
B(  0-S ,  1-C ) :   1.1231 B(  0-S ,  4-C ) :   1.1321 B(  1-C ,  2-C ) :   1.6093
B(  1-C , 32-H ) :   0.9792 B(  2-C ,  3-C ) :   1.2447 B(  2-C ,  6-C ) :   1.0228
B(  3-C ,  4-C ) :   1.5697 B(  3-C ,  5-H ) :   0.9912 B(  4-C , 20-C ) :   1.0547
B(  6-C ,  7-H ) :   0.9420 B(  6-C ,  8-H ) :   0.9286 B(  6-C ,  9-C ) :   1.0651
B(  9-C , 10-H ) :   0.9584 B(  9-C , 11-H ) :   0.9424 B(  9-C , 12-C ) :   1.0892
B( 12-C , 13-H ) :   0.9735 B( 12-C , 14-H ) :   0.9708 B( 12-C , 15-H ) :   0.9745
B( 16-S , 17-C ) :   1.1345 B( 16-S , 20-C ) :   1.1146 B( 17-C , 18-C ) :   1.6428
B( 17-C , 33-H ) :   0.9608 B( 18-C , 19-C ) :   1.2283 B( 18-C , 21-H ) :   0.9840
B( 19-C , 20-C ) :   1.5942 B( 19-C , 22-C ) :   1.0531 B( 22-C , 23-H ) :   0.9431
B( 22-C , 24-H ) :   0.9306 B( 22-C , 25-C ) :   1.0555 B( 25-C , 26-H ) :   0.9564
B( 25-C , 27-H ) :   0.9590 B( 25-C , 28-C ) :   1.0697 B( 28-C , 29-H ) :   0.9794
B( 28-C , 30-H ) :   0.9752 B( 28-C , 31-H ) :   0.9778

Dispersion correction           -0.013945925
FINAL SINGLE POINT ENERGY     -1339.867921176955

DIPOLE MOMENT
-------------
                                X             Y             Z
Electronic contribution:     26.36075      -7.72226     -20.13564
Nuclear contribution   :    -26.99337       8.01389      20.48984
                        -----------------------------------------
Total Dipole Moment    :     -0.63262       0.29162       0.35420
                        -----------------------------------------
Magnitude (a.u.)       :      0.78148
Magnitude (Debye)      :      1.98636

Rotational constants in cm-1:     0.016572     0.009553     0.006367
Rotational constants in MHz :   496.806830   286.378535   190.875849

                             ****ORCA TERMINATED NORMALLY****
TOTAL RUN TIME: 0 days 0 hours 0 minutes 20 seconds 354 msec
