                         Program Version 4.2.1 -  RELEASE  -
|  1> ! wB97X-D3 SP def2-SVP
|  2> %pal
|  3> nprocs 24
|  4> end
|  5>
|  6> * xyz 0 1
|  7> S 	 31.6285 	 -33.1757 	 -129.797
|  8> C 	 31.7575 	 -32.7572 	 -128.043
|  9> C 	 32.7658 	 -33.4769 	 -127.443
| 10> C 	 33.1995 	 -34.5208 	 -128.258
| 11> C 	 32.6287 	 -34.5623 	 -129.493
| 12> H 	 34.07 	 -35.1904 	 -128.006
| 13> C 	 33.1723 	 -33.3356 	 -125.981
| 14> H 	 33.4156 	 -34.3401 	 -125.593
| 15> H 	 32.3124 	 -32.9843 	 -125.38
| 16> C 	 34.4997 	 -32.6399 	 -125.764
| 17> H 	 34.7756 	 -32.9325 	 -124.752
| 18> H 	 35.1685 	 -33.0862 	 -126.547
| 19> C 	 34.3683 	 -31.0495 	 -125.705
| 20> H 	 35.2662 	 -30.6112 	 -126.026
| 21> H 	 33.6131 	 -30.7523 	 -126.419
| 22> H 	 33.9517 	 -30.6415 	 -124.739
| 23> S 	 32.9786 	 -35.0507 	 -132.199
| 24> C 	 33.321 	 -36.6791 	 -132.733
| 25> C 	 33.1515 	 -37.5885 	 -131.672
| 26> C 	 32.8992 	 -36.9677 	 -130.389
| 27> C 	 32.8335 	 -35.5964 	 -130.495
| 28> H 	 33.3385 	 -38.5819 	 -132.005
| 29> C 	 32.7644 	 -37.811 	 -129.132
| 30> H 	 33.1886 	 -37.2337 	 -128.327
| 31> H 	 33.3599 	 -38.7503 	 -129.247
| 32> C 	 31.3766 	 -38.0418 	 -128.797
| 33> H 	 30.8583 	 -38.529 	 -129.595
| 34> H 	 30.8646 	 -37.0779 	 -128.706
| 35> C 	 31.0708 	 -39.0879 	 -127.609
| 36> H 	 30.0452 	 -39.1765 	 -127.482
| 37> H 	 31.5709 	 -38.7125 	 -126.748
| 38> H 	 31.4833 	 -40.1124 	 -127.803
| 39> H 	 31.2537 	 -32.0179 	 -127.584
| 40> H 	 33.7248 	 -37.0485 	 -133.6
| 41> *
| 42>
| 43>                          ****END OF INPUT****

CARTESIAN COORDINATES (ANGSTROEM)
---------------------------------
  S     31.628500  -33.175700  -129.797000
  C     31.757500  -32.757200  -128.043000
  C     32.765800  -33.476900  -127.443000
  C     33.199500  -34.520800  -128.258000
  C     32.628700  -34.562300  -129.493000
  H     34.070000  -35.190400  -128.006000
  C     33.172300  -33.335600  -125.981000
  H     33.415600  -34.340100  -125.593000
  H     32.312400  -32.984300  -125.380000
  C     34.499700  -32.639900  -125.764000
  H     34.775600  -32.932500  -124.752000
  H     35.168500  -33.086200  -126.547000
  C     34.368300  -31.049500  -125.705000
  H     35.266200  -30.611200  -126.026000
  H     33.613100  -30.752300  -126.419000
  H     33.951700  -30.641500  -124.739000
  S     32.978600  -35.050700  -132.199000
  C     33.321000  -36.679100  -132.733000
  C     33.151500  -37.588500  -131.672000
  C     32.899200  -36.967700  -130.389000
  C     32.833500  -35.596400  -130.495000
  H     33.338500  -38.581900  -132.005000
  C     32.764400  -37.811000  -129.132000
  H     33.188600  -37.233700  -128.327000
  H     33.359900  -38.750300  -129.247000
  C     31.376600  -38.041800  -128.797000
  H     30.858300  -38.529000  -129.595000
  H     30.864600  -37.077900  -128.706000
  C     31.070800  -39.087900  -127.609000
  H     30.045200  -39.176500  -127.482000
  H     31.570900  -38.712500  -126.748000
  H     31.483300  -40.112400  -127.803000
  H     31.253700  -32.017900  -127.584000
  H     33.724800  -37.048500  -133.600000

 Total Charge           Charge          ....    0
 Multiplicity           Mult            ....    1
 Number of Electrons    NEL             ....  134
 Basis Dimension        Dim             ....  322

ORBITAL ENERGIES
----------------

  NO   OCC          E(Eh)            E(eV)
   0   2.0000     -88.968587     -2420.9583
   1   2.0000     -88.967083     -2420.9174
   2   2.0000     -10.330691      -281.1124
   3   2.0000     -10.329473      -281.0793
   4   2.0000     -10.313193      -280.6363
   5   2.0000     -10.309633      -280.5394
   6   2.0000     -10.308581      -280.5107
   7   2.0000     -10.299011      -280.2503
   8   2.0000     -10.295100      -280.1439
   9   2.0000     -10.294511      -280.1279
  10   2.0000     -10.294187      -280.1191
  11   2.0000     -10.292694      -280.0784
  12   2.0000     -10.288057      -279.9523
  13   2.0000     -10.279000      -279.7058
  14   2.0000     -10.277607      -279.6679
  15   2.0000     -10.275702      -279.6161
  16   2.0000      -8.082836      -219.9451
  17   2.0000      -8.081056      -219.8967
  18   2.0000      -6.041392      -164.3946
  19   2.0000      -6.039731      -164.3494
  20   2.0000      -6.037679      -164.2936
  21   2.0000      -6.035705      -164.2399
  22   2.0000      -6.033301      -164.1745
  23   2.0000      -6.031667      -164.1300
  24   2.0000      -1.008653       -27.4468
  25   2.0000      -0.982572       -26.7372
  26   2.0000      -0.915775       -24.9195
  27   2.0000      -0.913112       -24.8470
  28   2.0000      -0.868332       -23.6285
  29   2.0000      -0.849570       -23.1180
  30   2.0000      -0.840360       -22.8674
  31   2.0000      -0.814636       -22.1674
  32   2.0000      -0.787227       -21.4215
  33   2.0000      -0.780859       -21.2482
  34   2.0000      -0.714985       -19.4557
  35   2.0000      -0.697764       -18.9871
  36   2.0000      -0.694370       -18.8948
  37   2.0000      -0.662166       -18.0184
  38   2.0000      -0.642643       -17.4872
  39   2.0000      -0.625015       -17.0075
  40   2.0000      -0.595349       -16.2003
  41   2.0000      -0.574087       -15.6217
  42   2.0000      -0.565688       -15.3932
  43   2.0000      -0.544470       -14.8158
  44   2.0000      -0.539734       -14.6869
  45   2.0000      -0.527591       -14.3565
  46   2.0000      -0.521529       -14.1915
  47   2.0000      -0.518096       -14.0981
  48   2.0000      -0.506067       -13.7708
  49   2.0000      -0.499992       -13.6055
  50   2.0000      -0.491769       -13.3817
  51   2.0000      -0.478464       -13.0197
  52   2.0000      -0.471922       -12.8416
  53   2.0000      -0.467462       -12.7203
  54   2.0000      -0.459769       -12.5110
  55   2.0000      -0.450950       -12.2710
  56   2.0000      -0.448379       -12.2010
  57   2.0000      -0.440718       -11.9925
  58   2.0000      -0.436453       -11.8765
  59   2.0000      -0.425508       -11.5787
  60   2.0000      -0.418180       -11.3793
  61   2.0000      -0.408489       -11.1155
  62   2.0000      -0.399225       -10.8635
  63   2.0000      -0.352782        -9.5997
  64   2.0000      -0.336481        -9.1561
  65   2.0000      -0.330824        -9.0022
  66   2.0000      -0.285744        -7.7755
  67   0.0000       0.023717         0.6454
  68   0.0000       0.063926         1.7395
  69   0.0000       0.094959         2.5840
  70   0.0000       0.115806         3.1512
  71   0.0000       0.136679         3.7192

MULLIKEN ATOMIC CHARGES
-----------------------
   0 S :    0.103603
   1 C :   -0.084761
   2 C :   -0.048044
   3 C :   -0.031073
   4 C :   -0.118446
   5 H :    0.044359
   6 C :    0.024025
   7 H :    0.022141
   8 H :    0.033769
   9 C :   -0.076455
  10 H :    0.033579
  11 H :    0.044484
  12 C :   -0.035404
  13 H :    0.032309
  14 H :    0.014416
  15 H :    0.041586
  16 S :    0.097350
  17 C :   -0.057608
  18 C :   -0.053790
  19 C :   -0.048742
  20 C :   -0.145693
  21 H :    0.009305
  22 C :    0.135924
  23 H :   -0.001708
  24 H :    0.025565
  25 C :   -0.096814
  26 H :    0.012945
  27 H :    0.037861
  28 C :   -0.015512
  29 H :    0.028618
  30 H :    0.021137
  31 H :    0.032132
  32 H :   -0.004167
  33 H :    0.023110
Sum of atomic charges:   -0.0000000

LOEWDIN ATOMIC CHARGES
----------------------
   0 S :    0.384831
   1 C :   -0.158649
   2 C :   -0.059459
   3 C :   -0.079681
   4 C :   -0.188847
   5 H :    0.041336
   6 C :   -0.035443
   7 H :    0.032884
   8 H :    0.031778
   9 C :   -0.037905
  10 H :    0.024071
  11 H :    0.033802
  12 C :   -0.067047
  13 H :    0.019510
  14 H :    0.020121
  15 H :    0.033940
  16 S :    0.382426
  17 C :   -0.175187
  18 C :   -0.063972
  19 C :   -0.047681
  20 C :   -0.179463
  21 H :    0.027358
  22 C :   -0.032304
  23 H :    0.024828
  24 H :    0.035062
  25 C :   -0.041408
  26 H :    0.018576
  27 H :    0.030549
  28 C :   -0.053627
  29 H :    0.017351
  30 H :    0.016847
  31 H :    0.029670
  32 H :    0.000560
  33 H :    0.015172

  Mayer bond orders larger than 0.100000
B(  0-S ,  1-C ) :   1.1130 B(  0-S ,  4-C ) :   1.1399 B(  1-C ,  2-C ) :   1.6148
B(  1-C ,  4-C ) :   0.1022 B(  1-C , 32-H ) :   0.9853 B(  2-C ,  3-C ) :   1.2404
B(  2-C ,  6-C ) :   1.0176 B(  3-C ,  4-C ) :   1.5968 B(  3-C ,  5-H ) :   0.9724
B(  4-C , 20-C ) :   1.0496 B(  6-C ,  7-H ) :   0.9455 B(  6-C ,  8-H ) :   0.9496
B(  6-C ,  9-C ) :   1.0577 B(  9-C , 10-H ) :   0.9615 B(  9-C , 11-H ) :   0.9569
B(  9-C , 12-C ) :   1.0608 B( 12-C , 13-H ) :   0.9776 B( 12-C , 14-H ) :   0.9791
B( 12-C , 15-H ) :   0.9764 B( 16-S , 17-C ) :   1.1410 B( 16-S , 20-C ) :   1.1173
B( 17-C , 18-C ) :   1.6488 B( 17-C , 20-C ) :   0.1007 B( 17-C , 33-H ) :   0.9739
B( 18-C , 19-C ) :   1.1958 B( 18-C , 21-H ) :   0.9952 B( 19-C , 20-C ) :   1.6225
B( 19-C , 22-C ) :   1.0409 B( 22-C , 23-H ) :   0.9153 B( 22-C , 24-H ) :   0.9284
B( 22-C , 25-C ) :   1.0817 B( 25-C , 26-H ) :   0.9528 B( 25-C , 27-H ) :   0.9517
B( 25-C , 28-C ) :   1.0689 B( 28-C , 29-H ) :   0.9772 B( 28-C , 30-H ) :   0.9779
B( 28-C , 31-H ) :   0.9760

Dispersion correction           -0.014221169
FINAL SINGLE POINT ENERGY     -1339.846103150082

DIPOLE MOMENT
-------------
                                X             Y             Z
Electronic contribution:     -3.06692       6.93979     -24.98257
Nuclear contribution   :      3.29640      -7.32262      25.50816
                        -----------------------------------------
Total Dipole Moment    :      0.22948      -0.38283       0.52559
                        -----------------------------------------
Magnitude (a.u.)       :      0.68954
Magnitude (Debye)      :      1.75268

Rotational constants in cm-1:     0.018546     0.008542     0.006761
Rotational constants in MHz :   555.990669   256.087180   202.695158

                             ****ORCA TERMINATED NORMALLY****
TOTAL RUN TIME: 0 days 0 hours 0 minutes 20 seconds 628 msec
