                         Program Version 4.2.1 -  RELEASE  -
|  1> ! wB97X-D3 SP def2-SVP
|  2> %pal
|  3> nprocs 24
|  4> end
|  5>
|  6> * xyz 0 1
|  7> S 	 -40.2668 	 -1.79435 	 13.2736
|  8> C 	 -40.1437 	 -1.6574 	 14.9749
|  9> C 	 -40.8001 	 -0.538688 	 15.4345
| 10> C 	 -41.4675 	 0.225552 	 14.4213
| 11> C 	 -41.2275 	 -0.227502 	 13.1576
| 12> H 	 -42.1806 	 1.06911 	 14.6285
| 13> C 	 -40.8835 	 -0.270192 	 16.9493
| 14> H 	 -41.1883 	 -1.22484 	 17.4424
| 15> H 	 -41.6035 	 0.523612 	 17.1525
| 16> C 	 -39.5651 	 0.0280671 	 17.6713
| 17> H 	 -39.7482 	 -0.186891 	 18.7419
| 18> H 	 -38.7946 	 -0.66931 	 17.3786
| 19> C 	 -39.0705 	 1.49076 	 17.5735
| 20> H 	 -38.0133 	 1.59028 	 17.846
| 21> H 	 -39.2178 	 2.0051 	 16.6068
| 22> H 	 -39.5454 	 2.14415 	 18.2905
| 23> S 	 -41.9683 	 -0.799783 	 10.5741
| 24> C 	 -42.5266 	 0.375869 	 9.41144
| 25> C 	 -42.4424 	 1.56498 	 10.0382
| 26> C 	 -42.1255 	 1.64698 	 11.4346
| 27> C 	 -41.7832 	 0.324494 	 11.8856
| 28> H 	 -42.8897 	 2.49048 	 9.48971
| 29> C 	 -42.2468 	 2.96289 	 12.2398
| 30> H 	 -41.9731 	 3.74827 	 11.5687
| 31> H 	 -41.489 	 2.92447 	 12.9939
| 32> C 	 -43.6372 	 3.26858 	 12.7626
| 33> H 	 -43.9659 	 2.42594 	 13.4121
| 34> H 	 -44.379 	 3.4357 	 11.9899
| 35> C 	 -43.7508 	 4.41372 	 13.8177
| 36> H 	 -43.2306 	 5.27798 	 13.34
| 37> H 	 -43.2543 	 4.15483 	 14.7663
| 38> H 	 -44.8127 	 4.66662 	 13.9058
| 39> H 	 -39.7212 	 -2.35757 	 15.6551
| 40> H 	 -43.0555 	 0.392919 	 8.41267
| 41> *
| 42>
| 43>                          ****END OF INPUT****

CARTESIAN COORDINATES (ANGSTROEM)
---------------------------------
  S    -40.266800   -1.794350   13.273600
  C    -40.143700   -1.657400   14.974900
  C    -40.800100   -0.538688   15.434500
  C    -41.467500    0.225552   14.421300
  C    -41.227500   -0.227502   13.157600
  H    -42.180600    1.069110   14.628500
  C    -40.883500   -0.270192   16.949300
  H    -41.188300   -1.224840   17.442400
  H    -41.603500    0.523612   17.152500
  C    -39.565100    0.028067   17.671300
  H    -39.748200   -0.186891   18.741900
  H    -38.794600   -0.669310   17.378600
  C    -39.070500    1.490760   17.573500
  H    -38.013300    1.590280   17.846000
  H    -39.217800    2.005100   16.606800
  H    -39.545400    2.144150   18.290500
  S    -41.968300   -0.799783   10.574100
  C    -42.526600    0.375869    9.411440
  C    -42.442400    1.564980   10.038200
  C    -42.125500    1.646980   11.434600
  C    -41.783200    0.324494   11.885600
  H    -42.889700    2.490480    9.489710
  C    -42.246800    2.962890   12.239800
  H    -41.973100    3.748270   11.568700
  H    -41.489000    2.924470   12.993900
  C    -43.637200    3.268580   12.762600
  H    -43.965900    2.425940   13.412100
  H    -44.379000    3.435700   11.989900
  C    -43.750800    4.413720   13.817700
  H    -43.230600    5.277980   13.340000
  H    -43.254300    4.154830   14.766300
  H    -44.812700    4.666620   13.905800
  H    -39.721200   -2.357570   15.655100
  H    -43.055500    0.392919    8.412670

 Total Charge           Charge          ....    0
 Multiplicity           Mult            ....    1
 Number of Electrons    NEL             ....  134
 Basis Dimension        Dim             ....  322

ORBITAL ENERGIES
----------------

  NO   OCC          E(Eh)            E(eV)
   0   2.0000     -88.969253     -2420.9764
   1   2.0000     -88.967485     -2420.9283
   2   2.0000     -10.341494      -281.4063
   3   2.0000     -10.339673      -281.3568
   4   2.0000     -10.318503      -280.7808
   5   2.0000     -10.312340      -280.6130
   6   2.0000     -10.311302      -280.5848
   7   2.0000     -10.301871      -280.3282
   8   2.0000     -10.300904      -280.3019
   9   2.0000     -10.296092      -280.1709
  10   2.0000     -10.295882      -280.1652
  11   2.0000     -10.294896      -280.1384
  12   2.0000     -10.290559      -280.0204
  13   2.0000     -10.289291      -279.9859
  14   2.0000     -10.286861      -279.9197
  15   2.0000     -10.276921      -279.6492
  16   2.0000      -8.083085      -219.9519
  17   2.0000      -8.082160      -219.9268
  18   2.0000      -6.041842      -164.4069
  19   2.0000      -6.040900      -164.3813
  20   2.0000      -6.037731      -164.2950
  21   2.0000      -6.036436      -164.2598
  22   2.0000      -6.033591      -164.1823
  23   2.0000      -6.032877      -164.1629
  24   2.0000      -1.005337       -27.3566
  25   2.0000      -0.986505       -26.8442
  26   2.0000      -0.911035       -24.7905
  27   2.0000      -0.906613       -24.6702
  28   2.0000      -0.871202       -23.7066
  29   2.0000      -0.850377       -23.1399
  30   2.0000      -0.843217       -22.9451
  31   2.0000      -0.819868       -22.3097
  32   2.0000      -0.781845       -21.2751
  33   2.0000      -0.772010       -21.0074
  34   2.0000      -0.707340       -19.2477
  35   2.0000      -0.700375       -19.0582
  36   2.0000      -0.692581       -18.8461
  37   2.0000      -0.654111       -17.7993
  38   2.0000      -0.634554       -17.2671
  39   2.0000      -0.616812       -16.7843
  40   2.0000      -0.590239       -16.0612
  41   2.0000      -0.573230       -15.5984
  42   2.0000      -0.569979       -15.5099
  43   2.0000      -0.547869       -14.9083
  44   2.0000      -0.534248       -14.5376
  45   2.0000      -0.530207       -14.4277
  46   2.0000      -0.514297       -13.9947
  47   2.0000      -0.510024       -13.8785
  48   2.0000      -0.507855       -13.8194
  49   2.0000      -0.502973       -13.6866
  50   2.0000      -0.492825       -13.4105
  51   2.0000      -0.481397       -13.0995
  52   2.0000      -0.475480       -12.9385
  53   2.0000      -0.471600       -12.8329
  54   2.0000      -0.455317       -12.3898
  55   2.0000      -0.450444       -12.2572
  56   2.0000      -0.439370       -11.9559
  57   2.0000      -0.435986       -11.8638
  58   2.0000      -0.433322       -11.7913
  59   2.0000      -0.429126       -11.6771
  60   2.0000      -0.419107       -11.4045
  61   2.0000      -0.410825       -11.1791
  62   2.0000      -0.404316       -11.0020
  63   2.0000      -0.365928        -9.9574
  64   2.0000      -0.334908        -9.1133
  65   2.0000      -0.326153        -8.8751
  66   2.0000      -0.286059        -7.7840
  67   0.0000       0.018833         0.5125
  68   0.0000       0.078429         2.1342
  69   0.0000       0.103892         2.8271
  70   0.0000       0.119292         3.2461
  71   0.0000       0.123457         3.3594

MULLIKEN ATOMIC CHARGES
-----------------------
   0 S :    0.109142
   1 C :   -0.102301
   2 C :   -0.084523
   3 C :   -0.013206
   4 C :   -0.096938
   5 H :    0.032394
   6 C :    0.046919
   7 H :    0.037442
   8 H :    0.019430
   9 C :   -0.065446
  10 H :    0.029828
  11 H :    0.024925
  12 C :   -0.060919
  13 H :    0.031506
  14 H :    0.038134
  15 H :    0.021179
  16 S :    0.097743
  17 C :   -0.091267
  18 C :   -0.084614
  19 C :   -0.067697
  20 C :   -0.157630
  21 H :    0.038091
  22 C :    0.117804
  23 H :    0.014748
  24 H :    0.017610
  25 C :   -0.095799
  26 H :    0.030285
  27 H :    0.032213
  28 C :   -0.060235
  29 H :    0.028256
  30 H :    0.043511
  31 H :    0.044955
  32 H :    0.041721
  33 H :    0.082738
Sum of atomic charges:    0.0000000

LOEWDIN ATOMIC CHARGES
----------------------
   0 S :    0.386384
   1 C :   -0.199851
   2 C :   -0.069042
   3 C :   -0.071325
   4 C :   -0.164031
   5 H :    0.042263
   6 C :   -0.032118
   7 H :    0.038324
   8 H :    0.026499
   9 C :   -0.041680
  10 H :    0.028225
  11 H :    0.020030
  12 C :   -0.075118
  13 H :    0.028467
  14 H :    0.027515
  15 H :    0.021728
  16 S :    0.418371
  17 C :   -0.216784
  18 C :   -0.089565
  19 C :   -0.058474
  20 C :   -0.192710
  21 H :    0.037909
  22 C :   -0.027641
  23 H :    0.029266
  24 H :    0.027435
  25 C :   -0.044810
  26 H :    0.025152
  27 H :    0.024234
  28 C :   -0.065287
  29 H :    0.023799
  30 H :    0.025306
  31 H :    0.030473
  32 H :    0.027024
  33 H :    0.060030

  Mayer bond orders larger than 0.100000
B(  0-S ,  1-C ) :   1.1363 B(  0-S ,  4-C ) :   1.1235 B(  1-C ,  2-C ) :   1.6200
B(  1-C , 32-H ) :   0.9676 B(  2-C ,  3-C ) :   1.2395 B(  2-C ,  6-C ) :   1.0200
B(  3-C ,  4-C ) :   1.5895 B(  3-C ,  5-H ) :   0.9831 B(  4-C , 20-C ) :   1.0633
B(  6-C ,  7-H ) :   0.9421 B(  6-C ,  8-H ) :   0.9480 B(  6-C ,  9-C ) :   1.0723
B(  9-C , 10-H ) :   0.9564 B(  9-C , 11-H ) :   0.9591 B(  9-C , 12-C ) :   1.0681
B( 12-C , 13-H ) :   0.9745 B( 12-C , 14-H ) :   0.9804 B( 12-C , 15-H ) :   0.9753
B( 16-S , 17-C ) :   1.1315 B( 16-S , 20-C ) :   1.1634 B( 17-C , 18-C ) :   1.6312
B( 17-C , 33-H ) :   0.9547 B( 18-C , 19-C ) :   1.2858 B( 18-C , 21-H ) :   0.9591
B( 19-C , 20-C ) :   1.5298 B( 19-C , 22-C ) :   1.0432 B( 22-C , 23-H ) :   0.9226
B( 22-C , 24-H ) :   0.9308 B( 22-C , 25-C ) :   1.0701 B( 25-C , 26-H ) :   0.9574
B( 25-C , 27-H ) :   0.9551 B( 25-C , 28-C ) :   1.0756 B( 28-C , 29-H ) :   0.9753
B( 28-C , 30-H ) :   0.9781 B( 28-C , 31-H ) :   0.9747

Dispersion correction           -0.013759609
FINAL SINGLE POINT ENERGY     -1339.866094425819

DIPOLE MOMENT
-------------
                                X             Y             Z
Electronic contribution:      2.57927     -22.35331     -22.13284
Nuclear contribution   :     -2.92448      22.89147      22.59488
                        -----------------------------------------
Total Dipole Moment    :     -0.34521       0.53816       0.46204
                        -----------------------------------------
Magnitude (a.u.)       :      0.78884
Magnitude (Debye)      :      2.00507

Rotational constants in cm-1:     0.017110     0.009069     0.006260
Rotational constants in MHz :   512.951510   271.867525   187.666600

                             ****ORCA TERMINATED NORMALLY****
TOTAL RUN TIME: 0 days 0 hours 0 minutes 21 seconds 202 msec
