                         Program Version 4.2.1 -  RELEASE  -
|  1> ! wB97X-D3 SP def2-SVP
|  2> %pal
|  3> nprocs 24
|  4> end
|  5>
|  6> * xyz 0 1
|  7> S 	 -46.0476 	 11.0218 	 25.4973
|  8> C 	 -47.742 	 10.6949 	 25.4807
|  9> C 	 -48.502 	 11.806 	 25.8649
| 10> C 	 -47.6432 	 12.9158 	 26.101
| 11> C 	 -46.3027 	 12.7232 	 25.7848
| 12> H 	 -48.0671 	 13.8574 	 26.502
| 13> C 	 -49.9998 	 11.9054 	 26.0711
| 14> H 	 -50.4734 	 11.2086 	 25.3982
| 15> H 	 -50.4055 	 12.9419 	 25.6861
| 16> C 	 -50.5182 	 11.5759 	 27.4501
| 17> H 	 -51.5679 	 11.5389 	 27.3652
| 18> H 	 -50.1646 	 10.5183 	 27.6102
| 19> C 	 -49.9261 	 12.4198 	 28.5509
| 20> H 	 -50.1405 	 13.4646 	 28.3156
| 21> H 	 -50.2616 	 12.1705 	 29.5617
| 22> H 	 -48.8623 	 12.2905 	 28.5239
| 23> S 	 -43.5862 	 12.973 	 26.1502
| 24> C 	 -42.9001 	 14.5474 	 26.4421
| 25> C 	 -43.8732 	 15.5133 	 26.3897
| 26> C 	 -45.1687 	 15.0352 	 26.1189
| 27> C 	 -45.2201 	 13.6055 	 26.1252
| 28> H 	 -43.5283 	 16.495 	 26.5407
| 29> C 	 -46.4228 	 15.9283 	 25.9449
| 30> H 	 -46.8716 	 15.9093 	 26.9547
| 31> H 	 -47.1766 	 15.5503 	 25.2534
| 32> C 	 -46.1672 	 17.4025 	 25.5456
| 33> H 	 -45.3742 	 17.7949 	 26.2223
| 34> H 	 -46.9742 	 18.0304 	 25.7439
| 35> C 	 -45.525 	 17.6125 	 24.1512
| 36> H 	 -44.7136 	 16.9471 	 23.9884
| 37> H 	 -45.1075 	 18.5681 	 23.9608
| 38> H 	 -46.1885 	 17.3533 	 23.4255
| 39> H 	 -48.1863 	 9.67927 	 25.1708
| 40> H 	 -41.9144 	 14.8747 	 26.6745
| 41> *
| 42>
| 43>                          ****END OF INPUT****

CARTESIAN COORDINATES (ANGSTROEM)
---------------------------------
  S    -46.047600   11.021800   25.497300
  C    -47.742000   10.694900   25.480700
  C    -48.502000   11.806000   25.864900
  C    -47.643200   12.915800   26.101000
  C    -46.302700   12.723200   25.784800
  H    -48.067100   13.857400   26.502000
  C    -49.999800   11.905400   26.071100
  H    -50.473400   11.208600   25.398200
  H    -50.405500   12.941900   25.686100
  C    -50.518200   11.575900   27.450100
  H    -51.567900   11.538900   27.365200
  H    -50.164600   10.518300   27.610200
  C    -49.926100   12.419800   28.550900
  H    -50.140500   13.464600   28.315600
  H    -50.261600   12.170500   29.561700
  H    -48.862300   12.290500   28.523900
  S    -43.586200   12.973000   26.150200
  C    -42.900100   14.547400   26.442100
  C    -43.873200   15.513300   26.389700
  C    -45.168700   15.035200   26.118900
  C    -45.220100   13.605500   26.125200
  H    -43.528300   16.495000   26.540700
  C    -46.422800   15.928300   25.944900
  H    -46.871600   15.909300   26.954700
  H    -47.176600   15.550300   25.253400
  C    -46.167200   17.402500   25.545600
  H    -45.374200   17.794900   26.222300
  H    -46.974200   18.030400   25.743900
  C    -45.525000   17.612500   24.151200
  H    -44.713600   16.947100   23.988400
  H    -45.107500   18.568100   23.960800
  H    -46.188500   17.353300   23.425500
  H    -48.186300    9.679270   25.170800
  H    -41.914400   14.874700   26.674500

 Total Charge           Charge          ....    0
 Multiplicity           Mult            ....    1
 Number of Electrons    NEL             ....  134
 Basis Dimension        Dim             ....  322

ORBITAL ENERGIES
----------------

  NO   OCC          E(Eh)            E(eV)
   0   2.0000     -88.969057     -2420.9711
   1   2.0000     -88.968516     -2420.9564
   2   2.0000     -10.330057      -281.0952
   3   2.0000     -10.329805      -281.0883
   4   2.0000     -10.323011      -280.9034
   5   2.0000     -10.313134      -280.6346
   6   2.0000     -10.309444      -280.5342
   7   2.0000     -10.302664      -280.3497
   8   2.0000     -10.298995      -280.2499
   9   2.0000     -10.298434      -280.2346
  10   2.0000     -10.295017      -280.1416
  11   2.0000     -10.288290      -279.9586
  12   2.0000     -10.285648      -279.8867
  13   2.0000     -10.283939      -279.8402
  14   2.0000     -10.273767      -279.5634
  15   2.0000     -10.262043      -279.2444
  16   2.0000      -8.084263      -219.9840
  17   2.0000      -8.083061      -219.9513
  18   2.0000      -6.042857      -164.4345
  19   2.0000      -6.041698      -164.4030
  20   2.0000      -6.038769      -164.3232
  21   2.0000      -6.037582      -164.2910
  22   2.0000      -6.034845      -164.2165
  23   2.0000      -6.033731      -164.1862
  24   2.0000      -1.010649       -27.5011
  25   2.0000      -0.986613       -26.8471
  26   2.0000      -0.918940       -25.0056
  27   2.0000      -0.906265       -24.6607
  28   2.0000      -0.874172       -23.7874
  29   2.0000      -0.852918       -23.2091
  30   2.0000      -0.843159       -22.9435
  31   2.0000      -0.815444       -22.1894
  32   2.0000      -0.789523       -21.4840
  33   2.0000      -0.776627       -21.1331
  34   2.0000      -0.711334       -19.3564
  35   2.0000      -0.701613       -19.0919
  36   2.0000      -0.697906       -18.9910
  37   2.0000      -0.655933       -17.8488
  38   2.0000      -0.629721       -17.1356
  39   2.0000      -0.623864       -16.9762
  40   2.0000      -0.596933       -16.2434
  41   2.0000      -0.576903       -15.6983
  42   2.0000      -0.555063       -15.1040
  43   2.0000      -0.549553       -14.9541
  44   2.0000      -0.546845       -14.8804
  45   2.0000      -0.535666       -14.5762
  46   2.0000      -0.522036       -14.2053
  47   2.0000      -0.509697       -13.8696
  48   2.0000      -0.506213       -13.7748
  49   2.0000      -0.497593       -13.5402
  50   2.0000      -0.489466       -13.3191
  51   2.0000      -0.480683       -13.0800
  52   2.0000      -0.473601       -12.8873
  53   2.0000      -0.467752       -12.7282
  54   2.0000      -0.464708       -12.6453
  55   2.0000      -0.451026       -12.2730
  56   2.0000      -0.442818       -12.0497
  57   2.0000      -0.439377       -11.9561
  58   2.0000      -0.434593       -11.8259
  59   2.0000      -0.428327       -11.6554
  60   2.0000      -0.417897       -11.3716
  61   2.0000      -0.413997       -11.2654
  62   2.0000      -0.409040       -11.1305
  63   2.0000      -0.365289        -9.9400
  64   2.0000      -0.336305        -9.1513
  65   2.0000      -0.328490        -8.9387
  66   2.0000      -0.276658        -7.5282
  67   0.0000       0.015839         0.4310
  68   0.0000       0.085365         2.3229
  69   0.0000       0.095128         2.5886
  70   0.0000       0.119557         3.2533
  71   0.0000       0.138940         3.7808

MULLIKEN ATOMIC CHARGES
-----------------------
   0 S :    0.098492
   1 C :   -0.148354
   2 C :   -0.083372
   3 C :   -0.044017
   4 C :   -0.085173
   5 H :    0.021475
   6 C :    0.018034
   7 H :    0.017491
   8 H :    0.040321
   9 C :   -0.043035
  10 H :    0.024910
  11 H :    0.022149
  12 C :   -0.036301
  13 H :    0.022647
  14 H :    0.038737
  15 H :    0.042492
  16 S :    0.097676
  17 C :   -0.064890
  18 C :   -0.039031
  19 C :   -0.051581
  20 C :   -0.121605
  21 H :   -0.000976
  22 C :    0.022189
  23 H :    0.056648
  24 H :    0.044345
  25 C :   -0.053597
  26 H :    0.017111
  27 H :    0.016747
  28 C :    0.006016
  29 H :    0.017628
  30 H :    0.025350
  31 H :    0.005784
  32 H :    0.077714
  33 H :    0.037977
Sum of atomic charges:   -0.0000000

LOEWDIN ATOMIC CHARGES
----------------------
   0 S :    0.417367
   1 C :   -0.215091
   2 C :   -0.070559
   3 C :   -0.067928
   4 C :   -0.195588
   5 H :    0.032603
   6 C :   -0.038023
   7 H :    0.029097
   8 H :    0.036296
   9 C :   -0.038853
  10 H :    0.017620
  11 H :    0.029104
  12 C :   -0.063230
  13 H :    0.021996
  14 H :    0.028207
  15 H :    0.027582
  16 S :    0.407911
  17 C :   -0.187173
  18 C :   -0.070440
  19 C :   -0.052121
  20 C :   -0.194685
  21 H :    0.024430
  22 C :   -0.033994
  23 H :    0.040015
  24 H :    0.030404
  25 C :   -0.035971
  26 H :    0.024054
  27 H :    0.016322
  28 C :   -0.054369
  29 H :    0.025210
  30 H :    0.023961
  31 H :    0.011405
  32 H :    0.045443
  33 H :    0.029000

  Mayer bond orders larger than 0.100000
B(  0-S ,  1-C ) :   1.1604 B(  0-S ,  4-C ) :   1.1401 B(  1-C ,  2-C ) :   1.5753
B(  1-C , 32-H ) :   0.9547 B(  2-C ,  3-C ) :   1.2832 B(  2-C ,  6-C ) :   1.0194
B(  3-C ,  4-C ) :   1.5148 B(  3-C ,  5-H ) :   0.9827 B(  4-C , 20-C ) :   1.1150
B(  6-C ,  7-H ) :   0.9335 B(  6-C ,  8-H ) :   0.9430 B(  6-C ,  9-C ) :   1.0807
B(  9-C , 10-H ) :   0.9557 B(  9-C , 11-H ) :   0.9478 B(  9-C , 12-C ) :   1.0808
B( 12-C , 13-H ) :   0.9733 B( 12-C , 14-H ) :   0.9720 B( 12-C , 15-H ) :   0.9681
B( 16-S , 17-C ) :   1.1534 B( 16-S , 20-C ) :   1.1363 B( 17-C , 18-C ) :   1.6129
B( 17-C , 33-H ) :   0.9643 B( 18-C , 19-C ) :   1.2660 B( 18-C , 21-H ) :   0.9953
B( 19-C , 20-C ) :   1.5361 B( 19-C , 22-C ) :   1.0228 B( 22-C , 23-H ) :   0.9310
B( 22-C , 24-H ) :   0.9359 B( 22-C , 25-C ) :   1.0789 B( 25-C , 26-H ) :   0.9500
B( 25-C , 27-H ) :   0.9557 B( 25-C , 28-C ) :   1.0713 B( 28-C , 29-H ) :   0.9708
B( 28-C , 30-H ) :   0.9750 B( 28-C , 31-H ) :   0.9732

Dispersion correction           -0.014494076
FINAL SINGLE POINT ENERGY     -1339.868709865148

DIPOLE MOMENT
-------------
                                X             Y             Z
Electronic contribution:     19.44195     -16.44375      -3.26920
Nuclear contribution   :    -19.90517      16.87467       3.40157
                        -----------------------------------------
Total Dipole Moment    :     -0.46322       0.43093       0.13237
                        -----------------------------------------
Magnitude (a.u.)       :      0.64637
Magnitude (Debye)      :      1.64294

Rotational constants in cm-1:     0.019048     0.008831     0.006892
Rotational constants in MHz :   571.033424   264.739604   206.610449

                             ****ORCA TERMINATED NORMALLY****
TOTAL RUN TIME: 0 days 0 hours 0 minutes 22 seconds 17 msec
