                         Program Version 4.2.1 -  RELEASE  -
|  1> ! wB97X-D3 SP def2-SVP
|  2> %pal
|  3> nprocs 24
|  4> end
|  5>
|  6> * xyz 0 1
|  7> S 	 -34.0384 	 -3.43421 	 5.29948
|  8> C 	 -34.5269 	 -3.16574 	 6.96028
|  9> C 	 -35.563 	 -4.02355 	 7.33298
| 10> C 	 -36.0792 	 -4.76945 	 6.21932
| 11> C 	 -35.408 	 -4.50955 	 5.0447
| 12> H 	 -36.9007 	 -5.38545 	 6.22657
| 13> C 	 -36.0713 	 -4.2983 	 8.78879
| 14> H 	 -35.2861 	 -4.06431 	 9.55334
| 15> H 	 -36.2318 	 -5.41685 	 8.83443
| 16> C 	 -37.3797 	 -3.688 	 9.21768
| 17> H 	 -38.1129 	 -3.93464 	 8.46448
| 18> H 	 -37.6759 	 -4.178 	 10.0877
| 19> C 	 -37.3064 	 -2.20737 	 9.549
| 20> H 	 -36.5196 	 -1.99499 	 10.2024
| 21> H 	 -36.9165 	 -1.67342 	 8.66601
| 22> H 	 -38.2182 	 -1.82609 	 9.92019
| 23> S 	 -34.4736 	 -6.33613 	 3.26375
| 24> C 	 -35.4201 	 -6.86061 	 1.91712
| 25> C 	 -36.6101 	 -6.13081 	 1.84919
| 26> C 	 -36.8124 	 -5.30984 	 3.00752
| 27> C 	 -35.6845 	 -5.18178 	 3.78325
| 28> H 	 -37.2277 	 -6.28872 	 1.00786
| 29> C 	 -38.0932 	 -4.52887 	 3.14789
| 30> H 	 -37.8066 	 -3.63074 	 2.57757
| 31> H 	 -38.1559 	 -4.04981 	 4.13918
| 32> C 	 -39.4809 	 -5.04552 	 2.73647
| 33> H 	 -39.7755 	 -5.699 	 3.58101
| 34> H 	 -39.3962 	 -5.69416 	 1.90635
| 35> C 	 -40.5243 	 -3.99801 	 2.4538
| 36> H 	 -40.489 	 -3.21295 	 3.2181
| 37> H 	 -41.5107 	 -4.48332 	 2.45712
| 38> H 	 -40.3221 	 -3.51637 	 1.44023
| 39> H 	 -34.1259 	 -2.39126 	 7.67181
| 40> H 	 -35.0594 	 -7.58354 	 1.15751
| 41> *
| 42>
| 43>                          ****END OF INPUT****

CARTESIAN COORDINATES (ANGSTROEM)
---------------------------------
  S    -34.038400   -3.434210    5.299480
  C    -34.526900   -3.165740    6.960280
  C    -35.563000   -4.023550    7.332980
  C    -36.079200   -4.769450    6.219320
  C    -35.408000   -4.509550    5.044700
  H    -36.900700   -5.385450    6.226570
  C    -36.071300   -4.298300    8.788790
  H    -35.286100   -4.064310    9.553340
  H    -36.231800   -5.416850    8.834430
  C    -37.379700   -3.688000    9.217680
  H    -38.112900   -3.934640    8.464480
  H    -37.675900   -4.178000   10.087700
  C    -37.306400   -2.207370    9.549000
  H    -36.519600   -1.994990   10.202400
  H    -36.916500   -1.673420    8.666010
  H    -38.218200   -1.826090    9.920190
  S    -34.473600   -6.336130    3.263750
  C    -35.420100   -6.860610    1.917120
  C    -36.610100   -6.130810    1.849190
  C    -36.812400   -5.309840    3.007520
  C    -35.684500   -5.181780    3.783250
  H    -37.227700   -6.288720    1.007860
  C    -38.093200   -4.528870    3.147890
  H    -37.806600   -3.630740    2.577570
  H    -38.155900   -4.049810    4.139180
  C    -39.480900   -5.045520    2.736470
  H    -39.775500   -5.699000    3.581010
  H    -39.396200   -5.694160    1.906350
  C    -40.524300   -3.998010    2.453800
  H    -40.489000   -3.212950    3.218100
  H    -41.510700   -4.483320    2.457120
  H    -40.322100   -3.516370    1.440230
  H    -34.125900   -2.391260    7.671810
  H    -35.059400   -7.583540    1.157510

 Total Charge           Charge          ....    0
 Multiplicity           Mult            ....    1
 Number of Electrons    NEL             ....  134
 Basis Dimension        Dim             ....  322

ORBITAL ENERGIES
----------------

  NO   OCC          E(Eh)            E(eV)
   0   2.0000     -88.969237     -2420.9760
   1   2.0000     -88.960581     -2420.7405
   2   2.0000     -10.328619      -281.0560
   3   2.0000     -10.321591      -280.8648
   4   2.0000     -10.320316      -280.8301
   5   2.0000     -10.318607      -280.7836
   6   2.0000     -10.306126      -280.4439
   7   2.0000     -10.305668      -280.4315
   8   2.0000     -10.300359      -280.2870
   9   2.0000     -10.291430      -280.0441
  10   2.0000     -10.289651      -279.9956
  11   2.0000     -10.289113      -279.9810
  12   2.0000     -10.286694      -279.9152
  13   2.0000     -10.285878      -279.8930
  14   2.0000     -10.277221      -279.6574
  15   2.0000     -10.268216      -279.4124
  16   2.0000      -8.083565      -219.9650
  17   2.0000      -8.075970      -219.7583
  18   2.0000      -6.042092      -164.4137
  19   2.0000      -6.038184      -164.3074
  20   2.0000      -6.034468      -164.2062
  21   2.0000      -6.034269      -164.2008
  22   2.0000      -6.030295      -164.0927
  23   2.0000      -6.026784      -163.9971
  24   2.0000      -1.006655       -27.3925
  25   2.0000      -0.982842       -26.7445
  26   2.0000      -0.913425       -24.8556
  27   2.0000      -0.910626       -24.7794
  28   2.0000      -0.869287       -23.6545
  29   2.0000      -0.855304       -23.2740
  30   2.0000      -0.848374       -23.0854
  31   2.0000      -0.811337       -22.0776
  32   2.0000      -0.784181       -21.3387
  33   2.0000      -0.773470       -21.0472
  34   2.0000      -0.708248       -19.2724
  35   2.0000      -0.699768       -19.0417
  36   2.0000      -0.693098       -18.8602
  37   2.0000      -0.658295       -17.9131
  38   2.0000      -0.640894       -17.4396
  39   2.0000      -0.621584       -16.9142
  40   2.0000      -0.598975       -16.2990
  41   2.0000      -0.569867       -15.5069
  42   2.0000      -0.560185       -15.2434
  43   2.0000      -0.553401       -15.0588
  44   2.0000      -0.542697       -14.7675
  45   2.0000      -0.529744       -14.4151
  46   2.0000      -0.519700       -14.1418
  47   2.0000      -0.516868       -14.0647
  48   2.0000      -0.505944       -13.7674
  49   2.0000      -0.495385       -13.4801
  50   2.0000      -0.486244       -13.2314
  51   2.0000      -0.483483       -13.1562
  52   2.0000      -0.471820       -12.8389
  53   2.0000      -0.464588       -12.6421
  54   2.0000      -0.458440       -12.4748
  55   2.0000      -0.452327       -12.3085
  56   2.0000      -0.444970       -12.1083
  57   2.0000      -0.437824       -11.9138
  58   2.0000      -0.431333       -11.7372
  59   2.0000      -0.429291       -11.6816
  60   2.0000      -0.420242       -11.4354
  61   2.0000      -0.417334       -11.3562
  62   2.0000      -0.410112       -11.1597
  63   2.0000      -0.342647        -9.3239
  64   2.0000      -0.330101        -8.9825
  65   2.0000      -0.323271        -8.7966
  66   2.0000      -0.294553        -8.0152
  67   0.0000       0.038142         1.0379
  68   0.0000       0.062240         1.6936
  69   0.0000       0.111373         3.0306
  70   0.0000       0.121212         3.2983
  71   0.0000       0.130943         3.5631

MULLIKEN ATOMIC CHARGES
-----------------------
   0 S :    0.120772
   1 C :   -0.140131
   2 C :   -0.076693
   3 C :    0.080033
   4 C :   -0.172153
   5 H :   -0.018878
   6 C :   -0.005598
   7 H :    0.031638
   8 H :    0.041295
   9 C :   -0.019226
  10 H :    0.017687
  11 H :    0.011253
  12 C :   -0.005929
  13 H :   -0.000095
  14 H :    0.021097
  15 H :    0.034020
  16 S :    0.103846
  17 C :   -0.109764
  18 C :   -0.035706
  19 C :   -0.009402
  20 C :   -0.151402
  21 H :    0.009170
  22 C :    0.011382
  23 H :    0.038021
  24 H :    0.017135
  25 C :   -0.039322
  26 H :    0.032338
  27 H :    0.013000
  28 C :   -0.062592
  29 H :    0.034401
  30 H :    0.043796
  31 H :    0.044830
  32 H :    0.068826
  33 H :    0.072349
Sum of atomic charges:   -0.0000000

LOEWDIN ATOMIC CHARGES
----------------------
   0 S :    0.404009
   1 C :   -0.209823
   2 C :   -0.063359
   3 C :   -0.045613
   4 C :   -0.194061
   5 H :    0.017962
   6 C :   -0.033187
   7 H :    0.031133
   8 H :    0.040447
   9 C :   -0.038264
  10 H :    0.021908
  11 H :    0.016753
  12 C :   -0.058468
  13 H :    0.015880
  14 H :    0.029133
  15 H :    0.021955
  16 S :    0.413150
  17 C :   -0.192740
  18 C :   -0.072931
  19 C :   -0.051016
  20 C :   -0.208348
  21 H :    0.024209
  22 C :   -0.046807
  23 H :    0.040830
  24 H :    0.030219
  25 C :   -0.042934
  26 H :    0.029049
  27 H :    0.015374
  28 C :   -0.063633
  29 H :    0.024743
  30 H :    0.031725
  31 H :    0.034199
  32 H :    0.041604
  33 H :    0.036902

  Mayer bond orders larger than 0.100000
B(  0-S ,  1-C ) :   1.1339 B(  0-S ,  4-C ) :   1.1478 B(  1-C ,  2-C ) :   1.6206
B(  1-C , 32-H ) :   0.9605 B(  2-C ,  3-C ) :   1.2308 B(  2-C ,  6-C ) :   1.0083
B(  3-C ,  4-C ) :   1.5815 B(  3-C ,  5-H ) :   1.0075 B(  4-C , 20-C ) :   1.0147
B(  6-C ,  7-H ) :   0.9483 B(  6-C ,  8-H ) :   0.9440 B(  6-C ,  9-C ) :   1.0833
B(  9-C , 10-H ) :   0.9517 B(  9-C , 11-H ) :   0.9480 B(  9-C , 12-C ) :   1.0823
B( 12-C , 13-H ) :   0.9688 B( 12-C , 14-H ) :   0.9725 B( 12-C , 15-H ) :   0.9744
B( 16-S , 17-C ) :   1.1738 B( 16-S , 20-C ) :   1.1400 B( 17-C , 18-C ) :   1.5992
B( 17-C , 20-C ) :   0.1015 B( 17-C , 33-H ) :   0.9632 B( 18-C , 19-C ) :   1.2170
B( 18-C , 21-H ) :   0.9983 B( 19-C , 20-C ) :   1.6105 B( 19-C , 22-C ) :   1.0400
B( 22-C , 23-H ) :   0.9371 B( 22-C , 24-H ) :   0.9294 B( 22-C , 25-C ) :   1.0463
B( 25-C , 26-H ) :   0.9525 B( 25-C , 27-H ) :   0.9552 B( 25-C , 28-C ) :   1.0882
B( 28-C , 29-H ) :   0.9768 B( 28-C , 30-H ) :   0.9721 B( 28-C , 31-H ) :   0.9724

Dispersion correction           -0.013729099
FINAL SINGLE POINT ENERGY     -1339.872781832945

DIPOLE MOMENT
-------------
                                X             Y             Z
Electronic contribution:     25.73398      -7.49519     -11.00358
Nuclear contribution   :    -26.38878       7.46319      11.18853
                        -----------------------------------------
Total Dipole Moment    :     -0.65479      -0.03200       0.18495
                        -----------------------------------------
Magnitude (a.u.)       :      0.68116
Magnitude (Debye)      :      1.73138

Rotational constants in cm-1:     0.016748     0.008593     0.006327
Rotational constants in MHz :   502.089613   257.610397   189.681218

                             ****ORCA TERMINATED NORMALLY****
TOTAL RUN TIME: 0 days 0 hours 0 minutes 21 seconds 29 msec
