                         Program Version 4.2.1 -  RELEASE  -
|  1> ! wB97X-D3 SP def2-SVP
|  2> %pal
|  3> nprocs 24
|  4> end
|  5>
|  6> * xyz 0 1
|  7> S 	 -50.9554 	 25.0149 	 26.447
|  8> C 	 -52.2172 	 24.1878 	 27.2167
|  9> C 	 -51.8506 	 23.9491 	 28.5364
| 10> C 	 -50.4482 	 24.0542 	 28.7587
| 11> C 	 -49.8122 	 24.481 	 27.633
| 12> H 	 -49.7939 	 23.8444 	 29.6063
| 13> C 	 -52.7185 	 23.2438 	 29.5609
| 14> H 	 -52.2864 	 22.5592 	 30.2243
| 15> H 	 -53.3782 	 22.5615 	 29.0589
| 16> C 	 -53.4844 	 24.2785 	 30.4102
| 17> H 	 -52.7686 	 24.6582 	 31.1592
| 18> H 	 -53.8155 	 25.1338 	 29.8778
| 19> C 	 -54.7295 	 23.7343 	 31.1158
| 20> H 	 -55.4588 	 24.4243 	 31.4282
| 21> H 	 -55.274 	 23.0371 	 30.4546
| 22> H 	 -54.6048 	 23.1821 	 32.0558
| 23> S 	 -47.8471 	 26.3609 	 27.4593
| 24> C 	 -46.2334 	 25.8019 	 27.0522
| 25> C 	 -46.0706 	 24.4222 	 27.0909
| 26> C 	 -47.3539 	 23.7759 	 27.1794
| 27> C 	 -48.3918 	 24.6899 	 27.4204
| 28> H 	 -45.0502 	 24.0576 	 26.9855
| 29> C 	 -47.6082 	 22.3161 	 26.9319
| 30> H 	 -47.0821 	 21.9203 	 26.0241
| 31> H 	 -48.6682 	 22.1282 	 26.7415
| 32> C 	 -47.2604 	 21.4696 	 28.1789
| 33> H 	 -47.7877 	 21.8191 	 29.0553
| 34> H 	 -46.2361 	 21.7635 	 28.5778
| 35> C 	 -47.4563 	 19.9817 	 28.0632
| 36> H 	 -47.2149 	 19.5874 	 29.0813
| 37> H 	 -46.7195 	 19.5838 	 27.437
| 38> H 	 -48.4857 	 19.6961 	 27.888
| 39> H 	 -53.2608 	 24.1765 	 26.956
| 40> H 	 -45.4201 	 26.4942 	 26.9936
| 41> *
| 42>
| 43>                          ****END OF INPUT****

CARTESIAN COORDINATES (ANGSTROEM)
---------------------------------
  S    -50.955400   25.014900   26.447000
  C    -52.217200   24.187800   27.216700
  C    -51.850600   23.949100   28.536400
  C    -50.448200   24.054200   28.758700
  C    -49.812200   24.481000   27.633000
  H    -49.793900   23.844400   29.606300
  C    -52.718500   23.243800   29.560900
  H    -52.286400   22.559200   30.224300
  H    -53.378200   22.561500   29.058900
  C    -53.484400   24.278500   30.410200
  H    -52.768600   24.658200   31.159200
  H    -53.815500   25.133800   29.877800
  C    -54.729500   23.734300   31.115800
  H    -55.458800   24.424300   31.428200
  H    -55.274000   23.037100   30.454600
  H    -54.604800   23.182100   32.055800
  S    -47.847100   26.360900   27.459300
  C    -46.233400   25.801900   27.052200
  C    -46.070600   24.422200   27.090900
  C    -47.353900   23.775900   27.179400
  C    -48.391800   24.689900   27.420400
  H    -45.050200   24.057600   26.985500
  C    -47.608200   22.316100   26.931900
  H    -47.082100   21.920300   26.024100
  H    -48.668200   22.128200   26.741500
  C    -47.260400   21.469600   28.178900
  H    -47.787700   21.819100   29.055300
  H    -46.236100   21.763500   28.577800
  C    -47.456300   19.981700   28.063200
  H    -47.214900   19.587400   29.081300
  H    -46.719500   19.583800   27.437000
  H    -48.485700   19.696100   27.888000
  H    -53.260800   24.176500   26.956000
  H    -45.420100   26.494200   26.993600

 Total Charge           Charge          ....    0
 Multiplicity           Mult            ....    1
 Number of Electrons    NEL             ....  134
 Basis Dimension        Dim             ....  322

ORBITAL ENERGIES
----------------

  NO   OCC          E(Eh)            E(eV)
   0   2.0000     -88.965230     -2420.8670
   1   2.0000     -88.962788     -2420.8005
   2   2.0000     -10.323481      -280.9162
   3   2.0000     -10.319999      -280.8215
   4   2.0000     -10.315892      -280.7097
   5   2.0000     -10.309755      -280.5427
   6   2.0000     -10.307830      -280.4903
   7   2.0000     -10.300681      -280.2958
   8   2.0000     -10.298529      -280.2372
   9   2.0000     -10.291599      -280.0487
  10   2.0000     -10.291385      -280.0428
  11   2.0000     -10.284006      -279.8420
  12   2.0000     -10.283663      -279.8327
  13   2.0000     -10.282822      -279.8098
  14   2.0000     -10.273727      -279.5623
  15   2.0000     -10.272886      -279.5394
  16   2.0000      -8.079938      -219.8663
  17   2.0000      -8.079094      -219.8433
  18   2.0000      -6.038295      -164.3104
  19   2.0000      -6.037406      -164.2862
  20   2.0000      -6.034594      -164.2097
  21   2.0000      -6.033522      -164.1805
  22   2.0000      -6.030732      -164.1046
  23   2.0000      -6.029797      -164.0791
  24   2.0000      -1.013614       -27.5818
  25   2.0000      -0.985510       -26.8171
  26   2.0000      -0.910607       -24.7789
  27   2.0000      -0.907310       -24.6892
  28   2.0000      -0.870599       -23.6902
  29   2.0000      -0.853057       -23.2129
  30   2.0000      -0.849769       -23.1234
  31   2.0000      -0.817225       -22.2378
  32   2.0000      -0.784023       -21.3343
  33   2.0000      -0.769161       -20.9299
  34   2.0000      -0.705867       -19.2076
  35   2.0000      -0.700385       -19.0584
  36   2.0000      -0.692410       -18.8414
  37   2.0000      -0.658887       -17.9292
  38   2.0000      -0.651162       -17.7190
  39   2.0000      -0.617073       -16.7914
  40   2.0000      -0.597708       -16.2645
  41   2.0000      -0.575876       -15.6704
  42   2.0000      -0.562128       -15.2963
  43   2.0000      -0.551803       -15.0153
  44   2.0000      -0.525047       -14.2872
  45   2.0000      -0.523166       -14.2361
  46   2.0000      -0.515989       -14.0408
  47   2.0000      -0.511683       -13.9236
  48   2.0000      -0.507023       -13.7968
  49   2.0000      -0.502318       -13.6688
  50   2.0000      -0.497295       -13.5321
  51   2.0000      -0.478178       -13.0119
  52   2.0000      -0.472735       -12.8638
  53   2.0000      -0.464185       -12.6311
  54   2.0000      -0.462208       -12.5773
  55   2.0000      -0.450250       -12.2519
  56   2.0000      -0.440882       -11.9970
  57   2.0000      -0.436207       -11.8698
  58   2.0000      -0.434294       -11.8177
  59   2.0000      -0.424854       -11.5609
  60   2.0000      -0.419149       -11.4056
  61   2.0000      -0.413881       -11.2623
  62   2.0000      -0.404417       -11.0047
  63   2.0000      -0.338572        -9.2130
  64   2.0000      -0.329886        -8.9767
  65   2.0000      -0.322765        -8.7829
  66   2.0000      -0.300505        -8.1772
  67   0.0000       0.040622         1.1054
  68   0.0000       0.053059         1.4438
  69   0.0000       0.114083         3.1043
  70   0.0000       0.123947         3.3728
  71   0.0000       0.124697         3.3932

MULLIKEN ATOMIC CHARGES
-----------------------
   0 S :    0.128853
   1 C :   -0.082344
   2 C :   -0.091082
   3 C :    0.054818
   4 C :   -0.189044
   5 H :    0.020219
   6 C :    0.074568
   7 H :    0.008666
   8 H :    0.009002
   9 C :   -0.059916
  10 H :    0.030265
  11 H :    0.025870
  12 C :   -0.048298
  13 H :    0.018367
  14 H :    0.019722
  15 H :    0.024071
  16 S :    0.110055
  17 C :   -0.091613
  18 C :   -0.038819
  19 C :   -0.000625
  20 C :   -0.188995
  21 H :    0.028702
  22 C :    0.082680
  23 H :    0.036308
  24 H :    0.028674
  25 C :   -0.132642
  26 H :    0.008026
  27 H :    0.017185
  28 C :    0.014777
  29 H :    0.025204
  30 H :    0.024478
  31 H :    0.038363
  32 H :    0.047230
  33 H :    0.047275
Sum of atomic charges:   -0.0000000

LOEWDIN ATOMIC CHARGES
----------------------
   0 S :    0.436009
   1 C :   -0.210567
   2 C :   -0.059987
   3 C :   -0.058257
   4 C :   -0.206270
   5 H :    0.038517
   6 C :   -0.027931
   7 H :    0.023234
   8 H :    0.025367
   9 C :   -0.037316
  10 H :    0.028250
  11 H :    0.019956
  12 C :   -0.073921
  13 H :    0.019837
  14 H :    0.024566
  15 H :    0.024886
  16 S :    0.397301
  17 C :   -0.174878
  18 C :   -0.069024
  19 C :   -0.047038
  20 C :   -0.203669
  21 H :    0.037707
  22 C :   -0.033879
  23 H :    0.035305
  24 H :    0.032283
  25 C :   -0.052186
  26 H :    0.018309
  27 H :    0.024702
  28 C :   -0.059596
  29 H :    0.034560
  30 H :    0.017870
  31 H :    0.027172
  32 H :    0.029332
  33 H :    0.019357

  Mayer bond orders larger than 0.100000
B(  0-S ,  1-C ) :   1.1561 B(  0-S ,  4-C ) :   1.1584 B(  1-C ,  2-C ) :   1.5982
B(  1-C ,  4-C ) :   0.1032 B(  1-C , 32-H ) :   0.9668 B(  2-C ,  3-C ) :   1.2158
B(  2-C ,  6-C ) :   1.0261 B(  3-C ,  4-C ) :   1.5934 B(  3-C ,  5-H ) :   0.9985
B(  4-C , 20-C ) :   1.0155 B(  6-C ,  7-H ) :   0.9514 B(  6-C ,  8-H ) :   0.9517
B(  6-C ,  9-C ) :   1.0409 B(  9-C , 10-H ) :   0.9551 B(  9-C , 11-H ) :   0.9665
B(  9-C , 12-C ) :   1.0726 B( 12-C , 13-H ) :   0.9757 B( 12-C , 14-H ) :   0.9760
B( 12-C , 15-H ) :   0.9739 B( 16-S , 17-C ) :   1.1512 B( 16-S , 20-C ) :   1.1483
B( 17-C , 18-C ) :   1.6378 B( 17-C , 20-C ) :   0.1016 B( 17-C , 33-H ) :   0.9666
B( 18-C , 19-C ) :   1.1986 B( 18-C , 21-H ) :   0.9922 B( 19-C , 20-C ) :   1.6187
B( 19-C , 22-C ) :   1.0511 B( 22-C , 23-H ) :   0.9406 B( 22-C , 24-H ) :   0.9265
B( 22-C , 25-C ) :   1.0500 B( 25-C , 26-H ) :   0.9490 B( 25-C , 27-H ) :   0.9555
B( 25-C , 28-C ) :   1.0899 B( 28-C , 29-H ) :   0.9679 B( 28-C , 30-H ) :   0.9728
B( 28-C , 31-H ) :   0.9718

Dispersion correction           -0.014025773
FINAL SINGLE POINT ENERGY     -1339.860475837204

DIPOLE MOMENT
-------------
                                X             Y             Z
Electronic contribution:      9.03849      21.02749     -15.24650
Nuclear contribution   :     -9.01525     -21.44310      15.61342
                        -----------------------------------------
Total Dipole Moment    :      0.02324      -0.41561       0.36692
                        -----------------------------------------
Magnitude (a.u.)       :      0.55489
Magnitude (Debye)      :      1.41041

Rotational constants in cm-1:     0.018728     0.008086     0.006508
Rotational constants in MHz :   561.464051   242.412654   195.103894

                             ****ORCA TERMINATED NORMALLY****
TOTAL RUN TIME: 0 days 0 hours 0 minutes 21 seconds 235 msec
