                         Program Version 4.2.1 -  RELEASE  -
|  1> ! wB97X-D3 SP def2-SVP
|  2> %pal
|  3> nprocs 24
|  4> end
|  5>
|  6> * xyz 0 1
|  7> S 	 38.7806 	 -24.358 	 -108.53
|  8> C 	 40.3053 	 -25.1758 	 -108.76
|  9> C 	 41.0221 	 -24.6326 	 -109.781
| 10> C 	 40.3891 	 -23.4732 	 -110.332
| 11> C 	 39.2543 	 -23.0743 	 -109.718
| 12> H 	 40.8625 	 -22.7486 	 -111.055
| 13> C 	 42.4108 	 -25.0999 	 -110.165
| 14> H 	 42.3884 	 -25.6884 	 -111.082
| 15> H 	 42.7897 	 -25.7741 	 -109.391
| 16> C 	 43.4452 	 -23.9867 	 -110.443
| 17> H 	 44.2969 	 -24.5852 	 -110.62
| 18> H 	 43.2035 	 -23.3951 	 -111.352
| 19> C 	 43.647 	 -23.0565 	 -109.24
| 20> H 	 44.0565 	 -23.6431 	 -108.426
| 21> H 	 44.294 	 -22.2195 	 -109.519
| 22> H 	 42.6387 	 -22.7409 	 -108.906
| 23> S 	 36.7472 	 -22.1045 	 -110.176
| 24> C 	 36.4709 	 -20.4339 	 -110.67
| 25> C 	 37.6369 	 -19.7218 	 -110.485
| 26> C 	 38.7936 	 -20.5019 	 -110.237
| 27> C 	 38.486 	 -21.8909 	 -110.013
| 28> H 	 37.5245 	 -18.6596 	 -110.692
| 29> C 	 40.1562 	 -19.8369 	 -110.14
| 30> H 	 40.8683 	 -20.5602 	 -110.202
| 31> H 	 40.1932 	 -19.3724 	 -109.128
| 32> C 	 40.4655 	 -18.7961 	 -111.266
| 33> H 	 39.683 	 -18.0248 	 -111.346
| 34> H 	 40.5191 	 -19.4353 	 -112.158
| 35> C 	 41.7463 	 -18.0026 	 -111.125
| 36> H 	 41.9242 	 -17.2324 	 -111.928
| 37> H 	 42.61 	 -18.6104 	 -111.181
| 38> H 	 41.6911 	 -17.4028 	 -110.198
| 39> H 	 40.5937 	 -26.0455 	 -108.213
| 40> H 	 35.4993 	 -19.9212 	 -110.871
| 41> *
| 42>
| 43>                          ****END OF INPUT****

CARTESIAN COORDINATES (ANGSTROEM)
---------------------------------
  S     38.780600  -24.358000  -108.530000
  C     40.305300  -25.175800  -108.760000
  C     41.022100  -24.632600  -109.781000
  C     40.389100  -23.473200  -110.332000
  C     39.254300  -23.074300  -109.718000
  H     40.862500  -22.748600  -111.055000
  C     42.410800  -25.099900  -110.165000
  H     42.388400  -25.688400  -111.082000
  H     42.789700  -25.774100  -109.391000
  C     43.445200  -23.986700  -110.443000
  H     44.296900  -24.585200  -110.620000
  H     43.203500  -23.395100  -111.352000
  C     43.647000  -23.056500  -109.240000
  H     44.056500  -23.643100  -108.426000
  H     44.294000  -22.219500  -109.519000
  H     42.638700  -22.740900  -108.906000
  S     36.747200  -22.104500  -110.176000
  C     36.470900  -20.433900  -110.670000
  C     37.636900  -19.721800  -110.485000
  C     38.793600  -20.501900  -110.237000
  C     38.486000  -21.890900  -110.013000
  H     37.524500  -18.659600  -110.692000
  C     40.156200  -19.836900  -110.140000
  H     40.868300  -20.560200  -110.202000
  H     40.193200  -19.372400  -109.128000
  C     40.465500  -18.796100  -111.266000
  H     39.683000  -18.024800  -111.346000
  H     40.519100  -19.435300  -112.158000
  C     41.746300  -18.002600  -111.125000
  H     41.924200  -17.232400  -111.928000
  H     42.610000  -18.610400  -111.181000
  H     41.691100  -17.402800  -110.198000
  H     40.593700  -26.045500  -108.213000
  H     35.499300  -19.921200  -110.871000

 Total Charge           Charge          ....    0
 Multiplicity           Mult            ....    1
 Number of Electrons    NEL             ....  134
 Basis Dimension        Dim             ....  322

ORBITAL ENERGIES
----------------

  NO   OCC          E(Eh)            E(eV)
   0   2.0000     -88.965495     -2420.8742
   1   2.0000     -88.964321     -2420.8423
   2   2.0000     -10.334837      -281.2252
   3   2.0000     -10.333078      -281.1774
   4   2.0000     -10.321273      -280.8561
   5   2.0000     -10.312422      -280.6153
   6   2.0000     -10.312204      -280.6093
   7   2.0000     -10.299113      -280.2531
   8   2.0000     -10.296522      -280.1826
   9   2.0000     -10.293408      -280.0979
  10   2.0000     -10.292971      -280.0860
  11   2.0000     -10.291115      -280.0355
  12   2.0000     -10.290164      -280.0096
  13   2.0000     -10.285651      -279.8868
  14   2.0000     -10.280812      -279.7551
  15   2.0000     -10.277017      -279.6518
  16   2.0000      -8.079770      -219.8617
  17   2.0000      -8.078501      -219.8272
  18   2.0000      -6.038307      -164.3107
  19   2.0000      -6.037192      -164.2804
  20   2.0000      -6.034235      -164.1999
  21   2.0000      -6.033240      -164.1728
  22   2.0000      -6.030614      -164.1013
  23   2.0000      -6.028932      -164.0556
  24   2.0000      -1.005083       -27.3497
  25   2.0000      -0.983398       -26.7596
  26   2.0000      -0.913516       -24.8580
  27   2.0000      -0.908993       -24.7350
  28   2.0000      -0.875678       -23.8284
  29   2.0000      -0.851644       -23.1744
  30   2.0000      -0.841011       -22.8851
  31   2.0000      -0.820511       -22.3272
  32   2.0000      -0.783714       -21.3259
  33   2.0000      -0.772166       -21.0117
  34   2.0000      -0.712346       -19.3839
  35   2.0000      -0.697847       -18.9894
  36   2.0000      -0.692441       -18.8423
  37   2.0000      -0.651667       -17.7328
  38   2.0000      -0.640997       -17.4424
  39   2.0000      -0.624143       -16.9838
  40   2.0000      -0.595685       -16.2094
  41   2.0000      -0.574362       -15.6292
  42   2.0000      -0.568785       -15.4774
  43   2.0000      -0.555327       -15.1112
  44   2.0000      -0.536594       -14.6015
  45   2.0000      -0.527350       -14.3499
  46   2.0000      -0.516198       -14.0465
  47   2.0000      -0.514389       -13.9972
  48   2.0000      -0.508508       -13.8372
  49   2.0000      -0.501233       -13.6392
  50   2.0000      -0.490538       -13.3482
  51   2.0000      -0.486585       -13.2407
  52   2.0000      -0.473042       -12.8721
  53   2.0000      -0.464026       -12.6268
  54   2.0000      -0.461752       -12.5649
  55   2.0000      -0.449436       -12.2298
  56   2.0000      -0.441856       -12.0235
  57   2.0000      -0.434127       -11.8132
  58   2.0000      -0.430324       -11.7097
  59   2.0000      -0.428727       -11.6662
  60   2.0000      -0.420038       -11.4298
  61   2.0000      -0.415753       -11.3132
  62   2.0000      -0.411478       -11.1969
  63   2.0000      -0.356631        -9.7044
  64   2.0000      -0.332321        -9.0429
  65   2.0000      -0.326188        -8.8760
  66   2.0000      -0.288659        -7.8548
  67   0.0000       0.024261         0.6602
  68   0.0000       0.067685         1.8418
  69   0.0000       0.112132         3.0513
  70   0.0000       0.115874         3.1531
  71   0.0000       0.125827         3.4239

MULLIKEN ATOMIC CHARGES
-----------------------
   0 S :    0.097445
   1 C :   -0.112533
   2 C :   -0.090168
   3 C :    0.006093
   4 C :   -0.135940
   5 H :    0.033582
   6 C :    0.069702
   7 H :    0.038620
   8 H :    0.016365
   9 C :   -0.093505
  10 H :    0.020987
  11 H :    0.036843
  12 C :   -0.046692
  13 H :    0.024982
  14 H :    0.043917
  15 H :    0.048581
  16 S :    0.096944
  17 C :   -0.113408
  18 C :   -0.052012
  19 C :   -0.042588
  20 C :   -0.155441
  21 H :    0.027220
  22 C :    0.140048
  23 H :   -0.025957
  24 H :    0.043785
  25 C :   -0.107632
  26 H :    0.034373
  27 H :    0.032770
  28 C :   -0.044425
  29 H :    0.037655
  30 H :    0.022001
  31 H :    0.032831
  32 H :    0.040483
  33 H :    0.075078
Sum of atomic charges:   -0.0000000

LOEWDIN ATOMIC CHARGES
----------------------
   0 S :    0.370814
   1 C :   -0.184222
   2 C :   -0.071924
   3 C :   -0.067767
   4 C :   -0.174668
   5 H :    0.039477
   6 C :   -0.029681
   7 H :    0.034854
   8 H :    0.029157
   9 C :   -0.041700
  10 H :    0.020115
  11 H :    0.023530
  12 C :   -0.066271
  13 H :    0.024573
  14 H :    0.027591
  15 H :    0.029655
  16 S :    0.402365
  17 C :   -0.190420
  18 C :   -0.077300
  19 C :   -0.051635
  20 C :   -0.195170
  21 H :    0.034161
  22 C :   -0.022130
  23 H :    0.009258
  24 H :    0.039653
  25 C :   -0.040453
  26 H :    0.023155
  27 H :    0.026778
  28 C :   -0.068331
  29 H :    0.033763
  30 H :    0.016140
  31 H :    0.028105
  32 H :    0.025527
  33 H :    0.043002

  Mayer bond orders larger than 0.100000
B(  0-S ,  1-C ) :   1.1230 B(  0-S ,  4-C ) :   1.1109 B(  1-C ,  2-C ) :   1.6452
B(  1-C , 32-H ) :   0.9692 B(  2-C ,  3-C ) :   1.2057 B(  2-C ,  6-C ) :   1.0237
B(  3-C ,  4-C ) :   1.6214 B(  3-C ,  5-H ) :   0.9782 B(  4-C , 20-C ) :   1.0794
B(  6-C ,  7-H ) :   0.9296 B(  6-C ,  8-H ) :   0.9456 B(  6-C ,  9-C ) :   1.0787
B(  9-C , 10-H ) :   0.9540 B(  9-C , 11-H ) :   0.9514 B(  9-C , 12-C ) :   1.0750
B( 12-C , 13-H ) :   0.9724 B( 12-C , 14-H ) :   0.9753 B( 12-C , 15-H ) :   0.9727
B( 16-S , 17-C ) :   1.1551 B( 16-S , 20-C ) :   1.1496 B( 17-C , 18-C ) :   1.6140
B( 17-C , 20-C ) :   0.1111 B( 17-C , 33-H ) :   0.9595 B( 18-C , 19-C ) :   1.2518
B( 18-C , 21-H ) :   0.9834 B( 19-C , 20-C ) :   1.5364 B( 19-C , 22-C ) :   1.0460
B( 22-C , 23-H ) :   0.9257 B( 22-C , 24-H ) :   0.9300 B( 22-C , 25-C ) :   1.0559
B( 25-C , 26-H ) :   0.9558 B( 25-C , 27-H ) :   0.9575 B( 25-C , 28-C ) :   1.0926
B( 28-C , 29-H ) :   0.9729 B( 28-C , 30-H ) :   0.9745 B( 28-C , 31-H ) :   0.9724

Dispersion correction           -0.014453142
FINAL SINGLE POINT ENERGY     -1339.877242584353

DIPOLE MOMENT
-------------
                                X             Y             Z
Electronic contribution:    -28.01516     -13.41068       6.15458
Nuclear contribution   :     28.66637      13.77370      -6.36428
                        -----------------------------------------
Total Dipole Moment    :      0.65121       0.36302      -0.20970
                        -----------------------------------------
Magnitude (a.u.)       :      0.77449
Magnitude (Debye)      :      1.96860

Rotational constants in cm-1:     0.015628     0.010597     0.006689
Rotational constants in MHz :   468.517602   317.691846   200.531180

                             ****ORCA TERMINATED NORMALLY****
TOTAL RUN TIME: 0 days 0 hours 0 minutes 22 seconds 141 msec
