                         Program Version 4.2.1 -  RELEASE  -
|  1> ! wB97X-D3 SP def2-SVP
|  2> %pal
|  3> nprocs 24
|  4> end
|  5>
|  6> * xyz 0 1
|  7> S 	 42.4874 	 -11.8615 	 -124.514
|  8> C 	 40.7101 	 -11.592 	 -124.292
|  9> C 	 40.0559 	 -12.7995 	 -124.536
| 10> C 	 40.9779 	 -13.8733 	 -124.7
| 11> C 	 42.3128 	 -13.5023 	 -124.752
| 12> H 	 40.7635 	 -14.9606 	 -124.868
| 13> C 	 38.5751 	 -12.9453 	 -124.905
| 14> H 	 37.9349 	 -12.1932 	 -124.572
| 15> H 	 38.2696 	 -13.8696 	 -124.445
| 16> C 	 38.3778 	 -12.9352 	 -126.479
| 17> H 	 39.094 	 -13.6512 	 -126.927
| 18> H 	 37.4198 	 -13.277 	 -126.704
| 19> C 	 38.5115 	 -11.4832 	 -127.009
| 20> H 	 39.5213 	 -11.0845 	 -126.906
| 21> H 	 38.3985 	 -11.4197 	 -128.114
| 22> H 	 37.7065 	 -10.8403 	 -126.531
| 23> S 	 44.4475 	 -14.8114 	 -123.564
| 24> C 	 45.079 	 -16.1523 	 -124.561
| 25> C 	 44.6296 	 -16.189 	 -125.859
| 26> C 	 43.7675 	 -15.0763 	 -126.109
| 27> C 	 43.4185 	 -14.3746 	 -124.95
| 28> H 	 44.8488 	 -16.9735 	 -126.53
| 29> C 	 43.1135 	 -14.8631 	 -127.447
| 30> H 	 42.0475 	 -14.5874 	 -127.308
| 31> H 	 43.0992 	 -15.8424 	 -127.888
| 32> C 	 43.9402 	 -13.8726 	 -128.3
| 33> H 	 45.0086 	 -14.2564 	 -128.439
| 34> H 	 44.0384 	 -12.9635 	 -127.749
| 35> C 	 43.2741 	 -13.4553 	 -129.631
| 36> H 	 43.752 	 -12.6807 	 -130.177
| 37> H 	 42.2341 	 -13.1953 	 -129.625
| 38> H 	 43.1391 	 -14.2879 	 -130.294
| 39> H 	 40.2006 	 -10.6264 	 -124.297
| 40> H 	 45.6529 	 -16.9839 	 -124.169
| 41> *
| 42>
| 43>                          ****END OF INPUT****

CARTESIAN COORDINATES (ANGSTROEM)
---------------------------------
  S     42.487400  -11.861500  -124.514000
  C     40.710100  -11.592000  -124.292000
  C     40.055900  -12.799500  -124.536000
  C     40.977900  -13.873300  -124.700000
  C     42.312800  -13.502300  -124.752000
  H     40.763500  -14.960600  -124.868000
  C     38.575100  -12.945300  -124.905000
  H     37.934900  -12.193200  -124.572000
  H     38.269600  -13.869600  -124.445000
  C     38.377800  -12.935200  -126.479000
  H     39.094000  -13.651200  -126.927000
  H     37.419800  -13.277000  -126.704000
  C     38.511500  -11.483200  -127.009000
  H     39.521300  -11.084500  -126.906000
  H     38.398500  -11.419700  -128.114000
  H     37.706500  -10.840300  -126.531000
  S     44.447500  -14.811400  -123.564000
  C     45.079000  -16.152300  -124.561000
  C     44.629600  -16.189000  -125.859000
  C     43.767500  -15.076300  -126.109000
  C     43.418500  -14.374600  -124.950000
  H     44.848800  -16.973500  -126.530000
  C     43.113500  -14.863100  -127.447000
  H     42.047500  -14.587400  -127.308000
  H     43.099200  -15.842400  -127.888000
  C     43.940200  -13.872600  -128.300000
  H     45.008600  -14.256400  -128.439000
  H     44.038400  -12.963500  -127.749000
  C     43.274100  -13.455300  -129.631000
  H     43.752000  -12.680700  -130.177000
  H     42.234100  -13.195300  -129.625000
  H     43.139100  -14.287900  -130.294000
  H     40.200600  -10.626400  -124.297000
  H     45.652900  -16.983900  -124.169000

 Total Charge           Charge          ....    0
 Multiplicity           Mult            ....    1
 Number of Electrons    NEL             ....  134
 Basis Dimension        Dim             ....  322

ORBITAL ENERGIES
----------------

  NO   OCC          E(Eh)            E(eV)
   0   2.0000     -88.968301     -2420.9506
   1   2.0000     -88.964716     -2420.8530
   2   2.0000     -10.323836      -280.9258
   3   2.0000     -10.320533      -280.8360
   4   2.0000     -10.319981      -280.8210
   5   2.0000     -10.317598      -280.7561
   6   2.0000     -10.305021      -280.4139
   7   2.0000     -10.303963      -280.3851
   8   2.0000     -10.294166      -280.1185
   9   2.0000     -10.293671      -280.1050
  10   2.0000     -10.291511      -280.0462
  11   2.0000     -10.291283      -280.0401
  12   2.0000     -10.290545      -280.0200
  13   2.0000     -10.290126      -280.0086
  14   2.0000     -10.286529      -279.9107
  15   2.0000     -10.269490      -279.4470
  16   2.0000      -8.082065      -219.9242
  17   2.0000      -8.080033      -219.8689
  18   2.0000      -6.040569      -164.3722
  19   2.0000      -6.038463      -164.3149
  20   2.0000      -6.036934      -164.2733
  21   2.0000      -6.034330      -164.2025
  22   2.0000      -6.032656      -164.1569
  23   2.0000      -6.030938      -164.1102
  24   2.0000      -1.009329       -27.4652
  25   2.0000      -0.980938       -26.6927
  26   2.0000      -0.911255       -24.7965
  27   2.0000      -0.905200       -24.6317
  28   2.0000      -0.868660       -23.6375
  29   2.0000      -0.849669       -23.1207
  30   2.0000      -0.842489       -22.9253
  31   2.0000      -0.810831       -22.0638
  32   2.0000      -0.785147       -21.3649
  33   2.0000      -0.772367       -21.0172
  34   2.0000      -0.712067       -19.3763
  35   2.0000      -0.701730       -19.0950
  36   2.0000      -0.694707       -18.9039
  37   2.0000      -0.664587       -18.0843
  38   2.0000      -0.642256       -17.4767
  39   2.0000      -0.615424       -16.7465
  40   2.0000      -0.592327       -16.1180
  41   2.0000      -0.572305       -15.5732
  42   2.0000      -0.559113       -15.2142
  43   2.0000      -0.546846       -14.8804
  44   2.0000      -0.542746       -14.7689
  45   2.0000      -0.528294       -14.3756
  46   2.0000      -0.516460       -14.0536
  47   2.0000      -0.511385       -13.9155
  48   2.0000      -0.503089       -13.6898
  49   2.0000      -0.498056       -13.5528
  50   2.0000      -0.482173       -13.1206
  51   2.0000      -0.474040       -12.8993
  52   2.0000      -0.470017       -12.7898
  53   2.0000      -0.462507       -12.5854
  54   2.0000      -0.462232       -12.5780
  55   2.0000      -0.445521       -12.1233
  56   2.0000      -0.444595       -12.0980
  57   2.0000      -0.440148       -11.9770
  58   2.0000      -0.438572       -11.9341
  59   2.0000      -0.431171       -11.7327
  60   2.0000      -0.426987       -11.6189
  61   2.0000      -0.414168       -11.2701
  62   2.0000      -0.410398       -11.1675
  63   2.0000      -0.338562        -9.2127
  64   2.0000      -0.330097        -8.9824
  65   2.0000      -0.323267        -8.7965
  66   2.0000      -0.300713        -8.1828
  67   0.0000       0.038129         1.0375
  68   0.0000       0.051369         1.3978
  69   0.0000       0.106266         2.8916
  70   0.0000       0.112726         3.0674
  71   0.0000       0.130492         3.5509

MULLIKEN ATOMIC CHARGES
-----------------------
   0 S :    0.108391
   1 C :   -0.125650
   2 C :   -0.091566
   3 C :    0.023550
   4 C :   -0.186777
   5 H :    0.025717
   6 C :    0.090041
   7 H :    0.002485
   8 H :    0.025598
   9 C :   -0.042638
  10 H :    0.033345
  11 H :    0.018722
  12 C :   -0.096923
  13 H :    0.045503
  14 H :    0.036484
  15 H :    0.043572
  16 S :    0.116556
  17 C :   -0.082631
  18 C :   -0.019151
  19 C :   -0.045966
  20 C :   -0.170063
  21 H :    0.011713
  22 C :    0.089040
  23 H :    0.033138
  24 H :    0.009009
  25 C :   -0.070246
  26 H :    0.041384
  27 H :    0.025837
  28 C :   -0.007287
  29 H :    0.030453
  30 H :    0.011118
  31 H :    0.005405
  32 H :    0.057418
  33 H :    0.054418
Sum of atomic charges:   -0.0000000

LOEWDIN ATOMIC CHARGES
----------------------
   0 S :    0.422437
   1 C :   -0.192606
   2 C :   -0.058333
   3 C :   -0.072975
   4 C :   -0.228115
   5 H :    0.037898
   6 C :   -0.018795
   7 H :    0.017995
   8 H :    0.028380
   9 C :   -0.027402
  10 H :    0.024625
  11 H :    0.014275
  12 C :   -0.075073
  13 H :    0.025962
  14 H :    0.029355
  15 H :    0.031759
  16 S :    0.380988
  17 C :   -0.165316
  18 C :   -0.064911
  19 C :   -0.042340
  20 C :   -0.199928
  21 H :    0.029046
  22 C :   -0.031562
  23 H :    0.033980
  24 H :    0.024057
  25 C :   -0.035214
  26 H :    0.034881
  27 H :    0.021035
  28 C :   -0.071884
  29 H :    0.023273
  30 H :    0.024969
  31 H :    0.021025
  32 H :    0.030972
  33 H :    0.027545

  Mayer bond orders larger than 0.100000
B(  0-S ,  1-C ) :   1.1263 B(  0-S ,  4-C ) :   1.1808 B(  1-C ,  2-C ) :   1.6025
B(  1-C ,  4-C ) :   0.1013 B(  1-C , 32-H ) :   0.9667 B(  2-C ,  3-C ) :   1.2366
B(  2-C ,  6-C ) :   1.0336 B(  3-C ,  4-C ) :   1.5684 B(  3-C ,  5-H ) :   0.9861
B(  4-C , 20-C ) :   1.0329 B(  6-C ,  7-H ) :   0.9443 B(  6-C ,  8-H ) :   0.9395
B(  6-C ,  9-C ) :   1.0591 B(  9-C , 10-H ) :   0.9584 B(  9-C , 11-H ) :   0.9573
B(  9-C , 12-C ) :   1.0698 B( 12-C , 13-H ) :   0.9742 B( 12-C , 14-H ) :   0.9724
B( 12-C , 15-H ) :   0.9739 B( 16-S , 17-C ) :   1.1405 B( 16-S , 20-C ) :   1.1189
B( 17-C , 18-C ) :   1.6467 B( 17-C , 33-H ) :   0.9614 B( 18-C , 19-C ) :   1.2184
B( 18-C , 21-H ) :   0.9928 B( 19-C , 20-C ) :   1.6102 B( 19-C , 22-C ) :   1.0460
B( 22-C , 23-H ) :   0.9300 B( 22-C , 24-H ) :   0.9296 B( 22-C , 25-C ) :   1.0542
B( 25-C , 26-H ) :   0.9546 B( 25-C , 27-H ) :   0.9596 B( 25-C , 28-C ) :   1.0761
B( 28-C , 29-H ) :   0.9767 B( 28-C , 30-H ) :   0.9691 B( 28-C , 31-H ) :   0.9687

Dispersion correction           -0.015430440
FINAL SINGLE POINT ENERGY     -1339.865900069776

DIPOLE MOMENT
-------------
                                X             Y             Z
Electronic contribution:     16.09894      -2.34982      23.59015
Nuclear contribution   :    -16.59731       2.00293     -24.21322
                        -----------------------------------------
Total Dipole Moment    :     -0.49837      -0.34689      -0.62307
                        -----------------------------------------
Magnitude (a.u.)       :      0.87001
Magnitude (Debye)      :      2.21140

Rotational constants in cm-1:     0.018253     0.009739     0.007607
Rotational constants in MHz :   547.216521   291.969651   228.049066

                             ****ORCA TERMINATED NORMALLY****
TOTAL RUN TIME: 0 days 0 hours 0 minutes 22 seconds 551 msec
