                         Program Version 4.2.1 -  RELEASE  -
|  1> ! wB97X-D3 SP def2-SVP
|  2> %pal
|  3> nprocs 24
|  4> end
|  5>
|  6> * xyz 0 1
|  7> S 	 -144.082 	 14.3554 	 -6.25343
|  8> C 	 -143.482 	 14.3913 	 -7.96385
|  9> C 	 -143.566 	 13.1646 	 -8.56222
| 10> C 	 -144.117 	 12.2055 	 -7.64818
| 11> C 	 -144.581 	 12.7436 	 -6.46336
| 12> H 	 -144.235 	 11.1943 	 -7.89372
| 13> C 	 -143.169 	 12.7469 	 -9.94833
| 14> H 	 -143.055 	 13.5377 	 -10.7117
| 15> H 	 -143.943 	 12.0923 	 -10.337
| 16> C 	 -141.857 	 12.0084 	 -9.82953
| 17> H 	 -141.029 	 12.6342 	 -9.62101
| 18> H 	 -141.953 	 11.2048 	 -9.15596
| 19> C 	 -141.566 	 11.3947 	 -11.2415
| 20> H 	 -141.54 	 12.1438 	 -11.9895
| 21> H 	 -140.624 	 10.8253 	 -11.3246
| 22> H 	 -142.349 	 10.7292 	 -11.4668
| 23> S 	 -144.422 	 12.0695 	 -3.85828
| 24> C 	 -145.511 	 10.8285 	 -3.18798
| 25> C 	 -146.434 	 10.454 	 -4.15124
| 26> C 	 -146.196 	 10.9667 	 -5.46664
| 27> C 	 -145.238 	 12.0074 	 -5.4135
| 28> H 	 -147.26 	 9.83403 	 -3.80236
| 29> C 	 -147.091 	 10.5854 	 -6.55237
| 30> H 	 -147.183 	 11.4584 	 -7.25586
| 31> H 	 -148.014 	 10.3946 	 -6.08444
| 32> C 	 -146.692 	 9.28688 	 -7.30944
| 33> H 	 -146.458 	 8.54437 	 -6.51583
| 34> H 	 -145.663 	 9.35244 	 -7.64248
| 35> C 	 -147.784 	 8.93678 	 -8.37289
| 36> H 	 -147.687 	 9.66966 	 -9.19574
| 37> H 	 -148.823 	 9.13675 	 -8.0096
| 38> H 	 -147.735 	 7.93436 	 -8.85498
| 39> H 	 -143.076 	 15.259 	 -8.46269
| 40> H 	 -145.472 	 10.4672 	 -2.20501
| 41> *
| 42>
| 43>                          ****END OF INPUT****

CARTESIAN COORDINATES (ANGSTROEM)
---------------------------------
  S    -144.082000   14.355400   -6.253430
  C    -143.482000   14.391300   -7.963850
  C    -143.566000   13.164600   -8.562220
  C    -144.117000   12.205500   -7.648180
  C    -144.581000   12.743600   -6.463360
  H    -144.235000   11.194300   -7.893720
  C    -143.169000   12.746900   -9.948330
  H    -143.055000   13.537700  -10.711700
  H    -143.943000   12.092300  -10.337000
  C    -141.857000   12.008400   -9.829530
  H    -141.029000   12.634200   -9.621010
  H    -141.953000   11.204800   -9.155960
  C    -141.566000   11.394700  -11.241500
  H    -141.540000   12.143800  -11.989500
  H    -140.624000   10.825300  -11.324600
  H    -142.349000   10.729200  -11.466800
  S    -144.422000   12.069500   -3.858280
  C    -145.511000   10.828500   -3.187980
  C    -146.434000   10.454000   -4.151240
  C    -146.196000   10.966700   -5.466640
  C    -145.238000   12.007400   -5.413500
  H    -147.260000    9.834030   -3.802360
  C    -147.091000   10.585400   -6.552370
  H    -147.183000   11.458400   -7.255860
  H    -148.014000   10.394600   -6.084440
  C    -146.692000    9.286880   -7.309440
  H    -146.458000    8.544370   -6.515830
  H    -145.663000    9.352440   -7.642480
  C    -147.784000    8.936780   -8.372890
  H    -147.687000    9.669660   -9.195740
  H    -148.823000    9.136750   -8.009600
  H    -147.735000    7.934360   -8.854980
  H    -143.076000   15.259000   -8.462690
  H    -145.472000   10.467200   -2.205010

 Total Charge           Charge          ....    0
 Multiplicity           Mult            ....    1
 Number of Electrons    NEL             ....  134
 Basis Dimension        Dim             ....  322

ORBITAL ENERGIES
----------------

  NO   OCC          E(Eh)            E(eV)
   0   2.0000     -88.965520     -2420.8749
   1   2.0000     -88.964491     -2420.8469
   2   2.0000     -10.328120      -281.0424
   3   2.0000     -10.324543      -280.9451
   4   2.0000     -10.316420      -280.7241
   5   2.0000     -10.313368      -280.6410
   6   2.0000     -10.304419      -280.3975
   7   2.0000     -10.299453      -280.2624
   8   2.0000     -10.295455      -280.1536
   9   2.0000     -10.294563      -280.1293
  10   2.0000     -10.294216      -280.1199
  11   2.0000     -10.292402      -280.0705
  12   2.0000     -10.288766      -279.9716
  13   2.0000     -10.287134      -279.9271
  14   2.0000     -10.280712      -279.7524
  15   2.0000     -10.271640      -279.5055
  16   2.0000      -8.080322      -219.8767
  17   2.0000      -8.078763      -219.8343
  18   2.0000      -6.038921      -164.3274
  19   2.0000      -6.037344      -164.2845
  20   2.0000      -6.034968      -164.2198
  21   2.0000      -6.033298      -164.1744
  22   2.0000      -6.030846      -164.1077
  23   2.0000      -6.029502      -164.0711
  24   2.0000      -1.008059       -27.4307
  25   2.0000      -0.981199       -26.6998
  26   2.0000      -0.923326       -25.1250
  27   2.0000      -0.911375       -24.7998
  28   2.0000      -0.871185       -23.7062
  29   2.0000      -0.848994       -23.1023
  30   2.0000      -0.844452       -22.9787
  31   2.0000      -0.811002       -22.0685
  32   2.0000      -0.782140       -21.2831
  33   2.0000      -0.771407       -20.9910
  34   2.0000      -0.714175       -19.4337
  35   2.0000      -0.707521       -19.2526
  36   2.0000      -0.699440       -19.0327
  37   2.0000      -0.665597       -18.1118
  38   2.0000      -0.640777       -17.4364
  39   2.0000      -0.626389       -17.0449
  40   2.0000      -0.597290       -16.2531
  41   2.0000      -0.577024       -15.7016
  42   2.0000      -0.566196       -15.4070
  43   2.0000      -0.556511       -15.1434
  44   2.0000      -0.525267       -14.2932
  45   2.0000      -0.523288       -14.2394
  46   2.0000      -0.517653       -14.0861
  47   2.0000      -0.514441       -13.9987
  48   2.0000      -0.506636       -13.7863
  49   2.0000      -0.504895       -13.7389
  50   2.0000      -0.494236       -13.4488
  51   2.0000      -0.474874       -12.9220
  52   2.0000      -0.468717       -12.7544
  53   2.0000      -0.464604       -12.6425
  54   2.0000      -0.454970       -12.3804
  55   2.0000      -0.452063       -12.3013
  56   2.0000      -0.449367       -12.2279
  57   2.0000      -0.441969       -12.0266
  58   2.0000      -0.439437       -11.9577
  59   2.0000      -0.437301       -11.8996
  60   2.0000      -0.426867       -11.6156
  61   2.0000      -0.414170       -11.2701
  62   2.0000      -0.411812       -11.2060
  63   2.0000      -0.347050        -9.4437
  64   2.0000      -0.330130        -8.9833
  65   2.0000      -0.326092        -8.8734
  66   2.0000      -0.288396        -7.8477
  67   0.0000       0.027033         0.7356
  68   0.0000       0.072435         1.9711
  69   0.0000       0.101268         2.7556
  70   0.0000       0.120311         3.2738
  71   0.0000       0.125181         3.4064

MULLIKEN ATOMIC CHARGES
-----------------------
   0 S :    0.100282
   1 C :   -0.130035
   2 C :   -0.052316
   3 C :    0.034479
   4 C :   -0.127173
   5 H :   -0.029070
   6 C :    0.054380
   7 H :    0.024741
   8 H :    0.026173
   9 C :   -0.054231
  10 H :    0.031326
  11 H :    0.026328
  12 C :   -0.027248
  13 H :    0.014572
  14 H :    0.035244
  15 H :    0.012336
  16 S :    0.089755
  17 C :   -0.080164
  18 C :   -0.038512
  19 C :   -0.039063
  20 C :   -0.119673
  21 H :    0.027099
  22 C :    0.046921
  23 H :    0.042367
  24 H :    0.011593
  25 C :   -0.068309
  26 H :    0.019993
  27 H :    0.015586
  28 C :   -0.045579
  29 H :    0.032005
  30 H :    0.036857
  31 H :    0.051491
  32 H :    0.037339
  33 H :    0.040510
Sum of atomic charges:    0.0000000

LOEWDIN ATOMIC CHARGES
----------------------
   0 S :    0.396266
   1 C :   -0.181635
   2 C :   -0.054332
   3 C :   -0.059000
   4 C :   -0.206911
   5 H :    0.015571
   6 C :   -0.027629
   7 H :    0.032091
   8 H :    0.031117
   9 C :   -0.021425
  10 H :    0.022872
  11 H :    0.018886
  12 C :   -0.059303
  13 H :    0.015946
  14 H :    0.026940
  15 H :    0.015487
  16 S :    0.390062
  17 C :   -0.169257
  18 C :   -0.068489
  19 C :   -0.056184
  20 C :   -0.191578
  21 H :    0.034296
  22 C :   -0.032511
  23 H :    0.037471
  24 H :    0.025946
  25 C :   -0.044237
  26 H :    0.026308
  27 H :    0.018801
  28 C :   -0.072757
  29 H :    0.029892
  30 H :    0.031048
  31 H :    0.031564
  32 H :    0.025332
  33 H :    0.019354

  Mayer bond orders larger than 0.100000
B(  0-S ,  1-C ) :   1.1062 B(  0-S ,  4-C ) :   1.1519 B(  1-C ,  2-C ) :   1.6467
B(  1-C , 32-H ) :   0.9691 B(  2-C ,  3-C ) :   1.2200 B(  2-C ,  6-C ) :   1.0174
B(  3-C ,  4-C ) :   1.5708 B(  3-C ,  5-H ) :   0.9994 B(  4-C , 20-C ) :   1.0336
B(  6-C ,  7-H ) :   0.9447 B(  6-C ,  8-H ) :   0.9416 B(  6-C ,  9-C ) :   1.0638
B(  9-C , 10-H ) :   0.9569 B(  9-C , 11-H ) :   0.9601 B(  9-C , 12-C ) :   1.0789
B( 12-C , 13-H ) :   0.9731 B( 12-C , 14-H ) :   0.9746 B( 12-C , 15-H ) :   0.9764
B( 16-S , 17-C ) :   1.1421 B( 16-S , 20-C ) :   1.1435 B( 17-C , 18-C ) :   1.6198
B( 17-C , 20-C ) :   0.1048 B( 17-C , 33-H ) :   0.9746 B( 18-C , 19-C ) :   1.2248
B( 18-C , 21-H ) :   0.9837 B( 19-C , 20-C ) :   1.5751 B( 19-C , 22-C ) :   1.0649
B( 22-C , 23-H ) :   0.9394 B( 22-C , 24-H ) :   0.9297 B( 22-C , 25-C ) :   1.0436
B( 25-C , 26-H ) :   0.9525 B( 25-C , 27-H ) :   0.9543 B( 25-C , 28-C ) :   1.0512
B( 28-C , 29-H ) :   0.9737 B( 28-C , 30-H ) :   0.9753 B( 28-C , 31-H ) :   0.9766

Dispersion correction           -0.013981538
FINAL SINGLE POINT ENERGY     -1339.869390245487

DIPOLE MOMENT
-------------
                                X             Y             Z
Electronic contribution:      1.91993      16.76173      25.99808
Nuclear contribution   :     -2.06335     -17.27590     -26.52292
                        -----------------------------------------
Total Dipole Moment    :     -0.14342      -0.51417      -0.52484
                        -----------------------------------------
Magnitude (a.u.)       :      0.74860
Magnitude (Debye)      :      1.90278

Rotational constants in cm-1:     0.016352     0.009363     0.006780
Rotational constants in MHz :   490.227310   280.694118   203.267438

                             ****ORCA TERMINATED NORMALLY****
TOTAL RUN TIME: 0 days 0 hours 0 minutes 21 seconds 694 msec
