                         Program Version 4.2.1 -  RELEASE  -
|  1> ! wB97X-D3 SP def2-SVP
|  2> %pal
|  3> nprocs 24
|  4> end
|  5>
|  6> * xyz 0 1
|  7> S 	 -104.035 	 -3.96932 	 -110.467
|  8> C 	 -105.461 	 -4.67477 	 -109.674
|  9> C 	 -105.606 	 -4.10441 	 -108.411
| 10> C 	 -104.679 	 -3.06348 	 -108.22
| 11> C 	 -103.667 	 -2.90981 	 -109.133
| 12> H 	 -104.542 	 -2.46889 	 -107.351
| 13> C 	 -106.696 	 -4.53888 	 -107.421
| 14> H 	 -106.288 	 -5.22003 	 -106.733
| 15> H 	 -107.44 	 -5.10806 	 -108.075
| 16> C 	 -107.501 	 -3.44728 	 -106.629
| 17> H 	 -107.615 	 -2.51381 	 -107.052
| 18> H 	 -108.541 	 -3.78073 	 -106.528
| 19> C 	 -106.957 	 -3.04342 	 -105.272
| 20> H 	 -106.011 	 -2.40569 	 -105.408
| 21> H 	 -107.711 	 -2.57786 	 -104.691
| 22> H 	 -106.578 	 -3.93341 	 -104.702
| 23> S 	 -102.142 	 -1.01895 	 -110.311
| 24> C 	 -100.688 	 -0.493865 	 -109.541
| 25> C 	 -100.688 	 -0.825847 	 -108.212
| 26> C 	 -101.653 	 -1.82079 	 -107.907
| 27> C 	 -102.452 	 -2.12322 	 -108.993
| 28> H 	 -99.9045 	 -0.461885 	 -107.608
| 29> C 	 -101.72 	 -2.41862 	 -106.532
| 30> H 	 -100.884 	 -3.02771 	 -106.327
| 31> H 	 -102.53 	 -3.10352 	 -106.561
| 32> C 	 -101.986 	 -1.4204 	 -105.396
| 33> H 	 -102.88 	 -0.855424 	 -105.561
| 34> H 	 -101.089 	 -0.666441 	 -105.459
| 35> C 	 -101.767 	 -2.04757 	 -103.977
| 36> H 	 -102.386 	 -2.93644 	 -103.882
| 37> H 	 -102.019 	 -1.39171 	 -103.134
| 38> H 	 -100.748 	 -2.32981 	 -103.695
| 39> H 	 -106.073 	 -5.3797 	 -110.215
| 40> H 	 -99.9457 	 0.0814213 	 -109.994
| 41> *
| 42>
| 43>                          ****END OF INPUT****

CARTESIAN COORDINATES (ANGSTROEM)
---------------------------------
  S    -104.035000   -3.969320  -110.467000
  C    -105.461000   -4.674770  -109.674000
  C    -105.606000   -4.104410  -108.411000
  C    -104.679000   -3.063480  -108.220000
  C    -103.667000   -2.909810  -109.133000
  H    -104.542000   -2.468890  -107.351000
  C    -106.696000   -4.538880  -107.421000
  H    -106.288000   -5.220030  -106.733000
  H    -107.440000   -5.108060  -108.075000
  C    -107.501000   -3.447280  -106.629000
  H    -107.615000   -2.513810  -107.052000
  H    -108.541000   -3.780730  -106.528000
  C    -106.957000   -3.043420  -105.272000
  H    -106.011000   -2.405690  -105.408000
  H    -107.711000   -2.577860  -104.691000
  H    -106.578000   -3.933410  -104.702000
  S    -102.142000   -1.018950  -110.311000
  C    -100.688000   -0.493865  -109.541000
  C    -100.688000   -0.825847  -108.212000
  C    -101.653000   -1.820790  -107.907000
  C    -102.452000   -2.123220  -108.993000
  H    -99.904500   -0.461885  -107.608000
  C    -101.720000   -2.418620  -106.532000
  H    -100.884000   -3.027710  -106.327000
  H    -102.530000   -3.103520  -106.561000
  C    -101.986000   -1.420400  -105.396000
  H    -102.880000   -0.855424  -105.561000
  H    -101.089000   -0.666441  -105.459000
  C    -101.767000   -2.047570  -103.977000
  H    -102.386000   -2.936440  -103.882000
  H    -102.019000   -1.391710  -103.134000
  H    -100.748000   -2.329810  -103.695000
  H    -106.073000   -5.379700  -110.215000
  H    -99.945700    0.081421  -109.994000

 Total Charge           Charge          ....    0
 Multiplicity           Mult            ....    1
 Number of Electrons    NEL             ....  134
 Basis Dimension        Dim             ....  322

ORBITAL ENERGIES
----------------

  NO   OCC          E(Eh)            E(eV)
   0   2.0000     -88.962130     -2420.7826
   1   2.0000     -88.961387     -2420.7624
   2   2.0000     -10.325857      -280.9809
   3   2.0000     -10.325579      -280.9733
   4   2.0000     -10.318854      -280.7903
   5   2.0000     -10.310888      -280.5735
   6   2.0000     -10.305461      -280.4258
   7   2.0000     -10.303348      -280.3683
   8   2.0000     -10.300680      -280.2957
   9   2.0000     -10.299531      -280.2645
  10   2.0000     -10.288058      -279.9523
  11   2.0000     -10.287187      -279.9286
  12   2.0000     -10.284135      -279.8456
  13   2.0000     -10.284009      -279.8421
  14   2.0000     -10.283469      -279.8274
  15   2.0000     -10.283136      -279.8183
  16   2.0000      -8.077825      -219.8088
  17   2.0000      -8.076039      -219.7602
  18   2.0000      -6.036186      -164.2530
  19   2.0000      -6.034461      -164.2060
  20   2.0000      -6.032400      -164.1500
  21   2.0000      -6.030428      -164.0963
  22   2.0000      -6.028471      -164.0430
  23   2.0000      -6.026996      -164.0029
  24   2.0000      -1.011304       -27.5190
  25   2.0000      -0.987704       -26.8768
  26   2.0000      -0.911331       -24.7986
  27   2.0000      -0.908481       -24.7210
  28   2.0000      -0.874305       -23.7910
  29   2.0000      -0.851031       -23.1577
  30   2.0000      -0.844553       -22.9815
  31   2.0000      -0.819098       -22.2888
  32   2.0000      -0.785738       -21.3810
  33   2.0000      -0.774075       -21.0637
  34   2.0000      -0.709247       -19.2996
  35   2.0000      -0.703428       -19.1413
  36   2.0000      -0.697861       -18.9898
  37   2.0000      -0.664750       -18.0888
  38   2.0000      -0.649053       -17.6616
  39   2.0000      -0.621465       -16.9109
  40   2.0000      -0.602355       -16.3909
  41   2.0000      -0.574033       -15.6202
  42   2.0000      -0.566057       -15.4032
  43   2.0000      -0.549057       -14.9406
  44   2.0000      -0.533184       -14.5087
  45   2.0000      -0.527396       -14.3512
  46   2.0000      -0.521711       -14.1965
  47   2.0000      -0.519811       -14.1448
  48   2.0000      -0.509209       -13.8563
  49   2.0000      -0.504597       -13.7308
  50   2.0000      -0.493195       -13.4205
  51   2.0000      -0.487358       -13.2617
  52   2.0000      -0.465535       -12.6678
  53   2.0000      -0.463020       -12.5994
  54   2.0000      -0.461801       -12.5662
  55   2.0000      -0.454499       -12.3675
  56   2.0000      -0.446158       -12.1406
  57   2.0000      -0.439619       -11.9626
  58   2.0000      -0.434331       -11.8188
  59   2.0000      -0.427184       -11.6243
  60   2.0000      -0.418247       -11.3811
  61   2.0000      -0.411205       -11.1895
  62   2.0000      -0.406400       -11.0587
  63   2.0000      -0.343378        -9.3438
  64   2.0000      -0.331157        -9.0112
  65   2.0000      -0.329332        -8.9616
  66   2.0000      -0.295253        -8.0342
  67   0.0000       0.024906         0.6777
  68   0.0000       0.074817         2.0359
  69   0.0000       0.106626         2.9014
  70   0.0000       0.119015         3.2386
  71   0.0000       0.129728         3.5301

MULLIKEN ATOMIC CHARGES
-----------------------
   0 S :    0.096808
   1 C :   -0.139611
   2 C :   -0.060042
   3 C :    0.048952
   4 C :   -0.163859
   5 H :   -0.023521
   6 C :    0.074402
   7 H :    0.034365
   8 H :    0.033007
   9 C :   -0.052262
  10 H :    0.016009
  11 H :    0.027845
  12 C :   -0.083706
  13 H :    0.042221
  14 H :    0.037690
  15 H :    0.026313
  16 S :    0.102527
  17 C :   -0.060869
  18 C :   -0.028759
  19 C :   -0.040705
  20 C :   -0.132694
  21 H :    0.006755
  22 C :    0.123839
  23 H :    0.019539
  24 H :   -0.002813
  25 C :   -0.114334
  26 H :    0.038824
  27 H :    0.037190
  28 C :   -0.046688
  29 H :    0.028007
  30 H :    0.035132
  31 H :    0.032646
  32 H :    0.054492
  33 H :    0.033300
Sum of atomic charges:   -0.0000000

LOEWDIN ATOMIC CHARGES
----------------------
   0 S :    0.396204
   1 C :   -0.183191
   2 C :   -0.062923
   3 C :   -0.068797
   4 C :   -0.201752
   5 H :    0.020782
   6 C :   -0.022602
   7 H :    0.026173
   8 H :    0.041040
   9 C :   -0.044384
  10 H :    0.018221
  11 H :    0.028921
  12 C :   -0.067456
  13 H :    0.029719
  14 H :    0.022806
  15 H :    0.022738
  16 S :    0.413232
  17 C :   -0.169238
  18 C :   -0.064424
  19 C :   -0.049768
  20 C :   -0.197525
  21 H :    0.025123
  22 C :   -0.029210
  23 H :    0.028392
  24 H :    0.020718
  25 C :   -0.036457
  26 H :    0.021627
  27 H :    0.031403
  28 C :   -0.071584
  29 H :    0.021511
  30 H :    0.029422
  31 H :    0.027790
  32 H :    0.026864
  33 H :    0.016627

  Mayer bond orders larger than 0.100000
B(  0-S ,  1-C ) :   1.1501 B(  0-S ,  4-C ) :   1.1542 B(  1-C ,  2-C ) :   1.5710
B(  1-C ,  4-C ) :   0.1071 B(  1-C , 32-H ) :   0.9759 B(  2-C ,  3-C ) :   1.2574
B(  2-C ,  6-C ) :   1.0127 B(  3-C ,  4-C ) :   1.5714 B(  3-C ,  5-H ) :   0.9951
B(  4-C , 20-C ) :   1.0241 B(  6-C ,  7-H ) :   0.9414 B(  6-C ,  8-H ) :   0.9465
B(  6-C ,  9-C ) :   1.0525 B(  9-C , 10-H ) :   0.9615 B(  9-C , 11-H ) :   0.9590
B(  9-C , 12-C ) :   1.0736 B( 12-C , 13-H ) :   0.9774 B( 12-C , 14-H ) :   0.9712
B( 12-C , 15-H ) :   0.9754 B( 16-S , 17-C ) :   1.1591 B( 16-S , 20-C ) :   1.1479
B( 17-C , 18-C ) :   1.6108 B( 17-C , 33-H ) :   0.9768 B( 18-C , 19-C ) :   1.2195
B( 18-C , 21-H ) :   0.9991 B( 19-C , 20-C ) :   1.6010 B( 19-C , 22-C ) :   1.0452
B( 22-C , 23-H ) :   0.9299 B( 22-C , 24-H ) :   0.9218 B( 22-C , 25-C ) :   1.0531
B( 25-C , 26-H ) :   0.9603 B( 25-C , 27-H ) :   0.9580 B( 25-C , 28-C ) :   1.0653
B( 28-C , 29-H ) :   0.9763 B( 28-C , 30-H ) :   0.9750 B( 28-C , 31-H ) :   0.9757

Dispersion correction           -0.014277555
FINAL SINGLE POINT ENERGY     -1339.859573739701

DIPOLE MOMENT
-------------
                                X             Y             Z
Electronic contribution:      8.52585       1.14936     -31.29070
Nuclear contribution   :     -8.62765      -1.14649      32.04358
                        -----------------------------------------
Total Dipole Moment    :     -0.10180       0.00287       0.75288
                        -----------------------------------------
Magnitude (a.u.)       :      0.75974
Magnitude (Debye)      :      1.93110

Rotational constants in cm-1:     0.015315     0.010520     0.006846
Rotational constants in MHz :   459.131435   315.380725   205.232816

                             ****ORCA TERMINATED NORMALLY****
TOTAL RUN TIME: 0 days 0 hours 0 minutes 22 seconds 88 msec
