                         Program Version 4.2.1 -  RELEASE  -
|  1> ! wB97X-D3 SP def2-SVP
|  2> %pal
|  3> nprocs 24
|  4> end
|  5>
|  6> * xyz 0 1
|  7> S 	 -55.5405 	 4.44511 	 -100.438
|  8> C 	 -57.2551 	 4.54186 	 -100.619
|  9> C 	 -57.7763 	 5.68013 	 -99.9543
| 10> C 	 -56.7649 	 6.42977 	 -99.2884
| 11> C 	 -55.4945 	 5.84466 	 -99.3808
| 12> H 	 -56.9679 	 7.30551 	 -98.6799
| 13> C 	 -59.2412 	 5.95817 	 -99.9397
| 14> H 	 -59.4321 	 6.65044 	 -99.0267
| 15> H 	 -59.8386 	 4.99011 	 -99.6516
| 16> C 	 -59.744 	 6.55786 	 -101.312
| 17> H 	 -59.1253 	 7.4153 	 -101.563
| 18> H 	 -59.6627 	 5.87452 	 -102.155
| 19> C 	 -61.1358 	 7.07713 	 -101.346
| 20> H 	 -61.1948 	 7.88546 	 -102.093
| 21> H 	 -61.754 	 6.23022 	 -101.674
| 22> H 	 -61.4446 	 7.36957 	 -100.362
| 23> S 	 -53.4925 	 5.2111 	 -97.5292
| 24> C 	 -52.339 	 6.41226 	 -97.0343
| 25> C 	 -52.7768 	 7.66094 	 -97.4765
| 26> C 	 -53.8528 	 7.64407 	 -98.4033
| 27> C 	 -54.3064 	 6.34001 	 -98.644
| 28> H 	 -52.3444 	 8.5631 	 -97.1093
| 29> C 	 -54.3557 	 8.97388 	 -99.0499
| 30> H 	 -54.4135 	 9.84776 	 -98.3767
| 31> H 	 -55.3814 	 8.79018 	 -99.3778
| 32> C 	 -53.5158 	 9.29126 	 -100.243
| 33> H 	 -53.2911 	 8.35111 	 -100.822
| 34> H 	 -52.4748 	 9.60765 	 -99.8893
| 35> C 	 -54.2494 	 10.3438 	 -101.14
| 36> H 	 -54.7006 	 11.2666 	 -100.627
| 37> H 	 -54.9621 	 9.76497 	 -101.714
| 38> H 	 -53.4346 	 10.6636 	 -101.795
| 39> H 	 -57.7955 	 3.82987 	 -101.142
| 40> H 	 -51.6304 	 6.25339 	 -96.231
| 41> *
| 42>
| 43>                          ****END OF INPUT****

CARTESIAN COORDINATES (ANGSTROEM)
---------------------------------
  S    -55.540500    4.445110  -100.438000
  C    -57.255100    4.541860  -100.619000
  C    -57.776300    5.680130  -99.954300
  C    -56.764900    6.429770  -99.288400
  C    -55.494500    5.844660  -99.380800
  H    -56.967900    7.305510  -98.679900
  C    -59.241200    5.958170  -99.939700
  H    -59.432100    6.650440  -99.026700
  H    -59.838600    4.990110  -99.651600
  C    -59.744000    6.557860  -101.312000
  H    -59.125300    7.415300  -101.563000
  H    -59.662700    5.874520  -102.155000
  C    -61.135800    7.077130  -101.346000
  H    -61.194800    7.885460  -102.093000
  H    -61.754000    6.230220  -101.674000
  H    -61.444600    7.369570  -100.362000
  S    -53.492500    5.211100  -97.529200
  C    -52.339000    6.412260  -97.034300
  C    -52.776800    7.660940  -97.476500
  C    -53.852800    7.644070  -98.403300
  C    -54.306400    6.340010  -98.644000
  H    -52.344400    8.563100  -97.109300
  C    -54.355700    8.973880  -99.049900
  H    -54.413500    9.847760  -98.376700
  H    -55.381400    8.790180  -99.377800
  C    -53.515800    9.291260  -100.243000
  H    -53.291100    8.351110  -100.822000
  H    -52.474800    9.607650  -99.889300
  C    -54.249400   10.343800  -101.140000
  H    -54.700600   11.266600  -100.627000
  H    -54.962100    9.764970  -101.714000
  H    -53.434600   10.663600  -101.795000
  H    -57.795500    3.829870  -101.142000
  H    -51.630400    6.253390  -96.231000

 Total Charge           Charge          ....    0
 Multiplicity           Mult            ....    1
 Number of Electrons    NEL             ....  134
 Basis Dimension        Dim             ....  322

ORBITAL ENERGIES
----------------

  NO   OCC          E(Eh)            E(eV)
   0   2.0000     -88.970205     -2421.0024
   1   2.0000     -88.964002     -2420.8336
   2   2.0000     -10.333513      -281.1892
   3   2.0000     -10.331963      -281.1470
   4   2.0000     -10.317272      -280.7472
   5   2.0000     -10.310950      -280.5752
   6   2.0000     -10.309542      -280.5369
   7   2.0000     -10.305821      -280.4356
   8   2.0000     -10.302940      -280.3573
   9   2.0000     -10.297729      -280.2155
  10   2.0000     -10.292783      -280.0809
  11   2.0000     -10.291292      -280.0403
  12   2.0000     -10.290790      -280.0266
  13   2.0000     -10.284635      -279.8592
  14   2.0000     -10.284394      -279.8526
  15   2.0000     -10.274197      -279.5751
  16   2.0000      -8.084818      -219.9991
  17   2.0000      -8.078476      -219.8265
  18   2.0000      -6.043186      -164.4435
  19   2.0000      -6.039144      -164.3335
  20   2.0000      -6.036932      -164.2733
  21   2.0000      -6.035950      -164.2466
  22   2.0000      -6.033059      -164.1679
  23   2.0000      -6.029254      -164.0643
  24   2.0000      -1.001972       -27.2650
  25   2.0000      -0.982195       -26.7269
  26   2.0000      -0.909905       -24.7598
  27   2.0000      -0.908641       -24.7254
  28   2.0000      -0.866720       -23.5847
  29   2.0000      -0.856253       -23.2998
  30   2.0000      -0.843024       -22.9398
  31   2.0000      -0.810979       -22.0679
  32   2.0000      -0.778205       -21.1760
  33   2.0000      -0.764979       -20.8161
  34   2.0000      -0.699635       -19.0380
  35   2.0000      -0.693967       -18.8838
  36   2.0000      -0.686849       -18.6901
  37   2.0000      -0.660530       -17.9739
  38   2.0000      -0.644382       -17.5345
  39   2.0000      -0.617080       -16.7916
  40   2.0000      -0.595773       -16.2118
  41   2.0000      -0.567634       -15.4461
  42   2.0000      -0.563683       -15.3386
  43   2.0000      -0.559730       -15.2310
  44   2.0000      -0.532034       -14.4774
  45   2.0000      -0.523846       -14.2546
  46   2.0000      -0.515841       -14.0368
  47   2.0000      -0.508855       -13.8467
  48   2.0000      -0.504668       -13.7327
  49   2.0000      -0.497418       -13.5354
  50   2.0000      -0.489561       -13.3216
  51   2.0000      -0.484188       -13.1754
  52   2.0000      -0.470521       -12.8035
  53   2.0000      -0.462807       -12.5936
  54   2.0000      -0.456645       -12.4259
  55   2.0000      -0.448496       -12.2042
  56   2.0000      -0.443938       -12.0802
  57   2.0000      -0.436996       -11.8913
  58   2.0000      -0.433614       -11.7992
  59   2.0000      -0.422787       -11.5046
  60   2.0000      -0.413870       -11.2620
  61   2.0000      -0.410960       -11.1828
  62   2.0000      -0.408922       -11.1273
  63   2.0000      -0.345321        -9.3967
  64   2.0000      -0.330032        -8.9806
  65   2.0000      -0.327495        -8.9116
  66   2.0000      -0.289551        -7.8791
  67   0.0000       0.024741         0.6732
  68   0.0000       0.067469         1.8359
  69   0.0000       0.108746         2.9591
  70   0.0000       0.120011         3.2657
  71   0.0000       0.126683         3.4472

MULLIKEN ATOMIC CHARGES
-----------------------
   0 S :    0.129406
   1 C :   -0.098424
   2 C :   -0.073956
   3 C :    0.038250
   4 C :   -0.170301
   5 H :    0.023423
   6 C :   -0.014301
   7 H :    0.037350
   8 H :    0.052667
   9 C :   -0.081963
  10 H :    0.024844
  11 H :    0.027265
  12 C :   -0.018302
  13 H :    0.038823
  14 H :    0.028259
  15 H :    0.022428
  16 S :    0.100165
  17 C :   -0.087143
  18 C :   -0.031694
  19 C :   -0.049075
  20 C :   -0.154103
  21 H :    0.007390
  22 C :    0.092507
  23 H :    0.033718
  24 H :    0.002324
  25 C :   -0.130812
  26 H :    0.049105
  27 H :    0.031752
  28 C :   -0.053943
  29 H :    0.051833
  30 H :    0.045490
  31 H :    0.036869
  32 H :    0.025484
  33 H :    0.064661
Sum of atomic charges:    0.0000000

LOEWDIN ATOMIC CHARGES
----------------------
   0 S :    0.427386
   1 C :   -0.193508
   2 C :   -0.065780
   3 C :   -0.060354
   4 C :   -0.203491
   5 H :    0.032844
   6 C :   -0.046285
   7 H :    0.036710
   8 H :    0.041529
   9 C :   -0.045764
  10 H :    0.023664
  11 H :    0.023996
  12 C :   -0.063207
  13 H :    0.031087
  14 H :    0.026565
  15 H :    0.019713
  16 S :    0.402649
  17 C :   -0.192276
  18 C :   -0.068805
  19 C :   -0.052543
  20 C :   -0.192767
  21 H :    0.024483
  22 C :   -0.033179
  23 H :    0.032408
  24 H :    0.023672
  25 C :   -0.048871
  26 H :    0.033923
  27 H :    0.023860
  28 C :   -0.071658
  29 H :    0.034722
  30 H :    0.027490
  31 H :    0.028654
  32 H :    0.012265
  33 H :    0.030869

  Mayer bond orders larger than 0.100000
B(  0-S ,  1-C ) :   1.1623 B(  0-S ,  4-C ) :   1.1735 B(  1-C ,  2-C ) :   1.5440
B(  1-C ,  4-C ) :   0.1053 B(  1-C , 32-H ) :   0.9831 B(  2-C ,  3-C ) :   1.2985
B(  2-C ,  6-C ) :   1.0280 B(  3-C ,  4-C ) :   1.5227 B(  3-C ,  5-H ) :   0.9845
B(  4-C , 20-C ) :   1.0328 B(  6-C ,  7-H ) :   0.9437 B(  6-C ,  8-H ) :   0.9432
B(  6-C ,  9-C ) :   1.0483 B(  9-C , 10-H ) :   0.9613 B(  9-C , 11-H ) :   0.9596
B(  9-C , 12-C ) :   1.0836 B( 12-C , 13-H ) :   0.9765 B( 12-C , 14-H ) :   0.9767
B( 12-C , 15-H ) :   0.9733 B( 16-S , 17-C ) :   1.1630 B( 16-S , 20-C ) :   1.1557
B( 17-C , 18-C ) :   1.5719 B( 17-C , 20-C ) :   0.1079 B( 17-C , 33-H ) :   0.9689
B( 18-C , 19-C ) :   1.2755 B( 18-C , 21-H ) :   0.9911 B( 19-C , 20-C ) :   1.5708
B( 19-C , 22-C ) :   1.0285 B( 22-C , 23-H ) :   0.9383 B( 22-C , 24-H ) :   0.9311
B( 22-C , 25-C ) :   1.0625 B( 25-C , 26-H ) :   0.9550 B( 25-C , 27-H ) :   0.9571
B( 25-C , 28-C ) :   1.0600 B( 28-C , 29-H ) :   0.9742 B( 28-C , 30-H ) :   0.9760
B( 28-C , 31-H ) :   0.9750

Dispersion correction           -0.013766235
FINAL SINGLE POINT ENERGY     -1339.871898015469

DIPOLE MOMENT
-------------
                                X             Y             Z
Electronic contribution:     17.35531     -21.11228      11.40891
Nuclear contribution   :    -17.75421      21.63474     -11.41080
                        -----------------------------------------
Total Dipole Moment    :     -0.39890       0.52246      -0.00189
                        -----------------------------------------
Magnitude (a.u.)       :      0.65733
Magnitude (Debye)      :      1.67081

Rotational constants in cm-1:     0.018299     0.008186     0.006400
Rotational constants in MHz :   548.597465   245.396175   191.868194

                             ****ORCA TERMINATED NORMALLY****
TOTAL RUN TIME: 0 days 0 hours 0 minutes 21 seconds 28 msec
