                         Program Version 4.2.1 -  RELEASE  -
|  1> ! wB97X-D3 SP def2-SVP
|  2> %pal
|  3> nprocs 24
|  4> end
|  5>
|  6> * xyz 0 1
|  7> S 	 22.0239 	 0.035604 	 -108.289
|  8> C 	 20.3598 	 -0.560206 	 -108.13
|  9> C 	 19.9992 	 -1.32588 	 -109.229
| 10> C 	 20.9721 	 -1.34425 	 -110.271
| 11> C 	 22.0998 	 -0.594925 	 -109.958
| 12> H 	 20.858 	 -1.87783 	 -111.159
| 13> C 	 18.6929 	 -1.98669 	 -109.463
| 14> H 	 18.3345 	 -1.91034 	 -110.518
| 15> H 	 17.8724 	 -1.45037 	 -108.84
| 16> C 	 18.6847 	 -3.50156 	 -109.177
| 17> H 	 17.7259 	 -3.87988 	 -109.598
| 18> H 	 19.5796 	 -3.94724 	 -109.636
| 19> C 	 18.586 	 -3.80368 	 -107.673
| 20> H 	 18.5527 	 -4.80195 	 -107.275
| 21> H 	 19.4671 	 -3.39007 	 -107.067
| 22> H 	 17.6886 	 -3.30267 	 -107.316
| 23> S 	 23.8016 	 1.56844 	 -110.503
| 24> C 	 24.8848 	 1.48451 	 -111.847
| 25> C 	 24.8738 	 0.247506 	 -112.485
| 26> C 	 23.8933 	 -0.646056 	 -111.896
| 27> C 	 23.1433 	 -0.0418812 	 -110.862
| 28> H 	 25.5025 	 -0.0469313 	 -113.294
| 29> C 	 23.9152 	 -2.08699 	 -112.344
| 30> H 	 23.7163 	 -2.6645 	 -111.411
| 31> H 	 24.929 	 -2.419 	 -112.673
| 32> C 	 22.9692 	 -2.38044 	 -113.539
| 33> H 	 23.2286 	 -1.79148 	 -114.409
| 34> H 	 21.9647 	 -2.1339 	 -113.154
| 35> C 	 22.9241 	 -3.92694 	 -113.882
| 36> H 	 22.2216 	 -4.59969 	 -113.328
| 37> H 	 23.8592 	 -4.40536 	 -113.782
| 38> H 	 22.5885 	 -4.02615 	 -114.897
| 39> H 	 19.7808 	 -0.519871 	 -107.25
| 40> H 	 25.4272 	 2.32259 	 -112.109
| 41> *
| 42>
| 43>                          ****END OF INPUT****

CARTESIAN COORDINATES (ANGSTROEM)
---------------------------------
  S     22.023900    0.035604  -108.289000
  C     20.359800   -0.560206  -108.130000
  C     19.999200   -1.325880  -109.229000
  C     20.972100   -1.344250  -110.271000
  C     22.099800   -0.594925  -109.958000
  H     20.858000   -1.877830  -111.159000
  C     18.692900   -1.986690  -109.463000
  H     18.334500   -1.910340  -110.518000
  H     17.872400   -1.450370  -108.840000
  C     18.684700   -3.501560  -109.177000
  H     17.725900   -3.879880  -109.598000
  H     19.579600   -3.947240  -109.636000
  C     18.586000   -3.803680  -107.673000
  H     18.552700   -4.801950  -107.275000
  H     19.467100   -3.390070  -107.067000
  H     17.688600   -3.302670  -107.316000
  S     23.801600    1.568440  -110.503000
  C     24.884800    1.484510  -111.847000
  C     24.873800    0.247506  -112.485000
  C     23.893300   -0.646056  -111.896000
  C     23.143300   -0.041881  -110.862000
  H     25.502500   -0.046931  -113.294000
  C     23.915200   -2.086990  -112.344000
  H     23.716300   -2.664500  -111.411000
  H     24.929000   -2.419000  -112.673000
  C     22.969200   -2.380440  -113.539000
  H     23.228600   -1.791480  -114.409000
  H     21.964700   -2.133900  -113.154000
  C     22.924100   -3.926940  -113.882000
  H     22.221600   -4.599690  -113.328000
  H     23.859200   -4.405360  -113.782000
  H     22.588500   -4.026150  -114.897000
  H     19.780800   -0.519871  -107.250000
  H     25.427200    2.322590  -112.109000

 Total Charge           Charge          ....    0
 Multiplicity           Mult            ....    1
 Number of Electrons    NEL             ....  134
 Basis Dimension        Dim             ....  322

ORBITAL ENERGIES
----------------

  NO   OCC          E(Eh)            E(eV)
   0   2.0000     -88.967907     -2420.9398
   1   2.0000     -88.967219     -2420.9211
   2   2.0000     -10.338208      -281.3169
   3   2.0000     -10.334282      -281.2101
   4   2.0000     -10.314776      -280.6793
   5   2.0000     -10.314277      -280.6658
   6   2.0000     -10.306424      -280.4520
   7   2.0000     -10.300604      -280.2937
   8   2.0000     -10.299654      -280.2678
   9   2.0000     -10.297318      -280.2043
  10   2.0000     -10.296006      -280.1686
  11   2.0000     -10.295986      -280.1680
  12   2.0000     -10.294112      -280.1170
  13   2.0000     -10.293290      -280.0947
  14   2.0000     -10.279212      -279.7116
  15   2.0000     -10.279057      -279.7074
  16   2.0000      -8.081871      -219.9189
  17   2.0000      -8.081694      -219.9141
  18   2.0000      -6.040381      -164.3671
  19   2.0000      -6.040332      -164.3658
  20   2.0000      -6.036437      -164.2598
  21   2.0000      -6.036342      -164.2572
  22   2.0000      -6.032684      -164.1577
  23   2.0000      -6.032270      -164.1464
  24   2.0000      -1.001062       -27.2403
  25   2.0000      -0.980405       -26.6782
  26   2.0000      -0.912055       -24.8183
  27   2.0000      -0.905539       -24.6410
  28   2.0000      -0.863428       -23.4951
  29   2.0000      -0.851065       -23.1586
  30   2.0000      -0.844750       -22.9868
  31   2.0000      -0.812406       -22.1067
  32   2.0000      -0.780682       -21.2434
  33   2.0000      -0.771965       -21.0062
  34   2.0000      -0.708783       -19.2870
  35   2.0000      -0.697505       -18.9801
  36   2.0000      -0.695596       -18.9281
  37   2.0000      -0.666531       -18.1372
  38   2.0000      -0.642346       -17.4791
  39   2.0000      -0.623799       -16.9744
  40   2.0000      -0.598586       -16.2884
  41   2.0000      -0.572372       -15.5750
  42   2.0000      -0.564425       -15.3588
  43   2.0000      -0.548424       -14.9234
  44   2.0000      -0.538587       -14.6557
  45   2.0000      -0.526624       -14.3302
  46   2.0000      -0.513078       -13.9616
  47   2.0000      -0.510894       -13.9021
  48   2.0000      -0.503008       -13.6875
  49   2.0000      -0.498275       -13.5587
  50   2.0000      -0.493884       -13.4393
  51   2.0000      -0.477721       -12.9995
  52   2.0000      -0.473887       -12.8951
  53   2.0000      -0.461228       -12.5506
  54   2.0000      -0.455966       -12.4075
  55   2.0000      -0.450726       -12.2649
  56   2.0000      -0.444161       -12.0862
  57   2.0000      -0.437534       -11.9059
  58   2.0000      -0.431937       -11.7536
  59   2.0000      -0.426893       -11.6164
  60   2.0000      -0.418517       -11.3884
  61   2.0000      -0.417203       -11.3527
  62   2.0000      -0.412101       -11.2138
  63   2.0000      -0.355160        -9.6644
  64   2.0000      -0.331704        -9.0261
  65   2.0000      -0.329340        -8.9618
  66   2.0000      -0.284449        -7.7402
  67   0.0000       0.019672         0.5353
  68   0.0000       0.069694         1.8965
  69   0.0000       0.101334         2.7574
  70   0.0000       0.118347         3.2204
  71   0.0000       0.125882         3.4254

MULLIKEN ATOMIC CHARGES
-----------------------
   0 S :    0.088722
   1 C :   -0.096561
   2 C :   -0.063885
   3 C :    0.049701
   4 C :   -0.119055
   5 H :   -0.020571
   6 C :   -0.015702
   7 H :    0.040372
   8 H :    0.037591
   9 C :   -0.050766
  10 H :    0.037970
  11 H :    0.039050
  12 C :   -0.076820
  13 H :    0.033954
  14 H :    0.035125
  15 H :    0.019478
  16 S :    0.102714
  17 C :   -0.068027
  18 C :    0.003252
  19 C :   -0.060585
  20 C :   -0.126339
  21 H :    0.011519
  22 C :    0.012915
  23 H :    0.041714
  24 H :    0.027326
  25 C :   -0.064097
  26 H :    0.038662
  27 H :    0.031891
  28 C :   -0.040081
  29 H :    0.035164
  30 H :    0.019457
  31 H :    0.026487
  32 H :    0.033646
  33 H :    0.035781
Sum of atomic charges:   -0.0000000

LOEWDIN ATOMIC CHARGES
----------------------
   0 S :    0.376783
   1 C :   -0.182261
   2 C :   -0.063168
   3 C :   -0.054094
   4 C :   -0.167097
   5 H :    0.019532
   6 C :   -0.041011
   7 H :    0.035964
   8 H :    0.037658
   9 C :   -0.038624
  10 H :    0.029363
  11 H :    0.025604
  12 C :   -0.079063
  13 H :    0.022166
  14 H :    0.030599
  15 H :    0.021628
  16 S :    0.407746
  17 C :   -0.174610
  18 C :   -0.063096
  19 C :   -0.055071
  20 C :   -0.196558
  21 H :    0.027451
  22 C :   -0.039692
  23 H :    0.036480
  24 H :    0.030609
  25 C :   -0.031076
  26 H :    0.026126
  27 H :    0.023913
  28 C :   -0.069544
  29 H :    0.031016
  30 H :    0.016028
  31 H :    0.024147
  32 H :    0.019825
  33 H :    0.012327

  Mayer bond orders larger than 0.100000
B(  0-S ,  1-C ) :   1.1144 B(  0-S ,  4-C ) :   1.1427 B(  1-C ,  2-C ) :   1.6183
B(  1-C , 32-H ) :   0.9698 B(  2-C ,  3-C ) :   1.2418 B(  2-C ,  6-C ) :   1.0298
B(  3-C ,  4-C ) :   1.5613 B(  3-C ,  5-H ) :   1.0000 B(  4-C , 20-C ) :   1.0502
B(  6-C ,  7-H ) :   0.9455 B(  6-C ,  8-H ) :   0.9456 B(  6-C ,  9-C ) :   1.0588
B(  9-C , 10-H ) :   0.9570 B(  9-C , 11-H ) :   0.9561 B(  9-C , 12-C ) :   1.0662
B( 12-C , 13-H ) :   0.9777 B( 12-C , 14-H ) :   0.9746 B( 12-C , 15-H ) :   0.9745
B( 16-S , 17-C ) :   1.1700 B( 16-S , 20-C ) :   1.1314 B( 17-C , 18-C ) :   1.5701
B( 17-C , 33-H ) :   0.9798 B( 18-C , 19-C ) :   1.2604 B( 18-C , 21-H ) :   0.9951
B( 19-C , 20-C ) :   1.5727 B( 19-C , 22-C ) :   1.0443 B( 22-C , 23-H ) :   0.9387
B( 22-C , 24-H ) :   0.9415 B( 22-C , 25-C ) :   1.0559 B( 25-C , 26-H ) :   0.9591
B( 25-C , 27-H ) :   0.9588 B( 25-C , 28-C ) :   1.0662 B( 28-C , 29-H ) :   0.9782
B( 28-C , 30-H ) :   0.9766 B( 28-C , 31-H ) :   0.9766

Dispersion correction           -0.014163687
FINAL SINGLE POINT ENERGY     -1339.874373418033

DIPOLE MOMENT
-------------
                                X             Y             Z
Electronic contribution:     13.26580      25.53149       8.94770
Nuclear contribution   :    -13.42714     -26.01551      -9.37612
                        -----------------------------------------
Total Dipole Moment    :     -0.16134      -0.48403      -0.42841
                        -----------------------------------------
Magnitude (a.u.)       :      0.66622
Magnitude (Debye)      :      1.69340

Rotational constants in cm-1:     0.017820     0.009116     0.006357
Rotational constants in MHz :   534.239307   273.292081   190.589919

                             ****ORCA TERMINATED NORMALLY****
TOTAL RUN TIME: 0 days 0 hours 0 minutes 21 seconds 494 msec
