                         Program Version 4.2.1 -  RELEASE  -
|  1> ! wB97X-D3 SP def2-SVP
|  2> %pal
|  3> nprocs 24
|  4> end
|  5>
|  6> * xyz 0 1
|  7> S 	 -134.49 	 71.1923 	 -66.6613
|  8> C 	 -132.963 	 70.3905 	 -67.0842
|  9> C 	 -132.411 	 69.7384 	 -66.0131
| 10> C 	 -133.193 	 69.8316 	 -64.8265
| 11> C 	 -134.395 	 70.5401 	 -65.0057
| 12> H 	 -132.998 	 69.3244 	 -63.897
| 13> C 	 -130.983 	 69.2555 	 -65.9744
| 14> H 	 -130.616 	 68.955 	 -66.9328
| 15> H 	 -131.059 	 68.305 	 -65.3724
| 16> C 	 -130.07 	 70.1551 	 -65.2022
| 17> H 	 -130.339 	 70.1515 	 -64.1584
| 18> H 	 -129.019 	 69.8399 	 -65.2333
| 19> C 	 -130.097 	 71.6474 	 -65.7434
| 20> H 	 -129.357 	 72.2429 	 -65.2494
| 21> H 	 -130.058 	 71.6801 	 -66.8016
| 22> H 	 -130.98 	 72.1973 	 -65.608
| 23> S 	 -137.008 	 70.5159 	 -64.2376
| 24> C 	 -137.428 	 71.3852 	 -62.8483
| 25> C 	 -136.368 	 71.5111 	 -61.9594
| 26> C 	 -135.125 	 71.1581 	 -62.6125
| 27> C 	 -135.343 	 70.8983 	 -63.9665
| 28> H 	 -136.529 	 71.7775 	 -60.9295
| 29> C 	 -133.798 	 71.2037 	 -61.8679
| 30> H 	 -133.045 	 71.6644 	 -62.526
| 31> H 	 -133.38 	 70.2381 	 -61.9118
| 32> C 	 -133.665 	 71.7993 	 -60.5053
| 33> H 	 -132.818 	 71.3636 	 -59.9712
| 34> H 	 -134.549 	 71.5847 	 -59.923
| 35> C 	 -133.371 	 73.3346 	 -60.4712
| 36> H 	 -132.611 	 73.7069 	 -61.1516
| 37> H 	 -133.124 	 73.5154 	 -59.4076
| 38> H 	 -134.244 	 73.8711 	 -60.6238
| 39> H 	 -132.436 	 70.5616 	 -68.0216
| 40> H 	 -138.405 	 71.4125 	 -62.4918
| 41> *
| 42>
| 43>                          ****END OF INPUT****

CARTESIAN COORDINATES (ANGSTROEM)
---------------------------------
  S    -134.490000   71.192300  -66.661300
  C    -132.963000   70.390500  -67.084200
  C    -132.411000   69.738400  -66.013100
  C    -133.193000   69.831600  -64.826500
  C    -134.395000   70.540100  -65.005700
  H    -132.998000   69.324400  -63.897000
  C    -130.983000   69.255500  -65.974400
  H    -130.616000   68.955000  -66.932800
  H    -131.059000   68.305000  -65.372400
  C    -130.070000   70.155100  -65.202200
  H    -130.339000   70.151500  -64.158400
  H    -129.019000   69.839900  -65.233300
  C    -130.097000   71.647400  -65.743400
  H    -129.357000   72.242900  -65.249400
  H    -130.058000   71.680100  -66.801600
  H    -130.980000   72.197300  -65.608000
  S    -137.008000   70.515900  -64.237600
  C    -137.428000   71.385200  -62.848300
  C    -136.368000   71.511100  -61.959400
  C    -135.125000   71.158100  -62.612500
  C    -135.343000   70.898300  -63.966500
  H    -136.529000   71.777500  -60.929500
  C    -133.798000   71.203700  -61.867900
  H    -133.045000   71.664400  -62.526000
  H    -133.380000   70.238100  -61.911800
  C    -133.665000   71.799300  -60.505300
  H    -132.818000   71.363600  -59.971200
  H    -134.549000   71.584700  -59.923000
  C    -133.371000   73.334600  -60.471200
  H    -132.611000   73.706900  -61.151600
  H    -133.124000   73.515400  -59.407600
  H    -134.244000   73.871100  -60.623800
  H    -132.436000   70.561600  -68.021600
  H    -138.405000   71.412500  -62.491800

 Total Charge           Charge          ....    0
 Multiplicity           Mult            ....    1
 Number of Electrons    NEL             ....  134
 Basis Dimension        Dim             ....  322

ORBITAL ENERGIES
----------------

  NO   OCC          E(Eh)            E(eV)
   0   2.0000     -88.967010     -2420.9154
   1   2.0000     -88.963824     -2420.8287
   2   2.0000     -10.333126      -281.1786
   3   2.0000     -10.321904      -280.8733
   4   2.0000     -10.314351      -280.6678
   5   2.0000     -10.309225      -280.5283
   6   2.0000     -10.306748      -280.4609
   7   2.0000     -10.298454      -280.2352
   8   2.0000     -10.295900      -280.1657
   9   2.0000     -10.294609      -280.1306
  10   2.0000     -10.291326      -280.0412
  11   2.0000     -10.289241      -279.9845
  12   2.0000     -10.288283      -279.9584
  13   2.0000     -10.287214      -279.9293
  14   2.0000     -10.273863      -279.5660
  15   2.0000     -10.266131      -279.3556
  16   2.0000      -8.080703      -219.8871
  17   2.0000      -8.080231      -219.8743
  18   2.0000      -6.039253      -164.3364
  19   2.0000      -6.038487      -164.3156
  20   2.0000      -6.035391      -164.2313
  21   2.0000      -6.034909      -164.2182
  22   2.0000      -6.031442      -164.1239
  23   2.0000      -6.030753      -164.1051
  24   2.0000      -1.010245       -27.4902
  25   2.0000      -0.984150       -26.7801
  26   2.0000      -0.914865       -24.8948
  27   2.0000      -0.913736       -24.8640
  28   2.0000      -0.868035       -23.6204
  29   2.0000      -0.851483       -23.1700
  30   2.0000      -0.840851       -22.8807
  31   2.0000      -0.811831       -22.0910
  32   2.0000      -0.790950       -21.5228
  33   2.0000      -0.780567       -21.2403
  34   2.0000      -0.714221       -19.4349
  35   2.0000      -0.703828       -19.1521
  36   2.0000      -0.696910       -18.9639
  37   2.0000      -0.655897       -17.8479
  38   2.0000      -0.638551       -17.3759
  39   2.0000      -0.624359       -16.9897
  40   2.0000      -0.606272       -16.4975
  41   2.0000      -0.566206       -15.4073
  42   2.0000      -0.554122       -15.0784
  43   2.0000      -0.549162       -14.9434
  44   2.0000      -0.546643       -14.8749
  45   2.0000      -0.540093       -14.6967
  46   2.0000      -0.521169       -14.1817
  47   2.0000      -0.514157       -13.9909
  48   2.0000      -0.498515       -13.5653
  49   2.0000      -0.496611       -13.5135
  50   2.0000      -0.490397       -13.3444
  51   2.0000      -0.483366       -13.1531
  52   2.0000      -0.470321       -12.7981
  53   2.0000      -0.466599       -12.6968
  54   2.0000      -0.457602       -12.4520
  55   2.0000      -0.453146       -12.3307
  56   2.0000      -0.450604       -12.2616
  57   2.0000      -0.441531       -12.0147
  58   2.0000      -0.433734       -11.8025
  59   2.0000      -0.429225       -11.6798
  60   2.0000      -0.420103       -11.4316
  61   2.0000      -0.417237       -11.3536
  62   2.0000      -0.410807       -11.1786
  63   2.0000      -0.345419        -9.3993
  64   2.0000      -0.332365        -9.0441
  65   2.0000      -0.323905        -8.8139
  66   2.0000      -0.288841        -7.8598
  67   0.0000       0.020976         0.5708
  68   0.0000       0.069734         1.8976
  69   0.0000       0.103070         2.8047
  70   0.0000       0.114174         3.1068
  71   0.0000       0.128528         3.4974

MULLIKEN ATOMIC CHARGES
-----------------------
   0 S :    0.105741
   1 C :   -0.129575
   2 C :   -0.068225
   3 C :   -0.002734
   4 C :   -0.146275
   5 H :    0.011022
   6 C :    0.069340
   7 H :    0.017318
   8 H :    0.028155
   9 C :   -0.055061
  10 H :    0.022208
  11 H :    0.036025
  12 C :   -0.030094
  13 H :    0.027742
  14 H :    0.010618
  15 H :    0.023229
  16 S :    0.120229
  17 C :   -0.035366
  18 C :   -0.077696
  19 C :   -0.022477
  20 C :   -0.161670
  21 H :    0.018211
  22 C :    0.081551
  23 H :    0.020310
  24 H :    0.010890
  25 C :   -0.062355
  26 H :    0.027139
  27 H :    0.023278
  28 C :   -0.029072
  29 H :    0.039328
  30 H :    0.029637
  31 H :    0.017035
  32 H :    0.051185
  33 H :    0.030412
Sum of atomic charges:   -0.0000000

LOEWDIN ATOMIC CHARGES
----------------------
   0 S :    0.384416
   1 C :   -0.189619
   2 C :   -0.064881
   3 C :   -0.061652
   4 C :   -0.182121
   5 H :    0.028120
   6 C :   -0.032645
   7 H :    0.024077
   8 H :    0.037800
   9 C :   -0.033810
  10 H :    0.020417
  11 H :    0.028497
  12 C :   -0.063811
  13 H :    0.023356
  14 H :    0.018719
  15 H :    0.020934
  16 S :    0.440329
  17 C :   -0.191836
  18 C :   -0.072032
  19 C :   -0.038787
  20 C :   -0.215015
  21 H :    0.028786
  22 C :   -0.044139
  23 H :    0.038895
  24 H :    0.026200
  25 C :   -0.038040
  26 H :    0.029619
  27 H :    0.021942
  28 C :   -0.056830
  29 H :    0.026209
  30 H :    0.030576
  31 H :    0.013741
  32 H :    0.029339
  33 H :    0.013247

  Mayer bond orders larger than 0.100000
B(  0-S ,  1-C ) :   1.1248 B(  0-S ,  4-C ) :   1.1475 B(  1-C ,  2-C ) :   1.6224
B(  1-C , 32-H ) :   0.9649 B(  2-C ,  3-C ) :   1.2268 B(  2-C ,  6-C ) :   1.0308
B(  3-C ,  4-C ) :   1.5629 B(  3-C ,  5-H ) :   0.9946 B(  4-C , 20-C ) :   1.0622
B(  6-C ,  7-H ) :   0.9437 B(  6-C ,  8-H ) :   0.9329 B(  6-C ,  9-C ) :   1.0825
B(  9-C , 10-H ) :   0.9506 B(  9-C , 11-H ) :   0.9576 B(  9-C , 12-C ) :   1.0678
B( 12-C , 13-H ) :   0.9760 B( 12-C , 14-H ) :   0.9755 B( 12-C , 15-H ) :   0.9696
B( 16-S , 17-C ) :   1.1789 B( 16-S , 20-C ) :   1.1599 B( 17-C , 18-C ) :   1.5832
B( 17-C , 33-H ) :   0.9687 B( 18-C , 19-C ) :   1.2530 B( 18-C , 21-H ) :   0.9917
B( 19-C , 20-C ) :   1.5586 B( 19-C , 22-C ) :   1.0340 B( 22-C , 23-H ) :   0.9212
B( 22-C , 24-H ) :   0.9145 B( 22-C , 25-C ) :   1.0783 B( 25-C , 26-H ) :   0.9525
B( 25-C , 27-H ) :   0.9478 B( 25-C , 28-C ) :   1.0834 B( 28-C , 29-H ) :   0.9749
B( 28-C , 30-H ) :   0.9756 B( 28-C , 31-H ) :   0.9778

Dispersion correction           -0.015095746
FINAL SINGLE POINT ENERGY     -1339.858872748389

DIPOLE MOMENT
-------------
                                X             Y             Z
Electronic contribution:    -24.60760      -5.49442     -14.44708
Nuclear contribution   :     25.16532       5.38918      15.04223
                        -----------------------------------------
Total Dipole Moment    :      0.55772      -0.10524       0.59515
                        -----------------------------------------
Magnitude (a.u.)       :      0.82239
Magnitude (Debye)      :      2.09036

Rotational constants in cm-1:     0.017644     0.009961     0.007066
Rotational constants in MHz :   528.950428   298.628549   211.827674

                             ****ORCA TERMINATED NORMALLY****
TOTAL RUN TIME: 0 days 0 hours 0 minutes 22 seconds 554 msec
