                         Program Version 4.2.1 -  RELEASE  -
|  1> ! wB97X-D3 SP def2-SVP
|  2> %pal
|  3> nprocs 24
|  4> end
|  5>
|  6> * xyz 0 1
|  7> S 	 -47.0393 	 16.2588 	 28.9508
|  8> C 	 -46.8014 	 16.1304 	 27.2111
|  9> C 	 -46.9331 	 17.3457 	 26.5251
| 10> C 	 -47.3212 	 18.3911 	 27.4244
| 11> C 	 -47.581 	 17.9664 	 28.7339
| 12> H 	 -47.3793 	 19.4732 	 27.1792
| 13> C 	 -46.5147 	 17.6926 	 25.1423
| 14> H 	 -45.4504 	 17.7906 	 25.3476
| 15> H 	 -46.7614 	 18.6968 	 24.8602
| 16> C 	 -46.8432 	 16.6773 	 24.0357
| 17> H 	 -46.5468 	 15.6428 	 24.3323
| 18> H 	 -47.9194 	 16.6597 	 23.9659
| 19> C 	 -46.0672 	 17.0518 	 22.7082
| 20> H 	 -46.0994 	 16.238 	 22.0203
| 21> H 	 -46.4372 	 17.8914 	 22.2112
| 22> H 	 -45.0174 	 17.2004 	 22.9558
| 23> S 	 -49.5916 	 18.3179 	 30.6378
| 24> C 	 -49.7877 	 19.8082 	 31.4611
| 25> C 	 -48.6823 	 20.6306 	 31.1437
| 26> C 	 -47.7821 	 20.0254 	 30.228
| 27> C 	 -48.1598 	 18.8342 	 29.7751
| 28> H 	 -48.6997 	 21.6858 	 31.4322
| 29> C 	 -46.6605 	 20.9297 	 29.7283
| 30> H 	 -46.4135 	 21.6925 	 30.4724
| 31> H 	 -46.9912 	 21.5059 	 28.8524
| 32> C 	 -45.3024 	 20.3275 	 29.3284
| 33> H 	 -44.6736 	 21.1579 	 28.9962
| 34> H 	 -45.4278 	 19.5395 	 28.5954
| 35> C 	 -44.5584 	 19.8337 	 30.5394
| 36> H 	 -44.5472 	 20.462 	 31.3809
| 37> H 	 -43.5029 	 19.7472 	 30.2983
| 38> H 	 -45.039 	 18.8561 	 30.8615
| 39> H 	 -46.3802 	 15.3104 	 26.6643
| 40> H 	 -50.58 	 20.2811 	 32.0503
| 41> *
| 42>
| 43>                          ****END OF INPUT****

CARTESIAN COORDINATES (ANGSTROEM)
---------------------------------
  S    -47.039300   16.258800   28.950800
  C    -46.801400   16.130400   27.211100
  C    -46.933100   17.345700   26.525100
  C    -47.321200   18.391100   27.424400
  C    -47.581000   17.966400   28.733900
  H    -47.379300   19.473200   27.179200
  C    -46.514700   17.692600   25.142300
  H    -45.450400   17.790600   25.347600
  H    -46.761400   18.696800   24.860200
  C    -46.843200   16.677300   24.035700
  H    -46.546800   15.642800   24.332300
  H    -47.919400   16.659700   23.965900
  C    -46.067200   17.051800   22.708200
  H    -46.099400   16.238000   22.020300
  H    -46.437200   17.891400   22.211200
  H    -45.017400   17.200400   22.955800
  S    -49.591600   18.317900   30.637800
  C    -49.787700   19.808200   31.461100
  C    -48.682300   20.630600   31.143700
  C    -47.782100   20.025400   30.228000
  C    -48.159800   18.834200   29.775100
  H    -48.699700   21.685800   31.432200
  C    -46.660500   20.929700   29.728300
  H    -46.413500   21.692500   30.472400
  H    -46.991200   21.505900   28.852400
  C    -45.302400   20.327500   29.328400
  H    -44.673600   21.157900   28.996200
  H    -45.427800   19.539500   28.595400
  C    -44.558400   19.833700   30.539400
  H    -44.547200   20.462000   31.380900
  H    -43.502900   19.747200   30.298300
  H    -45.039000   18.856100   30.861500
  H    -46.380200   15.310400   26.664300
  H    -50.580000   20.281100   32.050300

 Total Charge           Charge          ....    0
 Multiplicity           Mult            ....    1
 Number of Electrons    NEL             ....  134
 Basis Dimension        Dim             ....  322

ORBITAL ENERGIES
----------------

  NO   OCC          E(Eh)            E(eV)
   0   2.0000     -88.973822     -2421.1008
   1   2.0000     -88.965440     -2420.8727
   2   2.0000     -10.337212      -281.2898
   3   2.0000     -10.323141      -280.9069
   4   2.0000     -10.318447      -280.7792
   5   2.0000     -10.314602      -280.6746
   6   2.0000     -10.303778      -280.3800
   7   2.0000     -10.299446      -280.2622
   8   2.0000     -10.296640      -280.1858
   9   2.0000     -10.296161      -280.1728
  10   2.0000     -10.291620      -280.0492
  11   2.0000     -10.291183      -280.0373
  12   2.0000     -10.289289      -279.9858
  13   2.0000     -10.277979      -279.6780
  14   2.0000     -10.276157      -279.6284
  15   2.0000     -10.265566      -279.3402
  16   2.0000      -8.086778      -220.0524
  17   2.0000      -8.080606      -219.8845
  18   2.0000      -6.045445      -164.5049
  19   2.0000      -6.041694      -164.4028
  20   2.0000      -6.039212      -164.3353
  21   2.0000      -6.037327      -164.2840
  22   2.0000      -6.034865      -164.2170
  23   2.0000      -6.031383      -164.1223
  24   2.0000      -1.008740       -27.4492
  25   2.0000      -0.982714       -26.7410
  26   2.0000      -0.913404       -24.8550
  27   2.0000      -0.909296       -24.7432
  28   2.0000      -0.865689       -23.5566
  29   2.0000      -0.853142       -23.2152
  30   2.0000      -0.848801       -23.0971
  31   2.0000      -0.811508       -22.0822
  32   2.0000      -0.781394       -21.2628
  33   2.0000      -0.774559       -21.0768
  34   2.0000      -0.719414       -19.5763
  35   2.0000      -0.703290       -19.1375
  36   2.0000      -0.685082       -18.6420
  37   2.0000      -0.662710       -18.0333
  38   2.0000      -0.636440       -17.3184
  39   2.0000      -0.612265       -16.6606
  40   2.0000      -0.593527       -16.1507
  41   2.0000      -0.576734       -15.6937
  42   2.0000      -0.562512       -15.3067
  43   2.0000      -0.550065       -14.9680
  44   2.0000      -0.547161       -14.8890
  45   2.0000      -0.521917       -14.2021
  46   2.0000      -0.519538       -14.1374
  47   2.0000      -0.510405       -13.8888
  48   2.0000      -0.506379       -13.7793
  49   2.0000      -0.501136       -13.6366
  50   2.0000      -0.485380       -13.2079
  51   2.0000      -0.481457       -13.1011
  52   2.0000      -0.476173       -12.9573
  53   2.0000      -0.469088       -12.7645
  54   2.0000      -0.459845       -12.5130
  55   2.0000      -0.450784       -12.2664
  56   2.0000      -0.442026       -12.0281
  57   2.0000      -0.437514       -11.9054
  58   2.0000      -0.433265       -11.7897
  59   2.0000      -0.424813       -11.5597
  60   2.0000      -0.418060       -11.3760
  61   2.0000      -0.414374       -11.2757
  62   2.0000      -0.407424       -11.0866
  63   2.0000      -0.344418        -9.3721
  64   2.0000      -0.330759        -9.0004
  65   2.0000      -0.325858        -8.8670
  66   2.0000      -0.292940        -7.9713
  67   0.0000       0.030640         0.8338
  68   0.0000       0.060161         1.6371
  69   0.0000       0.101734         2.7683
  70   0.0000       0.125304         3.4097
  71   0.0000       0.133182         3.6241

MULLIKEN ATOMIC CHARGES
-----------------------
   0 S :    0.125721
   1 C :   -0.112807
   2 C :   -0.082106
   3 C :   -0.000051
   4 C :   -0.161572
   5 H :    0.032268
   6 C :    0.061147
   7 H :    0.039584
   8 H :    0.013366
   9 C :   -0.086936
  10 H :    0.031920
  11 H :    0.039595
  12 C :   -0.015971
  13 H :    0.026572
  14 H :    0.026615
  15 H :    0.027839
  16 S :    0.121865
  17 C :   -0.088437
  18 C :   -0.079411
  19 C :    0.013976
  20 C :   -0.169123
  21 H :    0.028385
  22 C :    0.012911
  23 H :    0.016427
  24 H :    0.040198
  25 C :   -0.055886
  26 H :    0.020190
  27 H :    0.042478
  28 C :   -0.044022
  29 H :    0.008373
  30 H :    0.026650
  31 H :    0.039400
  32 H :    0.036532
  33 H :    0.064312
Sum of atomic charges:   -0.0000000

LOEWDIN ATOMIC CHARGES
----------------------
   0 S :    0.388764
   1 C :   -0.203482
   2 C :   -0.058160
   3 C :   -0.059072
   4 C :   -0.178337
   5 H :    0.037177
   6 C :   -0.036986
   7 H :    0.040888
   8 H :    0.026557
   9 C :   -0.032214
  10 H :    0.025769
  11 H :    0.025508
  12 C :   -0.055224
  13 H :    0.023483
  14 H :    0.017663
  15 H :    0.027732
  16 S :    0.426850
  17 C :   -0.204318
  18 C :   -0.076180
  19 C :   -0.065794
  20 C :   -0.203287
  21 H :    0.032243
  22 C :   -0.033214
  23 H :    0.029829
  24 H :    0.031882
  25 C :   -0.044893
  26 H :    0.025556
  27 H :    0.023078
  28 C :   -0.065487
  29 H :    0.013102
  30 H :    0.024415
  31 H :    0.031599
  32 H :    0.022671
  33 H :    0.041883

  Mayer bond orders larger than 0.100000
B(  0-S ,  1-C ) :   1.1246 B(  0-S ,  4-C ) :   1.1379 B(  1-C ,  2-C ) :   1.6129
B(  1-C , 32-H ) :   0.9635 B(  2-C ,  3-C ) :   1.2511 B(  2-C ,  6-C ) :   1.0099
B(  3-C ,  4-C ) :   1.5684 B(  3-C ,  5-H ) :   0.9831 B(  4-C , 20-C ) :   1.0407
B(  6-C ,  7-H ) :   0.9302 B(  6-C ,  8-H ) :   0.9449 B(  6-C ,  9-C ) :   1.0505
B(  9-C , 10-H ) :   0.9573 B(  9-C , 11-H ) :   0.9630 B(  9-C , 12-C ) :   1.0709
B( 12-C , 13-H ) :   0.9763 B( 12-C , 14-H ) :   0.9781 B( 12-C , 15-H ) :   0.9768
B( 16-S , 17-C ) :   1.1707 B( 16-S , 20-C ) :   1.1216 B( 17-C , 18-C ) :   1.5998
B( 17-C , 33-H ) :   0.9640 B( 18-C , 19-C ) :   1.2490 B( 18-C , 21-H ) :   0.9842
B( 19-C , 20-C ) :   1.6213 B( 19-C , 22-C ) :   1.0276 B( 22-C , 23-H ) :   0.9381
B( 22-C , 24-H ) :   0.9364 B( 22-C , 25-C ) :   1.0852 B( 25-C , 26-H ) :   0.9490
B( 25-C , 27-H ) :   0.9462 B( 25-C , 28-C ) :   1.0891 B( 28-C , 29-H ) :   0.9727
B( 28-C , 30-H ) :   0.9752 B( 28-C , 31-H ) :   0.9731

Dispersion correction           -0.014899929
FINAL SINGLE POINT ENERGY     -1339.862113538423

DIPOLE MOMENT
-------------
                                X             Y             Z
Electronic contribution:    -16.77063      -8.51222      18.86408
Nuclear contribution   :     17.10932       9.10284     -19.46840
                        -----------------------------------------
Total Dipole Moment    :      0.33868       0.59062      -0.60432
                        -----------------------------------------
Magnitude (a.u.)       :      0.91036
Magnitude (Debye)      :      2.31394

Rotational constants in cm-1:     0.021783     0.007714     0.006871
Rotational constants in MHz :   653.044197   231.245246   205.992093

                             ****ORCA TERMINATED NORMALLY****
TOTAL RUN TIME: 0 days 0 hours 0 minutes 20 seconds 949 msec
