                         Program Version 4.2.1 -  RELEASE  -
|  1> ! wB97X-D3 SP def2-SVP
|  2> %pal
|  3> nprocs 24
|  4> end
|  5>
|  6> * xyz 0 1
|  7> S 	 -120.647 	 13.3774 	 -11.1081
|  8> C 	 -121.14 	 13.2197 	 -9.4635
|  9> C 	 -120.688 	 12.0058 	 -8.94513
| 10> C 	 -119.668 	 11.4061 	 -9.76977
| 11> C 	 -119.65 	 11.9359 	 -11.0106
| 12> H 	 -118.988 	 10.6254 	 -9.50724
| 13> C 	 -120.995 	 11.5675 	 -7.53952
| 14> H 	 -120.783 	 10.577 	 -7.33716
| 15> H 	 -122.031 	 11.7311 	 -7.36476
| 16> C 	 -120.155 	 12.3601 	 -6.48807
| 17> H 	 -119.072 	 12.0969 	 -6.40603
| 18> H 	 -120.177 	 13.3802 	 -6.81987
| 19> C 	 -120.742 	 12.4231 	 -5.06552
| 20> H 	 -120.019 	 12.915 	 -4.42587
| 21> H 	 -121.774 	 12.8353 	 -4.97063
| 22> H 	 -120.818 	 11.3937 	 -4.69225
| 23> S 	 -117.785 	 12.9165 	 -12.7906
| 24> C 	 -116.78 	 11.8665 	 -13.7461
| 25> C 	 -117.062 	 10.5917 	 -13.4494
| 26> C 	 -118.114 	 10.4075 	 -12.4505
| 27> C 	 -118.654 	 11.6095 	 -12.0363
| 28> H 	 -116.549 	 9.86962 	 -13.993
| 29> C 	 -118.652 	 9.0777 	 -12.135
| 30> H 	 -118.762 	 8.98141 	 -11.0328
| 31> H 	 -117.836 	 8.40474 	 -12.4154
| 32> C 	 -120.043 	 8.67498 	 -12.7205
| 33> H 	 -120.032 	 7.61349 	 -12.6122
| 34> H 	 -120.024 	 8.84892 	 -13.8106
| 35> C 	 -121.326 	 9.328 	 -12.0862
| 36> H 	 -121.338 	 9.0664 	 -11.0117
| 37> H 	 -122.259 	 8.83585 	 -12.5377
| 38> H 	 -121.399 	 10.466 	 -12.2186
| 39> H 	 -121.763 	 13.8811 	 -8.84468
| 40> H 	 -116.112 	 12.2507 	 -14.4834
| 41> *
| 42>
| 43>                          ****END OF INPUT****

CARTESIAN COORDINATES (ANGSTROEM)
---------------------------------
  S    -120.647000   13.377400  -11.108100
  C    -121.140000   13.219700   -9.463500
  C    -120.688000   12.005800   -8.945130
  C    -119.668000   11.406100   -9.769770
  C    -119.650000   11.935900  -11.010600
  H    -118.988000   10.625400   -9.507240
  C    -120.995000   11.567500   -7.539520
  H    -120.783000   10.577000   -7.337160
  H    -122.031000   11.731100   -7.364760
  C    -120.155000   12.360100   -6.488070
  H    -119.072000   12.096900   -6.406030
  H    -120.177000   13.380200   -6.819870
  C    -120.742000   12.423100   -5.065520
  H    -120.019000   12.915000   -4.425870
  H    -121.774000   12.835300   -4.970630
  H    -120.818000   11.393700   -4.692250
  S    -117.785000   12.916500  -12.790600
  C    -116.780000   11.866500  -13.746100
  C    -117.062000   10.591700  -13.449400
  C    -118.114000   10.407500  -12.450500
  C    -118.654000   11.609500  -12.036300
  H    -116.549000    9.869620  -13.993000
  C    -118.652000    9.077700  -12.135000
  H    -118.762000    8.981410  -11.032800
  H    -117.836000    8.404740  -12.415400
  C    -120.043000    8.674980  -12.720500
  H    -120.032000    7.613490  -12.612200
  H    -120.024000    8.848920  -13.810600
  C    -121.326000    9.328000  -12.086200
  H    -121.338000    9.066400  -11.011700
  H    -122.259000    8.835850  -12.537700
  H    -121.399000   10.466000  -12.218600
  H    -121.763000   13.881100   -8.844680
  H    -116.112000   12.250700  -14.483400

 Total Charge           Charge          ....    0
 Multiplicity           Mult            ....    1
 Number of Electrons    NEL             ....  134
 Basis Dimension        Dim             ....  322

ORBITAL ENERGIES
----------------

  NO   OCC          E(Eh)            E(eV)
   0   2.0000     -88.969278     -2420.9771
   1   2.0000     -88.956256     -2420.6228
   2   2.0000     -10.327024      -281.0126
   3   2.0000     -10.323846      -280.9261
   4   2.0000     -10.315943      -280.7111
   5   2.0000     -10.310192      -280.5546
   6   2.0000     -10.302333      -280.3407
   7   2.0000     -10.299207      -280.2557
   8   2.0000     -10.291472      -280.0452
   9   2.0000     -10.289915      -280.0028
  10   2.0000     -10.287895      -279.9479
  11   2.0000     -10.287868      -279.9471
  12   2.0000     -10.286807      -279.9183
  13   2.0000     -10.286464      -279.9089
  14   2.0000     -10.284608      -279.8584
  15   2.0000     -10.280818      -279.7553
  16   2.0000      -8.083851      -219.9728
  17   2.0000      -8.071936      -219.6486
  18   2.0000      -6.042440      -164.4231
  19   2.0000      -6.038342      -164.3116
  20   2.0000      -6.034555      -164.2086
  21   2.0000      -6.030449      -164.0969
  22   2.0000      -6.026195      -163.9811
  23   2.0000      -6.022739      -163.8871
  24   2.0000      -1.011275       -27.5182
  25   2.0000      -0.988529       -26.8992
  26   2.0000      -0.912034       -24.8177
  27   2.0000      -0.904187       -24.6042
  28   2.0000      -0.872212       -23.7341
  29   2.0000      -0.850990       -23.1566
  30   2.0000      -0.839273       -22.8378
  31   2.0000      -0.822556       -22.3829
  32   2.0000      -0.780554       -21.2399
  33   2.0000      -0.768763       -20.9191
  34   2.0000      -0.705517       -19.1981
  35   2.0000      -0.698956       -19.0196
  36   2.0000      -0.691917       -18.8280
  37   2.0000      -0.665529       -18.1100
  38   2.0000      -0.643441       -17.5089
  39   2.0000      -0.622078       -16.9276
  40   2.0000      -0.594283       -16.1713
  41   2.0000      -0.578771       -15.7492
  42   2.0000      -0.560223       -15.2445
  43   2.0000      -0.547293       -14.8926
  44   2.0000      -0.535221       -14.5641
  45   2.0000      -0.523801       -14.2534
  46   2.0000      -0.517281       -14.0759
  47   2.0000      -0.511087       -13.9074
  48   2.0000      -0.503501       -13.7010
  49   2.0000      -0.496858       -13.5202
  50   2.0000      -0.495001       -13.4697
  51   2.0000      -0.481679       -13.1072
  52   2.0000      -0.476953       -12.9786
  53   2.0000      -0.462581       -12.5875
  54   2.0000      -0.461362       -12.5543
  55   2.0000      -0.444195       -12.0872
  56   2.0000      -0.440587       -11.9890
  57   2.0000      -0.437650       -11.9091
  58   2.0000      -0.432345       -11.7647
  59   2.0000      -0.425222       -11.5709
  60   2.0000      -0.417732       -11.3671
  61   2.0000      -0.413984       -11.2651
  62   2.0000      -0.408583       -11.1181
  63   2.0000      -0.355855        -9.6833
  64   2.0000      -0.328335        -8.9345
  65   2.0000      -0.322505        -8.7758
  66   2.0000      -0.291034        -7.9194
  67   0.0000       0.028164         0.7664
  68   0.0000       0.080979         2.2036
  69   0.0000       0.111896         3.0448
  70   0.0000       0.118276         3.2185
  71   0.0000       0.135471         3.6863

MULLIKEN ATOMIC CHARGES
-----------------------
   0 S :    0.122803
   1 C :   -0.122963
   2 C :   -0.110397
   3 C :    0.027485
   4 C :   -0.151060
   5 H :    0.018240
   6 C :    0.128862
   7 H :    0.001996
   8 H :    0.016171
   9 C :   -0.100260
  10 H :    0.038861
  11 H :    0.016449
  12 C :   -0.057489
  13 H :    0.037598
  14 H :    0.040756
  15 H :    0.021143
  16 S :    0.082910
  17 C :   -0.082744
  18 C :   -0.003778
  19 C :   -0.057875
  20 C :   -0.125884
  21 H :   -0.008854
  22 C :    0.053547
  23 H :    0.013486
  24 H :    0.019218
  25 C :   -0.047271
  26 H :    0.024157
  27 H :    0.029284
  28 C :   -0.084811
  29 H :    0.033171
  30 H :    0.044668
  31 H :    0.071728
  32 H :    0.058627
  33 H :    0.052225
Sum of atomic charges:   -0.0000000

LOEWDIN ATOMIC CHARGES
----------------------
   0 S :    0.413980
   1 C :   -0.207440
   2 C :   -0.056604
   3 C :   -0.052285
   4 C :   -0.190679
   5 H :    0.030418
   6 C :   -0.025094
   7 H :    0.019121
   8 H :    0.029028
   9 C :   -0.040174
  10 H :    0.030499
  11 H :    0.016521
  12 C :   -0.070556
  13 H :    0.027436
  14 H :    0.027810
  15 H :    0.021146
  16 S :    0.399263
  17 C :   -0.176992
  18 C :   -0.066806
  19 C :   -0.065185
  20 C :   -0.195765
  21 H :    0.021188
  22 C :   -0.042464
  23 H :    0.029255
  24 H :    0.032851
  25 C :   -0.035754
  26 H :    0.021460
  27 H :    0.024521
  28 C :   -0.076679
  29 H :    0.023554
  30 H :    0.034107
  31 H :    0.036688
  32 H :    0.035797
  33 H :    0.027833

  Mayer bond orders larger than 0.100000
B(  0-S ,  1-C ) :   1.1372 B(  0-S ,  4-C ) :   1.1352 B(  1-C ,  2-C ) :   1.6039
B(  1-C , 32-H ) :   0.9650 B(  2-C ,  3-C ) :   1.2172 B(  2-C ,  6-C ) :   1.0559
B(  3-C ,  4-C ) :   1.6017 B(  3-C ,  5-H ) :   0.9911 B(  4-C , 20-C ) :   1.0355
B(  6-C ,  7-H ) :   0.9358 B(  6-C ,  8-H ) :   0.9355 B(  6-C ,  9-C ) :   1.0492
B(  9-C , 10-H ) :   0.9558 B(  9-C , 11-H ) :   0.9612 B(  9-C , 12-C ) :   1.0827
B( 12-C , 13-H ) :   0.9730 B( 12-C , 14-H ) :   0.9752 B( 12-C , 15-H ) :   0.9742
B( 16-S , 17-C ) :   1.1452 B( 16-S , 20-C ) :   1.1419 B( 17-C , 18-C ) :   1.6233
B( 17-C , 33-H ) :   0.9725 B( 18-C , 19-C ) :   1.2149 B( 18-C , 21-H ) :   1.0036
B( 19-C , 20-C ) :   1.5943 B( 19-C , 22-C ) :   1.0688 B( 22-C , 23-H ) :   0.9220
B( 22-C , 24-H ) :   0.9256 B( 22-C , 25-C ) :   1.0648 B( 25-C , 26-H ) :   0.9542
B( 25-C , 27-H ) :   0.9563 B( 25-C , 28-C ) :   1.0733 B( 28-C , 29-H ) :   0.9721
B( 28-C , 30-H ) :   0.9704 B( 28-C , 31-H ) :   0.9650

Dispersion correction           -0.015355651
FINAL SINGLE POINT ENERGY     -1339.876706305950

DIPOLE MOMENT
-------------
                                X             Y             Z
Electronic contribution:      8.36079      14.55726     -18.51054
Nuclear contribution   :     -8.30434     -15.05241      18.88894
                        -----------------------------------------
Total Dipole Moment    :      0.05644      -0.49515       0.37839
                        -----------------------------------------
Magnitude (a.u.)       :      0.62573
Magnitude (Debye)      :      1.59049

Rotational constants in cm-1:     0.021920     0.008123     0.007203
Rotational constants in MHz :   657.154190   243.508797   215.946560

                             ****ORCA TERMINATED NORMALLY****
TOTAL RUN TIME: 0 days 0 hours 0 minutes 21 seconds 217 msec
