                         Program Version 4.2.1 -  RELEASE  -
|  1> ! wB97X-D3 SP def2-SVP
|  2> %pal
|  3> nprocs 24
|  4> end
|  5>
|  6> * xyz 0 1
|  7> S 	 -105.433 	 -1.92335 	 -111.216
|  8> C 	 -107.105 	 -2.4172 	 -111.779
|  9> C 	 -108.005 	 -1.3782 	 -111.623
| 10> C 	 -107.438 	 -0.275807 	 -110.941
| 11> C 	 -106.13 	 -0.430187 	 -110.62
| 12> H 	 -107.899 	 0.65318 	 -110.787
| 13> C 	 -109.422 	 -1.35464 	 -112.078
| 14> H 	 -109.507 	 -2.07686 	 -112.93
| 15> H 	 -109.43 	 -0.449882 	 -112.652
| 16> C 	 -110.505 	 -1.40879 	 -111.041
| 17> H 	 -110.583 	 -2.50152 	 -110.868
| 18> H 	 -110.379 	 -0.834949 	 -110.092
| 19> C 	 -111.838 	 -0.913155 	 -111.668
| 20> H 	 -112.139 	 -1.37555 	 -112.587
| 21> H 	 -112.701 	 -0.968987 	 -110.907
| 22> H 	 -111.722 	 0.126385 	 -111.826
| 23> S 	 -104.249 	 0.197915 	 -108.683
| 24> C 	 -103.627 	 1.85101 	 -108.589
| 25> C 	 -104.17 	 2.66037 	 -109.608
| 26> C 	 -105.129 	 1.93647 	 -110.367
| 27> C 	 -105.298 	 0.610806 	 -110.036
| 28> H 	 -103.841 	 3.6917 	 -109.597
| 29> C 	 -105.931 	 2.69541 	 -111.429
| 30> H 	 -106.701 	 3.25072 	 -110.922
| 31> H 	 -106.451 	 1.89623 	 -112.018
| 32> C 	 -105.212 	 3.77776 	 -112.241
| 33> H 	 -104.758 	 4.63865 	 -111.738
| 34> H 	 -106.012 	 4.03068 	 -112.912
| 35> C 	 -104.129 	 3.11013 	 -113.035
| 36> H 	 -103.474 	 2.49637 	 -112.327
| 37> H 	 -103.498 	 3.94175 	 -113.463
| 38> H 	 -104.444 	 2.51748 	 -113.827
| 39> H 	 -107.362 	 -3.29096 	 -112.346
| 40> H 	 -102.819 	 2.13619 	 -107.954
| 41> *
| 42>
| 43>                          ****END OF INPUT****

CARTESIAN COORDINATES (ANGSTROEM)
---------------------------------
  S    -105.433000   -1.923350  -111.216000
  C    -107.105000   -2.417200  -111.779000
  C    -108.005000   -1.378200  -111.623000
  C    -107.438000   -0.275807  -110.941000
  C    -106.130000   -0.430187  -110.620000
  H    -107.899000    0.653180  -110.787000
  C    -109.422000   -1.354640  -112.078000
  H    -109.507000   -2.076860  -112.930000
  H    -109.430000   -0.449882  -112.652000
  C    -110.505000   -1.408790  -111.041000
  H    -110.583000   -2.501520  -110.868000
  H    -110.379000   -0.834949  -110.092000
  C    -111.838000   -0.913155  -111.668000
  H    -112.139000   -1.375550  -112.587000
  H    -112.701000   -0.968987  -110.907000
  H    -111.722000    0.126385  -111.826000
  S    -104.249000    0.197915  -108.683000
  C    -103.627000    1.851010  -108.589000
  C    -104.170000    2.660370  -109.608000
  C    -105.129000    1.936470  -110.367000
  C    -105.298000    0.610806  -110.036000
  H    -103.841000    3.691700  -109.597000
  C    -105.931000    2.695410  -111.429000
  H    -106.701000    3.250720  -110.922000
  H    -106.451000    1.896230  -112.018000
  C    -105.212000    3.777760  -112.241000
  H    -104.758000    4.638650  -111.738000
  H    -106.012000    4.030680  -112.912000
  C    -104.129000    3.110130  -113.035000
  H    -103.474000    2.496370  -112.327000
  H    -103.498000    3.941750  -113.463000
  H    -104.444000    2.517480  -113.827000
  H    -107.362000   -3.290960  -112.346000
  H    -102.819000    2.136190  -107.954000

 Total Charge           Charge          ....    0
 Multiplicity           Mult            ....    1
 Number of Electrons    NEL             ....  134
 Basis Dimension        Dim             ....  322

ORBITAL ENERGIES
----------------

  NO   OCC          E(Eh)            E(eV)
   0   2.0000     -88.967882     -2420.9391
   1   2.0000     -88.964202     -2420.8390
   2   2.0000     -10.328024      -281.0398
   3   2.0000     -10.324348      -280.9398
   4   2.0000     -10.320067      -280.8233
   5   2.0000     -10.317150      -280.7439
   6   2.0000     -10.302912      -280.3565
   7   2.0000     -10.299194      -280.2553
   8   2.0000     -10.297014      -280.1960
   9   2.0000     -10.295383      -280.1516
  10   2.0000     -10.292279      -280.0671
  11   2.0000     -10.290170      -280.0098
  12   2.0000     -10.285786      -279.8905
  13   2.0000     -10.283302      -279.8229
  14   2.0000     -10.281954      -279.7862
  15   2.0000     -10.270550      -279.4759
  16   2.0000      -8.081351      -219.9047
  17   2.0000      -8.078538      -219.8282
  18   2.0000      -6.039975      -164.3561
  19   2.0000      -6.036978      -164.2745
  20   2.0000      -6.036272      -164.2553
  21   2.0000      -6.033075      -164.1683
  22   2.0000      -6.031806      -164.1338
  23   2.0000      -6.029424      -164.0690
  24   2.0000      -1.004948       -27.3460
  25   2.0000      -0.980582       -26.6830
  26   2.0000      -0.919255       -25.0142
  27   2.0000      -0.913217       -24.8499
  28   2.0000      -0.869642       -23.6642
  29   2.0000      -0.851725       -23.1766
  30   2.0000      -0.843478       -22.9522
  31   2.0000      -0.815570       -22.1928
  32   2.0000      -0.782638       -21.2966
  33   2.0000      -0.772040       -21.0083
  34   2.0000      -0.708637       -19.2830
  35   2.0000      -0.703989       -19.1565
  36   2.0000      -0.693518       -18.8716
  37   2.0000      -0.658219       -17.9110
  38   2.0000      -0.642056       -17.4712
  39   2.0000      -0.624968       -17.0063
  40   2.0000      -0.599241       -16.3062
  41   2.0000      -0.568712       -15.4754
  42   2.0000      -0.567601       -15.4452
  43   2.0000      -0.552984       -15.0475
  44   2.0000      -0.539269       -14.6743
  45   2.0000      -0.535089       -14.5605
  46   2.0000      -0.521990       -14.2041
  47   2.0000      -0.516038       -14.0421
  48   2.0000      -0.505681       -13.7603
  49   2.0000      -0.497635       -13.5413
  50   2.0000      -0.493349       -13.4247
  51   2.0000      -0.472121       -12.8471
  52   2.0000      -0.468466       -12.7476
  53   2.0000      -0.460045       -12.5185
  54   2.0000      -0.455997       -12.4083
  55   2.0000      -0.452485       -12.3127
  56   2.0000      -0.442793       -12.0490
  57   2.0000      -0.437837       -11.9142
  58   2.0000      -0.435767       -11.8578
  59   2.0000      -0.423048       -11.5117
  60   2.0000      -0.417270       -11.3545
  61   2.0000      -0.414685       -11.2842
  62   2.0000      -0.407174       -11.0798
  63   2.0000      -0.343496        -9.3470
  64   2.0000      -0.333928        -9.0867
  65   2.0000      -0.328331        -8.9343
  66   2.0000      -0.294250        -8.0070
  67   0.0000       0.030518         0.8304
  68   0.0000       0.067481         1.8363
  69   0.0000       0.100447         2.7333
  70   0.0000       0.122340         3.3290
  71   0.0000       0.131042         3.5658

MULLIKEN ATOMIC CHARGES
-----------------------
   0 S :    0.103230
   1 C :   -0.114265
   2 C :   -0.084445
   3 C :    0.026522
   4 C :   -0.117580
   5 H :   -0.007960
   6 C :    0.060056
   7 H :    0.020178
   8 H :    0.010683
   9 C :   -0.052151
  10 H :    0.039123
  11 H :    0.053538
  12 C :   -0.063624
  13 H :    0.033189
  14 H :    0.042016
  15 H :    0.020698
  16 S :    0.099128
  17 C :   -0.095041
  18 C :   -0.044373
  19 C :   -0.039136
  20 C :   -0.168996
  21 H :    0.025727
  22 C :    0.042742
  23 H :    0.033785
  24 H :    0.035869
  25 C :   -0.052956
  26 H :    0.042235
  27 H :    0.026829
  28 C :   -0.064991
  29 H :    0.050367
  30 H :    0.028706
  31 H :    0.021982
  32 H :    0.035042
  33 H :    0.053872
Sum of atomic charges:    0.0000000

LOEWDIN ATOMIC CHARGES
----------------------
   0 S :    0.371885
   1 C :   -0.175445
   2 C :   -0.056840
   3 C :   -0.059892
   4 C :   -0.181571
   5 H :    0.023453
   6 C :   -0.041068
   7 H :    0.036310
   8 H :    0.027461
   9 C :   -0.039930
  10 H :    0.032085
  11 H :    0.036037
  12 C :   -0.065095
  13 H :    0.020632
  14 H :    0.034052
  15 H :    0.017140
  16 S :    0.393935
  17 C :   -0.170424
  18 C :   -0.073486
  19 C :   -0.058858
  20 C :   -0.203078
  21 H :    0.035433
  22 C :   -0.035698
  23 H :    0.028979
  24 H :    0.035293
  25 C :   -0.043956
  26 H :    0.028130
  27 H :    0.029350
  28 C :   -0.066658
  29 H :    0.033789
  30 H :    0.027185
  31 H :    0.013576
  32 H :    0.024083
  33 H :    0.023191

  Mayer bond orders larger than 0.100000
B(  0-S ,  1-C ) :   1.1011 B(  0-S ,  4-C ) :   1.1420 B(  1-C ,  2-C ) :   1.6449
B(  1-C , 32-H ) :   0.9678 B(  2-C ,  3-C ) :   1.2069 B(  2-C ,  6-C ) :   1.0175
B(  3-C ,  4-C ) :   1.5948 B(  3-C ,  5-H ) :   1.0078 B(  4-C , 20-C ) :   1.0356
B(  6-C ,  7-H ) :   0.9323 B(  6-C ,  8-H ) :   0.9352 B(  6-C ,  9-C ) :   1.0485
B(  9-C , 10-H ) :   0.9524 B(  9-C , 11-H ) :   0.9605 B(  9-C , 12-C ) :   1.0714
B( 12-C , 13-H ) :   0.9760 B( 12-C , 14-H ) :   0.9756 B( 12-C , 15-H ) :   0.9772
B( 16-S , 17-C ) :   1.1682 B( 16-S , 20-C ) :   1.1274 B( 17-C , 18-C ) :   1.6018
B( 17-C , 20-C ) :   0.1021 B( 17-C , 33-H ) :   0.9680 B( 18-C , 19-C ) :   1.2241
B( 18-C , 21-H ) :   0.9953 B( 19-C , 20-C ) :   1.6051 B( 19-C , 22-C ) :   1.0325
B( 22-C , 23-H ) :   0.9306 B( 22-C , 24-H ) :   0.9315 B( 22-C , 25-C ) :   1.0718
B( 25-C , 26-H ) :   0.9528 B( 25-C , 27-H ) :   0.9477 B( 25-C , 28-C ) :   1.0874
B( 28-C , 29-H ) :   0.9712 B( 28-C , 30-H ) :   0.9753 B( 28-C , 31-H ) :   0.9756

Dispersion correction           -0.014195055
FINAL SINGLE POINT ENERGY     -1339.863445683698

DIPOLE MOMENT
-------------
                                X             Y             Z
Electronic contribution:     18.91615     -11.95072      13.59075
Nuclear contribution   :    -19.42627      12.49936     -13.96622
                        -----------------------------------------
Total Dipole Moment    :     -0.51012       0.54864      -0.37547
                        -----------------------------------------
Magnitude (a.u.)       :      0.83798
Magnitude (Debye)      :      2.12997

Rotational constants in cm-1:     0.019062     0.008038     0.006879
Rotational constants in MHz :   571.468611   240.976700   206.223363

                             ****ORCA TERMINATED NORMALLY****
TOTAL RUN TIME: 0 days 0 hours 0 minutes 21 seconds 773 msec
