                         Program Version 4.2.1 -  RELEASE  -
|  1> ! wB97X-D3 SP def2-SVP
|  2> %pal
|  3> nprocs 24
|  4> end
|  5>
|  6> * xyz 0 1
|  7> S 	 -63.8517 	 12.6262 	 -87.8189
|  8> C 	 -63.7103 	 14.1255 	 -88.6586
|  9> C 	 -62.5482 	 14.7912 	 -88.3712
| 10> C 	 -61.6647 	 13.9697 	 -87.5828
| 11> C 	 -62.1954 	 12.7363 	 -87.327
| 12> H 	 -60.7358 	 14.2537 	 -87.1557
| 13> C 	 -62.263 	 16.263 	 -88.8898
| 14> H 	 -63.2313 	 16.6658 	 -89.2939
| 15> H 	 -61.6098 	 16.2299 	 -89.7801
| 16> C 	 -61.5762 	 17.2724 	 -87.9652
| 17> H 	 -60.8221 	 16.7292 	 -87.4379
| 18> H 	 -61.137 	 18.1728 	 -88.5186
| 19> C 	 -62.4454 	 17.7293 	 -86.8077
| 20> H 	 -63.2796 	 18.2698 	 -87.2216
| 21> H 	 -62.7802 	 16.8972 	 -86.1195
| 22> H 	 -61.923 	 18.4018 	 -86.1786
| 23> S 	 -62.6482 	 10.8788 	 -85.304
| 24> C 	 -61.2998 	 10.0049 	 -84.6557
| 25> C 	 -60.1491 	 10.2575 	 -85.3722
| 26> C 	 -60.2803 	 11.2244 	 -86.4795
| 27> C 	 -61.5579 	 11.7238 	 -86.5094
| 28> H 	 -59.1567 	 9.76946 	 -85.1603
| 29> C 	 -59.0459 	 11.5745 	 -87.2789
| 30> H 	 -58.3225 	 10.7857 	 -87.0697
| 31> H 	 -58.7255 	 12.5071 	 -86.9257
| 32> C 	 -59.1905 	 11.7318 	 -88.8638
| 33> H 	 -58.2505 	 11.9802 	 -89.3063
| 34> H 	 -60.01 	 12.5217 	 -89.0956
| 35> C 	 -59.6638 	 10.5703 	 -89.6714
| 36> H 	 -59.1203 	 9.6698 	 -89.5613
| 37> H 	 -59.5669 	 10.9501 	 -90.7464
| 38> H 	 -60.7946 	 10.4442 	 -89.4148
| 39> H 	 -64.4385 	 14.4795 	 -89.3213
| 40> H 	 -61.4227 	 9.41286 	 -83.8027
| 41> *
| 42>
| 43>                          ****END OF INPUT****

CARTESIAN COORDINATES (ANGSTROEM)
---------------------------------
  S    -63.851700   12.626200  -87.818900
  C    -63.710300   14.125500  -88.658600
  C    -62.548200   14.791200  -88.371200
  C    -61.664700   13.969700  -87.582800
  C    -62.195400   12.736300  -87.327000
  H    -60.735800   14.253700  -87.155700
  C    -62.263000   16.263000  -88.889800
  H    -63.231300   16.665800  -89.293900
  H    -61.609800   16.229900  -89.780100
  C    -61.576200   17.272400  -87.965200
  H    -60.822100   16.729200  -87.437900
  H    -61.137000   18.172800  -88.518600
  C    -62.445400   17.729300  -86.807700
  H    -63.279600   18.269800  -87.221600
  H    -62.780200   16.897200  -86.119500
  H    -61.923000   18.401800  -86.178600
  S    -62.648200   10.878800  -85.304000
  C    -61.299800   10.004900  -84.655700
  C    -60.149100   10.257500  -85.372200
  C    -60.280300   11.224400  -86.479500
  C    -61.557900   11.723800  -86.509400
  H    -59.156700    9.769460  -85.160300
  C    -59.045900   11.574500  -87.278900
  H    -58.322500   10.785700  -87.069700
  H    -58.725500   12.507100  -86.925700
  C    -59.190500   11.731800  -88.863800
  H    -58.250500   11.980200  -89.306300
  H    -60.010000   12.521700  -89.095600
  C    -59.663800   10.570300  -89.671400
  H    -59.120300    9.669800  -89.561300
  H    -59.566900   10.950100  -90.746400
  H    -60.794600   10.444200  -89.414800
  H    -64.438500   14.479500  -89.321300
  H    -61.422700    9.412860  -83.802700

 Total Charge           Charge          ....    0
 Multiplicity           Mult            ....    1
 Number of Electrons    NEL             ....  134
 Basis Dimension        Dim             ....  322

ORBITAL ENERGIES
----------------

  NO   OCC          E(Eh)            E(eV)
   0   2.0000     -88.968025     -2420.9430
   1   2.0000     -88.962023     -2420.7797
   2   2.0000     -10.330925      -281.1188
   3   2.0000     -10.327057      -281.0135
   4   2.0000     -10.315718      -280.7050
   5   2.0000     -10.308375      -280.5051
   6   2.0000     -10.307897      -280.4921
   7   2.0000     -10.307719      -280.4873
   8   2.0000     -10.302310      -280.3401
   9   2.0000     -10.301100      -280.3072
  10   2.0000     -10.295256      -280.1482
  11   2.0000     -10.294028      -280.1147
  12   2.0000     -10.290554      -280.0202
  13   2.0000     -10.287176      -279.9283
  14   2.0000     -10.277469      -279.6642
  15   2.0000     -10.271755      -279.5087
  16   2.0000      -8.083701      -219.9687
  17   2.0000      -8.076436      -219.7710
  18   2.0000      -6.042132      -164.4148
  19   2.0000      -6.038280      -164.3100
  20   2.0000      -6.035092      -164.2232
  21   2.0000      -6.034287      -164.2013
  22   2.0000      -6.031113      -164.1149
  23   2.0000      -6.026951      -164.0017
  24   2.0000      -1.010452       -27.4958
  25   2.0000      -0.981135       -26.6980
  26   2.0000      -0.908517       -24.7220
  27   2.0000      -0.904938       -24.6246
  28   2.0000      -0.872207       -23.7340
  29   2.0000      -0.854536       -23.2531
  30   2.0000      -0.847104       -23.0509
  31   2.0000      -0.811753       -22.0889
  32   2.0000      -0.784966       -21.3600
  33   2.0000      -0.776230       -21.1223
  34   2.0000      -0.706941       -19.2368
  35   2.0000      -0.690877       -18.7997
  36   2.0000      -0.679138       -18.4803
  37   2.0000      -0.662982       -18.0407
  38   2.0000      -0.646772       -17.5996
  39   2.0000      -0.621552       -16.9133
  40   2.0000      -0.590226       -16.0609
  41   2.0000      -0.562359       -15.3026
  42   2.0000      -0.560949       -15.2642
  43   2.0000      -0.549759       -14.9597
  44   2.0000      -0.546534       -14.8719
  45   2.0000      -0.542515       -14.7626
  46   2.0000      -0.519115       -14.1258
  47   2.0000      -0.514015       -13.9870
  48   2.0000      -0.504223       -13.7206
  49   2.0000      -0.496192       -13.5021
  50   2.0000      -0.488653       -13.2969
  51   2.0000      -0.482686       -13.1346
  52   2.0000      -0.470581       -12.8052
  53   2.0000      -0.466900       -12.7050
  54   2.0000      -0.456860       -12.4318
  55   2.0000      -0.450008       -12.2453
  56   2.0000      -0.435279       -11.8446
  57   2.0000      -0.434206       -11.8153
  58   2.0000      -0.429236       -11.6801
  59   2.0000      -0.423204       -11.5160
  60   2.0000      -0.415828       -11.3153
  61   2.0000      -0.411752       -11.2044
  62   2.0000      -0.409295       -11.1375
  63   2.0000      -0.357405        -9.7255
  64   2.0000      -0.332978        -9.0608
  65   2.0000      -0.327657        -8.9160
  66   2.0000      -0.287855        -7.8329
  67   0.0000       0.027190         0.7399
  68   0.0000       0.068105         1.8532
  69   0.0000       0.102275         2.7830
  70   0.0000       0.120056         3.2669
  71   0.0000       0.133002         3.6192

MULLIKEN ATOMIC CHARGES
-----------------------
   0 S :    0.118809
   1 C :   -0.108063
   2 C :   -0.066411
   3 C :    0.012171
   4 C :   -0.139136
   5 H :    0.004203
   6 C :    0.061329
   7 H :    0.019217
   8 H :    0.042240
   9 C :   -0.089849
  10 H :    0.021505
  11 H :    0.049538
  12 C :   -0.052323
  13 H :    0.021867
  14 H :    0.049098
  15 H :    0.021312
  16 S :    0.074404
  17 C :   -0.062868
  18 C :   -0.047348
  19 C :   -0.062509
  20 C :   -0.152202
  21 H :    0.034728
  22 C :    0.114508
  23 H :    0.020405
  24 H :    0.032353
  25 C :   -0.113788
  26 H :    0.022810
  27 H :    0.056479
  28 C :   -0.080169
  29 H :    0.028603
  30 H :    0.043789
  31 H :    0.054215
  32 H :    0.026773
  33 H :    0.044310
Sum of atomic charges:   -0.0000000

LOEWDIN ATOMIC CHARGES
----------------------
   0 S :    0.420875
   1 C :   -0.192905
   2 C :   -0.057733
   3 C :   -0.061130
   4 C :   -0.196832
   5 H :    0.025557
   6 C :   -0.033203
   7 H :    0.028848
   8 H :    0.034167
   9 C :   -0.048766
  10 H :    0.020279
  11 H :    0.037604
  12 C :   -0.066252
  13 H :    0.018752
  14 H :    0.035641
  15 H :    0.018330
  16 S :    0.363166
  17 C :   -0.175978
  18 C :   -0.075306
  19 C :   -0.055837
  20 C :   -0.167967
  21 H :    0.036342
  22 C :   -0.024039
  23 H :    0.031603
  24 H :    0.028214
  25 C :   -0.051196
  26 H :    0.017667
  27 H :    0.039507
  28 C :   -0.073052
  29 H :    0.011819
  30 H :    0.037318
  31 H :    0.037387
  32 H :    0.017366
  33 H :    0.019753

  Mayer bond orders larger than 0.100000
B(  0-S ,  1-C ) :   1.1360 B(  0-S ,  4-C ) :   1.1522 B(  1-C ,  2-C ) :   1.6294
B(  1-C , 32-H ) :   0.9751 B(  2-C ,  3-C ) :   1.2210 B(  2-C ,  6-C ) :   1.0022
B(  3-C ,  4-C ) :   1.5676 B(  3-C ,  5-H ) :   1.0039 B(  4-C , 20-C ) :   1.0619
B(  6-C ,  7-H ) :   0.9461 B(  6-C ,  8-H ) :   0.9420 B(  6-C ,  9-C ) :   1.0687
B(  9-C , 10-H ) :   0.9548 B(  9-C , 11-H ) :   0.9538 B(  9-C , 12-C ) :   1.0819
B( 12-C , 13-H ) :   0.9758 B( 12-C , 14-H ) :   0.9738 B( 12-C , 15-H ) :   0.9737
B( 16-S , 17-C ) :   1.1397 B( 16-S , 20-C ) :   1.1032 B( 17-C , 18-C ) :   1.6316
B( 17-C , 33-H ) :   0.9783 B( 18-C , 19-C ) :   1.2034 B( 18-C , 21-H ) :   0.9767
B( 19-C , 20-C ) :   1.6457 B( 19-C , 22-C ) :   1.0263 B( 22-C , 23-H ) :   0.9332
B( 22-C , 24-H ) :   0.9312 B( 22-C , 25-C ) :   1.0653 B( 25-C , 26-H ) :   0.9584
B( 25-C , 27-H ) :   0.9518 B( 25-C , 28-C ) :   1.0769 B( 28-C , 29-H ) :   0.9765
B( 28-C , 30-H ) :   0.9726 B( 28-C , 31-H ) :   0.9735

Dispersion correction           -0.014915656
FINAL SINGLE POINT ENERGY     -1339.866945972327

DIPOLE MOMENT
-------------
                                X             Y             Z
Electronic contribution:    -14.48040     -15.76468      10.62037
Nuclear contribution   :     15.05059      16.16268     -10.74502
                        -----------------------------------------
Total Dipole Moment    :      0.57019       0.39799      -0.12464
                        -----------------------------------------
Magnitude (a.u.)       :      0.70644
Magnitude (Debye)      :      1.79563

Rotational constants in cm-1:     0.018769     0.008854     0.007762
Rotational constants in MHz :   562.689753   265.441069   232.692614

                             ****ORCA TERMINATED NORMALLY****
TOTAL RUN TIME: 0 days 0 hours 0 minutes 20 seconds 953 msec
