                         Program Version 4.2.1 -  RELEASE  -
|  1> ! wB97X-D3 SP def2-SVP
|  2> %pal
|  3> nprocs 24
|  4> end
|  5>
|  6> * xyz 0 1
|  7> S 	 -95.5838 	 41.7151 	 -84.4433
|  8> C 	 -95.8718 	 40.0107 	 -83.9305
|  9> C 	 -96.414 	 39.2271 	 -84.9242
| 10> C 	 -96.6217 	 39.9247 	 -86.1412
| 11> C 	 -96.1807 	 41.2573 	 -86.1112
| 12> H 	 -97.2694 	 39.6958 	 -86.9362
| 13> C 	 -96.933 	 37.8233 	 -84.746
| 14> H 	 -96.4094 	 37.2603 	 -84.0863
| 15> H 	 -96.7798 	 37.3279 	 -85.7155
| 16> C 	 -98.4099 	 37.815 	 -84.3318
| 17> H 	 -98.4535 	 38.1474 	 -83.2871
| 18> H 	 -99.0628 	 38.5583 	 -84.9049
| 19> C 	 -99.0225 	 36.4496 	 -84.5616
| 20> H 	 -98.6682 	 35.7705 	 -83.7842
| 21> H 	 -100.145 	 36.4608 	 -84.4672
| 22> H 	 -98.7077 	 36.0527 	 -85.5335
| 23> S 	 -97.3585 	 43.7299 	 -86.4531
| 24> C 	 -97.3262 	 44.5514 	 -88.0096
| 25> C 	 -96.7765 	 43.7282 	 -88.9844
| 26> C 	 -96.2708 	 42.4827 	 -88.4463
| 27> C 	 -96.4348 	 42.3409 	 -87.0882
| 28> H 	 -96.7003 	 44.1491 	 -89.9105
| 29> C 	 -95.5196 	 41.6195 	 -89.3851
| 30> H 	 -94.6829 	 41.1362 	 -88.8824
| 31> H 	 -95.0433 	 42.2362 	 -90.1466
| 32> C 	 -96.2805 	 40.5947 	 -90.1522
| 33> H 	 -96.7264 	 39.9618 	 -89.4037
| 34> H 	 -95.5919 	 39.9636 	 -90.747
| 35> C 	 -97.3954 	 41.0615 	 -91.0276
| 36> H 	 -97.6986 	 40.1924 	 -91.6658
| 37> H 	 -97.1218 	 41.8371 	 -91.7455
| 38> H 	 -98.2361 	 41.3128 	 -90.4456
| 39> H 	 -95.7213 	 39.5928 	 -82.9454
| 40> H 	 -97.7402 	 45.598 	 -88.0899
| 41> *
| 42>
| 43>                          ****END OF INPUT****

CARTESIAN COORDINATES (ANGSTROEM)
---------------------------------
  S    -95.583800   41.715100  -84.443300
  C    -95.871800   40.010700  -83.930500
  C    -96.414000   39.227100  -84.924200
  C    -96.621700   39.924700  -86.141200
  C    -96.180700   41.257300  -86.111200
  H    -97.269400   39.695800  -86.936200
  C    -96.933000   37.823300  -84.746000
  H    -96.409400   37.260300  -84.086300
  H    -96.779800   37.327900  -85.715500
  C    -98.409900   37.815000  -84.331800
  H    -98.453500   38.147400  -83.287100
  H    -99.062800   38.558300  -84.904900
  C    -99.022500   36.449600  -84.561600
  H    -98.668200   35.770500  -83.784200
  H    -100.145000   36.460800  -84.467200
  H    -98.707700   36.052700  -85.533500
  S    -97.358500   43.729900  -86.453100
  C    -97.326200   44.551400  -88.009600
  C    -96.776500   43.728200  -88.984400
  C    -96.270800   42.482700  -88.446300
  C    -96.434800   42.340900  -87.088200
  H    -96.700300   44.149100  -89.910500
  C    -95.519600   41.619500  -89.385100
  H    -94.682900   41.136200  -88.882400
  H    -95.043300   42.236200  -90.146600
  C    -96.280500   40.594700  -90.152200
  H    -96.726400   39.961800  -89.403700
  H    -95.591900   39.963600  -90.747000
  C    -97.395400   41.061500  -91.027600
  H    -97.698600   40.192400  -91.665800
  H    -97.121800   41.837100  -91.745500
  H    -98.236100   41.312800  -90.445600
  H    -95.721300   39.592800  -82.945400
  H    -97.740200   45.598000  -88.089900

 Total Charge           Charge          ....    0
 Multiplicity           Mult            ....    1
 Number of Electrons    NEL             ....  134
 Basis Dimension        Dim             ....  322

ORBITAL ENERGIES
----------------

  NO   OCC          E(Eh)            E(eV)
   0   2.0000     -88.969486     -2420.9828
   1   2.0000     -88.960677     -2420.7431
   2   2.0000     -10.340933      -281.3911
   3   2.0000     -10.331360      -281.1306
   4   2.0000     -10.324051      -280.9317
   5   2.0000     -10.318127      -280.7705
   6   2.0000     -10.304915      -280.4110
   7   2.0000     -10.301827      -280.3270
   8   2.0000     -10.296636      -280.1857
   9   2.0000     -10.291578      -280.0481
  10   2.0000     -10.291410      -280.0435
  11   2.0000     -10.286624      -279.9133
  12   2.0000     -10.282522      -279.8017
  13   2.0000     -10.281698      -279.7792
  14   2.0000     -10.278533      -279.6931
  15   2.0000     -10.272098      -279.5180
  16   2.0000      -8.081987      -219.9220
  17   2.0000      -8.075157      -219.7362
  18   2.0000      -6.040706      -164.3760
  19   2.0000      -6.036956      -164.2739
  20   2.0000      -6.033727      -164.1861
  21   2.0000      -6.032495      -164.1525
  22   2.0000      -6.029674      -164.0758
  23   2.0000      -6.025865      -163.9721
  24   2.0000      -0.998389       -27.1675
  25   2.0000      -0.977015       -26.5859
  26   2.0000      -0.919192       -25.0125
  27   2.0000      -0.914330       -24.8802
  28   2.0000      -0.866883       -23.5891
  29   2.0000      -0.851625       -23.1739
  30   2.0000      -0.844874       -22.9902
  31   2.0000      -0.816522       -22.2187
  32   2.0000      -0.785939       -21.3865
  33   2.0000      -0.773413       -21.0456
  34   2.0000      -0.707638       -19.2558
  35   2.0000      -0.698633       -19.0108
  36   2.0000      -0.686172       -18.6717
  37   2.0000      -0.666329       -18.1317
  38   2.0000      -0.644310       -17.5326
  39   2.0000      -0.621371       -16.9084
  40   2.0000      -0.597895       -16.2695
  41   2.0000      -0.571226       -15.5438
  42   2.0000      -0.566174       -15.4064
  43   2.0000      -0.557922       -15.1818
  44   2.0000      -0.547804       -14.9065
  45   2.0000      -0.528032       -14.3685
  46   2.0000      -0.519267       -14.1300
  47   2.0000      -0.509834       -13.8733
  48   2.0000      -0.501694       -13.6518
  49   2.0000      -0.497682       -13.5426
  50   2.0000      -0.491200       -13.3662
  51   2.0000      -0.484305       -13.1786
  52   2.0000      -0.471346       -12.8260
  53   2.0000      -0.468327       -12.7438
  54   2.0000      -0.455561       -12.3964
  55   2.0000      -0.446913       -12.1611
  56   2.0000      -0.440442       -11.9850
  57   2.0000      -0.435335       -11.8461
  58   2.0000      -0.431668       -11.7463
  59   2.0000      -0.421988       -11.4829
  60   2.0000      -0.418953       -11.4003
  61   2.0000      -0.416281       -11.3276
  62   2.0000      -0.412457       -11.2235
  63   2.0000      -0.346863        -9.4386
  64   2.0000      -0.332412        -9.0454
  65   2.0000      -0.326910        -8.8957
  66   2.0000      -0.294189        -8.0053
  67   0.0000       0.022459         0.6111
  68   0.0000       0.066147         1.8000
  69   0.0000       0.101641         2.7658
  70   0.0000       0.120442         3.2774
  71   0.0000       0.128162         3.4875

MULLIKEN ATOMIC CHARGES
-----------------------
   0 S :    0.091497
   1 C :   -0.107018
   2 C :   -0.085432
   3 C :    0.049595
   4 C :   -0.155842
   5 H :    0.015364
   6 C :    0.105257
   7 H :   -0.004673
   8 H :    0.020540
   9 C :   -0.098754
  10 H :    0.030018
  11 H :    0.041060
  12 C :   -0.047013
  13 H :    0.027730
  14 H :    0.045462
  15 H :    0.032665
  16 S :    0.081538
  17 C :   -0.124562
  18 C :    0.002120
  19 C :   -0.031168
  20 C :   -0.140907
  21 H :   -0.011048
  22 C :    0.075911
  23 H :    0.027801
  24 H :    0.011904
  25 C :   -0.061512
  26 H :    0.003737
  27 H :    0.029624
  28 C :   -0.041136
  29 H :    0.031426
  30 H :    0.025831
  31 H :    0.033676
  32 H :    0.040787
  33 H :    0.085522
Sum of atomic charges:    0.0000000

LOEWDIN ATOMIC CHARGES
----------------------
   0 S :    0.353929
   1 C :   -0.178131
   2 C :   -0.059698
   3 C :   -0.051554
   4 C :   -0.161397
   5 H :    0.026554
   6 C :   -0.022117
   7 H :    0.014964
   8 H :    0.032104
   9 C :   -0.042688
  10 H :    0.025039
  11 H :    0.030307
  12 C :   -0.069844
  13 H :    0.023803
  14 H :    0.032549
  15 H :    0.024687
  16 S :    0.378949
  17 C :   -0.180328
  18 C :   -0.060993
  19 C :   -0.055707
  20 C :   -0.189205
  21 H :    0.017263
  22 C :   -0.035849
  23 H :    0.034981
  24 H :    0.028888
  25 C :   -0.042958
  26 H :    0.018078
  27 H :    0.026933
  28 C :   -0.065072
  29 H :    0.034428
  30 H :    0.021772
  31 H :    0.020774
  32 H :    0.027651
  33 H :    0.041890

  Mayer bond orders larger than 0.100000
B(  0-S ,  1-C ) :   1.1123 B(  0-S ,  4-C ) :   1.1266 B(  1-C ,  2-C ) :   1.6517
B(  1-C , 32-H ) :   0.9639 B(  2-C ,  3-C ) :   1.2163 B(  2-C ,  6-C ) :   1.0322
B(  3-C ,  4-C ) :   1.6032 B(  3-C ,  5-H ) :   0.9857 B(  4-C , 20-C ) :   1.0286
B(  6-C ,  7-H ) :   0.9343 B(  6-C ,  8-H ) :   0.9409 B(  6-C ,  9-C ) :   1.0496
B(  9-C , 10-H ) :   0.9529 B(  9-C , 11-H ) :   0.9630 B(  9-C , 12-C ) :   1.0754
B( 12-C , 13-H ) :   0.9725 B( 12-C , 14-H ) :   0.9743 B( 12-C , 15-H ) :   0.9755
B( 16-S , 17-C ) :   1.1519 B( 16-S , 20-C ) :   1.1231 B( 17-C , 18-C ) :   1.6131
B( 17-C , 33-H ) :   0.9598 B( 18-C , 19-C ) :   1.1994 B( 18-C , 21-H ) :   1.0110
B( 19-C , 20-C ) :   1.6294 B( 19-C , 22-C ) :   1.0459 B( 22-C , 23-H ) :   0.9317
B( 22-C , 24-H ) :   0.9332 B( 22-C , 25-C ) :   1.0870 B( 25-C , 26-H ) :   0.9450
B( 25-C , 27-H ) :   0.9529 B( 25-C , 28-C ) :   1.0943 B( 28-C , 29-H ) :   0.9693
B( 28-C , 30-H ) :   0.9723 B( 28-C , 31-H ) :   0.9699

Dispersion correction           -0.014223177
FINAL SINGLE POINT ENERGY     -1339.870307859235

DIPOLE MOMENT
-------------
                                X             Y             Z
Electronic contribution:      8.25462      22.72561      12.41230
Nuclear contribution   :     -8.50395     -23.19391     -12.73560
                        -----------------------------------------
Total Dipole Moment    :     -0.24933      -0.46830      -0.32330
                        -----------------------------------------
Magnitude (a.u.)       :      0.62128
Magnitude (Debye)      :      1.57917

Rotational constants in cm-1:     0.018312     0.008430     0.006710
Rotational constants in MHz :   548.980345   252.722279   201.156662

                             ****ORCA TERMINATED NORMALLY****
TOTAL RUN TIME: 0 days 0 hours 0 minutes 21 seconds 548 msec
