                         Program Version 4.2.1 -  RELEASE  -
|  1> ! wB97X-D3 SP def2-SVP
|  2> %pal
|  3> nprocs 24
|  4> end
|  5>
|  6> * xyz 0 1
|  7> S 	 -53.2236 	 7.29431 	 -18.8921
|  8> C 	 -51.6779 	 6.42448 	 -18.9011
|  9> C 	 -50.5937 	 7.32831 	 -18.9684
| 10> C 	 -51.1595 	 8.68177 	 -19.0224
| 11> C 	 -52.5044 	 8.84257 	 -18.9334
| 12> H 	 -50.4786 	 9.48319 	 -19.12
| 13> C 	 -49.0705 	 7.07409 	 -19.0059
| 14> H 	 -48.5671 	 8.08218 	 -19.0869
| 15> H 	 -48.7925 	 6.47817 	 -19.8445
| 16> C 	 -48.5855 	 6.44302 	 -17.635
| 17> H 	 -48.5611 	 7.1294 	 -16.9109
| 18> H 	 -49.1385 	 5.58587 	 -17.3828
| 19> C 	 -47.0732 	 6.09881 	 -17.8426
| 20> H 	 -46.9291 	 5.49923 	 -18.7057
| 21> H 	 -46.4488 	 6.95059 	 -17.8729
| 22> H 	 -46.6961 	 5.52542 	 -16.9964
| 23> S 	 -53.3106 	 11.3038 	 -19.9392
| 24> C 	 -54.0889 	 12.3727 	 -18.8403
| 25> C 	 -54.4722 	 11.7822 	 -17.6284
| 26> C 	 -53.9773 	 10.4386 	 -17.5184
| 27> C 	 -53.2135 	 10.0866 	 -18.6608
| 28> H 	 -55.0822 	 12.2999 	 -16.908
| 29> C 	 -54.1913 	 9.59098 	 -16.2916
| 30> H 	 -54.612 	 8.64239 	 -16.5106
| 31> H 	 -54.9005 	 10.2027 	 -15.6073
| 32> C 	 -53.0005 	 9.15464 	 -15.4078
| 33> H 	 -52.4711 	 10.0397 	 -15.0697
| 34> H 	 -52.2295 	 8.71948 	 -15.9463
| 35> C 	 -53.442 	 8.23305 	 -14.2195
| 36> H 	 -54.1144 	 8.81858 	 -13.5423
| 37> H 	 -52.5764 	 7.89628 	 -13.6683
| 38> H 	 -53.8831 	 7.26986 	 -14.6061
| 39> H 	 -51.6197 	 5.35186 	 -18.9504
| 40> H 	 -54.436 	 13.418 	 -19.0275
| 41> *
| 42>
| 43>                          ****END OF INPUT****

CARTESIAN COORDINATES (ANGSTROEM)
---------------------------------
  S    -53.223600    7.294310  -18.892100
  C    -51.677900    6.424480  -18.901100
  C    -50.593700    7.328310  -18.968400
  C    -51.159500    8.681770  -19.022400
  C    -52.504400    8.842570  -18.933400
  H    -50.478600    9.483190  -19.120000
  C    -49.070500    7.074090  -19.005900
  H    -48.567100    8.082180  -19.086900
  H    -48.792500    6.478170  -19.844500
  C    -48.585500    6.443020  -17.635000
  H    -48.561100    7.129400  -16.910900
  H    -49.138500    5.585870  -17.382800
  C    -47.073200    6.098810  -17.842600
  H    -46.929100    5.499230  -18.705700
  H    -46.448800    6.950590  -17.872900
  H    -46.696100    5.525420  -16.996400
  S    -53.310600   11.303800  -19.939200
  C    -54.088900   12.372700  -18.840300
  C    -54.472200   11.782200  -17.628400
  C    -53.977300   10.438600  -17.518400
  C    -53.213500   10.086600  -18.660800
  H    -55.082200   12.299900  -16.908000
  C    -54.191300    9.590980  -16.291600
  H    -54.612000    8.642390  -16.510600
  H    -54.900500   10.202700  -15.607300
  C    -53.000500    9.154640  -15.407800
  H    -52.471100   10.039700  -15.069700
  H    -52.229500    8.719480  -15.946300
  C    -53.442000    8.233050  -14.219500
  H    -54.114400    8.818580  -13.542300
  H    -52.576400    7.896280  -13.668300
  H    -53.883100    7.269860  -14.606100
  H    -51.619700    5.351860  -18.950400
  H    -54.436000   13.418000  -19.027500

 Total Charge           Charge          ....    0
 Multiplicity           Mult            ....    1
 Number of Electrons    NEL             ....  134
 Basis Dimension        Dim             ....  322

ORBITAL ENERGIES
----------------

  NO   OCC          E(Eh)            E(eV)
   0   2.0000     -88.971777     -2421.0451
   1   2.0000     -88.964779     -2420.8547
   2   2.0000     -10.328372      -281.0493
   3   2.0000     -10.322700      -280.8949
   4   2.0000     -10.320194      -280.8268
   5   2.0000     -10.318353      -280.7767
   6   2.0000     -10.309458      -280.5346
   7   2.0000     -10.307239      -280.4742
   8   2.0000     -10.303060      -280.3605
   9   2.0000     -10.294811      -280.1360
  10   2.0000     -10.291926      -280.0575
  11   2.0000     -10.288498      -279.9643
  12   2.0000     -10.283694      -279.8335
  13   2.0000     -10.280958      -279.7591
  14   2.0000     -10.275855      -279.6202
  15   2.0000     -10.272113      -279.5184
  16   2.0000      -8.086189      -220.0364
  17   2.0000      -8.079614      -219.8575
  18   2.0000      -6.044576      -164.4813
  19   2.0000      -6.040781      -164.3780
  20   2.0000      -6.038231      -164.3086
  21   2.0000      -6.037083      -164.2774
  22   2.0000      -6.033948      -164.1921
  23   2.0000      -6.030399      -164.0955
  24   2.0000      -1.004846       -27.3433
  25   2.0000      -0.980971       -26.6936
  26   2.0000      -0.909679       -24.7536
  27   2.0000      -0.902763       -24.5654
  28   2.0000      -0.865872       -23.5616
  29   2.0000      -0.850109       -23.1326
  30   2.0000      -0.843485       -22.9524
  31   2.0000      -0.808644       -22.0043
  32   2.0000      -0.779903       -21.2222
  33   2.0000      -0.767387       -20.8817
  34   2.0000      -0.714350       -19.4384
  35   2.0000      -0.705940       -19.2096
  36   2.0000      -0.686498       -18.6806
  37   2.0000      -0.660602       -17.9759
  38   2.0000      -0.641206       -17.4481
  39   2.0000      -0.620997       -16.8982
  40   2.0000      -0.596472       -16.2308
  41   2.0000      -0.577981       -15.7277
  42   2.0000      -0.563302       -15.3282
  43   2.0000      -0.558809       -15.2060
  44   2.0000      -0.520709       -14.1692
  45   2.0000      -0.517306       -14.0766
  46   2.0000      -0.516495       -14.0545
  47   2.0000      -0.505178       -13.7466
  48   2.0000      -0.499705       -13.5977
  49   2.0000      -0.499120       -13.5817
  50   2.0000      -0.490341       -13.3429
  51   2.0000      -0.475516       -12.9394
  52   2.0000      -0.467703       -12.7268
  53   2.0000      -0.462612       -12.5883
  54   2.0000      -0.461270       -12.5518
  55   2.0000      -0.452394       -12.3103
  56   2.0000      -0.448107       -12.1936
  57   2.0000      -0.445080       -12.1112
  58   2.0000      -0.434494       -11.8232
  59   2.0000      -0.427052       -11.6207
  60   2.0000      -0.422628       -11.5003
  61   2.0000      -0.415875       -11.3165
  62   2.0000      -0.411202       -11.1894
  63   2.0000      -0.335793        -9.1374
  64   2.0000      -0.332912        -9.0590
  65   2.0000      -0.325573        -8.8593
  66   2.0000      -0.296447        -8.0667
  67   0.0000       0.033017         0.8984
  68   0.0000       0.065809         1.7908
  69   0.0000       0.106583         2.9003
  70   0.0000       0.120054         3.2668
  71   0.0000       0.125473         3.4143

MULLIKEN ATOMIC CHARGES
-----------------------
   0 S :    0.107896
   1 C :   -0.142128
   2 C :   -0.077762
   3 C :    0.038716
   4 C :   -0.143997
   5 H :   -0.013305
   6 C :    0.038334
   7 H :    0.033333
   8 H :    0.038270
   9 C :   -0.018348
  10 H :    0.007346
  11 H :    0.028974
  12 C :   -0.039499
  13 H :    0.020031
  14 H :    0.022304
  15 H :    0.025899
  16 S :    0.139024
  17 C :   -0.101852
  18 C :   -0.049677
  19 C :    0.005508
  20 C :   -0.175780
  21 H :    0.016426
  22 C :    0.052382
  23 H :    0.016779
  24 H :    0.027533
  25 C :   -0.047162
  26 H :    0.013047
  27 H :    0.015398
  28 C :   -0.070211
  29 H :    0.043239
  30 H :    0.031993
  31 H :    0.042819
  32 H :    0.047626
  33 H :    0.066843
Sum of atomic charges:   -0.0000000

LOEWDIN ATOMIC CHARGES
----------------------
   0 S :    0.418481
   1 C :   -0.192096
   2 C :   -0.058050
   3 C :   -0.059395
   4 C :   -0.222274
   5 H :    0.018249
   6 C :   -0.023260
   7 H :    0.038112
   8 H :    0.026710
   9 C :   -0.010026
  10 H :    0.009105
  11 H :    0.018068
  12 C :   -0.058028
  13 H :    0.016922
  14 H :    0.019206
  15 H :    0.025511
  16 S :    0.426331
  17 C :   -0.207043
  18 C :   -0.070259
  19 C :   -0.048621
  20 C :   -0.198617
  21 H :    0.030228
  22 C :   -0.037087
  23 H :    0.020982
  24 H :    0.037922
  25 C :   -0.037005
  26 H :    0.020502
  27 H :    0.014431
  28 C :   -0.066408
  29 H :    0.029297
  30 H :    0.025029
  31 H :    0.031822
  32 H :    0.022983
  33 H :    0.038279

  Mayer bond orders larger than 0.100000
B(  0-S ,  1-C ) :   1.1517 B(  0-S ,  4-C ) :   1.1457 B(  1-C ,  2-C ) :   1.5778
B(  1-C , 32-H ) :   0.9755 B(  2-C ,  3-C ) :   1.2722 B(  2-C ,  6-C ) :   1.0107
B(  3-C ,  4-C ) :   1.5745 B(  3-C ,  5-H ) :   0.9963 B(  4-C , 20-C ) :   1.0182
B(  6-C ,  7-H ) :   0.9454 B(  6-C ,  8-H ) :   0.9491 B(  6-C ,  9-C ) :   1.0618
B(  9-C , 10-H ) :   0.9564 B(  9-C , 11-H ) :   0.9652 B(  9-C , 12-C ) :   1.0818
B( 12-C , 13-H ) :   0.9783 B( 12-C , 14-H ) :   0.9762 B( 12-C , 15-H ) :   0.9735
B( 16-S , 17-C ) :   1.1685 B( 16-S , 20-C ) :   1.1531 B( 17-C , 18-C ) :   1.5974
B( 17-C , 33-H ) :   0.9576 B( 18-C , 19-C ) :   1.2637 B( 18-C , 21-H ) :   0.9880
B( 19-C , 20-C ) :   1.5577 B( 19-C , 22-C ) :   1.0503 B( 22-C , 23-H ) :   0.9267
B( 22-C , 24-H ) :   0.9375 B( 22-C , 25-C ) :   1.0573 B( 25-C , 26-H ) :   0.9498
B( 25-C , 27-H ) :   0.9532 B( 25-C , 28-C ) :   1.0811 B( 28-C , 29-H ) :   0.9770
B( 28-C , 30-H ) :   0.9735 B( 28-C , 31-H ) :   0.9733

Dispersion correction           -0.014454035
FINAL SINGLE POINT ENERGY     -1339.863619663721

DIPOLE MOMENT
-------------
                                X             Y             Z
Electronic contribution:    -16.88574      11.12940     -19.18007
Nuclear contribution   :     17.35635     -11.23724      19.53991
                        -----------------------------------------
Total Dipole Moment    :      0.47061      -0.10784       0.35984
                        -----------------------------------------
Magnitude (a.u.)       :      0.60215
Magnitude (Debye)      :      1.53054

Rotational constants in cm-1:     0.018870     0.008230     0.006940
Rotational constants in MHz :   565.706277   246.724668   208.065293

                             ****ORCA TERMINATED NORMALLY****
TOTAL RUN TIME: 0 days 0 hours 0 minutes 20 seconds 323 msec
