                         Program Version 4.2.1 -  RELEASE  -
|  1> ! wB97X-D3 SP def2-SVP
|  2> %pal
|  3> nprocs 24
|  4> end
|  5>
|  6> * xyz 0 1
|  7> S 	 17.597 	 -14.3592 	 -123.108
|  8> C 	 15.929 	 -14.5814 	 -123.661
|  9> C 	 15.0458 	 -14.1587 	 -122.679
| 10> C 	 15.767 	 -13.7016 	 -121.514
| 11> C 	 17.1178 	 -13.6561 	 -121.65
| 12> H 	 15.1717 	 -13.329 	 -120.677
| 13> C 	 13.5486 	 -14.1693 	 -122.753
| 14> H 	 13.2568 	 -14.5297 	 -121.74
| 15> H 	 13.1646 	 -14.8859 	 -123.506
| 16> C 	 12.89 	 -12.7724 	 -123.044
| 17> H 	 13.5037 	 -12.0045 	 -122.592
| 18> H 	 12.9323 	 -12.7305 	 -124.145
| 19> C 	 11.3777 	 -12.6358 	 -122.918
| 20> H 	 11.006 	 -13.3701 	 -123.473
| 21> H 	 10.965 	 -12.7416 	 -121.91
| 22> H 	 11.052 	 -11.7047 	 -123.285
| 23> S 	 18.9185 	 -11.475 	 -121.408
| 24> C 	 19.4474 	 -11.1789 	 -119.8
| 25> C 	 19.1133 	 -12.1433 	 -118.907
| 26> C 	 18.4164 	 -13.3083 	 -119.471
| 27> C 	 18.0899 	 -12.9821 	 -120.799
| 28> H 	 19.4916 	 -12.0479 	 -117.845
| 29> C 	 18.0273 	 -14.4713 	 -118.606
| 30> H 	 17.0772 	 -14.6898 	 -119.062
| 31> H 	 17.9138 	 -14.1198 	 -117.557
| 32> C 	 18.9014 	 -15.758 	 -118.702
| 33> H 	 20.0043 	 -15.6841 	 -118.615
| 34> H 	 18.89 	 -16.0379 	 -119.749
| 35> C 	 18.3334 	 -16.8248 	 -117.784
| 36> H 	 18.9872 	 -17.6851 	 -117.734
| 37> H 	 17.4241 	 -17.1257 	 -118.288
| 38> H 	 18.1148 	 -16.4631 	 -116.806
| 39> H 	 15.7762 	 -14.889 	 -124.707
| 40> H 	 19.9879 	 -10.3554 	 -119.352
| 41> *
| 42>
| 43>                          ****END OF INPUT****

CARTESIAN COORDINATES (ANGSTROEM)
---------------------------------
  S     17.597000  -14.359200  -123.108000
  C     15.929000  -14.581400  -123.661000
  C     15.045800  -14.158700  -122.679000
  C     15.767000  -13.701600  -121.514000
  C     17.117800  -13.656100  -121.650000
  H     15.171700  -13.329000  -120.677000
  C     13.548600  -14.169300  -122.753000
  H     13.256800  -14.529700  -121.740000
  H     13.164600  -14.885900  -123.506000
  C     12.890000  -12.772400  -123.044000
  H     13.503700  -12.004500  -122.592000
  H     12.932300  -12.730500  -124.145000
  C     11.377700  -12.635800  -122.918000
  H     11.006000  -13.370100  -123.473000
  H     10.965000  -12.741600  -121.910000
  H     11.052000  -11.704700  -123.285000
  S     18.918500  -11.475000  -121.408000
  C     19.447400  -11.178900  -119.800000
  C     19.113300  -12.143300  -118.907000
  C     18.416400  -13.308300  -119.471000
  C     18.089900  -12.982100  -120.799000
  H     19.491600  -12.047900  -117.845000
  C     18.027300  -14.471300  -118.606000
  H     17.077200  -14.689800  -119.062000
  H     17.913800  -14.119800  -117.557000
  C     18.901400  -15.758000  -118.702000
  H     20.004300  -15.684100  -118.615000
  H     18.890000  -16.037900  -119.749000
  C     18.333400  -16.824800  -117.784000
  H     18.987200  -17.685100  -117.734000
  H     17.424100  -17.125700  -118.288000
  H     18.114800  -16.463100  -116.806000
  H     15.776200  -14.889000  -124.707000
  H     19.987900  -10.355400  -119.352000

 Total Charge           Charge          ....    0
 Multiplicity           Mult            ....    1
 Number of Electrons    NEL             ....  134
 Basis Dimension        Dim             ....  322

ORBITAL ENERGIES
----------------

  NO   OCC          E(Eh)            E(eV)
   0   2.0000     -88.968576     -2420.9580
   1   2.0000     -88.960114     -2420.7278
   2   2.0000     -10.331019      -281.1213
   3   2.0000     -10.322837      -280.8987
   4   2.0000     -10.316423      -280.7241
   5   2.0000     -10.310114      -280.5525
   6   2.0000     -10.308511      -280.5089
   7   2.0000     -10.303388      -280.3694
   8   2.0000     -10.298264      -280.2300
   9   2.0000     -10.295721      -280.1608
  10   2.0000     -10.292624      -280.0765
  11   2.0000     -10.291796      -280.0540
  12   2.0000     -10.287506      -279.9373
  13   2.0000     -10.285970      -279.8955
  14   2.0000     -10.272373      -279.5255
  15   2.0000     -10.266700      -279.3711
  16   2.0000      -8.082559      -219.9376
  17   2.0000      -8.076209      -219.7648
  18   2.0000      -6.041204      -164.3895
  19   2.0000      -6.037402      -164.2860
  20   2.0000      -6.034608      -164.2100
  21   2.0000      -6.032971      -164.1655
  22   2.0000      -6.030413      -164.0959
  23   2.0000      -6.027120      -164.0063
  24   2.0000      -1.007807       -27.4238
  25   2.0000      -0.980980       -26.6938
  26   2.0000      -0.912341       -24.8261
  27   2.0000      -0.910233       -24.7687
  28   2.0000      -0.870838       -23.6967
  29   2.0000      -0.855358       -23.2755
  30   2.0000      -0.845981       -23.0203
  31   2.0000      -0.813480       -22.1359
  32   2.0000      -0.787412       -21.4266
  33   2.0000      -0.771651       -20.9977
  34   2.0000      -0.708472       -19.2785
  35   2.0000      -0.700163       -19.0524
  36   2.0000      -0.692029       -18.8311
  37   2.0000      -0.649274       -17.6676
  38   2.0000      -0.640471       -17.4281
  39   2.0000      -0.624959       -17.0060
  40   2.0000      -0.591384       -16.0924
  41   2.0000      -0.568179       -15.4609
  42   2.0000      -0.563027       -15.3207
  43   2.0000      -0.557141       -15.1606
  44   2.0000      -0.528809       -14.3896
  45   2.0000      -0.527112       -14.3434
  46   2.0000      -0.517661       -14.0863
  47   2.0000      -0.511580       -13.9208
  48   2.0000      -0.508978       -13.8500
  49   2.0000      -0.503211       -13.6931
  50   2.0000      -0.494165       -13.4469
  51   2.0000      -0.478577       -13.0227
  52   2.0000      -0.471878       -12.8405
  53   2.0000      -0.462934       -12.5971
  54   2.0000      -0.456819       -12.4307
  55   2.0000      -0.451315       -12.2809
  56   2.0000      -0.444480       -12.0949
  57   2.0000      -0.441733       -12.0202
  58   2.0000      -0.435670       -11.8552
  59   2.0000      -0.429338       -11.6829
  60   2.0000      -0.423211       -11.5161
  61   2.0000      -0.408646       -11.1198
  62   2.0000      -0.404521       -11.0076
  63   2.0000      -0.335872        -9.1395
  64   2.0000      -0.329748        -8.9729
  65   2.0000      -0.325688        -8.8624
  66   2.0000      -0.299941        -8.1618
  67   0.0000       0.037198         1.0122
  68   0.0000       0.063595         1.7305
  69   0.0000       0.111546         3.0353
  70   0.0000       0.119920         3.2632
  71   0.0000       0.130054         3.5390

MULLIKEN ATOMIC CHARGES
-----------------------
   0 S :    0.096885
   1 C :   -0.152184
   2 C :   -0.088299
   3 C :    0.044380
   4 C :   -0.174826
   5 H :    0.013706
   6 C :    0.042427
   7 H :    0.028794
   8 H :    0.029386
   9 C :   -0.095935
  10 H :    0.036736
  11 H :    0.024182
  12 C :    0.034502
  13 H :   -0.005220
  14 H :    0.023402
  15 H :    0.025453
  16 S :    0.125835
  17 C :   -0.063281
  18 C :   -0.081715
  19 C :   -0.018568
  20 C :   -0.166341
  21 H :    0.035136
  22 C :    0.075198
  23 H :    0.019526
  24 H :    0.034199
  25 C :   -0.085732
  26 H :    0.028260
  27 H :    0.021740
  28 C :   -0.000505
  29 H :    0.031979
  30 H :    0.025877
  31 H :    0.025441
  32 H :    0.062443
  33 H :    0.047121
Sum of atomic charges:   -0.0000000

LOEWDIN ATOMIC CHARGES
----------------------
   0 S :    0.416403
   1 C :   -0.194590
   2 C :   -0.063167
   3 C :   -0.066871
   4 C :   -0.218788
   5 H :    0.032026
   6 C :   -0.035789
   7 H :    0.031480
   8 H :    0.031916
   9 C :   -0.037073
  10 H :    0.020636
  11 H :    0.030401
  12 C :   -0.047450
  13 H :    0.007946
  14 H :    0.022780
  15 H :    0.025339
  16 S :    0.388739
  17 C :   -0.200295
  18 C :   -0.084024
  19 C :   -0.038960
  20 C :   -0.186469
  21 H :    0.037757
  22 C :   -0.030387
  23 H :    0.034175
  24 H :    0.034696
  25 C :   -0.043359
  26 H :    0.023924
  27 H :    0.025117
  28 C :   -0.056854
  29 H :    0.026462
  30 H :    0.028222
  31 H :    0.020132
  32 H :    0.030858
  33 H :    0.035068

  Mayer bond orders larger than 0.100000
B(  0-S ,  1-C ) :   1.1357 B(  0-S ,  4-C ) :   1.1726 B(  1-C ,  2-C ) :   1.5961
B(  1-C , 32-H ) :   0.9728 B(  2-C ,  3-C ) :   1.2526 B(  2-C ,  6-C ) :   1.0282
B(  3-C ,  4-C ) :   1.5688 B(  3-C ,  5-H ) :   0.9924 B(  4-C , 20-C ) :   1.0177
B(  6-C ,  7-H ) :   0.9393 B(  6-C ,  8-H ) :   0.9451 B(  6-C ,  9-C ) :   1.0510
B(  9-C , 10-H ) :   0.9653 B(  9-C , 11-H ) :   0.9583 B(  9-C , 12-C ) :   1.0721
B( 12-C , 13-H ) :   0.9702 B( 12-C , 14-H ) :   0.9743 B( 12-C , 15-H ) :   0.9731
B( 16-S , 17-C ) :   1.1241 B( 16-S , 20-C ) :   1.1131 B( 17-C , 18-C ) :   1.6942
B( 17-C , 33-H ) :   0.9562 B( 18-C , 19-C ) :   1.1966 B( 18-C , 21-H ) :   0.9705
B( 19-C , 20-C ) :   1.6184 B( 19-C , 22-C ) :   1.0318 B( 22-C , 23-H ) :   0.9204
B( 22-C , 24-H ) :   0.9412 B( 22-C , 25-C ) :   1.0558 B( 25-C , 26-H ) :   0.9599
B( 25-C , 27-H ) :   0.9512 B( 25-C , 28-C ) :   1.0785 B( 28-C , 29-H ) :   0.9730
B( 28-C , 30-H ) :   0.9748 B( 28-C , 31-H ) :   0.9753

Dispersion correction           -0.013555801
FINAL SINGLE POINT ENERGY     -1339.857431235951

DIPOLE MOMENT
-------------
                                X             Y             Z
Electronic contribution:     18.71529       9.66995      -9.85868
Nuclear contribution   :    -19.17707      -9.76546      10.16746
                        -----------------------------------------
Total Dipole Moment    :     -0.46178      -0.09551       0.30878
                        -----------------------------------------
Magnitude (a.u.)       :      0.56365
Magnitude (Debye)      :      1.43270

Rotational constants in cm-1:     0.017389     0.007753     0.006784
Rotational constants in MHz :   521.309212   232.415961   203.389129

                             ****ORCA TERMINATED NORMALLY****
TOTAL RUN TIME: 0 days 0 hours 0 minutes 20 seconds 894 msec
