                         Program Version 4.2.1 -  RELEASE  -
|  1> ! wB97X-D3 SP def2-SVP
|  2> %pal
|  3> nprocs 24
|  4> end
|  5>
|  6> * xyz 0 1
|  7> S 	 -36.6685 	 -8.49643 	 19.543
|  8> C 	 -36.1842 	 -10.1819 	 19.361
|  9> C 	 -37.2658 	 -10.9329 	 18.9548
| 10> C 	 -38.4522 	 -10.1876 	 18.9739
| 11> C 	 -38.3217 	 -8.82214 	 19.1406
| 12> H 	 -39.5583 	 -10.4803 	 18.8143
| 13> C 	 -37.1458 	 -12.3531 	 18.847
| 14> H 	 -38.1119 	 -12.8377 	 18.9332
| 15> H 	 -36.4315 	 -12.765 	 19.6052
| 16> C 	 -36.6383 	 -12.7446 	 17.4481
| 17> H 	 -37.3548 	 -12.5749 	 16.6811
| 18> H 	 -35.6935 	 -12.2513 	 17.2729
| 19> C 	 -36.278 	 -14.2458 	 17.3122
| 20> H 	 -36.0039 	 -14.5275 	 16.2918
| 21> H 	 -35.5544 	 -14.4837 	 18.0329
| 22> H 	 -37.1062 	 -14.8758 	 17.5155
| 23> S 	 -39.5001 	 -6.49422 	 20.1625
| 24> C 	 -40.4641 	 -5.51775 	 19.1031
| 25> C 	 -40.7438 	 -6.21415 	 17.9005
| 26> C 	 -40.0811 	 -7.4877 	 17.8079
| 27> C 	 -39.28 	 -7.7256 	 18.9018
| 28> H 	 -41.4534 	 -5.83926 	 17.1842
| 29> C 	 -40.2778 	 -8.365 	 16.6214
| 30> H 	 -41.2945 	 -8.22197 	 16.3764
| 31> H 	 -40.2621 	 -9.50349 	 16.9535
| 32> C 	 -39.3502 	 -7.95986 	 15.4376
| 33> H 	 -38.3326 	 -7.83855 	 15.8632
| 34> H 	 -39.655 	 -7.02017 	 15.0559
| 35> C 	 -39.2875 	 -8.98752 	 14.2252
| 36> H 	 -38.6048 	 -9.79365 	 14.5459
| 37> H 	 -38.7933 	 -8.44571 	 13.4101
| 38> H 	 -40.2343 	 -9.4183 	 13.9011
| 39> H 	 -35.2503 	 -10.6651 	 19.6594
| 40> H 	 -40.9524 	 -4.62227 	 19.3798
| 41> *
| 42>
| 43>                          ****END OF INPUT****

CARTESIAN COORDINATES (ANGSTROEM)
---------------------------------
  S    -36.668500   -8.496430   19.543000
  C    -36.184200  -10.181900   19.361000
  C    -37.265800  -10.932900   18.954800
  C    -38.452200  -10.187600   18.973900
  C    -38.321700   -8.822140   19.140600
  H    -39.558300  -10.480300   18.814300
  C    -37.145800  -12.353100   18.847000
  H    -38.111900  -12.837700   18.933200
  H    -36.431500  -12.765000   19.605200
  C    -36.638300  -12.744600   17.448100
  H    -37.354800  -12.574900   16.681100
  H    -35.693500  -12.251300   17.272900
  C    -36.278000  -14.245800   17.312200
  H    -36.003900  -14.527500   16.291800
  H    -35.554400  -14.483700   18.032900
  H    -37.106200  -14.875800   17.515500
  S    -39.500100   -6.494220   20.162500
  C    -40.464100   -5.517750   19.103100
  C    -40.743800   -6.214150   17.900500
  C    -40.081100   -7.487700   17.807900
  C    -39.280000   -7.725600   18.901800
  H    -41.453400   -5.839260   17.184200
  C    -40.277800   -8.365000   16.621400
  H    -41.294500   -8.221970   16.376400
  H    -40.262100   -9.503490   16.953500
  C    -39.350200   -7.959860   15.437600
  H    -38.332600   -7.838550   15.863200
  H    -39.655000   -7.020170   15.055900
  C    -39.287500   -8.987520   14.225200
  H    -38.604800   -9.793650   14.545900
  H    -38.793300   -8.445710   13.410100
  H    -40.234300   -9.418300   13.901100
  H    -35.250300  -10.665100   19.659400
  H    -40.952400   -4.622270   19.379800

 Total Charge           Charge          ....    0
 Multiplicity           Mult            ....    1
 Number of Electrons    NEL             ....  134
 Basis Dimension        Dim             ....  322

ORBITAL ENERGIES
----------------

  NO   OCC          E(Eh)            E(eV)
   0   2.0000     -88.967775     -2420.9362
   1   2.0000     -88.963197     -2420.8117
   2   2.0000     -10.328793      -281.0607
   3   2.0000     -10.327351      -281.0215
   4   2.0000     -10.320644      -280.8390
   5   2.0000     -10.312687      -280.6225
   6   2.0000     -10.303459      -280.3714
   7   2.0000     -10.298317      -280.2314
   8   2.0000     -10.297358      -280.2054
   9   2.0000     -10.296194      -280.1737
  10   2.0000     -10.293820      -280.1091
  11   2.0000     -10.289983      -280.0047
  12   2.0000     -10.288467      -279.9634
  13   2.0000     -10.282267      -279.7947
  14   2.0000     -10.281358      -279.7700
  15   2.0000     -10.269221      -279.4397
  16   2.0000      -8.082299      -219.9305
  17   2.0000      -8.077930      -219.8117
  18   2.0000      -6.040745      -164.3770
  19   2.0000      -6.036824      -164.2703
  20   2.0000      -6.036423      -164.2594
  21   2.0000      -6.033156      -164.1705
  22   2.0000      -6.032261      -164.1462
  23   2.0000      -6.028864      -164.0537
  24   2.0000      -1.008149       -27.4331
  25   2.0000      -0.986939       -26.8560
  26   2.0000      -0.921087       -25.0641
  27   2.0000      -0.905617       -24.6431
  28   2.0000      -0.867852       -23.6155
  29   2.0000      -0.849803       -23.1243
  30   2.0000      -0.843810       -22.9612
  31   2.0000      -0.814401       -22.1610
  32   2.0000      -0.783025       -21.3072
  33   2.0000      -0.771698       -20.9990
  34   2.0000      -0.706058       -19.2128
  35   2.0000      -0.701225       -19.0813
  36   2.0000      -0.695882       -18.9359
  37   2.0000      -0.666201       -18.1282
  38   2.0000      -0.642397       -17.4805
  39   2.0000      -0.614324       -16.7166
  40   2.0000      -0.591259       -16.0890
  41   2.0000      -0.577444       -15.7130
  42   2.0000      -0.567225       -15.4350
  43   2.0000      -0.559198       -15.2166
  44   2.0000      -0.528861       -14.3910
  45   2.0000      -0.526725       -14.3329
  46   2.0000      -0.521544       -14.1919
  47   2.0000      -0.510313       -13.8863
  48   2.0000      -0.502216       -13.6660
  49   2.0000      -0.499424       -13.5900
  50   2.0000      -0.492668       -13.4062
  51   2.0000      -0.485486       -13.2108
  52   2.0000      -0.468455       -12.7473
  53   2.0000      -0.466162       -12.6849
  54   2.0000      -0.455549       -12.3961
  55   2.0000      -0.445353       -12.1187
  56   2.0000      -0.442567       -12.0429
  57   2.0000      -0.439362       -11.9557
  58   2.0000      -0.431000       -11.7281
  59   2.0000      -0.427022       -11.6199
  60   2.0000      -0.421740       -11.4761
  61   2.0000      -0.418339       -11.3836
  62   2.0000      -0.413820       -11.2606
  63   2.0000      -0.340451        -9.2642
  64   2.0000      -0.331910        -9.0317
  65   2.0000      -0.328236        -8.9318
  66   2.0000      -0.293606        -7.9894
  67   0.0000       0.027478         0.7477
  68   0.0000       0.068394         1.8611
  69   0.0000       0.107351         2.9212
  70   0.0000       0.119716         3.2576
  71   0.0000       0.127991         3.4828

MULLIKEN ATOMIC CHARGES
-----------------------
   0 S :    0.110974
   1 C :   -0.119591
   2 C :   -0.059341
   3 C :    0.004053
   4 C :   -0.156370
   5 H :    0.040940
   6 C :    0.047321
   7 H :    0.016579
   8 H :    0.034580
   9 C :   -0.086181
  10 H :    0.027573
  11 H :    0.026278
  12 C :   -0.010165
  13 H :    0.033896
  14 H :    0.013630
  15 H :    0.007865
  16 S :    0.115022
  17 C :   -0.073850
  18 C :   -0.045693
  19 C :   -0.031788
  20 C :   -0.182705
  21 H :    0.017150
  22 C :    0.067085
  23 H :    0.009397
  24 H :    0.034200
  25 C :   -0.073499
  26 H :    0.046893
  27 H :    0.019711
  28 C :   -0.051226
  29 H :    0.040811
  30 H :    0.038314
  31 H :    0.037013
  32 H :    0.051689
  33 H :    0.049437
Sum of atomic charges:   -0.0000000

LOEWDIN ATOMIC CHARGES
----------------------
   0 S :    0.411650
   1 C :   -0.194755
   2 C :   -0.073005
   3 C :   -0.077589
   4 C :   -0.203168
   5 H :    0.043860
   6 C :   -0.033407
   7 H :    0.030481
   8 H :    0.036684
   9 C :   -0.028535
  10 H :    0.019974
  11 H :    0.021154
  12 C :   -0.059939
  13 H :    0.028302
  14 H :    0.014895
  15 H :    0.016232
  16 S :    0.406524
  17 C :   -0.181403
  18 C :   -0.067654
  19 C :   -0.052370
  20 C :   -0.199117
  21 H :    0.028170
  22 C :   -0.038744
  23 H :    0.023028
  24 H :    0.039945
  25 C :   -0.030324
  26 H :    0.033076
  27 H :    0.016338
  28 C :   -0.067175
  29 H :    0.029247
  30 H :    0.028877
  31 H :    0.022887
  32 H :    0.033240
  33 H :    0.022626

  Mayer bond orders larger than 0.100000
B(  0-S ,  1-C ) :   1.1432 B(  0-S ,  4-C ) :   1.1649 B(  1-C ,  2-C ) :   1.5696
B(  1-C ,  4-C ) :   0.1089 B(  1-C , 32-H ) :   0.9673 B(  2-C ,  3-C ) :   1.2580
B(  2-C ,  6-C ) :   1.0491 B(  3-C ,  4-C ) :   1.5707 B(  3-C ,  5-H ) :   0.9764
B(  4-C , 20-C ) :   1.0179 B(  6-C ,  7-H ) :   0.9333 B(  6-C ,  8-H ) :   0.9441
B(  6-C ,  9-C ) :   1.0587 B(  9-C , 10-H ) :   0.9577 B(  9-C , 11-H ) :   0.9612
B(  9-C , 12-C ) :   1.0856 B( 12-C , 13-H ) :   0.9742 B( 12-C , 14-H ) :   0.9748
B( 12-C , 15-H ) :   0.9703 B( 16-S , 17-C ) :   1.1656 B( 16-S , 20-C ) :   1.1422
B( 17-C , 18-C ) :   1.5850 B( 17-C , 33-H ) :   0.9733 B( 18-C , 19-C ) :   1.2495
B( 18-C , 21-H ) :   0.9881 B( 19-C , 20-C ) :   1.5921 B( 19-C , 22-C ) :   1.0446
B( 22-C , 23-H ) :   0.9194 B( 22-C , 24-H ) :   0.9384 B( 22-C , 25-C ) :   1.0465
B( 25-C , 26-H ) :   0.9627 B( 25-C , 27-H ) :   0.9584 B( 25-C , 28-C ) :   1.0721
B( 28-C , 29-H ) :   0.9793 B( 28-C , 30-H ) :   0.9765 B( 28-C , 31-H ) :   0.9774

Dispersion correction           -0.014106245
FINAL SINGLE POINT ENERGY     -1339.869148209280

DIPOLE MOMENT
-------------
                                X             Y             Z
Electronic contribution:     -1.17966      22.60299      22.17452
Nuclear contribution   :      0.85451     -22.98307     -22.62859
                        -----------------------------------------
Total Dipole Moment    :     -0.32514      -0.38008      -0.45407
                        -----------------------------------------
Magnitude (a.u.)       :      0.67554
Magnitude (Debye)      :      1.71710

Rotational constants in cm-1:     0.019583     0.008619     0.006563
Rotational constants in MHz :   587.074972   258.400777   196.757080

                             ****ORCA TERMINATED NORMALLY****
TOTAL RUN TIME: 0 days 0 hours 0 minutes 21 seconds 733 msec
