                         Program Version 4.2.1 -  RELEASE  -
|  1> ! wB97X-D3 SP def2-SVP
|  2> %pal
|  3> nprocs 24
|  4> end
|  5>
|  6> * xyz 0 1
|  7> S 	 -138.511 	 8.02281 	 -3.06276
|  8> C 	 -139.794 	 9.21387 	 -3.08087
|  9> C 	 -140.596 	 9.04841 	 -4.23472
| 10> C 	 -140.135 	 7.97205 	 -5.0396
| 11> C 	 -139.101 	 7.30125 	 -4.48509
| 12> H 	 -140.51 	 7.71684 	 -6.0664
| 13> C 	 -141.874 	 9.79149 	 -4.66634
| 14> H 	 -142.755 	 9.25271 	 -4.40683
| 15> H 	 -141.792 	 9.77645 	 -5.72481
| 16> C 	 -142.127 	 11.2573 	 -4.25424
| 17> H 	 -142.422 	 11.1569 	 -3.19732
| 18> H 	 -141.179 	 11.807 	 -4.19888
| 19> C 	 -143.176 	 11.8469 	 -5.15848
| 20> H 	 -144.093 	 11.2732 	 -4.97928
| 21> H 	 -143.375 	 12.8494 	 -4.92868
| 22> H 	 -142.898 	 11.8207 	 -6.2247
| 23> S 	 -136.74 	 6.40185 	 -5.75475
| 24> C 	 -136.785 	 4.72622 	 -6.40565
| 25> C 	 -137.968 	 4.1242 	 -6.07386
| 26> C 	 -138.881 	 4.951 	 -5.37968
| 27> C 	 -138.381 	 6.23775 	 -5.10015
| 28> H 	 -138.13 	 3.08986 	 -6.40877
| 29> C 	 -140.233 	 4.4516 	 -4.8281
| 30> H 	 -140.587 	 3.61806 	 -5.32935
| 31> H 	 -140.951 	 5.21415 	 -5.13689
| 32> C 	 -140.158 	 4.20269 	 -3.31684
| 33> H 	 -139.488 	 5.00881 	 -2.9025
| 34> H 	 -139.608 	 3.23089 	 -3.13793
| 35> C 	 -141.559 	 4.18117 	 -2.62892
| 36> H 	 -142.136 	 5.03104 	 -3.06224
| 37> H 	 -141.327 	 4.30788 	 -1.56452
| 38> H 	 -142.062 	 3.27696 	 -2.68277
| 39> H 	 -139.993 	 9.9256 	 -2.33477
| 40> H 	 -135.991 	 4.29943 	 -6.96878
| 41> *
| 42>
| 43>                          ****END OF INPUT****

CARTESIAN COORDINATES (ANGSTROEM)
---------------------------------
  S    -138.511000    8.022810   -3.062760
  C    -139.794000    9.213870   -3.080870
  C    -140.596000    9.048410   -4.234720
  C    -140.135000    7.972050   -5.039600
  C    -139.101000    7.301250   -4.485090
  H    -140.510000    7.716840   -6.066400
  C    -141.874000    9.791490   -4.666340
  H    -142.755000    9.252710   -4.406830
  H    -141.792000    9.776450   -5.724810
  C    -142.127000   11.257300   -4.254240
  H    -142.422000   11.156900   -3.197320
  H    -141.179000   11.807000   -4.198880
  C    -143.176000   11.846900   -5.158480
  H    -144.093000   11.273200   -4.979280
  H    -143.375000   12.849400   -4.928680
  H    -142.898000   11.820700   -6.224700
  S    -136.740000    6.401850   -5.754750
  C    -136.785000    4.726220   -6.405650
  C    -137.968000    4.124200   -6.073860
  C    -138.881000    4.951000   -5.379680
  C    -138.381000    6.237750   -5.100150
  H    -138.130000    3.089860   -6.408770
  C    -140.233000    4.451600   -4.828100
  H    -140.587000    3.618060   -5.329350
  H    -140.951000    5.214150   -5.136890
  C    -140.158000    4.202690   -3.316840
  H    -139.488000    5.008810   -2.902500
  H    -139.608000    3.230890   -3.137930
  C    -141.559000    4.181170   -2.628920
  H    -142.136000    5.031040   -3.062240
  H    -141.327000    4.307880   -1.564520
  H    -142.062000    3.276960   -2.682770
  H    -139.993000    9.925600   -2.334770
  H    -135.991000    4.299430   -6.968780

 Total Charge           Charge          ....    0
 Multiplicity           Mult            ....    1
 Number of Electrons    NEL             ....  134
 Basis Dimension        Dim             ....  322

ORBITAL ENERGIES
----------------

  NO   OCC          E(Eh)            E(eV)
   0   2.0000     -88.968300     -2420.9505
   1   2.0000     -88.964574     -2420.8491
   2   2.0000     -10.323254      -280.9100
   3   2.0000     -10.319541      -280.8090
   4   2.0000     -10.317060      -280.7415
   5   2.0000     -10.314232      -280.6645
   6   2.0000     -10.305384      -280.4238
   7   2.0000     -10.301252      -280.3113
   8   2.0000     -10.292769      -280.0805
   9   2.0000     -10.292577      -280.0753
  10   2.0000     -10.287887      -279.9476
  11   2.0000     -10.287312      -279.9320
  12   2.0000     -10.286741      -279.9165
  13   2.0000     -10.281259      -279.7673
  14   2.0000     -10.278181      -279.6835
  15   2.0000     -10.272847      -279.5384
  16   2.0000      -8.083623      -219.9666
  17   2.0000      -8.078088      -219.8159
  18   2.0000      -6.042042      -164.4123
  19   2.0000      -6.037916      -164.3000
  20   2.0000      -6.036648      -164.2656
  21   2.0000      -6.034577      -164.2092
  22   2.0000      -6.032781      -164.1603
  23   2.0000      -6.028864      -164.0537
  24   2.0000      -1.011186       -27.5158
  25   2.0000      -0.979521       -26.6541
  26   2.0000      -0.915552       -24.9134
  27   2.0000      -0.900179       -24.4951
  28   2.0000      -0.872026       -23.7290
  29   2.0000      -0.855329       -23.2747
  30   2.0000      -0.840795       -22.8792
  31   2.0000      -0.812684       -22.1142
  32   2.0000      -0.784175       -21.3385
  33   2.0000      -0.769572       -20.9411
  34   2.0000      -0.712794       -19.3961
  35   2.0000      -0.700989       -19.0749
  36   2.0000      -0.688524       -18.7357
  37   2.0000      -0.656566       -17.8661
  38   2.0000      -0.645156       -17.5556
  39   2.0000      -0.614707       -16.7270
  40   2.0000      -0.592397       -16.1199
  41   2.0000      -0.573325       -15.6010
  42   2.0000      -0.567376       -15.4391
  43   2.0000      -0.559864       -15.2347
  44   2.0000      -0.529340       -14.4041
  45   2.0000      -0.519924       -14.1478
  46   2.0000      -0.518601       -14.1118
  47   2.0000      -0.511816       -13.9272
  48   2.0000      -0.501924       -13.6581
  49   2.0000      -0.499625       -13.5955
  50   2.0000      -0.495820       -13.4919
  51   2.0000      -0.480757       -13.0821
  52   2.0000      -0.474448       -12.9104
  53   2.0000      -0.464640       -12.6435
  54   2.0000      -0.457530       -12.4500
  55   2.0000      -0.452656       -12.3174
  56   2.0000      -0.438862       -11.9420
  57   2.0000      -0.434637       -11.8271
  58   2.0000      -0.431623       -11.7451
  59   2.0000      -0.426565       -11.6074
  60   2.0000      -0.419377       -11.4118
  61   2.0000      -0.416574       -11.3356
  62   2.0000      -0.405702       -11.0397
  63   2.0000      -0.343014        -9.3339
  64   2.0000      -0.330691        -8.9986
  65   2.0000      -0.326931        -8.8962
  66   2.0000      -0.296226        -8.0607
  67   0.0000       0.035485         0.9656
  68   0.0000       0.061225         1.6660
  69   0.0000       0.114915         3.1270
  70   0.0000       0.124692         3.3930
  71   0.0000       0.127300         3.4640

MULLIKEN ATOMIC CHARGES
-----------------------
   0 S :    0.128240
   1 C :   -0.109096
   2 C :   -0.080614
   3 C :    0.022774
   4 C :   -0.188541
   5 H :    0.037833
   6 C :    0.050395
   7 H :    0.035519
   8 H :    0.011431
   9 C :   -0.089436
  10 H :    0.029299
  11 H :    0.029877
  12 C :   -0.017248
  13 H :    0.030044
  14 H :    0.022603
  15 H :    0.039545
  16 S :    0.101437
  17 C :   -0.099956
  18 C :   -0.021108
  19 C :   -0.064591
  20 C :   -0.155755
  21 H :    0.025746
  22 C :    0.140759
  23 H :   -0.008455
  24 H :    0.009708
  25 C :   -0.114089
  26 H :    0.041320
  27 H :    0.033431
  28 C :   -0.021202
  29 H :    0.042303
  30 H :    0.035516
  31 H :    0.023790
  32 H :    0.028464
  33 H :    0.050056
Sum of atomic charges:    0.0000000

LOEWDIN ATOMIC CHARGES
----------------------
   0 S :    0.436170
   1 C :   -0.197979
   2 C :   -0.054313
   3 C :   -0.063575
   4 C :   -0.214479
   5 H :    0.043284
   6 C :   -0.028827
   7 H :    0.029618
   8 H :    0.023610
   9 C :   -0.045874
  10 H :    0.024601
  11 H :    0.022127
  12 C :   -0.057651
  13 H :    0.030323
  14 H :    0.019515
  15 H :    0.030663
  16 S :    0.375872
  17 C :   -0.165492
  18 C :   -0.075154
  19 C :   -0.050233
  20 C :   -0.202167
  21 H :    0.037142
  22 C :   -0.029875
  23 H :    0.015497
  24 H :    0.028260
  25 C :   -0.042125
  26 H :    0.025727
  27 H :    0.028542
  28 C :   -0.062216
  29 H :    0.031875
  30 H :    0.032082
  31 H :    0.013598
  32 H :    0.016917
  33 H :    0.024536

  Mayer bond orders larger than 0.100000
B(  0-S ,  1-C ) :   1.1393 B(  0-S ,  4-C ) :   1.1611 B(  1-C ,  2-C ) :   1.5920
B(  1-C , 32-H ) :   0.9798 B(  2-C ,  3-C ) :   1.2578 B(  2-C ,  6-C ) :   0.9991
B(  3-C ,  4-C ) :   1.5914 B(  3-C ,  5-H ) :   0.9797 B(  4-C , 20-C ) :   1.0322
B(  6-C ,  7-H ) :   0.9392 B(  6-C ,  8-H ) :   0.9474 B(  6-C ,  9-C ) :   1.0608
B(  9-C , 10-H ) :   0.9509 B(  9-C , 11-H ) :   0.9613 B(  9-C , 12-C ) :   1.0857
B( 12-C , 13-H ) :   0.9718 B( 12-C , 14-H ) :   0.9710 B( 12-C , 15-H ) :   0.9749
B( 16-S , 17-C ) :   1.1442 B( 16-S , 20-C ) :   1.1345 B( 17-C , 18-C ) :   1.6053
B( 17-C , 20-C ) :   0.1066 B( 17-C , 33-H ) :   0.9722 B( 18-C , 19-C ) :   1.2611
B( 18-C , 21-H ) :   0.9860 B( 19-C , 20-C ) :   1.5783 B( 19-C , 22-C ) :   1.0420
B( 22-C , 23-H ) :   0.9273 B( 22-C , 24-H ) :   0.9240 B( 22-C , 25-C ) :   1.0538
B( 25-C , 26-H ) :   0.9638 B( 25-C , 27-H ) :   0.9512 B( 25-C , 28-C ) :   1.0674
B( 28-C , 29-H ) :   0.9774 B( 28-C , 30-H ) :   0.9742 B( 28-C , 31-H ) :   0.9769

Dispersion correction           -0.014530355
FINAL SINGLE POINT ENERGY     -1339.878075420025

DIPOLE MOMENT
-------------
                                X             Y             Z
Electronic contribution:     25.91108      -3.87201      -2.61746
Nuclear contribution   :    -26.54644       3.81213       2.45399
                        -----------------------------------------
Total Dipole Moment    :     -0.63536      -0.05988      -0.16347
                        -----------------------------------------
Magnitude (a.u.)       :      0.65878
Magnitude (Debye)      :      1.67449

Rotational constants in cm-1:     0.020169     0.007859     0.006834
Rotational constants in MHz :   604.661117   235.597417   204.891124

                             ****ORCA TERMINATED NORMALLY****
TOTAL RUN TIME: 0 days 0 hours 0 minutes 20 seconds 620 msec
