                         Program Version 4.2.1 -  RELEASE  -
|  1> ! wB97X-D3 SP def2-SVP
|  2> %pal
|  3> nprocs 24
|  4> end
|  5>
|  6> * xyz 0 1
|  7> S 	 -128.48 	 12.6943 	 -12.4806
|  8> C 	 -128.12 	 11.5618 	 -11.1028
|  9> C 	 -128.04 	 10.2774 	 -11.5751
| 10> C 	 -127.972 	 10.2554 	 -13.0046
| 11> C 	 -128.383 	 11.3988 	 -13.64
| 12> H 	 -127.678 	 9.38273 	 -13.5566
| 13> C 	 -127.65 	 9.0548 	 -10.7193
| 14> H 	 -128.405 	 8.33453 	 -11.0597
| 15> H 	 -127.938 	 9.26925 	 -9.68119
| 16> C 	 -126.168 	 8.60247 	 -10.74
| 17> H 	 -126.021 	 7.64545 	 -10.2776
| 18> H 	 -126.039 	 8.39099 	 -11.7284
| 19> C 	 -125.173 	 9.48619 	 -9.98979
| 20> H 	 -125.583 	 9.94376 	 -9.06714
| 21> H 	 -124.208 	 8.90916 	 -9.78328
| 22> H 	 -124.984 	 10.3275 	 -10.5762
| 23> S 	 -127.884 	 13.1578 	 -15.6433
| 24> C 	 -128.454 	 12.8126 	 -17.2905
| 25> C 	 -128.768 	 11.466 	 -17.4256
| 26> C 	 -128.656 	 10.7188 	 -16.2064
| 27> C 	 -128.289 	 11.5308 	 -15.1281
| 28> H 	 -129.059 	 11.2523 	 -18.4305
| 29> C 	 -129.129 	 9.28208 	 -16.198
| 30> H 	 -128.429 	 8.7223 	 -15.5912
| 31> H 	 -128.97 	 8.99713 	 -17.2776
| 32> C 	 -130.589 	 9.00183 	 -15.862
| 33> H 	 -131.186 	 9.4782 	 -16.6388
| 34> H 	 -130.868 	 9.5693 	 -14.9499
| 35> C 	 -130.844 	 7.54097 	 -15.4757
| 36> H 	 -130.207 	 7.45335 	 -14.5705
| 37> H 	 -130.562 	 6.77231 	 -16.1771
| 38> H 	 -131.91 	 7.39354 	 -15.1373
| 39> H 	 -128.21 	 11.8207 	 -10.0731
| 40> H 	 -128.531 	 13.5171 	 -18.1019
| 41> *
| 42>
| 43>                          ****END OF INPUT****

CARTESIAN COORDINATES (ANGSTROEM)
---------------------------------
  S    -128.480000   12.694300  -12.480600
  C    -128.120000   11.561800  -11.102800
  C    -128.040000   10.277400  -11.575100
  C    -127.972000   10.255400  -13.004600
  C    -128.383000   11.398800  -13.640000
  H    -127.678000    9.382730  -13.556600
  C    -127.650000    9.054800  -10.719300
  H    -128.405000    8.334530  -11.059700
  H    -127.938000    9.269250   -9.681190
  C    -126.168000    8.602470  -10.740000
  H    -126.021000    7.645450  -10.277600
  H    -126.039000    8.390990  -11.728400
  C    -125.173000    9.486190   -9.989790
  H    -125.583000    9.943760   -9.067140
  H    -124.208000    8.909160   -9.783280
  H    -124.984000   10.327500  -10.576200
  S    -127.884000   13.157800  -15.643300
  C    -128.454000   12.812600  -17.290500
  C    -128.768000   11.466000  -17.425600
  C    -128.656000   10.718800  -16.206400
  C    -128.289000   11.530800  -15.128100
  H    -129.059000   11.252300  -18.430500
  C    -129.129000    9.282080  -16.198000
  H    -128.429000    8.722300  -15.591200
  H    -128.970000    8.997130  -17.277600
  C    -130.589000    9.001830  -15.862000
  H    -131.186000    9.478200  -16.638800
  H    -130.868000    9.569300  -14.949900
  C    -130.844000    7.540970  -15.475700
  H    -130.207000    7.453350  -14.570500
  H    -130.562000    6.772310  -16.177100
  H    -131.910000    7.393540  -15.137300
  H    -128.210000   11.820700  -10.073100
  H    -128.531000   13.517100  -18.101900

 Total Charge           Charge          ....    0
 Multiplicity           Mult            ....    1
 Number of Electrons    NEL             ....  134
 Basis Dimension        Dim             ....  322

ORBITAL ENERGIES
----------------

  NO   OCC          E(Eh)            E(eV)
   0   2.0000     -88.968685     -2420.9610
   1   2.0000     -88.964331     -2420.8425
   2   2.0000     -10.333834      -281.1979
   3   2.0000     -10.333663      -281.1933
   4   2.0000     -10.318758      -280.7877
   5   2.0000     -10.317661      -280.7578
   6   2.0000     -10.308904      -280.5196
   7   2.0000     -10.303285      -280.3666
   8   2.0000     -10.297589      -280.2117
   9   2.0000     -10.295014      -280.1416
  10   2.0000     -10.293851      -280.1099
  11   2.0000     -10.291276      -280.0399
  12   2.0000     -10.287201      -279.9290
  13   2.0000     -10.285109      -279.8720
  14   2.0000     -10.281566      -279.7756
  15   2.0000     -10.281125      -279.7636
  16   2.0000      -8.082330      -219.9314
  17   2.0000      -8.078759      -219.8342
  18   2.0000      -6.041172      -164.3887
  19   2.0000      -6.037309      -164.2835
  20   2.0000      -6.036994      -164.2750
  21   2.0000      -6.033248      -164.1730
  22   2.0000      -6.032766      -164.1599
  23   2.0000      -6.029560      -164.0727
  24   2.0000      -1.004389       -27.3308
  25   2.0000      -0.981179       -26.6992
  26   2.0000      -0.912292       -24.8247
  27   2.0000      -0.909106       -24.7380
  28   2.0000      -0.869024       -23.6473
  29   2.0000      -0.851363       -23.1668
  30   2.0000      -0.843793       -22.9608
  31   2.0000      -0.816502       -22.2182
  32   2.0000      -0.783082       -21.3088
  33   2.0000      -0.773331       -21.0434
  34   2.0000      -0.712802       -19.3963
  35   2.0000      -0.704896       -19.1812
  36   2.0000      -0.692743       -18.8505
  37   2.0000      -0.662843       -18.0369
  38   2.0000      -0.637310       -17.3421
  39   2.0000      -0.624962       -17.0061
  40   2.0000      -0.590878       -16.0786
  41   2.0000      -0.569711       -15.5026
  42   2.0000      -0.563253       -15.3269
  43   2.0000      -0.554730       -15.0950
  44   2.0000      -0.546490       -14.8708
  45   2.0000      -0.521684       -14.1957
  46   2.0000      -0.518075       -14.0975
  47   2.0000      -0.511601       -13.9214
  48   2.0000      -0.506185       -13.7740
  49   2.0000      -0.491280       -13.3684
  50   2.0000      -0.490828       -13.3561
  51   2.0000      -0.485818       -13.2198
  52   2.0000      -0.471368       -12.8266
  53   2.0000      -0.466135       -12.6842
  54   2.0000      -0.454622       -12.3709
  55   2.0000      -0.449970       -12.2443
  56   2.0000      -0.444628       -12.0989
  57   2.0000      -0.436126       -11.8676
  58   2.0000      -0.434730       -11.8296
  59   2.0000      -0.429637       -11.6910
  60   2.0000      -0.420759       -11.4494
  61   2.0000      -0.409037       -11.1305
  62   2.0000      -0.405691       -11.0394
  63   2.0000      -0.354358        -9.6426
  64   2.0000      -0.332387        -9.0447
  65   2.0000      -0.332277        -9.0417
  66   2.0000      -0.288118        -7.8401
  67   0.0000       0.018518         0.5039
  68   0.0000       0.079279         2.1573
  69   0.0000       0.098465         2.6794
  70   0.0000       0.109638         2.9834
  71   0.0000       0.134312         3.6548

MULLIKEN ATOMIC CHARGES
-----------------------
   0 S :    0.088488
   1 C :   -0.116539
   2 C :   -0.077982
   3 C :   -0.030641
   4 C :   -0.062537
   5 H :    0.008785
   6 C :    0.030000
   7 H :    0.035722
   8 H :    0.013300
   9 C :    0.002544
  10 H :    0.020601
  11 H :   -0.000827
  12 C :   -0.050391
  13 H :    0.029637
  14 H :    0.051524
  15 H :    0.028203
  16 S :    0.088666
  17 C :   -0.105374
  18 C :   -0.040663
  19 C :   -0.035151
  20 C :   -0.149743
  21 H :    0.014427
  22 C :    0.047848
  23 H :    0.014812
  24 H :    0.028093
  25 C :   -0.049855
  26 H :    0.023632
  27 H :    0.035157
  28 C :   -0.055653
  29 H :    0.029540
  30 H :    0.038085
  31 H :    0.047269
  32 H :    0.046510
  33 H :    0.052513
Sum of atomic charges:   -0.0000000

LOEWDIN ATOMIC CHARGES
----------------------
   0 S :    0.376951
   1 C :   -0.169824
   2 C :   -0.063281
   3 C :   -0.066844
   4 C :   -0.193280
   5 H :    0.023558
   6 C :   -0.029894
   7 H :    0.034726
   8 H :    0.024911
   9 C :   -0.034633
  10 H :    0.026275
  11 H :    0.011131
  12 C :   -0.062471
  13 H :    0.029779
  14 H :    0.039079
  15 H :    0.018237
  16 S :    0.388397
  17 C :   -0.175459
  18 C :   -0.070150
  19 C :   -0.060074
  20 C :   -0.182138
  21 H :    0.031810
  22 C :   -0.034793
  23 H :    0.021238
  24 H :    0.038478
  25 C :   -0.044654
  26 H :    0.021535
  27 H :    0.031224
  28 C :   -0.066488
  29 H :    0.030276
  30 H :    0.020292
  31 H :    0.034804
  32 H :    0.024270
  33 H :    0.027013

  Mayer bond orders larger than 0.100000
B(  0-S ,  1-C ) :   1.1126 B(  0-S ,  4-C ) :   1.1383 B(  1-C ,  2-C ) :   1.6262
B(  1-C , 32-H ) :   0.9677 B(  2-C ,  3-C ) :   1.2203 B(  2-C ,  6-C ) :   1.0255
B(  3-C ,  4-C ) :   1.5828 B(  3-C ,  5-H ) :   0.9902 B(  4-C , 20-C ) :   1.0457
B(  6-C ,  7-H ) :   0.9381 B(  6-C ,  8-H ) :   0.9439 B(  6-C ,  9-C ) :   1.0620
B(  9-C , 10-H ) :   0.9536 B(  9-C , 11-H ) :   0.9563 B(  9-C , 12-C ) :   1.0611
B( 12-C , 13-H ) :   0.9726 B( 12-C , 14-H ) :   0.9755 B( 12-C , 15-H ) :   0.9777
B( 16-S , 17-C ) :   1.1411 B( 16-S , 20-C ) :   1.1369 B( 17-C , 18-C ) :   1.6378
B( 17-C , 33-H ) :   0.9670 B( 18-C , 19-C ) :   1.2214 B( 18-C , 21-H ) :   0.9949
B( 19-C , 20-C ) :   1.5925 B( 19-C , 22-C ) :   1.0383 B( 22-C , 23-H ) :   0.9362
B( 22-C , 24-H ) :   0.9272 B( 22-C , 25-C ) :   1.0633 B( 25-C , 26-H ) :   0.9515
B( 25-C , 27-H ) :   0.9583 B( 25-C , 28-C ) :   1.0621 B( 28-C , 29-H ) :   0.9756
B( 28-C , 30-H ) :   0.9786 B( 28-C , 31-H ) :   0.9735

Dispersion correction           -0.014316673
FINAL SINGLE POINT ENERGY     -1339.853890531408

DIPOLE MOMENT
-------------
                                X             Y             Z
Electronic contribution:     -0.08825      25.70740      -7.06786
Nuclear contribution   :      0.04564     -26.35104       7.05921
                        -----------------------------------------
Total Dipole Moment    :     -0.04260      -0.64363      -0.00864
                        -----------------------------------------
Magnitude (a.u.)       :      0.64510
Magnitude (Debye)      :      1.63972

Rotational constants in cm-1:     0.017650     0.008997     0.006881
Rotational constants in MHz :   529.139975   269.733350   206.274824

                             ****ORCA TERMINATED NORMALLY****
TOTAL RUN TIME: 0 days 0 hours 0 minutes 21 seconds 751 msec
