                         Program Version 4.2.1 -  RELEASE  -
|  1> ! wB97X-D3 SP def2-SVP
|  2> %pal
|  3> nprocs 24
|  4> end
|  5>
|  6> * xyz 0 1
|  7> S 	 -46.5498 	 11.4766 	 -16.7601
|  8> C 	 -46.0776 	 9.75927 	 -16.9663
|  9> C 	 -45.0427 	 9.65521 	 -17.8809
| 10> C 	 -44.8398 	 10.893 	 -18.5839
| 11> C 	 -45.4849 	 11.994 	 -18.0911
| 12> H 	 -44.1649 	 10.9263 	 -19.4513
| 13> C 	 -44.2797 	 8.41166 	 -18.1148
| 14> H 	 -44.5527 	 8.12849 	 -19.1254
| 15> H 	 -44.6988 	 7.72365 	 -17.3881
| 16> C 	 -42.8311 	 8.59672 	 -17.7899
| 17> H 	 -42.4132 	 9.44375 	 -18.3608
| 18> H 	 -42.841 	 8.86638 	 -16.708
| 19> C 	 -41.9406 	 7.41929 	 -18.1049
| 20> H 	 -40.9385 	 7.3548 	 -17.5811
| 21> H 	 -42.4259 	 6.46722 	 -17.7459
| 22> H 	 -41.7101 	 7.40062 	 -19.2475
| 23> S 	 -46.9343 	 14.1749 	 -18.6547
| 24> C 	 -46.1437 	 15.675 	 -19.0888
| 25> C 	 -44.7624 	 15.532 	 -19.0561
| 26> C 	 -44.2855 	 14.2594 	 -18.7572
| 27> C 	 -45.4006 	 13.403 	 -18.5373
| 28> H 	 -44.2074 	 16.4076 	 -19.3082
| 29> C 	 -42.8999 	 13.9513 	 -18.7033
| 30> H 	 -42.6565 	 13.4022 	 -17.7854
| 31> H 	 -42.3085 	 14.8896 	 -18.6414
| 32> C 	 -42.2901 	 13.059 	 -19.7804
| 33> H 	 -42.3601 	 11.9654 	 -19.5576
| 34> H 	 -41.1989 	 13.3143 	 -19.6976
| 35> C 	 -42.6897 	 13.3508 	 -21.2127
| 36> H 	 -42.3414 	 14.4022 	 -21.4706
| 37> H 	 -43.8 	 13.3257 	 -21.37
| 38> H 	 -42.1604 	 12.6818 	 -21.8788
| 39> H 	 -46.4332 	 8.90016 	 -16.4092
| 40> H 	 -46.6687 	 16.6093 	 -19.1922
| 41> *
| 42>
| 43>                          ****END OF INPUT****

CARTESIAN COORDINATES (ANGSTROEM)
---------------------------------
  S    -46.549800   11.476600  -16.760100
  C    -46.077600    9.759270  -16.966300
  C    -45.042700    9.655210  -17.880900
  C    -44.839800   10.893000  -18.583900
  C    -45.484900   11.994000  -18.091100
  H    -44.164900   10.926300  -19.451300
  C    -44.279700    8.411660  -18.114800
  H    -44.552700    8.128490  -19.125400
  H    -44.698800    7.723650  -17.388100
  C    -42.831100    8.596720  -17.789900
  H    -42.413200    9.443750  -18.360800
  H    -42.841000    8.866380  -16.708000
  C    -41.940600    7.419290  -18.104900
  H    -40.938500    7.354800  -17.581100
  H    -42.425900    6.467220  -17.745900
  H    -41.710100    7.400620  -19.247500
  S    -46.934300   14.174900  -18.654700
  C    -46.143700   15.675000  -19.088800
  C    -44.762400   15.532000  -19.056100
  C    -44.285500   14.259400  -18.757200
  C    -45.400600   13.403000  -18.537300
  H    -44.207400   16.407600  -19.308200
  C    -42.899900   13.951300  -18.703300
  H    -42.656500   13.402200  -17.785400
  H    -42.308500   14.889600  -18.641400
  C    -42.290100   13.059000  -19.780400
  H    -42.360100   11.965400  -19.557600
  H    -41.198900   13.314300  -19.697600
  C    -42.689700   13.350800  -21.212700
  H    -42.341400   14.402200  -21.470600
  H    -43.800000   13.325700  -21.370000
  H    -42.160400   12.681800  -21.878800
  H    -46.433200    8.900160  -16.409200
  H    -46.668700   16.609300  -19.192200

 Total Charge           Charge          ....    0
 Multiplicity           Mult            ....    1
 Number of Electrons    NEL             ....  134
 Basis Dimension        Dim             ....  322

ORBITAL ENERGIES
----------------

  NO   OCC          E(Eh)            E(eV)
   0   2.0000     -88.969401     -2420.9805
   1   2.0000     -88.963784     -2420.8276
   2   2.0000     -10.332103      -281.1508
   3   2.0000     -10.328697      -281.0581
   4   2.0000     -10.314794      -280.6798
   5   2.0000     -10.314224      -280.6643
   6   2.0000     -10.300656      -280.2951
   7   2.0000     -10.296886      -280.1925
   8   2.0000     -10.293447      -280.0989
   9   2.0000     -10.292379      -280.0699
  10   2.0000     -10.291040      -280.0334
  11   2.0000     -10.290170      -280.0098
  12   2.0000     -10.289689      -279.9967
  13   2.0000     -10.288126      -279.9541
  14   2.0000     -10.287823      -279.9459
  15   2.0000     -10.281728      -279.7800
  16   2.0000      -8.084370      -219.9869
  17   2.0000      -8.077296      -219.7944
  18   2.0000      -6.042608      -164.4277
  19   2.0000      -6.038762      -164.3231
  20   2.0000      -6.036083      -164.2502
  21   2.0000      -6.035490      -164.2340
  22   2.0000      -6.032016      -164.1395
  23   2.0000      -6.027777      -164.0241
  24   2.0000      -1.007439       -27.4138
  25   2.0000      -0.982937       -26.7471
  26   2.0000      -0.923025       -25.1168
  27   2.0000      -0.918953       -25.0060
  28   2.0000      -0.868731       -23.6394
  29   2.0000      -0.854514       -23.2525
  30   2.0000      -0.841272       -22.8922
  31   2.0000      -0.817249       -22.2385
  32   2.0000      -0.785184       -21.3660
  33   2.0000      -0.770142       -20.9566
  34   2.0000      -0.710065       -19.3218
  35   2.0000      -0.694687       -18.9034
  36   2.0000      -0.685589       -18.6558
  37   2.0000      -0.665519       -18.1097
  38   2.0000      -0.637039       -17.3347
  39   2.0000      -0.621488       -16.9115
  40   2.0000      -0.593383       -16.1468
  41   2.0000      -0.576035       -15.6747
  42   2.0000      -0.565983       -15.4012
  43   2.0000      -0.558822       -15.2063
  44   2.0000      -0.551092       -14.9960
  45   2.0000      -0.523390       -14.2422
  46   2.0000      -0.517286       -14.0761
  47   2.0000      -0.506505       -13.7827
  48   2.0000      -0.504651       -13.7323
  49   2.0000      -0.499595       -13.5947
  50   2.0000      -0.493302       -13.4234
  51   2.0000      -0.485837       -13.2203
  52   2.0000      -0.470450       -12.8016
  53   2.0000      -0.460553       -12.5323
  54   2.0000      -0.455134       -12.3848
  55   2.0000      -0.448555       -12.2058
  56   2.0000      -0.442805       -12.0493
  57   2.0000      -0.437973       -11.9179
  58   2.0000      -0.429944       -11.6994
  59   2.0000      -0.424763       -11.5584
  60   2.0000      -0.419973       -11.4281
  61   2.0000      -0.416918       -11.3449
  62   2.0000      -0.409312       -11.1379
  63   2.0000      -0.346351        -9.4247
  64   2.0000      -0.332604        -9.0506
  65   2.0000      -0.325564        -8.8591
  66   2.0000      -0.289317        -7.8727
  67   0.0000       0.025048         0.6816
  68   0.0000       0.073298         1.9945
  69   0.0000       0.106543         2.8992
  70   0.0000       0.119538         3.2528
  71   0.0000       0.126075         3.4307

MULLIKEN ATOMIC CHARGES
-----------------------
   0 S :    0.093889
   1 C :   -0.119760
   2 C :   -0.141912
   3 C :    0.016684
   4 C :   -0.116690
   5 H :    0.014034
   6 C :    0.120592
   7 H :    0.035797
   8 H :    0.005503
   9 C :   -0.097449
  10 H :    0.035500
  11 H :    0.038670
  12 C :   -0.080288
  13 H :    0.045924
  14 H :    0.032005
  15 H :    0.048902
  16 S :    0.121848
  17 C :   -0.097342
  18 C :   -0.049966
  19 C :    0.011566
  20 C :   -0.179945
  21 H :    0.008151
  22 C :    0.089520
  23 H :    0.035089
  24 H :    0.021811
  25 C :   -0.124326
  26 H :    0.037234
  27 H :    0.031940
  28 C :   -0.057084
  29 H :    0.027713
  30 H :    0.057289
  31 H :    0.035140
  32 H :    0.046633
  33 H :    0.053329
Sum of atomic charges:   -0.0000000

LOEWDIN ATOMIC CHARGES
----------------------
   0 S :    0.365976
   1 C :   -0.190147
   2 C :   -0.061238
   3 C :   -0.070706
   4 C :   -0.183444
   5 H :    0.029880
   6 C :   -0.030447
   7 H :    0.032500
   8 H :    0.030128
   9 C :   -0.050136
  10 H :    0.024140
  11 H :    0.034022
  12 C :   -0.082294
  13 H :    0.032682
  14 H :    0.026505
  15 H :    0.036646
  16 S :    0.434828
  17 C :   -0.190309
  18 C :   -0.065361
  19 C :   -0.058391
  20 C :   -0.204182
  21 H :    0.028630
  22 C :   -0.042382
  23 H :    0.044149
  24 H :    0.037614
  25 C :   -0.048660
  26 H :    0.020259
  27 H :    0.032103
  28 C :   -0.073612
  29 H :    0.029489
  30 H :    0.031435
  31 H :    0.024928
  32 H :    0.029086
  33 H :    0.026309

  Mayer bond orders larger than 0.100000
B(  0-S ,  1-C ) :   1.1122 B(  0-S ,  4-C ) :   1.1277 B(  1-C ,  2-C ) :   1.6391
B(  1-C , 32-H ) :   0.9625 B(  2-C ,  3-C ) :   1.2158 B(  2-C ,  6-C ) :   1.0310
B(  3-C ,  4-C ) :   1.6065 B(  3-C ,  5-H ) :   0.9848 B(  4-C , 20-C ) :   1.0386
B(  6-C ,  7-H ) :   0.9311 B(  6-C ,  8-H ) :   0.9268 B(  6-C ,  9-C ) :   1.0639
B(  9-C , 10-H ) :   0.9584 B(  9-C , 11-H ) :   0.9485 B(  9-C , 12-C ) :   1.0819
B( 12-C , 13-H ) :   0.9738 B( 12-C , 14-H ) :   0.9708 B( 12-C , 15-H ) :   0.9728
B( 16-S , 17-C ) :   1.1643 B( 16-S , 20-C ) :   1.1839 B( 17-C , 18-C ) :   1.5752
B( 17-C , 20-C ) :   0.1092 B( 17-C , 33-H ) :   0.9700 B( 18-C , 19-C ) :   1.2691
B( 18-C , 21-H ) :   0.9941 B( 19-C , 20-C ) :   1.4913 B( 19-C , 22-C ) :   1.0921
B( 22-C , 23-H ) :   0.9075 B( 22-C , 24-H ) :   0.9260 B( 22-C , 25-C ) :   1.0656
B( 25-C , 26-H ) :   0.9493 B( 25-C , 27-H ) :   0.9511 B( 25-C , 28-C ) :   1.0865
B( 28-C , 29-H ) :   0.9730 B( 28-C , 30-H ) :   0.9676 B( 28-C , 31-H ) :   0.9723

Dispersion correction           -0.015171084
FINAL SINGLE POINT ENERGY     -1339.879173122937

DIPOLE MOMENT
-------------
                                X             Y             Z
Electronic contribution:    -25.99084      13.84234       8.84474
Nuclear contribution   :     26.66107     -13.96289      -9.00831
                        -----------------------------------------
Total Dipole Moment    :      0.67023      -0.12055      -0.16357
                        -----------------------------------------
Magnitude (a.u.)       :      0.70035
Magnitude (Debye)      :      1.78016

Rotational constants in cm-1:     0.019646     0.009571     0.006882
Rotational constants in MHz :   588.964416   286.937809   206.332156

                             ****ORCA TERMINATED NORMALLY****
TOTAL RUN TIME: 0 days 0 hours 0 minutes 21 seconds 510 msec
