                         Program Version 4.2.1 -  RELEASE  -
|  1> ! wB97X-D3 SP def2-SVP
|  2> %pal
|  3> nprocs 24
|  4> end
|  5>
|  6> * xyz 0 1
|  7> S 	 -120.621 	 54.0627 	 -31.8715
|  8> C 	 -120.006 	 53.0163 	 -33.1201
|  9> C 	 -120.81 	 51.894 	 -33.2536
| 10> C 	 -121.86 	 51.8141 	 -32.2959
| 11> C 	 -121.94 	 52.9325 	 -31.4844
| 12> H 	 -122.608 	 51.0337 	 -32.2305
| 13> C 	 -120.659 	 50.8865 	 -34.3788
| 14> H 	 -120.647 	 49.8891 	 -33.8395
| 15> H 	 -119.653 	 50.9904 	 -34.7913
| 16> C 	 -121.772 	 50.9467 	 -35.4556
| 17> H 	 -121.713 	 50.1234 	 -36.1134
| 18> H 	 -122.707 	 50.8794 	 -34.8543
| 19> C 	 -121.743 	 52.1117 	 -36.4926
| 20> H 	 -121.991 	 52.9383 	 -35.9654
| 21> H 	 -120.712 	 52.2539 	 -36.8994
| 22> H 	 -122.421 	 51.8633 	 -37.3113
| 23> S 	 -122.455 	 54.2062 	 -29.0571
| 24> C 	 -124.083 	 54.0423 	 -28.3667
| 25> C 	 -124.848 	 53.2544 	 -29.1383
| 26> C 	 -124.17 	 52.737 	 -30.26
| 27> C 	 -122.915 	 53.1833 	 -30.4473
| 28> H 	 -125.859 	 52.9882 	 -28.8484
| 29> C 	 -125.075 	 51.9714 	 -31.2001
| 30> H 	 -125.774 	 51.3512 	 -30.5719
| 31> H 	 -124.614 	 51.2423 	 -31.7983
| 32> C 	 -125.942 	 52.8765 	 -32.1816
| 33> H 	 -125.305 	 53.4519 	 -32.8118
| 34> H 	 -126.455 	 53.6477 	 -31.6788
| 35> C 	 -126.994 	 52.0467 	 -33.0197
| 36> H 	 -127.527 	 52.7282 	 -33.6862
| 37> H 	 -127.713 	 51.4977 	 -32.38
| 38> H 	 -126.426 	 51.2827 	 -33.6718
| 39> H 	 -119.295 	 53.3816 	 -33.8106
| 40> H 	 -124.455 	 54.5765 	 -27.5076
| 41> *
| 42>
| 43>                          ****END OF INPUT****

CARTESIAN COORDINATES (ANGSTROEM)
---------------------------------
  S    -120.621000   54.062700  -31.871500
  C    -120.006000   53.016300  -33.120100
  C    -120.810000   51.894000  -33.253600
  C    -121.860000   51.814100  -32.295900
  C    -121.940000   52.932500  -31.484400
  H    -122.608000   51.033700  -32.230500
  C    -120.659000   50.886500  -34.378800
  H    -120.647000   49.889100  -33.839500
  H    -119.653000   50.990400  -34.791300
  C    -121.772000   50.946700  -35.455600
  H    -121.713000   50.123400  -36.113400
  H    -122.707000   50.879400  -34.854300
  C    -121.743000   52.111700  -36.492600
  H    -121.991000   52.938300  -35.965400
  H    -120.712000   52.253900  -36.899400
  H    -122.421000   51.863300  -37.311300
  S    -122.455000   54.206200  -29.057100
  C    -124.083000   54.042300  -28.366700
  C    -124.848000   53.254400  -29.138300
  C    -124.170000   52.737000  -30.260000
  C    -122.915000   53.183300  -30.447300
  H    -125.859000   52.988200  -28.848400
  C    -125.075000   51.971400  -31.200100
  H    -125.774000   51.351200  -30.571900
  H    -124.614000   51.242300  -31.798300
  C    -125.942000   52.876500  -32.181600
  H    -125.305000   53.451900  -32.811800
  H    -126.455000   53.647700  -31.678800
  C    -126.994000   52.046700  -33.019700
  H    -127.527000   52.728200  -33.686200
  H    -127.713000   51.497700  -32.380000
  H    -126.426000   51.282700  -33.671800
  H    -119.295000   53.381600  -33.810600
  H    -124.455000   54.576500  -27.507600

 Total Charge           Charge          ....    0
 Multiplicity           Mult            ....    1
 Number of Electrons    NEL             ....  134
 Basis Dimension        Dim             ....  322

ORBITAL ENERGIES
----------------

  NO   OCC          E(Eh)            E(eV)
   0   2.0000     -88.966515     -2420.9020
   1   2.0000     -88.963465     -2420.8189
   2   2.0000     -10.334524      -281.2167
   3   2.0000     -10.328418      -281.0505
   4   2.0000     -10.316164      -280.7171
   5   2.0000     -10.311737      -280.5966
   6   2.0000     -10.302051      -280.3331
   7   2.0000     -10.297703      -280.2147
   8   2.0000     -10.296465      -280.1811
   9   2.0000     -10.295619      -280.1580
  10   2.0000     -10.295417      -280.1525
  11   2.0000     -10.291676      -280.0507
  12   2.0000     -10.288252      -279.9576
  13   2.0000     -10.287729      -279.9433
  14   2.0000     -10.286502      -279.9100
  15   2.0000     -10.274727      -279.5895
  16   2.0000      -8.080979      -219.8946
  17   2.0000      -8.077620      -219.8032
  18   2.0000      -6.039549      -164.3445
  19   2.0000      -6.036357      -164.2576
  20   2.0000      -6.035488      -164.2340
  21   2.0000      -6.032316      -164.1477
  22   2.0000      -6.031729      -164.1317
  23   2.0000      -6.028065      -164.0320
  24   2.0000      -1.009227       -27.4625
  25   2.0000      -0.986682       -26.8490
  26   2.0000      -0.908051       -24.7093
  27   2.0000      -0.900903       -24.5148
  28   2.0000      -0.874611       -23.7994
  29   2.0000      -0.851859       -23.1803
  30   2.0000      -0.844193       -22.9717
  31   2.0000      -0.818944       -22.2846
  32   2.0000      -0.780732       -21.2448
  33   2.0000      -0.772242       -21.0138
  34   2.0000      -0.713435       -19.4135
  35   2.0000      -0.702921       -19.1275
  36   2.0000      -0.696976       -18.9657
  37   2.0000      -0.667340       -18.1592
  38   2.0000      -0.642898       -17.4941
  39   2.0000      -0.624124       -16.9833
  40   2.0000      -0.601848       -16.3771
  41   2.0000      -0.571453       -15.5500
  42   2.0000      -0.554797       -15.0968
  43   2.0000      -0.550779       -14.9875
  44   2.0000      -0.537682       -14.6311
  45   2.0000      -0.525137       -14.2897
  46   2.0000      -0.518369       -14.1055
  47   2.0000      -0.511766       -13.9258
  48   2.0000      -0.507183       -13.8011
  49   2.0000      -0.501161       -13.6373
  50   2.0000      -0.489194       -13.3117
  51   2.0000      -0.482647       -13.1335
  52   2.0000      -0.474241       -12.9047
  53   2.0000      -0.467350       -12.7172
  54   2.0000      -0.457588       -12.4516
  55   2.0000      -0.450661       -12.2631
  56   2.0000      -0.444310       -12.0903
  57   2.0000      -0.439701       -11.9649
  58   2.0000      -0.435124       -11.8403
  59   2.0000      -0.427748       -11.6396
  60   2.0000      -0.421129       -11.4595
  61   2.0000      -0.416392       -11.3306
  62   2.0000      -0.406123       -11.0512
  63   2.0000      -0.363943        -9.9034
  64   2.0000      -0.334256        -9.0956
  65   2.0000      -0.329759        -8.9732
  66   2.0000      -0.287211        -7.8154
  67   0.0000       0.020395         0.5550
  68   0.0000       0.081614         2.2208
  69   0.0000       0.100997         2.7483
  70   0.0000       0.116345         3.1659
  71   0.0000       0.126462         3.4412

MULLIKEN ATOMIC CHARGES
-----------------------
   0 S :    0.099431
   1 C :   -0.106850
   2 C :   -0.095569
   3 C :    0.004198
   4 C :   -0.121158
   5 H :    0.009411
   6 C :    0.048682
   7 H :    0.041752
   8 H :    0.014967
   9 C :   -0.073923
  10 H :    0.021061
  11 H :    0.029017
  12 C :   -0.020200
  13 H :    0.019894
  14 H :    0.029807
  15 H :    0.043095
  16 S :    0.081794
  17 C :   -0.072538
  18 C :   -0.025581
  19 C :   -0.041085
  20 C :   -0.109011
  21 H :    0.018582
  22 C :    0.048737
  23 H :    0.022083
  24 H :   -0.007710
  25 C :   -0.030706
  26 H :    0.022181
  27 H :    0.010084
  28 C :   -0.082352
  29 H :    0.042259
  30 H :    0.042050
  31 H :    0.040988
  32 H :    0.042891
  33 H :    0.053716
Sum of atomic charges:    0.0000000

LOEWDIN ATOMIC CHARGES
----------------------
   0 S :    0.394746
   1 C :   -0.196667
   2 C :   -0.063736
   3 C :   -0.064638
   4 C :   -0.173283
   5 H :    0.029419
   6 C :   -0.035580
   7 H :    0.040644
   8 H :    0.025068
   9 C :   -0.038355
  10 H :    0.017100
  11 H :    0.025808
  12 C :   -0.051965
  13 H :    0.009263
  14 H :    0.030176
  15 H :    0.030801
  16 S :    0.368394
  17 C :   -0.164175
  18 C :   -0.068072
  19 C :   -0.065766
  20 C :   -0.178195
  21 H :    0.034545
  22 C :   -0.025651
  23 H :    0.033927
  24 H :    0.011805
  25 C :   -0.029786
  26 H :    0.022297
  27 H :    0.015513
  28 C :   -0.069834
  29 H :    0.027125
  30 H :    0.026013
  31 H :    0.030833
  32 H :    0.021259
  33 H :    0.030968

  Mayer bond orders larger than 0.100000
B(  0-S ,  1-C ) :   1.1310 B(  0-S ,  4-C ) :   1.1487 B(  1-C ,  2-C ) :   1.6033
B(  1-C , 32-H ) :   0.9737 B(  2-C ,  3-C ) :   1.2420 B(  2-C ,  6-C ) :   1.0238
B(  3-C ,  4-C ) :   1.5652 B(  3-C ,  5-H ) :   0.9912 B(  4-C , 20-C ) :   1.0842
B(  6-C ,  7-H ) :   0.9392 B(  6-C ,  8-H ) :   0.9437 B(  6-C ,  9-C ) :   1.0640
B(  9-C , 10-H ) :   0.9608 B(  9-C , 11-H ) :   0.9567 B(  9-C , 12-C ) :   1.0633
B( 12-C , 13-H ) :   0.9805 B( 12-C , 14-H ) :   0.9735 B( 12-C , 15-H ) :   0.9770
B( 16-S , 17-C ) :   1.1284 B( 16-S , 20-C ) :   1.1024 B( 17-C , 18-C ) :   1.6411
B( 17-C , 33-H ) :   0.9659 B( 18-C , 19-C ) :   1.2180 B( 18-C , 21-H ) :   0.9914
B( 19-C , 20-C ) :   1.6424 B( 19-C , 22-C ) :   1.0521 B( 22-C , 23-H ) :   0.9351
B( 22-C , 24-H ) :   0.9396 B( 22-C , 25-C ) :   1.0467 B( 25-C , 26-H ) :   0.9550
B( 25-C , 27-H ) :   0.9569 B( 25-C , 28-C ) :   1.0717 B( 28-C , 29-H ) :   0.9752
B( 28-C , 30-H ) :   0.9772 B( 28-C , 31-H ) :   0.9773

Dispersion correction           -0.014390646
FINAL SINGLE POINT ENERGY     -1339.878498933537

DIPOLE MOMENT
-------------
                                X             Y             Z
Electronic contribution:     15.49224      13.50549      23.57869
Nuclear contribution   :    -16.06158     -13.82910     -24.02869
                        -----------------------------------------
Total Dipole Moment    :     -0.56933      -0.32362      -0.45000
                        -----------------------------------------
Magnitude (a.u.)       :      0.79459
Magnitude (Debye)      :      2.01967

Rotational constants in cm-1:     0.017341     0.009840     0.006816
Rotational constants in MHz :   519.865426   294.981537   204.331467

                             ****ORCA TERMINATED NORMALLY****
TOTAL RUN TIME: 0 days 0 hours 0 minutes 20 seconds 960 msec
