                         Program Version 4.2.1 -  RELEASE  -
|  1> ! wB97X-D3 SP def2-SVP
|  2> %pal
|  3> nprocs 24
|  4> end
|  5>
|  6> * xyz 0 1
|  7> S 	 -91.6284 	 0.621593 	 -0.070487
|  8> C 	 -90.2174 	 -0.136625 	 0.86437
|  9> C 	 -90.5923 	 -0.314693 	 2.20235
| 10> C 	 -91.891 	 0.284297 	 2.51578
| 11> C 	 -92.56 	 0.646195 	 1.37552
| 12> H 	 -92.334 	 0.21944 	 3.5136
| 13> C 	 -89.7937 	 -0.963527 	 3.28136
| 14> H 	 -89.5499 	 -2.00346 	 2.8386
| 15> H 	 -90.4641 	 -1.14823 	 4.08886
| 16> C 	 -88.5073 	 -0.254491 	 3.64226
| 17> H 	 -87.7311 	 -1.01089 	 3.76449
| 18> H 	 -88.2107 	 0.278227 	 2.74593
| 19> C 	 -88.717 	 0.637839 	 4.87437
| 20> H 	 -89.4146 	 1.48809 	 4.80252
| 21> H 	 -89.0893 	 0.0530684 	 5.72767
| 22> H 	 -87.7485 	 1.08111 	 5.04957
| 23> S 	 -95.3934 	 0.428576 	 1.23354
| 24> C 	 -96.2858 	 1.90237 	 1.306
| 25> C 	 -95.5501 	 3.03347 	 1.39611
| 26> C 	 -94.1265 	 2.71983 	 1.44162
| 27> C 	 -93.8504 	 1.36535 	 1.35537
| 28> H 	 -96.0782 	 3.97986 	 1.50386
| 29> C 	 -93.0889 	 3.72574 	 1.56022
| 30> H 	 -92.2083 	 3.36338 	 2.21001
| 31> H 	 -93.4309 	 4.54876 	 2.23238
| 32> C 	 -92.5973 	 4.33285 	 0.245141
| 33> H 	 -93.3775 	 4.73942 	 -0.351791
| 34> H 	 -92.2489 	 3.50462 	 -0.406849
| 35> C 	 -91.4288 	 5.29766 	 0.359542
| 36> H 	 -91.704 	 6.14686 	 0.976643
| 37> H 	 -91.0753 	 5.80984 	 -0.566595
| 38> H 	 -90.5628 	 4.96928 	 0.79529
| 39> H 	 -89.2477 	 -0.418814 	 0.500496
| 40> H 	 -97.3821 	 1.89679 	 1.38854
| 41> *
| 42>
| 43>                          ****END OF INPUT****

CARTESIAN COORDINATES (ANGSTROEM)
---------------------------------
  S    -91.628400    0.621593   -0.070487
  C    -90.217400   -0.136625    0.864370
  C    -90.592300   -0.314693    2.202350
  C    -91.891000    0.284297    2.515780
  C    -92.560000    0.646195    1.375520
  H    -92.334000    0.219440    3.513600
  C    -89.793700   -0.963527    3.281360
  H    -89.549900   -2.003460    2.838600
  H    -90.464100   -1.148230    4.088860
  C    -88.507300   -0.254491    3.642260
  H    -87.731100   -1.010890    3.764490
  H    -88.210700    0.278227    2.745930
  C    -88.717000    0.637839    4.874370
  H    -89.414600    1.488090    4.802520
  H    -89.089300    0.053068    5.727670
  H    -87.748500    1.081110    5.049570
  S    -95.393400    0.428576    1.233540
  C    -96.285800    1.902370    1.306000
  C    -95.550100    3.033470    1.396110
  C    -94.126500    2.719830    1.441620
  C    -93.850400    1.365350    1.355370
  H    -96.078200    3.979860    1.503860
  C    -93.088900    3.725740    1.560220
  H    -92.208300    3.363380    2.210010
  H    -93.430900    4.548760    2.232380
  C    -92.597300    4.332850    0.245141
  H    -93.377500    4.739420   -0.351791
  H    -92.248900    3.504620   -0.406849
  C    -91.428800    5.297660    0.359542
  H    -91.704000    6.146860    0.976643
  H    -91.075300    5.809840   -0.566595
  H    -90.562800    4.969280    0.795290
  H    -89.247700   -0.418814    0.500496
  H    -97.382100    1.896790    1.388540

 Total Charge           Charge          ....    0
 Multiplicity           Mult            ....    1
 Number of Electrons    NEL             ....  134
 Basis Dimension        Dim             ....  322

ORBITAL ENERGIES
----------------

  NO   OCC          E(Eh)            E(eV)
   0   2.0000     -88.969890     -2420.9938
   1   2.0000     -88.961075     -2420.7539
   2   2.0000     -10.328741      -281.0593
   3   2.0000     -10.325970      -280.9839
   4   2.0000     -10.320702      -280.8406
   5   2.0000     -10.313848      -280.6541
   6   2.0000     -10.304281      -280.3937
   7   2.0000     -10.302977      -280.3583
   8   2.0000     -10.296932      -280.1938
   9   2.0000     -10.292775      -280.0806
  10   2.0000     -10.291052      -280.0338
  11   2.0000     -10.290380      -280.0155
  12   2.0000     -10.287924      -279.9486
  13   2.0000     -10.282146      -279.7914
  14   2.0000     -10.279891      -279.7300
  15   2.0000     -10.266937      -279.3776
  16   2.0000      -8.083046      -219.9509
  17   2.0000      -8.075804      -219.7538
  18   2.0000      -6.041780      -164.4052
  19   2.0000      -6.037795      -164.2968
  20   2.0000      -6.034324      -164.2023
  21   2.0000      -6.033607      -164.1828
  22   2.0000      -6.030434      -164.0965
  23   2.0000      -6.026441      -163.9878
  24   2.0000      -1.000629       -27.2285
  25   2.0000      -0.977717       -26.6050
  26   2.0000      -0.918808       -25.0020
  27   2.0000      -0.908274       -24.7154
  28   2.0000      -0.864400       -23.5215
  29   2.0000      -0.849655       -23.1203
  30   2.0000      -0.843476       -22.9521
  31   2.0000      -0.813203       -22.1284
  32   2.0000      -0.783987       -21.3334
  33   2.0000      -0.769452       -20.9379
  34   2.0000      -0.713841       -19.4246
  35   2.0000      -0.706975       -19.2378
  36   2.0000      -0.690591       -18.7919
  37   2.0000      -0.654761       -17.8169
  38   2.0000      -0.635454       -17.2916
  39   2.0000      -0.612271       -16.6607
  40   2.0000      -0.596911       -16.2428
  41   2.0000      -0.573446       -15.6043
  42   2.0000      -0.553880       -15.0718
  43   2.0000      -0.552883       -15.0447
  44   2.0000      -0.539447       -14.6791
  45   2.0000      -0.522015       -14.2047
  46   2.0000      -0.517372       -14.0784
  47   2.0000      -0.512878       -13.9561
  48   2.0000      -0.508116       -13.8265
  49   2.0000      -0.494933       -13.4678
  50   2.0000      -0.484734       -13.1903
  51   2.0000      -0.477880       -13.0038
  52   2.0000      -0.469775       -12.7832
  53   2.0000      -0.462356       -12.5814
  54   2.0000      -0.459611       -12.5067
  55   2.0000      -0.445194       -12.1144
  56   2.0000      -0.444538       -12.0965
  57   2.0000      -0.439635       -11.9631
  58   2.0000      -0.430482       -11.7140
  59   2.0000      -0.427862       -11.6427
  60   2.0000      -0.421808       -11.4780
  61   2.0000      -0.414097       -11.2682
  62   2.0000      -0.398450       -10.8424
  63   2.0000      -0.332759        -9.0548
  64   2.0000      -0.327421        -8.9096
  65   2.0000      -0.316551        -8.6138
  66   2.0000      -0.315011        -8.5719
  67   0.0000       0.041309         1.1241
  68   0.0000       0.056749         1.5442
  69   0.0000       0.100076         2.7232
  70   0.0000       0.113456         3.0873
  71   0.0000       0.125873         3.4252

MULLIKEN ATOMIC CHARGES
-----------------------
   0 S :    0.115530
   1 C :   -0.122757
   2 C :   -0.114929
   3 C :    0.042088
   4 C :   -0.141617
   5 H :    0.026796
   6 C :    0.035791
   7 H :    0.046173
   8 H :    0.009977
   9 C :   -0.024021
  10 H :    0.026582
  11 H :    0.021238
  12 C :   -0.052006
  13 H :    0.037671
  14 H :    0.035624
  15 H :    0.033300
  16 S :    0.095212
  17 C :   -0.095701
  18 C :   -0.023488
  19 C :   -0.003784
  20 C :   -0.185760
  21 H :    0.024289
  22 C :    0.023294
  23 H :    0.038413
  24 H :    0.018433
  25 C :   -0.035694
  26 H :    0.016023
  27 H :    0.019621
  28 C :   -0.011902
  29 H :    0.008453
  30 H :    0.029350
  31 H :    0.008018
  32 H :    0.037984
  33 H :    0.061797
Sum of atomic charges:   -0.0000000

LOEWDIN ATOMIC CHARGES
----------------------
   0 S :    0.397768
   1 C :   -0.179842
   2 C :   -0.052379
   3 C :   -0.062002
   4 C :   -0.199865
   5 H :    0.036734
   6 C :   -0.039747
   7 H :    0.045519
   8 H :    0.021787
   9 C :   -0.037895
  10 H :    0.026285
  11 H :    0.024584
  12 C :   -0.064558
  13 H :    0.029038
  14 H :    0.027622
  15 H :    0.026060
  16 S :    0.380999
  17 C :   -0.184561
  18 C :   -0.077094
  19 C :   -0.050775
  20 C :   -0.188723
  21 H :    0.037640
  22 C :   -0.047470
  23 H :    0.042165
  24 H :    0.031258
  25 C :   -0.039498
  26 H :    0.020719
  27 H :    0.019767
  28 C :   -0.064993
  29 H :    0.021354
  30 H :    0.033081
  31 H :    0.012017
  32 H :    0.023019
  33 H :    0.031986

  Mayer bond orders larger than 0.100000
B(  0-S ,  1-C ) :   1.1035 B(  0-S ,  4-C ) :   1.1622 B(  1-C ,  2-C ) :   1.6348
B(  1-C , 32-H ) :   0.9701 B(  2-C ,  3-C ) :   1.2128 B(  2-C ,  6-C ) :   1.0341
B(  3-C ,  4-C ) :   1.6111 B(  3-C ,  5-H ) :   0.9843 B(  4-C , 20-C ) :   0.9918
B(  6-C ,  7-H ) :   0.9345 B(  6-C ,  8-H ) :   0.9431 B(  6-C ,  9-C ) :   1.0527
B(  9-C , 10-H ) :   0.9527 B(  9-C , 11-H ) :   0.9570 B(  9-C , 12-C ) :   1.0740
B( 12-C , 13-H ) :   0.9765 B( 12-C , 14-H ) :   0.9769 B( 12-C , 15-H ) :   0.9734
B( 16-S , 17-C ) :   1.1578 B( 16-S , 20-C ) :   1.1128 B( 17-C , 18-C ) :   1.6515
B( 17-C , 33-H ) :   0.9573 B( 18-C , 19-C ) :   1.1905 B( 18-C , 21-H ) :   0.9924
B( 19-C , 20-C ) :   1.6437 B( 19-C , 22-C ) :   1.0719 B( 22-C , 23-H ) :   0.9272
B( 22-C , 24-H ) :   0.9231 B( 22-C , 25-C ) :   1.0567 B( 25-C , 26-H ) :   0.9531
B( 25-C , 27-H ) :   0.9461 B( 25-C , 28-C ) :   1.0836 B( 28-C , 29-H ) :   0.9703
B( 28-C , 30-H ) :   0.9721 B( 28-C , 31-H ) :   0.9740

Dispersion correction           -0.014842792
FINAL SINGLE POINT ENERGY     -1339.870156204438

DIPOLE MOMENT
-------------
                                X             Y             Z
Electronic contribution:    -19.52593     -12.14301     -11.15688
Nuclear contribution   :     19.88185      12.36458      11.65952
                        -----------------------------------------
Total Dipole Moment    :      0.35592       0.22157       0.50264
                        -----------------------------------------
Magnitude (a.u.)       :      0.65453
Magnitude (Debye)      :      1.66369

Rotational constants in cm-1:     0.018387     0.008678     0.007342
Rotational constants in MHz :   551.222493   260.160031   220.116216

                             ****ORCA TERMINATED NORMALLY****
TOTAL RUN TIME: 0 days 0 hours 0 minutes 21 seconds 858 msec
