                         Program Version 4.2.1 -  RELEASE  -
|  1> ! wB97X-D3 SP def2-SVP
|  2> %pal
|  3> nprocs 24
|  4> end
|  5>
|  6> * xyz 0 1
|  7> S 	 -106.649 	 46.0785 	 -5.7169
|  8> C 	 -108.152 	 46.7154 	 -6.36685
|  9> C 	 -107.951 	 47.2618 	 -7.63118
| 10> C 	 -106.63 	 47.0584 	 -8.12375
| 11> C 	 -105.732 	 46.4176 	 -7.2067
| 12> H 	 -106.205 	 47.3013 	 -9.06407
| 13> C 	 -108.915 	 48.1934 	 -8.38095
| 14> H 	 -109.904 	 47.7379 	 -8.47777
| 15> H 	 -108.581 	 48.2797 	 -9.38608
| 16> C 	 -109.068 	 49.632 	 -7.85048
| 17> H 	 -109.695 	 50.1808 	 -8.444
| 18> H 	 -109.578 	 49.6542 	 -6.91764
| 19> C 	 -107.68 	 50.3638 	 -7.71722
| 20> H 	 -107.244 	 50.5596 	 -8.69127
| 21> H 	 -107.903 	 51.2783 	 -7.19346
| 22> H 	 -106.984 	 49.7629 	 -7.03761
| 23> S 	 -103.851 	 45.0302 	 -8.74517
| 24> C 	 -102.119 	 45.2264 	 -8.39477
| 25> C 	 -101.964 	 45.9511 	 -7.26074
| 26> C 	 -103.171 	 46.4441 	 -6.7485
| 27> C 	 -104.349 	 46.0971 	 -7.40904
| 28> H 	 -100.993 	 46.0029 	 -6.85723
| 29> C 	 -103.012 	 47.2102 	 -5.48421
| 30> H 	 -102.295 	 46.7885 	 -4.85845
| 31> H 	 -103.9 	 47.15 	 -4.9168
| 32> C 	 -102.638 	 48.6918 	 -5.70744
| 33> H 	 -101.557 	 48.7071 	 -6.12283
| 34> H 	 -102.485 	 49.0866 	 -4.75122
| 35> C 	 -103.649 	 49.4484 	 -6.61781
| 36> H 	 -104.67 	 49.2225 	 -6.24609
| 37> H 	 -103.473 	 49.0541 	 -7.62907
| 38> H 	 -103.501 	 50.561 	 -6.53315
| 39> H 	 -109.105 	 46.8179 	 -5.8913
| 40> H 	 -101.324 	 44.5809 	 -8.88516
| 41> *
| 42>
| 43>                          ****END OF INPUT****

CARTESIAN COORDINATES (ANGSTROEM)
---------------------------------
  S    -106.649000   46.078500   -5.716900
  C    -108.152000   46.715400   -6.366850
  C    -107.951000   47.261800   -7.631180
  C    -106.630000   47.058400   -8.123750
  C    -105.732000   46.417600   -7.206700
  H    -106.205000   47.301300   -9.064070
  C    -108.915000   48.193400   -8.380950
  H    -109.904000   47.737900   -8.477770
  H    -108.581000   48.279700   -9.386080
  C    -109.068000   49.632000   -7.850480
  H    -109.695000   50.180800   -8.444000
  H    -109.578000   49.654200   -6.917640
  C    -107.680000   50.363800   -7.717220
  H    -107.244000   50.559600   -8.691270
  H    -107.903000   51.278300   -7.193460
  H    -106.984000   49.762900   -7.037610
  S    -103.851000   45.030200   -8.745170
  C    -102.119000   45.226400   -8.394770
  C    -101.964000   45.951100   -7.260740
  C    -103.171000   46.444100   -6.748500
  C    -104.349000   46.097100   -7.409040
  H    -100.993000   46.002900   -6.857230
  C    -103.012000   47.210200   -5.484210
  H    -102.295000   46.788500   -4.858450
  H    -103.900000   47.150000   -4.916800
  C    -102.638000   48.691800   -5.707440
  H    -101.557000   48.707100   -6.122830
  H    -102.485000   49.086600   -4.751220
  C    -103.649000   49.448400   -6.617810
  H    -104.670000   49.222500   -6.246090
  H    -103.473000   49.054100   -7.629070
  H    -103.501000   50.561000   -6.533150
  H    -109.105000   46.817900   -5.891300
  H    -101.324000   44.580900   -8.885160

 Total Charge           Charge          ....    0
 Multiplicity           Mult            ....    1
 Number of Electrons    NEL             ....  134
 Basis Dimension        Dim             ....  322

ORBITAL ENERGIES
----------------

  NO   OCC          E(Eh)            E(eV)
   0   2.0000     -88.972343     -2421.0605
   1   2.0000     -88.962974     -2420.8056
   2   2.0000     -10.337256      -281.2910
   3   2.0000     -10.331217      -281.1267
   4   2.0000     -10.323087      -280.9055
   5   2.0000     -10.318158      -280.7714
   6   2.0000     -10.304692      -280.4049
   7   2.0000     -10.299550      -280.2650
   8   2.0000     -10.298373      -280.2330
   9   2.0000     -10.290162      -280.0095
  10   2.0000     -10.286860      -279.9197
  11   2.0000     -10.284389      -279.8525
  12   2.0000     -10.280485      -279.7462
  13   2.0000     -10.278970      -279.7050
  14   2.0000     -10.278860      -279.7020
  15   2.0000     -10.275005      -279.5971
  16   2.0000      -8.085589      -220.0201
  17   2.0000      -8.076983      -219.7859
  18   2.0000      -6.044200      -164.4711
  19   2.0000      -6.040107      -164.3597
  20   2.0000      -6.036516      -164.2620
  21   2.0000      -6.035632      -164.2379
  22   2.0000      -6.031515      -164.1259
  23   2.0000      -6.027684      -164.0216
  24   2.0000      -1.003280       -27.3006
  25   2.0000      -0.981923       -26.7195
  26   2.0000      -0.907985       -24.7075
  27   2.0000      -0.907541       -24.6955
  28   2.0000      -0.873392       -23.7662
  29   2.0000      -0.844475       -22.9793
  30   2.0000      -0.838105       -22.8060
  31   2.0000      -0.813307       -22.1312
  32   2.0000      -0.781933       -21.2775
  33   2.0000      -0.772716       -21.0267
  34   2.0000      -0.712199       -19.3799
  35   2.0000      -0.705820       -19.2063
  36   2.0000      -0.689823       -18.7710
  37   2.0000      -0.663048       -18.0425
  38   2.0000      -0.641278       -17.4501
  39   2.0000      -0.611862       -16.6496
  40   2.0000      -0.594684       -16.1822
  41   2.0000      -0.576724       -15.6935
  42   2.0000      -0.553089       -15.0503
  43   2.0000      -0.548318       -14.9205
  44   2.0000      -0.545348       -14.8397
  45   2.0000      -0.541055       -14.7228
  46   2.0000      -0.517446       -14.0804
  47   2.0000      -0.511219       -13.9110
  48   2.0000      -0.501107       -13.6358
  49   2.0000      -0.498063       -13.5530
  50   2.0000      -0.485120       -13.2008
  51   2.0000      -0.478724       -13.0268
  52   2.0000      -0.469006       -12.7623
  53   2.0000      -0.461984       -12.5712
  54   2.0000      -0.459629       -12.5071
  55   2.0000      -0.442041       -12.0285
  56   2.0000      -0.439351       -11.9554
  57   2.0000      -0.436079       -11.8663
  58   2.0000      -0.428246       -11.6532
  59   2.0000      -0.422510       -11.4971
  60   2.0000      -0.420141       -11.4326
  61   2.0000      -0.414798       -11.2872
  62   2.0000      -0.408535       -11.1168
  63   2.0000      -0.344719        -9.3803
  64   2.0000      -0.333708        -9.0807
  65   2.0000      -0.328287        -8.9331
  66   2.0000      -0.293579        -7.9887
  67   0.0000       0.024387         0.6636
  68   0.0000       0.059002         1.6055
  69   0.0000       0.109527         2.9804
  70   0.0000       0.113936         3.1004
  71   0.0000       0.128972         3.5095

MULLIKEN ATOMIC CHARGES
-----------------------
   0 S :    0.120831
   1 C :   -0.106599
   2 C :   -0.092274
   3 C :    0.045461
   4 C :   -0.185406
   5 H :    0.000479
   6 C :    0.081200
   7 H :    0.027208
   8 H :    0.008662
   9 C :   -0.024451
  10 H :    0.006653
  11 H :    0.010331
  12 C :   -0.081367
  13 H :    0.037275
  14 H :    0.029333
  15 H :    0.062993
  16 S :    0.089936
  17 C :   -0.116377
  18 C :   -0.020127
  19 C :   -0.037022
  20 C :   -0.141216
  21 H :    0.009357
  22 C :    0.107083
  23 H :    0.004437
  24 H :   -0.005137
  25 C :   -0.079454
  26 H :    0.023762
  27 H :    0.011746
  28 C :   -0.066976
  29 H :    0.047780
  30 H :    0.057244
  31 H :    0.046608
  32 H :    0.043203
  33 H :    0.084823
Sum of atomic charges:    0.0000000

LOEWDIN ATOMIC CHARGES
----------------------
   0 S :    0.405882
   1 C :   -0.193172
   2 C :   -0.064707
   3 C :   -0.049150
   4 C :   -0.192403
   5 H :    0.024664
   6 C :   -0.028773
   7 H :    0.031061
   8 H :    0.024662
   9 C :   -0.028714
  10 H :    0.012647
  11 H :    0.017186
  12 C :   -0.063351
  13 H :    0.022887
  14 H :    0.023151
  15 H :    0.035655
  16 S :    0.382834
  17 C :   -0.177023
  18 C :   -0.071051
  19 C :   -0.052670
  20 C :   -0.198755
  21 H :    0.029494
  22 C :   -0.027994
  23 H :    0.023915
  24 H :    0.014763
  25 C :   -0.036497
  26 H :    0.025137
  27 H :    0.010940
  28 C :   -0.067424
  29 H :    0.027107
  30 H :    0.032271
  31 H :    0.032390
  32 H :    0.029163
  33 H :    0.045874

  Mayer bond orders larger than 0.100000
B(  0-S ,  1-C ) :   1.1495 B(  0-S ,  4-C ) :   1.1424 B(  1-C ,  2-C ) :   1.5847
B(  1-C ,  4-C ) :   0.1080 B(  1-C , 32-H ) :   0.9714 B(  2-C ,  3-C ) :   1.2539
B(  2-C ,  6-C ) :   1.0279 B(  3-C ,  4-C ) :   1.5432 B(  3-C ,  5-H ) :   0.9982
B(  4-C , 20-C ) :   1.0817 B(  6-C ,  7-H ) :   0.9371 B(  6-C ,  8-H ) :   0.9399
B(  6-C ,  9-C ) :   1.0751 B(  9-C , 10-H ) :   0.9523 B(  9-C , 11-H ) :   0.9546
B(  9-C , 12-C ) :   1.0752 B( 12-C , 13-H ) :   0.9775 B( 12-C , 14-H ) :   0.9733
B( 12-C , 15-H ) :   0.9713 B( 16-S , 17-C ) :   1.1571 B( 16-S , 20-C ) :   1.1197
B( 17-C , 18-C ) :   1.5992 B( 17-C , 33-H ) :   0.9545 B( 18-C , 19-C ) :   1.2400
B( 18-C , 21-H ) :   1.0025 B( 19-C , 20-C ) :   1.5611 B( 19-C , 22-C ) :   1.0555
B( 22-C , 23-H ) :   0.9294 B( 22-C , 24-H ) :   0.9250 B( 22-C , 25-C ) :   1.0806
B( 25-C , 26-H ) :   0.9545 B( 25-C , 27-H ) :   0.9562 B( 25-C , 28-C ) :   1.0579
B( 28-C , 29-H ) :   0.9726 B( 28-C , 30-H ) :   0.9713 B( 28-C , 31-H ) :   0.9743

Dispersion correction           -0.016586583
FINAL SINGLE POINT ENERGY     -1339.869080303454

DIPOLE MOMENT
-------------
                                X             Y             Z
Electronic contribution:      3.06742     -23.72750      -1.58131
Nuclear contribution   :     -3.02751      24.15915       1.69291
                        -----------------------------------------
Total Dipole Moment    :      0.03991       0.43165       0.11160
                        -----------------------------------------
Magnitude (a.u.)       :      0.44763
Magnitude (Debye)      :      1.13778

Rotational constants in cm-1:     0.020784     0.009124     0.008038
Rotational constants in MHz :   623.083174   273.535021   240.968337

                             ****ORCA TERMINATED NORMALLY****
TOTAL RUN TIME: 0 days 0 hours 0 minutes 23 seconds 192 msec
