                         Program Version 4.2.1 -  RELEASE  -
|  1> ! wB97X-D3 SP def2-SVP
|  2> %pal
|  3> nprocs 24
|  4> end
|  5>
|  6> * xyz 0 1
|  7> S 	 -96.2483 	 13.8183 	 -119.635
|  8> C 	 -95.0764 	 14.7323 	 -118.755
|  9> C 	 -94.9911 	 14.3049 	 -117.394
| 10> C 	 -96.1082 	 13.4782 	 -117.041
| 11> C 	 -96.9402 	 13.233 	 -118.136
| 12> H 	 -96.4306 	 13.1782 	 -116.026
| 13> C 	 -93.8428 	 14.6876 	 -116.458
| 14> H 	 -93.0131 	 14.1531 	 -116.702
| 15> H 	 -94.1158 	 14.4432 	 -115.397
| 16> C 	 -93.4833 	 16.1186 	 -116.485
| 17> H 	 -92.4847 	 16.2631 	 -115.961
| 18> H 	 -93.3347 	 16.4332 	 -117.46
| 19> C 	 -94.6278 	 16.9616 	 -115.861
| 20> H 	 -95.5231 	 16.6804 	 -116.485
| 21> H 	 -94.886 	 16.5218 	 -114.819
| 22> H 	 -94.3027 	 18.0475 	 -115.765
| 23> S 	 -99.7339 	 13.354 	 -118.198
| 24> C 	 -100.588 	 11.8272 	 -118.387
| 25> C 	 -99.8313 	 10.7593 	 -118.192
| 26> C 	 -98.45 	 11.0707 	 -117.99
| 27> C 	 -98.1916 	 12.4536 	 -118.061
| 28> H 	 -100.344 	 9.82947 	 -118.23
| 29> C 	 -97.3768 	 10.0537 	 -117.724
| 30> H 	 -97.8911 	 9.22442 	 -117.279
| 31> H 	 -96.8539 	 10.5376 	 -116.903
| 32> C 	 -96.3699 	 9.59964 	 -118.853
| 33> H 	 -95.6723 	 8.83114 	 -118.447
| 34> H 	 -95.7892 	 10.4466 	 -119.273
| 35> C 	 -97.1323 	 8.89415 	 -120.026
| 36> H 	 -97.5924 	 9.62943 	 -120.607
| 37> H 	 -97.8427 	 8.18333 	 -119.616
| 38> H 	 -96.4688 	 8.41608 	 -120.82
| 39> H 	 -94.3303 	 15.4376 	 -119.146
| 40> H 	 -101.661 	 11.6208 	 -118.529
| 41> *
| 42>
| 43>                          ****END OF INPUT****

CARTESIAN COORDINATES (ANGSTROEM)
---------------------------------
  S    -96.248300   13.818300  -119.635000
  C    -95.076400   14.732300  -118.755000
  C    -94.991100   14.304900  -117.394000
  C    -96.108200   13.478200  -117.041000
  C    -96.940200   13.233000  -118.136000
  H    -96.430600   13.178200  -116.026000
  C    -93.842800   14.687600  -116.458000
  H    -93.013100   14.153100  -116.702000
  H    -94.115800   14.443200  -115.397000
  C    -93.483300   16.118600  -116.485000
  H    -92.484700   16.263100  -115.961000
  H    -93.334700   16.433200  -117.460000
  C    -94.627800   16.961600  -115.861000
  H    -95.523100   16.680400  -116.485000
  H    -94.886000   16.521800  -114.819000
  H    -94.302700   18.047500  -115.765000
  S    -99.733900   13.354000  -118.198000
  C    -100.588000   11.827200  -118.387000
  C    -99.831300   10.759300  -118.192000
  C    -98.450000   11.070700  -117.990000
  C    -98.191600   12.453600  -118.061000
  H    -100.344000    9.829470  -118.230000
  C    -97.376800   10.053700  -117.724000
  H    -97.891100    9.224420  -117.279000
  H    -96.853900   10.537600  -116.903000
  C    -96.369900    9.599640  -118.853000
  H    -95.672300    8.831140  -118.447000
  H    -95.789200   10.446600  -119.273000
  C    -97.132300    8.894150  -120.026000
  H    -97.592400    9.629430  -120.607000
  H    -97.842700    8.183330  -119.616000
  H    -96.468800    8.416080  -120.820000
  H    -94.330300   15.437600  -119.146000
  H    -101.661000   11.620800  -118.529000

 Total Charge           Charge          ....    0
 Multiplicity           Mult            ....    1
 Number of Electrons    NEL             ....  134
 Basis Dimension        Dim             ....  322

ORBITAL ENERGIES
----------------

  NO   OCC          E(Eh)            E(eV)
   0   2.0000     -88.973911     -2421.1032
   1   2.0000     -88.962906     -2420.8037
   2   2.0000     -10.331374      -281.1310
   3   2.0000     -10.327543      -281.0267
   4   2.0000     -10.319461      -280.8068
   5   2.0000     -10.311422      -280.5881
   6   2.0000     -10.308124      -280.4983
   7   2.0000     -10.306297      -280.4486
   8   2.0000     -10.301500      -280.3181
   9   2.0000     -10.294232      -280.1203
  10   2.0000     -10.289479      -279.9909
  11   2.0000     -10.288657      -279.9686
  12   2.0000     -10.285411      -279.8803
  13   2.0000     -10.284088      -279.8443
  14   2.0000     -10.281880      -279.7842
  15   2.0000     -10.274179      -279.5746
  16   2.0000      -8.088255      -220.0926
  17   2.0000      -8.076990      -219.7861
  18   2.0000      -6.046669      -164.5382
  19   2.0000      -6.042849      -164.4343
  20   2.0000      -6.039100      -164.3323
  21   2.0000      -6.035612      -164.2374
  22   2.0000      -6.031702      -164.1310
  23   2.0000      -6.027552      -164.0180
  24   2.0000      -1.003045       -27.2942
  25   2.0000      -0.983615       -26.7655
  26   2.0000      -0.921886       -25.0858
  27   2.0000      -0.899394       -24.4737
  28   2.0000      -0.867325       -23.6011
  29   2.0000      -0.847538       -23.0627
  30   2.0000      -0.842475       -22.9249
  31   2.0000      -0.813698       -22.1418
  32   2.0000      -0.780538       -21.2395
  33   2.0000      -0.766622       -20.8608
  34   2.0000      -0.708488       -19.2789
  35   2.0000      -0.699795       -19.0424
  36   2.0000      -0.686125       -18.6704
  37   2.0000      -0.652991       -17.7688
  38   2.0000      -0.639440       -17.4000
  39   2.0000      -0.611074       -16.6282
  40   2.0000      -0.585556       -15.9338
  41   2.0000      -0.581460       -15.8223
  42   2.0000      -0.564222       -15.3533
  43   2.0000      -0.552350       -15.0302
  44   2.0000      -0.542271       -14.7560
  45   2.0000      -0.531009       -14.4495
  46   2.0000      -0.516348       -14.0505
  47   2.0000      -0.504479       -13.7276
  48   2.0000      -0.498677       -13.5697
  49   2.0000      -0.485937       -13.2230
  50   2.0000      -0.484791       -13.1918
  51   2.0000      -0.475551       -12.9404
  52   2.0000      -0.466050       -12.6819
  53   2.0000      -0.465212       -12.6591
  54   2.0000      -0.460324       -12.5261
  55   2.0000      -0.443081       -12.0569
  56   2.0000      -0.442499       -12.0410
  57   2.0000      -0.436425       -11.8757
  58   2.0000      -0.432990       -11.7823
  59   2.0000      -0.428719       -11.6660
  60   2.0000      -0.421348       -11.4655
  61   2.0000      -0.415898       -11.3172
  62   2.0000      -0.412745       -11.2314
  63   2.0000      -0.339704        -9.2438
  64   2.0000      -0.331622        -9.0239
  65   2.0000      -0.318110        -8.6562
  66   2.0000      -0.303856        -8.2684
  67   0.0000       0.031021         0.8441
  68   0.0000       0.055240         1.5031
  69   0.0000       0.105230         2.8635
  70   0.0000       0.114390         3.1127
  71   0.0000       0.136676         3.7192

MULLIKEN ATOMIC CHARGES
-----------------------
   0 S :    0.149399
   1 C :   -0.130463
   2 C :   -0.134397
   3 C :    0.041593
   4 C :   -0.172626
   5 H :    0.033398
   6 C :    0.126493
   7 H :    0.016472
   8 H :    0.019983
   9 C :   -0.080984
  10 H :    0.033222
  11 H :    0.007244
  12 C :   -0.102052
  13 H :    0.058085
  14 H :    0.031511
  15 H :    0.059846
  16 S :    0.104141
  17 C :   -0.080917
  18 C :   -0.037962
  19 C :   -0.024989
  20 C :   -0.208962
  21 H :    0.005004
  22 C :    0.089502
  23 H :    0.011190
  24 H :    0.023910
  25 C :   -0.062226
  26 H :    0.041016
  27 H :    0.042162
  28 C :   -0.066736
  29 H :    0.025952
  30 H :    0.030992
  31 H :    0.038323
  32 H :    0.059019
  33 H :    0.053859
Sum of atomic charges:   -0.0000000

LOEWDIN ATOMIC CHARGES
----------------------
   0 S :    0.430649
   1 C :   -0.215703
   2 C :   -0.058884
   3 C :   -0.060152
   4 C :   -0.203947
   5 H :    0.039654
   6 C :   -0.025299
   7 H :    0.020836
   8 H :    0.032690
   9 C :   -0.043431
  10 H :    0.029547
  11 H :    0.008177
  12 C :   -0.078206
  13 H :    0.035685
  14 H :    0.028330
  15 H :    0.034136
  16 S :    0.380146
  17 C :   -0.179105
  18 C :   -0.080079
  19 C :   -0.045830
  20 C :   -0.196308
  21 H :    0.030753
  22 C :   -0.035759
  23 H :    0.026917
  24 H :    0.034943
  25 C :   -0.033868
  26 H :    0.028334
  27 H :    0.026441
  28 C :   -0.070818
  29 H :    0.016402
  30 H :    0.021276
  31 H :    0.033470
  32 H :    0.030802
  33 H :    0.038205

  Mayer bond orders larger than 0.100000
B(  0-S ,  1-C ) :   1.1570 B(  0-S ,  4-C ) :   1.1579 B(  1-C ,  2-C ) :   1.5708
B(  1-C ,  4-C ) :   0.1008 B(  1-C , 32-H ) :   0.9651 B(  2-C ,  3-C ) :   1.2574
B(  2-C ,  6-C ) :   1.0079 B(  3-C ,  4-C ) :   1.5676 B(  3-C ,  5-H ) :   0.9839
B(  4-C , 20-C ) :   1.0360 B(  6-C ,  7-H ) :   0.9254 B(  6-C ,  8-H ) :   0.9472
B(  6-C ,  9-C ) :   1.0879 B(  9-C , 10-H ) :   0.9506 B(  9-C , 11-H ) :   0.9510
B(  9-C , 12-C ) :   1.0620 B( 12-C , 13-H ) :   0.9694 B( 12-C , 14-H ) :   0.9739
B( 12-C , 15-H ) :   0.9734 B( 16-S , 17-C ) :   1.1347 B( 16-S , 20-C ) :   1.1266
B( 17-C , 18-C ) :   1.6816 B( 17-C , 33-H ) :   0.9523 B( 18-C , 19-C ) :   1.2005
B( 18-C , 21-H ) :   0.9939 B( 19-C , 20-C ) :   1.6103 B( 19-C , 22-C ) :   1.0225
B( 22-C , 23-H ) :   0.9337 B( 22-C , 24-H ) :   0.9301 B( 22-C , 25-C ) :   1.0628
B( 25-C , 26-H ) :   0.9585 B( 25-C , 27-H ) :   0.9587 B( 25-C , 28-C ) :   1.0646
B( 28-C , 29-H ) :   0.9769 B( 28-C , 30-H ) :   0.9781 B( 28-C , 31-H ) :   0.9747

Dispersion correction           -0.015138286
FINAL SINGLE POINT ENERGY     -1339.856388339955

DIPOLE MOMENT
-------------
                                X             Y             Z
Electronic contribution:    -15.14557       4.46620      -7.33452
Nuclear contribution   :     15.50096      -4.80151       7.56213
                        -----------------------------------------
Total Dipole Moment    :      0.35539      -0.33531       0.22761
                        -----------------------------------------
Magnitude (a.u.)       :      0.53902
Magnitude (Debye)      :      1.37008

Rotational constants in cm-1:     0.022255     0.008035     0.006938
Rotational constants in MHz :   667.194423   240.877688   208.007798

                             ****ORCA TERMINATED NORMALLY****
TOTAL RUN TIME: 0 days 0 hours 0 minutes 21 seconds 760 msec
