                         Program Version 4.2.1 -  RELEASE  -
|  1> ! wB97X-D3 SP def2-SVP
|  2> %pal
|  3> nprocs 24
|  4> end
|  5>
|  6> * xyz 0 1
|  7> S 	 -51.7272 	 12.7912 	 23.3996
|  8> C 	 -51.1959 	 11.2615 	 22.9714
|  9> C 	 -51.976 	 10.7333 	 21.9268
| 10> C 	 -53.0734 	 11.5568 	 21.5182
| 11> C 	 -53.0496 	 12.7911 	 22.1712
| 12> H 	 -53.7936 	 11.2421 	 20.7841
| 13> C 	 -51.7811 	 9.38183 	 21.2861
| 14> H 	 -50.8598 	 9.53759 	 20.6865
| 15> H 	 -52.5695 	 9.15751 	 20.5462
| 16> C 	 -51.6547 	 8.13426 	 22.2193
| 17> H 	 -50.8014 	 8.27935 	 22.85
| 18> H 	 -52.5112 	 7.99092 	 22.8424
| 19> C 	 -51.4174 	 6.84136 	 21.4233
| 20> H 	 -51.1173 	 6.0128 	 22.0553
| 21> H 	 -52.3682 	 6.55134 	 21.0073
| 22> H 	 -50.6801 	 7.02841 	 20.6399
| 23> S 	 -54.5956 	 14.2121 	 20.4174
| 24> C 	 -55.5576 	 15.543 	 20.9339
| 25> C 	 -55.6288 	 15.5838 	 22.3197
| 26> C 	 -54.5948 	 14.7583 	 22.8955
| 27> C 	 -53.9684 	 13.9171 	 22.0212
| 28> H 	 -56.2394 	 16.2528 	 22.9115
| 29> C 	 -54.5682 	 14.6124 	 24.3998
| 30> H 	 -54.2432 	 13.6553 	 24.7804
| 31> H 	 -55.5981 	 14.607 	 24.7516
| 32> C 	 -53.6902 	 15.7404 	 25.0506
| 33> H 	 -54.084 	 16.6959 	 24.7714
| 34> H 	 -52.6517 	 15.8326 	 24.701
| 35> C 	 -53.57 	 15.667 	 26.5713
| 36> H 	 -52.7718 	 16.3582 	 26.895
| 37> H 	 -53.1909 	 14.6997 	 26.8424
| 38> H 	 -54.5281 	 15.8063 	 27.1706
| 39> H 	 -50.3877 	 10.7342 	 23.3921
| 40> H 	 -56.1475 	 16.1718 	 20.2031
| 41> *
| 42>
| 43>                          ****END OF INPUT****

CARTESIAN COORDINATES (ANGSTROEM)
---------------------------------
  S    -51.727200   12.791200   23.399600
  C    -51.195900   11.261500   22.971400
  C    -51.976000   10.733300   21.926800
  C    -53.073400   11.556800   21.518200
  C    -53.049600   12.791100   22.171200
  H    -53.793600   11.242100   20.784100
  C    -51.781100    9.381830   21.286100
  H    -50.859800    9.537590   20.686500
  H    -52.569500    9.157510   20.546200
  C    -51.654700    8.134260   22.219300
  H    -50.801400    8.279350   22.850000
  H    -52.511200    7.990920   22.842400
  C    -51.417400    6.841360   21.423300
  H    -51.117300    6.012800   22.055300
  H    -52.368200    6.551340   21.007300
  H    -50.680100    7.028410   20.639900
  S    -54.595600   14.212100   20.417400
  C    -55.557600   15.543000   20.933900
  C    -55.628800   15.583800   22.319700
  C    -54.594800   14.758300   22.895500
  C    -53.968400   13.917100   22.021200
  H    -56.239400   16.252800   22.911500
  C    -54.568200   14.612400   24.399800
  H    -54.243200   13.655300   24.780400
  H    -55.598100   14.607000   24.751600
  C    -53.690200   15.740400   25.050600
  H    -54.084000   16.695900   24.771400
  H    -52.651700   15.832600   24.701000
  C    -53.570000   15.667000   26.571300
  H    -52.771800   16.358200   26.895000
  H    -53.190900   14.699700   26.842400
  H    -54.528100   15.806300   27.170600
  H    -50.387700   10.734200   23.392100
  H    -56.147500   16.171800   20.203100

 Total Charge           Charge          ....    0
 Multiplicity           Mult            ....    1
 Number of Electrons    NEL             ....  134
 Basis Dimension        Dim             ....  322

ORBITAL ENERGIES
----------------

  NO   OCC          E(Eh)            E(eV)
   0   2.0000     -88.969293     -2420.9775
   1   2.0000     -88.963445     -2420.8184
   2   2.0000     -10.336985      -281.2836
   3   2.0000     -10.325626      -280.9746
   4   2.0000     -10.323583      -280.9190
   5   2.0000     -10.308248      -280.5017
   6   2.0000     -10.300022      -280.2779
   7   2.0000     -10.299976      -280.2766
   8   2.0000     -10.297470      -280.2084
   9   2.0000     -10.296361      -280.1782
  10   2.0000     -10.293856      -280.1100
  11   2.0000     -10.288610      -279.9673
  12   2.0000     -10.283648      -279.8323
  13   2.0000     -10.282386      -279.7979
  14   2.0000     -10.276905      -279.6488
  15   2.0000     -10.276111      -279.6272
  16   2.0000      -8.083826      -219.9721
  17   2.0000      -8.078967      -219.8399
  18   2.0000      -6.042310      -164.4196
  19   2.0000      -6.038150      -164.3064
  20   2.0000      -6.037462      -164.2877
  21   2.0000      -6.034857      -164.2168
  22   2.0000      -6.033372      -164.1764
  23   2.0000      -6.029688      -164.0761
  24   2.0000      -1.008795       -27.4507
  25   2.0000      -0.987846       -26.8807
  26   2.0000      -0.907161       -24.6851
  27   2.0000      -0.903157       -24.5762
  28   2.0000      -0.872380       -23.7387
  29   2.0000      -0.855315       -23.2743
  30   2.0000      -0.848432       -23.0870
  31   2.0000      -0.813319       -22.1315
  32   2.0000      -0.777664       -21.1613
  33   2.0000      -0.763836       -20.7850
  34   2.0000      -0.706384       -19.2217
  35   2.0000      -0.699507       -19.0346
  36   2.0000      -0.692912       -18.8551
  37   2.0000      -0.669478       -18.2174
  38   2.0000      -0.642811       -17.4918
  39   2.0000      -0.612665       -16.6715
  40   2.0000      -0.599442       -16.3116
  41   2.0000      -0.572438       -15.5768
  42   2.0000      -0.563358       -15.3298
  43   2.0000      -0.551389       -15.0041
  44   2.0000      -0.527799       -14.3622
  45   2.0000      -0.525313       -14.2945
  46   2.0000      -0.517252       -14.0751
  47   2.0000      -0.511422       -13.9165
  48   2.0000      -0.503143       -13.6912
  49   2.0000      -0.501765       -13.6537
  50   2.0000      -0.497975       -13.5506
  51   2.0000      -0.480943       -13.0871
  52   2.0000      -0.469737       -12.7822
  53   2.0000      -0.463547       -12.6137
  54   2.0000      -0.459653       -12.5078
  55   2.0000      -0.448960       -12.2168
  56   2.0000      -0.442144       -12.0313
  57   2.0000      -0.438386       -11.9291
  58   2.0000      -0.433835       -11.8052
  59   2.0000      -0.423070       -11.5123
  60   2.0000      -0.417722       -11.3668
  61   2.0000      -0.416530       -11.3343
  62   2.0000      -0.406657       -11.0657
  63   2.0000      -0.361439        -9.8353
  64   2.0000      -0.329158        -8.9568
  65   2.0000      -0.327461        -8.9107
  66   2.0000      -0.283284        -7.7085
  67   0.0000       0.026379         0.7178
  68   0.0000       0.074532         2.0281
  69   0.0000       0.102719         2.7951
  70   0.0000       0.118961         3.2371
  71   0.0000       0.138069         3.7571

MULLIKEN ATOMIC CHARGES
-----------------------
   0 S :    0.123425
   1 C :   -0.095497
   2 C :   -0.091030
   3 C :    0.012555
   4 C :   -0.133281
   5 H :    0.018168
   6 C :    0.024468
   7 H :    0.043326
   8 H :    0.018715
   9 C :   -0.059686
  10 H :    0.017759
  11 H :    0.030457
  12 C :   -0.042871
  13 H :    0.034229
  14 H :    0.025386
  15 H :    0.031685
  16 S :    0.098575
  17 C :   -0.109470
  18 C :   -0.012482
  19 C :   -0.056251
  20 C :   -0.113361
  21 H :    0.024446
  22 C :    0.043852
  23 H :    0.013118
  24 H :    0.024881
  25 C :   -0.073545
  26 H :    0.011357
  27 H :    0.029258
  28 C :   -0.044731
  29 H :    0.034317
  30 H :    0.016978
  31 H :    0.039542
  32 H :    0.032516
  33 H :    0.083195
Sum of atomic charges:    0.0000000

LOEWDIN ATOMIC CHARGES
----------------------
   0 S :    0.431413
   1 C :   -0.221580
   2 C :   -0.063467
   3 C :   -0.064708
   4 C :   -0.172735
   5 H :    0.031261
   6 C :   -0.038381
   7 H :    0.038667
   8 H :    0.027818
   9 C :   -0.034688
  10 H :    0.015725
  11 H :    0.022317
  12 C :   -0.061164
  13 H :    0.026498
  14 H :    0.021918
  15 H :    0.025111
  16 S :    0.418092
  17 C :   -0.196470
  18 C :   -0.067697
  19 C :   -0.060681
  20 C :   -0.198409
  21 H :    0.031304
  22 C :   -0.031667
  23 H :    0.018606
  24 H :    0.032751
  25 C :   -0.042423
  26 H :    0.015908
  27 H :    0.027851
  28 C :   -0.071915
  29 H :    0.029609
  30 H :    0.018485
  31 H :    0.028825
  32 H :    0.021576
  33 H :    0.042252

  Mayer bond orders larger than 0.100000
B(  0-S ,  1-C ) :   1.1574 B(  0-S ,  4-C ) :   1.1577 B(  1-C ,  2-C ) :   1.5647
B(  1-C , 32-H ) :   0.9765 B(  2-C ,  3-C ) :   1.2858 B(  2-C ,  6-C ) :   1.0207
B(  3-C ,  4-C ) :   1.5279 B(  3-C ,  5-H ) :   0.9892 B(  4-C , 20-C ) :   1.0517
B(  6-C ,  7-H ) :   0.9310 B(  6-C ,  8-H ) :   0.9514 B(  6-C ,  9-C ) :   1.0628
B(  9-C , 10-H ) :   0.9539 B(  9-C , 11-H ) :   0.9611 B(  9-C , 12-C ) :   1.0858
B( 12-C , 13-H ) :   0.9739 B( 12-C , 14-H ) :   0.9770 B( 12-C , 15-H ) :   0.9755
B( 16-S , 17-C ) :   1.1732 B( 16-S , 20-C ) :   1.1314 B( 17-C , 18-C ) :   1.5742
B( 17-C , 33-H ) :   0.9622 B( 18-C , 19-C ) :   1.2541 B( 18-C , 21-H ) :   0.9882
B( 19-C , 20-C ) :   1.5902 B( 19-C , 22-C ) :   1.0440 B( 22-C , 23-H ) :   0.9441
B( 22-C , 24-H ) :   0.9443 B( 22-C , 25-C ) :   1.0361 B( 25-C , 26-H ) :   0.9578
B( 25-C , 27-H ) :   0.9570 B( 25-C , 28-C ) :   1.0887 B( 28-C , 29-H ) :   0.9738
B( 28-C , 30-H ) :   0.9714 B( 28-C , 31-H ) :   0.9741

Dispersion correction           -0.013802919
FINAL SINGLE POINT ENERGY     -1339.885515657055

DIPOLE MOMENT
-------------
                                X             Y             Z
Electronic contribution:     -3.39455      12.61486     -11.43208
Nuclear contribution   :      3.23946     -12.90256      11.56536
                        -----------------------------------------
Total Dipole Moment    :     -0.15509      -0.28770       0.13328
                        -----------------------------------------
Magnitude (a.u.)       :      0.35297
Magnitude (Debye)      :      0.89718

Rotational constants in cm-1:     0.021429     0.007412     0.005860
Rotational constants in MHz :   642.411181   222.200083   175.692784

                             ****ORCA TERMINATED NORMALLY****
TOTAL RUN TIME: 0 days 0 hours 0 minutes 21 seconds 801 msec
