                         Program Version 4.2.1 -  RELEASE  -
|  1> ! wB97X-D3 SP def2-SVP
|  2> %pal
|  3> nprocs 24
|  4> end
|  5>
|  6> * xyz 0 1
|  7> S 	 -57.7786 	 5.87051 	 -16.2968
|  8> C 	 -57.4693 	 4.47881 	 -17.2909
|  9> C 	 -58.6896 	 3.78604 	 -17.4182
| 10> C 	 -59.8177 	 4.63263 	 -17.1031
| 11> C 	 -59.4974 	 5.93261 	 -16.7293
| 12> H 	 -60.857 	 4.36407 	 -17.2069
| 13> C 	 -58.7459 	 2.27652 	 -17.6969
| 14> H 	 -58.0848 	 1.99183 	 -18.4815
| 15> H 	 -59.7336 	 2.09017 	 -18.0818
| 16> C 	 -58.3242 	 1.41186 	 -16.5718
| 17> H 	 -57.4533 	 1.74619 	 -16.0107
| 18> H 	 -59.0891 	 1.43639 	 -15.77
| 19> C 	 -58.1853 	 -0.0669723 	 -16.9645
| 20> H 	 -59.0605 	 -0.519328 	 -17.3957
| 21> H 	 -57.3201 	 -0.257364 	 -17.6682
| 22> H 	 -57.9585 	 -0.715407 	 -16.0955
| 23> S 	 -60.7067 	 7.02065 	 -14.5129
| 24> C 	 -61.8219 	 8.38177 	 -14.7187
| 25> C 	 -62.349 	 8.42231 	 -15.9783
| 26> C 	 -61.5829 	 7.58536 	 -16.9131
| 27> C 	 -60.5124 	 6.895 	 -16.3038
| 28> H 	 -63.2014 	 9.03692 	 -16.2453
| 29> C 	 -61.8948 	 7.56083 	 -18.4178
| 30> H 	 -61.1289 	 7.02074 	 -18.9584
| 31> H 	 -61.8076 	 8.5499 	 -18.8013
| 32> C 	 -63.1785 	 6.8459 	 -18.8381
| 33> H 	 -63.491 	 7.14707 	 -19.8539
| 34> H 	 -63.995 	 7.22119 	 -18.2453
| 35> C 	 -63.1845 	 5.35816 	 -19.028
| 36> H 	 -62.5882 	 5.01435 	 -19.9124
| 37> H 	 -64.2139 	 4.97216 	 -19.2864
| 38> H 	 -62.8006 	 4.7719 	 -18.1885
| 39> H 	 -56.5712 	 3.89207 	 -17.4164
| 40> H 	 -62.4986 	 8.75436 	 -13.9248
| 41> *
| 42>
| 43>                          ****END OF INPUT****

CARTESIAN COORDINATES (ANGSTROEM)
---------------------------------
  S    -57.778600    5.870510  -16.296800
  C    -57.469300    4.478810  -17.290900
  C    -58.689600    3.786040  -17.418200
  C    -59.817700    4.632630  -17.103100
  C    -59.497400    5.932610  -16.729300
  H    -60.857000    4.364070  -17.206900
  C    -58.745900    2.276520  -17.696900
  H    -58.084800    1.991830  -18.481500
  H    -59.733600    2.090170  -18.081800
  C    -58.324200    1.411860  -16.571800
  H    -57.453300    1.746190  -16.010700
  H    -59.089100    1.436390  -15.770000
  C    -58.185300   -0.066972  -16.964500
  H    -59.060500   -0.519328  -17.395700
  H    -57.320100   -0.257364  -17.668200
  H    -57.958500   -0.715407  -16.095500
  S    -60.706700    7.020650  -14.512900
  C    -61.821900    8.381770  -14.718700
  C    -62.349000    8.422310  -15.978300
  C    -61.582900    7.585360  -16.913100
  C    -60.512400    6.895000  -16.303800
  H    -63.201400    9.036920  -16.245300
  C    -61.894800    7.560830  -18.417800
  H    -61.128900    7.020740  -18.958400
  H    -61.807600    8.549900  -18.801300
  C    -63.178500    6.845900  -18.838100
  H    -63.491000    7.147070  -19.853900
  H    -63.995000    7.221190  -18.245300
  C    -63.184500    5.358160  -19.028000
  H    -62.588200    5.014350  -19.912400
  H    -64.213900    4.972160  -19.286400
  H    -62.800600    4.771900  -18.188500
  H    -56.571200    3.892070  -17.416400
  H    -62.498600    8.754360  -13.924800

 Total Charge           Charge          ....    0
 Multiplicity           Mult            ....    1
 Number of Electrons    NEL             ....  134
 Basis Dimension        Dim             ....  322

ORBITAL ENERGIES
----------------

  NO   OCC          E(Eh)            E(eV)
   0   2.0000     -88.967955     -2420.9411
   1   2.0000     -88.962443     -2420.7911
   2   2.0000     -10.337508      -281.2979
   3   2.0000     -10.334078      -281.2046
   4   2.0000     -10.318130      -280.7706
   5   2.0000     -10.317149      -280.7439
   6   2.0000     -10.314888      -280.6824
   7   2.0000     -10.306302      -280.4487
   8   2.0000     -10.299692      -280.2689
   9   2.0000     -10.298646      -280.2404
  10   2.0000     -10.289331      -279.9869
  11   2.0000     -10.289025      -279.9786
  12   2.0000     -10.287897      -279.9479
  13   2.0000     -10.286345      -279.9057
  14   2.0000     -10.285119      -279.8723
  15   2.0000     -10.284450      -279.8541
  16   2.0000      -8.082107      -219.9253
  17   2.0000      -8.076358      -219.7689
  18   2.0000      -6.040744      -164.3770
  19   2.0000      -6.037016      -164.2756
  20   2.0000      -6.035045      -164.2219
  21   2.0000      -6.032375      -164.1493
  22   2.0000      -6.031320      -164.1206
  23   2.0000      -6.026610      -163.9924
  24   2.0000      -1.002581       -27.2816
  25   2.0000      -0.978927       -26.6380
  26   2.0000      -0.918141       -24.9839
  27   2.0000      -0.909236       -24.7416
  28   2.0000      -0.872150       -23.7324
  29   2.0000      -0.846128       -23.0243
  30   2.0000      -0.843059       -22.9408
  31   2.0000      -0.816553       -22.2195
  32   2.0000      -0.782838       -21.3021
  33   2.0000      -0.773040       -21.0355
  34   2.0000      -0.707929       -19.2637
  35   2.0000      -0.704473       -19.1697
  36   2.0000      -0.693417       -18.8688
  37   2.0000      -0.654496       -17.8097
  38   2.0000      -0.641500       -17.4561
  39   2.0000      -0.618043       -16.8178
  40   2.0000      -0.593861       -16.1598
  41   2.0000      -0.573057       -15.5937
  42   2.0000      -0.563412       -15.3312
  43   2.0000      -0.555324       -15.1111
  44   2.0000      -0.542610       -14.7652
  45   2.0000      -0.524906       -14.2834
  46   2.0000      -0.519052       -14.1241
  47   2.0000      -0.508162       -13.8278
  48   2.0000      -0.506504       -13.7827
  49   2.0000      -0.500345       -13.6151
  50   2.0000      -0.492759       -13.4087
  51   2.0000      -0.477999       -13.0070
  52   2.0000      -0.468131       -12.7385
  53   2.0000      -0.463629       -12.6160
  54   2.0000      -0.460101       -12.5200
  55   2.0000      -0.451279       -12.2799
  56   2.0000      -0.446558       -12.1515
  57   2.0000      -0.440360       -11.9828
  58   2.0000      -0.434858       -11.8331
  59   2.0000      -0.423393       -11.5211
  60   2.0000      -0.418102       -11.3771
  61   2.0000      -0.409211       -11.1352
  62   2.0000      -0.405670       -11.0388
  63   2.0000      -0.341892        -9.3034
  64   2.0000      -0.326158        -8.8752
  65   2.0000      -0.320136        -8.7113
  66   2.0000      -0.300592        -8.1795
  67   0.0000       0.021312         0.5799
  68   0.0000       0.046546         1.2666
  69   0.0000       0.097047         2.6408
  70   0.0000       0.106894         2.9087
  71   0.0000       0.132920         3.6169

MULLIKEN ATOMIC CHARGES
-----------------------
   0 S :    0.113121
   1 C :   -0.077850
   2 C :   -0.135473
   3 C :    0.052786
   4 C :   -0.146154
   5 H :   -0.000655
   6 C :    0.110255
   7 H :    0.010603
   8 H :    0.016362
   9 C :   -0.067018
  10 H :    0.029196
  11 H :    0.022164
  12 C :   -0.072534
  13 H :    0.030825
  14 H :    0.035253
  15 H :    0.035504
  16 S :    0.077931
  17 C :   -0.069235
  18 C :   -0.050437
  19 C :   -0.049358
  20 C :   -0.165013
  21 H :    0.030178
  22 C :    0.092939
  23 H :    0.013199
  24 H :    0.029521
  25 C :   -0.060256
  26 H :    0.022588
  27 H :    0.017962
  28 C :   -0.075362
  29 H :    0.033984
  30 H :    0.037862
  31 H :    0.033293
  32 H :    0.052308
  33 H :    0.071509
Sum of atomic charges:   -0.0000000

LOEWDIN ATOMIC CHARGES
----------------------
   0 S :    0.408576
   1 C :   -0.196756
   2 C :   -0.059277
   3 C :   -0.052521
   4 C :   -0.201797
   5 H :    0.025444
   6 C :   -0.031964
   7 H :    0.027998
   8 H :    0.028693
   9 C :   -0.046054
  10 H :    0.026089
  11 H :    0.026692
  12 C :   -0.071373
  13 H :    0.021952
  14 H :    0.027356
  15 H :    0.030728
  16 S :    0.365841
  17 C :   -0.187330
  18 C :   -0.066942
  19 C :   -0.048776
  20 C :   -0.172678
  21 H :    0.033716
  22 C :   -0.031178
  23 H :    0.030777
  24 H :    0.031137
  25 C :   -0.046895
  26 H :    0.031978
  27 H :    0.018452
  28 C :   -0.071826
  29 H :    0.029189
  30 H :    0.035205
  31 H :    0.016231
  32 H :    0.031076
  33 H :    0.038236

  Mayer bond orders larger than 0.100000
B(  0-S ,  1-C ) :   1.1491 B(  0-S ,  4-C ) :   1.1400 B(  1-C ,  2-C ) :   1.5764
B(  1-C ,  4-C ) :   0.1064 B(  1-C , 32-H ) :   0.9679 B(  2-C ,  3-C ) :   1.2635
B(  2-C ,  6-C ) :   1.0308 B(  3-C ,  4-C ) :   1.5337 B(  3-C ,  5-H ) :   0.9976
B(  4-C , 20-C ) :   1.0609 B(  6-C ,  7-H ) :   0.9372 B(  6-C ,  8-H ) :   0.9370
B(  6-C ,  9-C ) :   1.0604 B(  9-C , 10-H ) :   0.9559 B(  9-C , 11-H ) :   0.9477
B(  9-C , 12-C ) :   1.0825 B( 12-C , 13-H ) :   0.9753 B( 12-C , 14-H ) :   0.9737
B( 12-C , 15-H ) :   0.9734 B( 16-S , 17-C ) :   1.1269 B( 16-S , 20-C ) :   1.1244
B( 17-C , 18-C ) :   1.6609 B( 17-C , 33-H ) :   0.9527 B( 18-C , 19-C ) :   1.2028
B( 18-C , 21-H ) :   0.9858 B( 19-C , 20-C ) :   1.6302 B( 19-C , 22-C ) :   1.0418
B( 22-C , 23-H ) :   0.9357 B( 22-C , 24-H ) :   0.9383 B( 22-C , 25-C ) :   1.0640
B( 25-C , 26-H ) :   0.9480 B( 25-C , 27-H ) :   0.9589 B( 25-C , 28-C ) :   1.0843
B( 28-C , 29-H ) :   0.9711 B( 28-C , 30-H ) :   0.9674 B( 28-C , 31-H ) :   0.9728

Dispersion correction           -0.014290814
FINAL SINGLE POINT ENERGY     -1339.840317168559

DIPOLE MOMENT
-------------
                                X             Y             Z
Electronic contribution:      8.86193      20.31979      15.05417
Nuclear contribution   :     -9.38439     -20.87468     -15.42135
                        -----------------------------------------
Total Dipole Moment    :     -0.52246      -0.55489      -0.36718
                        -----------------------------------------
Magnitude (a.u.)       :      0.84599
Magnitude (Debye)      :      2.15033

Rotational constants in cm-1:     0.019679     0.007981     0.006620
Rotational constants in MHz :   589.956426   239.272849   198.472491

                             ****ORCA TERMINATED NORMALLY****
TOTAL RUN TIME: 0 days 0 hours 0 minutes 21 seconds 354 msec
