                         Program Version 4.2.1 -  RELEASE  -
|  1> ! wB97X-D3 SP def2-SVP
|  2> %pal
|  3> nprocs 24
|  4> end
|  5>
|  6> * xyz 0 1
|  7> S 	 -127.826 	 29.5937 	 -20.1389
|  8> C 	 -128.887 	 30.9648 	 -20.2644
|  9> C 	 -130.179 	 30.632 	 -20.4466
| 10> C 	 -130.325 	 29.2276 	 -20.5782
| 11> C 	 -129.135 	 28.5142 	 -20.3596
| 12> H 	 -131.247 	 28.7318 	 -20.7589
| 13> C 	 -131.331 	 31.6164 	 -20.4537
| 14> H 	 -131.881 	 31.505 	 -21.3937
| 15> H 	 -130.907 	 32.6205 	 -20.4994
| 16> C 	 -132.302 	 31.5716 	 -19.25
| 17> H 	 -131.755 	 31.8875 	 -18.3856
| 18> H 	 -133.024 	 32.3438 	 -19.4415
| 19> C 	 -133.02 	 30.2821 	 -18.9692
| 20> H 	 -133.756 	 30.4278 	 -18.1683
| 21> H 	 -133.406 	 29.7455 	 -19.8108
| 22> H 	 -132.286 	 29.6069 	 -18.5216
| 23> S 	 -129.26 	 26.3483 	 -22.0021
| 24> C 	 -129.094 	 24.732 	 -21.4401
| 25> C 	 -128.703 	 24.7271 	 -20.1361
| 26> C 	 -128.537 	 26.0309 	 -19.5816
| 27> C 	 -128.972 	 27.0757 	 -20.4107
| 28> H 	 -128.482 	 23.7721 	 -19.602
| 29> C 	 -128.204 	 26.2395 	 -18.0939
| 30> H 	 -127.339 	 26.8696 	 -18.0634
| 31> H 	 -127.855 	 25.2991 	 -17.7342
| 32> C 	 -129.32 	 26.6374 	 -17.1492
| 33> H 	 -130.013 	 25.8205 	 -17.0913
| 34> H 	 -129.867 	 27.5132 	 -17.533
| 35> C 	 -128.794 	 26.9743 	 -15.7374
| 36> H 	 -128.01 	 27.772 	 -15.7469
| 37> H 	 -128.553 	 26.1311 	 -15.1018
| 38> H 	 -129.623 	 27.3271 	 -15.136
| 39> H 	 -128.721 	 32.0301 	 -20.0582
| 40> H 	 -129.189 	 23.7716 	 -22.0221
| 41> *
| 42>
| 43>                          ****END OF INPUT****

CARTESIAN COORDINATES (ANGSTROEM)
---------------------------------
  S    -127.826000   29.593700  -20.138900
  C    -128.887000   30.964800  -20.264400
  C    -130.179000   30.632000  -20.446600
  C    -130.325000   29.227600  -20.578200
  C    -129.135000   28.514200  -20.359600
  H    -131.247000   28.731800  -20.758900
  C    -131.331000   31.616400  -20.453700
  H    -131.881000   31.505000  -21.393700
  H    -130.907000   32.620500  -20.499400
  C    -132.302000   31.571600  -19.250000
  H    -131.755000   31.887500  -18.385600
  H    -133.024000   32.343800  -19.441500
  C    -133.020000   30.282100  -18.969200
  H    -133.756000   30.427800  -18.168300
  H    -133.406000   29.745500  -19.810800
  H    -132.286000   29.606900  -18.521600
  S    -129.260000   26.348300  -22.002100
  C    -129.094000   24.732000  -21.440100
  C    -128.703000   24.727100  -20.136100
  C    -128.537000   26.030900  -19.581600
  C    -128.972000   27.075700  -20.410700
  H    -128.482000   23.772100  -19.602000
  C    -128.204000   26.239500  -18.093900
  H    -127.339000   26.869600  -18.063400
  H    -127.855000   25.299100  -17.734200
  C    -129.320000   26.637400  -17.149200
  H    -130.013000   25.820500  -17.091300
  H    -129.867000   27.513200  -17.533000
  C    -128.794000   26.974300  -15.737400
  H    -128.010000   27.772000  -15.746900
  H    -128.553000   26.131100  -15.101800
  H    -129.623000   27.327100  -15.136000
  H    -128.721000   32.030100  -20.058200
  H    -129.189000   23.771600  -22.022100

 Total Charge           Charge          ....    0
 Multiplicity           Mult            ....    1
 Number of Electrons    NEL             ....  134
 Basis Dimension        Dim             ....  322

ORBITAL ENERGIES
----------------

  NO   OCC          E(Eh)            E(eV)
   0   2.0000     -88.970006     -2420.9969
   1   2.0000     -88.961057     -2420.7534
   2   2.0000     -10.330067      -281.0954
   3   2.0000     -10.327724      -281.0317
   4   2.0000     -10.316489      -280.7259
   5   2.0000     -10.308727      -280.5147
   6   2.0000     -10.304528      -280.4005
   7   2.0000     -10.294051      -280.1154
   8   2.0000     -10.293574      -280.1024
   9   2.0000     -10.292664      -280.0776
  10   2.0000     -10.292460      -280.0721
  11   2.0000     -10.283142      -279.8185
  12   2.0000     -10.282642      -279.8049
  13   2.0000     -10.281076      -279.7623
  14   2.0000     -10.277157      -279.6557
  15   2.0000     -10.274872      -279.5935
  16   2.0000      -8.085201      -220.0095
  17   2.0000      -8.075994      -219.7590
  18   2.0000      -6.043686      -164.4571
  19   2.0000      -6.039605      -164.3460
  20   2.0000      -6.035995      -164.2478
  21   2.0000      -6.034524      -164.2077
  22   2.0000      -6.030294      -164.0926
  23   2.0000      -6.026876      -163.9996
  24   2.0000      -1.011420       -27.5221
  25   2.0000      -0.989088       -26.9144
  26   2.0000      -0.915633       -24.9156
  27   2.0000      -0.906245       -24.6602
  28   2.0000      -0.874200       -23.7882
  29   2.0000      -0.850663       -23.1477
  30   2.0000      -0.844258       -22.9734
  31   2.0000      -0.815143       -22.1812
  32   2.0000      -0.788348       -21.4520
  33   2.0000      -0.772727       -21.0270
  34   2.0000      -0.710359       -19.3299
  35   2.0000      -0.701865       -19.0987
  36   2.0000      -0.692637       -18.8476
  37   2.0000      -0.657520       -17.8920
  38   2.0000      -0.637309       -17.3421
  39   2.0000      -0.615271       -16.7424
  40   2.0000      -0.591601       -16.0983
  41   2.0000      -0.577855       -15.7242
  42   2.0000      -0.564986       -15.3741
  43   2.0000      -0.550138       -14.9700
  44   2.0000      -0.544397       -14.8138
  45   2.0000      -0.520496       -14.1634
  46   2.0000      -0.517051       -14.0697
  47   2.0000      -0.511630       -13.9221
  48   2.0000      -0.507063       -13.7979
  49   2.0000      -0.496588       -13.5128
  50   2.0000      -0.490257       -13.3406
  51   2.0000      -0.482124       -13.1193
  52   2.0000      -0.472804       -12.8657
  53   2.0000      -0.465683       -12.6719
  54   2.0000      -0.460633       -12.5344
  55   2.0000      -0.444029       -12.0826
  56   2.0000      -0.443161       -12.0590
  57   2.0000      -0.438345       -11.9280
  58   2.0000      -0.435971       -11.8634
  59   2.0000      -0.432636       -11.7726
  60   2.0000      -0.416003       -11.3200
  61   2.0000      -0.413491       -11.2516
  62   2.0000      -0.409633       -11.1467
  63   2.0000      -0.337987        -9.1971
  64   2.0000      -0.334058        -9.0902
  65   2.0000      -0.328267        -8.9326
  66   2.0000      -0.300607        -8.1799
  67   0.0000       0.033621         0.9149
  68   0.0000       0.068579         1.8661
  69   0.0000       0.116371         3.1666
  70   0.0000       0.123998         3.3741
  71   0.0000       0.129690         3.5291

MULLIKEN ATOMIC CHARGES
-----------------------
   0 S :    0.139748
   1 C :   -0.112368
   2 C :   -0.103621
   3 C :    0.042789
   4 C :   -0.161761
   5 H :   -0.006734
   6 C :    0.071751
   7 H :    0.033590
   8 H :    0.009597
   9 C :   -0.044498
  10 H :    0.019243
  11 H :    0.023897
  12 C :   -0.049929
  13 H :    0.037033
  14 H :    0.032481
  15 H :    0.034373
  16 S :    0.106476
  17 C :   -0.096276
  18 C :   -0.064190
  19 C :   -0.038794
  20 C :   -0.173779
  21 H :    0.033164
  22 C :    0.100242
  23 H :    0.015568
  24 H :   -0.008615
  25 C :   -0.048385
  26 H :    0.019961
  27 H :    0.040201
  28 C :   -0.058259
  29 H :    0.044825
  30 H :    0.027097
  31 H :    0.019986
  32 H :    0.039591
  33 H :    0.075593
Sum of atomic charges:   -0.0000000

LOEWDIN ATOMIC CHARGES
----------------------
   0 S :    0.435071
   1 C :   -0.207095
   2 C :   -0.070576
   3 C :   -0.052250
   4 C :   -0.217614
   5 H :    0.023826
   6 C :   -0.027694
   7 H :    0.032410
   8 H :    0.029495
   9 C :   -0.035467
  10 H :    0.023293
  11 H :    0.022099
  12 C :   -0.067894
  13 H :    0.032023
  14 H :    0.020471
  15 H :    0.028303
  16 S :    0.415475
  17 C :   -0.205049
  18 C :   -0.088250
  19 C :   -0.055228
  20 C :   -0.195623
  21 H :    0.038942
  22 C :   -0.031408
  23 H :    0.024548
  24 H :    0.022660
  25 C :   -0.034315
  26 H :    0.022788
  27 H :    0.026624
  28 C :   -0.071439
  29 H :    0.031019
  30 H :    0.023818
  31 H :    0.026611
  32 H :    0.033907
  33 H :    0.046521

  Mayer bond orders larger than 0.100000
B(  0-S ,  1-C ) :   1.1364 B(  0-S ,  4-C ) :   1.1630 B(  1-C ,  2-C ) :   1.6456
B(  1-C , 32-H ) :   0.9508 B(  2-C ,  3-C ) :   1.2491 B(  2-C ,  6-C ) :   1.0200
B(  3-C ,  4-C ) :   1.5413 B(  3-C ,  5-H ) :   1.0019 B(  4-C , 20-C ) :   1.0443
B(  6-C ,  7-H ) :   0.9377 B(  6-C ,  8-H ) :   0.9343 B(  6-C ,  9-C ) :   1.0782
B(  9-C , 10-H ) :   0.9503 B(  9-C , 11-H ) :   0.9538 B(  9-C , 12-C ) :   1.0926
B( 12-C , 13-H ) :   0.9673 B( 12-C , 14-H ) :   0.9739 B( 12-C , 15-H ) :   0.9667
B( 16-S , 17-C ) :   1.1679 B( 16-S , 20-C ) :   1.1458 B( 17-C , 18-C ) :   1.5975
B( 17-C , 20-C ) :   0.1028 B( 17-C , 33-H ) :   0.9572 B( 18-C , 19-C ) :   1.2665
B( 18-C , 21-H ) :   0.9818 B( 19-C , 20-C ) :   1.5613 B( 19-C , 22-C ) :   1.0458
B( 22-C , 23-H ) :   0.9302 B( 22-C , 24-H ) :   0.9287 B( 22-C , 25-C ) :   1.0671
B( 25-C , 26-H ) :   0.9507 B( 25-C , 27-H ) :   0.9582 B( 25-C , 28-C ) :   1.0861
B( 28-C , 29-H ) :   0.9756 B( 28-C , 30-H ) :   0.9737 B( 28-C , 31-H ) :   0.9694

Dispersion correction           -0.014845853
FINAL SINGLE POINT ENERGY     -1339.886983497234

DIPOLE MOMENT
-------------
                                X             Y             Z
Electronic contribution:     13.70143      -5.46569     -20.17046
Nuclear contribution   :    -14.09117       5.50936      20.62125
                        -----------------------------------------
Total Dipole Moment    :     -0.38974       0.04367       0.45079
                        -----------------------------------------
Magnitude (a.u.)       :      0.59751
Magnitude (Debye)      :      1.51874

Rotational constants in cm-1:     0.017078     0.009325     0.007970
Rotational constants in MHz :   511.984732   279.568908   238.938949

                             ****ORCA TERMINATED NORMALLY****
TOTAL RUN TIME: 0 days 0 hours 0 minutes 22 seconds 40 msec
