                         Program Version 4.2.1 -  RELEASE  -
|  1> ! wB97X-D3 SP def2-SVP
|  2> %pal
|  3> nprocs 24
|  4> end
|  5>
|  6> * xyz 0 1
|  7> S 	 -40.669 	 -48.1552 	 -69.633
|  8> C 	 -39.1786 	 -47.4156 	 -69.0125
|  9> C 	 -38.0532 	 -47.9577 	 -69.5379
| 10> C 	 -38.3638 	 -49.1647 	 -70.2098
| 11> C 	 -39.7334 	 -49.5115 	 -70.2025
| 12> H 	 -37.6966 	 -49.9046 	 -70.6163
| 13> C 	 -36.589 	 -47.5625 	 -69.3247
| 14> H 	 -36.6528 	 -46.6806 	 -68.6549
| 15> H 	 -36.1989 	 -47.128 	 -70.2834
| 16> C 	 -35.582 	 -48.5934 	 -68.9673
| 17> H 	 -35.7152 	 -49.0049 	 -67.9771
| 18> H 	 -35.5946 	 -49.3532 	 -69.7169
| 19> C 	 -34.1827 	 -47.9812 	 -69.069
| 20> H 	 -33.984 	 -47.4113 	 -69.9598
| 21> H 	 -33.9479 	 -47.3737 	 -68.23
| 22> H 	 -33.3869 	 -48.6655 	 -68.948
| 23> S 	 -40.6712 	 -50.6683 	 -72.4819
| 24> C 	 -40.8865 	 -52.4786 	 -72.5167
| 25> C 	 -40.6662 	 -53.0179 	 -71.2515
| 26> C 	 -40.2842 	 -52.0865 	 -70.2946
| 27> C 	 -40.2824 	 -50.7451 	 -70.7672
| 28> H 	 -40.6621 	 -54.1274 	 -71.1563
| 29> C 	 -39.8205 	 -52.5596 	 -68.928
| 30> H 	 -40.321 	 -53.5079 	 -68.7787
| 31> H 	 -40.2019 	 -51.8406 	 -68.3053
| 32> C 	 -38.3527 	 -52.8067 	 -68.7559
| 33> H 	 -37.7781 	 -51.9078 	 -68.7751
| 34> H 	 -37.9003 	 -53.3491 	 -69.6032
| 35> C 	 -37.9497 	 -53.5512 	 -67.458
| 36> H 	 -38.3552 	 -52.9564 	 -66.5992
| 37> H 	 -36.9102 	 -53.7563 	 -67.2923
| 38> H 	 -38.5187 	 -54.4569 	 -67.3553
| 39> H 	 -39.1526 	 -46.5594 	 -68.3166
| 40> H 	 -41.1574 	 -52.9635 	 -73.4204
| 41> *
| 42>
| 43>                          ****END OF INPUT****

CARTESIAN COORDINATES (ANGSTROEM)
---------------------------------
  S    -40.669000  -48.155200  -69.633000
  C    -39.178600  -47.415600  -69.012500
  C    -38.053200  -47.957700  -69.537900
  C    -38.363800  -49.164700  -70.209800
  C    -39.733400  -49.511500  -70.202500
  H    -37.696600  -49.904600  -70.616300
  C    -36.589000  -47.562500  -69.324700
  H    -36.652800  -46.680600  -68.654900
  H    -36.198900  -47.128000  -70.283400
  C    -35.582000  -48.593400  -68.967300
  H    -35.715200  -49.004900  -67.977100
  H    -35.594600  -49.353200  -69.716900
  C    -34.182700  -47.981200  -69.069000
  H    -33.984000  -47.411300  -69.959800
  H    -33.947900  -47.373700  -68.230000
  H    -33.386900  -48.665500  -68.948000
  S    -40.671200  -50.668300  -72.481900
  C    -40.886500  -52.478600  -72.516700
  C    -40.666200  -53.017900  -71.251500
  C    -40.284200  -52.086500  -70.294600
  C    -40.282400  -50.745100  -70.767200
  H    -40.662100  -54.127400  -71.156300
  C    -39.820500  -52.559600  -68.928000
  H    -40.321000  -53.507900  -68.778700
  H    -40.201900  -51.840600  -68.305300
  C    -38.352700  -52.806700  -68.755900
  H    -37.778100  -51.907800  -68.775100
  H    -37.900300  -53.349100  -69.603200
  C    -37.949700  -53.551200  -67.458000
  H    -38.355200  -52.956400  -66.599200
  H    -36.910200  -53.756300  -67.292300
  H    -38.518700  -54.456900  -67.355300
  H    -39.152600  -46.559400  -68.316600
  H    -41.157400  -52.963500  -73.420400

 Total Charge           Charge          ....    0
 Multiplicity           Mult            ....    1
 Number of Electrons    NEL             ....  134
 Basis Dimension        Dim             ....  322

ORBITAL ENERGIES
----------------

  NO   OCC          E(Eh)            E(eV)
   0   2.0000     -88.966347     -2420.8974
   1   2.0000     -88.964903     -2420.8581
   2   2.0000     -10.328672      -281.0575
   3   2.0000     -10.328106      -281.0421
   4   2.0000     -10.322424      -280.8874
   5   2.0000     -10.315760      -280.7061
   6   2.0000     -10.304073      -280.3881
   7   2.0000     -10.298938      -280.2483
   8   2.0000     -10.297335      -280.2047
   9   2.0000     -10.297207      -280.2012
  10   2.0000     -10.292120      -280.0628
  11   2.0000     -10.286029      -279.8971
  12   2.0000     -10.281969      -279.7866
  13   2.0000     -10.281481      -279.7733
  14   2.0000     -10.276634      -279.6414
  15   2.0000     -10.270947      -279.4867
  16   2.0000      -8.080831      -219.8906
  17   2.0000      -8.078516      -219.8276
  18   2.0000      -6.039320      -164.3383
  19   2.0000      -6.036975      -164.2744
  20   2.0000      -6.035566      -164.2361
  21   2.0000      -6.033160      -164.1706
  22   2.0000      -6.031429      -164.1235
  23   2.0000      -6.029422      -164.0689
  24   2.0000      -1.001920       -27.2636
  25   2.0000      -0.979841       -26.6628
  26   2.0000      -0.920590       -25.0505
  27   2.0000      -0.910315       -24.7709
  28   2.0000      -0.871581       -23.7169
  29   2.0000      -0.849983       -23.1292
  30   2.0000      -0.845414       -23.0049
  31   2.0000      -0.809410       -22.0252
  32   2.0000      -0.786044       -21.3893
  33   2.0000      -0.772581       -21.0230
  34   2.0000      -0.713324       -19.4105
  35   2.0000      -0.704674       -19.1752
  36   2.0000      -0.693991       -18.8844
  37   2.0000      -0.662637       -18.0313
  38   2.0000      -0.639719       -17.4076
  39   2.0000      -0.616595       -16.7784
  40   2.0000      -0.595946       -16.2165
  41   2.0000      -0.583090       -15.8667
  42   2.0000      -0.568987       -15.4829
  43   2.0000      -0.560239       -15.2449
  44   2.0000      -0.526906       -14.3378
  45   2.0000      -0.524208       -14.2644
  46   2.0000      -0.518032       -14.0964
  47   2.0000      -0.508815       -13.8456
  48   2.0000      -0.504859       -13.7379
  49   2.0000      -0.498301       -13.5595
  50   2.0000      -0.489797       -13.3281
  51   2.0000      -0.476892       -12.9769
  52   2.0000      -0.469624       -12.7791
  53   2.0000      -0.467253       -12.7146
  54   2.0000      -0.459839       -12.5128
  55   2.0000      -0.450405       -12.2561
  56   2.0000      -0.442994       -12.0545
  57   2.0000      -0.442273       -12.0349
  58   2.0000      -0.438494       -11.9320
  59   2.0000      -0.426276       -11.5996
  60   2.0000      -0.421456       -11.4684
  61   2.0000      -0.417229       -11.3534
  62   2.0000      -0.411465       -11.1965
  63   2.0000      -0.340590        -9.2679
  64   2.0000      -0.331276        -9.0145
  65   2.0000      -0.313789        -8.5386
  66   2.0000      -0.304218        -8.2782
  67   0.0000       0.039513         1.0752
  68   0.0000       0.043726         1.1898
  69   0.0000       0.110830         3.0158
  70   0.0000       0.111928         3.0457
  71   0.0000       0.133167         3.6237

MULLIKEN ATOMIC CHARGES
-----------------------
   0 S :    0.116217
   1 C :   -0.147661
   2 C :   -0.024672
   3 C :    0.035115
   4 C :   -0.192384
   5 H :    0.012239
   6 C :    0.042324
   7 H :    0.015628
   8 H :    0.034738
   9 C :   -0.025493
  10 H :    0.035334
  11 H :    0.026685
  12 C :   -0.034322
  13 H :    0.027426
  14 H :    0.014352
  15 H :    0.012685
  16 S :    0.095743
  17 C :   -0.103227
  18 C :   -0.036349
  19 C :   -0.052149
  20 C :   -0.178988
  21 H :    0.038367
  22 C :    0.155795
  23 H :    0.007011
  24 H :    0.012333
  25 C :   -0.060707
  26 H :    0.016402
  27 H :    0.019863
  28 C :   -0.042608
  29 H :    0.025067
  30 H :    0.039732
  31 H :    0.016187
  32 H :    0.048954
  33 H :    0.050362
Sum of atomic charges:    0.0000000

LOEWDIN ATOMIC CHARGES
----------------------
   0 S :    0.396247
   1 C :   -0.186879
   2 C :   -0.069133
   3 C :   -0.053077
   4 C :   -0.209434
   5 H :    0.026748
   6 C :   -0.033911
   7 H :    0.029437
   8 H :    0.040027
   9 C :   -0.033091
  10 H :    0.027459
  11 H :    0.022720
  12 C :   -0.061242
  13 H :    0.023781
  14 H :    0.022369
  15 H :    0.021631
  16 S :    0.382322
  17 C :   -0.155047
  18 C :   -0.075635
  19 C :   -0.049844
  20 C :   -0.204088
  21 H :    0.042167
  22 C :   -0.017898
  23 H :    0.030545
  24 H :    0.023693
  25 C :   -0.041467
  26 H :    0.019231
  27 H :    0.024277
  28 C :   -0.065308
  29 H :    0.029471
  30 H :    0.024627
  31 H :    0.018510
  32 H :    0.031219
  33 H :    0.019571

  Mayer bond orders larger than 0.100000
B(  0-S ,  1-C ) :   1.1354 B(  0-S ,  4-C ) :   1.1432 B(  1-C ,  2-C ) :   1.6319
B(  1-C , 32-H ) :   0.9608 B(  2-C ,  3-C ) :   1.2165 B(  2-C ,  6-C ) :   1.0160
B(  3-C ,  4-C ) :   1.5915 B(  3-C ,  5-H ) :   0.9920 B(  4-C , 20-C ) :   1.0205
B(  6-C ,  7-H ) :   0.9425 B(  6-C ,  8-H ) :   0.9311 B(  6-C ,  9-C ) :   1.0766
B(  9-C , 10-H ) :   0.9537 B(  9-C , 11-H ) :   0.9430 B(  9-C , 12-C ) :   1.0897
B( 12-C , 13-H ) :   0.9735 B( 12-C , 14-H ) :   0.9714 B( 12-C , 15-H ) :   0.9693
B( 16-S , 17-C ) :   1.1575 B( 16-S , 20-C ) :   1.1596 B( 17-C , 18-C ) :   1.5818
B( 17-C , 20-C ) :   0.1174 B( 17-C , 33-H ) :   0.9742 B( 18-C , 19-C ) :   1.2755
B( 18-C , 21-H ) :   0.9808 B( 19-C , 20-C ) :   1.5730 B( 19-C , 22-C ) :   1.0354
B( 22-C , 23-H ) :   0.9305 B( 22-C , 24-H ) :   0.9165 B( 22-C , 25-C ) :   1.0722
B( 25-C , 26-H ) :   0.9461 B( 25-C , 27-H ) :   0.9547 B( 25-C , 28-C ) :   1.0833
B( 28-C , 29-H ) :   0.9724 B( 28-C , 30-H ) :   0.9756 B( 28-C , 31-H ) :   0.9747

Dispersion correction           -0.014309954
FINAL SINGLE POINT ENERGY     -1339.862097303079

DIPOLE MOMENT
-------------
                                X             Y             Z
Electronic contribution:    -25.92324       7.41501     -15.32091
Nuclear contribution   :     26.64481      -7.71280      15.56447
                        -----------------------------------------
Total Dipole Moment    :      0.72157      -0.29780       0.24356
                        -----------------------------------------
Magnitude (a.u.)       :      0.81772
Magnitude (Debye)      :      2.07848

Rotational constants in cm-1:     0.015960     0.009261     0.007212
Rotational constants in MHz :   478.472451   277.652400   216.218086

                             ****ORCA TERMINATED NORMALLY****
TOTAL RUN TIME: 0 days 0 hours 0 minutes 22 seconds 78 msec
