                         Program Version 4.2.1 -  RELEASE  -
|  1> ! wB97X-D3 SP def2-SVP
|  2> %pal
|  3> nprocs 24
|  4> end
|  5>
|  6> * xyz 0 1
|  7> S 	 -65.6648 	 9.60577 	 -100.862
|  8> C 	 -65.4081 	 11.3021 	 -101.025
|  9> C 	 -66.1014 	 11.7238 	 -102.162
| 10> C 	 -66.9296 	 10.7068 	 -102.781
| 11> C 	 -66.9268 	 9.54251 	 -102.075
| 12> H 	 -67.5235 	 10.8964 	 -103.654
| 13> C 	 -66.0017 	 13.0615 	 -102.877
| 14> H 	 -65.6211 	 13.8499 	 -102.202
| 15> H 	 -67.0486 	 13.2678 	 -103.097
| 16> C 	 -65.1797 	 13.1962 	 -104.192
| 17> H 	 -64.0772 	 13.3309 	 -104.072
| 18> H 	 -65.1612 	 12.2554 	 -104.825
| 19> C 	 -65.5389 	 14.3982 	 -105.108
| 20> H 	 -65.4643 	 15.2699 	 -104.527
| 21> H 	 -64.905 	 14.3995 	 -106.004
| 22> H 	 -66.5588 	 14.2946 	 -105.366
| 23> S 	 -66.6361 	 6.91738 	 -102.674
| 24> C 	 -68.0415 	 5.94701 	 -102.86
| 25> C 	 -69.1572 	 6.68692 	 -102.872
| 26> C 	 -68.9792 	 8.07917 	 -102.618
| 27> C 	 -67.6387 	 8.32228 	 -102.477
| 28> H 	 -70.0707 	 6.17996 	 -102.969
| 29> C 	 -70.0465 	 9.19537 	 -102.476
| 30> H 	 -70.9584 	 9.06186 	 -103.075
| 31> H 	 -69.5622 	 10.0524 	 -102.902
| 32> C 	 -70.5315 	 9.486 	 -101.088
| 33> H 	 -69.6917 	 9.62939 	 -100.387
| 34> H 	 -71.0781 	 8.65356 	 -100.704
| 35> C 	 -71.5278 	 10.5765 	 -101.317
| 36> H 	 -71.0135 	 11.4244 	 -101.625
| 37> H 	 -72.1137 	 10.8292 	 -100.408
| 38> H 	 -72.2391 	 10.3379 	 -102.188
| 39> H 	 -64.8244 	 11.9837 	 -100.464
| 40> H 	 -67.9605 	 4.93741 	 -103.16
| 41> *
| 42>
| 43>                          ****END OF INPUT****

CARTESIAN COORDINATES (ANGSTROEM)
---------------------------------
  S    -65.664800    9.605770  -100.862000
  C    -65.408100   11.302100  -101.025000
  C    -66.101400   11.723800  -102.162000
  C    -66.929600   10.706800  -102.781000
  C    -66.926800    9.542510  -102.075000
  H    -67.523500   10.896400  -103.654000
  C    -66.001700   13.061500  -102.877000
  H    -65.621100   13.849900  -102.202000
  H    -67.048600   13.267800  -103.097000
  C    -65.179700   13.196200  -104.192000
  H    -64.077200   13.330900  -104.072000
  H    -65.161200   12.255400  -104.825000
  C    -65.538900   14.398200  -105.108000
  H    -65.464300   15.269900  -104.527000
  H    -64.905000   14.399500  -106.004000
  H    -66.558800   14.294600  -105.366000
  S    -66.636100    6.917380  -102.674000
  C    -68.041500    5.947010  -102.860000
  C    -69.157200    6.686920  -102.872000
  C    -68.979200    8.079170  -102.618000
  C    -67.638700    8.322280  -102.477000
  H    -70.070700    6.179960  -102.969000
  C    -70.046500    9.195370  -102.476000
  H    -70.958400    9.061860  -103.075000
  H    -69.562200   10.052400  -102.902000
  C    -70.531500    9.486000  -101.088000
  H    -69.691700    9.629390  -100.387000
  H    -71.078100    8.653560  -100.704000
  C    -71.527800   10.576500  -101.317000
  H    -71.013500   11.424400  -101.625000
  H    -72.113700   10.829200  -100.408000
  H    -72.239100   10.337900  -102.188000
  H    -64.824400   11.983700  -100.464000
  H    -67.960500    4.937410  -103.160000

 Total Charge           Charge          ....    0
 Multiplicity           Mult            ....    1
 Number of Electrons    NEL             ....  134
 Basis Dimension        Dim             ....  322

ORBITAL ENERGIES
----------------

  NO   OCC          E(Eh)            E(eV)
   0   2.0000     -88.966794     -2420.9095
   1   2.0000     -88.961636     -2420.7692
   2   2.0000     -10.328514      -281.0532
   3   2.0000     -10.322568      -280.8914
   4   2.0000     -10.313442      -280.6430
   5   2.0000     -10.305158      -280.4176
   6   2.0000     -10.302477      -280.3447
   7   2.0000     -10.301884      -280.3285
   8   2.0000     -10.296782      -280.1897
   9   2.0000     -10.293345      -280.0961
  10   2.0000     -10.291186      -280.0374
  11   2.0000     -10.289756      -279.9985
  12   2.0000     -10.285049      -279.8704
  13   2.0000     -10.277432      -279.6631
  14   2.0000     -10.276483      -279.6373
  15   2.0000     -10.273738      -279.5626
  16   2.0000      -8.081657      -219.9131
  17   2.0000      -8.077705      -219.8055
  18   2.0000      -6.040324      -164.3656
  19   2.0000      -6.036104      -164.2508
  20   2.0000      -6.036080      -164.2501
  21   2.0000      -6.032263      -164.1462
  22   2.0000      -6.032097      -164.1417
  23   2.0000      -6.028460      -164.0427
  24   2.0000      -1.013801       -27.5869
  25   2.0000      -0.990497       -26.9528
  26   2.0000      -0.922596       -25.1051
  27   2.0000      -0.904780       -24.6203
  28   2.0000      -0.873880       -23.7795
  29   2.0000      -0.855764       -23.2865
  30   2.0000      -0.848006       -23.0754
  31   2.0000      -0.819118       -22.2893
  32   2.0000      -0.778710       -21.1898
  33   2.0000      -0.769821       -20.9479
  34   2.0000      -0.706499       -19.2248
  35   2.0000      -0.699926       -19.0459
  36   2.0000      -0.696987       -18.9660
  37   2.0000      -0.664609       -18.0849
  38   2.0000      -0.641897       -17.4669
  39   2.0000      -0.623846       -16.9757
  40   2.0000      -0.603851       -16.4316
  41   2.0000      -0.576260       -15.6808
  42   2.0000      -0.566608       -15.4182
  43   2.0000      -0.554401       -15.0860
  44   2.0000      -0.530537       -14.4366
  45   2.0000      -0.529354       -14.4045
  46   2.0000      -0.522190       -14.2095
  47   2.0000      -0.511488       -13.9183
  48   2.0000      -0.504536       -13.7291
  49   2.0000      -0.503228       -13.6935
  50   2.0000      -0.498057       -13.5528
  51   2.0000      -0.478950       -13.0329
  52   2.0000      -0.470383       -12.7998
  53   2.0000      -0.459935       -12.5155
  54   2.0000      -0.456849       -12.4315
  55   2.0000      -0.452761       -12.3202
  56   2.0000      -0.451053       -12.2738
  57   2.0000      -0.441871       -12.0239
  58   2.0000      -0.435328       -11.8459
  59   2.0000      -0.425535       -11.5794
  60   2.0000      -0.415664       -11.3108
  61   2.0000      -0.412136       -11.2148
  62   2.0000      -0.408038       -11.1033
  63   2.0000      -0.352471        -9.5912
  64   2.0000      -0.333633        -9.0786
  65   2.0000      -0.324090        -8.8189
  66   2.0000      -0.295492        -8.0407
  67   0.0000       0.036012         0.9799
  68   0.0000       0.069114         1.8807
  69   0.0000       0.114028         3.1029
  70   0.0000       0.123307         3.3553
  71   0.0000       0.132776         3.6130

MULLIKEN ATOMIC CHARGES
-----------------------
   0 S :    0.116182
   1 C :   -0.082963
   2 C :   -0.104714
   3 C :    0.023136
   4 C :   -0.126359
   5 H :    0.021208
   6 C :    0.067032
   7 H :    0.024525
   8 H :    0.023678
   9 C :   -0.119385
  10 H :    0.030180
  11 H :    0.032040
  12 C :   -0.022376
  13 H :    0.021913
  14 H :    0.045424
  15 H :    0.017199
  16 S :    0.105006
  17 C :   -0.075571
  18 C :   -0.022346
  19 C :   -0.001582
  20 C :   -0.187068
  21 H :   -0.006474
  22 C :    0.051917
  23 H :    0.015781
  24 H :   -0.002024
  25 C :   -0.032578
  26 H :    0.044543
  27 H :    0.016835
  28 C :   -0.028931
  29 H :    0.009686
  30 H :    0.038273
  31 H :    0.032460
  32 H :    0.031422
  33 H :    0.043929
Sum of atomic charges:   -0.0000000

LOEWDIN ATOMIC CHARGES
----------------------
   0 S :    0.415825
   1 C :   -0.204125
   2 C :   -0.061898
   3 C :   -0.062199
   4 C :   -0.193994
   5 H :    0.029150
   6 C :   -0.038103
   7 H :    0.031842
   8 H :    0.030077
   9 C :   -0.051984
  10 H :    0.025610
  11 H :    0.025508
  12 C :   -0.055269
  13 H :    0.017509
  14 H :    0.032910
  15 H :    0.015884
  16 S :    0.415257
  17 C :   -0.186456
  18 C :   -0.065742
  19 C :   -0.054075
  20 C :   -0.194282
  21 H :    0.023790
  22 C :   -0.027236
  23 H :    0.030413
  24 H :    0.024324
  25 C :   -0.039324
  26 H :    0.032383
  27 H :    0.020812
  28 C :   -0.061116
  29 H :    0.014225
  30 H :    0.027077
  31 H :    0.034356
  32 H :    0.026969
  33 H :    0.021881

  Mayer bond orders larger than 0.100000
B(  0-S ,  1-C ) :   1.1292 B(  0-S ,  4-C ) :   1.1470 B(  1-C ,  2-C ) :   1.6047
B(  1-C , 32-H ) :   0.9762 B(  2-C ,  3-C ) :   1.2389 B(  2-C ,  6-C ) :   1.0339
B(  3-C ,  4-C ) :   1.5677 B(  3-C ,  5-H ) :   0.9904 B(  4-C , 20-C ) :   1.0194
B(  6-C ,  7-H ) :   0.9394 B(  6-C ,  8-H ) :   0.9443 B(  6-C ,  9-C ) :   1.0432
B(  9-C , 10-H ) :   0.9587 B(  9-C , 11-H ) :   0.9611 B(  9-C , 12-C ) :   1.0732
B( 12-C , 13-H ) :   0.9775 B( 12-C , 14-H ) :   0.9737 B( 12-C , 15-H ) :   0.9773
B( 16-S , 17-C ) :   1.1420 B( 16-S , 20-C ) :   1.1613 B( 17-C , 18-C ) :   1.6285
B( 17-C , 33-H ) :   0.9699 B( 18-C , 19-C ) :   1.2279 B( 18-C , 21-H ) :   1.0028
B( 19-C , 20-C ) :   1.6170 B( 19-C , 22-C ) :   1.0124 B( 22-C , 23-H ) :   0.9374
B( 22-C , 24-H ) :   0.9310 B( 22-C , 25-C ) :   1.0731 B( 25-C , 26-H ) :   0.9511
B( 25-C , 27-H ) :   0.9483 B( 25-C , 28-C ) :   1.0775 B( 28-C , 29-H ) :   0.9731
B( 28-C , 30-H ) :   0.9700 B( 28-C , 31-H ) :   0.9655

Dispersion correction           -0.013822608
FINAL SINGLE POINT ENERGY     -1339.866118610558

DIPOLE MOMENT
-------------
                                X             Y             Z
Electronic contribution:     12.57535     -23.38160       7.93899
Nuclear contribution   :    -12.92840      23.77442      -8.21772
                        -----------------------------------------
Total Dipole Moment    :     -0.35306       0.39282      -0.27873
                        -----------------------------------------
Magnitude (a.u.)       :      0.59720
Magnitude (Debye)      :      1.51796

Rotational constants in cm-1:     0.017346     0.008492     0.007091
Rotational constants in MHz :   520.025685   254.588502   212.578542

                             ****ORCA TERMINATED NORMALLY****
TOTAL RUN TIME: 0 days 0 hours 0 minutes 20 seconds 463 msec
