                         Program Version 4.2.1 -  RELEASE  -
|  1> ! wB97X-D3 SP def2-SVP
|  2> %pal
|  3> nprocs 24
|  4> end
|  5>
|  6> * xyz 0 1
|  7> S 	 -62.8261 	 20.8727 	 -71.6041
|  8> C 	 -62.6005 	 19.3014 	 -70.891
|  9> C 	 -63.4589 	 19.0332 	 -69.8547
| 10> C 	 -64.3171 	 20.1394 	 -69.5722
| 11> C 	 -64.2593 	 21.1226 	 -70.5449
| 12> H 	 -65.0913 	 20.3249 	 -68.8126
| 13> C 	 -63.5233 	 17.8441 	 -69.0343
| 14> H 	 -64.1761 	 17.1473 	 -69.6552
| 15> H 	 -64.0533 	 18.0659 	 -68.1549
| 16> C 	 -62.3365 	 17.014 	 -68.6199
| 17> H 	 -61.997 	 16.4986 	 -69.5707
| 18> H 	 -61.5526 	 17.5808 	 -67.9994
| 19> C 	 -62.5412 	 15.7938 	 -67.7119
| 20> H 	 -61.7784 	 15.1544 	 -67.7081
| 21> H 	 -62.6464 	 16.0919 	 -66.6601
| 22> H 	 -63.4758 	 15.2007 	 -67.7933
| 23> S 	 -64.6585 	 23.8164 	 -70.0815
| 24> C 	 -66.2959 	 24.5342 	 -70.5397
| 25> C 	 -67.0115 	 23.6182 	 -71.1853
| 26> C 	 -66.3628 	 22.3314 	 -71.3206
| 27> C 	 -65.1087 	 22.2685 	 -70.7025
| 28> H 	 -67.943 	 23.9092 	 -71.6152
| 29> C 	 -67.1226 	 21.2188 	 -72.0503
| 30> H 	 -66.3542 	 20.5266 	 -72.4971
| 31> H 	 -67.7201 	 21.711 	 -72.851
| 32> C 	 -68.1239 	 20.3164 	 -71.3311
| 33> H 	 -68.6969 	 19.8294 	 -71.9854
| 34> H 	 -68.8293 	 20.9153 	 -70.6993
| 35> C 	 -67.5389 	 19.2449 	 -70.4479
| 36> H 	 -66.6943 	 18.6904 	 -70.8796
| 37> H 	 -68.4306 	 18.6254 	 -70.2908
| 38> H 	 -67.1588 	 19.777 	 -69.5868
| 39> H 	 -61.8359 	 18.5519 	 -71.2202
| 40> H 	 -66.5389 	 25.5845 	 -70.47
| 41> *
| 42>
| 43>                          ****END OF INPUT****

CARTESIAN COORDINATES (ANGSTROEM)
---------------------------------
  S    -62.826100   20.872700  -71.604100
  C    -62.600500   19.301400  -70.891000
  C    -63.458900   19.033200  -69.854700
  C    -64.317100   20.139400  -69.572200
  C    -64.259300   21.122600  -70.544900
  H    -65.091300   20.324900  -68.812600
  C    -63.523300   17.844100  -69.034300
  H    -64.176100   17.147300  -69.655200
  H    -64.053300   18.065900  -68.154900
  C    -62.336500   17.014000  -68.619900
  H    -61.997000   16.498600  -69.570700
  H    -61.552600   17.580800  -67.999400
  C    -62.541200   15.793800  -67.711900
  H    -61.778400   15.154400  -67.708100
  H    -62.646400   16.091900  -66.660100
  H    -63.475800   15.200700  -67.793300
  S    -64.658500   23.816400  -70.081500
  C    -66.295900   24.534200  -70.539700
  C    -67.011500   23.618200  -71.185300
  C    -66.362800   22.331400  -71.320600
  C    -65.108700   22.268500  -70.702500
  H    -67.943000   23.909200  -71.615200
  C    -67.122600   21.218800  -72.050300
  H    -66.354200   20.526600  -72.497100
  H    -67.720100   21.711000  -72.851000
  C    -68.123900   20.316400  -71.331100
  H    -68.696900   19.829400  -71.985400
  H    -68.829300   20.915300  -70.699300
  C    -67.538900   19.244900  -70.447900
  H    -66.694300   18.690400  -70.879600
  H    -68.430600   18.625400  -70.290800
  H    -67.158800   19.777000  -69.586800
  H    -61.835900   18.551900  -71.220200
  H    -66.538900   25.584500  -70.470000

 Total Charge           Charge          ....    0
 Multiplicity           Mult            ....    1
 Number of Electrons    NEL             ....  134
 Basis Dimension        Dim             ....  322

ORBITAL ENERGIES
----------------

  NO   OCC          E(Eh)            E(eV)
   0   2.0000     -88.965839     -2420.8835
   1   2.0000     -88.961507     -2420.7657
   2   2.0000     -10.328309      -281.0476
   3   2.0000     -10.325507      -280.9713
   4   2.0000     -10.319670      -280.8125
   5   2.0000     -10.314838      -280.6810
   6   2.0000     -10.306047      -280.4418
   7   2.0000     -10.299171      -280.2547
   8   2.0000     -10.298969      -280.2492
   9   2.0000     -10.298338      -280.2320
  10   2.0000     -10.293418      -280.0981
  11   2.0000     -10.290774      -280.0262
  12   2.0000     -10.288773      -279.9717
  13   2.0000     -10.273509      -279.5564
  14   2.0000     -10.272345      -279.5247
  15   2.0000     -10.270328      -279.4698
  16   2.0000      -8.079971      -219.8672
  17   2.0000      -8.075631      -219.7491
  18   2.0000      -6.038464      -164.3150
  19   2.0000      -6.034680      -164.2120
  20   2.0000      -6.034388      -164.2040
  21   2.0000      -6.030670      -164.1029
  22   2.0000      -6.030222      -164.0907
  23   2.0000      -6.026155      -163.9800
  24   2.0000      -1.003969       -27.3194
  25   2.0000      -0.981866       -26.7179
  26   2.0000      -0.918105       -24.9829
  27   2.0000      -0.908514       -24.7219
  28   2.0000      -0.876483       -23.8503
  29   2.0000      -0.856514       -23.3069
  30   2.0000      -0.845074       -22.9956
  31   2.0000      -0.822317       -22.3764
  32   2.0000      -0.786105       -21.3910
  33   2.0000      -0.767871       -20.8948
  34   2.0000      -0.710665       -19.3382
  35   2.0000      -0.703706       -19.1488
  36   2.0000      -0.687965       -18.7205
  37   2.0000      -0.658549       -17.9200
  38   2.0000      -0.641266       -17.4497
  39   2.0000      -0.609135       -16.5754
  40   2.0000      -0.592100       -16.1119
  41   2.0000      -0.581597       -15.8261
  42   2.0000      -0.567518       -15.4429
  43   2.0000      -0.562337       -15.3020
  44   2.0000      -0.537811       -14.6346
  45   2.0000      -0.526340       -14.3224
  46   2.0000      -0.519589       -14.1387
  47   2.0000      -0.514975       -14.0132
  48   2.0000      -0.509504       -13.8643
  49   2.0000      -0.502610       -13.6767
  50   2.0000      -0.492181       -13.3929
  51   2.0000      -0.488624       -13.2961
  52   2.0000      -0.470101       -12.7921
  53   2.0000      -0.463469       -12.6116
  54   2.0000      -0.454056       -12.3555
  55   2.0000      -0.447248       -12.1702
  56   2.0000      -0.442418       -12.0388
  57   2.0000      -0.437841       -11.9142
  58   2.0000      -0.426384       -11.6025
  59   2.0000      -0.419073       -11.4035
  60   2.0000      -0.416944       -11.3456
  61   2.0000      -0.407618       -11.0918
  62   2.0000      -0.405961       -11.0468
  63   2.0000      -0.342936        -9.3318
  64   2.0000      -0.331800        -9.0287
  65   2.0000      -0.313594        -8.5333
  66   2.0000      -0.306468        -8.3394
  67   0.0000       0.039870         1.0849
  68   0.0000       0.052001         1.4150
  69   0.0000       0.108730         2.9587
  70   0.0000       0.116580         3.1723
  71   0.0000       0.126118         3.4318

MULLIKEN ATOMIC CHARGES
-----------------------
   0 S :    0.116152
   1 C :   -0.131883
   2 C :   -0.067774
   3 C :    0.047302
   4 C :   -0.208264
   5 H :    0.034770
   6 C :    0.082812
   7 H :    0.044862
   8 H :    0.007769
   9 C :   -0.109141
  10 H :    0.035571
  11 H :    0.052912
  12 C :   -0.017388
  13 H :    0.008005
  14 H :    0.015979
  15 H :    0.019860
  16 S :    0.088431
  17 C :   -0.095285
  18 C :   -0.005064
  19 C :   -0.020624
  20 C :   -0.173364
  21 H :    0.012642
  22 C :    0.043837
  23 H :    0.034032
  24 H :    0.026713
  25 C :   -0.023245
  26 H :   -0.005921
  27 H :    0.017965
  28 C :   -0.047779
  29 H :    0.036715
  30 H :    0.037277
  31 H :    0.022347
  32 H :    0.061377
  33 H :    0.058402
Sum of atomic charges:    0.0000000

LOEWDIN ATOMIC CHARGES
----------------------
   0 S :    0.389256
   1 C :   -0.203233
   2 C :   -0.071858
   3 C :   -0.045614
   4 C :   -0.184161
   5 H :    0.039643
   6 C :   -0.042447
   7 H :    0.049348
   8 H :    0.024218
   9 C :   -0.048067
  10 H :    0.029850
  11 H :    0.039422
  12 C :   -0.064283
  13 H :    0.008625
  14 H :    0.024635
  15 H :    0.027064
  16 S :    0.370199
  17 C :   -0.150449
  18 C :   -0.066842
  19 C :   -0.053401
  20 C :   -0.216170
  21 H :    0.031101
  22 C :   -0.036162
  23 H :    0.035915
  24 H :    0.035129
  25 C :   -0.035215
  26 H :    0.004251
  27 H :    0.027039
  28 C :   -0.062598
  29 H :    0.024173
  30 H :    0.031310
  31 H :    0.019568
  32 H :    0.038252
  33 H :    0.031503

  Mayer bond orders larger than 0.100000
B(  0-S ,  1-C ) :   1.1309 B(  0-S ,  4-C ) :   1.1336 B(  1-C ,  2-C ) :   1.6317
B(  1-C , 32-H ) :   0.9580 B(  2-C ,  3-C ) :   1.2084 B(  2-C ,  6-C ) :   1.0375
B(  3-C ,  4-C ) :   1.6170 B(  3-C ,  5-H ) :   0.9817 B(  4-C , 20-C ) :   1.0388
B(  6-C ,  7-H ) :   0.9107 B(  6-C ,  8-H ) :   0.9394 B(  6-C ,  9-C ) :   1.0811
B(  9-C , 10-H ) :   0.9484 B(  9-C , 11-H ) :   0.9574 B(  9-C , 12-C ) :   1.0791
B( 12-C , 13-H ) :   0.9745 B( 12-C , 14-H ) :   0.9712 B( 12-C , 15-H ) :   0.9708
B( 16-S , 17-C ) :   1.1145 B( 16-S , 20-C ) :   1.1355 B( 17-C , 18-C ) :   1.6622
B( 17-C , 33-H ) :   0.9665 B( 18-C , 19-C ) :   1.2078 B( 18-C , 21-H ) :   0.9896
B( 19-C , 20-C ) :   1.6090 B( 19-C , 22-C ) :   1.0490 B( 22-C , 23-H ) :   0.9295
B( 22-C , 24-H ) :   0.9327 B( 22-C , 25-C ) :   1.0832 B( 25-C , 26-H ) :   0.9530
B( 25-C , 27-H ) :   0.9488 B( 25-C , 28-C ) :   1.0787 B( 28-C , 29-H ) :   0.9723
B( 28-C , 30-H ) :   0.9724 B( 28-C , 31-H ) :   0.9753

Dispersion correction           -0.015279417
FINAL SINGLE POINT ENERGY     -1339.840886129279

DIPOLE MOMENT
-------------
                                X             Y             Z
Electronic contribution:      8.83949      26.57525      -8.02138
Nuclear contribution   :     -9.33584     -27.05647       8.10243
                        -----------------------------------------
Total Dipole Moment    :     -0.49635      -0.48122       0.08105
                        -----------------------------------------
Magnitude (a.u.)       :      0.69607
Magnitude (Debye)      :      1.76926

Rotational constants in cm-1:     0.021894     0.007938     0.006727
Rotational constants in MHz :   656.372317   237.986528   201.664172

                             ****ORCA TERMINATED NORMALLY****
TOTAL RUN TIME: 0 days 0 hours 0 minutes 22 seconds 266 msec
