                         Program Version 4.2.1 -  RELEASE  -
|  1> ! wB97X-D3 SP def2-SVP
|  2> %pal
|  3> nprocs 24
|  4> end
|  5>
|  6> * xyz 0 1
|  7> S 	 -63.7862 	 15.5602 	 -110.046
|  8> C 	 -65.3059 	 15.199 	 -110.742
|  9> C 	 -65.3265 	 15.4514 	 -112.093
| 10> C 	 -64.1223 	 16.1815 	 -112.451
| 11> C 	 -63.1157 	 16.23 	 -111.536
| 12> H 	 -63.8928 	 16.5506 	 -113.436
| 13> C 	 -66.5708 	 15.1774 	 -112.98
| 14> H 	 -66.57 	 15.8893 	 -113.9
| 15> H 	 -67.3323 	 15.5529 	 -112.357
| 16> C 	 -66.9306 	 13.7654 	 -113.366
| 17> H 	 -66.1676 	 13.4162 	 -113.977
| 18> H 	 -67.0051 	 13.103 	 -112.469
| 19> C 	 -68.2543 	 13.6811 	 -114.141
| 20> H 	 -68.1997 	 14.3137 	 -114.975
| 21> H 	 -68.4011 	 12.6413 	 -114.362
| 22> H 	 -69.1457 	 13.9416 	 -113.567
| 23> S 	 -60.4705 	 15.8834 	 -111.869
| 24> C 	 -59.3849 	 17.2536 	 -112.157
| 25> C 	 -60.0704 	 18.4428 	 -112.088
| 26> C 	 -61.4758 	 18.2715 	 -111.973
| 27> C 	 -61.8711 	 16.9397 	 -111.709
| 28> H 	 -59.5505 	 19.3506 	 -112.113
| 29> C 	 -62.4326 	 19.467 	 -111.924
| 30> H 	 -62.3665 	 20.0091 	 -110.993
| 31> H 	 -63.4304 	 19.0522 	 -112.019
| 32> C 	 -62.271 	 20.5458 	 -113.083
| 33> H 	 -62.2919 	 19.8925 	 -113.903
| 34> H 	 -61.3858 	 21.2166 	 -113.036
| 35> C 	 -63.5225 	 21.4077 	 -113.389
| 36> H 	 -63.4449 	 21.8756 	 -114.355
| 37> H 	 -63.7079 	 22.1761 	 -112.566
| 38> H 	 -64.349 	 20.7206 	 -113.419
| 39> H 	 -66.125 	 14.5766 	 -110.37
| 40> H 	 -58.2858 	 17.0769 	 -112.141
| 41> *
| 42>
| 43>                          ****END OF INPUT****

CARTESIAN COORDINATES (ANGSTROEM)
---------------------------------
  S    -63.786200   15.560200  -110.046000
  C    -65.305900   15.199000  -110.742000
  C    -65.326500   15.451400  -112.093000
  C    -64.122300   16.181500  -112.451000
  C    -63.115700   16.230000  -111.536000
  H    -63.892800   16.550600  -113.436000
  C    -66.570800   15.177400  -112.980000
  H    -66.570000   15.889300  -113.900000
  H    -67.332300   15.552900  -112.357000
  C    -66.930600   13.765400  -113.366000
  H    -66.167600   13.416200  -113.977000
  H    -67.005100   13.103000  -112.469000
  C    -68.254300   13.681100  -114.141000
  H    -68.199700   14.313700  -114.975000
  H    -68.401100   12.641300  -114.362000
  H    -69.145700   13.941600  -113.567000
  S    -60.470500   15.883400  -111.869000
  C    -59.384900   17.253600  -112.157000
  C    -60.070400   18.442800  -112.088000
  C    -61.475800   18.271500  -111.973000
  C    -61.871100   16.939700  -111.709000
  H    -59.550500   19.350600  -112.113000
  C    -62.432600   19.467000  -111.924000
  H    -62.366500   20.009100  -110.993000
  H    -63.430400   19.052200  -112.019000
  C    -62.271000   20.545800  -113.083000
  H    -62.291900   19.892500  -113.903000
  H    -61.385800   21.216600  -113.036000
  C    -63.522500   21.407700  -113.389000
  H    -63.444900   21.875600  -114.355000
  H    -63.707900   22.176100  -112.566000
  H    -64.349000   20.720600  -113.419000
  H    -66.125000   14.576600  -110.370000
  H    -58.285800   17.076900  -112.141000

 Total Charge           Charge          ....    0
 Multiplicity           Mult            ....    1
 Number of Electrons    NEL             ....  134
 Basis Dimension        Dim             ....  322

ORBITAL ENERGIES
----------------

  NO   OCC          E(Eh)            E(eV)
   0   2.0000     -88.965561     -2420.8760
   1   2.0000     -88.961879     -2420.7758
   2   2.0000     -10.330740      -281.1137
   3   2.0000     -10.326847      -281.0078
   4   2.0000     -10.322502      -280.8895
   5   2.0000     -10.312132      -280.6074
   6   2.0000     -10.310419      -280.5608
   7   2.0000     -10.302994      -280.3587
   8   2.0000     -10.297132      -280.1992
   9   2.0000     -10.292898      -280.0840
  10   2.0000     -10.292548      -280.0745
  11   2.0000     -10.292207      -280.0652
  12   2.0000     -10.286436      -279.9082
  13   2.0000     -10.285066      -279.8709
  14   2.0000     -10.280873      -279.7568
  15   2.0000     -10.274987      -279.5966
  16   2.0000      -8.080557      -219.8831
  17   2.0000      -8.076525      -219.7734
  18   2.0000      -6.039169      -164.3341
  19   2.0000      -6.035008      -164.2209
  20   2.0000      -6.034927      -164.2187
  21   2.0000      -6.031249      -164.1186
  22   2.0000      -6.030930      -164.1100
  23   2.0000      -6.027427      -164.0146
  24   2.0000      -1.007457       -27.4143
  25   2.0000      -0.984585       -26.7919
  26   2.0000      -0.914955       -24.8972
  27   2.0000      -0.901321       -24.5262
  28   2.0000      -0.877271       -23.8717
  29   2.0000      -0.848549       -23.0902
  30   2.0000      -0.846934       -23.0462
  31   2.0000      -0.818427       -22.2705
  32   2.0000      -0.782342       -21.2886
  33   2.0000      -0.769080       -20.9277
  34   2.0000      -0.706138       -19.2150
  35   2.0000      -0.701913       -19.1000
  36   2.0000      -0.692803       -18.8521
  37   2.0000      -0.658795       -17.9267
  38   2.0000      -0.641313       -17.4510
  39   2.0000      -0.617208       -16.7951
  40   2.0000      -0.594090       -16.1660
  41   2.0000      -0.578921       -15.7532
  42   2.0000      -0.574009       -15.6196
  43   2.0000      -0.564971       -15.3736
  44   2.0000      -0.528987       -14.3945
  45   2.0000      -0.522739       -14.2244
  46   2.0000      -0.518444       -14.1076
  47   2.0000      -0.514369       -13.9967
  48   2.0000      -0.509691       -13.8694
  49   2.0000      -0.497912       -13.5489
  50   2.0000      -0.496073       -13.4988
  51   2.0000      -0.472266       -12.8510
  52   2.0000      -0.466393       -12.6912
  53   2.0000      -0.465310       -12.6617
  54   2.0000      -0.463204       -12.6044
  55   2.0000      -0.449639       -12.2353
  56   2.0000      -0.440577       -11.9887
  57   2.0000      -0.438927       -11.9438
  58   2.0000      -0.433614       -11.7992
  59   2.0000      -0.427672       -11.6375
  60   2.0000      -0.420276       -11.4363
  61   2.0000      -0.415359       -11.3025
  62   2.0000      -0.407665       -11.0931
  63   2.0000      -0.341692        -9.2979
  64   2.0000      -0.329057        -8.9541
  65   2.0000      -0.325926        -8.8689
  66   2.0000      -0.304711        -8.2916
  67   0.0000       0.036187         0.9847
  68   0.0000       0.059189         1.6106
  69   0.0000       0.111603         3.0369
  70   0.0000       0.124883         3.3982
  71   0.0000       0.125772         3.4224

MULLIKEN ATOMIC CHARGES
-----------------------
   0 S :    0.121713
   1 C :   -0.103164
   2 C :   -0.099388
   3 C :    0.029159
   4 C :   -0.144114
   5 H :    0.004438
   6 C :    0.028985
   7 H :    0.034284
   8 H :    0.017929
   9 C :   -0.049887
  10 H :    0.020296
  11 H :    0.028226
  12 C :   -0.020803
  13 H :    0.022720
  14 H :    0.031225
  15 H :    0.026187
  16 S :    0.088960
  17 C :   -0.109491
  18 C :    0.001790
  19 C :   -0.030943
  20 C :   -0.177105
  21 H :    0.005791
  22 C :    0.080680
  23 H :    0.041134
  24 H :    0.015643
  25 C :   -0.104886
  26 H :    0.018790
  27 H :    0.045534
  28 C :   -0.055927
  29 H :    0.039839
  30 H :    0.041030
  31 H :    0.019853
  32 H :    0.052956
  33 H :    0.078549
Sum of atomic charges:    0.0000000

LOEWDIN ATOMIC CHARGES
----------------------
   0 S :    0.417087
   1 C :   -0.209326
   2 C :   -0.067648
   3 C :   -0.056986
   4 C :   -0.211743
   5 H :    0.026055
   6 C :   -0.037735
   7 H :    0.038539
   8 H :    0.024875
   9 C :   -0.035833
  10 H :    0.017128
  11 H :    0.027193
  12 C :   -0.054149
  13 H :    0.017634
  14 H :    0.027731
  15 H :    0.025523
  16 S :    0.396705
  17 C :   -0.176904
  18 C :   -0.064962
  19 C :   -0.050031
  20 C :   -0.195732
  21 H :    0.026394
  22 C :   -0.026422
  23 H :    0.029619
  24 H :    0.029193
  25 C :   -0.043037
  26 H :    0.018423
  27 H :    0.025050
  28 C :   -0.063132
  29 H :    0.025545
  30 H :    0.028583
  31 H :    0.019777
  32 H :    0.035750
  33 H :    0.036837

  Mayer bond orders larger than 0.100000
B(  0-S ,  1-C ) :   1.1602 B(  0-S ,  4-C ) :   1.1223 B(  1-C ,  2-C ) :   1.6196
B(  1-C , 32-H ) :   0.9560 B(  2-C ,  3-C ) :   1.2410 B(  2-C ,  6-C ) :   1.0001
B(  3-C ,  4-C ) :   1.5979 B(  3-C ,  5-H ) :   0.9967 B(  4-C , 20-C ) :   1.0203
B(  6-C ,  7-H ) :   0.9453 B(  6-C ,  8-H ) :   0.9431 B(  6-C ,  9-C ) :   1.0704
B(  9-C , 10-H ) :   0.9529 B(  9-C , 11-H ) :   0.9519 B(  9-C , 12-C ) :   1.0875
B( 12-C , 13-H ) :   0.9746 B( 12-C , 14-H ) :   0.9732 B( 12-C , 15-H ) :   0.9753
B( 16-S , 17-C ) :   1.1625 B( 16-S , 20-C ) :   1.1525 B( 17-C , 18-C ) :   1.5945
B( 17-C , 20-C ) :   0.1092 B( 17-C , 33-H ) :   0.9621 B( 18-C , 19-C ) :   1.2361
B( 18-C , 21-H ) :   1.0013 B( 19-C , 20-C ) :   1.5837 B( 19-C , 22-C ) :   1.0505
B( 22-C , 23-H ) :   0.9389 B( 22-C , 24-H ) :   0.9342 B( 22-C , 25-C ) :   1.0494
B( 25-C , 26-H ) :   0.9605 B( 25-C , 27-H ) :   0.9570 B( 25-C , 28-C ) :   1.0877
B( 28-C , 29-H ) :   0.9758 B( 28-C , 30-H ) :   0.9761 B( 28-C , 31-H ) :   0.9743

Dispersion correction           -0.013304406
FINAL SINGLE POINT ENERGY     -1339.860816088651

DIPOLE MOMENT
-------------
                                X             Y             Z
Electronic contribution:     20.53799      -9.97788      15.23370
Nuclear contribution   :    -20.89000      10.23229     -15.63779
                        -----------------------------------------
Total Dipole Moment    :     -0.35201       0.25441      -0.40409
                        -----------------------------------------
Magnitude (a.u.)       :      0.59323
Magnitude (Debye)      :      1.50788

Rotational constants in cm-1:     0.017885     0.007394     0.006049
Rotational constants in MHz :   536.181834   221.674540   181.349968

                             ****ORCA TERMINATED NORMALLY****
TOTAL RUN TIME: 0 days 0 hours 0 minutes 20 seconds 449 msec
