                         Program Version 4.2.1 -  RELEASE  -
|  1> ! wB97X-D3 SP def2-SVP
|  2> %pal
|  3> nprocs 24
|  4> end
|  5>
|  6> * xyz 0 1
|  7> S 	 -46.4031 	 8.75237 	 -20.2264
|  8> C 	 -46.6439 	 7.37735 	 -19.0806
|  9> C 	 -47.6383 	 7.67144 	 -18.1832
| 10> C 	 -48.0933 	 9.03395 	 -18.2777
| 11> C 	 -47.4573 	 9.74155 	 -19.2714
| 12> H 	 -48.8037 	 9.57801 	 -17.7513
| 13> C 	 -47.9719 	 6.66535 	 -17.042
| 14> H 	 -48.4753 	 7.19818 	 -16.221
| 15> H 	 -46.9711 	 6.36912 	 -16.6184
| 16> C 	 -48.8879 	 5.47726 	 -17.5345
| 17> H 	 -48.3232 	 4.98075 	 -18.3102
| 18> H 	 -48.9881 	 4.76198 	 -16.7451
| 19> C 	 -50.2505 	 5.88876 	 -18.1126
| 20> H 	 -50.8272 	 5.05668 	 -18.4936
| 21> H 	 -50.8837 	 6.2071 	 -17.314
| 22> H 	 -50.2723 	 6.69148 	 -18.8854
| 23> S 	 -46.5947 	 12.2131 	 -20.121
| 24> C 	 -47.7352 	 13.3285 	 -20.7431
| 25> C 	 -49.0717 	 12.8842 	 -20.3925
| 26> C 	 -49.0839 	 11.6188 	 -19.7842
| 27> C 	 -47.8579 	 11.0661 	 -19.6838
| 28> H 	 -49.967 	 13.3859 	 -20.7217
| 29> C 	 -50.4613 	 11.0816 	 -19.726
| 30> H 	 -51.1495 	 11.944 	 -19.766
| 31> H 	 -50.6456 	 10.6442 	 -18.8286
| 32> C 	 -50.8121 	 10.109 	 -20.8655
| 33> H 	 -50.202 	 9.20486 	 -20.8049
| 34> H 	 -50.53 	 10.5712 	 -21.8036
| 35> C 	 -52.2411 	 9.66952 	 -20.8142
| 36> H 	 -52.9016 	 10.5646 	 -20.6754
| 37> H 	 -52.4979 	 8.90146 	 -20.1072
| 38> H 	 -52.5629 	 9.28409 	 -21.7973
| 39> H 	 -46.0892 	 6.43557 	 -19.0293
| 40> H 	 -47.4736 	 14.2434 	 -21.2566
| 41> *
| 42>
| 43>                          ****END OF INPUT****

CARTESIAN COORDINATES (ANGSTROEM)
---------------------------------
  S    -46.403100    8.752370  -20.226400
  C    -46.643900    7.377350  -19.080600
  C    -47.638300    7.671440  -18.183200
  C    -48.093300    9.033950  -18.277700
  C    -47.457300    9.741550  -19.271400
  H    -48.803700    9.578010  -17.751300
  C    -47.971900    6.665350  -17.042000
  H    -48.475300    7.198180  -16.221000
  H    -46.971100    6.369120  -16.618400
  C    -48.887900    5.477260  -17.534500
  H    -48.323200    4.980750  -18.310200
  H    -48.988100    4.761980  -16.745100
  C    -50.250500    5.888760  -18.112600
  H    -50.827200    5.056680  -18.493600
  H    -50.883700    6.207100  -17.314000
  H    -50.272300    6.691480  -18.885400
  S    -46.594700   12.213100  -20.121000
  C    -47.735200   13.328500  -20.743100
  C    -49.071700   12.884200  -20.392500
  C    -49.083900   11.618800  -19.784200
  C    -47.857900   11.066100  -19.683800
  H    -49.967000   13.385900  -20.721700
  C    -50.461300   11.081600  -19.726000
  H    -51.149500   11.944000  -19.766000
  H    -50.645600   10.644200  -18.828600
  C    -50.812100   10.109000  -20.865500
  H    -50.202000    9.204860  -20.804900
  H    -50.530000   10.571200  -21.803600
  C    -52.241100    9.669520  -20.814200
  H    -52.901600   10.564600  -20.675400
  H    -52.497900    8.901460  -20.107200
  H    -52.562900    9.284090  -21.797300
  H    -46.089200    6.435570  -19.029300
  H    -47.473600   14.243400  -21.256600

 Total Charge           Charge          ....    0
 Multiplicity           Mult            ....    1
 Number of Electrons    NEL             ....  134
 Basis Dimension        Dim             ....  322

ORBITAL ENERGIES
----------------

  NO   OCC          E(Eh)            E(eV)
   0   2.0000     -88.967314     -2420.9237
   1   2.0000     -88.965981     -2420.8874
   2   2.0000     -10.324236      -280.9367
   3   2.0000     -10.321657      -280.8666
   4   2.0000     -10.321460      -280.8612
   5   2.0000     -10.315574      -280.7010
   6   2.0000     -10.304221      -280.3921
   7   2.0000     -10.302439      -280.3436
   8   2.0000     -10.294228      -280.1202
   9   2.0000     -10.293272      -280.0942
  10   2.0000     -10.289862      -280.0014
  11   2.0000     -10.288608      -279.9673
  12   2.0000     -10.282407      -279.7985
  13   2.0000     -10.281458      -279.7727
  14   2.0000     -10.278157      -279.6829
  15   2.0000     -10.277684      -279.6700
  16   2.0000      -8.082474      -219.9353
  17   2.0000      -8.080110      -219.8710
  18   2.0000      -6.040812      -164.3788
  19   2.0000      -6.038759      -164.3230
  20   2.0000      -6.036782      -164.2692
  21   2.0000      -6.034728      -164.2133
  22   2.0000      -6.033536      -164.1809
  23   2.0000      -6.030714      -164.1041
  24   2.0000      -1.010737       -27.5035
  25   2.0000      -0.983323       -26.7576
  26   2.0000      -0.918499       -24.9936
  27   2.0000      -0.904605       -24.6156
  28   2.0000      -0.866885       -23.5891
  29   2.0000      -0.860793       -23.4234
  30   2.0000      -0.842775       -22.9331
  31   2.0000      -0.808677       -22.0052
  32   2.0000      -0.783980       -21.3332
  33   2.0000      -0.774282       -21.0693
  34   2.0000      -0.706279       -19.2188
  35   2.0000      -0.705325       -19.1929
  36   2.0000      -0.693397       -18.8683
  37   2.0000      -0.673746       -18.3336
  38   2.0000      -0.641098       -17.4452
  39   2.0000      -0.612896       -16.6777
  40   2.0000      -0.597546       -16.2601
  41   2.0000      -0.570871       -15.5342
  42   2.0000      -0.566692       -15.4205
  43   2.0000      -0.545063       -14.8319
  44   2.0000      -0.539604       -14.6834
  45   2.0000      -0.523958       -14.2576
  46   2.0000      -0.518267       -14.1028
  47   2.0000      -0.512653       -13.9500
  48   2.0000      -0.504067       -13.7164
  49   2.0000      -0.498464       -13.5639
  50   2.0000      -0.493539       -13.4299
  51   2.0000      -0.479768       -13.0552
  52   2.0000      -0.476626       -12.9697
  53   2.0000      -0.466375       -12.6907
  54   2.0000      -0.461280       -12.5521
  55   2.0000      -0.445904       -12.1337
  56   2.0000      -0.443455       -12.0670
  57   2.0000      -0.439531       -11.9602
  58   2.0000      -0.429470       -11.6865
  59   2.0000      -0.426680       -11.6106
  60   2.0000      -0.419482       -11.4147
  61   2.0000      -0.416945       -11.3457
  62   2.0000      -0.415545       -11.3075
  63   2.0000      -0.346266        -9.4224
  64   2.0000      -0.333717        -9.0809
  65   2.0000      -0.330744        -9.0000
  66   2.0000      -0.289751        -7.8845
  67   0.0000       0.023089         0.6283
  68   0.0000       0.073626         2.0035
  69   0.0000       0.110580         3.0090
  70   0.0000       0.116476         3.1695
  71   0.0000       0.127972         3.4823

MULLIKEN ATOMIC CHARGES
-----------------------
   0 S :    0.105870
   1 C :   -0.126926
   2 C :   -0.067530
   3 C :    0.034057
   4 C :   -0.120760
   5 H :   -0.022306
   6 C :    0.020315
   7 H :    0.024562
   8 H :    0.047868
   9 C :   -0.035999
  10 H :    0.019913
  11 H :    0.026967
  12 C :   -0.055713
  13 H :    0.029707
  14 H :    0.015706
  15 H :    0.049461
  16 S :    0.123265
  17 C :   -0.100726
  18 C :   -0.053838
  19 C :   -0.010831
  20 C :   -0.193433
  21 H :    0.019188
  22 C :    0.106307
  23 H :    0.011802
  24 H :   -0.018186
  25 C :   -0.044447
  26 H :    0.035413
  27 H :    0.019131
  28 C :   -0.044216
  29 H :    0.023020
  30 H :    0.037240
  31 H :    0.028664
  32 H :    0.053393
  33 H :    0.063062
Sum of atomic charges:    0.0000000

LOEWDIN ATOMIC CHARGES
----------------------
   0 S :    0.387874
   1 C :   -0.186474
   2 C :   -0.059227
   3 C :   -0.060835
   4 C :   -0.192779
   5 H :    0.020040
   6 C :   -0.031001
   7 H :    0.026171
   8 H :    0.038596
   9 C :   -0.034316
  10 H :    0.019624
  11 H :    0.021767
  12 C :   -0.069380
  13 H :    0.028020
  14 H :    0.020349
  15 H :    0.031393
  16 S :    0.425890
  17 C :   -0.196465
  18 C :   -0.066721
  19 C :   -0.060506
  20 C :   -0.200828
  21 H :    0.027028
  22 C :   -0.019064
  23 H :    0.031802
  24 H :    0.009420
  25 C :   -0.034599
  26 H :    0.028584
  27 H :    0.023847
  28 C :   -0.068307
  29 H :    0.026191
  30 H :    0.023261
  31 H :    0.029831
  32 H :    0.032682
  33 H :    0.028129

  Mayer bond orders larger than 0.100000
B(  0-S ,  1-C ) :   1.1112 B(  0-S ,  4-C ) :   1.1456 B(  1-C ,  2-C ) :   1.6393
B(  1-C , 32-H ) :   0.9650 B(  2-C ,  3-C ) :   1.1936 B(  2-C ,  6-C ) :   1.0002
B(  3-C ,  4-C ) :   1.5876 B(  3-C ,  5-H ) :   1.0192 B(  4-C , 20-C ) :   1.0473
B(  6-C ,  7-H ) :   0.9519 B(  6-C ,  8-H ) :   0.9533 B(  6-C ,  9-C ) :   1.0532
B(  9-C , 10-H ) :   0.9598 B(  9-C , 11-H ) :   0.9578 B(  9-C , 12-C ) :   1.0743
B( 12-C , 13-H ) :   0.9719 B( 12-C , 14-H ) :   0.9733 B( 12-C , 15-H ) :   0.9745
B( 16-S , 17-C ) :   1.1894 B( 16-S , 20-C ) :   1.1401 B( 17-C , 18-C ) :   1.5376
B( 17-C , 20-C ) :   0.1080 B( 17-C , 33-H ) :   0.9730 B( 18-C , 19-C ) :   1.2795
B( 18-C , 21-H ) :   0.9881 B( 19-C , 20-C ) :   1.5763 B( 19-C , 22-C ) :   1.0586
B( 22-C , 23-H ) :   0.9290 B( 22-C , 24-H ) :   0.9116 B( 22-C , 25-C ) :   1.0680
B( 25-C , 26-H ) :   0.9481 B( 25-C , 27-H ) :   0.9526 B( 25-C , 28-C ) :   1.0913
B( 28-C , 29-H ) :   0.9713 B( 28-C , 30-H ) :   0.9741 B( 28-C , 31-H ) :   0.9707

Dispersion correction           -0.015234940
FINAL SINGLE POINT ENERGY     -1339.871241371701

DIPOLE MOMENT
-------------
                                X             Y             Z
Electronic contribution:     25.31632      15.96289      -5.08870
Nuclear contribution   :    -25.91769     -16.20925       5.23582
                        -----------------------------------------
Total Dipole Moment    :     -0.60137      -0.24636       0.14712
                        -----------------------------------------
Magnitude (a.u.)       :      0.66632
Magnitude (Debye)      :      1.69365

Rotational constants in cm-1:     0.019018     0.009791     0.007177
Rotational constants in MHz :   570.153687   293.521082   215.161191

                             ****ORCA TERMINATED NORMALLY****
TOTAL RUN TIME: 0 days 0 hours 0 minutes 22 seconds 451 msec
