                         Program Version 4.2.1 -  RELEASE  -
|  1> ! wB97X-D3 SP def2-SVP
|  2> %pal
|  3> nprocs 24
|  4> end
|  5>
|  6> * xyz 0 1
|  7> S 	 35.7153 	 -34.7501 	 -113.125
|  8> C 	 35.6302 	 -36.5334 	 -112.88
|  9> C 	 36.9099 	 -37.0682 	 -112.825
| 10> C 	 37.9591 	 -36.0942 	 -113.136
| 11> C 	 37.4257 	 -34.8137 	 -113.352
| 12> H 	 39.0517 	 -36.2569 	 -113.072
| 13> C 	 37.309 	 -38.4546 	 -112.312
| 14> H 	 38.3818 	 -38.505 	 -112.201
| 15> H 	 37.1638 	 -39.2562 	 -113.091
| 16> C 	 36.6983 	 -38.6828 	 -110.902
| 17> H 	 36.7778 	 -37.816 	 -110.22
| 18> H 	 35.6154 	 -38.8467 	 -110.933
| 19> C 	 37.2645 	 -39.8455 	 -110.004
| 20> H 	 37.2866 	 -40.6825 	 -110.66
| 21> H 	 38.2911 	 -39.5939 	 -109.75
| 22> H 	 36.5958 	 -40.0714 	 -109.167
| 23> S 	 37.7475 	 -32.2971 	 -114.443
| 24> C 	 39.0045 	 -31.2581 	 -113.838
| 25> C 	 39.8275 	 -31.8637 	 -112.977
| 26> C 	 39.3553 	 -33.1766 	 -112.605
| 27> C 	 38.189 	 -33.5683 	 -113.312
| 28> H 	 40.7075 	 -31.5372 	 -112.548
| 29> C 	 40.1483 	 -34.0218 	 -111.593
| 30> H 	 39.5505 	 -34.9 	 -111.314
| 31> H 	 40.3721 	 -33.3486 	 -110.744
| 32> C 	 41.5038 	 -34.4868 	 -111.947
| 33> H 	 42.0823 	 -34.9912 	 -111.204
| 34> H 	 42.0355 	 -33.5881 	 -112.033
| 35> C 	 41.5964 	 -35.2458 	 -113.395
| 36> H 	 40.9546 	 -36.1399 	 -113.552
| 37> H 	 42.6113 	 -35.5004 	 -113.632
| 38> H 	 41.1682 	 -34.5845 	 -114.138
| 39> H 	 34.8275 	 -37.0022 	 -112.368
| 40> H 	 39.1621 	 -30.2553 	 -114.191
| 41> *
| 42>
| 43>                          ****END OF INPUT****

CARTESIAN COORDINATES (ANGSTROEM)
---------------------------------
  S     35.715300  -34.750100  -113.125000
  C     35.630200  -36.533400  -112.880000
  C     36.909900  -37.068200  -112.825000
  C     37.959100  -36.094200  -113.136000
  C     37.425700  -34.813700  -113.352000
  H     39.051700  -36.256900  -113.072000
  C     37.309000  -38.454600  -112.312000
  H     38.381800  -38.505000  -112.201000
  H     37.163800  -39.256200  -113.091000
  C     36.698300  -38.682800  -110.902000
  H     36.777800  -37.816000  -110.220000
  H     35.615400  -38.846700  -110.933000
  C     37.264500  -39.845500  -110.004000
  H     37.286600  -40.682500  -110.660000
  H     38.291100  -39.593900  -109.750000
  H     36.595800  -40.071400  -109.167000
  S     37.747500  -32.297100  -114.443000
  C     39.004500  -31.258100  -113.838000
  C     39.827500  -31.863700  -112.977000
  C     39.355300  -33.176600  -112.605000
  C     38.189000  -33.568300  -113.312000
  H     40.707500  -31.537200  -112.548000
  C     40.148300  -34.021800  -111.593000
  H     39.550500  -34.900000  -111.314000
  H     40.372100  -33.348600  -110.744000
  C     41.503800  -34.486800  -111.947000
  H     42.082300  -34.991200  -111.204000
  H     42.035500  -33.588100  -112.033000
  C     41.596400  -35.245800  -113.395000
  H     40.954600  -36.139900  -113.552000
  H     42.611300  -35.500400  -113.632000
  H     41.168200  -34.584500  -114.138000
  H     34.827500  -37.002200  -112.368000
  H     39.162100  -30.255300  -114.191000

 Total Charge           Charge          ....    0
 Multiplicity           Mult            ....    1
 Number of Electrons    NEL             ....  134
 Basis Dimension        Dim             ....  322

ORBITAL ENERGIES
----------------

  NO   OCC          E(Eh)            E(eV)
   0   2.0000     -88.968023     -2420.9430
   1   2.0000     -88.965235     -2420.8671
   2   2.0000     -10.332421      -281.1595
   3   2.0000     -10.331325      -281.1296
   4   2.0000     -10.315053      -280.6869
   5   2.0000     -10.314811      -280.6803
   6   2.0000     -10.310353      -280.5590
   7   2.0000     -10.308544      -280.5098
   8   2.0000     -10.303322      -280.3676
   9   2.0000     -10.301500      -280.3181
  10   2.0000     -10.292729      -280.0794
  11   2.0000     -10.292641      -280.0770
  12   2.0000     -10.288250      -279.9575
  13   2.0000     -10.286295      -279.9043
  14   2.0000     -10.281812      -279.7823
  15   2.0000     -10.279377      -279.7161
  16   2.0000      -8.082338      -219.9316
  17   2.0000      -8.080322      -219.8767
  18   2.0000      -6.040934      -164.3822
  19   2.0000      -6.038886      -164.3264
  20   2.0000      -6.036979      -164.2746
  21   2.0000      -6.034807      -164.2154
  22   2.0000      -6.032928      -164.1643
  23   2.0000      -6.030978      -164.1113
  24   2.0000      -1.005431       -27.3592
  25   2.0000      -0.981391       -26.7050
  26   2.0000      -0.913891       -24.8682
  27   2.0000      -0.908311       -24.7164
  28   2.0000      -0.869332       -23.6557
  29   2.0000      -0.845486       -23.0069
  30   2.0000      -0.841946       -22.9105
  31   2.0000      -0.812781       -22.1169
  32   2.0000      -0.785142       -21.3648
  33   2.0000      -0.777480       -21.1563
  34   2.0000      -0.713873       -19.4255
  35   2.0000      -0.705017       -19.1845
  36   2.0000      -0.690896       -18.8002
  37   2.0000      -0.666124       -18.1261
  38   2.0000      -0.639564       -17.4034
  39   2.0000      -0.615442       -16.7470
  40   2.0000      -0.596897       -16.2424
  41   2.0000      -0.568634       -15.4733
  42   2.0000      -0.560301       -15.2466
  43   2.0000      -0.552582       -15.0365
  44   2.0000      -0.551423       -15.0050
  45   2.0000      -0.528375       -14.3778
  46   2.0000      -0.513733       -13.9794
  47   2.0000      -0.511733       -13.9250
  48   2.0000      -0.506308       -13.7773
  49   2.0000      -0.498747       -13.5716
  50   2.0000      -0.494402       -13.4534
  51   2.0000      -0.482065       -13.1177
  52   2.0000      -0.471167       -12.8211
  53   2.0000      -0.468337       -12.7441
  54   2.0000      -0.461913       -12.5693
  55   2.0000      -0.456150       -12.4125
  56   2.0000      -0.447043       -12.1647
  57   2.0000      -0.436351       -11.8737
  58   2.0000      -0.432811       -11.7774
  59   2.0000      -0.421424       -11.4675
  60   2.0000      -0.417497       -11.3607
  61   2.0000      -0.412843       -11.2340
  62   2.0000      -0.406849       -11.0709
  63   2.0000      -0.351205        -9.5568
  64   2.0000      -0.332311        -9.0426
  65   2.0000      -0.328108        -8.9283
  66   2.0000      -0.292612        -7.9624
  67   0.0000       0.024274         0.6605
  68   0.0000       0.069740         1.8977
  69   0.0000       0.102033         2.7765
  70   0.0000       0.111984         3.0473
  71   0.0000       0.127146         3.4598

MULLIKEN ATOMIC CHARGES
-----------------------
   0 S :    0.100305
   1 C :   -0.092432
   2 C :   -0.122663
   3 C :    0.023080
   4 C :   -0.104033
   5 H :   -0.003482
   6 C :    0.090766
   7 H :    0.008815
   8 H :    0.054598
   9 C :   -0.144814
  10 H :    0.042327
  11 H :    0.029760
  12 C :   -0.034074
  13 H :    0.017910
  14 H :    0.035569
  15 H :    0.045382
  16 S :    0.102372
  17 C :   -0.062991
  18 C :    0.017418
  19 C :   -0.080285
  20 C :   -0.167104
  21 H :   -0.014933
  22 C :    0.061593
  23 H :    0.033817
  24 H :    0.030060
  25 C :   -0.035660
  26 H :    0.029757
  27 H :   -0.000985
  28 C :   -0.086927
  29 H :    0.044350
  30 H :    0.034243
  31 H :    0.044715
  32 H :    0.050529
  33 H :    0.053017
Sum of atomic charges:    0.0000000

LOEWDIN ATOMIC CHARGES
----------------------
   0 S :    0.403793
   1 C :   -0.188819
   2 C :   -0.048131
   3 C :   -0.068015
   4 C :   -0.198990
   5 H :    0.031267
   6 C :   -0.034750
   7 H :    0.025819
   8 H :    0.042283
   9 C :   -0.047455
  10 H :    0.028496
  11 H :    0.019611
  12 C :   -0.061011
  13 H :    0.017277
  14 H :    0.023254
  15 H :    0.031573
  16 S :    0.403525
  17 C :   -0.175651
  18 C :   -0.062595
  19 C :   -0.049943
  20 C :   -0.201283
  21 H :    0.019417
  22 C :   -0.036233
  23 H :    0.028829
  24 H :    0.038119
  25 C :   -0.034511
  26 H :    0.024277
  27 H :    0.014728
  28 C :   -0.070781
  29 H :    0.024058
  30 H :    0.022232
  31 H :    0.028359
  32 H :    0.022921
  33 H :    0.028328

  Mayer bond orders larger than 0.100000
B(  0-S ,  1-C ) :   1.1141 B(  0-S ,  4-C ) :   1.1758 B(  1-C ,  2-C ) :   1.6360
B(  1-C , 32-H ) :   0.9669 B(  2-C ,  3-C ) :   1.2316 B(  2-C ,  6-C ) :   1.0200
B(  3-C ,  4-C ) :   1.5589 B(  3-C ,  5-H ) :   0.9831 B(  4-C , 20-C ) :   1.0283
B(  6-C ,  7-H ) :   0.9467 B(  6-C ,  8-H ) :   0.9347 B(  6-C ,  9-C ) :   1.0403
B(  9-C , 10-H ) :   0.9654 B(  9-C , 11-H ) :   0.9570 B(  9-C , 12-C ) :   1.0812
B( 12-C , 13-H ) :   0.9763 B( 12-C , 14-H ) :   0.9783 B( 12-C , 15-H ) :   0.9751
B( 16-S , 17-C ) :   1.1480 B( 16-S , 20-C ) :   1.1384 B( 17-C , 18-C ) :   1.6021
B( 17-C , 33-H ) :   0.9676 B( 18-C , 19-C ) :   1.2436 B( 18-C , 21-H ) :   1.0031
B( 19-C , 20-C ) :   1.5887 B( 19-C , 22-C ) :   1.0431 B( 22-C , 23-H ) :   0.9350
B( 22-C , 24-H ) :   0.9312 B( 22-C , 25-C ) :   1.0789 B( 25-C , 26-H ) :   0.9572
B( 25-C , 27-H ) :   0.9475 B( 25-C , 28-C ) :   1.0596 B( 28-C , 29-H ) :   0.9689
B( 28-C , 30-H ) :   0.9741 B( 28-C , 31-H ) :   0.9738

Dispersion correction           -0.015084853
FINAL SINGLE POINT ENERGY     -1339.855756973880

DIPOLE MOMENT
-------------
                                X             Y             Z
Electronic contribution:    -15.62372      21.93778     -13.98062
Nuclear contribution   :     16.25483     -22.23199      14.53303
                        -----------------------------------------
Total Dipole Moment    :      0.63111      -0.29421       0.55242
                        -----------------------------------------
Magnitude (a.u.)       :      0.88883
Magnitude (Debye)      :      2.25923

Rotational constants in cm-1:     0.020196     0.008835     0.006687
Rotational constants in MHz :   605.474248   264.875620   200.464141

                             ****ORCA TERMINATED NORMALLY****
TOTAL RUN TIME: 0 days 0 hours 0 minutes 22 seconds 165 msec
