                         Program Version 4.2.1 -  RELEASE  -
|  1> ! wB97X-D3 SP def2-SVP
|  2> %pal
|  3> nprocs 24
|  4> end
|  5>
|  6> * xyz 0 1
|  7> S 	 -48.4682 	 22.081 	 33.275
|  8> C 	 -47.8247 	 23.4665 	 34.0363
|  9> C 	 -46.4072 	 23.4928 	 33.8991
| 10> C 	 -45.962 	 22.3553 	 33.0755
| 11> C 	 -46.9775 	 21.5288 	 32.7079
| 12> H 	 -44.9229 	 22.1572 	 32.7655
| 13> C 	 -45.5001 	 24.6242 	 34.3898
| 14> H 	 -46.0881 	 25.5544 	 34.4309
| 15> H 	 -44.8602 	 24.7086 	 33.4479
| 16> C 	 -44.6043 	 24.2105 	 35.4953
| 17> H 	 -45.1304 	 23.5464 	 36.1663
| 18> H 	 -43.8235 	 23.5879 	 35.0466
| 19> C 	 -43.8605 	 25.3448 	 36.2207
| 20> H 	 -44.5288 	 26.1165 	 36.6248
| 21> H 	 -43.2536 	 24.9466 	 37.0319
| 22> H 	 -43.1043 	 25.9265 	 35.5895
| 23> S 	 -47.5704 	 20.1803 	 30.3744
| 24> C 	 -46.9767 	 18.4959 	 30.1677
| 25> C 	 -46.326 	 18.0992 	 31.3557
| 26> C 	 -46.2525 	 19.0947 	 32.3169
| 27> C 	 -46.8393 	 20.2651 	 31.9069
| 28> H 	 -45.9352 	 17.0848 	 31.4333
| 29> C 	 -45.6778 	 18.7983 	 33.6899
| 30> H 	 -44.8093 	 19.4419 	 33.8417
| 31> H 	 -45.2675 	 17.8251 	 33.6088
| 32> C 	 -46.6344 	 19.0188 	 34.9306
| 33> H 	 -47.662 	 18.5941 	 34.6596
| 34> H 	 -46.8074 	 20.0714 	 35.1186
| 35> C 	 -46.2018 	 18.335 	 36.2255
| 36> H 	 -46.9503 	 18.2905 	 37.1365
| 37> H 	 -45.2971 	 18.6699 	 36.607
| 38> H 	 -46.0364 	 17.276 	 36.0616
| 39> H 	 -48.296 	 24.1544 	 34.7064
| 40> H 	 -47.2643 	 17.9635 	 29.2387
| 41> *
| 42>
| 43>                          ****END OF INPUT****

CARTESIAN COORDINATES (ANGSTROEM)
---------------------------------
  S    -48.468200   22.081000   33.275000
  C    -47.824700   23.466500   34.036300
  C    -46.407200   23.492800   33.899100
  C    -45.962000   22.355300   33.075500
  C    -46.977500   21.528800   32.707900
  H    -44.922900   22.157200   32.765500
  C    -45.500100   24.624200   34.389800
  H    -46.088100   25.554400   34.430900
  H    -44.860200   24.708600   33.447900
  C    -44.604300   24.210500   35.495300
  H    -45.130400   23.546400   36.166300
  H    -43.823500   23.587900   35.046600
  C    -43.860500   25.344800   36.220700
  H    -44.528800   26.116500   36.624800
  H    -43.253600   24.946600   37.031900
  H    -43.104300   25.926500   35.589500
  S    -47.570400   20.180300   30.374400
  C    -46.976700   18.495900   30.167700
  C    -46.326000   18.099200   31.355700
  C    -46.252500   19.094700   32.316900
  C    -46.839300   20.265100   31.906900
  H    -45.935200   17.084800   31.433300
  C    -45.677800   18.798300   33.689900
  H    -44.809300   19.441900   33.841700
  H    -45.267500   17.825100   33.608800
  C    -46.634400   19.018800   34.930600
  H    -47.662000   18.594100   34.659600
  H    -46.807400   20.071400   35.118600
  C    -46.201800   18.335000   36.225500
  H    -46.950300   18.290500   37.136500
  H    -45.297100   18.669900   36.607000
  H    -46.036400   17.276000   36.061600
  H    -48.296000   24.154400   34.706400
  H    -47.264300   17.963500   29.238700

 Total Charge           Charge          ....    0
 Multiplicity           Mult            ....    1
 Number of Electrons    NEL             ....  134
 Basis Dimension        Dim             ....  322

ORBITAL ENERGIES
----------------

  NO   OCC          E(Eh)            E(eV)
   0   2.0000     -88.967054     -2420.9166
   1   2.0000     -88.965772     -2420.8817
   2   2.0000     -10.325848      -280.9806
   3   2.0000     -10.323938      -280.9286
   4   2.0000     -10.322966      -280.9022
   5   2.0000     -10.311434      -280.5884
   6   2.0000     -10.307015      -280.4681
   7   2.0000     -10.297680      -280.2141
   8   2.0000     -10.296788      -280.1898
   9   2.0000     -10.296012      -280.1687
  10   2.0000     -10.295155      -280.1454
  11   2.0000     -10.291444      -280.0444
  12   2.0000     -10.290615      -280.0219
  13   2.0000     -10.286313      -279.9048
  14   2.0000     -10.285612      -279.8857
  15   2.0000     -10.277439      -279.6633
  16   2.0000      -8.082020      -219.9229
  17   2.0000      -8.081919      -219.9202
  18   2.0000      -6.040309      -164.3652
  19   2.0000      -6.040281      -164.3644
  20   2.0000      -6.036432      -164.2597
  21   2.0000      -6.036001      -164.2479
  22   2.0000      -6.033086      -164.1686
  23   2.0000      -6.032953      -164.1650
  24   2.0000      -1.012438       -27.5498
  25   2.0000      -0.989040       -26.9132
  26   2.0000      -0.916220       -24.9316
  27   2.0000      -0.900892       -24.5145
  28   2.0000      -0.865909       -23.5626
  29   2.0000      -0.851787       -23.1783
  30   2.0000      -0.845832       -23.0163
  31   2.0000      -0.813644       -22.1404
  32   2.0000      -0.781062       -21.2538
  33   2.0000      -0.771153       -20.9841
  34   2.0000      -0.706063       -19.2130
  35   2.0000      -0.700348       -19.0574
  36   2.0000      -0.686050       -18.6684
  37   2.0000      -0.665591       -18.1116
  38   2.0000      -0.641495       -17.4560
  39   2.0000      -0.615957       -16.7610
  40   2.0000      -0.593901       -16.1609
  41   2.0000      -0.568434       -15.4679
  42   2.0000      -0.560633       -15.2556
  43   2.0000      -0.555431       -15.1141
  44   2.0000      -0.530207       -14.4277
  45   2.0000      -0.523173       -14.2363
  46   2.0000      -0.518466       -14.1082
  47   2.0000      -0.511583       -13.9209
  48   2.0000      -0.499720       -13.5981
  49   2.0000      -0.496931       -13.5222
  50   2.0000      -0.488784       -13.3005
  51   2.0000      -0.483843       -13.1660
  52   2.0000      -0.467779       -12.7289
  53   2.0000      -0.466640       -12.6979
  54   2.0000      -0.457101       -12.4383
  55   2.0000      -0.451950       -12.2982
  56   2.0000      -0.444408       -12.0930
  57   2.0000      -0.443017       -12.0551
  58   2.0000      -0.428415       -11.6578
  59   2.0000      -0.422592       -11.4993
  60   2.0000      -0.421350       -11.4655
  61   2.0000      -0.413786       -11.2597
  62   2.0000      -0.405312       -11.0291
  63   2.0000      -0.343028        -9.3343
  64   2.0000      -0.332223        -9.0403
  65   2.0000      -0.324591        -8.8326
  66   2.0000      -0.300683        -8.1820
  67   0.0000       0.039986         1.0881
  68   0.0000       0.066005         1.7961
  69   0.0000       0.114117         3.1053
  70   0.0000       0.123753         3.3675
  71   0.0000       0.129726         3.5300

MULLIKEN ATOMIC CHARGES
-----------------------
   0 S :    0.132492
   1 C :   -0.104522
   2 C :   -0.147462
   3 C :    0.035459
   4 C :   -0.167968
   5 H :    0.020931
   6 C :    0.046465
   7 H :    0.033327
   8 H :    0.039256
   9 C :   -0.056160
  10 H :    0.032838
  11 H :    0.027472
  12 C :   -0.061907
  13 H :    0.033774
  14 H :    0.035853
  15 H :    0.035306
  16 S :    0.113811
  17 C :   -0.136046
  18 C :   -0.034686
  19 C :   -0.030566
  20 C :   -0.177745
  21 H :    0.026517
  22 C :    0.139369
  23 H :    0.022652
  24 H :   -0.005819
  25 C :   -0.082073
  26 H :    0.039179
  27 H :    0.046902
  28 C :   -0.054251
  29 H :    0.048002
  30 H :    0.012961
  31 H :    0.017075
  32 H :    0.042162
  33 H :    0.077403
Sum of atomic charges:   -0.0000000

LOEWDIN ATOMIC CHARGES
----------------------
   0 S :    0.452087
   1 C :   -0.222944
   2 C :   -0.056186
   3 C :   -0.073436
   4 C :   -0.217755
   5 H :    0.034499
   6 C :   -0.040863
   7 H :    0.031136
   8 H :    0.043858
   9 C :   -0.047849
  10 H :    0.023709
  11 H :    0.030196
  12 C :   -0.071320
  13 H :    0.023407
  14 H :    0.026840
  15 H :    0.032031
  16 S :    0.418295
  17 C :   -0.181395
  18 C :   -0.067070
  19 C :   -0.066713
  20 C :   -0.213714
  21 H :    0.035298
  22 C :   -0.022639
  23 H :    0.032771
  24 H :    0.022185
  25 C :   -0.040596
  26 H :    0.031715
  27 H :    0.024304
  28 C :   -0.074478
  29 H :    0.041227
  30 H :    0.010770
  31 H :    0.021511
  32 H :    0.026646
  33 H :    0.034476

  Mayer bond orders larger than 0.100000
B(  0-S ,  1-C ) :   1.1509 B(  0-S ,  4-C ) :   1.1812 B(  1-C ,  2-C ) :   1.5918
B(  1-C , 32-H ) :   0.9715 B(  2-C ,  3-C ) :   1.2431 B(  2-C ,  6-C ) :   1.0151
B(  3-C ,  4-C ) :   1.5939 B(  3-C ,  5-H ) :   0.9876 B(  4-C , 20-C ) :   0.9718
B(  6-C ,  7-H ) :   0.9546 B(  6-C ,  8-H ) :   0.9409 B(  6-C ,  9-C ) :   1.0448
B(  9-C , 10-H ) :   0.9615 B(  9-C , 11-H ) :   0.9484 B(  9-C , 12-C ) :   1.0845
B( 12-C , 13-H ) :   0.9774 B( 12-C , 14-H ) :   0.9746 B( 12-C , 15-H ) :   0.9734
B( 16-S , 17-C ) :   1.1665 B( 16-S , 20-C ) :   1.1826 B( 17-C , 18-C ) :   1.5488
B( 17-C , 20-C ) :   0.1115 B( 17-C , 33-H ) :   0.9698 B( 18-C , 19-C ) :   1.2920
B( 18-C , 21-H ) :   0.9873 B( 19-C , 20-C ) :   1.5672 B( 19-C , 22-C ) :   1.0450
B( 22-C , 23-H ) :   0.9182 B( 22-C , 24-H ) :   0.9306 B( 22-C , 25-C ) :   1.0439
B( 25-C , 26-H ) :   0.9617 B( 25-C , 27-H ) :   0.9529 B( 25-C , 28-C ) :   1.0813
B( 28-C , 29-H ) :   0.9747 B( 28-C , 30-H ) :   0.9749 B( 28-C , 31-H ) :   0.9728

Dispersion correction           -0.014748096
FINAL SINGLE POINT ENERGY     -1339.875304721448

DIPOLE MOMENT
-------------
                                X             Y             Z
Electronic contribution:    -16.93386      -3.86155     -23.68044
Nuclear contribution   :     17.39998       3.79309      24.02918
                        -----------------------------------------
Total Dipole Moment    :      0.46612      -0.06845       0.34874
                        -----------------------------------------
Magnitude (a.u.)       :      0.58615
Magnitude (Debye)      :      1.48987

Rotational constants in cm-1:     0.019196     0.008415     0.007040
Rotational constants in MHz :   575.484501   252.263416   211.056042

                             ****ORCA TERMINATED NORMALLY****
TOTAL RUN TIME: 0 days 0 hours 0 minutes 20 seconds 463 msec
