                         Program Version 4.2.1 -  RELEASE  -
|  1> ! wB97X-D3 SP def2-SVP
|  2> %pal
|  3> nprocs 24
|  4> end
|  5>
|  6> * xyz 0 1
|  7> S 	 -84.2494 	 0.18657 	 5.94057
|  8> C 	 -83.6726 	 -0.0105285 	 4.32849
|  9> C 	 -84.6746 	 -0.55356 	 3.55635
| 10> C 	 -85.8862 	 -0.799792 	 4.22275
| 11> C 	 -85.8194 	 -0.559136 	 5.57581
| 12> H 	 -86.8271 	 -1.11953 	 3.71515
| 13> C 	 -84.6457 	 -1.03938 	 2.08232
| 14> H 	 -85.5052 	 -1.71501 	 2.00523
| 15> H 	 -83.8823 	 -1.77017 	 2.09937
| 16> C 	 -84.5615 	 -0.0614217 	 1.00543
| 17> H 	 -84.5172 	 -0.548545 	 0.0293265
| 18> H 	 -85.4473 	 0.551629 	 0.953919
| 19> C 	 -83.4011 	 0.880313 	 1.01936
| 20> H 	 -82.4217 	 0.35518 	 0.845238
| 21> H 	 -83.3532 	 1.61009 	 0.262816
| 22> H 	 -83.3477 	 1.42916 	 1.94571
| 23> S 	 -87.5481 	 0.902641 	 7.05957
| 24> C 	 -88.6727 	 0.199236 	 8.12944
| 25> C 	 -88.5256 	 -1.16117 	 8.10729
| 26> C 	 -87.5309 	 -1.64542 	 7.25222
| 27> C 	 -86.9556 	 -0.605314 	 6.53661
| 28> H 	 -89.2393 	 -1.79562 	 8.57053
| 29> C 	 -87.2373 	 -3.13913 	 7.03768
| 30> H 	 -86.1449 	 -3.25114 	 6.87459
| 31> H 	 -87.7207 	 -3.41663 	 6.16771
| 32> C 	 -87.61 	 -4.06052 	 8.24926
| 33> H 	 -88.6074 	 -4.26347 	 8.3978
| 34> H 	 -87.445 	 -3.55869 	 9.12049
| 35> C 	 -86.9446 	 -5.43766 	 8.29708
| 36> H 	 -87.3244 	 -5.96451 	 9.22679
| 37> H 	 -85.8843 	 -5.3959 	 8.43605
| 38> H 	 -87.1938 	 -5.99922 	 7.40694
| 39> H 	 -82.6952 	 0.421442 	 4.02324
| 40> H 	 -89.3781 	 0.710635 	 8.65022
| 41> *
| 42>
| 43>                          ****END OF INPUT****

CARTESIAN COORDINATES (ANGSTROEM)
---------------------------------
  S    -84.249400    0.186570    5.940570
  C    -83.672600   -0.010528    4.328490
  C    -84.674600   -0.553560    3.556350
  C    -85.886200   -0.799792    4.222750
  C    -85.819400   -0.559136    5.575810
  H    -86.827100   -1.119530    3.715150
  C    -84.645700   -1.039380    2.082320
  H    -85.505200   -1.715010    2.005230
  H    -83.882300   -1.770170    2.099370
  C    -84.561500   -0.061422    1.005430
  H    -84.517200   -0.548545    0.029326
  H    -85.447300    0.551629    0.953919
  C    -83.401100    0.880313    1.019360
  H    -82.421700    0.355180    0.845238
  H    -83.353200    1.610090    0.262816
  H    -83.347700    1.429160    1.945710
  S    -87.548100    0.902641    7.059570
  C    -88.672700    0.199236    8.129440
  C    -88.525600   -1.161170    8.107290
  C    -87.530900   -1.645420    7.252220
  C    -86.955600   -0.605314    6.536610
  H    -89.239300   -1.795620    8.570530
  C    -87.237300   -3.139130    7.037680
  H    -86.144900   -3.251140    6.874590
  H    -87.720700   -3.416630    6.167710
  C    -87.610000   -4.060520    8.249260
  H    -88.607400   -4.263470    8.397800
  H    -87.445000   -3.558690    9.120490
  C    -86.944600   -5.437660    8.297080
  H    -87.324400   -5.964510    9.226790
  H    -85.884300   -5.395900    8.436050
  H    -87.193800   -5.999220    7.406940
  H    -82.695200    0.421442    4.023240
  H    -89.378100    0.710635    8.650220

 Total Charge           Charge          ....    0
 Multiplicity           Mult            ....    1
 Number of Electrons    NEL             ....  134
 Basis Dimension        Dim             ....  322

ORBITAL ENERGIES
----------------

  NO   OCC          E(Eh)            E(eV)
   0   2.0000     -88.964084     -2420.8358
   1   2.0000     -88.962256     -2420.7860
   2   2.0000     -10.328911      -281.0640
   3   2.0000     -10.320257      -280.8285
   4   2.0000     -10.316600      -280.7290
   5   2.0000     -10.304594      -280.4023
   6   2.0000     -10.298644      -280.2404
   7   2.0000     -10.297131      -280.1992
   8   2.0000     -10.292305      -280.0678
   9   2.0000     -10.289996      -280.0050
  10   2.0000     -10.284141      -279.8457
  11   2.0000     -10.283635      -279.8319
  12   2.0000     -10.278518      -279.6927
  13   2.0000     -10.278164      -279.6831
  14   2.0000     -10.271536      -279.5027
  15   2.0000     -10.271041      -279.4892
  16   2.0000      -8.078932      -219.8389
  17   2.0000      -8.078744      -219.8338
  18   2.0000      -6.037436      -164.2870
  19   2.0000      -6.036991      -164.2749
  20   2.0000      -6.033270      -164.1736
  21   2.0000      -6.032780      -164.1603
  22   2.0000      -6.029909      -164.0822
  23   2.0000      -6.029841      -164.0803
  24   2.0000      -1.013352       -27.5747
  25   2.0000      -0.991932       -26.9919
  26   2.0000      -0.918836       -25.0028
  27   2.0000      -0.907463       -24.6933
  28   2.0000      -0.869153       -23.6509
  29   2.0000      -0.854823       -23.2609
  30   2.0000      -0.851454       -23.1693
  31   2.0000      -0.814277       -22.1576
  32   2.0000      -0.786318       -21.3968
  33   2.0000      -0.776330       -21.1250
  34   2.0000      -0.714095       -19.4315
  35   2.0000      -0.702215       -19.1082
  36   2.0000      -0.698115       -18.9967
  37   2.0000      -0.658289       -17.9129
  38   2.0000      -0.642103       -17.4725
  39   2.0000      -0.619485       -16.8570
  40   2.0000      -0.602734       -16.4012
  41   2.0000      -0.575845       -15.6695
  42   2.0000      -0.568817       -15.4783
  43   2.0000      -0.549689       -14.9578
  44   2.0000      -0.545020       -14.8308
  45   2.0000      -0.530793       -14.4436
  46   2.0000      -0.517958       -14.0943
  47   2.0000      -0.516115       -14.0442
  48   2.0000      -0.505929       -13.7670
  49   2.0000      -0.496188       -13.5019
  50   2.0000      -0.490279       -13.3412
  51   2.0000      -0.482475       -13.1288
  52   2.0000      -0.473857       -12.8943
  53   2.0000      -0.467088       -12.7101
  54   2.0000      -0.464349       -12.6356
  55   2.0000      -0.448713       -12.2101
  56   2.0000      -0.445254       -12.1160
  57   2.0000      -0.438011       -11.9189
  58   2.0000      -0.431543       -11.7429
  59   2.0000      -0.425623       -11.5818
  60   2.0000      -0.419952       -11.4275
  61   2.0000      -0.413573       -11.2539
  62   2.0000      -0.403717       -10.9857
  63   2.0000      -0.341172        -9.2838
  64   2.0000      -0.330497        -8.9933
  65   2.0000      -0.324698        -8.8355
  66   2.0000      -0.305123        -8.3028
  67   0.0000       0.041928         1.1409
  68   0.0000       0.060408         1.6438
  69   0.0000       0.125658         3.4193
  70   0.0000       0.131771         3.5857
  71   0.0000       0.139546         3.7972

MULLIKEN ATOMIC CHARGES
-----------------------
   0 S :    0.110051
   1 C :   -0.152165
   2 C :   -0.100920
   3 C :    0.011860
   4 C :   -0.157098
   5 H :    0.036922
   6 C :    0.102483
   7 H :    0.008023
   8 H :    0.015320
   9 C :   -0.006951
  10 H :    0.022124
  11 H :    0.017968
  12 C :   -0.055674
  13 H :    0.021408
  14 H :    0.016560
  15 H :    0.026605
  16 S :    0.124039
  17 C :   -0.042416
  18 C :   -0.039693
  19 C :   -0.047842
  20 C :   -0.194941
  21 H :    0.004498
  22 C :    0.129757
  23 H :    0.036480
  24 H :    0.021389
  25 C :   -0.046055
  26 H :    0.003287
  27 H :   -0.001367
  28 C :   -0.054811
  29 H :    0.035006
  30 H :    0.030680
  31 H :    0.036245
  32 H :    0.074742
  33 H :    0.014485
Sum of atomic charges:    0.0000000

LOEWDIN ATOMIC CHARGES
----------------------
   0 S :    0.408900
   1 C :   -0.210953
   2 C :   -0.069181
   3 C :   -0.066494
   4 C :   -0.195788
   5 H :    0.041952
   6 C :   -0.028032
   7 H :    0.032552
   8 H :    0.027445
   9 C :   -0.044615
  10 H :    0.028856
  11 H :    0.025180
  12 C :   -0.065424
  13 H :    0.027251
  14 H :    0.019972
  15 H :    0.020565
  16 S :    0.454620
  17 C :   -0.183133
  18 C :   -0.073857
  19 C :   -0.054865
  20 C :   -0.221817
  21 H :    0.025247
  22 C :   -0.016076
  23 H :    0.039447
  24 H :    0.022499
  25 C :   -0.039256
  26 H :    0.014764
  27 H :    0.013507
  28 C :   -0.058539
  29 H :    0.035266
  30 H :    0.019025
  31 H :    0.023452
  32 H :    0.038313
  33 H :    0.009218

  Mayer bond orders larger than 0.100000
B(  0-S ,  1-C ) :   1.1511 B(  0-S ,  4-C ) :   1.1618 B(  1-C ,  2-C ) :   1.5866
B(  1-C ,  4-C ) :   0.1001 B(  1-C , 32-H ) :   0.9662 B(  2-C ,  3-C ) :   1.2846
B(  2-C ,  6-C ) :   0.9828 B(  3-C ,  4-C ) :   1.5677 B(  3-C ,  5-H ) :   0.9829
B(  4-C , 20-C ) :   0.9968 B(  6-C ,  7-H ) :   0.9380 B(  6-C ,  8-H ) :   0.9359
B(  6-C ,  9-C ) :   1.0864 B(  9-C , 10-H ) :   0.9451 B(  9-C , 11-H ) :   0.9470
B(  9-C , 12-C ) :   1.0936 B( 12-C , 13-H ) :   0.9723 B( 12-C , 14-H ) :   0.9695
B( 12-C , 15-H ) :   0.9691 B( 16-S , 17-C ) :   1.1833 B( 16-S , 20-C ) :   1.1876
B( 17-C , 18-C ) :   1.5538 B( 17-C , 20-C ) :   0.1040 B( 17-C , 33-H ) :   0.9814
B( 18-C , 19-C ) :   1.2989 B( 18-C , 21-H ) :   0.9924 B( 19-C , 20-C ) :   1.5728
B( 19-C , 22-C ) :   1.0244 B( 22-C , 23-H ) :   0.9350 B( 22-C , 24-H ) :   0.9313
B( 22-C , 25-C ) :   1.0600 B( 25-C , 26-H ) :   0.9435 B( 25-C , 27-H ) :   0.9530
B( 25-C , 28-C ) :   1.0957 B( 28-C , 29-H ) :   0.9723 B( 28-C , 30-H ) :   0.9767
B( 28-C , 31-H ) :   0.9759

Dispersion correction           -0.013570620
FINAL SINGLE POINT ENERGY     -1339.862870693546

DIPOLE MOMENT
-------------
                                X             Y             Z
Electronic contribution:     -2.43057      16.84719      11.68300
Nuclear contribution   :      2.21064     -17.20535     -12.01431
                        -----------------------------------------
Total Dipole Moment    :     -0.21992      -0.35817      -0.33132
                        -----------------------------------------
Magnitude (a.u.)       :      0.53518
Magnitude (Debye)      :      1.36033

Rotational constants in cm-1:     0.021230     0.007209     0.006156
Rotational constants in MHz :   636.452811   216.122713   184.563625

                             ****ORCA TERMINATED NORMALLY****
TOTAL RUN TIME: 0 days 0 hours 0 minutes 20 seconds 994 msec
