                         Program Version 4.2.1 -  RELEASE  -
|  1> ! wB97X-D3 SP def2-SVP
|  2> %pal
|  3> nprocs 24
|  4> end
|  5>
|  6> * xyz 0 1
|  7> S 	 -49.3566 	 16.0273 	 23.982
|  8> C 	 -48.9198 	 17.3443 	 24.9878
|  9> C 	 -48.2312 	 18.3448 	 24.2419
| 10> C 	 -48.2116 	 18.0586 	 22.818
| 11> C 	 -48.7805 	 16.8171 	 22.5005
| 12> H 	 -47.8069 	 18.7737 	 22.1201
| 13> C 	 -47.6691 	 19.6121 	 24.9037
| 14> H 	 -48.4385 	 20.0521 	 25.4999
| 15> H 	 -47.554 	 20.3784 	 24.124
| 16> C 	 -46.2966 	 19.5484 	 25.6356
| 17> H 	 -45.5291 	 19.2357 	 24.9025
| 18> H 	 -46.0028 	 20.4661 	 26.1355
| 19> C 	 -46.172 	 18.3613 	 26.6405
| 20> H 	 -46.7428 	 18.6323 	 27.5432
| 21> H 	 -46.4785 	 17.4438 	 26.2524
| 22> H 	 -45.1529 	 18.3288 	 27.122
| 23> S 	 -50.7079 	 16.5153 	 20.6048
| 24> C 	 -50.1817 	 16.3648 	 19.0217
| 25> C 	 -48.8942 	 15.9677 	 18.9265
| 26> C 	 -48.1764 	 16.0233 	 20.1264
| 27> C 	 -49.0583 	 16.3521 	 21.155
| 28> H 	 -48.41 	 15.7327 	 17.9898
| 29> C 	 -46.6957 	 15.7581 	 20.2857
| 30> H 	 -46.4092 	 16.0309 	 21.3059
| 31> H 	 -46.2065 	 16.3366 	 19.5736
| 32> C 	 -46.3355 	 14.2867 	 20.1236
| 33> H 	 -46.8778 	 13.7383 	 20.9685
| 34> H 	 -45.2638 	 14.1592 	 20.3897
| 35> C 	 -46.7228 	 13.6475 	 18.7814
| 36> H 	 -47.7873 	 13.7848 	 18.717
| 37> H 	 -46.6255 	 12.5497 	 18.7823
| 38> H 	 -46.2236 	 14.1317 	 17.9277
| 39> H 	 -49.1491 	 17.5021 	 26.0151
| 40> H 	 -50.8353 	 16.3084 	 18.1658
| 41> *
| 42>
| 43>                          ****END OF INPUT****

CARTESIAN COORDINATES (ANGSTROEM)
---------------------------------
  S    -49.356600   16.027300   23.982000
  C    -48.919800   17.344300   24.987800
  C    -48.231200   18.344800   24.241900
  C    -48.211600   18.058600   22.818000
  C    -48.780500   16.817100   22.500500
  H    -47.806900   18.773700   22.120100
  C    -47.669100   19.612100   24.903700
  H    -48.438500   20.052100   25.499900
  H    -47.554000   20.378400   24.124000
  C    -46.296600   19.548400   25.635600
  H    -45.529100   19.235700   24.902500
  H    -46.002800   20.466100   26.135500
  C    -46.172000   18.361300   26.640500
  H    -46.742800   18.632300   27.543200
  H    -46.478500   17.443800   26.252400
  H    -45.152900   18.328800   27.122000
  S    -50.707900   16.515300   20.604800
  C    -50.181700   16.364800   19.021700
  C    -48.894200   15.967700   18.926500
  C    -48.176400   16.023300   20.126400
  C    -49.058300   16.352100   21.155000
  H    -48.410000   15.732700   17.989800
  C    -46.695700   15.758100   20.285700
  H    -46.409200   16.030900   21.305900
  H    -46.206500   16.336600   19.573600
  C    -46.335500   14.286700   20.123600
  H    -46.877800   13.738300   20.968500
  H    -45.263800   14.159200   20.389700
  C    -46.722800   13.647500   18.781400
  H    -47.787300   13.784800   18.717000
  H    -46.625500   12.549700   18.782300
  H    -46.223600   14.131700   17.927700
  H    -49.149100   17.502100   26.015100
  H    -50.835300   16.308400   18.165800

 Total Charge           Charge          ....    0
 Multiplicity           Mult            ....    1
 Number of Electrons    NEL             ....  134
 Basis Dimension        Dim             ....  322

ORBITAL ENERGIES
----------------

  NO   OCC          E(Eh)            E(eV)
   0   2.0000     -88.968925     -2420.9675
   1   2.0000     -88.965111     -2420.8638
   2   2.0000     -10.330178      -281.0984
   3   2.0000     -10.320941      -280.8471
   4   2.0000     -10.313667      -280.6492
   5   2.0000     -10.307948      -280.4935
   6   2.0000     -10.305707      -280.4325
   7   2.0000     -10.299264      -280.2572
   8   2.0000     -10.298534      -280.2374
   9   2.0000     -10.292714      -280.0790
  10   2.0000     -10.290816      -280.0273
  11   2.0000     -10.290039      -280.0062
  12   2.0000     -10.286232      -279.9026
  13   2.0000     -10.284783      -279.8632
  14   2.0000     -10.277571      -279.6669
  15   2.0000     -10.272572      -279.5309
  16   2.0000      -8.083417      -219.9609
  17   2.0000      -8.081627      -219.9123
  18   2.0000      -6.041866      -164.4075
  19   2.0000      -6.039853      -164.3528
  20   2.0000      -6.037805      -164.2970
  21   2.0000      -6.036007      -164.2481
  22   2.0000      -6.034413      -164.2047
  23   2.0000      -6.032438      -164.1510
  24   2.0000      -1.013998       -27.5923
  25   2.0000      -0.984387       -26.7865
  26   2.0000      -0.915337       -24.9076
  27   2.0000      -0.902642       -24.5621
  28   2.0000      -0.868748       -23.6398
  29   2.0000      -0.850549       -23.1446
  30   2.0000      -0.843629       -22.9563
  31   2.0000      -0.811975       -22.0950
  32   2.0000      -0.788843       -21.4655
  33   2.0000      -0.773316       -21.0430
  34   2.0000      -0.707276       -19.2460
  35   2.0000      -0.693148       -18.8615
  36   2.0000      -0.689470       -18.7614
  37   2.0000      -0.661760       -18.0074
  38   2.0000      -0.638921       -17.3859
  39   2.0000      -0.616195       -16.7675
  40   2.0000      -0.599561       -16.3149
  41   2.0000      -0.571391       -15.5483
  42   2.0000      -0.558385       -15.1944
  43   2.0000      -0.551016       -14.9939
  44   2.0000      -0.539457       -14.6794
  45   2.0000      -0.530885       -14.4461
  46   2.0000      -0.523405       -14.2426
  47   2.0000      -0.509625       -13.8676
  48   2.0000      -0.502608       -13.6767
  49   2.0000      -0.490038       -13.3346
  50   2.0000      -0.489153       -13.3105
  51   2.0000      -0.485641       -13.2150
  52   2.0000      -0.475944       -12.9511
  53   2.0000      -0.469874       -12.7859
  54   2.0000      -0.457439       -12.4475
  55   2.0000      -0.449466       -12.2306
  56   2.0000      -0.442378       -12.0377
  57   2.0000      -0.433850       -11.8057
  58   2.0000      -0.431038       -11.7291
  59   2.0000      -0.427668       -11.6374
  60   2.0000      -0.420177       -11.4336
  61   2.0000      -0.414505       -11.2793
  62   2.0000      -0.403008       -10.9664
  63   2.0000      -0.341865        -9.3026
  64   2.0000      -0.332265        -9.0414
  65   2.0000      -0.322710        -8.7814
  66   2.0000      -0.298574        -8.1246
  67   0.0000       0.036973         1.0061
  68   0.0000       0.059146         1.6094
  69   0.0000       0.119403         3.2491
  70   0.0000       0.125724         3.4211
  71   0.0000       0.128725         3.5028

MULLIKEN ATOMIC CHARGES
-----------------------
   0 S :    0.122413
   1 C :   -0.099037
   2 C :   -0.149361
   3 C :    0.068539
   4 C :   -0.181064
   5 H :    0.014932
   6 C :    0.070892
   7 H :    0.025846
   8 H :    0.015839
   9 C :   -0.057603
  10 H :    0.031726
  11 H :    0.035925
  12 C :   -0.076697
  13 H :    0.014391
  14 H :    0.044587
  15 H :    0.033764
  16 S :    0.137691
  17 C :   -0.069425
  18 C :   -0.051235
  19 C :   -0.058344
  20 C :   -0.190133
  21 H :    0.011421
  22 C :    0.152971
  23 H :    0.029550
  24 H :    0.010609
  25 C :   -0.113729
  26 H :    0.033362
  27 H :    0.036036
  28 C :   -0.050889
  29 H :    0.034633
  30 H :    0.039924
  31 H :    0.038221
  32 H :    0.045005
  33 H :    0.049241
Sum of atomic charges:    0.0000000

LOEWDIN ATOMIC CHARGES
----------------------
   0 S :    0.417095
   1 C :   -0.207999
   2 C :   -0.063646
   3 C :   -0.052169
   4 C :   -0.203367
   5 H :    0.032286
   6 C :   -0.037260
   7 H :    0.027094
   8 H :    0.031327
   9 C :   -0.037501
  10 H :    0.027569
  11 H :    0.025639
  12 C :   -0.071024
  13 H :    0.019544
  14 H :    0.013727
  15 H :    0.031791
  16 S :    0.445227
  17 C :   -0.203076
  18 C :   -0.080993
  19 C :   -0.045705
  20 C :   -0.210483
  21 H :    0.028402
  22 C :   -0.021397
  23 H :    0.036981
  24 H :    0.020180
  25 C :   -0.043391
  26 H :    0.032183
  27 H :    0.023742
  28 C :   -0.071711
  29 H :    0.025993
  30 H :    0.031664
  31 H :    0.025363
  32 H :    0.025741
  33 H :    0.028174

  Mayer bond orders larger than 0.100000
B(  0-S ,  1-C ) :   1.1593 B(  0-S ,  4-C ) :   1.1526 B(  1-C ,  2-C ) :   1.5684
B(  1-C , 32-H ) :   0.9702 B(  2-C ,  3-C ) :   1.2828 B(  2-C ,  6-C ) :   1.0205
B(  3-C ,  4-C ) :   1.5401 B(  3-C ,  5-H ) :   0.9927 B(  4-C , 20-C ) :   1.0224
B(  6-C ,  7-H ) :   0.9446 B(  6-C ,  8-H ) :   0.9411 B(  6-C ,  9-C ) :   1.0594
B(  9-C , 10-H ) :   0.9583 B(  9-C , 11-H ) :   0.9582 B(  9-C , 12-C ) :   1.0811
B( 12-C , 13-H ) :   0.9755 B( 12-C , 14-H ) :   0.9728 B( 12-C , 15-H ) :   0.9734
B( 16-S , 17-C ) :   1.1822 B( 16-S , 20-C ) :   1.1615 B( 17-C , 18-C ) :   1.5891
B( 17-C , 33-H ) :   0.9607 B( 18-C , 19-C ) :   1.2655 B( 18-C , 21-H ) :   0.9846
B( 19-C , 20-C ) :   1.5867 B( 19-C , 22-C ) :   1.0331 B( 22-C , 23-H ) :   0.9242
B( 22-C , 24-H ) :   0.9265 B( 22-C , 25-C ) :   1.0771 B( 25-C , 26-H ) :   0.9513
B( 25-C , 27-H ) :   0.9572 B( 25-C , 28-C ) :   1.0796 B( 28-C , 29-H ) :   0.9647
B( 28-C , 30-H ) :   0.9691 B( 28-C , 31-H ) :   0.9736

Dispersion correction           -0.014630382
FINAL SINGLE POINT ENERGY     -1339.876674774328

DIPOLE MOMENT
-------------
                                X             Y             Z
Electronic contribution:    -21.55314      -2.03552      -3.72020
Nuclear contribution   :     21.90712       2.30189       3.54332
                        -----------------------------------------
Total Dipole Moment    :      0.35398       0.26637      -0.17687
                        -----------------------------------------
Magnitude (a.u.)       :      0.47701
Magnitude (Debye)      :      1.21246

Rotational constants in cm-1:     0.022585     0.007640     0.006653
Rotational constants in MHz :   677.094501   229.054130   199.450311

                             ****ORCA TERMINATED NORMALLY****
TOTAL RUN TIME: 0 days 0 hours 0 minutes 21 seconds 557 msec
