                         Program Version 4.2.1 -  RELEASE  -
|  1> ! wB97X-D3 SP def2-SVP
|  2> %pal
|  3> nprocs 24
|  4> end
|  5>
|  6> * xyz 0 1
|  7> S 	 -51.5972 	 -41.1735 	 -79.1286
|  8> C 	 -53.0224 	 -41.2125 	 -78.1251
|  9> C 	 -53.6809 	 -42.3921 	 -78.2192
| 10> C 	 -52.9787 	 -43.3451 	 -78.9916
| 11> C 	 -51.757 	 -42.8998 	 -79.3938
| 12> H 	 -53.2786 	 -44.3536 	 -79.048
| 13> C 	 -55.0359 	 -42.6816 	 -77.639
| 14> H 	 -55.4998 	 -43.469 	 -78.2777
| 15> H 	 -55.5306 	 -41.6822 	 -77.8204
| 16> C 	 -55.0116 	 -42.9416 	 -76.1465
| 17> H 	 -54.4064 	 -43.8463 	 -76.0068
| 18> H 	 -54.6548 	 -42.0911 	 -75.4985
| 19> C 	 -56.4359 	 -43.2538 	 -75.6653
| 20> H 	 -56.7978 	 -44.0849 	 -76.3342
| 21> H 	 -56.5275 	 -43.6531 	 -74.6634
| 22> H 	 -57.1928 	 -42.4063 	 -75.7305
| 23> S 	 -50.457 	 -45.3693 	 -79.835
| 24> C 	 -49.1756 	 -45.5193 	 -80.9899
| 25> C 	 -49.046 	 -44.3844 	 -81.6916
| 26> C 	 -49.9789 	 -43.325 	 -81.292
| 27> C 	 -50.783 	 -43.6475 	 -80.212
| 28> H 	 -48.33 	 -44.3389 	 -82.5258
| 29> C 	 -50.0489 	 -42.0702 	 -82.1727
| 30> H 	 -51.0737 	 -41.8206 	 -82.3408
| 31> H 	 -49.6419 	 -42.3976 	 -83.0881
| 32> C 	 -49.1065 	 -40.925 	 -81.7408
| 33> H 	 -49.4978 	 -40.5593 	 -80.7958
| 34> H 	 -49.1626 	 -40.0909 	 -82.4454
| 35> C 	 -47.5365 	 -41.3253 	 -81.8054
| 36> H 	 -47.3294 	 -41.9567 	 -82.6946
| 37> H 	 -47.3658 	 -41.9032 	 -80.9106
| 38> H 	 -46.8701 	 -40.4588 	 -81.6786
| 39> H 	 -53.2838 	 -40.3422 	 -77.5588
| 40> H 	 -48.518 	 -46.3896 	 -81.1394
| 41> *
| 42>
| 43>                          ****END OF INPUT****

CARTESIAN COORDINATES (ANGSTROEM)
---------------------------------
  S    -51.597200  -41.173500  -79.128600
  C    -53.022400  -41.212500  -78.125100
  C    -53.680900  -42.392100  -78.219200
  C    -52.978700  -43.345100  -78.991600
  C    -51.757000  -42.899800  -79.393800
  H    -53.278600  -44.353600  -79.048000
  C    -55.035900  -42.681600  -77.639000
  H    -55.499800  -43.469000  -78.277700
  H    -55.530600  -41.682200  -77.820400
  C    -55.011600  -42.941600  -76.146500
  H    -54.406400  -43.846300  -76.006800
  H    -54.654800  -42.091100  -75.498500
  C    -56.435900  -43.253800  -75.665300
  H    -56.797800  -44.084900  -76.334200
  H    -56.527500  -43.653100  -74.663400
  H    -57.192800  -42.406300  -75.730500
  S    -50.457000  -45.369300  -79.835000
  C    -49.175600  -45.519300  -80.989900
  C    -49.046000  -44.384400  -81.691600
  C    -49.978900  -43.325000  -81.292000
  C    -50.783000  -43.647500  -80.212000
  H    -48.330000  -44.338900  -82.525800
  C    -50.048900  -42.070200  -82.172700
  H    -51.073700  -41.820600  -82.340800
  H    -49.641900  -42.397600  -83.088100
  C    -49.106500  -40.925000  -81.740800
  H    -49.497800  -40.559300  -80.795800
  H    -49.162600  -40.090900  -82.445400
  C    -47.536500  -41.325300  -81.805400
  H    -47.329400  -41.956700  -82.694600
  H    -47.365800  -41.903200  -80.910600
  H    -46.870100  -40.458800  -81.678600
  H    -53.283800  -40.342200  -77.558800
  H    -48.518000  -46.389600  -81.139400

 Total Charge           Charge          ....    0
 Multiplicity           Mult            ....    1
 Number of Electrons    NEL             ....  134
 Basis Dimension        Dim             ....  322

ORBITAL ENERGIES
----------------

  NO   OCC          E(Eh)            E(eV)
   0   2.0000     -88.968105     -2420.9452
   1   2.0000     -88.959720     -2420.7171
   2   2.0000     -10.332579      -281.1638
   3   2.0000     -10.331237      -281.1273
   4   2.0000     -10.314533      -280.6727
   5   2.0000     -10.309622      -280.5391
   6   2.0000     -10.303771      -280.3799
   7   2.0000     -10.297526      -280.2099
   8   2.0000     -10.295071      -280.1431
   9   2.0000     -10.294195      -280.1193
  10   2.0000     -10.292001      -280.0596
  11   2.0000     -10.288329      -279.9597
  12   2.0000     -10.287642      -279.9410
  13   2.0000     -10.284368      -279.8519
  14   2.0000     -10.283951      -279.8405
  15   2.0000     -10.282692      -279.8063
  16   2.0000      -8.082678      -219.9408
  17   2.0000      -8.074423      -219.7162
  18   2.0000      -6.041196      -164.3893
  19   2.0000      -6.037353      -164.2847
  20   2.0000      -6.033313      -164.1748
  21   2.0000      -6.033154      -164.1705
  22   2.0000      -6.028932      -164.0556
  23   2.0000      -6.024958      -163.9474
  24   2.0000      -1.009886       -27.4804
  25   2.0000      -0.987059       -26.8592
  26   2.0000      -0.916909       -24.9504
  27   2.0000      -0.900640       -24.5077
  28   2.0000      -0.871586       -23.7171
  29   2.0000      -0.854124       -23.2419
  30   2.0000      -0.832936       -22.6653
  31   2.0000      -0.818131       -22.2625
  32   2.0000      -0.780791       -21.2464
  33   2.0000      -0.769639       -20.9429
  34   2.0000      -0.708173       -19.2704
  35   2.0000      -0.699307       -19.0291
  36   2.0000      -0.690551       -18.7908
  37   2.0000      -0.662834       -18.0366
  38   2.0000      -0.644524       -17.5384
  39   2.0000      -0.615973       -16.7615
  40   2.0000      -0.588382       -16.0107
  41   2.0000      -0.575889       -15.6707
  42   2.0000      -0.563869       -15.3437
  43   2.0000      -0.555313       -15.1108
  44   2.0000      -0.537920       -14.6375
  45   2.0000      -0.524595       -14.2750
  46   2.0000      -0.517998       -14.0954
  47   2.0000      -0.513913       -13.9843
  48   2.0000      -0.510791       -13.8993
  49   2.0000      -0.492292       -13.3959
  50   2.0000      -0.485658       -13.2154
  51   2.0000      -0.475740       -12.9455
  52   2.0000      -0.470796       -12.8110
  53   2.0000      -0.468902       -12.7595
  54   2.0000      -0.462159       -12.5760
  55   2.0000      -0.447223       -12.1695
  56   2.0000      -0.441854       -12.0235
  57   2.0000      -0.436364       -11.8741
  58   2.0000      -0.431000       -11.7281
  59   2.0000      -0.424340       -11.5469
  60   2.0000      -0.418895       -11.3987
  61   2.0000      -0.415897       -11.3171
  62   2.0000      -0.399950       -10.8832
  63   2.0000      -0.359238        -9.7754
  64   2.0000      -0.333720        -9.0810
  65   2.0000      -0.324555        -8.8316
  66   2.0000      -0.290323        -7.9001
  67   0.0000       0.027010         0.7350
  68   0.0000       0.077627         2.1123
  69   0.0000       0.097909         2.6642
  70   0.0000       0.123550         3.3620
  71   0.0000       0.134953         3.6723

MULLIKEN ATOMIC CHARGES
-----------------------
   0 S :    0.094215
   1 C :   -0.125797
   2 C :   -0.057794
   3 C :    0.016886
   4 C :   -0.105550
   5 H :    0.000473
   6 C :    0.033983
   7 H :    0.039510
   8 H :    0.036269
   9 C :   -0.064273
  10 H :    0.034801
  11 H :    0.048243
  12 C :   -0.069610
  13 H :    0.023823
  14 H :    0.034474
  15 H :    0.040375
  16 S :    0.075994
  17 C :   -0.084063
  18 C :   -0.039983
  19 C :   -0.094519
  20 C :   -0.131232
  21 H :    0.024448
  22 C :    0.100515
  23 H :    0.032838
  24 H :   -0.004343
  25 C :   -0.070284
  26 H :    0.027638
  27 H :    0.030427
  28 C :   -0.078878
  29 H :    0.039574
  30 H :    0.040868
  31 H :    0.044818
  32 H :    0.039808
  33 H :    0.066345
Sum of atomic charges:   -0.0000000

LOEWDIN ATOMIC CHARGES
----------------------
   0 S :    0.416218
   1 C :   -0.190690
   2 C :   -0.064744
   3 C :   -0.061150
   4 C :   -0.178297
   5 H :    0.024159
   6 C :   -0.036229
   7 H :    0.036882
   8 H :    0.040034
   9 C :   -0.043418
  10 H :    0.028523
  11 H :    0.033594
  12 C :   -0.076894
  13 H :    0.026599
  14 H :    0.021788
  15 H :    0.029406
  16 S :    0.381558
  17 C :   -0.190668
  18 C :   -0.079397
  19 C :   -0.060138
  20 C :   -0.181719
  21 H :    0.033356
  22 C :   -0.028800
  23 H :    0.028271
  24 H :    0.022068
  25 C :   -0.035120
  26 H :    0.007713
  27 H :    0.021131
  28 C :   -0.068533
  29 H :    0.026437
  30 H :    0.025075
  31 H :    0.029632
  32 H :    0.022438
  33 H :    0.040917

  Mayer bond orders larger than 0.100000
B(  0-S ,  1-C ) :   1.1311 B(  0-S ,  4-C ) :   1.1510 B(  1-C ,  2-C ) :   1.6162
B(  1-C , 32-H ) :   0.9748 B(  2-C ,  3-C ) :   1.2528 B(  2-C ,  6-C ) :   1.0030
B(  3-C ,  4-C ) :   1.5617 B(  3-C ,  5-H ) :   0.9973 B(  4-C , 20-C ) :   1.0464
B(  6-C ,  7-H ) :   0.9451 B(  6-C ,  8-H ) :   0.9366 B(  6-C ,  9-C ) :   1.0693
B(  9-C , 10-H ) :   0.9528 B(  9-C , 11-H ) :   0.9547 B(  9-C , 12-C ) :   1.0802
B( 12-C , 13-H ) :   0.9723 B( 12-C , 14-H ) :   0.9751 B( 12-C , 15-H ) :   0.9753
B( 16-S , 17-C ) :   1.1401 B( 16-S , 20-C ) :   1.1124 B( 17-C , 18-C ) :   1.6549
B( 17-C , 33-H ) :   0.9597 B( 18-C , 19-C ) :   1.2144 B( 18-C , 21-H ) :   0.9819
B( 19-C , 20-C ) :   1.6217 B( 19-C , 22-C ) :   1.0248 B( 22-C , 23-H ) :   0.9439
B( 22-C , 24-H ) :   0.9303 B( 22-C , 25-C ) :   1.0662 B( 25-C , 26-H ) :   0.9583
B( 25-C , 27-H ) :   0.9606 B( 25-C , 28-C ) :   1.0555 B( 28-C , 29-H ) :   0.9749
B( 28-C , 30-H ) :   0.9763 B( 28-C , 31-H ) :   0.9773

Dispersion correction           -0.014357901
FINAL SINGLE POINT ENERGY     -1339.874503922902

DIPOLE MOMENT
-------------
                                X             Y             Z
Electronic contribution:      6.69851      -6.51990      -2.98464
Nuclear contribution   :     -6.89813       6.60784       2.92237
                        -----------------------------------------
Total Dipole Moment    :     -0.19962       0.08793      -0.06227
                        -----------------------------------------
Magnitude (a.u.)       :      0.22684
Magnitude (Debye)      :      0.57658

Rotational constants in cm-1:     0.025952     0.007273     0.005943
Rotational constants in MHz :   778.031488   218.046789   178.171041

                             ****ORCA TERMINATED NORMALLY****
TOTAL RUN TIME: 0 days 0 hours 0 minutes 21 seconds 228 msec
