                         Program Version 4.2.1 -  RELEASE  -
|  1> ! wB97X-D3 SP def2-SVP
|  2> %pal
|  3> nprocs 24
|  4> end
|  5>
|  6> * xyz 0 1
|  7> S 	 -146.529 	 7.47634 	 -9.20617
|  8> C 	 -144.931 	 6.88074 	 -9.37998
|  9> C 	 -144.071 	 7.51476 	 -8.44091
| 10> C 	 -144.683 	 8.64833 	 -7.84287
| 11> C 	 -146.047 	 8.76316 	 -8.12826
| 12> H 	 -144.203 	 9.31601 	 -7.21031
| 13> C 	 -142.586 	 7.35257 	 -8.28679
| 14> H 	 -142.508 	 6.29362 	 -8.01425
| 15> H 	 -142.276 	 7.90215 	 -7.43579
| 16> C 	 -141.601 	 7.73039 	 -9.40796
| 17> H 	 -141.94 	 7.52055 	 -10.4726
| 18> H 	 -141.65 	 8.78307 	 -9.51116
| 19> C 	 -140.217 	 7.16139 	 -9.16639
| 20> H 	 -139.78 	 7.45581 	 -8.19541
| 21> H 	 -140.061 	 6.06416 	 -9.40766
| 22> H 	 -139.491 	 7.64629 	 -9.86527
| 23> S 	 -148.149 	 9.21349 	 -6.39665
| 24> C 	 -148.604 	 10.8913 	 -6.00493
| 25> C 	 -147.837 	 11.7425 	 -6.75162
| 26> C 	 -146.973 	 11.1295 	 -7.70629
| 27> C 	 -146.969 	 9.73132 	 -7.56421
| 28> H 	 -147.897 	 12.7955 	 -6.58446
| 29> C 	 -146.087 	 11.9426 	 -8.59788
| 30> H 	 -146.817 	 12.5916 	 -9.15461
| 31> H 	 -145.745 	 11.4421 	 -9.50181
| 32> C 	 -144.948 	 12.8205 	 -7.89484
| 33> H 	 -144.093 	 12.1856 	 -7.57309
| 34> H 	 -145.383 	 13.3903 	 -7.06141
| 35> C 	 -144.333 	 13.8329 	 -8.93156
| 36> H 	 -143.369 	 13.563 	 -9.23381
| 37> H 	 -144.214 	 14.7041 	 -8.41584
| 38> H 	 -144.97 	 14.1028 	 -9.74472
| 39> H 	 -144.612 	 6.11662 	 -10.0668
| 40> H 	 -149.342 	 11.2213 	 -5.27956
| 41> *
| 42>
| 43>                          ****END OF INPUT****

CARTESIAN COORDINATES (ANGSTROEM)
---------------------------------
  S    -146.529000    7.476340   -9.206170
  C    -144.931000    6.880740   -9.379980
  C    -144.071000    7.514760   -8.440910
  C    -144.683000    8.648330   -7.842870
  C    -146.047000    8.763160   -8.128260
  H    -144.203000    9.316010   -7.210310
  C    -142.586000    7.352570   -8.286790
  H    -142.508000    6.293620   -8.014250
  H    -142.276000    7.902150   -7.435790
  C    -141.601000    7.730390   -9.407960
  H    -141.940000    7.520550  -10.472600
  H    -141.650000    8.783070   -9.511160
  C    -140.217000    7.161390   -9.166390
  H    -139.780000    7.455810   -8.195410
  H    -140.061000    6.064160   -9.407660
  H    -139.491000    7.646290   -9.865270
  S    -148.149000    9.213490   -6.396650
  C    -148.604000   10.891300   -6.004930
  C    -147.837000   11.742500   -6.751620
  C    -146.973000   11.129500   -7.706290
  C    -146.969000    9.731320   -7.564210
  H    -147.897000   12.795500   -6.584460
  C    -146.087000   11.942600   -8.597880
  H    -146.817000   12.591600   -9.154610
  H    -145.745000   11.442100   -9.501810
  C    -144.948000   12.820500   -7.894840
  H    -144.093000   12.185600   -7.573090
  H    -145.383000   13.390300   -7.061410
  C    -144.333000   13.832900   -8.931560
  H    -143.369000   13.563000   -9.233810
  H    -144.214000   14.704100   -8.415840
  H    -144.970000   14.102800   -9.744720
  H    -144.612000    6.116620  -10.066800
  H    -149.342000   11.221300   -5.279560

 Total Charge           Charge          ....    0
 Multiplicity           Mult            ....    1
 Number of Electrons    NEL             ....  134
 Basis Dimension        Dim             ....  322

ORBITAL ENERGIES
----------------

  NO   OCC          E(Eh)            E(eV)
   0   2.0000     -88.967980     -2420.9418
   1   2.0000     -88.962504     -2420.7928
   2   2.0000     -10.325689      -280.9763
   3   2.0000     -10.324187      -280.9354
   4   2.0000     -10.317334      -280.7489
   5   2.0000     -10.315229      -280.6916
   6   2.0000     -10.301023      -280.3051
   7   2.0000     -10.299892      -280.2743
   8   2.0000     -10.298894      -280.2472
   9   2.0000     -10.294455      -280.1264
  10   2.0000     -10.290218      -280.0111
  11   2.0000     -10.288885      -279.9748
  12   2.0000     -10.288675      -279.9691
  13   2.0000     -10.288372      -279.9608
  14   2.0000     -10.286094      -279.8988
  15   2.0000     -10.265124      -279.3282
  16   2.0000      -8.082952      -219.9483
  17   2.0000      -8.076994      -219.7862
  18   2.0000      -6.041248      -164.3907
  19   2.0000      -6.037233      -164.2815
  20   2.0000      -6.035533      -164.2352
  21   2.0000      -6.034122      -164.1968
  22   2.0000      -6.031514      -164.1259
  23   2.0000      -6.027741      -164.0232
  24   2.0000      -1.004228       -27.3264
  25   2.0000      -0.982162       -26.7260
  26   2.0000      -0.911266       -24.7968
  27   2.0000      -0.898448       -24.4480
  28   2.0000      -0.868452       -23.6318
  29   2.0000      -0.853781       -23.2326
  30   2.0000      -0.849343       -23.1118
  31   2.0000      -0.813435       -22.1347
  32   2.0000      -0.779853       -21.2209
  33   2.0000      -0.767689       -20.8899
  34   2.0000      -0.707675       -19.2568
  35   2.0000      -0.707347       -19.2479
  36   2.0000      -0.697357       -18.9760
  37   2.0000      -0.658621       -17.9220
  38   2.0000      -0.645746       -17.5717
  39   2.0000      -0.617940       -16.8150
  40   2.0000      -0.596662       -16.2360
  41   2.0000      -0.572147       -15.5689
  42   2.0000      -0.559664       -15.2292
  43   2.0000      -0.554574       -15.0907
  44   2.0000      -0.525475       -14.2989
  45   2.0000      -0.520142       -14.1538
  46   2.0000      -0.517907       -14.0930
  47   2.0000      -0.513260       -13.9665
  48   2.0000      -0.505966       -13.7680
  49   2.0000      -0.501175       -13.6377
  50   2.0000      -0.494372       -13.4525
  51   2.0000      -0.478236       -13.0135
  52   2.0000      -0.473351       -12.8805
  53   2.0000      -0.466437       -12.6924
  54   2.0000      -0.460606       -12.5337
  55   2.0000      -0.446546       -12.1511
  56   2.0000      -0.443760       -12.0753
  57   2.0000      -0.437677       -11.9098
  58   2.0000      -0.429773       -11.6947
  59   2.0000      -0.426912       -11.6169
  60   2.0000      -0.422900       -11.5077
  61   2.0000      -0.412301       -11.2193
  62   2.0000      -0.406890       -11.0720
  63   2.0000      -0.340568        -9.2673
  64   2.0000      -0.328540        -8.9400
  65   2.0000      -0.321602        -8.7512
  66   2.0000      -0.295027        -8.0281
  67   0.0000       0.038522         1.0482
  68   0.0000       0.058516         1.5923
  69   0.0000       0.118905         3.2356
  70   0.0000       0.127893         3.4801
  71   0.0000       0.129911         3.5351

MULLIKEN ATOMIC CHARGES
-----------------------
   0 S :    0.133677
   1 C :   -0.119697
   2 C :   -0.095200
   3 C :    0.062949
   4 C :   -0.174409
   5 H :   -0.015816
   6 C :    0.069993
   7 H :    0.030580
   8 H :    0.007322
   9 C :   -0.038939
  10 H :    0.024411
  11 H :    0.011174
  12 C :   -0.078653
  13 H :    0.035748
  14 H :    0.053790
  15 H :    0.028142
  16 S :    0.104754
  17 C :   -0.094435
  18 C :   -0.033000
  19 C :   -0.009322
  20 C :   -0.162321
  21 H :    0.010208
  22 C :    0.039133
  23 H :    0.025155
  24 H :    0.024565
  25 C :   -0.093515
  26 H :    0.045283
  27 H :    0.038433
  28 C :    0.015817
  29 H :    0.021207
  30 H :    0.000303
  31 H :    0.023153
  32 H :    0.049896
  33 H :    0.059614
Sum of atomic charges:    0.0000000

LOEWDIN ATOMIC CHARGES
----------------------
   0 S :    0.436376
   1 C :   -0.208164
   2 C :   -0.063947
   3 C :   -0.046254
   4 C :   -0.205865
   5 H :    0.019378
   6 C :   -0.035091
   7 H :    0.034152
   8 H :    0.025088
   9 C :   -0.046940
  10 H :    0.030088
  11 H :    0.019849
  12 C :   -0.077284
  13 H :    0.026907
  14 H :    0.035823
  15 H :    0.030829
  16 S :    0.396822
  17 C :   -0.178473
  18 C :   -0.068085
  19 C :   -0.060597
  20 C :   -0.206411
  21 H :    0.026456
  22 C :   -0.045506
  23 H :    0.037839
  24 H :    0.032012
  25 C :   -0.028628
  26 H :    0.029707
  27 H :    0.023809
  28 C :   -0.055185
  29 H :    0.019617
  30 H :    0.016595
  31 H :    0.023426
  32 H :    0.027699
  33 H :    0.033959

  Mayer bond orders larger than 0.100000
B(  0-S ,  1-C ) :   1.1765 B(  0-S ,  4-C ) :   1.1684 B(  1-C ,  2-C ) :   1.5380
B(  1-C ,  4-C ) :   0.1115 B(  1-C , 32-H ) :   0.9764 B(  2-C ,  3-C ) :   1.2827
B(  2-C ,  6-C ) :   1.0379 B(  3-C ,  4-C ) :   1.5328 B(  3-C ,  5-H ) :   1.0059
B(  4-C , 20-C ) :   1.0302 B(  6-C ,  7-H ) :   0.9352 B(  6-C ,  8-H ) :   0.9385
B(  6-C ,  9-C ) :   1.0511 B(  9-C , 10-H ) :   0.9542 B(  9-C , 11-H ) :   0.9504
B(  9-C , 12-C ) :   1.0794 B( 12-C , 13-H ) :   0.9741 B( 12-C , 14-H ) :   0.9744
B( 12-C , 15-H ) :   0.9698 B( 16-S , 17-C ) :   1.1371 B( 16-S , 20-C ) :   1.1516
B( 17-C , 18-C ) :   1.6203 B( 17-C , 33-H ) :   0.9692 B( 18-C , 19-C ) :   1.2396
B( 18-C , 21-H ) :   0.9900 B( 19-C , 20-C ) :   1.5799 B( 19-C , 22-C ) :   1.0556
B( 22-C , 23-H ) :   0.9316 B( 22-C , 24-H ) :   0.9323 B( 22-C , 25-C ) :   1.0449
B( 25-C , 26-H ) :   0.9606 B( 25-C , 27-H ) :   0.9670 B( 25-C , 28-C ) :   1.0657
B( 28-C , 29-H ) :   0.9786 B( 28-C , 30-H ) :   0.9714 B( 28-C , 31-H ) :   0.9765

Dispersion correction           -0.013835476
FINAL SINGLE POINT ENERGY     -1339.861925215231

DIPOLE MOMENT
-------------
                                X             Y             Z
Electronic contribution:    -28.30196     -12.49816       6.68395
Nuclear contribution   :     28.96738      13.03569      -6.76616
                        -----------------------------------------
Total Dipole Moment    :      0.66543       0.53753      -0.08220
                        -----------------------------------------
Magnitude (a.u.)       :      0.85935
Magnitude (Debye)      :      2.18430

Rotational constants in cm-1:     0.017145     0.008486     0.006323
Rotational constants in MHz :   513.991822   254.417573   189.557086

                             ****ORCA TERMINATED NORMALLY****
TOTAL RUN TIME: 0 days 0 hours 0 minutes 21 seconds 161 msec
