                         Program Version 4.2.1 -  RELEASE  -
|  1> ! wB97X-D3 SP def2-SVP
|  2> %pal
|  3> nprocs 24
|  4> end
|  5>
|  6> * xyz 0 1
|  7> S 	 -31.2756 	 -35.9407 	 -89.3167
|  8> C 	 -30.5179 	 -34.5881 	 -88.5129
|  9> C 	 -30.0451 	 -33.7066 	 -89.4672
| 10> C 	 -30.3072 	 -34.0709 	 -90.7982
| 11> C 	 -31.0688 	 -35.185 	 -90.8489
| 12> H 	 -30.1172 	 -33.5892 	 -91.7613
| 13> C 	 -29.1478 	 -32.5369 	 -89.1151
| 14> H 	 -28.428 	 -32.3857 	 -89.9242
| 15> H 	 -28.5168 	 -32.8708 	 -88.3064
| 16> C 	 -29.8605 	 -31.2189 	 -88.886
| 17> H 	 -30.3488 	 -31.2564 	 -87.9289
| 18> H 	 -29.1149 	 -30.459 	 -88.8027
| 19> C 	 -30.8666 	 -30.8258 	 -89.9864
| 20> H 	 -30.4698 	 -30.6549 	 -91.0095
| 21> H 	 -31.7169 	 -31.5309 	 -90.0096
| 22> H 	 -31.3708 	 -29.9143 	 -89.6678
| 23> S 	 -30.8998 	 -37.5298 	 -92.247
| 24> C 	 -31.6225 	 -37.7744 	 -93.8024
| 25> C 	 -32.2867 	 -36.6541 	 -94.2326
| 26> C 	 -32.1673 	 -35.63 	 -93.2468
| 27> C 	 -31.4063 	 -35.8843 	 -92.1011
| 28> H 	 -32.8394 	 -36.5744 	 -95.1935
| 29> C 	 -32.8865 	 -34.281 	 -93.496
| 30> H 	 -32.8539 	 -33.6107 	 -92.653
| 31> H 	 -33.9504 	 -34.5726 	 -93.7228
| 32> C 	 -32.1976 	 -33.5515 	 -94.6602
| 33> H 	 -31.9363 	 -34.1235 	 -95.5938
| 34> H 	 -31.2395 	 -33.2097 	 -94.2355
| 35> C 	 -32.9095 	 -32.3287 	 -94.9977
| 36> H 	 -33.899 	 -32.4367 	 -95.2141
| 37> H 	 -32.4693 	 -31.8579 	 -95.9334
| 38> H 	 -32.7945 	 -31.6177 	 -94.1797
| 39> H 	 -30.4772 	 -34.4648 	 -87.3898
| 40> H 	 -31.6327 	 -38.6276 	 -94.4401
| 41> *
| 42>
| 43>                          ****END OF INPUT****

CARTESIAN COORDINATES (ANGSTROEM)
---------------------------------
  S    -31.275600  -35.940700  -89.316700
  C    -30.517900  -34.588100  -88.512900
  C    -30.045100  -33.706600  -89.467200
  C    -30.307200  -34.070900  -90.798200
  C    -31.068800  -35.185000  -90.848900
  H    -30.117200  -33.589200  -91.761300
  C    -29.147800  -32.536900  -89.115100
  H    -28.428000  -32.385700  -89.924200
  H    -28.516800  -32.870800  -88.306400
  C    -29.860500  -31.218900  -88.886000
  H    -30.348800  -31.256400  -87.928900
  H    -29.114900  -30.459000  -88.802700
  C    -30.866600  -30.825800  -89.986400
  H    -30.469800  -30.654900  -91.009500
  H    -31.716900  -31.530900  -90.009600
  H    -31.370800  -29.914300  -89.667800
  S    -30.899800  -37.529800  -92.247000
  C    -31.622500  -37.774400  -93.802400
  C    -32.286700  -36.654100  -94.232600
  C    -32.167300  -35.630000  -93.246800
  C    -31.406300  -35.884300  -92.101100
  H    -32.839400  -36.574400  -95.193500
  C    -32.886500  -34.281000  -93.496000
  H    -32.853900  -33.610700  -92.653000
  H    -33.950400  -34.572600  -93.722800
  C    -32.197600  -33.551500  -94.660200
  H    -31.936300  -34.123500  -95.593800
  H    -31.239500  -33.209700  -94.235500
  C    -32.909500  -32.328700  -94.997700
  H    -33.899000  -32.436700  -95.214100
  H    -32.469300  -31.857900  -95.933400
  H    -32.794500  -31.617700  -94.179700
  H    -30.477200  -34.464800  -87.389800
  H    -31.632700  -38.627600  -94.440100

 Total Charge           Charge          ....    0
 Multiplicity           Mult            ....    1
 Number of Electrons    NEL             ....  134
 Basis Dimension        Dim             ....  322

ORBITAL ENERGIES
----------------

  NO   OCC          E(Eh)            E(eV)
   0   2.0000     -88.967416     -2420.9265
   1   2.0000     -88.961545     -2420.7667
   2   2.0000     -10.326181      -280.9897
   3   2.0000     -10.324095      -280.9329
   4   2.0000     -10.319160      -280.7986
   5   2.0000     -10.312922      -280.6289
   6   2.0000     -10.301821      -280.3268
   7   2.0000     -10.299410      -280.2612
   8   2.0000     -10.294084      -280.1163
   9   2.0000     -10.291115      -280.0355
  10   2.0000     -10.290588      -280.0211
  11   2.0000     -10.285519      -279.8832
  12   2.0000     -10.283026      -279.8154
  13   2.0000     -10.282797      -279.8091
  14   2.0000     -10.281134      -279.7639
  15   2.0000     -10.266826      -279.3746
  16   2.0000      -8.082792      -219.9439
  17   2.0000      -8.076940      -219.7847
  18   2.0000      -6.041246      -164.3907
  19   2.0000      -6.037193      -164.2804
  20   2.0000      -6.035453      -164.2330
  21   2.0000      -6.033569      -164.1818
  22   2.0000      -6.031220      -164.1179
  23   2.0000      -6.027762      -164.0237
  24   2.0000      -1.014797       -27.6140
  25   2.0000      -0.991110       -26.9695
  26   2.0000      -0.915778       -24.9196
  27   2.0000      -0.913483       -24.8571
  28   2.0000      -0.871498       -23.7147
  29   2.0000      -0.853366       -23.2213
  30   2.0000      -0.846853       -23.0440
  31   2.0000      -0.820615       -22.3301
  32   2.0000      -0.782588       -21.2953
  33   2.0000      -0.766677       -20.8623
  34   2.0000      -0.703846       -19.1526
  35   2.0000      -0.700033       -19.0489
  36   2.0000      -0.690664       -18.7939
  37   2.0000      -0.660399       -17.9704
  38   2.0000      -0.644530       -17.5386
  39   2.0000      -0.614999       -16.7350
  40   2.0000      -0.594832       -16.1862
  41   2.0000      -0.578298       -15.7363
  42   2.0000      -0.566272       -15.4091
  43   2.0000      -0.552275       -15.0282
  44   2.0000      -0.543732       -14.7957
  45   2.0000      -0.525365       -14.2959
  46   2.0000      -0.517447       -14.0805
  47   2.0000      -0.511610       -13.9216
  48   2.0000      -0.509443       -13.8626
  49   2.0000      -0.502497       -13.6736
  50   2.0000      -0.492932       -13.4134
  51   2.0000      -0.479590       -13.0503
  52   2.0000      -0.471469       -12.8293
  53   2.0000      -0.467334       -12.7168
  54   2.0000      -0.459879       -12.5140
  55   2.0000      -0.449586       -12.2339
  56   2.0000      -0.442161       -12.0318
  57   2.0000      -0.439722       -11.9654
  58   2.0000      -0.430313       -11.7094
  59   2.0000      -0.422468       -11.4959
  60   2.0000      -0.417636       -11.3645
  61   2.0000      -0.415201       -11.2982
  62   2.0000      -0.401970       -10.9382
  63   2.0000      -0.349601        -9.5131
  64   2.0000      -0.333862        -9.0848
  65   2.0000      -0.326340        -8.8802
  66   2.0000      -0.295456        -8.0398
  67   0.0000       0.037825         1.0293
  68   0.0000       0.069660         1.8955
  69   0.0000       0.114321         3.1108
  70   0.0000       0.118098         3.2136
  71   0.0000       0.131639         3.5821

MULLIKEN ATOMIC CHARGES
-----------------------
   0 S :    0.118928
   1 C :   -0.149841
   2 C :   -0.081892
   3 C :    0.025062
   4 C :   -0.135004
   5 H :    0.019721
   6 C :    0.067750
   7 H :    0.017596
   8 H :    0.022057
   9 C :   -0.028322
  10 H :    0.018868
  11 H :    0.021337
  12 C :   -0.072993
  13 H :    0.039529
  14 H :    0.043673
  15 H :    0.027482
  16 S :    0.098588
  17 C :   -0.064540
  18 C :   -0.046800
  19 C :   -0.067811
  20 C :   -0.148362
  21 H :    0.037960
  22 C :    0.048957
  23 H :    0.019146
  24 H :    0.037729
  25 C :   -0.106146
  26 H :    0.040386
  27 H :    0.018964
  28 C :    0.004704
  29 H :    0.004960
  30 H :    0.029623
  31 H :    0.021452
  32 H :    0.075342
  33 H :    0.041898
Sum of atomic charges:    0.0000000

LOEWDIN ATOMIC CHARGES
----------------------
   0 S :    0.421090
   1 C :   -0.208635
   2 C :   -0.064567
   3 C :   -0.062752
   4 C :   -0.199722
   5 H :    0.039129
   6 C :   -0.034023
   7 H :    0.029628
   8 H :    0.029044
   9 C :   -0.034758
  10 H :    0.021913
  11 H :    0.020478
  12 C :   -0.071028
  13 H :    0.026596
  14 H :    0.028874
  15 H :    0.027443
  16 S :    0.420092
  17 C :   -0.186068
  18 C :   -0.079483
  19 C :   -0.059056
  20 C :   -0.213517
  21 H :    0.041581
  22 C :   -0.027578
  23 H :    0.024487
  24 H :    0.032786
  25 C :   -0.050434
  26 H :    0.027444
  27 H :    0.025364
  28 C :   -0.061615
  29 H :    0.007342
  30 H :    0.033001
  31 H :    0.025245
  32 H :    0.043838
  33 H :    0.027861

  Mayer bond orders larger than 0.100000
B(  0-S ,  1-C ) :   1.1349 B(  0-S ,  4-C ) :   1.1690 B(  1-C ,  2-C ) :   1.6013
B(  1-C , 32-H ) :   0.9646 B(  2-C ,  3-C ) :   1.2293 B(  2-C ,  6-C ) :   1.0115
B(  3-C ,  4-C ) :   1.5755 B(  3-C ,  5-H ) :   0.9983 B(  4-C , 20-C ) :   1.0096
B(  6-C ,  7-H ) :   0.9428 B(  6-C ,  8-H ) :   0.9447 B(  6-C ,  9-C ) :   1.0737
B(  9-C , 10-H ) :   0.9529 B(  9-C , 11-H ) :   0.9552 B(  9-C , 12-C ) :   1.0873
B( 12-C , 13-H ) :   0.9754 B( 12-C , 14-H ) :   0.9672 B( 12-C , 15-H ) :   0.9708
B( 16-S , 17-C ) :   1.1704 B( 16-S , 20-C ) :   1.1302 B( 17-C , 18-C ) :   1.5918
B( 17-C , 33-H ) :   0.9677 B( 18-C , 19-C ) :   1.2629 B( 18-C , 21-H ) :   0.9844
B( 19-C , 20-C ) :   1.6025 B( 19-C , 22-C ) :   1.0362 B( 22-C , 23-H ) :   0.9413
B( 22-C , 24-H ) :   0.9427 B( 22-C , 25-C ) :   1.0548 B( 25-C , 26-H ) :   0.9601
B( 25-C , 27-H ) :   0.9495 B( 25-C , 28-C ) :   1.0984 B( 28-C , 29-H ) :   0.9704
B( 28-C , 30-H ) :   0.9682 B( 28-C , 31-H ) :   0.9683

Dispersion correction           -0.014643803
FINAL SINGLE POINT ENERGY     -1339.875347716394

DIPOLE MOMENT
-------------
                                X             Y             Z
Electronic contribution:      2.32825     -29.04830       8.20984
Nuclear contribution   :     -2.33637      29.62957      -8.39673
                        -----------------------------------------
Total Dipole Moment    :     -0.00812       0.58127      -0.18689
                        -----------------------------------------
Magnitude (a.u.)       :      0.61063
Magnitude (Debye)      :      1.55210

Rotational constants in cm-1:     0.017325     0.010082     0.006834
Rotational constants in MHz :   519.376961   302.241570   204.868814

                             ****ORCA TERMINATED NORMALLY****
TOTAL RUN TIME: 0 days 0 hours 0 minutes 22 seconds 297 msec
