                         Program Version 4.2.1 -  RELEASE  -
|  1> ! wB97X-D3 SP def2-SVP
|  2> %pal
|  3> nprocs 24
|  4> end
|  5>
|  6> * xyz 0 1
|  7> S 	 -144.514 	 2.24746 	 14.0241
|  8> C 	 -144.456 	 1.80151 	 12.3816
|  9> C 	 -143.635 	 2.66753 	 11.7151
| 10> C 	 -143.132 	 3.77001 	 12.5193
| 11> C 	 -143.464 	 3.66021 	 13.8178
| 12> H 	 -142.309 	 4.51418 	 12.3214
| 13> C 	 -143.336 	 2.53729 	 10.2229
| 14> H 	 -142.543 	 3.26264 	 10.0097
| 15> H 	 -144.218 	 2.95843 	 9.75502
| 16> C 	 -142.983 	 1.11583 	 9.84335
| 17> H 	 -143.853 	 0.482408 	 9.9076
| 18> H 	 -142.612 	 0.957973 	 8.82272
| 19> C 	 -141.941 	 0.414236 	 10.6779
| 20> H 	 -141.82 	 -0.626027 	 10.3561
| 21> H 	 -140.976 	 0.947684 	 10.5562
| 22> H 	 -142.239 	 0.382488 	 11.6894
| 23> S 	 -141.474 	 5.05829 	 15.0119
| 24> C 	 -141.993 	 6.20209 	 16.2597
| 25> C 	 -143.377 	 6.22411 	 16.4231
| 26> C 	 -144.012 	 5.2077 	 15.7101
| 27> C 	 -143.155 	 4.57581 	 14.8805
| 28> H 	 -143.765 	 6.98627 	 17.022
| 29> C 	 -145.466 	 5.08662 	 15.7584
| 30> H 	 -145.922 	 5.28343 	 16.7163
| 31> H 	 -145.803 	 4.10559 	 15.5754
| 32> C 	 -146.077 	 6.10139 	 14.7305
| 33> H 	 -145.676 	 5.85655 	 13.7307
| 34> H 	 -145.828 	 7.0734 	 14.9976
| 35> C 	 -147.652 	 6.14931 	 14.6473
| 36> H 	 -147.86 	 6.49248 	 15.6193
| 37> H 	 -148.14 	 5.2217 	 14.4536
| 38> H 	 -148.057 	 6.7851 	 13.908
| 39> H 	 -144.938 	 0.97179 	 11.9026
| 40> H 	 -141.304 	 6.8798 	 16.7165
| 41> *
| 42>
| 43>                          ****END OF INPUT****

CARTESIAN COORDINATES (ANGSTROEM)
---------------------------------
  S    -144.514000    2.247460   14.024100
  C    -144.456000    1.801510   12.381600
  C    -143.635000    2.667530   11.715100
  C    -143.132000    3.770010   12.519300
  C    -143.464000    3.660210   13.817800
  H    -142.309000    4.514180   12.321400
  C    -143.336000    2.537290   10.222900
  H    -142.543000    3.262640   10.009700
  H    -144.218000    2.958430    9.755020
  C    -142.983000    1.115830    9.843350
  H    -143.853000    0.482408    9.907600
  H    -142.612000    0.957973    8.822720
  C    -141.941000    0.414236   10.677900
  H    -141.820000   -0.626027   10.356100
  H    -140.976000    0.947684   10.556200
  H    -142.239000    0.382488   11.689400
  S    -141.474000    5.058290   15.011900
  C    -141.993000    6.202090   16.259700
  C    -143.377000    6.224110   16.423100
  C    -144.012000    5.207700   15.710100
  C    -143.155000    4.575810   14.880500
  H    -143.765000    6.986270   17.022000
  C    -145.466000    5.086620   15.758400
  H    -145.922000    5.283430   16.716300
  H    -145.803000    4.105590   15.575400
  C    -146.077000    6.101390   14.730500
  H    -145.676000    5.856550   13.730700
  H    -145.828000    7.073400   14.997600
  C    -147.652000    6.149310   14.647300
  H    -147.860000    6.492480   15.619300
  H    -148.140000    5.221700   14.453600
  H    -148.057000    6.785100   13.908000
  H    -144.938000    0.971790   11.902600
  H    -141.304000    6.879800   16.716500

 Total Charge           Charge          ....    0
 Multiplicity           Mult            ....    1
 Number of Electrons    NEL             ....  134
 Basis Dimension        Dim             ....  322

ORBITAL ENERGIES
----------------

  NO   OCC          E(Eh)            E(eV)
   0   2.0000     -88.969923     -2420.9947
   1   2.0000     -88.961244     -2420.7585
   2   2.0000     -10.323271      -280.9105
   3   2.0000     -10.320922      -280.8466
   4   2.0000     -10.318170      -280.7717
   5   2.0000     -10.306594      -280.4567
   6   2.0000     -10.298653      -280.2406
   7   2.0000     -10.295656      -280.1591
   8   2.0000     -10.293462      -280.0993
   9   2.0000     -10.290322      -280.0139
  10   2.0000     -10.289136      -279.9816
  11   2.0000     -10.283196      -279.8200
  12   2.0000     -10.282846      -279.8105
  13   2.0000     -10.281396      -279.7710
  14   2.0000     -10.268133      -279.4101
  15   2.0000     -10.266315      -279.3606
  16   2.0000      -8.084261      -219.9839
  17   2.0000      -8.076291      -219.7671
  18   2.0000      -6.042600      -164.4275
  19   2.0000      -6.039087      -164.3319
  20   2.0000      -6.034981      -164.2202
  21   2.0000      -6.034880      -164.2174
  22   2.0000      -6.030657      -164.1025
  23   2.0000      -6.027030      -164.0038
  24   2.0000      -1.014771       -27.6133
  25   2.0000      -0.990405       -26.9503
  26   2.0000      -0.915041       -24.8995
  27   2.0000      -0.911185       -24.7946
  28   2.0000      -0.875798       -23.8317
  29   2.0000      -0.854455       -23.2509
  30   2.0000      -0.844761       -22.9871
  31   2.0000      -0.817446       -22.2438
  32   2.0000      -0.787160       -21.4197
  33   2.0000      -0.772739       -21.0273
  34   2.0000      -0.708368       -19.2757
  35   2.0000      -0.699382       -19.0311
  36   2.0000      -0.698245       -19.0002
  37   2.0000      -0.673631       -18.3304
  38   2.0000      -0.639352       -17.3976
  39   2.0000      -0.612220       -16.6594
  40   2.0000      -0.598055       -16.2739
  41   2.0000      -0.576315       -15.6823
  42   2.0000      -0.569526       -15.4976
  43   2.0000      -0.558595       -15.2002
  44   2.0000      -0.543488       -14.7891
  45   2.0000      -0.528782       -14.3889
  46   2.0000      -0.521909       -14.2019
  47   2.0000      -0.514209       -13.9923
  48   2.0000      -0.507262       -13.8033
  49   2.0000      -0.495096       -13.4722
  50   2.0000      -0.488501       -13.2928
  51   2.0000      -0.480456       -13.0739
  52   2.0000      -0.478570       -13.0225
  53   2.0000      -0.464685       -12.6447
  54   2.0000      -0.458509       -12.4767
  55   2.0000      -0.448719       -12.2103
  56   2.0000      -0.446869       -12.1599
  57   2.0000      -0.438822       -11.9409
  58   2.0000      -0.430359       -11.7107
  59   2.0000      -0.427371       -11.6294
  60   2.0000      -0.417603       -11.3635
  61   2.0000      -0.415466       -11.3054
  62   2.0000      -0.405428       -11.0323
  63   2.0000      -0.351610        -9.5678
  64   2.0000      -0.336928        -9.1683
  65   2.0000      -0.323810        -8.8113
  66   2.0000      -0.291638        -7.9359
  67   0.0000       0.031940         0.8691
  68   0.0000       0.074191         2.0188
  69   0.0000       0.104111         2.8330
  70   0.0000       0.121612         3.3092
  71   0.0000       0.135370         3.6836

MULLIKEN ATOMIC CHARGES
-----------------------
   0 S :    0.104486
   1 C :   -0.114440
   2 C :   -0.156124
   3 C :    0.006627
   4 C :   -0.152561
   5 H :    0.036764
   6 C :    0.135832
   7 H :    0.014641
   8 H :    0.043491
   9 C :   -0.091970
  10 H :    0.013214
  11 H :    0.028024
  12 C :   -0.043087
  13 H :    0.030567
  14 H :    0.031802
  15 H :    0.032709
  16 S :    0.109172
  17 C :   -0.087713
  18 C :   -0.030199
  19 C :    0.003605
  20 C :   -0.160440
  21 H :    0.000511
  22 C :    0.123907
  23 H :    0.008583
  24 H :   -0.001732
  25 C :   -0.087645
  26 H :    0.037578
  27 H :    0.011374
  28 C :    0.000919
  29 H :    0.011561
  30 H :    0.022490
  31 H :    0.026480
  32 H :    0.044197
  33 H :    0.047377
Sum of atomic charges:    0.0000000

LOEWDIN ATOMIC CHARGES
----------------------
   0 S :    0.414881
   1 C :   -0.214185
   2 C :   -0.062742
   3 C :   -0.083225
   4 C :   -0.181725
   5 H :    0.039301
   6 C :   -0.030498
   7 H :    0.028944
   8 H :    0.037232
   9 C :   -0.048763
  10 H :    0.017750
  11 H :    0.027442
  12 C :   -0.060160
  13 H :    0.027907
  14 H :    0.026789
  15 H :    0.016104
  16 S :    0.400534
  17 C :   -0.168670
  18 C :   -0.052416
  19 C :   -0.054189
  20 C :   -0.191209
  21 H :    0.025189
  22 C :   -0.027404
  23 H :    0.028377
  24 H :    0.012883
  25 C :   -0.019491
  26 H :    0.025547
  27 H :    0.012141
  28 C :   -0.056839
  29 H :    0.017570
  30 H :    0.020244
  31 H :    0.022254
  32 H :    0.029633
  33 H :    0.020795

  Mayer bond orders larger than 0.100000
B(  0-S ,  1-C ) :   1.1298 B(  0-S ,  4-C ) :   1.1399 B(  1-C ,  2-C ) :   1.6221
B(  1-C , 32-H ) :   0.9760 B(  2-C ,  3-C ) :   1.2215 B(  2-C ,  6-C ) :   0.9990
B(  3-C ,  4-C ) :   1.6218 B(  3-C ,  5-H ) :   0.9727 B(  4-C , 20-C ) :   1.0247
B(  6-C ,  7-H ) :   0.9415 B(  6-C ,  8-H ) :   0.9387 B(  6-C ,  9-C ) :   1.0647
B(  9-C , 10-H ) :   0.9508 B(  9-C , 11-H ) :   0.9572 B(  9-C , 12-C ) :   1.0905
B( 12-C , 13-H ) :   0.9714 B( 12-C , 14-H ) :   0.9758 B( 12-C , 15-H ) :   0.9688
B( 16-S , 17-C ) :   1.1424 B( 16-S , 20-C ) :   1.1388 B( 17-C , 18-C ) :   1.6202
B( 17-C , 33-H ) :   0.9708 B( 18-C , 19-C ) :   1.2119 B( 18-C , 21-H ) :   1.0040
B( 19-C , 20-C ) :   1.5972 B( 19-C , 22-C ) :   1.0797 B( 22-C , 23-H ) :   0.9232
B( 22-C , 24-H ) :   0.9133 B( 22-C , 25-C ) :   1.0475 B( 25-C , 26-H ) :   0.9603
B( 25-C , 27-H ) :   0.9632 B( 25-C , 28-C ) :   1.0700 B( 28-C , 29-H ) :   0.9770
B( 28-C , 30-H ) :   0.9777 B( 28-C , 31-H ) :   0.9760

Dispersion correction           -0.014896813
FINAL SINGLE POINT ENERGY     -1339.867941211065

DIPOLE MOMENT
-------------
                                X             Y             Z
Electronic contribution:     10.37118       1.39339      12.48416
Nuclear contribution   :    -10.56293      -1.10678     -12.70150
                        -----------------------------------------
Total Dipole Moment    :     -0.19175       0.28661      -0.21734
                        -----------------------------------------
Magnitude (a.u.)       :      0.40762
Magnitude (Debye)      :      1.03608

Rotational constants in cm-1:     0.021114     0.008723     0.006998
Rotational constants in MHz :   632.992736   261.501821   209.808458

                             ****ORCA TERMINATED NORMALLY****
TOTAL RUN TIME: 0 days 0 hours 0 minutes 22 seconds 223 msec
