                         Program Version 4.2.1 -  RELEASE  -
|  1> ! wB97X-D3 SP def2-SVP
|  2> %pal
|  3> nprocs 24
|  4> end
|  5>
|  6> * xyz 0 1
|  7> S 	 -124.68 	 27.4937 	 -112.126
|  8> C 	 -125.12 	 25.9482 	 -112.875
|  9> C 	 -124.959 	 24.9402 	 -111.995
| 10> C 	 -124.617 	 25.4561 	 -110.679
| 11> C 	 -124.412 	 26.7939 	 -110.572
| 12> H 	 -124.378 	 24.7815 	 -109.829
| 13> C 	 -125.064 	 23.4502 	 -112.359
| 14> H 	 -124.27 	 23.1359 	 -111.701
| 15> H 	 -124.88 	 23.227 	 -113.398
| 16> C 	 -126.456 	 22.7049 	 -112.058
| 17> H 	 -126.934 	 22.9536 	 -111.16
| 18> H 	 -127.147 	 22.9373 	 -112.854
| 19> C 	 -126.35 	 21.1588 	 -111.978
| 20> H 	 -127.303 	 20.6563 	 -111.964
| 21> H 	 -125.907 	 20.8297 	 -112.902
| 22> H 	 -125.815 	 20.8521 	 -111.097
| 23> S 	 -122.577 	 28.6099 	 -109.553
| 24> C 	 -122.461 	 29.0279 	 -107.928
| 25> C 	 -123.567 	 28.4937 	 -107.217
| 26> C 	 -124.309 	 27.5302 	 -107.961
| 27> C 	 -123.994 	 27.5292 	 -109.358
| 28> H 	 -123.67 	 28.7894 	 -106.167
| 29> C 	 -125.416 	 26.7081 	 -107.378
| 30> H 	 -126.055 	 26.4581 	 -108.194
| 31> H 	 -126.032 	 27.4003 	 -106.777
| 32> C 	 -125.099 	 25.3705 	 -106.619
| 33> H 	 -124.604 	 25.5657 	 -105.691
| 34> H 	 -124.351 	 24.7077 	 -107.122
| 35> C 	 -126.488 	 24.715 	 -106.213
| 36> H 	 -127.149 	 25.2465 	 -105.507
| 37> H 	 -126.282 	 23.7858 	 -105.648
| 38> H 	 -127.047 	 24.303 	 -107.094
| 39> H 	 -125.297 	 25.9009 	 -113.924
| 40> H 	 -121.725 	 29.6554 	 -107.429
| 41> *
| 42>
| 43>                          ****END OF INPUT****

CARTESIAN COORDINATES (ANGSTROEM)
---------------------------------
  S    -124.680000   27.493700  -112.126000
  C    -125.120000   25.948200  -112.875000
  C    -124.959000   24.940200  -111.995000
  C    -124.617000   25.456100  -110.679000
  C    -124.412000   26.793900  -110.572000
  H    -124.378000   24.781500  -109.829000
  C    -125.064000   23.450200  -112.359000
  H    -124.270000   23.135900  -111.701000
  H    -124.880000   23.227000  -113.398000
  C    -126.456000   22.704900  -112.058000
  H    -126.934000   22.953600  -111.160000
  H    -127.147000   22.937300  -112.854000
  C    -126.350000   21.158800  -111.978000
  H    -127.303000   20.656300  -111.964000
  H    -125.907000   20.829700  -112.902000
  H    -125.815000   20.852100  -111.097000
  S    -122.577000   28.609900  -109.553000
  C    -122.461000   29.027900  -107.928000
  C    -123.567000   28.493700  -107.217000
  C    -124.309000   27.530200  -107.961000
  C    -123.994000   27.529200  -109.358000
  H    -123.670000   28.789400  -106.167000
  C    -125.416000   26.708100  -107.378000
  H    -126.055000   26.458100  -108.194000
  H    -126.032000   27.400300  -106.777000
  C    -125.099000   25.370500  -106.619000
  H    -124.604000   25.565700  -105.691000
  H    -124.351000   24.707700  -107.122000
  C    -126.488000   24.715000  -106.213000
  H    -127.149000   25.246500  -105.507000
  H    -126.282000   23.785800  -105.648000
  H    -127.047000   24.303000  -107.094000
  H    -125.297000   25.900900  -113.924000
  H    -121.725000   29.655400  -107.429000

 Total Charge           Charge          ....    0
 Multiplicity           Mult            ....    1
 Number of Electrons    NEL             ....  134
 Basis Dimension        Dim             ....  322

ORBITAL ENERGIES
----------------

  NO   OCC          E(Eh)            E(eV)
   0   2.0000     -88.966023     -2420.8886
   1   2.0000     -88.960886     -2420.7488
   2   2.0000     -10.336134      -281.2605
   3   2.0000     -10.332038      -281.1491
   4   2.0000     -10.318880      -280.7910
   5   2.0000     -10.311159      -280.5809
   6   2.0000     -10.311152      -280.5807
   7   2.0000     -10.303333      -280.3680
   8   2.0000     -10.299667      -280.2682
   9   2.0000     -10.298045      -280.2240
  10   2.0000     -10.296813      -280.1905
  11   2.0000     -10.295340      -280.1504
  12   2.0000     -10.289271      -279.9853
  13   2.0000     -10.289161      -279.9823
  14   2.0000     -10.286438      -279.9082
  15   2.0000     -10.274913      -279.5946
  16   2.0000      -8.081083      -219.8974
  17   2.0000      -8.076155      -219.7633
  18   2.0000      -6.039375      -164.3398
  19   2.0000      -6.035269      -164.2280
  20   2.0000      -6.034813      -164.2156
  21   2.0000      -6.032297      -164.1472
  22   2.0000      -6.030564      -164.1000
  23   2.0000      -6.026730      -163.9957
  24   2.0000      -1.006692       -27.3935
  25   2.0000      -0.986069       -26.8323
  26   2.0000      -0.904608       -24.6156
  27   2.0000      -0.903266       -24.5791
  28   2.0000      -0.869747       -23.6670
  29   2.0000      -0.849240       -23.1090
  30   2.0000      -0.842848       -22.9351
  31   2.0000      -0.813495       -22.1363
  32   2.0000      -0.781473       -21.2650
  33   2.0000      -0.771104       -20.9828
  34   2.0000      -0.710782       -19.3414
  35   2.0000      -0.705567       -19.1995
  36   2.0000      -0.697816       -18.9885
  37   2.0000      -0.656742       -17.8709
  38   2.0000      -0.643277       -17.5045
  39   2.0000      -0.622575       -16.9411
  40   2.0000      -0.593033       -16.1373
  41   2.0000      -0.571001       -15.5377
  42   2.0000      -0.560421       -15.2498
  43   2.0000      -0.555037       -15.1033
  44   2.0000      -0.523147       -14.2356
  45   2.0000      -0.521169       -14.1817
  46   2.0000      -0.517594       -14.0844
  47   2.0000      -0.511841       -13.9279
  48   2.0000      -0.508655       -13.8412
  49   2.0000      -0.503755       -13.7079
  50   2.0000      -0.491567       -13.3762
  51   2.0000      -0.482957       -13.1419
  52   2.0000      -0.469221       -12.7681
  53   2.0000      -0.464678       -12.6445
  54   2.0000      -0.461337       -12.5536
  55   2.0000      -0.449744       -12.2382
  56   2.0000      -0.443672       -12.0729
  57   2.0000      -0.436420       -11.8756
  58   2.0000      -0.434622       -11.8267
  59   2.0000      -0.427722       -11.6389
  60   2.0000      -0.420097       -11.4314
  61   2.0000      -0.412734       -11.2311
  62   2.0000      -0.407101       -11.0778
  63   2.0000      -0.351083        -9.5535
  64   2.0000      -0.329246        -8.9592
  65   2.0000      -0.326727        -8.8907
  66   2.0000      -0.292594        -7.9619
  67   0.0000       0.030672         0.8346
  68   0.0000       0.070845         1.9278
  69   0.0000       0.117556         3.1989
  70   0.0000       0.120021         3.2659
  71   0.0000       0.130919         3.5625

MULLIKEN ATOMIC CHARGES
-----------------------
   0 S :    0.090505
   1 C :   -0.126560
   2 C :   -0.069677
   3 C :   -0.007811
   4 C :   -0.106783
   5 H :    0.016891
   6 C :    0.074133
   7 H :    0.028679
   8 H :    0.027147
   9 C :   -0.055291
  10 H :    0.017717
  11 H :    0.027063
  12 C :   -0.048240
  13 H :    0.028627
  14 H :    0.020319
  15 H :    0.034768
  16 S :    0.111627
  17 C :   -0.095079
  18 C :   -0.054230
  19 C :   -0.024321
  20 C :   -0.152455
  21 H :    0.026263
  22 C :    0.043489
  23 H :    0.016635
  24 H :    0.029485
  25 C :   -0.051440
  26 H :    0.020909
  27 H :    0.043182
  28 C :   -0.092826
  29 H :    0.047728
  30 H :    0.027123
  31 H :    0.044103
  32 H :    0.042497
  33 H :    0.065823
Sum of atomic charges:   -0.0000000

LOEWDIN ATOMIC CHARGES
----------------------
   0 S :    0.395116
   1 C :   -0.177931
   2 C :   -0.064579
   3 C :   -0.074971
   4 C :   -0.203669
   5 H :    0.032963
   6 C :   -0.021433
   7 H :    0.032522
   8 H :    0.030447
   9 C :   -0.031287
  10 H :    0.014425
  11 H :    0.022674
  12 C :   -0.061508
  13 H :    0.025755
  14 H :    0.020006
  15 H :    0.022436
  16 S :    0.430005
  17 C :   -0.209091
  18 C :   -0.082268
  19 C :   -0.051952
  20 C :   -0.191000
  21 H :    0.033567
  22 C :   -0.037849
  23 H :    0.026800
  24 H :    0.036650
  25 C :   -0.035333
  26 H :    0.019546
  27 H :    0.030603
  28 C :   -0.077700
  29 H :    0.030510
  30 H :    0.027057
  31 H :    0.029617
  32 H :    0.023598
  33 H :    0.036275

  Mayer bond orders larger than 0.100000
B(  0-S ,  1-C ) :   1.1240 B(  0-S ,  4-C ) :   1.1458 B(  1-C ,  2-C ) :   1.6287
B(  1-C , 32-H ) :   0.9775 B(  2-C ,  3-C ) :   1.2273 B(  2-C ,  6-C ) :   1.0053
B(  3-C ,  4-C ) :   1.5925 B(  3-C ,  5-H ) :   0.9895 B(  4-C , 20-C ) :   1.0253
B(  6-C ,  7-H ) :   0.9434 B(  6-C ,  8-H ) :   0.9478 B(  6-C ,  9-C ) :   1.0483
B(  9-C , 10-H ) :   0.9644 B(  9-C , 11-H ) :   0.9591 B(  9-C , 12-C ) :   1.0820
B( 12-C , 13-H ) :   0.9735 B( 12-C , 14-H ) :   0.9764 B( 12-C , 15-H ) :   0.9794
B( 16-S , 17-C ) :   1.2045 B( 16-S , 20-C ) :   1.1486 B( 17-C , 18-C ) :   1.5471
B( 17-C , 20-C ) :   0.1146 B( 17-C , 33-H ) :   0.9667 B( 18-C , 19-C ) :   1.2793
B( 18-C , 21-H ) :   0.9903 B( 19-C , 20-C ) :   1.5351 B( 19-C , 22-C ) :   1.0520
B( 22-C , 23-H ) :   0.9396 B( 22-C , 24-H ) :   0.9383 B( 22-C , 25-C ) :   1.0470
B( 25-C , 26-H ) :   0.9540 B( 25-C , 27-H ) :   0.9574 B( 25-C , 28-C ) :   1.0681
B( 28-C , 29-H ) :   0.9769 B( 28-C , 30-H ) :   0.9741 B( 28-C , 31-H ) :   0.9771

Dispersion correction           -0.013478063
FINAL SINGLE POINT ENERGY     -1339.863654487081

DIPOLE MOMENT
-------------
                                X             Y             Z
Electronic contribution:     14.89648      28.32898      -9.44962
Nuclear contribution   :    -15.05184     -28.93148       9.83009
                        -----------------------------------------
Total Dipole Moment    :     -0.15535      -0.60250       0.38047
                        -----------------------------------------
Magnitude (a.u.)       :      0.72932
Magnitude (Debye)      :      1.85378

Rotational constants in cm-1:     0.016838     0.008724     0.006137
Rotational constants in MHz :   504.794105   261.535882   183.972725

                             ****ORCA TERMINATED NORMALLY****
TOTAL RUN TIME: 0 days 0 hours 0 minutes 20 seconds 946 msec
