                         Program Version 4.2.1 -  RELEASE  -
|  1> ! wB97X-D3 SP def2-SVP
|  2> %pal
|  3> nprocs 24
|  4> end
|  5>
|  6> * xyz 0 1
|  7> S 	 -32.2156 	 -34.0547 	 -95.587
|  8> C 	 -31.98 	 -35.3391 	 -94.4823
|  9> C 	 -30.6589 	 -35.3759 	 -94.0198
| 10> C 	 -29.7918 	 -34.5898 	 -94.8246
| 11> C 	 -30.5041 	 -33.9033 	 -95.8094
| 12> H 	 -28.6925 	 -34.5737 	 -94.8829
| 13> C 	 -30.1139 	 -36.4304 	 -93.1325
| 14> H 	 -29.3983 	 -37.0091 	 -93.7253
| 15> H 	 -30.9413 	 -37.1007 	 -92.8423
| 16> C 	 -29.5484 	 -35.7669 	 -91.8955
| 17> H 	 -28.9072 	 -34.9582 	 -92.1662
| 18> H 	 -30.3439 	 -35.3485 	 -91.304
| 19> C 	 -28.671 	 -36.6423 	 -91.0521
| 20> H 	 -28.1522 	 -35.917 	 -90.3971
| 21> H 	 -29.2437 	 -37.3421 	 -90.4682
| 22> H 	 -28.0122 	 -37.2786 	 -91.7408
| 23> S 	 -30.4971 	 -33.1784 	 -98.5276
| 24> C 	 -29.1701 	 -32.1361 	 -99.0675
| 25> C 	 -28.4329 	 -31.6261 	 -97.9932
| 26> C 	 -28.957 	 -32.0663 	 -96.7584
| 27> C 	 -29.8859 	 -33.1211 	 -96.8585
| 28> H 	 -27.6297 	 -30.895 	 -98.1905
| 29> C 	 -28.4988 	 -31.5175 	 -95.4262
| 30> H 	 -27.4932 	 -31.0736 	 -95.5402
| 31> H 	 -28.3411 	 -32.3521 	 -94.7608
| 32> C 	 -29.6074 	 -30.6504 	 -94.7735
| 33> H 	 -30.4285 	 -31.2925 	 -94.4993
| 34> H 	 -30.016 	 -29.9757 	 -95.4884
| 35> C 	 -29.1144 	 -29.9148 	 -93.5855
| 36> H 	 -28.7643 	 -30.6364 	 -92.8356
| 37> H 	 -29.8421 	 -29.3019 	 -93.0352
| 38> H 	 -28.3073 	 -29.1543 	 -93.8286
| 39> H 	 -32.7828 	 -35.952 	 -94.0636
| 40> H 	 -28.8932 	 -31.8594 	 -100.126
| 41> *
| 42>
| 43>                          ****END OF INPUT****

CARTESIAN COORDINATES (ANGSTROEM)
---------------------------------
  S    -32.215600  -34.054700  -95.587000
  C    -31.980000  -35.339100  -94.482300
  C    -30.658900  -35.375900  -94.019800
  C    -29.791800  -34.589800  -94.824600
  C    -30.504100  -33.903300  -95.809400
  H    -28.692500  -34.573700  -94.882900
  C    -30.113900  -36.430400  -93.132500
  H    -29.398300  -37.009100  -93.725300
  H    -30.941300  -37.100700  -92.842300
  C    -29.548400  -35.766900  -91.895500
  H    -28.907200  -34.958200  -92.166200
  H    -30.343900  -35.348500  -91.304000
  C    -28.671000  -36.642300  -91.052100
  H    -28.152200  -35.917000  -90.397100
  H    -29.243700  -37.342100  -90.468200
  H    -28.012200  -37.278600  -91.740800
  S    -30.497100  -33.178400  -98.527600
  C    -29.170100  -32.136100  -99.067500
  C    -28.432900  -31.626100  -97.993200
  C    -28.957000  -32.066300  -96.758400
  C    -29.885900  -33.121100  -96.858500
  H    -27.629700  -30.895000  -98.190500
  C    -28.498800  -31.517500  -95.426200
  H    -27.493200  -31.073600  -95.540200
  H    -28.341100  -32.352100  -94.760800
  C    -29.607400  -30.650400  -94.773500
  H    -30.428500  -31.292500  -94.499300
  H    -30.016000  -29.975700  -95.488400
  C    -29.114400  -29.914800  -93.585500
  H    -28.764300  -30.636400  -92.835600
  H    -29.842100  -29.301900  -93.035200
  H    -28.307300  -29.154300  -93.828600
  H    -32.782800  -35.952000  -94.063600
  H    -28.893200  -31.859400  -100.126000

 Total Charge           Charge          ....    0
 Multiplicity           Mult            ....    1
 Number of Electrons    NEL             ....  134
 Basis Dimension        Dim             ....  322

ORBITAL ENERGIES
----------------

  NO   OCC          E(Eh)            E(eV)
   0   2.0000     -88.968378     -2420.9527
   1   2.0000     -88.967512     -2420.9291
   2   2.0000     -10.327016      -281.0124
   3   2.0000     -10.325949      -280.9833
   4   2.0000     -10.325171      -280.9622
   5   2.0000     -10.311511      -280.5905
   6   2.0000     -10.303655      -280.3767
   7   2.0000     -10.298173      -280.2275
   8   2.0000     -10.297218      -280.2015
   9   2.0000     -10.295516      -280.1552
  10   2.0000     -10.287910      -279.9483
  11   2.0000     -10.287898      -279.9479
  12   2.0000     -10.280049      -279.7344
  13   2.0000     -10.276668      -279.6424
  14   2.0000     -10.276563      -279.6395
  15   2.0000     -10.276257      -279.6312
  16   2.0000      -8.083054      -219.9511
  17   2.0000      -8.081965      -219.9214
  18   2.0000      -6.041343      -164.3933
  19   2.0000      -6.040528      -164.3711
  20   2.0000      -6.037558      -164.2903
  21   2.0000      -6.036693      -164.2668
  22   2.0000      -6.033896      -164.1906
  23   2.0000      -6.032679      -164.1576
  24   2.0000      -1.008827       -27.4516
  25   2.0000      -0.983607       -26.7653
  26   2.0000      -0.921755       -25.0822
  27   2.0000      -0.908852       -24.7311
  28   2.0000      -0.869313       -23.6552
  29   2.0000      -0.856492       -23.3063
  30   2.0000      -0.849275       -23.1100
  31   2.0000      -0.813171       -22.1275
  32   2.0000      -0.779462       -21.2102
  33   2.0000      -0.763092       -20.7648
  34   2.0000      -0.705988       -19.2109
  35   2.0000      -0.694797       -18.9064
  36   2.0000      -0.690486       -18.7891
  37   2.0000      -0.657618       -17.8947
  38   2.0000      -0.641673       -17.4608
  39   2.0000      -0.620720       -16.8906
  40   2.0000      -0.590723       -16.0744
  41   2.0000      -0.572352       -15.5745
  42   2.0000      -0.566156       -15.4059
  43   2.0000      -0.560355       -15.2480
  44   2.0000      -0.534707       -14.5501
  45   2.0000      -0.520831       -14.1725
  46   2.0000      -0.517201       -14.0738
  47   2.0000      -0.515589       -14.0299
  48   2.0000      -0.504385       -13.7250
  49   2.0000      -0.498795       -13.5729
  50   2.0000      -0.489804       -13.3282
  51   2.0000      -0.484048       -13.1716
  52   2.0000      -0.465793       -12.6749
  53   2.0000      -0.463363       -12.6087
  54   2.0000      -0.457905       -12.4602
  55   2.0000      -0.451147       -12.2763
  56   2.0000      -0.446216       -12.1422
  57   2.0000      -0.440683       -11.9916
  58   2.0000      -0.428822       -11.6688
  59   2.0000      -0.420443       -11.4408
  60   2.0000      -0.418000       -11.3744
  61   2.0000      -0.415336       -11.3019
  62   2.0000      -0.414324       -11.2743
  63   2.0000      -0.344685        -9.3794
  64   2.0000      -0.331894        -9.0313
  65   2.0000      -0.328078        -8.9274
  66   2.0000      -0.284445        -7.7401
  67   0.0000       0.019999         0.5442
  68   0.0000       0.069173         1.8823
  69   0.0000       0.107052         2.9130
  70   0.0000       0.117337         3.1929
  71   0.0000       0.132605         3.6084

MULLIKEN ATOMIC CHARGES
-----------------------
   0 S :    0.129507
   1 C :   -0.131598
   2 C :   -0.073734
   3 C :    0.008344
   4 C :   -0.165123
   5 H :    0.038571
   6 C :    0.066262
   7 H :    0.036151
   8 H :    0.017005
   9 C :   -0.093906
  10 H :    0.016653
  11 H :    0.024417
  12 C :   -0.024639
  13 H :    0.040214
  14 H :    0.023340
  15 H :    0.034016
  16 S :    0.110816
  17 C :   -0.115056
  18 C :   -0.040232
  19 C :   -0.053464
  20 C :   -0.164403
  21 H :    0.033705
  22 C :    0.082289
  23 H :    0.020531
  24 H :    0.001143
  25 C :   -0.037312
  26 H :    0.032793
  27 H :    0.021871
  28 C :   -0.056454
  29 H :    0.025953
  30 H :    0.030125
  31 H :    0.033713
  32 H :    0.053031
  33 H :    0.075469
Sum of atomic charges:    0.0000000

LOEWDIN ATOMIC CHARGES
----------------------
   0 S :    0.424204
   1 C :   -0.215217
   2 C :   -0.063030
   3 C :   -0.063074
   4 C :   -0.198380
   5 H :    0.038124
   6 C :   -0.030467
   7 H :    0.032060
   8 H :    0.030167
   9 C :   -0.044442
  10 H :    0.018537
  11 H :    0.025882
  12 C :   -0.064244
  13 H :    0.031722
  14 H :    0.017490
  15 H :    0.031434
  16 S :    0.390692
  17 C :   -0.186582
  18 C :   -0.078892
  19 C :   -0.048645
  20 C :   -0.201903
  21 H :    0.039373
  22 C :   -0.030305
  23 H :    0.029242
  24 H :    0.025018
  25 C :   -0.035853
  26 H :    0.027062
  27 H :    0.019923
  28 C :   -0.072603
  29 H :    0.025066
  30 H :    0.025784
  31 H :    0.029412
  32 H :    0.029902
  33 H :    0.042545

  Mayer bond orders larger than 0.100000
B(  0-S ,  1-C ) :   1.1421 B(  0-S ,  4-C ) :   1.1567 B(  1-C ,  2-C ) :   1.5841
B(  1-C , 32-H ) :   0.9680 B(  2-C ,  3-C ) :   1.2331 B(  2-C ,  6-C ) :   1.0442
B(  3-C ,  4-C ) :   1.5678 B(  3-C ,  5-H ) :   0.9820 B(  4-C , 20-C ) :   1.0835
B(  6-C ,  7-H ) :   0.9455 B(  6-C ,  8-H ) :   0.9380 B(  6-C ,  9-C ) :   1.0574
B(  9-C , 10-H ) :   0.9661 B(  9-C , 11-H ) :   0.9469 B(  9-C , 12-C ) :   1.0805
B( 12-C , 13-H ) :   0.9755 B( 12-C , 14-H ) :   0.9729 B( 12-C , 15-H ) :   0.9741
B( 16-S , 17-C ) :   1.1631 B( 16-S , 20-C ) :   1.1206 B( 17-C , 18-C ) :   1.5938
B( 17-C , 20-C ) :   0.1099 B( 17-C , 33-H ) :   0.9580 B( 18-C , 19-C ) :   1.2609
B( 18-C , 21-H ) :   0.9870 B( 19-C , 20-C ) :   1.5436 B( 19-C , 22-C ) :   1.0539
B( 22-C , 23-H ) :   0.9428 B( 22-C , 24-H ) :   0.9211 B( 22-C , 25-C ) :   1.0432
B( 25-C , 26-H ) :   0.9467 B( 25-C , 27-H ) :   0.9578 B( 25-C , 28-C ) :   1.0995
B( 28-C , 29-H ) :   0.9694 B( 28-C , 30-H ) :   0.9714 B( 28-C , 31-H ) :   0.9733

Dispersion correction           -0.014514186
FINAL SINGLE POINT ENERGY     -1339.873998913845

DIPOLE MOMENT
-------------
                                X             Y             Z
Electronic contribution:    -13.48827      -1.35922     -25.83965
Nuclear contribution   :     13.85563       1.42589      26.22533
                        -----------------------------------------
Total Dipole Moment    :      0.36736       0.06667       0.38568
                        -----------------------------------------
Magnitude (a.u.)       :      0.53679
Magnitude (Debye)      :      1.36442

Rotational constants in cm-1:     0.018545     0.008787     0.007193
Rotational constants in MHz :   555.966803   263.422585   215.650288

                             ****ORCA TERMINATED NORMALLY****
TOTAL RUN TIME: 0 days 0 hours 0 minutes 20 seconds 986 msec
