                         Program Version 4.2.1 -  RELEASE  -
|  1> ! wB97X-D3 SP def2-SVP
|  2> %pal
|  3> nprocs 24
|  4> end
|  5>
|  6> * xyz 0 1
|  7> S 	 35.8592 	 -30.7049 	 -124.25
|  8> C 	 37.4303 	 -31.4477 	 -124.671
|  9> C 	 37.2664 	 -32.3967 	 -125.671
| 10> C 	 35.9165 	 -32.4262 	 -126.157
| 11> C 	 35.0646 	 -31.589 	 -125.506
| 12> H 	 35.5843 	 -33.0617 	 -126.949
| 13> C 	 38.3836 	 -33.2319 	 -126.2
| 14> H 	 39.2527 	 -32.5406 	 -126.281
| 15> H 	 38.0177 	 -33.4061 	 -127.259
| 16> C 	 38.6903 	 -34.6372 	 -125.524
| 17> H 	 37.7733 	 -35.1575 	 -125.65
| 18> H 	 39.5708 	 -35.1061 	 -125.944
| 19> C 	 38.9598 	 -34.5022 	 -124.017
| 20> H 	 39.0487 	 -35.4411 	 -123.438
| 21> H 	 39.92 	 -34.0416 	 -123.909
| 22> H 	 38.3043 	 -33.808 	 -123.591
| 23> S 	 33.1481 	 -30.8465 	 -127.208
| 24> C 	 31.5177 	 -30.9433 	 -126.703
| 25> C 	 31.3188 	 -31.3706 	 -125.365
| 26> C 	 32.5742 	 -31.7158 	 -124.744
| 27> C 	 33.653 	 -31.4633 	 -125.652
| 28> H 	 30.25 	 -31.3842 	 -124.92
| 29> C 	 32.8045 	 -32.0012 	 -123.265
| 30> H 	 33.8499 	 -32.3735 	 -123.029
| 31> H 	 32.1958 	 -32.87 	 -122.918
| 32> C 	 32.6278 	 -30.702 	 -122.384
| 33> H 	 31.6269 	 -30.3672 	 -122.504
| 34> H 	 33.2193 	 -29.8542 	 -122.866
| 35> C 	 32.9896 	 -30.9048 	 -120.893
| 36> H 	 34.108 	 -30.964 	 -120.818
| 37> H 	 32.555 	 -31.7033 	 -120.371
| 38> H 	 32.7929 	 -29.9652 	 -120.41
| 39> H 	 38.3881 	 -31.3276 	 -124.263
| 40> H 	 30.5746 	 -30.6821 	 -127.277
| 41> *
| 42>
| 43>                          ****END OF INPUT****

CARTESIAN COORDINATES (ANGSTROEM)
---------------------------------
  S     35.859200  -30.704900  -124.250000
  C     37.430300  -31.447700  -124.671000
  C     37.266400  -32.396700  -125.671000
  C     35.916500  -32.426200  -126.157000
  C     35.064600  -31.589000  -125.506000
  H     35.584300  -33.061700  -126.949000
  C     38.383600  -33.231900  -126.200000
  H     39.252700  -32.540600  -126.281000
  H     38.017700  -33.406100  -127.259000
  C     38.690300  -34.637200  -125.524000
  H     37.773300  -35.157500  -125.650000
  H     39.570800  -35.106100  -125.944000
  C     38.959800  -34.502200  -124.017000
  H     39.048700  -35.441100  -123.438000
  H     39.920000  -34.041600  -123.909000
  H     38.304300  -33.808000  -123.591000
  S     33.148100  -30.846500  -127.208000
  C     31.517700  -30.943300  -126.703000
  C     31.318800  -31.370600  -125.365000
  C     32.574200  -31.715800  -124.744000
  C     33.653000  -31.463300  -125.652000
  H     30.250000  -31.384200  -124.920000
  C     32.804500  -32.001200  -123.265000
  H     33.849900  -32.373500  -123.029000
  H     32.195800  -32.870000  -122.918000
  C     32.627800  -30.702000  -122.384000
  H     31.626900  -30.367200  -122.504000
  H     33.219300  -29.854200  -122.866000
  C     32.989600  -30.904800  -120.893000
  H     34.108000  -30.964000  -120.818000
  H     32.555000  -31.703300  -120.371000
  H     32.792900  -29.965200  -120.410000
  H     38.388100  -31.327600  -124.263000
  H     30.574600  -30.682100  -127.277000

 Total Charge           Charge          ....    0
 Multiplicity           Mult            ....    1
 Number of Electrons    NEL             ....  134
 Basis Dimension        Dim             ....  322

ORBITAL ENERGIES
----------------

  NO   OCC          E(Eh)            E(eV)
   0   2.0000     -88.973414     -2421.0897
   1   2.0000     -88.968061     -2420.9440
   2   2.0000     -10.324871      -280.9540
   3   2.0000     -10.322888      -280.9001
   4   2.0000     -10.320508      -280.8353
   5   2.0000     -10.312709      -280.6231
   6   2.0000     -10.311022      -280.5772
   7   2.0000     -10.306059      -280.4421
   8   2.0000     -10.299395      -280.2608
   9   2.0000     -10.299158      -280.2543
  10   2.0000     -10.298152      -280.2270
  11   2.0000     -10.290140      -280.0089
  12   2.0000     -10.289718      -279.9975
  13   2.0000     -10.289342      -279.9872
  14   2.0000     -10.275264      -279.6041
  15   2.0000     -10.268188      -279.4116
  16   2.0000      -8.088238      -220.0921
  17   2.0000      -8.081862      -219.9186
  18   2.0000      -6.046530      -164.5344
  19   2.0000      -6.042715      -164.4306
  20   2.0000      -6.040500      -164.3704
  21   2.0000      -6.039246      -164.3362
  22   2.0000      -6.036414      -164.2592
  23   2.0000      -6.032627      -164.1561
  24   2.0000      -1.008670       -27.4473
  25   2.0000      -0.981431       -26.7061
  26   2.0000      -0.910492       -24.7758
  27   2.0000      -0.899890       -24.4872
  28   2.0000      -0.867630       -23.6094
  29   2.0000      -0.851242       -23.1635
  30   2.0000      -0.845777       -23.0148
  31   2.0000      -0.810356       -22.0509
  32   2.0000      -0.782591       -21.2954
  33   2.0000      -0.768912       -20.9232
  34   2.0000      -0.708849       -19.2888
  35   2.0000      -0.700656       -19.0658
  36   2.0000      -0.692246       -18.8370
  37   2.0000      -0.654167       -17.8008
  38   2.0000      -0.634471       -17.2648
  39   2.0000      -0.617395       -16.8002
  40   2.0000      -0.591813       -16.1040
  41   2.0000      -0.570196       -15.5158
  42   2.0000      -0.554041       -15.0762
  43   2.0000      -0.550291       -14.9742
  44   2.0000      -0.538810       -14.6618
  45   2.0000      -0.523197       -14.2369
  46   2.0000      -0.515181       -14.0188
  47   2.0000      -0.512479       -13.9453
  48   2.0000      -0.501999       -13.6601
  49   2.0000      -0.494413       -13.4537
  50   2.0000      -0.486779       -13.2459
  51   2.0000      -0.470704       -12.8085
  52   2.0000      -0.467662       -12.7257
  53   2.0000      -0.462273       -12.5791
  54   2.0000      -0.457455       -12.4480
  55   2.0000      -0.450065       -12.2469
  56   2.0000      -0.443230       -12.0609
  57   2.0000      -0.439355       -11.9555
  58   2.0000      -0.437456       -11.9038
  59   2.0000      -0.428928       -11.6717
  60   2.0000      -0.425216       -11.5707
  61   2.0000      -0.413630       -11.2555
  62   2.0000      -0.408310       -11.1107
  63   2.0000      -0.337263        -9.1774
  64   2.0000      -0.335801        -9.1376
  65   2.0000      -0.327609        -8.9147
  66   2.0000      -0.292830        -7.9683
  67   0.0000       0.033706         0.9172
  68   0.0000       0.063628         1.7314
  69   0.0000       0.108713         2.9582
  70   0.0000       0.111997         3.0476
  71   0.0000       0.118762         3.2317

MULLIKEN ATOMIC CHARGES
-----------------------
   0 S :    0.110046
   1 C :   -0.081581
   2 C :   -0.125404
   3 C :    0.052420
   4 C :   -0.147854
   5 H :    0.000697
   6 C :   -0.001968
   7 H :    0.039098
   8 H :    0.034870
   9 C :   -0.009029
  10 H :    0.026847
  11 H :    0.040966
  12 C :   -0.050057
  13 H :    0.043147
  14 H :    0.006072
  15 H :    0.024161
  16 S :    0.149268
  17 C :   -0.115184
  18 C :   -0.089295
  19 C :    0.015422
  20 C :   -0.197309
  21 H :    0.056635
  22 C :    0.012081
  23 H :    0.035501
  24 H :    0.034941
  25 C :   -0.090295
  26 H :    0.016752
  27 H :    0.039133
  28 C :   -0.017317
  29 H :    0.032635
  30 H :    0.033201
  31 H :    0.028025
  32 H :    0.019544
  33 H :    0.073831
Sum of atomic charges:   -0.0000000

LOEWDIN ATOMIC CHARGES
----------------------
   0 S :    0.413181
   1 C :   -0.184280
   2 C :   -0.065031
   3 C :   -0.062280
   4 C :   -0.204377
   5 H :    0.027802
   6 C :   -0.040727
   7 H :    0.033438
   8 H :    0.038598
   9 C :   -0.025053
  10 H :    0.021208
  11 H :    0.027508
  12 C :   -0.067602
  13 H :    0.031185
  14 H :    0.019194
  15 H :    0.015383
  16 S :    0.444363
  17 C :   -0.221060
  18 C :   -0.085130
  19 C :   -0.049357
  20 C :   -0.209262
  21 H :    0.049097
  22 C :   -0.047245
  23 H :    0.029315
  24 H :    0.032565
  25 C :   -0.039117
  26 H :    0.013168
  27 H :    0.029811
  28 C :   -0.063060
  29 H :    0.032475
  30 H :    0.018222
  31 H :    0.027538
  32 H :    0.017237
  33 H :    0.042293

  Mayer bond orders larger than 0.100000
B(  0-S ,  1-C ) :   1.1204 B(  0-S ,  4-C ) :   1.1448 B(  1-C ,  2-C ) :   1.6191
B(  1-C , 32-H ) :   0.9708 B(  2-C ,  3-C ) :   1.2358 B(  2-C ,  6-C ) :   1.0123
B(  3-C ,  4-C ) :   1.5889 B(  3-C ,  5-H ) :   0.9966 B(  4-C , 20-C ) :   1.0239
B(  6-C ,  7-H ) :   0.9459 B(  6-C ,  8-H ) :   0.9438 B(  6-C ,  9-C ) :   1.0508
B(  9-C , 10-H ) :   0.9555 B(  9-C , 11-H ) :   0.9607 B(  9-C , 12-C ) :   1.0788
B( 12-C , 13-H ) :   0.9739 B( 12-C , 14-H ) :   0.9729 B( 12-C , 15-H ) :   0.9740
B( 16-S , 17-C ) :   1.1719 B( 16-S , 20-C ) :   1.1651 B( 17-C , 18-C ) :   1.6019
B( 17-C , 20-C ) :   0.1076 B( 17-C , 33-H ) :   0.9564 B( 18-C , 19-C ) :   1.2518
B( 18-C , 21-H ) :   0.9728 B( 19-C , 20-C ) :   1.5465 B( 19-C , 22-C ) :   1.0581
B( 22-C , 23-H ) :   0.9386 B( 22-C , 24-H ) :   0.9335 B( 22-C , 25-C ) :   1.0379
B( 25-C , 26-H ) :   0.9595 B( 25-C , 27-H ) :   0.9525 B( 25-C , 28-C ) :   1.0775
B( 28-C , 29-H ) :   0.9727 B( 28-C , 30-H ) :   0.9780 B( 28-C , 31-H ) :   0.9714

Dispersion correction           -0.014892132
FINAL SINGLE POINT ENERGY     -1339.868923914310

DIPOLE MOMENT
-------------
                                X             Y             Z
Electronic contribution:     -8.91047      11.03973     -15.72324
Nuclear contribution   :      8.93684     -11.28197      15.88407
                        -----------------------------------------
Total Dipole Moment    :      0.02637      -0.24224       0.16083
                        -----------------------------------------
Magnitude (a.u.)       :      0.29196
Magnitude (Debye)      :      0.74210

Rotational constants in cm-1:     0.019497     0.008754     0.006882
Rotational constants in MHz :   584.496821   262.437167   206.326789

                             ****ORCA TERMINATED NORMALLY****
TOTAL RUN TIME: 0 days 0 hours 0 minutes 20 seconds 482 msec
