                         Program Version 4.2.1 -  RELEASE  -
|  1> ! wB97X-D3 SP def2-SVP
|  2> %pal
|  3> nprocs 24
|  4> end
|  5>
|  6> * xyz 0 1
|  7> S 	 -61.1407 	 6.99131 	 -9.28639
|  8> C 	 -60.5356 	 5.2801 	 -9.42868
|  9> C 	 -60.634 	 4.81789 	 -10.7268
| 10> C 	 -61.1771 	 5.80975 	 -11.6163
| 11> C 	 -61.48 	 6.97706 	 -11.0043
| 12> H 	 -61.4718 	 5.62448 	 -12.611
| 13> C 	 -60.2963 	 3.45497 	 -11.174
| 14> H 	 -60.7136 	 3.15732 	 -12.154
| 15> H 	 -60.7417 	 2.74511 	 -10.437
| 16> C 	 -58.8487 	 3.32431 	 -11.5408
| 17> H 	 -58.7862 	 4.01092 	 -12.4289
| 18> H 	 -58.31 	 3.82397 	 -10.8181
| 19> C 	 -58.3507 	 1.87475 	 -11.8533
| 20> H 	 -57.3211 	 1.84312 	 -12.1416
| 21> H 	 -58.4948 	 1.29671 	 -10.9377
| 22> H 	 -58.9655 	 1.52366 	 -12.6207
| 23> S 	 -63.4973 	 8.79649 	 -11.1822
| 24> C 	 -63.3561 	 10.051 	 -12.3805
| 25> C 	 -62.064 	 10.1452 	 -12.9088
| 26> C 	 -61.2499 	 9.01148 	 -12.5935
| 27> C 	 -61.8993 	 8.20666 	 -11.6414
| 28> H 	 -61.7328 	 10.873 	 -13.6224
| 29> C 	 -59.8336 	 8.79073 	 -13.1565
| 30> H 	 -59.4553 	 8.04225 	 -12.4253
| 31> H 	 -59.1459 	 9.67391 	 -12.9591
| 32> C 	 -59.7064 	 8.29956 	 -14.5984
| 33> H 	 -58.7387 	 8.36614 	 -14.9985
| 34> H 	 -60.3232 	 8.94499 	 -15.3034
| 35> C 	 -60.1369 	 6.89471 	 -14.8012
| 36> H 	 -61.142 	 6.85909 	 -14.5234
| 37> H 	 -59.5809 	 6.31406 	 -14.0586
| 38> H 	 -59.8414 	 6.53472 	 -15.7957
| 39> H 	 -60.2558 	 4.69663 	 -8.59532
| 40> H 	 -64.0312 	 10.8239 	 -12.4552
| 41> *
| 42>
| 43>                          ****END OF INPUT****

CARTESIAN COORDINATES (ANGSTROEM)
---------------------------------
  S    -61.140700    6.991310   -9.286390
  C    -60.535600    5.280100   -9.428680
  C    -60.634000    4.817890  -10.726800
  C    -61.177100    5.809750  -11.616300
  C    -61.480000    6.977060  -11.004300
  H    -61.471800    5.624480  -12.611000
  C    -60.296300    3.454970  -11.174000
  H    -60.713600    3.157320  -12.154000
  H    -60.741700    2.745110  -10.437000
  C    -58.848700    3.324310  -11.540800
  H    -58.786200    4.010920  -12.428900
  H    -58.310000    3.823970  -10.818100
  C    -58.350700    1.874750  -11.853300
  H    -57.321100    1.843120  -12.141600
  H    -58.494800    1.296710  -10.937700
  H    -58.965500    1.523660  -12.620700
  S    -63.497300    8.796490  -11.182200
  C    -63.356100   10.051000  -12.380500
  C    -62.064000   10.145200  -12.908800
  C    -61.249900    9.011480  -12.593500
  C    -61.899300    8.206660  -11.641400
  H    -61.732800   10.873000  -13.622400
  C    -59.833600    8.790730  -13.156500
  H    -59.455300    8.042250  -12.425300
  H    -59.145900    9.673910  -12.959100
  C    -59.706400    8.299560  -14.598400
  H    -58.738700    8.366140  -14.998500
  H    -60.323200    8.944990  -15.303400
  C    -60.136900    6.894710  -14.801200
  H    -61.142000    6.859090  -14.523400
  H    -59.580900    6.314060  -14.058600
  H    -59.841400    6.534720  -15.795700
  H    -60.255800    4.696630   -8.595320
  H    -64.031200   10.823900  -12.455200

 Total Charge           Charge          ....    0
 Multiplicity           Mult            ....    1
 Number of Electrons    NEL             ....  134
 Basis Dimension        Dim             ....  322

ORBITAL ENERGIES
----------------

  NO   OCC          E(Eh)            E(eV)
   0   2.0000     -88.968460     -2420.9549
   1   2.0000     -88.965606     -2420.8772
   2   2.0000     -10.326677      -281.0032
   3   2.0000     -10.324181      -280.9352
   4   2.0000     -10.316052      -280.7140
   5   2.0000     -10.313773      -280.6520
   6   2.0000     -10.307758      -280.4884
   7   2.0000     -10.301391      -280.3151
   8   2.0000     -10.299427      -280.2617
   9   2.0000     -10.294730      -280.1338
  10   2.0000     -10.289488      -279.9912
  11   2.0000     -10.288134      -279.9544
  12   2.0000     -10.282610      -279.8040
  13   2.0000     -10.281350      -279.7697
  14   2.0000     -10.277274      -279.6588
  15   2.0000     -10.269040      -279.4348
  16   2.0000      -8.083164      -219.9541
  17   2.0000      -8.079507      -219.8546
  18   2.0000      -6.041529      -164.3984
  19   2.0000      -6.038136      -164.3060
  20   2.0000      -6.037705      -164.2943
  21   2.0000      -6.034270      -164.2008
  22   2.0000      -6.034057      -164.1950
  23   2.0000      -6.030060      -164.0863
  24   2.0000      -1.005241       -27.3540
  25   2.0000      -0.980399       -26.6780
  26   2.0000      -0.920849       -25.0576
  27   2.0000      -0.914103       -24.8740
  28   2.0000      -0.868065       -23.6212
  29   2.0000      -0.855965       -23.2920
  30   2.0000      -0.845666       -23.0117
  31   2.0000      -0.815309       -22.1857
  32   2.0000      -0.785712       -21.3803
  33   2.0000      -0.773451       -21.0467
  34   2.0000      -0.706362       -19.2211
  35   2.0000      -0.702785       -19.1238
  36   2.0000      -0.696471       -18.9519
  37   2.0000      -0.660406       -17.9706
  38   2.0000      -0.647839       -17.6286
  39   2.0000      -0.619891       -16.8681
  40   2.0000      -0.596214       -16.2238
  41   2.0000      -0.581810       -15.8319
  42   2.0000      -0.568981       -15.4828
  43   2.0000      -0.553235       -15.0543
  44   2.0000      -0.541153       -14.7255
  45   2.0000      -0.522959       -14.2304
  46   2.0000      -0.520937       -14.1754
  47   2.0000      -0.513403       -13.9704
  48   2.0000      -0.508594       -13.8395
  49   2.0000      -0.498968       -13.5776
  50   2.0000      -0.496087       -13.4992
  51   2.0000      -0.479240       -13.0408
  52   2.0000      -0.468474       -12.7478
  53   2.0000      -0.465341       -12.6626
  54   2.0000      -0.455883       -12.4052
  55   2.0000      -0.451786       -12.2937
  56   2.0000      -0.449390       -12.2285
  57   2.0000      -0.437148       -11.8954
  58   2.0000      -0.434798       -11.8314
  59   2.0000      -0.426651       -11.6098
  60   2.0000      -0.421742       -11.4762
  61   2.0000      -0.410342       -11.1660
  62   2.0000      -0.408733       -11.1222
  63   2.0000      -0.338301        -9.2056
  64   2.0000      -0.333305        -9.0697
  65   2.0000      -0.329552        -8.9676
  66   2.0000      -0.299728        -8.1560
  67   0.0000       0.033944         0.9237
  68   0.0000       0.059206         1.6111
  69   0.0000       0.102320         2.7843
  70   0.0000       0.115367         3.1393
  71   0.0000       0.126032         3.4295

MULLIKEN ATOMIC CHARGES
-----------------------
   0 S :    0.099184
   1 C :   -0.111062
   2 C :   -0.082252
   3 C :    0.047454
   4 C :   -0.139918
   5 H :   -0.003771
   6 C :    0.039982
   7 H :    0.014252
   8 H :    0.036916
   9 C :   -0.085053
  10 H :    0.024446
  11 H :    0.002952
  12 C :    0.019472
  13 H :    0.038176
  14 H :    0.032543
  15 H :    0.017282
  16 S :    0.117364
  17 C :   -0.051334
  18 C :   -0.026473
  19 C :   -0.031113
  20 C :   -0.197156
  21 H :    0.015148
  22 C :    0.025148
  23 H :    0.035412
  24 H :    0.048209
  25 C :   -0.050568
  26 H :    0.013955
  27 H :    0.025589
  28 C :   -0.030742
  29 H :    0.034731
  30 H :    0.019499
  31 H :    0.038901
  32 H :    0.031426
  33 H :    0.031398
Sum of atomic charges:   -0.0000000

LOEWDIN ATOMIC CHARGES
----------------------
   0 S :    0.373536
   1 C :   -0.167670
   2 C :   -0.053721
   3 C :   -0.056598
   4 C :   -0.193034
   5 H :    0.026751
   6 C :   -0.042474
   7 H :    0.031411
   8 H :    0.032401
   9 C :   -0.035854
  10 H :    0.027790
  11 H :    0.005310
  12 C :   -0.050071
  13 H :    0.026675
  14 H :    0.029165
  15 H :    0.017580
  16 S :    0.411664
  17 C :   -0.175953
  18 C :   -0.060986
  19 C :   -0.052950
  20 C :   -0.200712
  21 H :    0.028510
  22 C :   -0.038402
  23 H :    0.036206
  24 H :    0.042058
  25 C :   -0.042345
  26 H :    0.016807
  27 H :    0.026250
  28 C :   -0.057488
  29 H :    0.015771
  30 H :    0.022052
  31 H :    0.030121
  32 H :    0.018241
  33 H :    0.009958

  Mayer bond orders larger than 0.100000
B(  0-S ,  1-C ) :   1.1097 B(  0-S ,  4-C ) :   1.1403 B(  1-C ,  2-C ) :   1.6365
B(  1-C , 32-H ) :   0.9749 B(  2-C ,  3-C ) :   1.2041 B(  2-C ,  6-C ) :   1.0374
B(  3-C ,  4-C ) :   1.6176 B(  3-C ,  5-H ) :   1.0006 B(  4-C , 20-C ) :   1.0022
B(  6-C ,  7-H ) :   0.9431 B(  6-C ,  8-H ) :   0.9409 B(  6-C ,  9-C ) :   1.0355
B(  9-C , 10-H ) :   0.9536 B(  9-C , 11-H ) :   0.9614 B(  9-C , 12-C ) :   1.0684
B( 12-C , 13-H ) :   0.9747 B( 12-C , 14-H ) :   0.9761 B( 12-C , 15-H ) :   0.9726
B( 16-S , 17-C ) :   1.1562 B( 16-S , 20-C ) :   1.1586 B( 17-C , 18-C ) :   1.6005
B( 17-C , 20-C ) :   0.1077 B( 17-C , 33-H ) :   0.9737 B( 18-C , 19-C ) :   1.2508
B( 18-C , 21-H ) :   0.9854 B( 19-C , 20-C ) :   1.5859 B( 19-C , 22-C ) :   1.0290
B( 22-C , 23-H ) :   0.9359 B( 22-C , 24-H ) :   0.9422 B( 22-C , 25-C ) :   1.0609
B( 25-C , 26-H ) :   0.9532 B( 25-C , 27-H ) :   0.9542 B( 25-C , 28-C ) :   1.0876
B( 28-C , 29-H ) :   0.9720 B( 28-C , 30-H ) :   0.9680 B( 28-C , 31-H ) :   0.9671

Dispersion correction           -0.015442086
FINAL SINGLE POINT ENERGY     -1339.864274527152

DIPOLE MOMENT
-------------
                                X             Y             Z
Electronic contribution:    -18.28929      17.72261      17.32634
Nuclear contribution   :     18.67622     -17.96292     -17.77746
                        -----------------------------------------
Total Dipole Moment    :      0.38693      -0.24031      -0.45112
                        -----------------------------------------
Magnitude (a.u.)       :      0.64107
Magnitude (Debye)      :      1.62947

Rotational constants in cm-1:     0.020468     0.009016     0.006892
Rotational constants in MHz :   613.615211   270.295547   206.612533

                             ****ORCA TERMINATED NORMALLY****
TOTAL RUN TIME: 0 days 0 hours 0 minutes 22 seconds 788 msec
