                         Program Version 4.2.1 -  RELEASE  -
|  1> ! wB97X-D3 SP def2-SVP
|  2> %pal
|  3> nprocs 24
|  4> end
|  5>
|  6> * xyz 0 1
|  7> S 	 -108.671 	 50.2544 	 -113.058
|  8> C 	 -108.879 	 48.7525 	 -113.97
|  9> C 	 -110.237 	 48.6495 	 -114.295
| 10> C 	 -110.967 	 49.837 	 -113.964
| 11> C 	 -110.301 	 50.8522 	 -113.33
| 12> H 	 -112.066 	 50.0163 	 -114.033
| 13> C 	 -110.841 	 47.4551 	 -114.962
| 14> H 	 -111.786 	 47.7393 	 -115.315
| 15> H 	 -111.092 	 46.7026 	 -114.159
| 16> C 	 -109.999 	 46.6326 	 -116.008
| 17> H 	 -109.157 	 46.0818 	 -115.533
| 18> H 	 -110.63 	 45.8082 	 -116.357
| 19> C 	 -109.516 	 47.6524 	 -117.143
| 20> H 	 -108.901 	 48.5087 	 -116.901
| 21> H 	 -108.911 	 47.1057 	 -117.892
| 22> H 	 -110.341 	 47.96 	 -117.697
| 23> S 	 -111.489 	 53.1439 	 -113.954
| 24> C 	 -111.735 	 54.2888 	 -112.675
| 25> C 	 -111.522 	 53.7302 	 -111.447
| 26> C 	 -111.097 	 52.3581 	 -111.447
| 27> C 	 -110.88 	 51.9892 	 -112.749
| 28> H 	 -111.823 	 54.212 	 -110.531
| 29> C 	 -110.805 	 51.4967 	 -110.233
| 30> H 	 -110.529 	 52.1888 	 -109.428
| 31> H 	 -109.919 	 51.0179 	 -110.497
| 32> C 	 -111.9 	 50.3865 	 -109.884
| 33> H 	 -111.484 	 49.7305 	 -109.141
| 34> H 	 -111.933 	 49.7748 	 -110.753
| 35> C 	 -113.265 	 50.8907 	 -109.493
| 36> H 	 -113.887 	 51.0818 	 -110.418
| 37> H 	 -113.198 	 51.6919 	 -108.751
| 38> H 	 -113.728 	 50.0886 	 -108.945
| 39> H 	 -107.997 	 48.1247 	 -114.193
| 40> H 	 -112.037 	 55.3202 	 -112.751
| 41> *
| 42>
| 43>                          ****END OF INPUT****

CARTESIAN COORDINATES (ANGSTROEM)
---------------------------------
  S    -108.671000   50.254400  -113.058000
  C    -108.879000   48.752500  -113.970000
  C    -110.237000   48.649500  -114.295000
  C    -110.967000   49.837000  -113.964000
  C    -110.301000   50.852200  -113.330000
  H    -112.066000   50.016300  -114.033000
  C    -110.841000   47.455100  -114.962000
  H    -111.786000   47.739300  -115.315000
  H    -111.092000   46.702600  -114.159000
  C    -109.999000   46.632600  -116.008000
  H    -109.157000   46.081800  -115.533000
  H    -110.630000   45.808200  -116.357000
  C    -109.516000   47.652400  -117.143000
  H    -108.901000   48.508700  -116.901000
  H    -108.911000   47.105700  -117.892000
  H    -110.341000   47.960000  -117.697000
  S    -111.489000   53.143900  -113.954000
  C    -111.735000   54.288800  -112.675000
  C    -111.522000   53.730200  -111.447000
  C    -111.097000   52.358100  -111.447000
  C    -110.880000   51.989200  -112.749000
  H    -111.823000   54.212000  -110.531000
  C    -110.805000   51.496700  -110.233000
  H    -110.529000   52.188800  -109.428000
  H    -109.919000   51.017900  -110.497000
  C    -111.900000   50.386500  -109.884000
  H    -111.484000   49.730500  -109.141000
  H    -111.933000   49.774800  -110.753000
  C    -113.265000   50.890700  -109.493000
  H    -113.887000   51.081800  -110.418000
  H    -113.198000   51.691900  -108.751000
  H    -113.728000   50.088600  -108.945000
  H    -107.997000   48.124700  -114.193000
  H    -112.037000   55.320200  -112.751000

 Total Charge           Charge          ....    0
 Multiplicity           Mult            ....    1
 Number of Electrons    NEL             ....  134
 Basis Dimension        Dim             ....  322

ORBITAL ENERGIES
----------------

  NO   OCC          E(Eh)            E(eV)
   0   2.0000     -88.964957     -2420.8596
   1   2.0000     -88.960372     -2420.7348
   2   2.0000     -10.321802      -280.8705
   3   2.0000     -10.320416      -280.8328
   4   2.0000     -10.319167      -280.7988
   5   2.0000     -10.312654      -280.6216
   6   2.0000     -10.305678      -280.4318
   7   2.0000     -10.301637      -280.3218
   8   2.0000     -10.300535      -280.2918
   9   2.0000     -10.293860      -280.1102
  10   2.0000     -10.291274      -280.0398
  11   2.0000     -10.288710      -279.9700
  12   2.0000     -10.288494      -279.9642
  13   2.0000     -10.283235      -279.8210
  14   2.0000     -10.278295      -279.6866
  15   2.0000     -10.275100      -279.5997
  16   2.0000      -8.079769      -219.8617
  17   2.0000      -8.074598      -219.7210
  18   2.0000      -6.038299      -164.3105
  19   2.0000      -6.034434      -164.2053
  20   2.0000      -6.033157      -164.1706
  21   2.0000      -6.030323      -164.0934
  22   2.0000      -6.028991      -164.0572
  23   2.0000      -6.025501      -163.9622
  24   2.0000      -1.009089       -27.4587
  25   2.0000      -0.982317       -26.7302
  26   2.0000      -0.906894       -24.6778
  27   2.0000      -0.904035       -24.6001
  28   2.0000      -0.870462       -23.6865
  29   2.0000      -0.853844       -23.2343
  30   2.0000      -0.838951       -22.8290
  31   2.0000      -0.810098       -22.0439
  32   2.0000      -0.785451       -21.3732
  33   2.0000      -0.773769       -21.0553
  34   2.0000      -0.712053       -19.3759
  35   2.0000      -0.709579       -19.3086
  36   2.0000      -0.692796       -18.8519
  37   2.0000      -0.664279       -18.0759
  38   2.0000      -0.641018       -17.4430
  39   2.0000      -0.602142       -16.3851
  40   2.0000      -0.588469       -16.0131
  41   2.0000      -0.569971       -15.5097
  42   2.0000      -0.553511       -15.0618
  43   2.0000      -0.545560       -14.8454
  44   2.0000      -0.544527       -14.8173
  45   2.0000      -0.533827       -14.5262
  46   2.0000      -0.521279       -14.1847
  47   2.0000      -0.518699       -14.1145
  48   2.0000      -0.496911       -13.5216
  49   2.0000      -0.493138       -13.4190
  50   2.0000      -0.484657       -13.1882
  51   2.0000      -0.480611       -13.0781
  52   2.0000      -0.472683       -12.8624
  53   2.0000      -0.471284       -12.8243
  54   2.0000      -0.454271       -12.3614
  55   2.0000      -0.446356       -12.1460
  56   2.0000      -0.441687       -12.0189
  57   2.0000      -0.435273       -11.8444
  58   2.0000      -0.434042       -11.8109
  59   2.0000      -0.427528       -11.6336
  60   2.0000      -0.419679       -11.4200
  61   2.0000      -0.415778       -11.3139
  62   2.0000      -0.407907       -11.0997
  63   2.0000      -0.341152        -9.2832
  64   2.0000      -0.331341        -9.0163
  65   2.0000      -0.321535        -8.7494
  66   2.0000      -0.293536        -7.9875
  67   0.0000       0.035546         0.9672
  68   0.0000       0.057651         1.5688
  69   0.0000       0.103233         2.8091
  70   0.0000       0.122525         3.3341
  71   0.0000       0.132525         3.6062

MULLIKEN ATOMIC CHARGES
-----------------------
   0 S :    0.088839
   1 C :   -0.155349
   2 C :   -0.071489
   3 C :    0.006496
   4 C :   -0.137681
   5 H :    0.025926
   6 C :    0.075232
   7 H :    0.003732
   8 H :    0.044069
   9 C :   -0.078007
  10 H :    0.034465
  11 H :    0.035859
  12 C :   -0.047640
  13 H :    0.050965
  14 H :    0.023900
  15 H :    0.020052
  16 S :    0.117464
  17 C :   -0.066799
  18 C :   -0.041945
  19 C :   -0.039924
  20 C :   -0.223230
  21 H :    0.009558
  22 C :    0.113649
  23 H :    0.020286
  24 H :   -0.000710
  25 C :   -0.051253
  26 H :    0.024183
  27 H :    0.020642
  28 C :   -0.037817
  29 H :    0.056791
  30 H :    0.030395
  31 H :    0.024392
  32 H :    0.074256
  33 H :    0.050690
Sum of atomic charges:   -0.0000000

LOEWDIN ATOMIC CHARGES
----------------------
   0 S :    0.394123
   1 C :   -0.194424
   2 C :   -0.065581
   3 C :   -0.075369
   4 C :   -0.204043
   5 H :    0.035630
   6 C :   -0.036513
   7 H :    0.019564
   8 H :    0.042338
   9 C :   -0.035461
  10 H :    0.024146
  11 H :    0.029937
  12 C :   -0.067274
  13 H :    0.029006
  14 H :    0.026443
  15 H :    0.017705
  16 S :    0.405622
  17 C :   -0.189237
  18 C :   -0.070515
  19 C :   -0.049484
  20 C :   -0.190000
  21 H :    0.027013
  22 C :   -0.025078
  23 H :    0.029724
  24 H :    0.018261
  25 C :   -0.031280
  26 H :    0.022560
  27 H :    0.023090
  28 C :   -0.070078
  29 H :    0.038664
  30 H :    0.025818
  31 H :    0.026641
  32 H :    0.037628
  33 H :    0.030425

  Mayer bond orders larger than 0.100000
B(  0-S ,  1-C ) :   1.1456 B(  0-S ,  4-C ) :   1.1354 B(  1-C ,  2-C ) :   1.5535
B(  1-C ,  4-C ) :   0.1013 B(  1-C , 32-H ) :   0.9730 B(  2-C ,  3-C ) :   1.2542
B(  2-C ,  6-C ) :   1.0315 B(  3-C ,  4-C ) :   1.5757 B(  3-C ,  5-H ) :   0.9817
B(  4-C , 20-C ) :   1.0465 B(  6-C ,  7-H ) :   0.9418 B(  6-C ,  8-H ) :   0.9256
B(  6-C ,  9-C ) :   1.0741 B(  9-C , 10-H ) :   0.9555 B(  9-C , 11-H ) :   0.9562
B(  9-C , 12-C ) :   1.0599 B( 12-C , 13-H ) :   0.9785 B( 12-C , 14-H ) :   0.9760
B( 12-C , 15-H ) :   0.9779 B( 16-S , 17-C ) :   1.1312 B( 16-S , 20-C ) :   1.1352
B( 17-C , 18-C ) :   1.6413 B( 17-C , 33-H ) :   0.9661 B( 18-C , 19-C ) :   1.2180
B( 18-C , 21-H ) :   0.9819 B( 19-C , 20-C ) :   1.6085 B( 19-C , 22-C ) :   1.0306
B( 22-C , 23-H ) :   0.9363 B( 22-C , 24-H ) :   0.9183 B( 22-C , 25-C ) :   1.0658
B( 25-C , 26-H ) :   0.9587 B( 25-C , 27-H ) :   0.9540 B( 25-C , 28-C ) :   1.0785
B( 28-C , 29-H ) :   0.9735 B( 28-C , 30-H ) :   0.9754 B( 28-C , 31-H ) :   0.9707

Dispersion correction           -0.015161423
FINAL SINGLE POINT ENERGY     -1339.862589020989

DIPOLE MOMENT
-------------
                                X             Y             Z
Electronic contribution:      6.58921      16.91969      -2.29248
Nuclear contribution   :     -6.91244     -17.39244       2.50051
                        -----------------------------------------
Total Dipole Moment    :     -0.32323      -0.47275       0.20803
                        -----------------------------------------
Magnitude (a.u.)       :      0.60930
Magnitude (Debye)      :      1.54872

Rotational constants in cm-1:     0.022044     0.008034     0.007072
Rotational constants in MHz :   660.859413   240.858849   212.008164

                             ****ORCA TERMINATED NORMALLY****
TOTAL RUN TIME: 0 days 0 hours 0 minutes 21 seconds 765 msec
