                         Program Version 4.2.1 -  RELEASE  -
|  1> ! wB97X-D3 SP def2-SVP
|  2> %pal
|  3> nprocs 24
|  4> end
|  5>
|  6> * xyz 0 1
|  7> S 	 -98.7989 	 -26.9953 	 -66.1434
|  8> C 	 -99.5458 	 -25.7576 	 -65.2052
|  9> C 	 -98.5985 	 -25.0694 	 -64.4255
| 10> C 	 -97.2864 	 -25.6664 	 -64.5066
| 11> C 	 -97.2375 	 -26.697 	 -65.4524
| 12> H 	 -96.4322 	 -25.3632 	 -63.9917
| 13> C 	 -98.8905 	 -23.9716 	 -63.4528
| 14> H 	 -98.5462 	 -24.4142 	 -62.4294
| 15> H 	 -99.9483 	 -23.8667 	 -63.3042
| 16> C 	 -98.3317 	 -22.5386 	 -63.7743
| 17> H 	 -98.8682 	 -22.1502 	 -64.5306
| 18> H 	 -98.6301 	 -21.907 	 -62.9783
| 19> C 	 -96.8058 	 -22.4003 	 -64.0958
| 20> H 	 -96.3549 	 -21.4679 	 -64.3509
| 21> H 	 -96.1485 	 -22.8841 	 -63.3133
| 22> H 	 -96.6733 	 -23.0875 	 -64.9153
| 23> S 	 -96.5189 	 -29.1208 	 -66.5216
| 24> C 	 -94.8874 	 -29.6199 	 -66.4921
| 25> C 	 -94.0773 	 -28.6426 	 -65.9367
| 26> C 	 -94.7132 	 -27.4727 	 -65.5294
| 27> C 	 -96.1299 	 -27.5753 	 -65.8231
| 28> H 	 -92.9957 	 -28.8055 	 -65.6013
| 29> C 	 -94.0086 	 -26.3751 	 -64.8066
| 30> H 	 -94.2439 	 -25.4047 	 -65.1582
| 31> H 	 -93.0635 	 -26.4098 	 -65.3835
| 32> C 	 -93.8761 	 -26.567 	 -63.278
| 33> H 	 -93.0265 	 -27.2572 	 -63.0468
| 34> H 	 -94.7639 	 -26.9741 	 -62.868
| 35> C 	 -93.5191 	 -25.2609 	 -62.4841
| 36> H 	 -93.3057 	 -25.519 	 -61.3996
| 37> H 	 -94.2473 	 -24.4201 	 -62.6524
| 38> H 	 -92.5619 	 -24.8752 	 -62.873
| 39> H 	 -100.6 	 -25.5923 	 -65.1348
| 40> H 	 -94.6194 	 -30.6063 	 -66.8175
| 41> *
| 42>
| 43>                          ****END OF INPUT****

CARTESIAN COORDINATES (ANGSTROEM)
---------------------------------
  S    -98.798900  -26.995300  -66.143400
  C    -99.545800  -25.757600  -65.205200
  C    -98.598500  -25.069400  -64.425500
  C    -97.286400  -25.666400  -64.506600
  C    -97.237500  -26.697000  -65.452400
  H    -96.432200  -25.363200  -63.991700
  C    -98.890500  -23.971600  -63.452800
  H    -98.546200  -24.414200  -62.429400
  H    -99.948300  -23.866700  -63.304200
  C    -98.331700  -22.538600  -63.774300
  H    -98.868200  -22.150200  -64.530600
  H    -98.630100  -21.907000  -62.978300
  C    -96.805800  -22.400300  -64.095800
  H    -96.354900  -21.467900  -64.350900
  H    -96.148500  -22.884100  -63.313300
  H    -96.673300  -23.087500  -64.915300
  S    -96.518900  -29.120800  -66.521600
  C    -94.887400  -29.619900  -66.492100
  C    -94.077300  -28.642600  -65.936700
  C    -94.713200  -27.472700  -65.529400
  C    -96.129900  -27.575300  -65.823100
  H    -92.995700  -28.805500  -65.601300
  C    -94.008600  -26.375100  -64.806600
  H    -94.243900  -25.404700  -65.158200
  H    -93.063500  -26.409800  -65.383500
  C    -93.876100  -26.567000  -63.278000
  H    -93.026500  -27.257200  -63.046800
  H    -94.763900  -26.974100  -62.868000
  C    -93.519100  -25.260900  -62.484100
  H    -93.305700  -25.519000  -61.399600
  H    -94.247300  -24.420100  -62.652400
  H    -92.561900  -24.875200  -62.873000
  H    -100.600000  -25.592300  -65.134800
  H    -94.619400  -30.606300  -66.817500

 Total Charge           Charge          ....    0
 Multiplicity           Mult            ....    1
 Number of Electrons    NEL             ....  134
 Basis Dimension        Dim             ....  322

ORBITAL ENERGIES
----------------

  NO   OCC          E(Eh)            E(eV)
   0   2.0000     -88.970361     -2421.0066
   1   2.0000     -88.965467     -2420.8734
   2   2.0000     -10.330285      -281.1013
   3   2.0000     -10.330140      -281.0974
   4   2.0000     -10.314997      -280.6853
   5   2.0000     -10.310854      -280.5726
   6   2.0000     -10.304238      -280.3926
   7   2.0000     -10.302581      -280.3475
   8   2.0000     -10.299364      -280.2599
   9   2.0000     -10.296613      -280.1851
  10   2.0000     -10.295600      -280.1575
  11   2.0000     -10.293440      -280.0987
  12   2.0000     -10.293005      -280.0869
  13   2.0000     -10.290369      -280.0152
  14   2.0000     -10.282021      -279.7880
  15   2.0000     -10.279776      -279.7269
  16   2.0000      -8.085760      -220.0247
  17   2.0000      -8.080855      -219.8913
  18   2.0000      -6.044061      -164.4673
  19   2.0000      -6.040048      -164.3581
  20   2.0000      -6.039357      -164.3393
  21   2.0000      -6.036859      -164.2713
  22   2.0000      -6.035219      -164.2266
  23   2.0000      -6.031677      -164.1303
  24   2.0000      -1.009892       -27.4805
  25   2.0000      -0.986227       -26.8366
  26   2.0000      -0.913448       -24.8562
  27   2.0000      -0.907472       -24.6936
  28   2.0000      -0.866302       -23.5733
  29   2.0000      -0.855711       -23.2851
  30   2.0000      -0.844792       -22.9880
  31   2.0000      -0.813077       -22.1250
  32   2.0000      -0.786036       -21.3891
  33   2.0000      -0.770799       -20.9745
  34   2.0000      -0.713918       -19.4267
  35   2.0000      -0.708639       -19.2830
  36   2.0000      -0.696179       -18.9440
  37   2.0000      -0.662193       -18.0192
  38   2.0000      -0.638319       -17.3695
  39   2.0000      -0.621610       -16.9149
  40   2.0000      -0.602791       -16.4028
  41   2.0000      -0.561559       -15.2808
  42   2.0000      -0.560306       -15.2467
  43   2.0000      -0.543740       -14.7959
  44   2.0000      -0.538378       -14.6500
  45   2.0000      -0.533455       -14.5160
  46   2.0000      -0.516735       -14.0611
  47   2.0000      -0.510740       -13.8979
  48   2.0000      -0.506268       -13.7763
  49   2.0000      -0.495882       -13.4936
  50   2.0000      -0.495382       -13.4800
  51   2.0000      -0.482479       -13.1289
  52   2.0000      -0.472151       -12.8479
  53   2.0000      -0.466580       -12.6963
  54   2.0000      -0.456960       -12.4345
  55   2.0000      -0.449544       -12.2327
  56   2.0000      -0.448052       -12.1921
  57   2.0000      -0.440434       -11.9848
  58   2.0000      -0.436106       -11.8671
  59   2.0000      -0.433830       -11.8051
  60   2.0000      -0.424800       -11.5594
  61   2.0000      -0.413614       -11.2550
  62   2.0000      -0.406801       -11.0696
  63   2.0000      -0.358352        -9.7512
  64   2.0000      -0.338614        -9.2142
  65   2.0000      -0.326442        -8.8829
  66   2.0000      -0.275522        -7.4973
  67   0.0000       0.017233         0.4689
  68   0.0000       0.088145         2.3986
  69   0.0000       0.100845         2.7441
  70   0.0000       0.113042         3.0760
  71   0.0000       0.127349         3.4653

MULLIKEN ATOMIC CHARGES
-----------------------
   0 S :    0.099353
   1 C :   -0.105320
   2 C :   -0.087328
   3 C :    0.036089
   4 C :   -0.116099
   5 H :   -0.041445
   6 C :    0.018621
   7 H :    0.048833
   8 H :    0.011396
   9 C :    0.011484
  10 H :    0.001326
  11 H :    0.016325
  12 C :   -0.075196
  13 H :    0.039491
  14 H :    0.030540
  15 H :    0.034111
  16 S :    0.114203
  17 C :   -0.090128
  18 C :   -0.044126
  19 C :   -0.075884
  20 C :   -0.127705
  21 H :    0.039585
  22 C :    0.060190
  23 H :    0.012623
  24 H :    0.019486
  25 C :   -0.041090
  26 H :    0.039242
  27 H :    0.039909
  28 C :   -0.093276
  29 H :    0.053656
  30 H :    0.047761
  31 H :    0.026751
  32 H :    0.041390
  33 H :    0.055235
Sum of atomic charges:   -0.0000000

LOEWDIN ATOMIC CHARGES
----------------------
   0 S :    0.416711
   1 C :   -0.210374
   2 C :   -0.061153
   3 C :   -0.062396
   4 C :   -0.187598
   5 H :    0.017193
   6 C :   -0.034665
   7 H :    0.043686
   8 H :    0.027064
   9 C :   -0.022940
  10 H :    0.011483
  11 H :    0.020784
  12 C :   -0.071099
  13 H :    0.024249
  14 H :    0.025915
  15 H :    0.024869
  16 S :    0.439043
  17 C :   -0.202493
  18 C :   -0.081996
  19 C :   -0.057861
  20 C :   -0.203465
  21 H :    0.043186
  22 C :   -0.046938
  23 H :    0.026687
  24 H :    0.042607
  25 C :   -0.034984
  26 H :    0.033695
  27 H :    0.020319
  28 C :   -0.075639
  29 H :    0.036382
  30 H :    0.025143
  31 H :    0.023898
  32 H :    0.024678
  33 H :    0.026008

  Mayer bond orders larger than 0.100000
B(  0-S ,  1-C ) :   1.1400 B(  0-S ,  4-C ) :   1.1612 B(  1-C ,  2-C ) :   1.5915
B(  1-C , 32-H ) :   0.9710 B(  2-C ,  3-C ) :   1.2428 B(  2-C ,  6-C ) :   1.0293
B(  3-C ,  4-C ) :   1.5405 B(  3-C ,  5-H ) :   0.9969 B(  4-C , 20-C ) :   1.0833
B(  6-C ,  7-H ) :   0.9438 B(  6-C ,  8-H ) :   0.9387 B(  6-C ,  9-C ) :   1.0658
B(  9-C , 10-H ) :   0.9507 B(  9-C , 11-H ) :   0.9530 B(  9-C , 12-C ) :   1.0694
B( 12-C , 13-H ) :   0.9738 B( 12-C , 14-H ) :   0.9737 B( 12-C , 15-H ) :   0.9691
B( 16-S , 17-C ) :   1.1823 B( 16-S , 20-C ) :   1.1792 B( 17-C , 18-C ) :   1.5264
B( 17-C , 20-C ) :   0.1110 B( 17-C , 33-H ) :   0.9754 B( 18-C , 19-C ) :   1.3449
B( 18-C , 21-H ) :   0.9719 B( 19-C , 20-C ) :   1.4886 B( 19-C , 22-C ) :   1.0400
B( 22-C , 23-H ) :   0.9360 B( 22-C , 24-H ) :   0.9179 B( 22-C , 25-C ) :   1.0287
B( 25-C , 26-H ) :   0.9529 B( 25-C , 27-H ) :   0.9660 B( 25-C , 28-C ) :   1.0756
B( 28-C , 29-H ) :   0.9730 B( 28-C , 30-H ) :   0.9753 B( 28-C , 31-H ) :   0.9718

Dispersion correction           -0.015369334
FINAL SINGLE POINT ENERGY     -1339.864742288230

DIPOLE MOMENT
-------------
                                X             Y             Z
Electronic contribution:    -12.64878     -23.18928     -18.28413
Nuclear contribution   :     12.98451      23.46941      18.75200
                        -----------------------------------------
Total Dipole Moment    :      0.33573       0.28013       0.46787
                        -----------------------------------------
Magnitude (a.u.)       :      0.64038
Magnitude (Debye)      :      1.62773

Rotational constants in cm-1:     0.017290     0.010784     0.007033
Rotational constants in MHz :   518.353691   323.287124   210.843508

                             ****ORCA TERMINATED NORMALLY****
TOTAL RUN TIME: 0 days 0 hours 0 minutes 21 seconds 536 msec
