                         Program Version 4.2.1 -  RELEASE  -
|  1> ! wB97X-D3 SP def2-SVP
|  2> %pal
|  3> nprocs 24
|  4> end
|  5>
|  6> * xyz 0 1
|  7> S 	 -129.246 	 61.0664 	 -59.9184
|  8> C 	 -129.614 	 62.1228 	 -61.2489
|  9> C 	 -129.803 	 63.4463 	 -60.8812
| 10> C 	 -129.7 	 63.6039 	 -59.4824
| 11> C 	 -129.345 	 62.4498 	 -58.7709
| 12> H 	 -129.64 	 64.5932 	 -59.0319
| 13> C 	 -129.975 	 64.6568 	 -61.7726
| 14> H 	 -130.888 	 65.1654 	 -61.4229
| 15> H 	 -130.315 	 64.3403 	 -62.7478
| 16> C 	 -128.747 	 65.5852 	 -62.002
| 17> H 	 -129.096 	 66.4438 	 -62.6012
| 18> H 	 -128.335 	 65.8995 	 -61.0391
| 19> C 	 -127.551 	 64.9637 	 -62.7698
| 20> H 	 -126.723 	 65.6921 	 -62.8728
| 21> H 	 -127.11 	 64.1986 	 -62.1261
| 22> H 	 -127.808 	 64.5312 	 -63.6838
| 23> S 	 -127.448 	 61.6222 	 -56.957
| 24> C 	 -127.75 	 61.9246 	 -55.2797
| 25> C 	 -128.957 	 62.5127 	 -55.0725
| 26> C 	 -129.762 	 62.7314 	 -56.2385
| 27> C 	 -129.012 	 62.3281 	 -57.3589
| 28> H 	 -129.249 	 62.5806 	 -54.1297
| 29> C 	 -131.243 	 63.1871 	 -56.3014
| 30> H 	 -131.834 	 62.3373 	 -56.6476
| 31> H 	 -131.246 	 63.9227 	 -57.0524
| 32> C 	 -131.8 	 63.9338 	 -55.0541
| 33> H 	 -131.143 	 64.7985 	 -54.7149
| 34> H 	 -131.934 	 63.189 	 -54.2353
| 35> C 	 -133.158 	 64.5523 	 -55.313
| 36> H 	 -133.152 	 65.2952 	 -56.0593
| 37> H 	 -133.371 	 65.092 	 -54.3971
| 38> H 	 -133.982 	 63.8634 	 -55.5276
| 39> H 	 -129.512 	 61.9 	 -62.3214
| 40> H 	 -127.034 	 61.8201 	 -54.5218
| 41> *
| 42>
| 43>                          ****END OF INPUT****

CARTESIAN COORDINATES (ANGSTROEM)
---------------------------------
  S    -129.246000   61.066400  -59.918400
  C    -129.614000   62.122800  -61.248900
  C    -129.803000   63.446300  -60.881200
  C    -129.700000   63.603900  -59.482400
  C    -129.345000   62.449800  -58.770900
  H    -129.640000   64.593200  -59.031900
  C    -129.975000   64.656800  -61.772600
  H    -130.888000   65.165400  -61.422900
  H    -130.315000   64.340300  -62.747800
  C    -128.747000   65.585200  -62.002000
  H    -129.096000   66.443800  -62.601200
  H    -128.335000   65.899500  -61.039100
  C    -127.551000   64.963700  -62.769800
  H    -126.723000   65.692100  -62.872800
  H    -127.110000   64.198600  -62.126100
  H    -127.808000   64.531200  -63.683800
  S    -127.448000   61.622200  -56.957000
  C    -127.750000   61.924600  -55.279700
  C    -128.957000   62.512700  -55.072500
  C    -129.762000   62.731400  -56.238500
  C    -129.012000   62.328100  -57.358900
  H    -129.249000   62.580600  -54.129700
  C    -131.243000   63.187100  -56.301400
  H    -131.834000   62.337300  -56.647600
  H    -131.246000   63.922700  -57.052400
  C    -131.800000   63.933800  -55.054100
  H    -131.143000   64.798500  -54.714900
  H    -131.934000   63.189000  -54.235300
  C    -133.158000   64.552300  -55.313000
  H    -133.152000   65.295200  -56.059300
  H    -133.371000   65.092000  -54.397100
  H    -133.982000   63.863400  -55.527600
  H    -129.512000   61.900000  -62.321400
  H    -127.034000   61.820100  -54.521800

 Total Charge           Charge          ....    0
 Multiplicity           Mult            ....    1
 Number of Electrons    NEL             ....  134
 Basis Dimension        Dim             ....  322

ORBITAL ENERGIES
----------------

  NO   OCC          E(Eh)            E(eV)
   0   2.0000     -88.967706     -2420.9344
   1   2.0000     -88.965167     -2420.8653
   2   2.0000     -10.331926      -281.1460
   3   2.0000     -10.325500      -280.9711
   4   2.0000     -10.312575      -280.6194
   5   2.0000     -10.308586      -280.5109
   6   2.0000     -10.307335      -280.4768
   7   2.0000     -10.297048      -280.1969
   8   2.0000     -10.296398      -280.1792
   9   2.0000     -10.293750      -280.1072
  10   2.0000     -10.292848      -280.0826
  11   2.0000     -10.292423      -280.0711
  12   2.0000     -10.292026      -280.0603
  13   2.0000     -10.280842      -279.7559
  14   2.0000     -10.274187      -279.5748
  15   2.0000     -10.273761      -279.5632
  16   2.0000      -8.081611      -219.9118
  17   2.0000      -8.080182      -219.8729
  18   2.0000      -6.040213      -164.3626
  19   2.0000      -6.038564      -164.3177
  20   2.0000      -6.036211      -164.2537
  21   2.0000      -6.034700      -164.2125
  22   2.0000      -6.032352      -164.1486
  23   2.0000      -6.031022      -164.1124
  24   2.0000      -1.002086       -27.2681
  25   2.0000      -0.980997       -26.6943
  26   2.0000      -0.907869       -24.7044
  27   2.0000      -0.905866       -24.6499
  28   2.0000      -0.867808       -23.6143
  29   2.0000      -0.854471       -23.2513
  30   2.0000      -0.846119       -23.0241
  31   2.0000      -0.813551       -22.1378
  32   2.0000      -0.786187       -21.3932
  33   2.0000      -0.773040       -21.0355
  34   2.0000      -0.706529       -19.2256
  35   2.0000      -0.699382       -19.0312
  36   2.0000      -0.694318       -18.8933
  37   2.0000      -0.656014       -17.8511
  38   2.0000      -0.632939       -17.2232
  39   2.0000      -0.622689       -16.9442
  40   2.0000      -0.597685       -16.2638
  41   2.0000      -0.573698       -15.6111
  42   2.0000      -0.568114       -15.4592
  43   2.0000      -0.544829       -14.8256
  44   2.0000      -0.539161       -14.6713
  45   2.0000      -0.532292       -14.4844
  46   2.0000      -0.514459       -13.9992
  47   2.0000      -0.507114       -13.7993
  48   2.0000      -0.503761       -13.7080
  49   2.0000      -0.493824       -13.4376
  50   2.0000      -0.485158       -13.2018
  51   2.0000      -0.480369       -13.0715
  52   2.0000      -0.471392       -12.8272
  53   2.0000      -0.467748       -12.7281
  54   2.0000      -0.457965       -12.4619
  55   2.0000      -0.450873       -12.2689
  56   2.0000      -0.442839       -12.0503
  57   2.0000      -0.438706       -11.9378
  58   2.0000      -0.435419       -11.8483
  59   2.0000      -0.427494       -11.6327
  60   2.0000      -0.423323       -11.5192
  61   2.0000      -0.416156       -11.3242
  62   2.0000      -0.412290       -11.2190
  63   2.0000      -0.345215        -9.3938
  64   2.0000      -0.332264        -9.0414
  65   2.0000      -0.330451        -8.9920
  66   2.0000      -0.287407        -7.8208
  67   0.0000       0.027765         0.7555
  68   0.0000       0.069022         1.8782
  69   0.0000       0.115416         3.1406
  70   0.0000       0.124674         3.3925
  71   0.0000       0.133544         3.6339

MULLIKEN ATOMIC CHARGES
-----------------------
   0 S :    0.110799
   1 C :   -0.113459
   2 C :   -0.116775
   3 C :    0.033750
   4 C :   -0.175989
   5 H :    0.022392
   6 C :    0.071119
   7 H :    0.034921
   8 H :    0.001205
   9 C :   -0.068128
  10 H :    0.038721
  11 H :    0.029598
  12 C :   -0.047424
  13 H :    0.037767
  14 H :    0.035954
  15 H :    0.019567
  16 S :    0.113076
  17 C :   -0.061924
  18 C :    0.003946
  19 C :   -0.038254
  20 C :   -0.176159
  21 H :   -0.039574
  22 C :    0.132004
  23 H :    0.052205
  24 H :   -0.000429
  25 C :   -0.135158
  26 H :    0.047842
  27 H :    0.040179
  28 C :   -0.018978
  29 H :    0.017114
  30 H :    0.026175
  31 H :    0.036477
  32 H :    0.049955
  33 H :    0.037486
Sum of atomic charges:    0.0000000

LOEWDIN ATOMIC CHARGES
----------------------
   0 S :    0.391188
   1 C :   -0.207576
   2 C :   -0.071752
   3 C :   -0.062983
   4 C :   -0.181926
   5 H :    0.032000
   6 C :   -0.036913
   7 H :    0.037372
   8 H :    0.024798
   9 C :   -0.035174
  10 H :    0.027708
  11 H :    0.022976
  12 C :   -0.062720
  13 H :    0.031986
  14 H :    0.028625
  15 H :    0.012186
  16 S :    0.409259
  17 C :   -0.178251
  18 C :   -0.059348
  19 C :   -0.043321
  20 C :   -0.201851
  21 H :    0.006265
  22 C :   -0.026399
  23 H :    0.041058
  24 H :    0.023820
  25 C :   -0.045085
  26 H :    0.036124
  27 H :    0.025882
  28 C :   -0.062650
  29 H :    0.015874
  30 H :    0.029132
  31 H :    0.026809
  32 H :    0.032762
  33 H :    0.020125

  Mayer bond orders larger than 0.100000
B(  0-S ,  1-C ) :   1.1394 B(  0-S ,  4-C ) :   1.1377 B(  1-C ,  2-C ) :   1.6177
B(  1-C , 32-H ) :   0.9559 B(  2-C ,  3-C ) :   1.2644 B(  2-C ,  6-C ) :   1.0261
B(  3-C ,  4-C ) :   1.5729 B(  3-C ,  5-H ) :   0.9819 B(  4-C , 20-C ) :   1.0560
B(  6-C ,  7-H ) :   0.9386 B(  6-C ,  8-H ) :   0.9346 B(  6-C ,  9-C ) :   1.0609
B(  9-C , 10-H ) :   0.9560 B(  9-C , 11-H ) :   0.9595 B(  9-C , 12-C ) :   1.0769
B( 12-C , 13-H ) :   0.9735 B( 12-C , 14-H ) :   0.9752 B( 12-C , 15-H ) :   0.9775
B( 16-S , 17-C ) :   1.1463 B( 16-S , 20-C ) :   1.1543 B( 17-C , 18-C ) :   1.6217
B( 17-C , 33-H ) :   0.9682 B( 18-C , 19-C ) :   1.2377 B( 18-C , 21-H ) :   1.0067
B( 19-C , 20-C ) :   1.5802 B( 19-C , 22-C ) :   1.0181 B( 22-C , 23-H ) :   0.9311
B( 22-C , 24-H ) :   0.9243 B( 22-C , 25-C ) :   1.0739 B( 25-C , 26-H ) :   0.9567
B( 25-C , 27-H ) :   0.9498 B( 25-C , 28-C ) :   1.0922 B( 28-C , 29-H ) :   0.9730
B( 28-C , 30-H ) :   0.9713 B( 28-C , 31-H ) :   0.9733

Dispersion correction           -0.013942597
FINAL SINGLE POINT ENERGY     -1339.874850339487

DIPOLE MOMENT
-------------
                                X             Y             Z
Electronic contribution:     11.93875     -20.64866       3.41292
Nuclear contribution   :    -12.17561      21.24471      -3.30219
                        -----------------------------------------
Total Dipole Moment    :     -0.23687       0.59605       0.11074
                        -----------------------------------------
Magnitude (a.u.)       :      0.65088
Magnitude (Debye)      :      1.65441

Rotational constants in cm-1:     0.017352     0.008247     0.006667
Rotational constants in MHz :   520.211444   247.253147   199.869839

                             ****ORCA TERMINATED NORMALLY****
TOTAL RUN TIME: 0 days 0 hours 0 minutes 21 seconds 214 msec
