                         Program Version 4.2.1 -  RELEASE  -
|  1> ! wB97X-D3 SP def2-SVP
|  2> %pal
|  3> nprocs 24
|  4> end
|  5>
|  6> * xyz 0 1
|  7> S 	 -103.365 	 0.217749 	 -111.024
|  8> C 	 -105.017 	 0.136421 	 -111.698
|  9> C 	 -105.237 	 -1.1544 	 -112.197
| 10> C 	 -104.195 	 -2.02366 	 -111.853
| 11> C 	 -103.095 	 -1.4833 	 -111.25
| 12> H 	 -104.18 	 -3.10193 	 -112.071
| 13> C 	 -106.398 	 -1.61614 	 -113.104
| 14> H 	 -106.731 	 -0.723254 	 -113.5
| 15> H 	 -106.996 	 -2.02164 	 -112.328
| 16> C 	 -106.132 	 -2.5564 	 -114.269
| 17> H 	 -105.465 	 -2.11572 	 -115.035
| 18> H 	 -105.512 	 -3.38184 	 -113.944
| 19> C 	 -107.427 	 -3.11331 	 -114.941
| 20> H 	 -107.27 	 -3.7609 	 -115.786
| 21> H 	 -108.048 	 -3.59675 	 -114.177
| 22> H 	 -107.89 	 -2.21219 	 -115.372
| 23> S 	 -100.411 	 -2.12414 	 -111.469
| 24> C 	 -99.939 	 -3.54254 	 -110.604
| 25> C 	 -100.896 	 -3.98495 	 -109.729
| 26> C 	 -102.026 	 -3.13507 	 -109.673
| 27> C 	 -101.938 	 -2.18671 	 -110.679
| 28> H 	 -100.651 	 -4.83827 	 -109.195
| 29> C 	 -103.226 	 -3.43611 	 -108.886
| 30> H 	 -103.184 	 -4.52955 	 -108.718
| 31> H 	 -104.067 	 -3.30057 	 -109.496
| 32> C 	 -103.321 	 -2.68686 	 -107.515
| 33> H 	 -102.441 	 -2.75664 	 -106.873
| 34> H 	 -104.235 	 -2.9491 	 -106.991
| 35> C 	 -103.502 	 -1.17336 	 -107.652
| 36> H 	 -103.666 	 -0.712788 	 -106.733
| 37> H 	 -104.185 	 -0.90692 	 -108.437
| 38> H 	 -102.531 	 -0.782574 	 -107.951
| 39> H 	 -105.586 	 0.985903 	 -111.929
| 40> H 	 -98.9733 	 -3.99495 	 -110.653
| 41> *
| 42>
| 43>                          ****END OF INPUT****

CARTESIAN COORDINATES (ANGSTROEM)
---------------------------------
  S    -103.365000    0.217749  -111.024000
  C    -105.017000    0.136421  -111.698000
  C    -105.237000   -1.154400  -112.197000
  C    -104.195000   -2.023660  -111.853000
  C    -103.095000   -1.483300  -111.250000
  H    -104.180000   -3.101930  -112.071000
  C    -106.398000   -1.616140  -113.104000
  H    -106.731000   -0.723254  -113.500000
  H    -106.996000   -2.021640  -112.328000
  C    -106.132000   -2.556400  -114.269000
  H    -105.465000   -2.115720  -115.035000
  H    -105.512000   -3.381840  -113.944000
  C    -107.427000   -3.113310  -114.941000
  H    -107.270000   -3.760900  -115.786000
  H    -108.048000   -3.596750  -114.177000
  H    -107.890000   -2.212190  -115.372000
  S    -100.411000   -2.124140  -111.469000
  C    -99.939000   -3.542540  -110.604000
  C    -100.896000   -3.984950  -109.729000
  C    -102.026000   -3.135070  -109.673000
  C    -101.938000   -2.186710  -110.679000
  H    -100.651000   -4.838270  -109.195000
  C    -103.226000   -3.436110  -108.886000
  H    -103.184000   -4.529550  -108.718000
  H    -104.067000   -3.300570  -109.496000
  C    -103.321000   -2.686860  -107.515000
  H    -102.441000   -2.756640  -106.873000
  H    -104.235000   -2.949100  -106.991000
  C    -103.502000   -1.173360  -107.652000
  H    -103.666000   -0.712788  -106.733000
  H    -104.185000   -0.906920  -108.437000
  H    -102.531000   -0.782574  -107.951000
  H    -105.586000    0.985903  -111.929000
  H    -98.973300   -3.994950  -110.653000

 Total Charge           Charge          ....    0
 Multiplicity           Mult            ....    1
 Number of Electrons    NEL             ....  134
 Basis Dimension        Dim             ....  322

ORBITAL ENERGIES
----------------

  NO   OCC          E(Eh)            E(eV)
   0   2.0000     -88.967527     -2420.9295
   1   2.0000     -88.962930     -2420.8044
   2   2.0000     -10.324791      -280.9519
   3   2.0000     -10.320543      -280.8362
   4   2.0000     -10.313903      -280.6556
   5   2.0000     -10.310332      -280.5584
   6   2.0000     -10.302703      -280.3508
   7   2.0000     -10.298251      -280.2297
   8   2.0000     -10.290192      -280.0104
   9   2.0000     -10.288204      -279.9563
  10   2.0000     -10.287315      -279.9321
  11   2.0000     -10.285293      -279.8771
  12   2.0000     -10.284526      -279.8562
  13   2.0000     -10.283510      -279.8285
  14   2.0000     -10.281549      -279.7752
  15   2.0000     -10.255945      -279.0784
  16   2.0000      -8.083198      -219.9550
  17   2.0000      -8.076985      -219.7859
  18   2.0000      -6.041478      -164.3970
  19   2.0000      -6.037653      -164.2929
  20   2.0000      -6.035505      -164.2344
  21   2.0000      -6.034080      -164.1957
  22   2.0000      -6.031464      -164.1245
  23   2.0000      -6.027877      -164.0269
  24   2.0000      -1.012079       -27.5401
  25   2.0000      -0.987428       -26.8693
  26   2.0000      -0.913045       -24.8452
  27   2.0000      -0.909714       -24.7546
  28   2.0000      -0.868924       -23.6446
  29   2.0000      -0.854914       -23.2634
  30   2.0000      -0.845096       -22.9962
  31   2.0000      -0.816898       -22.2289
  32   2.0000      -0.787663       -21.4334
  33   2.0000      -0.772634       -21.0244
  34   2.0000      -0.710895       -19.3444
  35   2.0000      -0.698105       -18.9964
  36   2.0000      -0.691771       -18.8240
  37   2.0000      -0.661745       -18.0070
  38   2.0000      -0.643116       -17.5001
  39   2.0000      -0.623134       -16.9563
  40   2.0000      -0.599042       -16.3008
  41   2.0000      -0.573145       -15.5961
  42   2.0000      -0.567489       -15.4422
  43   2.0000      -0.549521       -14.9532
  44   2.0000      -0.546918       -14.8824
  45   2.0000      -0.529510       -14.4087
  46   2.0000      -0.517595       -14.0845
  47   2.0000      -0.516326       -14.0500
  48   2.0000      -0.509403       -13.8616
  49   2.0000      -0.498919       -13.5763
  50   2.0000      -0.489538       -13.3210
  51   2.0000      -0.478153       -13.0112
  52   2.0000      -0.469127       -12.7656
  53   2.0000      -0.466712       -12.6999
  54   2.0000      -0.457837       -12.4584
  55   2.0000      -0.452166       -12.3041
  56   2.0000      -0.445084       -12.1114
  57   2.0000      -0.438795       -11.9402
  58   2.0000      -0.431288       -11.7359
  59   2.0000      -0.421636       -11.4733
  60   2.0000      -0.419805       -11.4235
  61   2.0000      -0.411248       -11.1906
  62   2.0000      -0.406112       -11.0509
  63   2.0000      -0.337904        -9.1948
  64   2.0000      -0.329315        -8.9611
  65   2.0000      -0.325772        -8.8647
  66   2.0000      -0.302665        -8.2359
  67   0.0000       0.039349         1.0707
  68   0.0000       0.059636         1.6228
  69   0.0000       0.118020         3.2115
  70   0.0000       0.124758         3.3948
  71   0.0000       0.129218         3.5162

MULLIKEN ATOMIC CHARGES
-----------------------
   0 S :    0.097680
   1 C :   -0.121221
   2 C :   -0.118681
   3 C :    0.024321
   4 C :   -0.172739
   5 H :    0.020628
   6 C :    0.144790
   7 H :    0.001805
   8 H :    0.038436
   9 C :   -0.097339
  10 H :    0.034180
  11 H :    0.018751
  12 C :   -0.046958
  13 H :    0.037221
  14 H :    0.041073
  15 H :    0.031508
  16 S :    0.132019
  17 C :   -0.089971
  18 C :   -0.020600
  19 C :   -0.026283
  20 C :   -0.164141
  21 H :   -0.008283
  22 C :    0.111029
  23 H :    0.020059
  24 H :    0.005491
  25 C :   -0.060695
  26 H :    0.030159
  27 H :    0.028230
  28 C :   -0.030082
  29 H :    0.017351
  30 H :    0.032518
  31 H :    0.014647
  32 H :    0.031859
  33 H :    0.043241
Sum of atomic charges:   -0.0000000

LOEWDIN ATOMIC CHARGES
----------------------
   0 S :    0.408205
   1 C :   -0.189803
   2 C :   -0.056375
   3 C :   -0.074463
   4 C :   -0.197334
   5 H :    0.033043
   6 C :   -0.019522
   7 H :    0.020668
   8 H :    0.035781
   9 C :   -0.044148
  10 H :    0.029811
  11 H :    0.016305
  12 C :   -0.061193
  13 H :    0.025608
  14 H :    0.027625
  15 H :    0.028090
  16 S :    0.431185
  17 C :   -0.186270
  18 C :   -0.061879
  19 C :   -0.048463
  20 C :   -0.216561
  21 H :    0.021708
  22 C :   -0.028418
  23 H :    0.035617
  24 H :    0.024207
  25 C :   -0.032473
  26 H :    0.026007
  27 H :    0.022773
  28 C :   -0.061669
  29 H :    0.016186
  30 H :    0.016391
  31 H :    0.019504
  32 H :    0.015998
  33 H :    0.023854

  Mayer bond orders larger than 0.100000
B(  0-S ,  1-C ) :   1.1426 B(  0-S ,  4-C ) :   1.1643 B(  1-C ,  2-C ) :   1.5895
B(  1-C ,  4-C ) :   0.1087 B(  1-C , 32-H ) :   0.9771 B(  2-C ,  3-C ) :   1.2608
B(  2-C ,  6-C ) :   0.9813 B(  3-C ,  4-C ) :   1.5917 B(  3-C ,  5-H ) :   0.9845
B(  4-C , 20-C ) :   0.9870 B(  6-C ,  7-H ) :   0.9386 B(  6-C ,  8-H ) :   0.9339
B(  6-C ,  9-C ) :   1.0732 B(  9-C , 10-H ) :   0.9553 B(  9-C , 11-H ) :   0.9520
B(  9-C , 12-C ) :   1.0777 B( 12-C , 13-H ) :   0.9749 B( 12-C , 14-H ) :   0.9778
B( 12-C , 15-H ) :   0.9773 B( 16-S , 17-C ) :   1.1596 B( 16-S , 20-C ) :   1.1626
B( 17-C , 18-C ) :   1.6191 B( 17-C , 33-H ) :   0.9677 B( 18-C , 19-C ) :   1.2394
B( 18-C , 21-H ) :   1.0023 B( 19-C , 20-C ) :   1.5592 B( 19-C , 22-C ) :   1.0412
B( 22-C , 23-H ) :   0.9316 B( 22-C , 24-H ) :   0.9244 B( 22-C , 25-C ) :   1.0667
B( 25-C , 26-H ) :   0.9607 B( 25-C , 27-H ) :   0.9585 B( 25-C , 28-C ) :   1.0790
B( 28-C , 29-H ) :   0.9714 B( 28-C , 30-H ) :   0.9735 B( 28-C , 31-H ) :   0.9728

Dispersion correction           -0.015513292
FINAL SINGLE POINT ENERGY     -1339.862554361453

DIPOLE MOMENT
-------------
                                X             Y             Z
Electronic contribution:     20.19396       8.44456      -0.20756
Nuclear contribution   :    -20.53632      -8.95038       0.08190
                        -----------------------------------------
Total Dipole Moment    :     -0.34236      -0.50582      -0.12566
                        -----------------------------------------
Magnitude (a.u.)       :      0.62359
Magnitude (Debye)      :      1.58503

Rotational constants in cm-1:     0.018966     0.008443     0.007793
Rotational constants in MHz :   568.580224   253.123738   233.636613

                             ****ORCA TERMINATED NORMALLY****
TOTAL RUN TIME: 0 days 0 hours 0 minutes 21 seconds 230 msec
