                         Program Version 4.2.1 -  RELEASE  -
|  1> ! wB97X-D3 SP def2-SVP
|  2> %pal
|  3> nprocs 24
|  4> end
|  5>
|  6> * xyz 0 1
|  7> S 	 -67.6374 	 9.79858 	 -72.2915
|  8> C 	 -66.1402 	 10.5884 	 -71.8322
|  9> C 	 -66.082 	 10.847 	 -70.4906
| 10> C 	 -67.2565 	 10.4194 	 -69.8507
| 11> C 	 -68.1762 	 9.82151 	 -70.6299
| 12> H 	 -67.4472 	 10.4896 	 -68.8363
| 13> C 	 -64.8411 	 11.2403 	 -69.7569
| 14> H 	 -63.9992 	 10.8307 	 -70.312
| 15> H 	 -64.8087 	 10.6712 	 -68.7428
| 16> C 	 -64.7992 	 12.7472 	 -69.3672
| 17> H 	 -65.6786 	 12.9152 	 -68.8225
| 18> H 	 -63.9536 	 13.0389 	 -68.7359
| 19> C 	 -64.7013 	 13.6974 	 -70.604
| 20> H 	 -64.6244 	 14.7189 	 -70.2709
| 21> H 	 -63.902 	 13.4045 	 -71.2662
| 22> H 	 -65.5375 	 13.7806 	 -71.214
| 23> S 	 -69.7185 	 8.0934 	 -69.1405
| 24> C 	 -71.3812 	 8.27553 	 -69.1476
| 25> C 	 -71.8247 	 9.0487 	 -70.1971
| 26> C 	 -70.7825 	 9.76708 	 -70.8533
| 27> C 	 -69.539 	 9.45651 	 -70.294
| 28> H 	 -72.9123 	 9.13983 	 -70.3064
| 29> C 	 -70.9083 	 10.8726 	 -71.8686
| 30> H 	 -71.946 	 11.0491 	 -71.964
| 31> H 	 -70.4601 	 10.616 	 -72.8211
| 32> C 	 -70.3093 	 12.2326 	 -71.4446
| 33> H 	 -70.4402 	 13.0188 	 -72.305
| 34> H 	 -69.2108 	 12.1636 	 -71.2009
| 35> C 	 -70.8857 	 12.8576 	 -70.1538
| 36> H 	 -70.3396 	 13.84 	 -69.9179
| 37> H 	 -71.1758 	 12.1343 	 -69.3424
| 38> H 	 -71.9599 	 13.1404 	 -70.3806
| 39> H 	 -65.3281 	 10.6889 	 -72.5886
| 40> H 	 -72.0875 	 7.7151 	 -68.5464
| 41> *
| 42>
| 43>                          ****END OF INPUT****

CARTESIAN COORDINATES (ANGSTROEM)
---------------------------------
  S    -67.637400    9.798580  -72.291500
  C    -66.140200   10.588400  -71.832200
  C    -66.082000   10.847000  -70.490600
  C    -67.256500   10.419400  -69.850700
  C    -68.176200    9.821510  -70.629900
  H    -67.447200   10.489600  -68.836300
  C    -64.841100   11.240300  -69.756900
  H    -63.999200   10.830700  -70.312000
  H    -64.808700   10.671200  -68.742800
  C    -64.799200   12.747200  -69.367200
  H    -65.678600   12.915200  -68.822500
  H    -63.953600   13.038900  -68.735900
  C    -64.701300   13.697400  -70.604000
  H    -64.624400   14.718900  -70.270900
  H    -63.902000   13.404500  -71.266200
  H    -65.537500   13.780600  -71.214000
  S    -69.718500    8.093400  -69.140500
  C    -71.381200    8.275530  -69.147600
  C    -71.824700    9.048700  -70.197100
  C    -70.782500    9.767080  -70.853300
  C    -69.539000    9.456510  -70.294000
  H    -72.912300    9.139830  -70.306400
  C    -70.908300   10.872600  -71.868600
  H    -71.946000   11.049100  -71.964000
  H    -70.460100   10.616000  -72.821100
  C    -70.309300   12.232600  -71.444600
  H    -70.440200   13.018800  -72.305000
  H    -69.210800   12.163600  -71.200900
  C    -70.885700   12.857600  -70.153800
  H    -70.339600   13.840000  -69.917900
  H    -71.175800   12.134300  -69.342400
  H    -71.959900   13.140400  -70.380600
  H    -65.328100   10.688900  -72.588600
  H    -72.087500    7.715100  -68.546400

 Total Charge           Charge          ....    0
 Multiplicity           Mult            ....    1
 Number of Electrons    NEL             ....  134
 Basis Dimension        Dim             ....  322

ORBITAL ENERGIES
----------------

  NO   OCC          E(Eh)            E(eV)
   0   2.0000     -88.964045     -2420.8347
   1   2.0000     -88.963766     -2420.8272
   2   2.0000     -10.325014      -280.9579
   3   2.0000     -10.323271      -280.9105
   4   2.0000     -10.318235      -280.7735
   5   2.0000     -10.310357      -280.5591
   6   2.0000     -10.305547      -280.4282
   7   2.0000     -10.299314      -280.2586
   8   2.0000     -10.297773      -280.2167
   9   2.0000     -10.293619      -280.1036
  10   2.0000     -10.292807      -280.0815
  11   2.0000     -10.287806      -279.9454
  12   2.0000     -10.287568      -279.9389
  13   2.0000     -10.284454      -279.8542
  14   2.0000     -10.283688      -279.8334
  15   2.0000     -10.267928      -279.4045
  16   2.0000      -8.079419      -219.8522
  17   2.0000      -8.078879      -219.8375
  18   2.0000      -6.037621      -164.2920
  19   2.0000      -6.037324      -164.2839
  20   2.0000      -6.033889      -164.1905
  21   2.0000      -6.033371      -164.1764
  22   2.0000      -6.030354      -164.0943
  23   2.0000      -6.029710      -164.0768
  24   2.0000      -1.012702       -27.5570
  25   2.0000      -0.991400       -26.9774
  26   2.0000      -0.912314       -24.8253
  27   2.0000      -0.905388       -24.6369
  28   2.0000      -0.868411       -23.6307
  29   2.0000      -0.850863       -23.1531
  30   2.0000      -0.843203       -22.9447
  31   2.0000      -0.814304       -22.1583
  32   2.0000      -0.784714       -21.3531
  33   2.0000      -0.773724       -21.0541
  34   2.0000      -0.712772       -19.3955
  35   2.0000      -0.697945       -18.9920
  36   2.0000      -0.678946       -18.4750
  37   2.0000      -0.662752       -18.0344
  38   2.0000      -0.644331       -17.5331
  39   2.0000      -0.623284       -16.9604
  40   2.0000      -0.590510       -16.0686
  41   2.0000      -0.567780       -15.4501
  42   2.0000      -0.553800       -15.0697
  43   2.0000      -0.547779       -14.9058
  44   2.0000      -0.544109       -14.8060
  45   2.0000      -0.536595       -14.6015
  46   2.0000      -0.518476       -14.1084
  47   2.0000      -0.511447       -13.9172
  48   2.0000      -0.503702       -13.7064
  49   2.0000      -0.491003       -13.3609
  50   2.0000      -0.488505       -13.2929
  51   2.0000      -0.476847       -12.9757
  52   2.0000      -0.472931       -12.8691
  53   2.0000      -0.465684       -12.6719
  54   2.0000      -0.457681       -12.4541
  55   2.0000      -0.447865       -12.1870
  56   2.0000      -0.442035       -12.0284
  57   2.0000      -0.436600       -11.8805
  58   2.0000      -0.426270       -11.5994
  59   2.0000      -0.423846       -11.5334
  60   2.0000      -0.420993       -11.4558
  61   2.0000      -0.417868       -11.3708
  62   2.0000      -0.395482       -10.7616
  63   2.0000      -0.343006        -9.3337
  64   2.0000      -0.331908        -9.0317
  65   2.0000      -0.330515        -8.9938
  66   2.0000      -0.297012        -8.0821
  67   0.0000       0.029872         0.8129
  68   0.0000       0.069684         1.8962
  69   0.0000       0.105927         2.8824
  70   0.0000       0.117893         3.2080
  71   0.0000       0.124499         3.3878

MULLIKEN ATOMIC CHARGES
-----------------------
   0 S :    0.105720
   1 C :   -0.157535
   2 C :   -0.029521
   3 C :    0.052372
   4 C :   -0.157912
   5 H :   -0.020902
   6 C :    0.010865
   7 H :    0.029993
   8 H :    0.043864
   9 C :   -0.036734
  10 H :    0.017327
  11 H :    0.037359
  12 C :   -0.034421
  13 H :    0.024114
  14 H :    0.025556
  15 H :    0.014684
  16 S :    0.116590
  17 C :   -0.077557
  18 C :   -0.072058
  19 C :   -0.035400
  20 C :   -0.172271
  21 H :    0.022811
  22 C :    0.133699
  23 H :    0.002389
  24 H :    0.040923
  25 C :   -0.132455
  26 H :    0.046174
  27 H :    0.059445
  28 C :   -0.095343
  29 H :    0.057886
  30 H :    0.051386
  31 H :    0.012092
  32 H :    0.063663
  33 H :    0.053197
Sum of atomic charges:   -0.0000000

LOEWDIN ATOMIC CHARGES
----------------------
   0 S :    0.406693
   1 C :   -0.187010
   2 C :   -0.070943
   3 C :   -0.049259
   4 C :   -0.199202
   5 H :    0.020624
   6 C :   -0.033231
   7 H :    0.028075
   8 H :    0.042781
   9 C :   -0.030878
  10 H :    0.017772
  11 H :    0.027307
  12 C :   -0.064768
  13 H :    0.026440
  14 H :    0.023369
  15 H :    0.015069
  16 S :    0.423518
  17 C :   -0.208020
  18 C :   -0.082203
  19 C :   -0.055261
  20 C :   -0.185372
  21 H :    0.034064
  22 C :   -0.031672
  23 H :    0.024305
  24 H :    0.030938
  25 C :   -0.052577
  26 H :    0.034935
  27 H :    0.028028
  28 C :   -0.091863
  29 H :    0.039071
  30 H :    0.034506
  31 H :    0.021046
  32 H :    0.033483
  33 H :    0.030237

  Mayer bond orders larger than 0.100000
B(  0-S ,  1-C ) :   1.1514 B(  0-S ,  4-C ) :   1.1363 B(  1-C ,  2-C ) :   1.5931
B(  1-C , 32-H ) :   0.9647 B(  2-C ,  3-C ) :   1.2376 B(  2-C ,  6-C ) :   1.0087
B(  3-C ,  4-C ) :   1.5965 B(  3-C ,  5-H ) :   1.0075 B(  4-C , 20-C ) :   1.0229
B(  6-C ,  7-H ) :   0.9540 B(  6-C ,  8-H ) :   0.9486 B(  6-C ,  9-C ) :   1.0562
B(  9-C , 10-H ) :   0.9560 B(  9-C , 11-H ) :   0.9611 B(  9-C , 12-C ) :   1.0741
B( 12-C , 13-H ) :   0.9734 B( 12-C , 14-H ) :   0.9774 B( 12-C , 15-H ) :   0.9739
B( 16-S , 17-C ) :   1.1780 B( 16-S , 20-C ) :   1.1520 B( 17-C , 18-C ) :   1.6022
B( 17-C , 20-C ) :   0.1035 B( 17-C , 33-H ) :   0.9630 B( 18-C , 19-C ) :   1.2427
B( 18-C , 21-H ) :   0.9893 B( 19-C , 20-C ) :   1.5627 B( 19-C , 22-C ) :   1.0450
B( 22-C , 23-H ) :   0.9298 B( 22-C , 24-H ) :   0.9240 B( 22-C , 25-C ) :   1.0689
B( 25-C , 26-H ) :   0.9552 B( 25-C , 27-H ) :   0.9541 B( 25-C , 28-C ) :   1.0620
B( 28-C , 29-H ) :   0.9721 B( 28-C , 30-H ) :   0.9711 B( 28-C , 31-H ) :   0.9704

Dispersion correction           -0.015895177
FINAL SINGLE POINT ENERGY     -1339.867787774577

DIPOLE MOMENT
-------------
                                X             Y             Z
Electronic contribution:     -5.86650     -23.74136      -1.68032
Nuclear contribution   :      5.92612      24.05391       1.77335
                        -----------------------------------------
Total Dipole Moment    :      0.05962       0.31255       0.09302
                        -----------------------------------------
Magnitude (a.u.)       :      0.33150
Magnitude (Debye)      :      0.84261

Rotational constants in cm-1:     0.021959     0.008787     0.007915
Rotational constants in MHz :   658.302125   263.439787   237.284455

                             ****ORCA TERMINATED NORMALLY****
TOTAL RUN TIME: 0 days 0 hours 0 minutes 21 seconds 658 msec
