                         Program Version 4.2.1 -  RELEASE  -
|  1> ! wB97X-D3 SP def2-SVP
|  2> %pal
|  3> nprocs 24
|  4> end
|  5>
|  6> * xyz 0 1
|  7> S 	 -55.7446 	 10.2497 	 -100.095
|  8> C 	 -54.7728 	 9.5313 	 -98.8091
|  9> C 	 -55.1809 	 9.87707 	 -97.5237
| 10> C 	 -56.3317 	 10.7422 	 -97.5791
| 11> C 	 -56.7552 	 11.0484 	 -98.8448
| 12> H 	 -56.7638 	 11.1642 	 -96.6715
| 13> C 	 -54.5546 	 9.3751 	 -96.1703
| 14> H 	 -53.5302 	 9.67079 	 -96.0108
| 15> H 	 -54.5123 	 8.2589 	 -96.3712
| 16> C 	 -55.4127 	 9.49864 	 -94.9654
| 17> H 	 -56.4519 	 9.20621 	 -95.0584
| 18> H 	 -55.018 	 8.78791 	 -94.232
| 19> C 	 -55.2422 	 10.8713 	 -94.3527
| 20> H 	 -54.189 	 11.0752 	 -94.1419
| 21> H 	 -55.6681 	 11.7552 	 -94.8978
| 22> H 	 -55.8051 	 10.8499 	 -93.3877
| 23> S 	 -59.336 	 11.0841 	 -99.9168
| 24> C 	 -60.3333 	 12.4454 	 -99.6888
| 25> C 	 -59.685 	 13.4837 	 -99.0399
| 26> C 	 -58.3095 	 13.1371 	 -98.7167
| 27> C 	 -57.9262 	 11.8538 	 -99.1856
| 28> H 	 -60.2395 	 14.3996 	 -98.7643
| 29> C 	 -57.5177 	 14.1986 	 -97.9723
| 30> H 	 -57.3267 	 13.7552 	 -96.9976
| 31> H 	 -58.0975 	 15.1539 	 -97.7719
| 32> C 	 -56.108 	 14.5016 	 -98.4934
| 33> H 	 -55.6033 	 13.6053 	 -98.396
| 34> H 	 -55.7875 	 15.2391 	 -97.7764
| 35> C 	 -55.969 	 14.9767 	 -99.9398
| 36> H 	 -56.283 	 14.2179 	 -100.699
| 37> H 	 -54.9869 	 15.4805 	 -100.202
| 38> H 	 -56.7672 	 15.7235 	 -99.979
| 39> H 	 -53.9655 	 8.88357 	 -99.1196
| 40> H 	 -61.4324 	 12.5067 	 -99.9025
| 41> *
| 42>
| 43>                          ****END OF INPUT****

CARTESIAN COORDINATES (ANGSTROEM)
---------------------------------
  S    -55.744600   10.249700  -100.095000
  C    -54.772800    9.531300  -98.809100
  C    -55.180900    9.877070  -97.523700
  C    -56.331700   10.742200  -97.579100
  C    -56.755200   11.048400  -98.844800
  H    -56.763800   11.164200  -96.671500
  C    -54.554600    9.375100  -96.170300
  H    -53.530200    9.670790  -96.010800
  H    -54.512300    8.258900  -96.371200
  C    -55.412700    9.498640  -94.965400
  H    -56.451900    9.206210  -95.058400
  H    -55.018000    8.787910  -94.232000
  C    -55.242200   10.871300  -94.352700
  H    -54.189000   11.075200  -94.141900
  H    -55.668100   11.755200  -94.897800
  H    -55.805100   10.849900  -93.387700
  S    -59.336000   11.084100  -99.916800
  C    -60.333300   12.445400  -99.688800
  C    -59.685000   13.483700  -99.039900
  C    -58.309500   13.137100  -98.716700
  C    -57.926200   11.853800  -99.185600
  H    -60.239500   14.399600  -98.764300
  C    -57.517700   14.198600  -97.972300
  H    -57.326700   13.755200  -96.997600
  H    -58.097500   15.153900  -97.771900
  C    -56.108000   14.501600  -98.493400
  H    -55.603300   13.605300  -98.396000
  H    -55.787500   15.239100  -97.776400
  C    -55.969000   14.976700  -99.939800
  H    -56.283000   14.217900  -100.699000
  H    -54.986900   15.480500  -100.202000
  H    -56.767200   15.723500  -99.979000
  H    -53.965500    8.883570  -99.119600
  H    -61.432400   12.506700  -99.902500

 Total Charge           Charge          ....    0
 Multiplicity           Mult            ....    1
 Number of Electrons    NEL             ....  134
 Basis Dimension        Dim             ....  322

ORBITAL ENERGIES
----------------

  NO   OCC          E(Eh)            E(eV)
   0   2.0000     -88.966403     -2420.8989
   1   2.0000     -88.965418     -2420.8721
   2   2.0000     -10.331833      -281.1435
   3   2.0000     -10.328061      -281.0408
   4   2.0000     -10.317361      -280.7497
   5   2.0000     -10.316810      -280.7347
   6   2.0000     -10.308702      -280.5140
   7   2.0000     -10.308143      -280.4988
   8   2.0000     -10.299163      -280.2545
   9   2.0000     -10.295913      -280.1660
  10   2.0000     -10.294275      -280.1215
  11   2.0000     -10.293393      -280.0975
  12   2.0000     -10.287426      -279.9351
  13   2.0000     -10.284157      -279.8461
  14   2.0000     -10.275606      -279.6134
  15   2.0000     -10.272162      -279.5197
  16   2.0000      -8.080596      -219.8842
  17   2.0000      -8.080357      -219.8777
  18   2.0000      -6.039039      -164.3306
  19   2.0000      -6.038804      -164.3242
  20   2.0000      -6.035106      -164.2236
  21   2.0000      -6.034941      -164.2191
  22   2.0000      -6.031482      -164.1250
  23   2.0000      -6.031112      -164.1149
  24   2.0000      -1.000573       -27.2270
  25   2.0000      -0.979043       -26.6411
  26   2.0000      -0.919110       -25.0103
  27   2.0000      -0.908642       -24.7254
  28   2.0000      -0.866857       -23.5884
  29   2.0000      -0.846002       -23.0209
  30   2.0000      -0.841933       -22.9102
  31   2.0000      -0.810637       -22.0586
  32   2.0000      -0.783071       -21.3084
  33   2.0000      -0.770407       -20.9639
  34   2.0000      -0.707747       -19.2588
  35   2.0000      -0.696038       -18.9402
  36   2.0000      -0.678978       -18.4759
  37   2.0000      -0.655322       -17.8322
  38   2.0000      -0.640292       -17.4232
  39   2.0000      -0.627272       -17.0689
  40   2.0000      -0.589382       -16.0379
  41   2.0000      -0.571984       -15.5645
  42   2.0000      -0.555049       -15.1037
  43   2.0000      -0.546225       -14.8635
  44   2.0000      -0.537689       -14.6313
  45   2.0000      -0.534819       -14.5532
  46   2.0000      -0.520492       -14.1633
  47   2.0000      -0.503425       -13.6989
  48   2.0000      -0.499737       -13.5985
  49   2.0000      -0.496093       -13.4994
  50   2.0000      -0.486214       -13.2305
  51   2.0000      -0.481383       -13.0991
  52   2.0000      -0.471354       -12.8262
  53   2.0000      -0.468043       -12.7361
  54   2.0000      -0.458051       -12.4642
  55   2.0000      -0.451607       -12.2889
  56   2.0000      -0.443464       -12.0673
  57   2.0000      -0.437462       -11.9040
  58   2.0000      -0.432383       -11.7657
  59   2.0000      -0.417115       -11.3503
  60   2.0000      -0.415828       -11.3153
  61   2.0000      -0.414561       -11.2808
  62   2.0000      -0.401728       -10.9316
  63   2.0000      -0.343030        -9.3343
  64   2.0000      -0.328924        -8.9505
  65   2.0000      -0.325448        -8.8559
  66   2.0000      -0.294316        -8.0087
  67   0.0000       0.033052         0.8994
  68   0.0000       0.062663         1.7052
  69   0.0000       0.110648         3.0109
  70   0.0000       0.118436         3.2228
  71   0.0000       0.130923         3.5626

MULLIKEN ATOMIC CHARGES
-----------------------
   0 S :    0.102765
   1 C :   -0.143374
   2 C :   -0.074234
   3 C :    0.035363
   4 C :   -0.170236
   5 H :    0.014050
   6 C :    0.059707
   7 H :    0.040081
   8 H :    0.039816
   9 C :   -0.072044
  10 H :    0.037305
  11 H :    0.030587
  12 C :   -0.079272
  13 H :    0.032029
  14 H :    0.041481
  15 H :    0.034891
  16 S :    0.119252
  17 C :   -0.107742
  18 C :   -0.062556
  19 C :   -0.041787
  20 C :   -0.139816
  21 H :    0.031961
  22 C :    0.030272
  23 H :    0.025656
  24 H :    0.032685
  25 C :   -0.035257
  26 H :    0.021705
  27 H :    0.025168
  28 C :   -0.065981
  29 H :    0.048945
  30 H :    0.052371
  31 H :    0.011776
  32 H :    0.048936
  33 H :    0.075493
Sum of atomic charges:    0.0000000

LOEWDIN ATOMIC CHARGES
----------------------
   0 S :    0.379644
   1 C :   -0.186790
   2 C :   -0.059855
   3 C :   -0.058964
   4 C :   -0.186144
   5 H :    0.032552
   6 C :   -0.031915
   7 H :    0.030915
   8 H :    0.042322
   9 C :   -0.052167
  10 H :    0.028425
  11 H :    0.033754
  12 C :   -0.071713
  13 H :    0.025078
  14 H :    0.024673
  15 H :    0.029584
  16 S :    0.427091
  17 C :   -0.208455
  18 C :   -0.085419
  19 C :   -0.046583
  20 C :   -0.216165
  21 H :    0.036793
  22 C :   -0.035947
  23 H :    0.034148
  24 H :    0.033585
  25 C :   -0.036409
  26 H :    0.012825
  27 H :    0.025713
  28 C :   -0.075324
  29 H :    0.033052
  30 H :    0.034734
  31 H :    0.021086
  32 H :    0.023110
  33 H :    0.042764

  Mayer bond orders larger than 0.100000
B(  0-S ,  1-C ) :   1.1418 B(  0-S ,  4-C ) :   1.1345 B(  1-C ,  2-C ) :   1.6258
B(  1-C , 32-H ) :   0.9742 B(  2-C ,  3-C ) :   1.2469 B(  2-C ,  6-C ) :   0.9849
B(  3-C ,  4-C ) :   1.5917 B(  3-C ,  5-H ) :   0.9847 B(  4-C , 20-C ) :   1.0309
B(  6-C ,  7-H ) :   0.9412 B(  6-C ,  8-H ) :   0.9430 B(  6-C ,  9-C ) :   1.0983
B(  9-C , 10-H ) :   0.9504 B(  9-C , 11-H ) :   0.9454 B(  9-C , 12-C ) :   1.0742
B( 12-C , 13-H ) :   0.9717 B( 12-C , 14-H ) :   0.9753 B( 12-C , 15-H ) :   0.9715
B( 16-S , 17-C ) :   1.1853 B( 16-S , 20-C ) :   1.1373 B( 17-C , 18-C ) :   1.5899
B( 17-C , 33-H ) :   0.9571 B( 18-C , 19-C ) :   1.2565 B( 18-C , 21-H ) :   0.9879
B( 19-C , 20-C ) :   1.5666 B( 19-C , 22-C ) :   1.0351 B( 22-C , 23-H ) :   0.9214
B( 22-C , 24-H ) :   0.9438 B( 22-C , 25-C ) :   1.0836 B( 25-C , 26-H ) :   0.9502
B( 25-C , 27-H ) :   0.9523 B( 25-C , 28-C ) :   1.0752 B( 28-C , 29-H ) :   0.9692
B( 28-C , 30-H ) :   0.9749 B( 28-C , 31-H ) :   0.9768

Dispersion correction           -0.015351634
FINAL SINGLE POINT ENERGY     -1339.874256194088

DIPOLE MOMENT
-------------
                                X             Y             Z
Electronic contribution:    -10.91494     -10.97196     -19.23470
Nuclear contribution   :     11.02411      11.05654      20.03567
                        -----------------------------------------
Total Dipole Moment    :      0.10917       0.08458       0.80097
                        -----------------------------------------
Magnitude (a.u.)       :      0.81279
Magnitude (Debye)      :      2.06594

Rotational constants in cm-1:     0.017665     0.009183     0.008424
Rotational constants in MHz :   529.581565   275.287423   252.542121

                             ****ORCA TERMINATED NORMALLY****
TOTAL RUN TIME: 0 days 0 hours 0 minutes 22 seconds 524 msec
