                         Program Version 4.2.1 -  RELEASE  -
|  1> ! wB97X-D3 SP def2-SVP
|  2> %pal
|  3> nprocs 24
|  4> end
|  5>
|  6> * xyz 0 1
|  7> S 	 -50.8501 	 12.2947 	 -103.535
|  8> C 	 -51.7601 	 10.8836 	 -102.971
|  9> C 	 -52.8425 	 10.6379 	 -103.815
| 10> C 	 -52.8626 	 11.5358 	 -104.89
| 11> C 	 -51.8356 	 12.4539 	 -104.882
| 12> H 	 -53.5548 	 11.5752 	 -105.714
| 13> C 	 -53.8713 	 9.52047 	 -103.67
| 14> H 	 -54.8281 	 9.95113 	 -103.912
| 15> H 	 -53.9535 	 9.13094 	 -102.671
| 16> C 	 -53.6012 	 8.20277 	 -104.566
| 17> H 	 -53.8492 	 8.52725 	 -105.554
| 18> H 	 -52.5607 	 8.07503 	 -104.658
| 19> C 	 -54.3323 	 6.90704 	 -104.214
| 20> H 	 -55.3834 	 7.01121 	 -104.191
| 21> H 	 -54.0079 	 6.04282 	 -104.775
| 22> H 	 -54.2099 	 6.64376 	 -103.245
| 23> S 	 -51.2448 	 15.0669 	 -105.182
| 24> C 	 -50.7974 	 15.7718 	 -106.744
| 25> C 	 -51.1377 	 14.9422 	 -107.748
| 26> C 	 -51.5449 	 13.6256 	 -107.311
| 27> C 	 -51.4758 	 13.4874 	 -105.89
| 28> H 	 -51.0914 	 15.2729 	 -108.754
| 29> C 	 -51.9871 	 12.5217 	 -108.326
| 30> H 	 -52.3759 	 11.603 	 -107.857
| 31> H 	 -51.0881 	 12.1999 	 -108.925
| 32> C 	 -53.0341 	 12.9054 	 -109.331
| 33> H 	 -53.153 	 12.0966 	 -110.125
| 34> H 	 -52.6372 	 13.7999 	 -109.851
| 35> C 	 -54.4367 	 13.141 	 -108.683
| 36> H 	 -55.0781 	 13.7668 	 -109.267
| 37> H 	 -54.298 	 13.5899 	 -107.745
| 38> H 	 -54.9692 	 12.2438 	 -108.376
| 39> H 	 -51.4978 	 10.3295 	 -102.091
| 40> H 	 -50.5585 	 16.8074 	 -106.923
| 41> *
| 42>
| 43>                          ****END OF INPUT****

CARTESIAN COORDINATES (ANGSTROEM)
---------------------------------
  S    -50.850100   12.294700  -103.535000
  C    -51.760100   10.883600  -102.971000
  C    -52.842500   10.637900  -103.815000
  C    -52.862600   11.535800  -104.890000
  C    -51.835600   12.453900  -104.882000
  H    -53.554800   11.575200  -105.714000
  C    -53.871300    9.520470  -103.670000
  H    -54.828100    9.951130  -103.912000
  H    -53.953500    9.130940  -102.671000
  C    -53.601200    8.202770  -104.566000
  H    -53.849200    8.527250  -105.554000
  H    -52.560700    8.075030  -104.658000
  C    -54.332300    6.907040  -104.214000
  H    -55.383400    7.011210  -104.191000
  H    -54.007900    6.042820  -104.775000
  H    -54.209900    6.643760  -103.245000
  S    -51.244800   15.066900  -105.182000
  C    -50.797400   15.771800  -106.744000
  C    -51.137700   14.942200  -107.748000
  C    -51.544900   13.625600  -107.311000
  C    -51.475800   13.487400  -105.890000
  H    -51.091400   15.272900  -108.754000
  C    -51.987100   12.521700  -108.326000
  H    -52.375900   11.603000  -107.857000
  H    -51.088100   12.199900  -108.925000
  C    -53.034100   12.905400  -109.331000
  H    -53.153000   12.096600  -110.125000
  H    -52.637200   13.799900  -109.851000
  C    -54.436700   13.141000  -108.683000
  H    -55.078100   13.766800  -109.267000
  H    -54.298000   13.589900  -107.745000
  H    -54.969200   12.243800  -108.376000
  H    -51.497800   10.329500  -102.091000
  H    -50.558500   16.807400  -106.923000

 Total Charge           Charge          ....    0
 Multiplicity           Mult            ....    1
 Number of Electrons    NEL             ....  134
 Basis Dimension        Dim             ....  322

ORBITAL ENERGIES
----------------

  NO   OCC          E(Eh)            E(eV)
   0   2.0000     -88.967981     -2420.9418
   1   2.0000     -88.964166     -2420.8380
   2   2.0000     -10.335495      -281.2431
   3   2.0000     -10.326940      -281.0103
   4   2.0000     -10.315437      -280.6973
   5   2.0000     -10.315260      -280.6925
   6   2.0000     -10.315122      -280.6887
   7   2.0000     -10.304594      -280.4023
   8   2.0000     -10.297524      -280.2099
   9   2.0000     -10.295383      -280.1516
  10   2.0000     -10.294515      -280.1280
  11   2.0000     -10.293293      -280.0947
  12   2.0000     -10.290168      -280.0097
  13   2.0000     -10.284129      -279.8454
  14   2.0000     -10.271001      -279.4882
  15   2.0000     -10.268887      -279.4306
  16   2.0000      -8.083705      -219.9688
  17   2.0000      -8.078818      -219.8358
  18   2.0000      -6.041996      -164.4111
  19   2.0000      -6.037931      -164.3005
  20   2.0000      -6.037430      -164.2868
  21   2.0000      -6.034750      -164.2139
  22   2.0000      -6.033413      -164.1775
  23   2.0000      -6.029383      -164.0679
  24   2.0000      -1.012832       -27.5606
  25   2.0000      -0.986045       -26.8316
  26   2.0000      -0.909330       -24.7441
  27   2.0000      -0.905815       -24.6485
  28   2.0000      -0.872571       -23.7439
  29   2.0000      -0.852120       -23.1874
  30   2.0000      -0.839582       -22.8462
  31   2.0000      -0.817661       -22.2497
  32   2.0000      -0.788675       -21.4609
  33   2.0000      -0.778223       -21.1765
  34   2.0000      -0.716252       -19.4902
  35   2.0000      -0.702037       -19.1034
  36   2.0000      -0.690993       -18.8029
  37   2.0000      -0.657358       -17.8876
  38   2.0000      -0.646129       -17.5821
  39   2.0000      -0.624235       -16.9863
  40   2.0000      -0.598868       -16.2960
  41   2.0000      -0.570744       -15.5307
  42   2.0000      -0.555890       -15.1265
  43   2.0000      -0.550595       -14.9825
  44   2.0000      -0.537741       -14.6327
  45   2.0000      -0.529716       -14.4143
  46   2.0000      -0.517195       -14.0736
  47   2.0000      -0.512128       -13.9357
  48   2.0000      -0.505043       -13.7429
  49   2.0000      -0.500907       -13.6304
  50   2.0000      -0.495280       -13.4773
  51   2.0000      -0.479953       -13.0602
  52   2.0000      -0.473778       -12.8921
  53   2.0000      -0.471522       -12.8308
  54   2.0000      -0.464574       -12.6417
  55   2.0000      -0.450479       -12.2581
  56   2.0000      -0.445872       -12.1328
  57   2.0000      -0.438406       -11.9296
  58   2.0000      -0.435728       -11.8568
  59   2.0000      -0.429687       -11.6924
  60   2.0000      -0.422054       -11.4847
  61   2.0000      -0.413577       -11.2540
  62   2.0000      -0.411710       -11.2032
  63   2.0000      -0.349977        -9.5234
  64   2.0000      -0.336001        -9.1431
  65   2.0000      -0.326232        -8.8772
  66   2.0000      -0.292654        -7.9635
  67   0.0000       0.026973         0.7340
  68   0.0000       0.072297         1.9673
  69   0.0000       0.102553         2.7906
  70   0.0000       0.119886         3.2623
  71   0.0000       0.130618         3.5543

MULLIKEN ATOMIC CHARGES
-----------------------
   0 S :    0.125150
   1 C :   -0.127186
   2 C :   -0.071537
   3 C :    0.028074
   4 C :   -0.148872
   5 H :   -0.006042
   6 C :    0.073957
   7 H :    0.027021
   8 H :    0.010944
   9 C :   -0.056536
  10 H :    0.010065
  11 H :    0.019504
  12 C :    0.019442
  13 H :    0.013991
  14 H :    0.038318
  15 H :   -0.007579
  16 S :    0.085463
  17 C :   -0.071276
  18 C :   -0.030094
  19 C :   -0.032693
  20 C :   -0.133800
  21 H :    0.010846
  22 C :    0.039459
  23 H :    0.021902
  24 H :    0.045414
  25 C :   -0.104749
  26 H :    0.043723
  27 H :    0.029480
  28 C :   -0.026413
  29 H :    0.033737
  30 H :    0.019541
  31 H :    0.023627
  32 H :    0.042685
  33 H :    0.054434
Sum of atomic charges:    0.0000000

LOEWDIN ATOMIC CHARGES
----------------------
   0 S :    0.441572
   1 C :   -0.190550
   2 C :   -0.058571
   3 C :   -0.069338
   4 C :   -0.219242
   5 H :    0.027011
   6 C :   -0.022797
   7 H :    0.028378
   8 H :    0.023319
   9 C :   -0.031198
  10 H :    0.017316
  11 H :    0.018775
  12 C :   -0.058590
  13 H :    0.024342
  14 H :    0.033686
  15 H :    0.012124
  16 S :    0.395601
  17 C :   -0.176136
  18 C :   -0.066779
  19 C :   -0.056891
  20 C :   -0.193291
  21 H :    0.027478
  22 C :   -0.040165
  23 H :    0.027453
  24 H :    0.039510
  25 C :   -0.045127
  26 H :    0.032379
  27 H :    0.021291
  28 C :   -0.065800
  29 H :    0.024714
  30 H :    0.019277
  31 H :    0.025546
  32 H :    0.024270
  33 H :    0.030433

  Mayer bond orders larger than 0.100000
B(  0-S ,  1-C ) :   1.1483 B(  0-S ,  4-C ) :   1.1940 B(  1-C ,  2-C ) :   1.5721
B(  1-C ,  4-C ) :   0.1050 B(  1-C , 32-H ) :   0.9770 B(  2-C ,  3-C ) :   1.2589
B(  2-C ,  6-C ) :   1.0334 B(  3-C ,  4-C ) :   1.5527 B(  3-C ,  5-H ) :   1.0012
B(  4-C , 20-C ) :   0.9916 B(  6-C ,  7-H ) :   0.9414 B(  6-C ,  8-H ) :   0.9471
B(  6-C ,  9-C ) :   1.0407 B(  9-C , 10-H ) :   0.9556 B(  9-C , 11-H ) :   0.9606
B(  9-C , 12-C ) :   1.0840 B( 12-C , 13-H ) :   0.9702 B( 12-C , 14-H ) :   0.9718
B( 12-C , 15-H ) :   0.9668 B( 16-S , 17-C ) :   1.1323 B( 16-S , 20-C ) :   1.1609
B( 17-C , 18-C ) :   1.6366 B( 17-C , 33-H ) :   0.9672 B( 18-C , 19-C ) :   1.2248
B( 18-C , 21-H ) :   0.9946 B( 19-C , 20-C ) :   1.5887 B( 19-C , 22-C ) :   1.0282
B( 22-C , 23-H ) :   0.9471 B( 22-C , 24-H ) :   0.9361 B( 22-C , 25-C ) :   1.0762
B( 25-C , 26-H ) :   0.9555 B( 25-C , 27-H ) :   0.9558 B( 25-C , 28-C ) :   1.0620
B( 28-C , 29-H ) :   0.9753 B( 28-C , 30-H ) :   0.9764 B( 28-C , 31-H ) :   0.9717

Dispersion correction           -0.014175150
FINAL SINGLE POINT ENERGY     -1339.864279072588

DIPOLE MOMENT
-------------
                                X             Y             Z
Electronic contribution:     17.80459      20.88900      13.34111
Nuclear contribution   :    -18.19271     -21.24610     -13.71710
                        -----------------------------------------
Total Dipole Moment    :     -0.38812      -0.35710      -0.37599
                        -----------------------------------------
Magnitude (a.u.)       :      0.64771
Magnitude (Debye)      :      1.64635

Rotational constants in cm-1:     0.019078     0.008523     0.006278
Rotational constants in MHz :   571.935993   255.521114   188.220482

                             ****ORCA TERMINATED NORMALLY****
TOTAL RUN TIME: 0 days 0 hours 0 minutes 21 seconds 491 msec
