                         Program Version 4.2.1 -  RELEASE  -
|  1> ! wB97X-D3 SP def2-SVP
|  2> %pal
|  3> nprocs 24
|  4> end
|  5>
|  6> * xyz 0 1
|  7> S 	 -105.784 	 4.8617 	 -113.242
|  8> C 	 -106.408 	 4.68951 	 -114.853
|  9> C 	 -106.609 	 3.3413 	 -115.247
| 10> C 	 -106.16 	 2.51308 	 -114.185
| 11> C 	 -105.582 	 3.15568 	 -113.102
| 12> H 	 -106.407 	 1.47107 	 -114.194
| 13> C 	 -107.335 	 2.86946 	 -116.557
| 14> H 	 -108.342 	 2.45294 	 -116.339
| 15> H 	 -106.78 	 2.01765 	 -116.845
| 16> C 	 -107.408 	 3.95181 	 -117.677
| 17> H 	 -108.126 	 4.6768 	 -117.391
| 18> H 	 -106.528 	 4.53466 	 -117.853
| 19> C 	 -107.788 	 3.23087 	 -118.963
| 20> H 	 -108.836 	 2.99927 	 -118.978
| 21> H 	 -107.543 	 3.90097 	 -119.809
| 22> H 	 -107.188 	 2.33409 	 -119.096
| 23> S 	 -104.087 	 3.49858 	 -110.873
| 24> C 	 -103.986 	 2.30354 	 -109.575
| 25> C 	 -104.665 	 1.16229 	 -109.96
| 26> C 	 -105.364 	 1.21772 	 -111.192
| 27> C 	 -105.219 	 2.49788 	 -111.796
| 28> H 	 -104.703 	 0.26252 	 -109.285
| 29> C 	 -106.277 	 0.0941864 	 -111.627
| 30> H 	 -106.106 	 -0.833134 	 -111.079
| 31> H 	 -105.911 	 -0.0705365 	 -112.674
| 32> C 	 -107.819 	 0.399418 	 -111.71
| 33> H 	 -107.929 	 1.37929 	 -112.08
| 34> H 	 -108.318 	 0.376349 	 -110.819
| 35> C 	 -108.474 	 -0.484022 	 -112.798
| 36> H 	 -109.489 	 -0.160948 	 -112.957
| 37> H 	 -108.548 	 -1.51461 	 -112.397
| 38> H 	 -107.915 	 -0.543825 	 -113.747
| 39> H 	 -106.758 	 5.53404 	 -115.465
| 40> H 	 -103.515 	 2.4509 	 -108.624
| 41> *
| 42>
| 43>                          ****END OF INPUT****

CARTESIAN COORDINATES (ANGSTROEM)
---------------------------------
  S    -105.784000    4.861700  -113.242000
  C    -106.408000    4.689510  -114.853000
  C    -106.609000    3.341300  -115.247000
  C    -106.160000    2.513080  -114.185000
  C    -105.582000    3.155680  -113.102000
  H    -106.407000    1.471070  -114.194000
  C    -107.335000    2.869460  -116.557000
  H    -108.342000    2.452940  -116.339000
  H    -106.780000    2.017650  -116.845000
  C    -107.408000    3.951810  -117.677000
  H    -108.126000    4.676800  -117.391000
  H    -106.528000    4.534660  -117.853000
  C    -107.788000    3.230870  -118.963000
  H    -108.836000    2.999270  -118.978000
  H    -107.543000    3.900970  -119.809000
  H    -107.188000    2.334090  -119.096000
  S    -104.087000    3.498580  -110.873000
  C    -103.986000    2.303540  -109.575000
  C    -104.665000    1.162290  -109.960000
  C    -105.364000    1.217720  -111.192000
  C    -105.219000    2.497880  -111.796000
  H    -104.703000    0.262520  -109.285000
  C    -106.277000    0.094186  -111.627000
  H    -106.106000   -0.833134  -111.079000
  H    -105.911000   -0.070537  -112.674000
  C    -107.819000    0.399418  -111.710000
  H    -107.929000    1.379290  -112.080000
  H    -108.318000    0.376349  -110.819000
  C    -108.474000   -0.484022  -112.798000
  H    -109.489000   -0.160948  -112.957000
  H    -108.548000   -1.514610  -112.397000
  H    -107.915000   -0.543825  -113.747000
  H    -106.758000    5.534040  -115.465000
  H    -103.515000    2.450900  -108.624000

 Total Charge           Charge          ....    0
 Multiplicity           Mult            ....    1
 Number of Electrons    NEL             ....  134
 Basis Dimension        Dim             ....  322

ORBITAL ENERGIES
----------------

  NO   OCC          E(Eh)            E(eV)
   0   2.0000     -88.971098     -2421.0266
   1   2.0000     -88.963408     -2420.8174
   2   2.0000     -10.335876      -281.2535
   3   2.0000     -10.331803      -281.1427
   4   2.0000     -10.316323      -280.7214
   5   2.0000     -10.315808      -280.7074
   6   2.0000     -10.306762      -280.4613
   7   2.0000     -10.306089      -280.4429
   8   2.0000     -10.301475      -280.3174
   9   2.0000     -10.297999      -280.2228
  10   2.0000     -10.295906      -280.1658
  11   2.0000     -10.291562      -280.0476
  12   2.0000     -10.286172      -279.9010
  13   2.0000     -10.281385      -279.7707
  14   2.0000     -10.278979      -279.7052
  15   2.0000     -10.278815      -279.7008
  16   2.0000      -8.086061      -220.0329
  17   2.0000      -8.077573      -219.8019
  18   2.0000      -6.044514      -164.4796
  19   2.0000      -6.040623      -164.3737
  20   2.0000      -6.036774      -164.2690
  21   2.0000      -6.036102      -164.2507
  22   2.0000      -6.032075      -164.1411
  23   2.0000      -6.028456      -164.0426
  24   2.0000      -1.004678       -27.3387
  25   2.0000      -0.980340       -26.6764
  26   2.0000      -0.912561       -24.8320
  27   2.0000      -0.906113       -24.6566
  28   2.0000      -0.864463       -23.5232
  29   2.0000      -0.852217       -23.1900
  30   2.0000      -0.848326       -23.0841
  31   2.0000      -0.809651       -22.0317
  32   2.0000      -0.778530       -21.1849
  33   2.0000      -0.767701       -20.8902
  34   2.0000      -0.716546       -19.4982
  35   2.0000      -0.709740       -19.3130
  36   2.0000      -0.686366       -18.6770
  37   2.0000      -0.663388       -18.0517
  38   2.0000      -0.634346       -17.2614
  39   2.0000      -0.620739       -16.8912
  40   2.0000      -0.592755       -16.1297
  41   2.0000      -0.573551       -15.6071
  42   2.0000      -0.567794       -15.4505
  43   2.0000      -0.560736       -15.2584
  44   2.0000      -0.525303       -14.2942
  45   2.0000      -0.523430       -14.2433
  46   2.0000      -0.514802       -14.0085
  47   2.0000      -0.510804       -13.8997
  48   2.0000      -0.503793       -13.7089
  49   2.0000      -0.494143       -13.4463
  50   2.0000      -0.491557       -13.3759
  51   2.0000      -0.483921       -13.1682
  52   2.0000      -0.471485       -12.8298
  53   2.0000      -0.466372       -12.6906
  54   2.0000      -0.461950       -12.5703
  55   2.0000      -0.452397       -12.3104
  56   2.0000      -0.444791       -12.1034
  57   2.0000      -0.442198       -12.0328
  58   2.0000      -0.434708       -11.8290
  59   2.0000      -0.428249       -11.6532
  60   2.0000      -0.423746       -11.5307
  61   2.0000      -0.419460       -11.4141
  62   2.0000      -0.415336       -11.3019
  63   2.0000      -0.352901        -9.6029
  64   2.0000      -0.333608        -9.0779
  65   2.0000      -0.327809        -8.9201
  66   2.0000      -0.280520        -7.6333
  67   0.0000       0.020447         0.5564
  68   0.0000       0.081484         2.2173
  69   0.0000       0.099353         2.7035
  70   0.0000       0.112933         3.0731
  71   0.0000       0.137765         3.7488

MULLIKEN ATOMIC CHARGES
-----------------------
   0 S :    0.125541
   1 C :   -0.142644
   2 C :   -0.096422
   3 C :   -0.014268
   4 C :   -0.056221
   5 H :   -0.026481
   6 C :    0.065396
   7 H :    0.045650
   8 H :    0.016749
   9 C :   -0.079952
  10 H :    0.027932
  11 H :    0.031627
  12 C :   -0.033360
  13 H :    0.032373
  14 H :    0.032802
  15 H :    0.031486
  16 S :    0.076029
  17 C :   -0.079633
  18 C :   -0.055848
  19 C :   -0.038874
  20 C :   -0.149853
  21 H :    0.031633
  22 C :    0.028929
  23 H :    0.022778
  24 H :    0.034303
  25 C :    0.003099
  26 H :    0.019826
  27 H :    0.015000
  28 C :   -0.077656
  29 H :    0.033464
  30 H :    0.029492
  31 H :    0.037973
  32 H :    0.055456
  33 H :    0.053674
Sum of atomic charges:   -0.0000000

LOEWDIN ATOMIC CHARGES
----------------------
   0 S :    0.431210
   1 C :   -0.211791
   2 C :   -0.058480
   3 C :   -0.070342
   4 C :   -0.208740
   5 H :    0.021712
   6 C :   -0.022712
   7 H :    0.039207
   8 H :    0.022631
   9 C :   -0.038611
  10 H :    0.020600
  11 H :    0.023182
  12 C :   -0.058376
  13 H :    0.022996
  14 H :    0.029486
  15 H :    0.025077
  16 S :    0.388497
  17 C :   -0.185032
  18 C :   -0.075725
  19 C :   -0.066008
  20 C :   -0.178968
  21 H :    0.038412
  22 C :   -0.030698
  23 H :    0.029136
  24 H :    0.035509
  25 C :   -0.023759
  26 H :    0.020852
  27 H :    0.014564
  28 C :   -0.063617
  29 H :    0.023985
  30 H :    0.025491
  31 H :    0.023525
  32 H :    0.028651
  33 H :    0.028136

  Mayer bond orders larger than 0.100000
B(  0-S ,  1-C ) :   1.1569 B(  0-S ,  4-C ) :   1.1602 B(  1-C ,  2-C ) :   1.5821
B(  1-C , 32-H ) :   0.9586 B(  2-C ,  3-C ) :   1.3054 B(  2-C ,  6-C ) :   0.9958
B(  3-C ,  4-C ) :   1.5391 B(  3-C ,  5-H ) :   0.9981 B(  4-C , 20-C ) :   1.0244
B(  6-C ,  7-H ) :   0.9383 B(  6-C ,  8-H ) :   0.9459 B(  6-C ,  9-C ) :   1.0659
B(  9-C , 10-H ) :   0.9487 B(  9-C , 11-H ) :   0.9631 B(  9-C , 12-C ) :   1.0862
B( 12-C , 13-H ) :   0.9750 B( 12-C , 14-H ) :   0.9743 B( 12-C , 15-H ) :   0.9781
B( 16-S , 17-C ) :   1.1450 B( 16-S , 20-C ) :   1.1526 B( 17-C , 18-C ) :   1.5936
B( 17-C , 20-C ) :   0.1073 B( 17-C , 33-H ) :   0.9726 B( 18-C , 19-C ) :   1.2781
B( 18-C , 21-H ) :   0.9772 B( 19-C , 20-C ) :   1.5530 B( 19-C , 22-C ) :   1.0385
B( 22-C , 23-H ) :   0.9369 B( 22-C , 24-H ) :   0.9349 B( 22-C , 25-C ) :   1.0536
B( 25-C , 26-H ) :   0.9571 B( 25-C , 27-H ) :   0.9561 B( 25-C , 28-C ) :   1.0756
B( 28-C , 29-H ) :   0.9740 B( 28-C , 30-H ) :   0.9762 B( 28-C , 31-H ) :   0.9760

Dispersion correction           -0.014123379
FINAL SINGLE POINT ENERGY     -1339.870752940331

DIPOLE MOMENT
-------------
                                X             Y             Z
Electronic contribution:     18.15914      15.56763      20.28545
Nuclear contribution   :    -18.76551     -16.01550     -20.58121
                        -----------------------------------------
Total Dipole Moment    :     -0.60637      -0.44788      -0.29576
                        -----------------------------------------
Magnitude (a.u.)       :      0.80979
Magnitude (Debye)      :      2.05832

Rotational constants in cm-1:     0.020706     0.008099     0.006138
Rotational constants in MHz :   620.741016   242.804753   184.019190

                             ****ORCA TERMINATED NORMALLY****
TOTAL RUN TIME: 0 days 0 hours 0 minutes 21 seconds 473 msec
