                         Program Version 4.2.1 -  RELEASE  -
|  1> ! wB97X-D3 SP def2-SVP
|  2> %pal
|  3> nprocs 24
|  4> end
|  5>
|  6> * xyz 0 1
|  7> S 	 -113.535 	 37.6058 	 -118.024
|  8> C 	 -112.177 	 38.2202 	 -118.982
|  9> C 	 -111.063 	 38.5634 	 -118.206
| 10> C 	 -111.381 	 38.3563 	 -116.831
| 11> C 	 -112.648 	 37.9281 	 -116.536
| 12> H 	 -110.653 	 38.5292 	 -116.019
| 13> C 	 -109.729 	 39.042 	 -118.775
| 14> H 	 -109.531 	 40.0875 	 -118.474
| 15> H 	 -109.716 	 38.9451 	 -119.934
| 16> C 	 -108.494 	 38.2308 	 -118.287
| 17> H 	 -108.332 	 38.1345 	 -117.213
| 18> H 	 -108.69 	 37.1524 	 -118.509
| 19> C 	 -107.258 	 38.7526 	 -119.096
| 20> H 	 -107.361 	 38.6345 	 -120.218
| 21> H 	 -107.078 	 39.7682 	 -118.89
| 22> H 	 -106.303 	 38.2344 	 -118.85
| 23> S 	 -112.799 	 38.7435 	 -113.892
| 24> C 	 -113.684 	 37.8203 	 -112.704
| 25> C 	 -114.346 	 36.7827 	 -113.324
| 26> C 	 -114.147 	 36.7497 	 -114.722
| 27> C 	 -113.205 	 37.6443 	 -115.164
| 28> H 	 -114.989 	 36.1658 	 -112.751
| 29> C 	 -114.934 	 35.7175 	 -115.541
| 30> H 	 -114.87 	 34.7191 	 -115.003
| 31> H 	 -114.434 	 35.6723 	 -116.511
| 32> C 	 -116.358 	 36.0373 	 -115.72
| 33> H 	 -116.378 	 36.9202 	 -116.327
| 34> H 	 -116.9 	 36.3005 	 -114.741
| 35> C 	 -117.117 	 34.9121 	 -116.469
| 36> H 	 -116.685 	 34.7239 	 -117.499
| 37> H 	 -118.252 	 35.1164 	 -116.503
| 38> H 	 -116.98 	 34.0436 	 -115.906
| 39> H 	 -112.046 	 38.2402 	 -120.037
| 40> H 	 -113.878 	 38.0511 	 -111.625
| 41> *
| 42>
| 43>                          ****END OF INPUT****

CARTESIAN COORDINATES (ANGSTROEM)
---------------------------------
  S    -113.535000   37.605800  -118.024000
  C    -112.177000   38.220200  -118.982000
  C    -111.063000   38.563400  -118.206000
  C    -111.381000   38.356300  -116.831000
  C    -112.648000   37.928100  -116.536000
  H    -110.653000   38.529200  -116.019000
  C    -109.729000   39.042000  -118.775000
  H    -109.531000   40.087500  -118.474000
  H    -109.716000   38.945100  -119.934000
  C    -108.494000   38.230800  -118.287000
  H    -108.332000   38.134500  -117.213000
  H    -108.690000   37.152400  -118.509000
  C    -107.258000   38.752600  -119.096000
  H    -107.361000   38.634500  -120.218000
  H    -107.078000   39.768200  -118.890000
  H    -106.303000   38.234400  -118.850000
  S    -112.799000   38.743500  -113.892000
  C    -113.684000   37.820300  -112.704000
  C    -114.346000   36.782700  -113.324000
  C    -114.147000   36.749700  -114.722000
  C    -113.205000   37.644300  -115.164000
  H    -114.989000   36.165800  -112.751000
  C    -114.934000   35.717500  -115.541000
  H    -114.870000   34.719100  -115.003000
  H    -114.434000   35.672300  -116.511000
  C    -116.358000   36.037300  -115.720000
  H    -116.378000   36.920200  -116.327000
  H    -116.900000   36.300500  -114.741000
  C    -117.117000   34.912100  -116.469000
  H    -116.685000   34.723900  -117.499000
  H    -118.252000   35.116400  -116.503000
  H    -116.980000   34.043600  -115.906000
  H    -112.046000   38.240200  -120.037000
  H    -113.878000   38.051100  -111.625000

 Total Charge           Charge          ....    0
 Multiplicity           Mult            ....    1
 Number of Electrons    NEL             ....  134
 Basis Dimension        Dim             ....  322

ORBITAL ENERGIES
----------------

  NO   OCC          E(Eh)            E(eV)
   0   2.0000     -88.973775     -2421.0995
   1   2.0000     -88.967209     -2420.9208
   2   2.0000     -10.336849      -281.2800
   3   2.0000     -10.330575      -281.1092
   4   2.0000     -10.319849      -280.8174
   5   2.0000     -10.316133      -280.7163
   6   2.0000     -10.309140      -280.5260
   7   2.0000     -10.305637      -280.4306
   8   2.0000     -10.299712      -280.2694
   9   2.0000     -10.296139      -280.1722
  10   2.0000     -10.295643      -280.1587
  11   2.0000     -10.290811      -280.0272
  12   2.0000     -10.288776      -279.9718
  13   2.0000     -10.285768      -279.8900
  14   2.0000     -10.284154      -279.8461
  15   2.0000     -10.282860      -279.8108
  16   2.0000      -8.087050      -220.0598
  17   2.0000      -8.082142      -219.9263
  18   2.0000      -6.045765      -164.5136
  19   2.0000      -6.041811      -164.4060
  20   2.0000      -6.040786      -164.3781
  21   2.0000      -6.037651      -164.2928
  22   2.0000      -6.036544      -164.2627
  23   2.0000      -6.032815      -164.1612
  24   2.0000      -1.009219       -27.4623
  25   2.0000      -0.986674       -26.8488
  26   2.0000      -0.915154       -24.9026
  27   2.0000      -0.907444       -24.6928
  28   2.0000      -0.867135       -23.5959
  29   2.0000      -0.851363       -23.1668
  30   2.0000      -0.842860       -22.9354
  31   2.0000      -0.816004       -22.2046
  32   2.0000      -0.778007       -21.1706
  33   2.0000      -0.770258       -20.9598
  34   2.0000      -0.708330       -19.2747
  35   2.0000      -0.696911       -18.9639
  36   2.0000      -0.687072       -18.6962
  37   2.0000      -0.669542       -18.2192
  38   2.0000      -0.631416       -17.1817
  39   2.0000      -0.622581       -16.9413
  40   2.0000      -0.594707       -16.1828
  41   2.0000      -0.573550       -15.6071
  42   2.0000      -0.569507       -15.4971
  43   2.0000      -0.559666       -15.2293
  44   2.0000      -0.523065       -14.2333
  45   2.0000      -0.520501       -14.1635
  46   2.0000      -0.512866       -13.9558
  47   2.0000      -0.509833       -13.8733
  48   2.0000      -0.500670       -13.6239
  49   2.0000      -0.497235       -13.5304
  50   2.0000      -0.492306       -13.3963
  51   2.0000      -0.472823       -12.8662
  52   2.0000      -0.470567       -12.8048
  53   2.0000      -0.465722       -12.6729
  54   2.0000      -0.461613       -12.5611
  55   2.0000      -0.451542       -12.2871
  56   2.0000      -0.445589       -12.1251
  57   2.0000      -0.442401       -12.0383
  58   2.0000      -0.434252       -11.8166
  59   2.0000      -0.423766       -11.5313
  60   2.0000      -0.421009       -11.4562
  61   2.0000      -0.415779       -11.3139
  62   2.0000      -0.412845       -11.2341
  63   2.0000      -0.355408        -9.6711
  64   2.0000      -0.334000        -9.0886
  65   2.0000      -0.331358        -9.0167
  66   2.0000      -0.291063        -7.9202
  67   0.0000       0.027682         0.7533
  68   0.0000       0.078281         2.1301
  69   0.0000       0.102686         2.7942
  70   0.0000       0.119083         3.2404
  71   0.0000       0.128612         3.4997

MULLIKEN ATOMIC CHARGES
-----------------------
   0 S :    0.103647
   1 C :   -0.099060
   2 C :   -0.070059
   3 C :   -0.014122
   4 C :   -0.110468
   5 H :    0.019903
   6 C :    0.029071
   7 H :    0.049200
   8 H :    0.041411
   9 C :   -0.106791
  10 H :    0.040737
  11 H :    0.034455
  12 C :   -0.056605
  13 H :    0.041111
  14 H :    0.023682
  15 H :    0.037564
  16 S :    0.107834
  17 C :   -0.104879
  18 C :   -0.024199
  19 C :   -0.057676
  20 C :   -0.121589
  21 H :    0.002977
  22 C :    0.041663
  23 H :    0.032411
  24 H :    0.017793
  25 C :   -0.081257
  26 H :    0.018132
  27 H :    0.038936
  28 C :   -0.044158
  29 H :    0.042684
  30 H :    0.050863
  31 H :    0.012856
  32 H :    0.030267
  33 H :    0.073665
Sum of atomic charges:   -0.0000000

LOEWDIN ATOMIC CHARGES
----------------------
   0 S :    0.403570
   1 C :   -0.188682
   2 C :   -0.061967
   3 C :   -0.073205
   4 C :   -0.182491
   5 H :    0.031430
   6 C :   -0.033404
   7 H :    0.035121
   8 H :    0.041955
   9 C :   -0.048535
  10 H :    0.024277
  11 H :    0.028361
  12 C :   -0.068953
  13 H :    0.032492
  14 H :    0.016555
  15 H :    0.029884
  16 S :    0.421238
  17 C :   -0.196486
  18 C :   -0.066417
  19 C :   -0.063382
  20 C :   -0.199380
  21 H :    0.025284
  22 C :   -0.038271
  23 H :    0.034515
  24 H :    0.015722
  25 C :   -0.048995
  26 H :    0.018301
  27 H :    0.030424
  28 C :   -0.066965
  29 H :    0.033109
  30 H :    0.037166
  31 H :    0.011539
  32 H :    0.022001
  33 H :    0.044190

  Mayer bond orders larger than 0.100000
B(  0-S ,  1-C ) :   1.1301 B(  0-S ,  4-C ) :   1.1303 B(  1-C ,  2-C ) :   1.6290
B(  1-C , 32-H ) :   0.9628 B(  2-C ,  3-C ) :   1.2406 B(  2-C ,  6-C ) :   1.0201
B(  3-C ,  4-C ) :   1.5862 B(  3-C ,  5-H ) :   0.9854 B(  4-C , 20-C ) :   1.0241
B(  6-C ,  7-H ) :   0.9382 B(  6-C ,  8-H ) :   0.9494 B(  6-C ,  9-C ) :   1.0422
B(  9-C , 10-H ) :   0.9580 B(  9-C , 11-H ) :   0.9574 B(  9-C , 12-C ) :   1.0708
B( 12-C , 13-H ) :   0.9758 B( 12-C , 14-H ) :   0.9765 B( 12-C , 15-H ) :   0.9745
B( 16-S , 17-C ) :   1.1528 B( 16-S , 20-C ) :   1.1458 B( 17-C , 18-C ) :   1.6056
B( 17-C , 33-H ) :   0.9604 B( 18-C , 19-C ) :   1.2513 B( 18-C , 21-H ) :   0.9962
B( 19-C , 20-C ) :   1.5914 B( 19-C , 22-C ) :   1.0365 B( 22-C , 23-H ) :   0.9352
B( 22-C , 24-H ) :   0.9245 B( 22-C , 25-C ) :   1.0730 B( 25-C , 26-H ) :   0.9448
B( 25-C , 27-H ) :   0.9541 B( 25-C , 28-C ) :   1.0785 B( 28-C , 29-H ) :   0.9715
B( 28-C , 30-H ) :   0.9743 B( 28-C , 31-H ) :   0.9742

Dispersion correction           -0.013658450
FINAL SINGLE POINT ENERGY     -1339.881506851108

DIPOLE MOMENT
-------------
                                X             Y             Z
Electronic contribution:     -5.63189       7.44061       9.85134
Nuclear contribution   :      5.83144      -7.59091      -9.85815
                        -----------------------------------------
Total Dipole Moment    :      0.19955      -0.15030      -0.00682
                        -----------------------------------------
Magnitude (a.u.)       :      0.24991
Magnitude (Debye)      :      0.63523

Rotational constants in cm-1:     0.022074     0.007376     0.005893
Rotational constants in MHz :   661.764237   221.125667   176.679600

                             ****ORCA TERMINATED NORMALLY****
TOTAL RUN TIME: 0 days 0 hours 0 minutes 20 seconds 748 msec
