                         Program Version 4.2.1 -  RELEASE  -
|  1> ! wB97X-D3 SP def2-SVP
|  2> %pal
|  3> nprocs 24
|  4> end
|  5>
|  6> * xyz 0 1
|  7> S 	 -45.5929 	 16.0122 	 23.9286
|  8> C 	 -45.4222 	 17.7794 	 24.0969
|  9> C 	 -46.154 	 18.4367 	 23.1206
| 10> C 	 -46.8325 	 17.5195 	 22.2603
| 11> C 	 -46.4693 	 16.1994 	 22.4748
| 12> H 	 -47.4261 	 17.7554 	 21.3746
| 13> C 	 -46.2234 	 19.8865 	 22.989
| 14> H 	 -45.9134 	 20.4143 	 23.8661
| 15> H 	 -47.2977 	 20.0608 	 22.8979
| 16> C 	 -45.502 	 20.3982 	 21.7671
| 17> H 	 -45.847 	 19.92 	 20.8653
| 18> H 	 -45.7052 	 21.4289 	 21.8047
| 19> C 	 -44.026 	 20.0944 	 21.8268
| 20> H 	 -43.5123 	 20.8056 	 21.1762
| 21> H 	 -43.6889 	 20.3271 	 22.8805
| 22> H 	 -43.8282 	 19.0666 	 21.5578
| 23> S 	 -47.8824 	 13.8672 	 22.8963
| 24> C 	 -48.1962 	 12.8481 	 21.5073
| 25> C 	 -47.8546 	 13.404 	 20.3311
| 26> C 	 -47.3049 	 14.7142 	 20.534
| 27> C 	 -46.9719 	 14.9952 	 21.8934
| 28> H 	 -48.0177 	 12.8825 	 19.4145
| 29> C 	 -47.0786 	 15.5815 	 19.2817
| 30> H 	 -46.9903 	 16.6459 	 19.5664
| 31> H 	 -48.0948 	 15.5428 	 18.798
| 32> C 	 -45.8867 	 15.157 	 18.3817
| 33> H 	 -45.9142 	 14.1705 	 17.9982
| 34> H 	 -44.965 	 15.2201 	 18.987
| 35> C 	 -45.7059 	 15.9719 	 17.0397
| 36> H 	 -44.7676 	 15.643 	 16.5116
| 37> H 	 -45.702 	 17.0696 	 17.1621
| 38> H 	 -46.4589 	 15.721 	 16.2439
| 39> H 	 -44.8725 	 18.2923 	 24.8504
| 40> H 	 -48.8206 	 11.9746 	 21.5478
| 41> *
| 42>
| 43>                          ****END OF INPUT****

CARTESIAN COORDINATES (ANGSTROEM)
---------------------------------
  S    -45.592900   16.012200   23.928600
  C    -45.422200   17.779400   24.096900
  C    -46.154000   18.436700   23.120600
  C    -46.832500   17.519500   22.260300
  C    -46.469300   16.199400   22.474800
  H    -47.426100   17.755400   21.374600
  C    -46.223400   19.886500   22.989000
  H    -45.913400   20.414300   23.866100
  H    -47.297700   20.060800   22.897900
  C    -45.502000   20.398200   21.767100
  H    -45.847000   19.920000   20.865300
  H    -45.705200   21.428900   21.804700
  C    -44.026000   20.094400   21.826800
  H    -43.512300   20.805600   21.176200
  H    -43.688900   20.327100   22.880500
  H    -43.828200   19.066600   21.557800
  S    -47.882400   13.867200   22.896300
  C    -48.196200   12.848100   21.507300
  C    -47.854600   13.404000   20.331100
  C    -47.304900   14.714200   20.534000
  C    -46.971900   14.995200   21.893400
  H    -48.017700   12.882500   19.414500
  C    -47.078600   15.581500   19.281700
  H    -46.990300   16.645900   19.566400
  H    -48.094800   15.542800   18.798000
  C    -45.886700   15.157000   18.381700
  H    -45.914200   14.170500   17.998200
  H    -44.965000   15.220100   18.987000
  C    -45.705900   15.971900   17.039700
  H    -44.767600   15.643000   16.511600
  H    -45.702000   17.069600   17.162100
  H    -46.458900   15.721000   16.243900
  H    -44.872500   18.292300   24.850400
  H    -48.820600   11.974600   21.547800

 Total Charge           Charge          ....    0
 Multiplicity           Mult            ....    1
 Number of Electrons    NEL             ....  134
 Basis Dimension        Dim             ....  322

ORBITAL ENERGIES
----------------

  NO   OCC          E(Eh)            E(eV)
   0   2.0000     -88.964582     -2420.8494
   1   2.0000     -88.962874     -2420.8029
   2   2.0000     -10.327409      -281.0231
   3   2.0000     -10.324767      -280.9512
   4   2.0000     -10.312427      -280.6154
   5   2.0000     -10.309792      -280.5437
   6   2.0000     -10.309480      -280.5352
   7   2.0000     -10.302044      -280.3329
   8   2.0000     -10.297115      -280.1987
   9   2.0000     -10.293850      -280.1099
  10   2.0000     -10.292592      -280.0757
  11   2.0000     -10.289760      -279.9986
  12   2.0000     -10.289386      -279.9884
  13   2.0000     -10.282764      -279.8082
  14   2.0000     -10.276670      -279.6424
  15   2.0000     -10.275653      -279.6147
  16   2.0000      -8.079227      -219.8470
  17   2.0000      -8.078085      -219.8159
  18   2.0000      -6.037813      -164.2972
  19   2.0000      -6.036501      -164.2615
  20   2.0000      -6.033890      -164.1905
  21   2.0000      -6.032583      -164.1549
  22   2.0000      -6.029741      -164.0776
  23   2.0000      -6.028845      -164.0532
  24   2.0000      -1.009942       -27.4819
  25   2.0000      -0.984703       -26.7951
  26   2.0000      -0.928107       -25.2551
  27   2.0000      -0.899448       -24.4752
  28   2.0000      -0.874395       -23.7935
  29   2.0000      -0.847301       -23.0562
  30   2.0000      -0.843872       -22.9629
  31   2.0000      -0.814994       -22.1771
  32   2.0000      -0.786273       -21.3956
  33   2.0000      -0.769252       -20.9324
  34   2.0000      -0.712763       -19.3953
  35   2.0000      -0.698392       -19.0042
  36   2.0000      -0.693305       -18.8658
  37   2.0000      -0.657140       -17.8817
  38   2.0000      -0.641583       -17.4584
  39   2.0000      -0.624512       -16.9938
  40   2.0000      -0.596052       -16.2194
  41   2.0000      -0.577486       -15.7142
  42   2.0000      -0.559215       -15.2170
  43   2.0000      -0.553615       -15.0646
  44   2.0000      -0.548556       -14.9270
  45   2.0000      -0.524726       -14.2785
  46   2.0000      -0.515652       -14.0316
  47   2.0000      -0.512532       -13.9467
  48   2.0000      -0.501259       -13.6399
  49   2.0000      -0.498997       -13.5784
  50   2.0000      -0.492543       -13.4028
  51   2.0000      -0.475018       -12.9259
  52   2.0000      -0.468398       -12.7458
  53   2.0000      -0.465455       -12.6657
  54   2.0000      -0.458599       -12.4791
  55   2.0000      -0.450273       -12.2526
  56   2.0000      -0.450082       -12.2473
  57   2.0000      -0.437180       -11.8963
  58   2.0000      -0.431534       -11.7426
  59   2.0000      -0.427274       -11.6267
  60   2.0000      -0.418586       -11.3903
  61   2.0000      -0.417989       -11.3741
  62   2.0000      -0.411787       -11.2053
  63   2.0000      -0.350652        -9.5417
  64   2.0000      -0.328470        -8.9381
  65   2.0000      -0.325915        -8.8686
  66   2.0000      -0.287254        -7.8166
  67   0.0000       0.026824         0.7299
  68   0.0000       0.069732         1.8975
  69   0.0000       0.107078         2.9137
  70   0.0000       0.114471         3.1149
  71   0.0000       0.127138         3.4596

MULLIKEN ATOMIC CHARGES
-----------------------
   0 S :    0.097409
   1 C :   -0.105303
   2 C :   -0.101663
   3 C :    0.024212
   4 C :   -0.169960
   5 H :    0.017942
   6 C :    0.072701
   7 H :    0.011575
   8 H :    0.028146
   9 C :   -0.038096
  10 H :    0.021676
  11 H :    0.019674
  12 C :   -0.051986
  13 H :    0.033609
  14 H :    0.020271
  15 H :    0.052131
  16 S :    0.100786
  17 C :   -0.074009
  18 C :   -0.018889
  19 C :   -0.070425
  20 C :   -0.105556
  21 H :    0.016026
  22 C :    0.049941
  23 H :    0.011657
  24 H :    0.039716
  25 C :   -0.046323
  26 H :    0.022935
  27 H :    0.044518
  28 C :   -0.099707
  29 H :    0.039612
  30 H :    0.039837
  31 H :    0.035933
  32 H :    0.031017
  33 H :    0.050593
Sum of atomic charges:    0.0000000

LOEWDIN ATOMIC CHARGES
----------------------
   0 S :    0.410555
   1 C :   -0.189898
   2 C :   -0.057211
   3 C :   -0.068489
   4 C :   -0.201504
   5 H :    0.029760
   6 C :   -0.033268
   7 H :    0.025451
   8 H :    0.036653
   9 C :   -0.033924
  10 H :    0.021840
  11 H :    0.018957
  12 C :   -0.060659
  13 H :    0.026590
  14 H :    0.025405
  15 H :    0.027993
  16 S :    0.397648
  17 C :   -0.175479
  18 C :   -0.069216
  19 C :   -0.046027
  20 C :   -0.209355
  21 H :    0.032128
  22 C :   -0.039015
  23 H :    0.025805
  24 H :    0.039027
  25 C :   -0.037607
  26 H :    0.020032
  27 H :    0.033095
  28 C :   -0.078949
  29 H :    0.032287
  30 H :    0.022314
  31 H :    0.027582
  32 H :    0.020675
  33 H :    0.026804

  Mayer bond orders larger than 0.100000
B(  0-S ,  1-C ) :   1.1202 B(  0-S ,  4-C ) :   1.1665 B(  1-C ,  2-C ) :   1.6037
B(  1-C , 32-H ) :   0.9753 B(  2-C ,  3-C ) :   1.2334 B(  2-C ,  6-C ) :   1.0358
B(  3-C ,  4-C ) :   1.5613 B(  3-C ,  5-H ) :   0.9834 B(  4-C , 20-C ) :   1.0539
B(  6-C ,  7-H ) :   0.9379 B(  6-C ,  8-H ) :   0.9270 B(  6-C ,  9-C ) :   1.0830
B(  9-C , 10-H ) :   0.9534 B(  9-C , 11-H ) :   0.9539 B(  9-C , 12-C ) :   1.0764
B( 12-C , 13-H ) :   0.9725 B( 12-C , 14-H ) :   0.9754 B( 12-C , 15-H ) :   0.9724
B( 16-S , 17-C ) :   1.1491 B( 16-S , 20-C ) :   1.1271 B( 17-C , 18-C ) :   1.6312
B( 17-C , 33-H ) :   0.9638 B( 18-C , 19-C ) :   1.2245 B( 18-C , 21-H ) :   0.9975
B( 19-C , 20-C ) :   1.5824 B( 19-C , 22-C ) :   1.0449 B( 22-C , 23-H ) :   0.9344
B( 22-C , 24-H ) :   0.9377 B( 22-C , 25-C ) :   1.0551 B( 25-C , 26-H ) :   0.9593
B( 25-C , 27-H ) :   0.9569 B( 25-C , 28-C ) :   1.0707 B( 28-C , 29-H ) :   0.9751
B( 28-C , 30-H ) :   0.9781 B( 28-C , 31-H ) :   0.9768

Dispersion correction           -0.014351381
FINAL SINGLE POINT ENERGY     -1339.869315881168

DIPOLE MOMENT
-------------
                                X             Y             Z
Electronic contribution:     -8.11122     -18.67879      21.88190
Nuclear contribution   :      7.91902      19.08643     -22.50101
                        -----------------------------------------
Total Dipole Moment    :     -0.19220       0.40764      -0.61911
                        -----------------------------------------
Magnitude (a.u.)       :      0.76577
Magnitude (Debye)      :      1.94644

Rotational constants in cm-1:     0.016864     0.009891     0.006827
Rotational constants in MHz :   505.566852   296.511958   204.667675

                             ****ORCA TERMINATED NORMALLY****
TOTAL RUN TIME: 0 days 0 hours 0 minutes 21 seconds 872 msec
