                         Program Version 4.2.1 -  RELEASE  -
|  1> ! wB97X-D3 SP def2-SVP
|  2> %pal
|  3> nprocs 24
|  4> end
|  5>
|  6> * xyz 0 1
|  7> S 	 -62.9727 	 14.2309 	 -103.818
|  8> C 	 -62.941 	 14.5597 	 -102.056
|  9> C 	 -62.3689 	 13.4697 	 -101.329
| 10> C 	 -62.0147 	 12.4258 	 -102.242
| 11> C 	 -62.2192 	 12.6977 	 -103.598
| 12> H 	 -61.6566 	 11.4308 	 -101.964
| 13> C 	 -62.4552 	 13.2615 	 -99.7754
| 14> H 	 -62.0447 	 14.1984 	 -99.4756
| 15> H 	 -61.9878 	 12.4064 	 -99.3122
| 16> C 	 -63.8821 	 13.1961 	 -99.218
| 17> H 	 -64.5189 	 13.8902 	 -99.7966
| 18> H 	 -64.3104 	 12.1504 	 -99.3874
| 19> C 	 -63.956 	 13.5043 	 -97.6464
| 20> H 	 -64.9228 	 13.5311 	 -97.1504
| 21> H 	 -63.3421 	 12.7212 	 -97.1148
| 22> H 	 -63.4347 	 14.4162 	 -97.5723
| 23> S 	 -60.9433 	 12.4806 	 -106
| 24> C 	 -61.1182 	 10.9393 	 -106.889
| 25> C 	 -61.5853 	 9.95757 	 -106.085
| 26> C 	 -62.0122 	 10.4689 	 -104.842
| 27> C 	 -61.825 	 11.8 	 -104.7
| 28> H 	 -61.6779 	 8.94512 	 -106.433
| 29> C 	 -62.8646 	 9.64001 	 -103.873
| 30> H 	 -62.7661 	 9.96563 	 -102.841
| 31> H 	 -62.5682 	 8.59986 	 -103.954
| 32> C 	 -64.3741 	 9.87335 	 -103.97
| 33> H 	 -64.5913 	 10.898 	 -103.609
| 34> H 	 -64.9816 	 9.12216 	 -103.316
| 35> C 	 -65.0065 	 9.72123 	 -105.369
| 36> H 	 -66.0606 	 10.1375 	 -105.317
| 37> H 	 -65.1414 	 8.65785 	 -105.585
| 38> H 	 -64.5351 	 10.3339 	 -106.1
| 39> H 	 -63.3697 	 15.3826 	 -101.533
| 40> H 	 -60.6955 	 10.7745 	 -107.896
| 41> *
| 42>
| 43>                          ****END OF INPUT****

CARTESIAN COORDINATES (ANGSTROEM)
---------------------------------
  S    -62.972700   14.230900  -103.818000
  C    -62.941000   14.559700  -102.056000
  C    -62.368900   13.469700  -101.329000
  C    -62.014700   12.425800  -102.242000
  C    -62.219200   12.697700  -103.598000
  H    -61.656600   11.430800  -101.964000
  C    -62.455200   13.261500  -99.775400
  H    -62.044700   14.198400  -99.475600
  H    -61.987800   12.406400  -99.312200
  C    -63.882100   13.196100  -99.218000
  H    -64.518900   13.890200  -99.796600
  H    -64.310400   12.150400  -99.387400
  C    -63.956000   13.504300  -97.646400
  H    -64.922800   13.531100  -97.150400
  H    -63.342100   12.721200  -97.114800
  H    -63.434700   14.416200  -97.572300
  S    -60.943300   12.480600  -106.000000
  C    -61.118200   10.939300  -106.889000
  C    -61.585300    9.957570  -106.085000
  C    -62.012200   10.468900  -104.842000
  C    -61.825000   11.800000  -104.700000
  H    -61.677900    8.945120  -106.433000
  C    -62.864600    9.640010  -103.873000
  H    -62.766100    9.965630  -102.841000
  H    -62.568200    8.599860  -103.954000
  C    -64.374100    9.873350  -103.970000
  H    -64.591300   10.898000  -103.609000
  H    -64.981600    9.122160  -103.316000
  C    -65.006500    9.721230  -105.369000
  H    -66.060600   10.137500  -105.317000
  H    -65.141400    8.657850  -105.585000
  H    -64.535100   10.333900  -106.100000
  H    -63.369700   15.382600  -101.533000
  H    -60.695500   10.774500  -107.896000

 Total Charge           Charge          ....    0
 Multiplicity           Mult            ....    1
 Number of Electrons    NEL             ....  134
 Basis Dimension        Dim             ....  322

ORBITAL ENERGIES
----------------

  NO   OCC          E(Eh)            E(eV)
   0   2.0000     -88.976914     -2421.1849
   1   2.0000     -88.965419     -2420.8721
   2   2.0000     -10.331039      -281.1219
   3   2.0000     -10.322939      -280.9015
   4   2.0000     -10.322217      -280.8818
   5   2.0000     -10.318354      -280.7767
   6   2.0000     -10.314314      -280.6667
   7   2.0000     -10.298406      -280.2339
   8   2.0000     -10.297698      -280.2146
   9   2.0000     -10.296755      -280.1890
  10   2.0000     -10.295601      -280.1576
  11   2.0000     -10.292419      -280.0710
  12   2.0000     -10.289956      -280.0039
  13   2.0000     -10.287942      -279.9491
  14   2.0000     -10.285423      -279.8806
  15   2.0000     -10.270697      -279.4799
  16   2.0000      -8.090554      -220.1552
  17   2.0000      -8.080552      -219.8830
  18   2.0000      -6.049098      -164.6043
  19   2.0000      -6.045121      -164.4961
  20   2.0000      -6.041434      -164.3958
  21   2.0000      -6.039002      -164.3296
  22   2.0000      -6.035170      -164.2253
  23   2.0000      -6.031179      -164.1167
  24   2.0000      -1.012523       -27.5522
  25   2.0000      -0.984145       -26.7799
  26   2.0000      -0.909279       -24.7427
  27   2.0000      -0.904325       -24.6079
  28   2.0000      -0.869148       -23.6507
  29   2.0000      -0.847090       -23.0505
  30   2.0000      -0.842629       -22.9291
  31   2.0000      -0.812341       -22.1049
  32   2.0000      -0.784521       -21.3479
  33   2.0000      -0.775288       -21.0966
  34   2.0000      -0.704284       -19.1645
  35   2.0000      -0.697843       -18.9893
  36   2.0000      -0.678235       -18.4557
  37   2.0000      -0.667963       -18.1762
  38   2.0000      -0.639711       -17.4074
  39   2.0000      -0.616039       -16.7633
  40   2.0000      -0.590422       -16.0662
  41   2.0000      -0.582642       -15.8545
  42   2.0000      -0.562166       -15.2973
  43   2.0000      -0.558684       -15.2026
  44   2.0000      -0.537885       -14.6366
  45   2.0000      -0.522969       -14.2307
  46   2.0000      -0.516857       -14.0644
  47   2.0000      -0.504550       -13.7295
  48   2.0000      -0.500665       -13.6238
  49   2.0000      -0.495289       -13.4775
  50   2.0000      -0.486567       -13.2402
  51   2.0000      -0.482508       -13.1297
  52   2.0000      -0.476596       -12.9688
  53   2.0000      -0.469688       -12.7808
  54   2.0000      -0.459787       -12.5115
  55   2.0000      -0.445654       -12.1269
  56   2.0000      -0.445275       -12.1165
  57   2.0000      -0.438827       -11.9411
  58   2.0000      -0.425582       -11.5807
  59   2.0000      -0.421089       -11.4584
  60   2.0000      -0.415573       -11.3083
  61   2.0000      -0.413184       -11.2433
  62   2.0000      -0.410143       -11.1605
  63   2.0000      -0.349324        -9.5056
  64   2.0000      -0.335076        -9.1179
  65   2.0000      -0.333413        -9.0726
  66   2.0000      -0.291729        -7.9384
  67   0.0000       0.025789         0.7018
  68   0.0000       0.068943         1.8760
  69   0.0000       0.104356         2.8397
  70   0.0000       0.108747         2.9592
  71   0.0000       0.131931         3.5900

MULLIKEN ATOMIC CHARGES
-----------------------
   0 S :    0.136170
   1 C :   -0.128389
   2 C :   -0.071693
   3 C :    0.015804
   4 C :   -0.163695
   5 H :    0.021902
   6 C :    0.073688
   7 H :    0.024282
   8 H :    0.034156
   9 C :   -0.115223
  10 H :    0.029640
  11 H :    0.038930
  12 C :   -0.051895
  13 H :    0.050768
  14 H :    0.033670
  15 H :    0.021750
  16 S :    0.105216
  17 C :   -0.109159
  18 C :   -0.019034
  19 C :   -0.046517
  20 C :   -0.150826
  21 H :    0.017808
  22 C :    0.113067
  23 H :    0.013378
  24 H :    0.019844
  25 C :   -0.131747
  26 H :    0.043065
  27 H :    0.040104
  28 C :   -0.055863
  29 H :    0.029757
  30 H :    0.031394
  31 H :    0.042213
  32 H :    0.042665
  33 H :    0.064770
Sum of atomic charges:    0.0000000

LOEWDIN ATOMIC CHARGES
----------------------
   0 S :    0.420284
   1 C :   -0.192349
   2 C :   -0.050001
   3 C :   -0.067303
   4 C :   -0.208536
   5 H :    0.030403
   6 C :   -0.027254
   7 H :    0.028408
   8 H :    0.032162
   9 C :   -0.042811
  10 H :    0.018949
  11 H :    0.026513
  12 C :   -0.066273
  13 H :    0.028879
  14 H :    0.029957
  15 H :    0.016334
  16 S :    0.401477
  17 C :   -0.173037
  18 C :   -0.063368
  19 C :   -0.065241
  20 C :   -0.203892
  21 H :    0.034428
  22 C :   -0.033705
  23 H :    0.031073
  24 H :    0.025958
  25 C :   -0.045577
  26 H :    0.025413
  27 H :    0.033435
  28 C :   -0.074708
  29 H :    0.032432
  30 H :    0.022946
  31 H :    0.019754
  32 H :    0.021667
  33 H :    0.033583

  Mayer bond orders larger than 0.100000
B(  0-S ,  1-C ) :   1.1456 B(  0-S ,  4-C ) :   1.1600 B(  1-C ,  2-C ) :   1.5740
B(  1-C ,  4-C ) :   0.1097 B(  1-C , 32-H ) :   0.9701 B(  2-C ,  3-C ) :   1.2752
B(  2-C ,  6-C ) :   1.0067 B(  3-C ,  4-C ) :   1.5507 B(  3-C ,  5-H ) :   0.9837
B(  4-C , 20-C ) :   1.0208 B(  6-C ,  7-H ) :   0.9338 B(  6-C ,  8-H ) :   0.9582
B(  6-C ,  9-C ) :   1.0528 B(  9-C , 10-H ) :   0.9609 B(  9-C , 11-H ) :   0.9601
B(  9-C , 12-C ) :   1.0550 B( 12-C , 13-H ) :   0.9778 B( 12-C , 14-H ) :   0.9767
B( 12-C , 15-H ) :   0.9793 B( 16-S , 17-C ) :   1.1354 B( 16-S , 20-C ) :   1.1483
B( 17-C , 18-C ) :   1.6283 B( 17-C , 33-H ) :   0.9642 B( 18-C , 19-C ) :   1.2263
B( 18-C , 21-H ) :   0.9961 B( 19-C , 20-C ) :   1.6187 B( 19-C , 22-C ) :   1.0533
B( 22-C , 23-H ) :   0.9279 B( 22-C , 24-H ) :   0.9352 B( 22-C , 25-C ) :   1.0558
B( 25-C , 26-H ) :   0.9573 B( 25-C , 27-H ) :   0.9567 B( 25-C , 28-C ) :   1.0846
B( 28-C , 29-H ) :   0.9726 B( 28-C , 30-H ) :   0.9774 B( 28-C , 31-H ) :   0.9716

Dispersion correction           -0.014967748
FINAL SINGLE POINT ENERGY     -1339.863387630541

DIPOLE MOMENT
-------------
                                X             Y             Z
Electronic contribution:     14.55007      10.85933     -21.17914
Nuclear contribution   :    -14.76682     -11.25978      21.62398
                        -----------------------------------------
Total Dipole Moment    :     -0.21674      -0.40044       0.44483
                        -----------------------------------------
Magnitude (a.u.)       :      0.63656
Magnitude (Debye)      :      1.61801

Rotational constants in cm-1:     0.022696     0.007941     0.006751
Rotational constants in MHz :   680.397141   238.064786   202.403484

                             ****ORCA TERMINATED NORMALLY****
TOTAL RUN TIME: 0 days 0 hours 0 minutes 21 seconds 12 msec
