                         Program Version 4.2.1 -  RELEASE  -
|  1> ! wB97X-D3 SP def2-SVP
|  2> %pal
|  3> nprocs 24
|  4> end
|  5>
|  6> * xyz 0 1
|  7> S 	 -105.478 	 18.6318 	 -122.157
|  8> C 	 -105.546 	 19.9926 	 -121.039
|  9> C 	 -105.13 	 19.7263 	 -119.775
| 10> C 	 -104.601 	 18.3807 	 -119.794
| 11> C 	 -104.737 	 17.613 	 -120.945
| 12> H 	 -104.194 	 17.9379 	 -118.923
| 13> C 	 -105.239 	 20.634 	 -118.529
| 14> H 	 -105.431 	 21.6286 	 -118.872
| 15> H 	 -104.256 	 20.5212 	 -118.09
| 16> C 	 -106.317 	 20.2066 	 -117.474
| 17> H 	 -106.201 	 19.1368 	 -117.208
| 18> H 	 -106.055 	 20.8047 	 -116.578
| 19> C 	 -107.655 	 20.6204 	 -118.043
| 20> H 	 -107.964 	 20.0019 	 -118.84
| 21> H 	 -108.368 	 20.4335 	 -117.163
| 22> H 	 -107.782 	 21.7381 	 -118.207
| 23> S 	 -103.491 	 15.8402 	 -122.552
| 24> C 	 -103.359 	 14.2524 	 -121.938
| 25> C 	 -103.984 	 13.9462 	 -120.793
| 26> C 	 -104.449 	 15.1481 	 -120.244
| 27> C 	 -104.381 	 16.2303 	 -121.113
| 28> H 	 -103.977 	 12.9523 	 -120.369
| 29> C 	 -105.084 	 15.1655 	 -118.852
| 30> H 	 -105.766 	 14.3386 	 -118.726
| 31> H 	 -105.682 	 16.1222 	 -118.77
| 32> C 	 -104.041 	 15.0671 	 -117.772
| 33> H 	 -103.389 	 15.8864 	 -117.86
| 34> H 	 -103.408 	 14.1195 	 -117.988
| 35> C 	 -104.54 	 14.8113 	 -116.381
| 36> H 	 -105.124 	 15.5608 	 -115.858
| 37> H 	 -103.867 	 14.4087 	 -115.632
| 38> H 	 -105.19 	 13.9178 	 -116.412
| 39> H 	 -105.919 	 20.9004 	 -121.396
| 40> H 	 -103.131 	 13.3784 	 -122.567
| 41> *
| 42>
| 43>                          ****END OF INPUT****

CARTESIAN COORDINATES (ANGSTROEM)
---------------------------------
  S    -105.478000   18.631800  -122.157000
  C    -105.546000   19.992600  -121.039000
  C    -105.130000   19.726300  -119.775000
  C    -104.601000   18.380700  -119.794000
  C    -104.737000   17.613000  -120.945000
  H    -104.194000   17.937900  -118.923000
  C    -105.239000   20.634000  -118.529000
  H    -105.431000   21.628600  -118.872000
  H    -104.256000   20.521200  -118.090000
  C    -106.317000   20.206600  -117.474000
  H    -106.201000   19.136800  -117.208000
  H    -106.055000   20.804700  -116.578000
  C    -107.655000   20.620400  -118.043000
  H    -107.964000   20.001900  -118.840000
  H    -108.368000   20.433500  -117.163000
  H    -107.782000   21.738100  -118.207000
  S    -103.491000   15.840200  -122.552000
  C    -103.359000   14.252400  -121.938000
  C    -103.984000   13.946200  -120.793000
  C    -104.449000   15.148100  -120.244000
  C    -104.381000   16.230300  -121.113000
  H    -103.977000   12.952300  -120.369000
  C    -105.084000   15.165500  -118.852000
  H    -105.766000   14.338600  -118.726000
  H    -105.682000   16.122200  -118.770000
  C    -104.041000   15.067100  -117.772000
  H    -103.389000   15.886400  -117.860000
  H    -103.408000   14.119500  -117.988000
  C    -104.540000   14.811300  -116.381000
  H    -105.124000   15.560800  -115.858000
  H    -103.867000   14.408700  -115.632000
  H    -105.190000   13.917800  -116.412000
  H    -105.919000   20.900400  -121.396000
  H    -103.131000   13.378400  -122.567000

 Total Charge           Charge          ....    0
 Multiplicity           Mult            ....    1
 Number of Electrons    NEL             ....  134
 Basis Dimension        Dim             ....  322

ORBITAL ENERGIES
----------------

  NO   OCC          E(Eh)            E(eV)
   0   2.0000     -88.967916     -2420.9401
   1   2.0000     -88.962567     -2420.7945
   2   2.0000     -10.326309      -280.9931
   3   2.0000     -10.322893      -280.9002
   4   2.0000     -10.308316      -280.5035
   5   2.0000     -10.307849      -280.4908
   6   2.0000     -10.301716      -280.3239
   7   2.0000     -10.300609      -280.2938
   8   2.0000     -10.295474      -280.1541
   9   2.0000     -10.294940      -280.1396
  10   2.0000     -10.290641      -280.0226
  11   2.0000     -10.289171      -279.9826
  12   2.0000     -10.288094      -279.9533
  13   2.0000     -10.288019      -279.9512
  14   2.0000     -10.284276      -279.8494
  15   2.0000     -10.277521      -279.6656
  16   2.0000      -8.083888      -219.9738
  17   2.0000      -8.077419      -219.7977
  18   2.0000      -6.042186      -164.4162
  19   2.0000      -6.038462      -164.3149
  20   2.0000      -6.036003      -164.2480
  21   2.0000      -6.034551      -164.2085
  22   2.0000      -6.031949      -164.1377
  23   2.0000      -6.028082      -164.0324
  24   2.0000      -1.015625       -27.6366
  25   2.0000      -0.988188       -26.8900
  26   2.0000      -0.916549       -24.9406
  27   2.0000      -0.912498       -24.8303
  28   2.0000      -0.876359       -23.8469
  29   2.0000      -0.857538       -23.3348
  30   2.0000      -0.844210       -22.9721
  31   2.0000      -0.814095       -22.1527
  32   2.0000      -0.785538       -21.3756
  33   2.0000      -0.775205       -21.0944
  34   2.0000      -0.709730       -19.3127
  35   2.0000      -0.697337       -18.9755
  36   2.0000      -0.692602       -18.8466
  37   2.0000      -0.665868       -18.1192
  38   2.0000      -0.642085       -17.4720
  39   2.0000      -0.623526       -16.9670
  40   2.0000      -0.597603       -16.2616
  41   2.0000      -0.573766       -15.6130
  42   2.0000      -0.567081       -15.4310
  43   2.0000      -0.550549       -14.9812
  44   2.0000      -0.547258       -14.8916
  45   2.0000      -0.526935       -14.3386
  46   2.0000      -0.516127       -14.0445
  47   2.0000      -0.514558       -14.0018
  48   2.0000      -0.502480       -13.6732
  49   2.0000      -0.496542       -13.5116
  50   2.0000      -0.487573       -13.2675
  51   2.0000      -0.482143       -13.1198
  52   2.0000      -0.473756       -12.8916
  53   2.0000      -0.469565       -12.7775
  54   2.0000      -0.460850       -12.5404
  55   2.0000      -0.453150       -12.3308
  56   2.0000      -0.446984       -12.1630
  57   2.0000      -0.439831       -11.9684
  58   2.0000      -0.431986       -11.7549
  59   2.0000      -0.426027       -11.5928
  60   2.0000      -0.416865       -11.3435
  61   2.0000      -0.413148       -11.2423
  62   2.0000      -0.410477       -11.1697
  63   2.0000      -0.351450        -9.5635
  64   2.0000      -0.336406        -9.1541
  65   2.0000      -0.327510        -8.9120
  66   2.0000      -0.290001        -7.8913
  67   0.0000       0.030540         0.8310
  68   0.0000       0.079764         2.1705
  69   0.0000       0.111178         3.0253
  70   0.0000       0.122006         3.3199
  71   0.0000       0.124378         3.3845

MULLIKEN ATOMIC CHARGES
-----------------------
   0 S :    0.095798
   1 C :   -0.122036
   2 C :   -0.075078
   3 C :    0.014243
   4 C :   -0.130867
   5 H :   -0.029326
   6 C :    0.093091
   7 H :    0.013807
   8 H :    0.029130
   9 C :   -0.073468
  10 H :    0.041880
  11 H :    0.037453
  12 C :   -0.074342
  13 H :    0.049667
  14 H :    0.034396
  15 H :    0.045955
  16 S :    0.124398
  17 C :   -0.066917
  18 C :   -0.048735
  19 C :   -0.041445
  20 C :   -0.146125
  21 H :    0.023856
  22 C :    0.062920
  23 H :    0.012540
  24 H :    0.037929
  25 C :   -0.074394
  26 H :    0.022408
  27 H :    0.031112
  28 C :   -0.027874
  29 H :    0.028540
  30 H :    0.027613
  31 H :    0.009628
  32 H :    0.020416
  33 H :    0.053827
Sum of atomic charges:    0.0000000

LOEWDIN ATOMIC CHARGES
----------------------
   0 S :    0.388529
   1 C :   -0.177899
   2 C :   -0.062893
   3 C :   -0.062307
   4 C :   -0.199772
   5 H :    0.015071
   6 C :   -0.021645
   7 H :    0.025061
   8 H :    0.029875
   9 C :   -0.039534
  10 H :    0.028757
  11 H :    0.028792
  12 C :   -0.071540
  13 H :    0.022576
  14 H :    0.033356
  15 H :    0.035023
  16 S :    0.430847
  17 C :   -0.194913
  18 C :   -0.069461
  19 C :   -0.045520
  20 C :   -0.205502
  21 H :    0.037884
  22 C :   -0.031699
  23 H :    0.024894
  24 H :    0.033903
  25 C :   -0.043507
  26 H :    0.013481
  27 H :    0.035973
  28 C :   -0.076576
  29 H :    0.021072
  30 H :    0.028828
  31 H :    0.027979
  32 H :    0.010850
  33 H :    0.030015

  Mayer bond orders larger than 0.100000
B(  0-S ,  1-C ) :   1.1375 B(  0-S ,  4-C ) :   1.1314 B(  1-C ,  2-C ) :   1.6195
B(  1-C , 32-H ) :   0.9730 B(  2-C ,  3-C ) :   1.2305 B(  2-C ,  6-C ) :   1.0120
B(  3-C ,  4-C ) :   1.5792 B(  3-C ,  5-H ) :   0.9967 B(  4-C , 20-C ) :   1.0540
B(  6-C ,  7-H ) :   0.9420 B(  6-C ,  8-H ) :   0.9350 B(  6-C ,  9-C ) :   1.0683
B(  9-C , 10-H ) :   0.9555 B(  9-C , 11-H ) :   0.9552 B(  9-C , 12-C ) :   1.0723
B( 12-C , 13-H ) :   0.9778 B( 12-C , 14-H ) :   0.9714 B( 12-C , 15-H ) :   0.9725
B( 16-S , 17-C ) :   1.1654 B( 16-S , 20-C ) :   1.1391 B( 17-C , 18-C ) :   1.6424
B( 17-C , 33-H ) :   0.9468 B( 18-C , 19-C ) :   1.2290 B( 18-C , 21-H ) :   0.9911
B( 19-C , 20-C ) :   1.6046 B( 19-C , 22-C ) :   1.0437 B( 22-C , 23-H ) :   0.9334
B( 22-C , 24-H ) :   0.9315 B( 22-C , 25-C ) :   1.0630 B( 25-C , 26-H ) :   0.9528
B( 25-C , 27-H ) :   0.9513 B( 25-C , 28-C ) :   1.0782 B( 28-C , 29-H ) :   0.9744
B( 28-C , 30-H ) :   0.9722 B( 28-C , 31-H ) :   0.9646

Dispersion correction           -0.014506956
FINAL SINGLE POINT ENERGY     -1339.866651250972

DIPOLE MOMENT
-------------
                                X             Y             Z
Electronic contribution:      7.81987      -2.79809     -30.22149
Nuclear contribution   :     -7.97252       2.68523      30.96719
                        -----------------------------------------
Total Dipole Moment    :     -0.15265      -0.11286       0.74571
                        -----------------------------------------
Magnitude (a.u.)       :      0.76950
Magnitude (Debye)      :      1.95590

Rotational constants in cm-1:     0.017430     0.009933     0.006745
Rotational constants in MHz :   522.543109   297.789499   202.201319

                             ****ORCA TERMINATED NORMALLY****
TOTAL RUN TIME: 0 days 0 hours 0 minutes 22 seconds 303 msec
