                         Program Version 4.2.1 -  RELEASE  -
|  1> ! wB97X-D3 SP def2-SVP
|  2> %pal
|  3> nprocs 24
|  4> end
|  5>
|  6> * xyz 0 1
|  7> S 	 -49.5388 	 6.59595 	 -17.7152
|  8> C 	 -48.3613 	 6.86637 	 -19.093
|  9> C 	 -48.3958 	 8.22763 	 -19.5758
| 10> C 	 -49.3197 	 8.98279 	 -18.8144
| 11> C 	 -49.9714 	 8.23908 	 -17.7876
| 12> H 	 -49.4076 	 10.062 	 -18.9125
| 13> C 	 -47.8108 	 8.71286 	 -20.79
| 14> H 	 -46.9799 	 8.06945 	 -21.0272
| 15> H 	 -47.3482 	 9.63241 	 -20.379
| 16> C 	 -48.792 	 8.99024 	 -21.9476
| 17> H 	 -49.1408 	 10.0356 	 -21.803
| 18> H 	 -48.1928 	 8.98355 	 -22.8508
| 19> C 	 -49.9416 	 7.94012 	 -22.1301
| 20> H 	 -50.7999 	 8.04647 	 -21.404
| 21> H 	 -50.3934 	 7.93445 	 -23.1524
| 22> H 	 -49.5378 	 6.98347 	 -22.0132
| 23> S 	 -50.4365 	 9.47379 	 -15.3677
| 24> C 	 -52.1238 	 9.82447 	 -15.0088
| 25> C 	 -53.0119 	 9.61519 	 -16.0631
| 26> C 	 -52.3523 	 9.06144 	 -17.1795
| 27> C 	 -51.0001 	 8.81947 	 -16.9106
| 28> H 	 -54.0724 	 9.69985 	 -15.8734
| 29> C 	 -53.0406 	 8.61317 	 -18.4666
| 30> H 	 -52.3567 	 8.37742 	 -19.3237
| 31> H 	 -53.69 	 9.47297 	 -18.7717
| 32> C 	 -53.9155 	 7.3957 	 -18.2816
| 33> H 	 -53.6564 	 6.84788 	 -17.4202
| 34> H 	 -53.7314 	 6.73874 	 -19.1233
| 35> C 	 -55.4356 	 7.70596 	 -18.1337
| 36> H 	 -55.5432 	 8.08608 	 -17.0803
| 37> H 	 -55.8742 	 6.71891 	 -18.1957
| 38> H 	 -55.8668 	 8.43577 	 -18.8014
| 39> H 	 -47.732 	 6.14096 	 -19.5199
| 40> H 	 -52.3725 	 10.2791 	 -14.0704
| 41> *
| 42>
| 43>                          ****END OF INPUT****

CARTESIAN COORDINATES (ANGSTROEM)
---------------------------------
  S    -49.538800    6.595950  -17.715200
  C    -48.361300    6.866370  -19.093000
  C    -48.395800    8.227630  -19.575800
  C    -49.319700    8.982790  -18.814400
  C    -49.971400    8.239080  -17.787600
  H    -49.407600   10.062000  -18.912500
  C    -47.810800    8.712860  -20.790000
  H    -46.979900    8.069450  -21.027200
  H    -47.348200    9.632410  -20.379000
  C    -48.792000    8.990240  -21.947600
  H    -49.140800   10.035600  -21.803000
  H    -48.192800    8.983550  -22.850800
  C    -49.941600    7.940120  -22.130100
  H    -50.799900    8.046470  -21.404000
  H    -50.393400    7.934450  -23.152400
  H    -49.537800    6.983470  -22.013200
  S    -50.436500    9.473790  -15.367700
  C    -52.123800    9.824470  -15.008800
  C    -53.011900    9.615190  -16.063100
  C    -52.352300    9.061440  -17.179500
  C    -51.000100    8.819470  -16.910600
  H    -54.072400    9.699850  -15.873400
  C    -53.040600    8.613170  -18.466600
  H    -52.356700    8.377420  -19.323700
  H    -53.690000    9.472970  -18.771700
  C    -53.915500    7.395700  -18.281600
  H    -53.656400    6.847880  -17.420200
  H    -53.731400    6.738740  -19.123300
  C    -55.435600    7.705960  -18.133700
  H    -55.543200    8.086080  -17.080300
  H    -55.874200    6.718910  -18.195700
  H    -55.866800    8.435770  -18.801400
  H    -47.732000    6.140960  -19.519900
  H    -52.372500   10.279100  -14.070400

 Total Charge           Charge          ....    0
 Multiplicity           Mult            ....    1
 Number of Electrons    NEL             ....  134
 Basis Dimension        Dim             ....  322

ORBITAL ENERGIES
----------------

  NO   OCC          E(Eh)            E(eV)
   0   2.0000     -88.972003     -2421.0513
   1   2.0000     -88.965694     -2420.8796
   2   2.0000     -10.326120      -280.9880
   3   2.0000     -10.322040      -280.8770
   4   2.0000     -10.316968      -280.7390
   5   2.0000     -10.315973      -280.7119
   6   2.0000     -10.303661      -280.3769
   7   2.0000     -10.298949      -280.2487
   8   2.0000     -10.295246      -280.1479
   9   2.0000     -10.294888      -280.1382
  10   2.0000     -10.291852      -280.0555
  11   2.0000     -10.291361      -280.0422
  12   2.0000     -10.287980      -279.9502
  13   2.0000     -10.281686      -279.7789
  14   2.0000     -10.279369      -279.7158
  15   2.0000     -10.276278      -279.6317
  16   2.0000      -8.085648      -220.0217
  17   2.0000      -8.080178      -219.8728
  18   2.0000      -6.044017      -164.4661
  19   2.0000      -6.040271      -164.3641
  20   2.0000      -6.038393      -164.3130
  21   2.0000      -6.036676      -164.2663
  22   2.0000      -6.034919      -164.2185
  23   2.0000      -6.031069      -164.1137
  24   2.0000      -0.999424       -27.1957
  25   2.0000      -0.976430       -26.5700
  26   2.0000      -0.918891       -25.0043
  27   2.0000      -0.908424       -24.7195
  28   2.0000      -0.857334       -23.3293
  29   2.0000      -0.848364       -23.0852
  30   2.0000      -0.843395       -22.9500
  31   2.0000      -0.805155       -21.9094
  32   2.0000      -0.786037       -21.3892
  33   2.0000      -0.769406       -20.9366
  34   2.0000      -0.710434       -19.3319
  35   2.0000      -0.700015       -19.0484
  36   2.0000      -0.689118       -18.7518
  37   2.0000      -0.660305       -17.9678
  38   2.0000      -0.629603       -17.1324
  39   2.0000      -0.616776       -16.7833
  40   2.0000      -0.600412       -16.3380
  41   2.0000      -0.558800       -15.2057
  42   2.0000      -0.553192       -15.0531
  43   2.0000      -0.550987       -14.9931
  44   2.0000      -0.540423       -14.7057
  45   2.0000      -0.530177       -14.4269
  46   2.0000      -0.523982       -14.2583
  47   2.0000      -0.512346       -13.9416
  48   2.0000      -0.494997       -13.4695
  49   2.0000      -0.489802       -13.3282
  50   2.0000      -0.481648       -13.1063
  51   2.0000      -0.474864       -12.9217
  52   2.0000      -0.469921       -12.7872
  53   2.0000      -0.466172       -12.6852
  54   2.0000      -0.457650       -12.4533
  55   2.0000      -0.448959       -12.2168
  56   2.0000      -0.448268       -12.1980
  57   2.0000      -0.441544       -12.0150
  58   2.0000      -0.438488       -11.9319
  59   2.0000      -0.425512       -11.5788
  60   2.0000      -0.417114       -11.3503
  61   2.0000      -0.412734       -11.2311
  62   2.0000      -0.408605       -11.1187
  63   2.0000      -0.337226        -9.1764
  64   2.0000      -0.328066        -8.9271
  65   2.0000      -0.309381        -8.4187
  66   2.0000      -0.301916        -8.2155
  67   0.0000       0.041251         1.1225
  68   0.0000       0.050642         1.3780
  69   0.0000       0.109537         2.9806
  70   0.0000       0.109826         2.9885
  71   0.0000       0.122889         3.3440

MULLIKEN ATOMIC CHARGES
-----------------------
   0 S :    0.127596
   1 C :   -0.115747
   2 C :   -0.112188
   3 C :    0.026516
   4 C :   -0.176590
   5 H :    0.015970
   6 C :    0.071702
   7 H :    0.012341
   8 H :    0.036021
   9 C :   -0.057232
  10 H :    0.036795
  11 H :    0.033448
  12 C :   -0.045585
  13 H :    0.051453
  14 H :    0.039285
  15 H :    0.015057
  16 S :    0.115279
  17 C :   -0.094225
  18 C :   -0.040152
  19 C :    0.006473
  20 C :   -0.205352
  21 H :    0.024593
  22 C :    0.050882
  23 H :    0.046367
  24 H :    0.032787
  25 C :   -0.063089
  26 H :    0.025865
  27 H :    0.024194
  28 C :   -0.061812
  29 H :    0.029831
  30 H :    0.038583
  31 H :    0.038678
  32 H :    0.024290
  33 H :    0.047966
Sum of atomic charges:    0.0000000

LOEWDIN ATOMIC CHARGES
----------------------
   0 S :    0.412785
   1 C :   -0.188096
   2 C :   -0.055431
   3 C :   -0.065209
   4 C :   -0.217091
   5 H :    0.031360
   6 C :   -0.043173
   7 H :    0.027731
   8 H :    0.043504
   9 C :   -0.034740
  10 H :    0.028579
  11 H :    0.027691
  12 C :   -0.067588
  13 H :    0.032887
  14 H :    0.032096
  15 H :    0.016774
  16 S :    0.397261
  17 C :   -0.170480
  18 C :   -0.073833
  19 C :   -0.047876
  20 C :   -0.204647
  21 H :    0.033549
  22 C :   -0.036210
  23 H :    0.038007
  24 H :    0.035144
  25 C :   -0.039485
  26 H :    0.021143
  27 H :    0.022478
  28 C :   -0.063588
  29 H :    0.027362
  30 H :    0.028105
  31 H :    0.020087
  32 H :    0.011595
  33 H :    0.019309

  Mayer bond orders larger than 0.100000
B(  0-S ,  1-C ) :   1.1318 B(  0-S ,  4-C ) :   1.1884 B(  1-C ,  2-C ) :   1.5571
B(  1-C ,  4-C ) :   0.1088 B(  1-C , 32-H ) :   0.9714 B(  2-C ,  3-C ) :   1.2661
B(  2-C ,  6-C ) :   1.0444 B(  3-C ,  4-C ) :   1.5387 B(  3-C ,  5-H ) :   0.9932
B(  4-C , 20-C ) :   1.0032 B(  6-C ,  7-H ) :   0.9292 B(  6-C ,  8-H ) :   0.9328
B(  6-C ,  9-C ) :   1.0547 B(  9-C , 10-H ) :   0.9539 B(  9-C , 11-H ) :   0.9574
B(  9-C , 12-C ) :   1.0755 B( 12-C , 13-H ) :   0.9698 B( 12-C , 14-H ) :   0.9737
B( 12-C , 15-H ) :   0.9733 B( 16-S , 17-C ) :   1.1622 B( 16-S , 20-C ) :   1.1495
B( 17-C , 18-C ) :   1.6116 B( 17-C , 20-C ) :   0.1059 B( 17-C , 33-H ) :   0.9690
B( 18-C , 19-C ) :   1.2249 B( 18-C , 21-H ) :   0.9906 B( 19-C , 20-C ) :   1.6080
B( 19-C , 22-C ) :   1.0528 B( 22-C , 23-H ) :   0.9356 B( 22-C , 24-H ) :   0.9377
B( 22-C , 25-C ) :   1.0483 B( 25-C , 26-H ) :   0.9589 B( 25-C , 27-H ) :   0.9620
B( 25-C , 28-C ) :   1.0723 B( 28-C , 29-H ) :   0.9772 B( 28-C , 30-H ) :   0.9732
B( 28-C , 31-H ) :   0.9790

Dispersion correction           -0.015846892
FINAL SINGLE POINT ENERGY     -1339.860692337949

DIPOLE MOMENT
-------------
                                X             Y             Z
Electronic contribution:     12.21471       0.20946      21.65167
Nuclear contribution   :    -12.41617      -0.10114     -22.15417
                        -----------------------------------------
Total Dipole Moment    :     -0.20146       0.10832      -0.50251
                        -----------------------------------------
Magnitude (a.u.)       :      0.55212
Magnitude (Debye)      :      1.40337

Rotational constants in cm-1:     0.018426     0.009456     0.007599
Rotational constants in MHz :   552.409966   283.472915   227.814996

                             ****ORCA TERMINATED NORMALLY****
TOTAL RUN TIME: 0 days 0 hours 0 minutes 22 seconds 513 msec
