                         Program Version 4.2.1 -  RELEASE  -
|  1> ! wB97X-D3 SP def2-SVP
|  2> %pal
|  3> nprocs 24
|  4> end
|  5>
|  6> * xyz 0 1
|  7> S 	 -99.1714 	 7.55927 	 1.38979
|  8> C 	 -99.7377 	 8.02334 	 -0.240833
|  9> C 	 -98.648 	 8.06045 	 -1.08325
| 10> C 	 -97.4108 	 7.93439 	 -0.397479
| 11> C 	 -97.4761 	 7.97739 	 1.02813
| 12> H 	 -96.502 	 7.94583 	 -0.869918
| 13> C 	 -98.7473 	 8.10727 	 -2.58774
| 14> H 	 -99.3202 	 7.17432 	 -2.83521
| 15> H 	 -97.7798 	 8.07017 	 -2.99834
| 16> C 	 -99.3467 	 9.42868 	 -3.08784
| 17> H 	 -100.234 	 9.73244 	 -2.59236
| 18> H 	 -98.6453 	 10.2149 	 -2.88243
| 19> C 	 -99.5281 	 9.72213 	 -4.62319
| 20> H 	 -98.6164 	 9.92939 	 -5.18688
| 21> H 	 -100.083 	 8.89208 	 -5.00979
| 22> H 	 -100.179 	 10.6471 	 -4.84152
| 23> S 	 -96.5439 	 6.52458 	 3.25058
| 24> C 	 -94.8771 	 6.78839 	 3.75779
| 25> C 	 -94.3163 	 7.84816 	 3.07683
| 26> C 	 -95.1643 	 8.44401 	 2.07419
| 27> C 	 -96.4371 	 7.84305 	 1.97503
| 28> H 	 -93.3965 	 8.13395 	 3.41817
| 29> C 	 -94.7739 	 9.66287 	 1.30082
| 30> H 	 -95.5776 	 9.87464 	 0.616301
| 31> H 	 -94.0093 	 9.42821 	 0.554275
| 32> C 	 -94.2684 	 10.9013 	 2.09713
| 33> H 	 -94.0105 	 11.6927 	 1.33199
| 34> H 	 -93.3831 	 10.6434 	 2.71294
| 35> C 	 -95.4136 	 11.4243 	 2.98733
| 36> H 	 -95.0764 	 12.1411 	 3.69374
| 37> H 	 -95.9305 	 10.6985 	 3.64478
| 38> H 	 -96.136 	 12.0187 	 2.41823
| 39> H 	 -100.771 	 7.98405 	 -0.57196
| 40> H 	 -94.4222 	 6.3867 	 4.64484
| 41> *
| 42>
| 43>                          ****END OF INPUT****

CARTESIAN COORDINATES (ANGSTROEM)
---------------------------------
  S    -99.171400    7.559270    1.389790
  C    -99.737700    8.023340   -0.240833
  C    -98.648000    8.060450   -1.083250
  C    -97.410800    7.934390   -0.397479
  C    -97.476100    7.977390    1.028130
  H    -96.502000    7.945830   -0.869918
  C    -98.747300    8.107270   -2.587740
  H    -99.320200    7.174320   -2.835210
  H    -97.779800    8.070170   -2.998340
  C    -99.346700    9.428680   -3.087840
  H    -100.234000    9.732440   -2.592360
  H    -98.645300   10.214900   -2.882430
  C    -99.528100    9.722130   -4.623190
  H    -98.616400    9.929390   -5.186880
  H    -100.083000    8.892080   -5.009790
  H    -100.179000   10.647100   -4.841520
  S    -96.543900    6.524580    3.250580
  C    -94.877100    6.788390    3.757790
  C    -94.316300    7.848160    3.076830
  C    -95.164300    8.444010    2.074190
  C    -96.437100    7.843050    1.975030
  H    -93.396500    8.133950    3.418170
  C    -94.773900    9.662870    1.300820
  H    -95.577600    9.874640    0.616301
  H    -94.009300    9.428210    0.554275
  C    -94.268400   10.901300    2.097130
  H    -94.010500   11.692700    1.331990
  H    -93.383100   10.643400    2.712940
  C    -95.413600   11.424300    2.987330
  H    -95.076400   12.141100    3.693740
  H    -95.930500   10.698500    3.644780
  H    -96.136000   12.018700    2.418230
  H    -100.771000    7.984050   -0.571960
  H    -94.422200    6.386700    4.644840

 Total Charge           Charge          ....    0
 Multiplicity           Mult            ....    1
 Number of Electrons    NEL             ....  134
 Basis Dimension        Dim             ....  322

ORBITAL ENERGIES
----------------

  NO   OCC          E(Eh)            E(eV)
   0   2.0000     -88.964413     -2420.8447
   1   2.0000     -88.963839     -2420.8291
   2   2.0000     -10.336946      -281.2826
   3   2.0000     -10.335108      -281.2326
   4   2.0000     -10.320159      -280.8258
   5   2.0000     -10.318543      -280.7818
   6   2.0000     -10.310517      -280.5634
   7   2.0000     -10.301817      -280.3267
   8   2.0000     -10.297764      -280.2164
   9   2.0000     -10.296164      -280.1729
  10   2.0000     -10.295573      -280.1568
  11   2.0000     -10.290701      -280.0242
  12   2.0000     -10.287780      -279.9447
  13   2.0000     -10.285618      -279.8859
  14   2.0000     -10.285293      -279.8770
  15   2.0000     -10.270521      -279.4751
  16   2.0000      -8.078158      -219.8179
  17   2.0000      -8.077365      -219.7963
  18   2.0000      -6.036854      -164.2712
  19   2.0000      -6.036110      -164.2509
  20   2.0000      -6.032964      -164.1653
  21   2.0000      -6.032049      -164.1404
  22   2.0000      -6.028598      -164.0465
  23   2.0000      -6.027921      -164.0281
  24   2.0000      -1.000349       -27.2209
  25   2.0000      -0.977371       -26.5956
  26   2.0000      -0.912703       -24.8359
  27   2.0000      -0.904878       -24.6230
  28   2.0000      -0.873041       -23.7566
  29   2.0000      -0.847542       -23.0628
  30   2.0000      -0.839371       -22.8404
  31   2.0000      -0.815294       -22.1853
  32   2.0000      -0.785061       -21.3626
  33   2.0000      -0.773059       -21.0360
  34   2.0000      -0.715810       -19.4782
  35   2.0000      -0.704802       -19.1786
  36   2.0000      -0.697429       -18.9780
  37   2.0000      -0.657495       -17.8914
  38   2.0000      -0.641307       -17.4508
  39   2.0000      -0.619522       -16.8580
  40   2.0000      -0.597389       -16.2558
  41   2.0000      -0.578592       -15.7443
  42   2.0000      -0.563090       -15.3225
  43   2.0000      -0.545547       -14.8451
  44   2.0000      -0.539721       -14.6866
  45   2.0000      -0.526126       -14.3166
  46   2.0000      -0.522453       -14.2167
  47   2.0000      -0.513648       -13.9771
  48   2.0000      -0.512796       -13.9539
  49   2.0000      -0.498049       -13.5526
  50   2.0000      -0.490142       -13.3374
  51   2.0000      -0.478296       -13.0151
  52   2.0000      -0.473536       -12.8856
  53   2.0000      -0.463277       -12.6064
  54   2.0000      -0.456443       -12.4205
  55   2.0000      -0.445906       -12.1337
  56   2.0000      -0.443637       -12.0720
  57   2.0000      -0.431418       -11.7395
  58   2.0000      -0.427717       -11.6388
  59   2.0000      -0.425148       -11.5689
  60   2.0000      -0.423201       -11.5159
  61   2.0000      -0.412033       -11.2120
  62   2.0000      -0.407651       -11.0928
  63   2.0000      -0.354062        -9.6345
  64   2.0000      -0.329722        -8.9722
  65   2.0000      -0.324986        -8.8433
  66   2.0000      -0.283287        -7.7086
  67   0.0000       0.007969         0.2168
  68   0.0000       0.063869         1.7380
  69   0.0000       0.099153         2.6981
  70   0.0000       0.120529         3.2798
  71   0.0000       0.124368         3.3842

MULLIKEN ATOMIC CHARGES
-----------------------
   0 S :    0.081126
   1 C :   -0.109209
   2 C :   -0.118556
   3 C :    0.070999
   4 C :   -0.148681
   5 H :   -0.020234
   6 C :    0.123512
   7 H :    0.050608
   8 H :    0.004177
   9 C :   -0.084284
  10 H :    0.022038
  11 H :    0.022599
  12 C :   -0.076487
  13 H :    0.039517
  14 H :    0.027239
  15 H :    0.041841
  16 S :    0.079232
  17 C :   -0.082193
  18 C :   -0.006742
  19 C :   -0.041956
  20 C :   -0.125624
  21 H :   -0.017768
  22 C :    0.075567
  23 H :    0.006568
  24 H :    0.026260
  25 C :   -0.080737
  26 H :    0.044370
  27 H :    0.042635
  28 C :   -0.052712
  29 H :    0.012676
  30 H :    0.050262
  31 H :    0.029476
  32 H :    0.055238
  33 H :    0.059246
Sum of atomic charges:   -0.0000000

LOEWDIN ATOMIC CHARGES
----------------------
   0 S :    0.378626
   1 C :   -0.180353
   2 C :   -0.064536
   3 C :   -0.045294
   4 C :   -0.179899
   5 H :    0.012577
   6 C :   -0.024447
   7 H :    0.040031
   8 H :    0.023937
   9 C :   -0.041964
  10 H :    0.017852
  11 H :    0.026791
  12 C :   -0.071929
  13 H :    0.023151
  14 H :    0.017317
  15 H :    0.037885
  16 S :    0.358366
  17 C :   -0.169152
  18 C :   -0.062528
  19 C :   -0.046484
  20 C :   -0.174027
  21 H :    0.015884
  22 C :   -0.041612
  23 H :    0.026679
  24 H :    0.032038
  25 C :   -0.036726
  26 H :    0.035932
  27 H :    0.025373
  28 C :   -0.074353
  29 H :    0.018381
  30 H :    0.032592
  31 H :    0.027905
  32 H :    0.031050
  33 H :    0.030938

  Mayer bond orders larger than 0.100000
B(  0-S ,  1-C ) :   1.1355 B(  0-S ,  4-C ) :   1.1381 B(  1-C ,  2-C ) :   1.5781
B(  1-C ,  4-C ) :   0.1114 B(  1-C , 32-H ) :   0.9716 B(  2-C ,  3-C ) :   1.2835
B(  2-C ,  6-C ) :   1.0182 B(  3-C ,  4-C ) :   1.4894 B(  3-C ,  5-H ) :   1.0012
B(  4-C , 20-C ) :   1.1402 B(  6-C ,  7-H ) :   0.9370 B(  6-C ,  8-H ) :   0.9372
B(  6-C ,  9-C ) :   1.0570 B(  9-C , 10-H ) :   0.9643 B(  9-C , 11-H ) :   0.9565
B(  9-C , 12-C ) :   1.0723 B( 12-C , 13-H ) :   0.9798 B( 12-C , 14-H ) :   0.9775
B( 12-C , 15-H ) :   0.9745 B( 16-S , 17-C ) :   1.1448 B( 16-S , 20-C ) :   1.0937
B( 17-C , 18-C ) :   1.6351 B( 17-C , 33-H ) :   0.9632 B( 18-C , 19-C ) :   1.2045
B( 18-C , 21-H ) :   1.0056 B( 19-C , 20-C ) :   1.5780 B( 19-C , 22-C ) :   1.0618
B( 22-C , 23-H ) :   0.9252 B( 22-C , 24-H ) :   0.9235 B( 22-C , 25-C ) :   1.0672
B( 25-C , 26-H ) :   0.9531 B( 25-C , 27-H ) :   0.9572 B( 25-C , 28-C ) :   1.0733
B( 28-C , 29-H ) :   0.9726 B( 28-C , 30-H ) :   0.9754 B( 28-C , 31-H ) :   0.9747

Dispersion correction           -0.013879352
FINAL SINGLE POINT ENERGY     -1339.847847161912

DIPOLE MOMENT
-------------
                                X             Y             Z
Electronic contribution:     -3.52873     -19.64022      18.84029
Nuclear contribution   :      3.92589      20.00934     -19.33640
                        -----------------------------------------
Total Dipole Moment    :      0.39715       0.36911      -0.49611
                        -----------------------------------------
Magnitude (a.u.)       :      0.73492
Magnitude (Debye)      :      1.86801

Rotational constants in cm-1:     0.020621     0.007600     0.006238
Rotational constants in MHz :   618.216193   227.842714   187.009872

                             ****ORCA TERMINATED NORMALLY****
TOTAL RUN TIME: 0 days 0 hours 0 minutes 21 seconds 232 msec
