                         Program Version 4.2.1 -  RELEASE  -
|  1> ! wB97X-D3 SP def2-SVP
|  2> %pal
|  3> nprocs 24
|  4> end
|  5>
|  6> * xyz 0 1
|  7> S 	 -112.394 	 15.398 	 -7.01683
|  8> C 	 -111.602 	 14.1455 	 -6.10803
|  9> C 	 -112.015 	 12.8874 	 -6.52604
| 10> C 	 -112.921 	 12.9501 	 -7.62137
| 11> C 	 -113.241 	 14.2107 	 -8.02347
| 12> H 	 -113.357 	 12.1189 	 -8.19298
| 13> C 	 -111.503 	 11.6083 	 -5.91249
| 14> H 	 -110.534 	 11.9167 	 -5.60269
| 15> H 	 -111.518 	 10.8941 	 -6.73252
| 16> C 	 -112.273 	 10.9851 	 -4.80845
| 17> H 	 -113.193 	 10.5427 	 -5.17197
| 18> H 	 -111.706 	 10.2386 	 -4.30965
| 19> C 	 -112.51 	 11.982 	 -3.66237
| 20> H 	 -111.633 	 12.4907 	 -3.29596
| 21> H 	 -113.353 	 12.5505 	 -3.93412
| 22> H 	 -112.886 	 11.432 	 -2.79062
| 23> S 	 -113.402 	 15.2335 	 -10.5342
| 24> C 	 -114.956 	 15.2826 	 -11.3387
| 25> C 	 -116.004 	 14.9035 	 -10.4995
| 26> C 	 -115.536 	 14.4521 	 -9.25969
| 27> C 	 -114.128 	 14.6253 	 -9.09484
| 28> H 	 -117.006 	 14.9223 	 -10.8676
| 29> C 	 -116.503 	 13.9556 	 -8.19264
| 30> H 	 -115.98 	 13.2262 	 -7.52601
| 31> H 	 -117.142 	 13.3426 	 -8.69475
| 32> C 	 -117.369 	 15.0902 	 -7.52422
| 33> H 	 -118.275 	 14.6273 	 -7.09699
| 34> H 	 -117.873 	 15.8855 	 -8.10414
| 35> C 	 -116.631 	 15.8034 	 -6.38469
| 36> H 	 -117.198 	 16.5075 	 -5.73885
| 37> H 	 -115.849 	 16.4603 	 -6.81406
| 38> H 	 -116.106 	 15.036 	 -5.74963
| 39> H 	 -110.897 	 14.1371 	 -5.32416
| 40> H 	 -115.136 	 15.6773 	 -12.3164
| 41> *
| 42>
| 43>                          ****END OF INPUT****

CARTESIAN COORDINATES (ANGSTROEM)
---------------------------------
  S    -112.394000   15.398000   -7.016830
  C    -111.602000   14.145500   -6.108030
  C    -112.015000   12.887400   -6.526040
  C    -112.921000   12.950100   -7.621370
  C    -113.241000   14.210700   -8.023470
  H    -113.357000   12.118900   -8.192980
  C    -111.503000   11.608300   -5.912490
  H    -110.534000   11.916700   -5.602690
  H    -111.518000   10.894100   -6.732520
  C    -112.273000   10.985100   -4.808450
  H    -113.193000   10.542700   -5.171970
  H    -111.706000   10.238600   -4.309650
  C    -112.510000   11.982000   -3.662370
  H    -111.633000   12.490700   -3.295960
  H    -113.353000   12.550500   -3.934120
  H    -112.886000   11.432000   -2.790620
  S    -113.402000   15.233500  -10.534200
  C    -114.956000   15.282600  -11.338700
  C    -116.004000   14.903500  -10.499500
  C    -115.536000   14.452100   -9.259690
  C    -114.128000   14.625300   -9.094840
  H    -117.006000   14.922300  -10.867600
  C    -116.503000   13.955600   -8.192640
  H    -115.980000   13.226200   -7.526010
  H    -117.142000   13.342600   -8.694750
  C    -117.369000   15.090200   -7.524220
  H    -118.275000   14.627300   -7.096990
  H    -117.873000   15.885500   -8.104140
  C    -116.631000   15.803400   -6.384690
  H    -117.198000   16.507500   -5.738850
  H    -115.849000   16.460300   -6.814060
  H    -116.106000   15.036000   -5.749630
  H    -110.897000   14.137100   -5.324160
  H    -115.136000   15.677300  -12.316400

 Total Charge           Charge          ....    0
 Multiplicity           Mult            ....    1
 Number of Electrons    NEL             ....  134
 Basis Dimension        Dim             ....  322

ORBITAL ENERGIES
----------------

  NO   OCC          E(Eh)            E(eV)
   0   2.0000     -88.968231     -2420.9486
   1   2.0000     -88.965793     -2420.8823
   2   2.0000     -10.325440      -280.9695
   3   2.0000     -10.324527      -280.9447
   4   2.0000     -10.316494      -280.7261
   5   2.0000     -10.308379      -280.5052
   6   2.0000     -10.304908      -280.4108
   7   2.0000     -10.294714      -280.1334
   8   2.0000     -10.291862      -280.0558
   9   2.0000     -10.291700      -280.0514
  10   2.0000     -10.291604      -280.0488
  11   2.0000     -10.291296      -280.0404
  12   2.0000     -10.283324      -279.8235
  13   2.0000     -10.278990      -279.7055
  14   2.0000     -10.275978      -279.6236
  15   2.0000     -10.269147      -279.4377
  16   2.0000      -8.083221      -219.9556
  17   2.0000      -8.079985      -219.8676
  18   2.0000      -6.041521      -164.3981
  19   2.0000      -6.038492      -164.3157
  20   2.0000      -6.037604      -164.2916
  21   2.0000      -6.034534      -164.2080
  22   2.0000      -6.034268      -164.2008
  23   2.0000      -6.030796      -164.1063
  24   2.0000      -1.006493       -27.3881
  25   2.0000      -0.984849       -26.7991
  26   2.0000      -0.920529       -25.0489
  27   2.0000      -0.902969       -24.5710
  28   2.0000      -0.870563       -23.6892
  29   2.0000      -0.848016       -23.0757
  30   2.0000      -0.846389       -23.0314
  31   2.0000      -0.815468       -22.1900
  32   2.0000      -0.785424       -21.3725
  33   2.0000      -0.771806       -21.0019
  34   2.0000      -0.710063       -19.3218
  35   2.0000      -0.696699       -18.9581
  36   2.0000      -0.694561       -18.9000
  37   2.0000      -0.660401       -17.9704
  38   2.0000      -0.639067       -17.3899
  39   2.0000      -0.619221       -16.8499
  40   2.0000      -0.594245       -16.1702
  41   2.0000      -0.572851       -15.5881
  42   2.0000      -0.558727       -15.2037
  43   2.0000      -0.551519       -15.0076
  44   2.0000      -0.547759       -14.9053
  45   2.0000      -0.528496       -14.3811
  46   2.0000      -0.523132       -14.2351
  47   2.0000      -0.518137       -14.0992
  48   2.0000      -0.503908       -13.7120
  49   2.0000      -0.493679       -13.4337
  50   2.0000      -0.483035       -13.1441
  51   2.0000      -0.476500       -12.9662
  52   2.0000      -0.469617       -12.7789
  53   2.0000      -0.463142       -12.6027
  54   2.0000      -0.458289       -12.4707
  55   2.0000      -0.442684       -12.0460
  56   2.0000      -0.441345       -12.0096
  57   2.0000      -0.439179       -11.9507
  58   2.0000      -0.433287       -11.7903
  59   2.0000      -0.428725       -11.6662
  60   2.0000      -0.426559       -11.6073
  61   2.0000      -0.405730       -11.0405
  62   2.0000      -0.404500       -11.0070
  63   2.0000      -0.342625        -9.3233
  64   2.0000      -0.330398        -8.9906
  65   2.0000      -0.322356        -8.7717
  66   2.0000      -0.299207        -8.1418
  67   0.0000       0.038112         1.0371
  68   0.0000       0.060656         1.6505
  69   0.0000       0.121672         3.3109
  70   0.0000       0.124078         3.3763
  71   0.0000       0.127727         3.4756

MULLIKEN ATOMIC CHARGES
-----------------------
   0 S :    0.121039
   1 C :   -0.070244
   2 C :   -0.154543
   3 C :    0.053010
   4 C :   -0.184751
   5 H :    0.016082
   6 C :    0.112960
   7 H :    0.007566
   8 H :    0.019576
   9 C :   -0.033313
  10 H :    0.022849
  11 H :    0.022003
  12 C :   -0.053205
  13 H :    0.030185
  14 H :    0.035060
  15 H :    0.017665
  16 S :    0.131522
  17 C :   -0.093710
  18 C :   -0.031683
  19 C :   -0.032230
  20 C :   -0.178071
  21 H :    0.012672
  22 C :    0.133694
  23 H :    0.031756
  24 H :   -0.008789
  25 C :   -0.077666
  26 H :    0.022441
  27 H :    0.034102
  28 C :   -0.077114
  29 H :    0.036460
  30 H :    0.033823
  31 H :    0.036249
  32 H :    0.015680
  33 H :    0.048925
Sum of atomic charges:    0.0000000

LOEWDIN ATOMIC CHARGES
----------------------
   0 S :    0.405825
   1 C :   -0.197153
   2 C :   -0.064123
   3 C :   -0.065265
   4 C :   -0.194889
   5 H :    0.036087
   6 C :   -0.028288
   7 H :    0.026034
   8 H :    0.032184
   9 C :   -0.035018
  10 H :    0.023989
  11 H :    0.022261
  12 C :   -0.062814
  13 H :    0.022444
  14 H :    0.021632
  15 H :    0.026096
  16 S :    0.433480
  17 C :   -0.183062
  18 C :   -0.066739
  19 C :   -0.048609
  20 C :   -0.224190
  21 H :    0.030843
  22 C :   -0.022186
  23 H :    0.039648
  24 H :    0.017503
  25 C :   -0.045287
  26 H :    0.023264
  27 H :    0.030341
  28 C :   -0.076986
  29 H :    0.026090
  30 H :    0.024939
  31 H :    0.027747
  32 H :    0.020294
  33 H :    0.023910

  Mayer bond orders larger than 0.100000
B(  0-S ,  1-C ) :   1.1356 B(  0-S ,  4-C ) :   1.1424 B(  1-C ,  2-C ) :   1.6196
B(  1-C , 32-H ) :   0.9669 B(  2-C ,  3-C ) :   1.2288 B(  2-C ,  6-C ) :   1.0126
B(  3-C ,  4-C ) :   1.6088 B(  3-C ,  5-H ) :   0.9912 B(  4-C , 20-C ) :   1.0127
B(  6-C ,  7-H ) :   0.9338 B(  6-C ,  8-H ) :   0.9363 B(  6-C ,  9-C ) :   1.0926
B(  9-C , 10-H ) :   0.9515 B(  9-C , 11-H ) :   0.9545 B(  9-C , 12-C ) :   1.0836
B( 12-C , 13-H ) :   0.9750 B( 12-C , 14-H ) :   0.9722 B( 12-C , 15-H ) :   0.9712
B( 16-S , 17-C ) :   1.1770 B( 16-S , 20-C ) :   1.1716 B( 17-C , 18-C ) :   1.5750
B( 17-C , 20-C ) :   0.1116 B( 17-C , 33-H ) :   0.9686 B( 18-C , 19-C ) :   1.2769
B( 18-C , 21-H ) :   0.9955 B( 19-C , 20-C ) :   1.5396 B( 19-C , 22-C ) :   1.0428
B( 22-C , 23-H ) :   0.9368 B( 22-C , 24-H ) :   0.9183 B( 22-C , 25-C ) :   1.0530
B( 25-C , 26-H ) :   0.9554 B( 25-C , 27-H ) :   0.9603 B( 25-C , 28-C ) :   1.0705
B( 28-C , 29-H ) :   0.9745 B( 28-C , 30-H ) :   0.9763 B( 28-C , 31-H ) :   0.9761

Dispersion correction           -0.015353460
FINAL SINGLE POINT ENERGY     -1339.868383531880

DIPOLE MOMENT
-------------
                                X             Y             Z
Electronic contribution:     10.10254      11.43721     -19.97318
Nuclear contribution   :    -10.50219     -11.92783      20.10351
                        -----------------------------------------
Total Dipole Moment    :     -0.39965      -0.49062       0.13033
                        -----------------------------------------
Magnitude (a.u.)       :      0.64607
Magnitude (Debye)      :      1.64219

Rotational constants in cm-1:     0.020723     0.008726     0.007462
Rotational constants in MHz :   621.268713   261.602145   223.694177

                             ****ORCA TERMINATED NORMALLY****
TOTAL RUN TIME: 0 days 0 hours 0 minutes 22 seconds 177 msec
