                         Program Version 4.2.1 -  RELEASE  -
|  1> ! wB97X-D3 SP def2-SVP
|  2> %pal
|  3> nprocs 24
|  4> end
|  5>
|  6> * xyz 0 1
|  7> S 	 -114.647 	 22.9365 	 -116.965
|  8> C 	 -114.953 	 21.2455 	 -116.424
|  9> C 	 -113.794 	 20.6227 	 -116.018
| 10> C 	 -112.687 	 21.4861 	 -116.092
| 11> C 	 -112.928 	 22.7237 	 -116.692
| 12> H 	 -111.744 	 21.2517 	 -115.68
| 13> C 	 -113.669 	 19.2178 	 -115.546
| 14> H 	 -113.184 	 18.7643 	 -116.405
| 15> H 	 -114.694 	 18.8309 	 -115.778
| 16> C 	 -113.276 	 18.9325 	 -114.049
| 17> H 	 -113.698 	 19.6208 	 -113.328
| 18> H 	 -113.535 	 17.8987 	 -113.76
| 19> C 	 -111.796 	 18.9902 	 -113.769
| 20> H 	 -111.409 	 20.0278 	 -113.93
| 21> H 	 -111.476 	 18.6786 	 -112.712
| 22> H 	 -111.337 	 18.115 	 -114.386
| 23> S 	 -112.38 	 25.4634 	 -116.349
| 24> C 	 -110.815 	 25.9817 	 -116.903
| 25> C 	 -110.027 	 25.0271 	 -117.422
| 26> C 	 -110.692 	 23.7712 	 -117.503
| 27> C 	 -112.008 	 23.8319 	 -116.917
| 28> H 	 -108.989 	 25.1615 	 -117.647
| 29> C 	 -110.113 	 22.5868 	 -118.22
| 30> H 	 -109.563 	 22.8535 	 -119.106
| 31> H 	 -110.93 	 21.8979 	 -118.565
| 32> C 	 -109.299 	 21.6088 	 -117.302
| 33> H 	 -109.665 	 21.5913 	 -116.304
| 34> H 	 -108.309 	 22.0343 	 -117.333
| 35> C 	 -109.249 	 20.1859 	 -117.82
| 36> H 	 -110.156 	 19.6054 	 -117.887
| 37> H 	 -108.538 	 19.6053 	 -117.26
| 38> H 	 -108.76 	 20.2138 	 -118.797
| 39> H 	 -115.912 	 20.7377 	 -116.381
| 40> H 	 -110.252 	 26.8937 	 -116.608
| 41> *
| 42>
| 43>                          ****END OF INPUT****

CARTESIAN COORDINATES (ANGSTROEM)
---------------------------------
  S    -114.647000   22.936500  -116.965000
  C    -114.953000   21.245500  -116.424000
  C    -113.794000   20.622700  -116.018000
  C    -112.687000   21.486100  -116.092000
  C    -112.928000   22.723700  -116.692000
  H    -111.744000   21.251700  -115.680000
  C    -113.669000   19.217800  -115.546000
  H    -113.184000   18.764300  -116.405000
  H    -114.694000   18.830900  -115.778000
  C    -113.276000   18.932500  -114.049000
  H    -113.698000   19.620800  -113.328000
  H    -113.535000   17.898700  -113.760000
  C    -111.796000   18.990200  -113.769000
  H    -111.409000   20.027800  -113.930000
  H    -111.476000   18.678600  -112.712000
  H    -111.337000   18.115000  -114.386000
  S    -112.380000   25.463400  -116.349000
  C    -110.815000   25.981700  -116.903000
  C    -110.027000   25.027100  -117.422000
  C    -110.692000   23.771200  -117.503000
  C    -112.008000   23.831900  -116.917000
  H    -108.989000   25.161500  -117.647000
  C    -110.113000   22.586800  -118.220000
  H    -109.563000   22.853500  -119.106000
  H    -110.930000   21.897900  -118.565000
  C    -109.299000   21.608800  -117.302000
  H    -109.665000   21.591300  -116.304000
  H    -108.309000   22.034300  -117.333000
  C    -109.249000   20.185900  -117.820000
  H    -110.156000   19.605400  -117.887000
  H    -108.538000   19.605300  -117.260000
  H    -108.760000   20.213800  -118.797000
  H    -115.912000   20.737700  -116.381000
  H    -110.252000   26.893700  -116.608000

 Total Charge           Charge          ....    0
 Multiplicity           Mult            ....    1
 Number of Electrons    NEL             ....  134
 Basis Dimension        Dim             ....  322

ORBITAL ENERGIES
----------------

  NO   OCC          E(Eh)            E(eV)
   0   2.0000     -88.971628     -2421.0411
   1   2.0000     -88.966021     -2420.8885
   2   2.0000     -10.331206      -281.1264
   3   2.0000     -10.331036      -281.1218
   4   2.0000     -10.315108      -280.6884
   5   2.0000     -10.313450      -280.6432
   6   2.0000     -10.305788      -280.4348
   7   2.0000     -10.298846      -280.2458
   8   2.0000     -10.296609      -280.1850
   9   2.0000     -10.296282      -280.1761
  10   2.0000     -10.294059      -280.1156
  11   2.0000     -10.289718      -279.9975
  12   2.0000     -10.288090      -279.9532
  13   2.0000     -10.287759      -279.9442
  14   2.0000     -10.282271      -279.7948
  15   2.0000     -10.273510      -279.5564
  16   2.0000      -8.085873      -220.0278
  17   2.0000      -8.079902      -219.8653
  18   2.0000      -6.044411      -164.4768
  19   2.0000      -6.040538      -164.3714
  20   2.0000      -6.038483      -164.3155
  21   2.0000      -6.036551      -164.2629
  22   2.0000      -6.034625      -164.2105
  23   2.0000      -6.030546      -164.0995
  24   2.0000      -1.003181       -27.2979
  25   2.0000      -0.982608       -26.7381
  26   2.0000      -0.913266       -24.8512
  27   2.0000      -0.908456       -24.7203
  28   2.0000      -0.871855       -23.7244
  29   2.0000      -0.853785       -23.2327
  30   2.0000      -0.846841       -23.0437
  31   2.0000      -0.817427       -22.2433
  32   2.0000      -0.785169       -21.3655
  33   2.0000      -0.766290       -20.8518
  34   2.0000      -0.708017       -19.2661
  35   2.0000      -0.698172       -18.9982
  36   2.0000      -0.693348       -18.8670
  37   2.0000      -0.656962       -17.8769
  38   2.0000      -0.637404       -17.3446
  39   2.0000      -0.622938       -16.9510
  40   2.0000      -0.596975       -16.2445
  41   2.0000      -0.575653       -15.6643
  42   2.0000      -0.566618       -15.4185
  43   2.0000      -0.547419       -14.8960
  44   2.0000      -0.538008       -14.6399
  45   2.0000      -0.525298       -14.2941
  46   2.0000      -0.519629       -14.1398
  47   2.0000      -0.511907       -13.9297
  48   2.0000      -0.497722       -13.5437
  49   2.0000      -0.494287       -13.4502
  50   2.0000      -0.491686       -13.3795
  51   2.0000      -0.485631       -13.2147
  52   2.0000      -0.479417       -13.0456
  53   2.0000      -0.468061       -12.7366
  54   2.0000      -0.457719       -12.4552
  55   2.0000      -0.448720       -12.2103
  56   2.0000      -0.436685       -11.8828
  57   2.0000      -0.430402       -11.7118
  58   2.0000      -0.428633       -11.6637
  59   2.0000      -0.424722       -11.5573
  60   2.0000      -0.420226       -11.4349
  61   2.0000      -0.417725       -11.3669
  62   2.0000      -0.413349       -11.2478
  63   2.0000      -0.348566        -9.4849
  64   2.0000      -0.332622        -9.0511
  65   2.0000      -0.330196        -8.9851
  66   2.0000      -0.285401        -7.7662
  67   0.0000       0.024239         0.6596
  68   0.0000       0.070220         1.9108
  69   0.0000       0.103547         2.8177
  70   0.0000       0.120585         3.2813
  71   0.0000       0.128998         3.5102

MULLIKEN ATOMIC CHARGES
-----------------------
   0 S :    0.097386
   1 C :   -0.120076
   2 C :   -0.117213
   3 C :    0.054803
   4 C :   -0.147716
   5 H :   -0.038725
   6 C :    0.080933
   7 H :    0.039616
   8 H :    0.005062
   9 C :   -0.017682
  10 H :    0.041471
  11 H :    0.034589
  12 C :   -0.129940
  13 H :    0.055088
  14 H :    0.043540
  15 H :    0.041765
  16 S :    0.123822
  17 C :   -0.074970
  18 C :   -0.039083
  19 C :   -0.028911
  20 C :   -0.153940
  21 H :    0.014316
  22 C :    0.036125
  23 H :    0.028455
  24 H :    0.032124
  25 C :   -0.057348
  26 H :    0.029014
  27 H :    0.020171
  28 C :   -0.040993
  29 H :    0.039419
  30 H :    0.022262
  31 H :    0.019652
  32 H :    0.043098
  33 H :    0.063887
Sum of atomic charges:   -0.0000000

LOEWDIN ATOMIC CHARGES
----------------------
   0 S :    0.381937
   1 C :   -0.186258
   2 C :   -0.068107
   3 C :   -0.061530
   4 C :   -0.184705
   5 H :    0.017427
   6 C :   -0.039058
   7 H :    0.040496
   8 H :    0.035964
   9 C :   -0.038529
  10 H :    0.029814
  11 H :    0.030830
  12 C :   -0.083910
  13 H :    0.025384
  14 H :    0.031850
  15 H :    0.033389
  16 S :    0.407717
  17 C :   -0.196999
  18 C :   -0.071281
  19 C :   -0.044999
  20 C :   -0.201112
  21 H :    0.031556
  22 C :   -0.036158
  23 H :    0.027916
  24 H :    0.036856
  25 C :   -0.032661
  26 H :    0.015002
  27 H :    0.022436
  28 C :   -0.067170
  29 H :    0.023040
  30 H :    0.025356
  31 H :    0.026613
  32 H :    0.028070
  33 H :    0.040820

  Mayer bond orders larger than 0.100000
B(  0-S ,  1-C ) :   1.1211 B(  0-S ,  4-C ) :   1.1464 B(  1-C ,  2-C ) :   1.6224
B(  1-C , 32-H ) :   0.9609 B(  2-C ,  3-C ) :   1.2482 B(  2-C ,  6-C ) :   1.0119
B(  3-C ,  4-C ) :   1.5621 B(  3-C ,  5-H ) :   0.9965 B(  4-C , 20-C ) :   1.0619
B(  6-C ,  7-H ) :   0.9367 B(  6-C ,  8-H ) :   0.9278 B(  6-C ,  9-C ) :   1.0340
B(  9-C , 10-H ) :   0.9592 B(  9-C , 11-H ) :   0.9572 B(  9-C , 12-C ) :   1.0784
B( 12-C , 13-H ) :   0.9699 B( 12-C , 14-H ) :   0.9694 B( 12-C , 15-H ) :   0.9756
B( 16-S , 17-C ) :   1.1430 B( 16-S , 20-C ) :   1.1371 B( 17-C , 18-C ) :   1.6380
B( 17-C , 33-H ) :   0.9496 B( 18-C , 19-C ) :   1.2517 B( 18-C , 21-H ) :   0.9880
B( 19-C , 20-C ) :   1.5611 B( 19-C , 22-C ) :   1.0554 B( 22-C , 23-H ) :   0.9418
B( 22-C , 24-H ) :   0.9371 B( 22-C , 25-C ) :   1.0391 B( 25-C , 26-H ) :   0.9608
B( 25-C , 27-H ) :   0.9492 B( 25-C , 28-C ) :   1.0986 B( 28-C , 29-H ) :   0.9730
B( 28-C , 30-H ) :   0.9696 B( 28-C , 31-H ) :   0.9689

Dispersion correction           -0.015212983
FINAL SINGLE POINT ENERGY     -1339.859555564622

DIPOLE MOMENT
-------------
                                X             Y             Z
Electronic contribution:    -15.94223      26.88204      -4.68630
Nuclear contribution   :     16.48961     -27.50311       4.89284
                        -----------------------------------------
Total Dipole Moment    :      0.54738      -0.62107       0.20655
                        -----------------------------------------
Magnitude (a.u.)       :      0.85323
Magnitude (Debye)      :      2.16875

Rotational constants in cm-1:     0.017134     0.010141     0.007461
Rotational constants in MHz :   513.657225   304.022524   223.662322

                             ****ORCA TERMINATED NORMALLY****
TOTAL RUN TIME: 0 days 0 hours 0 minutes 22 seconds 740 msec
