                         Program Version 4.2.1 -  RELEASE  -
|  1> ! wB97X-D3 SP def2-SVP
|  2> %pal
|  3> nprocs 24
|  4> end
|  5>
|  6> * xyz 0 1
|  7> S 	 -109.261 	 65.2632 	 -74.9187
|  8> C 	 -107.748 	 64.4367 	 -74.5225
|  9> C 	 -107.953 	 63.0525 	 -74.4201
| 10> C 	 -109.325 	 62.6876 	 -74.5995
| 11> C 	 -110.218 	 63.6967 	 -74.8258
| 12> H 	 -109.725 	 61.7149 	 -74.4656
| 13> C 	 -106.842 	 62.0665 	 -74.0667
| 14> H 	 -106.983 	 61.8926 	 -73.0088
| 15> H 	 -105.892 	 62.4781 	 -74.073
| 16> C 	 -106.859 	 60.6857 	 -74.7887
| 17> H 	 -106.149 	 60.1317 	 -74.2836
| 18> H 	 -107.903 	 60.3865 	 -74.5384
| 19> C 	 -106.537 	 60.7354 	 -76.2764
| 20> H 	 -105.476 	 61.0595 	 -76.4014
| 21> H 	 -106.654 	 59.7468 	 -76.7083
| 22> H 	 -107.201 	 61.2714 	 -76.9055
| 23> S 	 -112.748 	 64.6005 	 -74.271
| 24> C 	 -114.123 	 63.9129 	 -75.1093
| 25> C 	 -113.707 	 63.0046 	 -76.0603
| 26> C 	 -112.251 	 62.8671 	 -76.1905
| 27> C 	 -111.627 	 63.6042 	 -75.1451
| 28> H 	 -114.519 	 62.4481 	 -76.648
| 29> C 	 -111.478 	 62.0785 	 -77.3527
| 30> H 	 -112.132 	 61.167 	 -77.5433
| 31> H 	 -110.655 	 61.6509 	 -76.8079
| 32> C 	 -111.212 	 62.8106 	 -78.7135
| 33> H 	 -112.134 	 63.1716 	 -79.1426
| 34> H 	 -110.857 	 61.9905 	 -79.3942
| 35> C 	 -110.243 	 63.9304 	 -78.5284
| 36> H 	 -109.858 	 64.1719 	 -79.5349
| 37> H 	 -109.488 	 63.6736 	 -77.8797
| 38> H 	 -110.724 	 64.7829 	 -78.0637
| 39> H 	 -106.827 	 64.9335 	 -74.269
| 40> H 	 -115.226 	 64.0516 	 -74.8582
| 41> *
| 42>
| 43>                          ****END OF INPUT****

CARTESIAN COORDINATES (ANGSTROEM)
---------------------------------
  S    -109.261000   65.263200  -74.918700
  C    -107.748000   64.436700  -74.522500
  C    -107.953000   63.052500  -74.420100
  C    -109.325000   62.687600  -74.599500
  C    -110.218000   63.696700  -74.825800
  H    -109.725000   61.714900  -74.465600
  C    -106.842000   62.066500  -74.066700
  H    -106.983000   61.892600  -73.008800
  H    -105.892000   62.478100  -74.073000
  C    -106.859000   60.685700  -74.788700
  H    -106.149000   60.131700  -74.283600
  H    -107.903000   60.386500  -74.538400
  C    -106.537000   60.735400  -76.276400
  H    -105.476000   61.059500  -76.401400
  H    -106.654000   59.746800  -76.708300
  H    -107.201000   61.271400  -76.905500
  S    -112.748000   64.600500  -74.271000
  C    -114.123000   63.912900  -75.109300
  C    -113.707000   63.004600  -76.060300
  C    -112.251000   62.867100  -76.190500
  C    -111.627000   63.604200  -75.145100
  H    -114.519000   62.448100  -76.648000
  C    -111.478000   62.078500  -77.352700
  H    -112.132000   61.167000  -77.543300
  H    -110.655000   61.650900  -76.807900
  C    -111.212000   62.810600  -78.713500
  H    -112.134000   63.171600  -79.142600
  H    -110.857000   61.990500  -79.394200
  C    -110.243000   63.930400  -78.528400
  H    -109.858000   64.171900  -79.534900
  H    -109.488000   63.673600  -77.879700
  H    -110.724000   64.782900  -78.063700
  H    -106.827000   64.933500  -74.269000
  H    -115.226000   64.051600  -74.858200

 Total Charge           Charge          ....    0
 Multiplicity           Mult            ....    1
 Number of Electrons    NEL             ....  134
 Basis Dimension        Dim             ....  322

ORBITAL ENERGIES
----------------

  NO   OCC          E(Eh)            E(eV)
   0   2.0000     -88.968254     -2420.9493
   1   2.0000     -88.963302     -2420.8145
   2   2.0000     -10.334030      -281.2033
   3   2.0000     -10.330801      -281.1154
   4   2.0000     -10.323905      -280.9277
   5   2.0000     -10.317884      -280.7639
   6   2.0000     -10.317156      -280.7441
   7   2.0000     -10.305494      -280.4267
   8   2.0000     -10.304425      -280.3977
   9   2.0000     -10.301899      -280.3289
  10   2.0000     -10.293710      -280.1061
  11   2.0000     -10.288712      -279.9701
  12   2.0000     -10.287165      -279.9280
  13   2.0000     -10.285518      -279.8832
  14   2.0000     -10.277247      -279.6581
  15   2.0000     -10.261246      -279.2227
  16   2.0000      -8.083088      -219.9520
  17   2.0000      -8.076327      -219.7680
  18   2.0000      -6.041674      -164.4023
  19   2.0000      -6.037482      -164.2882
  20   2.0000      -6.035033      -164.2216
  21   2.0000      -6.033850      -164.1894
  22   2.0000      -6.031076      -164.1139
  23   2.0000      -6.026966      -164.0021
  24   2.0000      -0.999907       -27.2089
  25   2.0000      -0.975837       -26.5539
  26   2.0000      -0.910102       -24.7651
  27   2.0000      -0.902012       -24.5450
  28   2.0000      -0.869624       -23.6637
  29   2.0000      -0.846950       -23.0467
  30   2.0000      -0.840319       -22.8663
  31   2.0000      -0.816707       -22.2237
  32   2.0000      -0.784139       -21.3375
  33   2.0000      -0.770473       -20.9656
  34   2.0000      -0.711197       -19.3527
  35   2.0000      -0.696782       -18.9604
  36   2.0000      -0.690989       -18.8028
  37   2.0000      -0.648027       -17.6337
  38   2.0000      -0.641756       -17.4631
  39   2.0000      -0.625819       -17.0294
  40   2.0000      -0.586386       -15.9564
  41   2.0000      -0.565666       -15.3925
  42   2.0000      -0.549260       -14.9461
  43   2.0000      -0.546549       -14.8724
  44   2.0000      -0.541653       -14.7391
  45   2.0000      -0.536109       -14.5883
  46   2.0000      -0.518676       -14.1139
  47   2.0000      -0.511141       -13.9088
  48   2.0000      -0.503074       -13.6893
  49   2.0000      -0.497308       -13.5324
  50   2.0000      -0.491877       -13.3847
  51   2.0000      -0.478850       -13.0302
  52   2.0000      -0.474100       -12.9009
  53   2.0000      -0.460828       -12.5398
  54   2.0000      -0.458085       -12.4651
  55   2.0000      -0.448648       -12.2083
  56   2.0000      -0.443905       -12.0793
  57   2.0000      -0.435774       -11.8580
  58   2.0000      -0.432225       -11.7614
  59   2.0000      -0.421814       -11.4781
  60   2.0000      -0.418323       -11.3831
  61   2.0000      -0.410106       -11.1596
  62   2.0000      -0.408644       -11.1198
  63   2.0000      -0.345486        -9.4012
  64   2.0000      -0.330583        -8.9956
  65   2.0000      -0.326674        -8.8892
  66   2.0000      -0.293874        -7.9967
  67   0.0000       0.025991         0.7072
  68   0.0000       0.064272         1.7489
  69   0.0000       0.113822         3.0973
  70   0.0000       0.118733         3.2309
  71   0.0000       0.122465         3.3324

MULLIKEN ATOMIC CHARGES
-----------------------
   0 S :    0.083955
   1 C :   -0.121078
   2 C :   -0.082659
   3 C :    0.026945
   4 C :   -0.136516
   5 H :    0.009667
   6 C :    0.079516
   7 H :    0.033417
   8 H :   -0.011394
   9 C :   -0.052844
  10 H :    0.017287
  11 H :    0.029535
  12 C :   -0.030604
  13 H :    0.037937
  14 H :    0.026194
  15 H :    0.029040
  16 S :    0.119147
  17 C :   -0.119065
  18 C :   -0.068925
  19 C :   -0.057122
  20 C :   -0.186884
  21 H :    0.048530
  22 C :    0.047599
  23 H :    0.026174
  24 H :    0.015119
  25 C :   -0.049027
  26 H :    0.027195
  27 H :    0.038271
  28 C :    0.002639
  29 H :    0.032184
  30 H :    0.015497
  31 H :    0.035005
  32 H :    0.049727
  33 H :    0.085536
Sum of atomic charges:   -0.0000000

LOEWDIN ATOMIC CHARGES
----------------------
   0 S :    0.356009
   1 C :   -0.188095
   2 C :   -0.059535
   3 C :   -0.063538
   4 C :   -0.165472
   5 H :    0.026068
   6 C :   -0.028425
   7 H :    0.035716
   8 H :    0.014064
   9 C :   -0.031009
  10 H :    0.017157
  11 H :    0.026286
  12 C :   -0.065322
  13 H :    0.032906
  14 H :    0.027767
  15 H :    0.021512
  16 S :    0.416183
  17 C :   -0.204699
  18 C :   -0.086240
  19 C :   -0.049809
  20 C :   -0.214983
  21 H :    0.044192
  22 C :   -0.032536
  23 H :    0.034315
  24 H :    0.024386
  25 C :   -0.035359
  26 H :    0.023820
  27 H :    0.030717
  28 C :   -0.056895
  29 H :    0.030435
  30 H :    0.013571
  31 H :    0.028982
  32 H :    0.028228
  33 H :    0.049607

  Mayer bond orders larger than 0.100000
B(  0-S ,  1-C ) :   1.1311 B(  0-S ,  4-C ) :   1.1118 B(  1-C ,  2-C ) :   1.6125
B(  1-C ,  4-C ) :   0.1002 B(  1-C , 32-H ) :   0.9698 B(  2-C ,  3-C ) :   1.2193
B(  2-C ,  6-C ) :   1.0194 B(  3-C ,  4-C ) :   1.6210 B(  3-C ,  5-H ) :   0.9899
B(  4-C , 20-C ) :   1.0556 B(  6-C ,  7-H ) :   0.9344 B(  6-C ,  8-H ) :   0.9386
B(  6-C ,  9-C ) :   1.0706 B(  9-C , 10-H ) :   0.9524 B(  9-C , 11-H ) :   0.9552
B(  9-C , 12-C ) :   1.0830 B( 12-C , 13-H ) :   0.9722 B( 12-C , 14-H ) :   0.9706
B( 12-C , 15-H ) :   0.9750 B( 16-S , 17-C ) :   1.1430 B( 16-S , 20-C ) :   1.1520
B( 17-C , 18-C ) :   1.6365 B( 17-C , 33-H ) :   0.9562 B( 18-C , 19-C ) :   1.2346
B( 18-C , 21-H ) :   0.9723 B( 19-C , 20-C ) :   1.5616 B( 19-C , 22-C ) :   1.0139
B( 22-C , 23-H ) :   0.9374 B( 22-C , 24-H ) :   0.9378 B( 22-C , 25-C ) :   1.0605
B( 25-C , 26-H ) :   0.9543 B( 25-C , 27-H ) :   0.9532 B( 25-C , 28-C ) :   1.0788
B( 28-C , 29-H ) :   0.9703 B( 28-C , 30-H ) :   0.9762 B( 28-C , 31-H ) :   0.9704

Dispersion correction           -0.015903043
FINAL SINGLE POINT ENERGY     -1339.864473945659

DIPOLE MOMENT
-------------
                                X             Y             Z
Electronic contribution:    -14.41728      17.38197      14.36244
Nuclear contribution   :     14.58043     -18.03121     -14.56179
                        -----------------------------------------
Total Dipole Moment    :      0.16315      -0.64924      -0.19935
                        -----------------------------------------
Magnitude (a.u.)       :      0.69848
Magnitude (Debye)      :      1.77538

Rotational constants in cm-1:     0.019387     0.009385     0.007945
Rotational constants in MHz :   581.194849   281.340826   238.174744

                             ****ORCA TERMINATED NORMALLY****
TOTAL RUN TIME: 0 days 0 hours 0 minutes 21 seconds 582 msec
