                         Program Version 4.2.1 -  RELEASE  -
|  1> ! wB97X-D3 SP def2-SVP
|  2> %pal
|  3> nprocs 24
|  4> end
|  5>
|  6> * xyz 0 1
|  7> S 	 -34.7372 	 -37.4381 	 -93.1606
|  8> C 	 -33.61 	 -37.5842 	 -91.9039
|  9> C 	 -34.1435 	 -37.3318 	 -90.6545
| 10> C 	 -35.5606 	 -37.3507 	 -90.7802
| 11> C 	 -36.1036 	 -37.3396 	 -92.0483
| 12> H 	 -36.2483 	 -37.3336 	 -89.9067
| 13> C 	 -33.3867 	 -37.3974 	 -89.3124
| 14> H 	 -32.3462 	 -37.4282 	 -89.551
| 15> H 	 -33.5695 	 -38.3869 	 -88.8418
| 16> C 	 -33.9652 	 -36.3791 	 -88.3086
| 17> H 	 -35.0673 	 -36.4275 	 -88.3089
| 18> H 	 -33.7314 	 -36.7014 	 -87.2729
| 19> C 	 -33.5751 	 -34.9384 	 -88.5815
| 20> H 	 -33.6686 	 -34.5735 	 -89.5997
| 21> H 	 -34.0142 	 -34.2267 	 -87.9138
| 22> H 	 -32.6108 	 -34.8544 	 -88.2447
| 23> S 	 -38.3495 	 -38.4279 	 -93.1886
| 24> C 	 -39.6544 	 -37.3731 	 -93.5827
| 25> C 	 -39.4528 	 -36.0603 	 -93.2654
| 26> C 	 -38.2297 	 -35.8662 	 -92.5011
| 27> C 	 -37.4958 	 -37.0759 	 -92.469
| 28> H 	 -40.0875 	 -35.2296 	 -93.6501
| 29> C 	 -37.7474 	 -34.516 	 -91.9686
| 30> H 	 -37.3064 	 -34.8021 	 -90.9981
| 31> H 	 -38.6671 	 -33.9473 	 -91.7839
| 32> C 	 -36.774 	 -33.65 	 -92.8239
| 33> H 	 -37.0953 	 -33.5773 	 -93.8495
| 34> H 	 -35.7849 	 -34.1427 	 -92.8726
| 35> C 	 -36.5138 	 -32.2295 	 -92.1826
| 36> H 	 -36.1342 	 -32.4093 	 -91.1736
| 37> H 	 -37.4601 	 -31.7575 	 -91.983
| 38> H 	 -35.9674 	 -31.4982 	 -92.7559
| 39> H 	 -32.4946 	 -37.6864 	 -92.0873
| 40> H 	 -40.5213 	 -37.6139 	 -94.2387
| 41> *
| 42>
| 43>                          ****END OF INPUT****

CARTESIAN COORDINATES (ANGSTROEM)
---------------------------------
  S    -34.737200  -37.438100  -93.160600
  C    -33.610000  -37.584200  -91.903900
  C    -34.143500  -37.331800  -90.654500
  C    -35.560600  -37.350700  -90.780200
  C    -36.103600  -37.339600  -92.048300
  H    -36.248300  -37.333600  -89.906700
  C    -33.386700  -37.397400  -89.312400
  H    -32.346200  -37.428200  -89.551000
  H    -33.569500  -38.386900  -88.841800
  C    -33.965200  -36.379100  -88.308600
  H    -35.067300  -36.427500  -88.308900
  H    -33.731400  -36.701400  -87.272900
  C    -33.575100  -34.938400  -88.581500
  H    -33.668600  -34.573500  -89.599700
  H    -34.014200  -34.226700  -87.913800
  H    -32.610800  -34.854400  -88.244700
  S    -38.349500  -38.427900  -93.188600
  C    -39.654400  -37.373100  -93.582700
  C    -39.452800  -36.060300  -93.265400
  C    -38.229700  -35.866200  -92.501100
  C    -37.495800  -37.075900  -92.469000
  H    -40.087500  -35.229600  -93.650100
  C    -37.747400  -34.516000  -91.968600
  H    -37.306400  -34.802100  -90.998100
  H    -38.667100  -33.947300  -91.783900
  C    -36.774000  -33.650000  -92.823900
  H    -37.095300  -33.577300  -93.849500
  H    -35.784900  -34.142700  -92.872600
  C    -36.513800  -32.229500  -92.182600
  H    -36.134200  -32.409300  -91.173600
  H    -37.460100  -31.757500  -91.983000
  H    -35.967400  -31.498200  -92.755900
  H    -32.494600  -37.686400  -92.087300
  H    -40.521300  -37.613900  -94.238700

 Total Charge           Charge          ....    0
 Multiplicity           Mult            ....    1
 Number of Electrons    NEL             ....  134
 Basis Dimension        Dim             ....  322

ORBITAL ENERGIES
----------------

  NO   OCC          E(Eh)            E(eV)
   0   2.0000     -88.967691     -2420.9340
   1   2.0000     -88.963322     -2420.8151
   2   2.0000     -10.328368      -281.0492
   3   2.0000     -10.326544      -280.9996
   4   2.0000     -10.315626      -280.7025
   5   2.0000     -10.315433      -280.6972
   6   2.0000     -10.310368      -280.5594
   7   2.0000     -10.299176      -280.2548
   8   2.0000     -10.297093      -280.1981
   9   2.0000     -10.296704      -280.1876
  10   2.0000     -10.296545      -280.1832
  11   2.0000     -10.293780      -280.1080
  12   2.0000     -10.292007      -280.0597
  13   2.0000     -10.289599      -279.9942
  14   2.0000     -10.277275      -279.6589
  15   2.0000     -10.265194      -279.3301
  16   2.0000      -8.082753      -219.9429
  17   2.0000      -8.078744      -219.8338
  18   2.0000      -6.041223      -164.3900
  19   2.0000      -6.037242      -164.2817
  20   2.0000      -6.037125      -164.2785
  21   2.0000      -6.033503      -164.1800
  22   2.0000      -6.033042      -164.1674
  23   2.0000      -6.029700      -164.0765
  24   2.0000      -1.006290       -27.3826
  25   2.0000      -0.986594       -26.8466
  26   2.0000      -0.910897       -24.7868
  27   2.0000      -0.900180       -24.4952
  28   2.0000      -0.866747       -23.5854
  29   2.0000      -0.847893       -23.0723
  30   2.0000      -0.846071       -23.0228
  31   2.0000      -0.813719       -22.1424
  32   2.0000      -0.785989       -21.3878
  33   2.0000      -0.769588       -20.9416
  34   2.0000      -0.711586       -19.3632
  35   2.0000      -0.700332       -19.0570
  36   2.0000      -0.683141       -18.5892
  37   2.0000      -0.653690       -17.7878
  38   2.0000      -0.638162       -17.3653
  39   2.0000      -0.621059       -16.8999
  40   2.0000      -0.589960       -16.0536
  41   2.0000      -0.566841       -15.4245
  42   2.0000      -0.558092       -15.1864
  43   2.0000      -0.548530       -14.9263
  44   2.0000      -0.535573       -14.5737
  45   2.0000      -0.526719       -14.3327
  46   2.0000      -0.515983       -14.0406
  47   2.0000      -0.506596       -13.7852
  48   2.0000      -0.498916       -13.5762
  49   2.0000      -0.492130       -13.3915
  50   2.0000      -0.485021       -13.1981
  51   2.0000      -0.480025       -13.0621
  52   2.0000      -0.471558       -12.8317
  53   2.0000      -0.464744       -12.6463
  54   2.0000      -0.456653       -12.4262
  55   2.0000      -0.451081       -12.2745
  56   2.0000      -0.444210       -12.0876
  57   2.0000      -0.441195       -12.0055
  58   2.0000      -0.435596       -11.8532
  59   2.0000      -0.427470       -11.6320
  60   2.0000      -0.422496       -11.4967
  61   2.0000      -0.416161       -11.3243
  62   2.0000      -0.409502       -11.1431
  63   2.0000      -0.335491        -9.1292
  64   2.0000      -0.329432        -8.9643
  65   2.0000      -0.324240        -8.8230
  66   2.0000      -0.304110        -8.2753
  67   0.0000       0.039088         1.0636
  68   0.0000       0.061920         1.6849
  69   0.0000       0.115965         3.1556
  70   0.0000       0.119569         3.2536
  71   0.0000       0.124845         3.3972

MULLIKEN ATOMIC CHARGES
-----------------------
   0 S :    0.121515
   1 C :   -0.142550
   2 C :   -0.102824
   3 C :    0.017376
   4 C :   -0.160479
   5 H :    0.025704
   6 C :    0.085444
   7 H :    0.012027
   8 H :    0.043110
   9 C :   -0.097233
  10 H :    0.026861
  11 H :    0.025792
  12 C :    0.007516
  13 H :    0.045562
  14 H :    0.014386
  15 H :   -0.000922
  16 S :    0.127843
  17 C :   -0.088672
  18 C :   -0.064802
  19 C :   -0.038864
  20 C :   -0.205043
  21 H :    0.038338
  22 C :    0.069141
  23 H :    0.031016
  24 H :    0.020431
  25 C :   -0.056956
  26 H :    0.026283
  27 H :    0.038793
  28 C :   -0.039837
  29 H :    0.028508
  30 H :    0.011732
  31 H :    0.042720
  32 H :    0.071669
  33 H :    0.066415
Sum of atomic charges:    0.0000000

LOEWDIN ATOMIC CHARGES
----------------------
   0 S :    0.422773
   1 C :   -0.216706
   2 C :   -0.076982
   3 C :   -0.063238
   4 C :   -0.210407
   5 H :    0.032619
   6 C :   -0.025739
   7 H :    0.024514
   8 H :    0.040087
   9 C :   -0.040700
  10 H :    0.023519
  11 H :    0.026611
  12 C :   -0.064254
  13 H :    0.029616
  14 H :    0.025474
  15 H :    0.016051
  16 S :    0.422636
  17 C :   -0.203031
  18 C :   -0.080343
  19 C :   -0.044568
  20 C :   -0.207786
  21 H :    0.040203
  22 C :   -0.033965
  23 H :    0.036484
  24 H :    0.030089
  25 C :   -0.035470
  26 H :    0.019991
  27 H :    0.027408
  28 C :   -0.066382
  29 H :    0.027568
  30 H :    0.018900
  31 H :    0.026369
  32 H :    0.040548
  33 H :    0.038111

  Mayer bond orders larger than 0.100000
B(  0-S ,  1-C ) :   1.1790 B(  0-S ,  4-C ) :   1.1408 B(  1-C ,  2-C ) :   1.5843
B(  1-C , 32-H ) :   0.9528 B(  2-C ,  3-C ) :   1.2530 B(  2-C ,  6-C ) :   1.0226
B(  3-C ,  4-C ) :   1.5986 B(  3-C ,  5-H ) :   0.9803 B(  4-C , 20-C ) :   1.0180
B(  6-C ,  7-H ) :   0.9480 B(  6-C ,  8-H ) :   0.9412 B(  6-C ,  9-C ) :   1.0573
B(  9-C , 10-H ) :   0.9572 B(  9-C , 11-H ) :   0.9559 B(  9-C , 12-C ) :   1.0751
B( 12-C , 13-H ) :   0.9760 B( 12-C , 14-H ) :   0.9667 B( 12-C , 15-H ) :   0.9678
B( 16-S , 17-C ) :   1.1533 B( 16-S , 20-C ) :   1.1550 B( 17-C , 18-C ) :   1.6388
B( 17-C , 33-H ) :   0.9558 B( 18-C , 19-C ) :   1.2378 B( 18-C , 21-H ) :   0.9780
B( 19-C , 20-C ) :   1.5935 B( 19-C , 22-C ) :   1.0396 B( 22-C , 23-H ) :   0.9267
B( 22-C , 24-H ) :   0.9338 B( 22-C , 25-C ) :   1.0601 B( 25-C , 26-H ) :   0.9596
B( 25-C , 27-H ) :   0.9554 B( 25-C , 28-C ) :   1.0695 B( 28-C , 29-H ) :   0.9748
B( 28-C , 30-H ) :   0.9755 B( 28-C , 31-H ) :   0.9767

Dispersion correction           -0.014918868
FINAL SINGLE POINT ENERGY     -1339.875137955679

DIPOLE MOMENT
-------------
                                X             Y             Z
Electronic contribution:     -8.57748     -22.28029     -16.88860
Nuclear contribution   :      8.70678      22.73089      17.23199
                        -----------------------------------------
Total Dipole Moment    :      0.12930       0.45060       0.34339
                        -----------------------------------------
Magnitude (a.u.)       :      0.58110
Magnitude (Debye)      :      1.47703

Rotational constants in cm-1:     0.017254     0.009661     0.007525
Rotational constants in MHz :   517.267778   289.616243   225.595964

                             ****ORCA TERMINATED NORMALLY****
TOTAL RUN TIME: 0 days 0 hours 0 minutes 22 seconds 207 msec
