                         Program Version 4.2.1 -  RELEASE  -
|  1> ! wB97X-D3 SP def2-SVP
|  2> %pal
|  3> nprocs 24
|  4> end
|  5>
|  6> * xyz 0 1
|  7> S 	 -106.461 	 50.6428 	 -82.7528
|  8> C 	 -105.004 	 51.5275 	 -82.4671
|  9> C 	 -103.934 	 50.7335 	 -82.6974
| 10> C 	 -104.238 	 49.4418 	 -83.2019
| 11> C 	 -105.572 	 49.1992 	 -83.2834
| 12> H 	 -103.593 	 48.5912 	 -83.5948
| 13> C 	 -102.394 	 51.118 	 -82.7136
| 14> H 	 -101.711 	 50.2565 	 -82.7274
| 15> H 	 -102.26 	 51.6901 	 -81.7522
| 16> C 	 -101.971 	 52.022 	 -83.9119
| 17> H 	 -100.865 	 52.2698 	 -83.8158
| 18> H 	 -102.25 	 51.4178 	 -84.8416
| 19> C 	 -102.739 	 53.3863 	 -83.9341
| 20> H 	 -102.851 	 53.7957 	 -82.9411
| 21> H 	 -102.337 	 54.1846 	 -84.4934
| 22> H 	 -103.757 	 53.3024 	 -84.2636
| 23> S 	 -107.062 	 48.5323 	 -85.3677
| 24> C 	 -107.017 	 46.9152 	 -85.9727
| 25> C 	 -106.426 	 46.03 	 -85.107
| 26> C 	 -105.865 	 46.7483 	 -83.999
| 27> C 	 -106.204 	 48.0661 	 -83.9176
| 28> H 	 -106.305 	 45.0155 	 -85.43
| 29> C 	 -104.92 	 46.0395 	 -83.0246
| 30> H 	 -104.183 	 46.7331 	 -82.5629
| 31> H 	 -104.354 	 45.3497 	 -83.6904
| 32> C 	 -105.746 	 45.21 	 -81.9749
| 33> H 	 -105.057 	 44.6337 	 -81.3675
| 34> H 	 -106.519 	 44.5187 	 -82.3749
| 35> C 	 -106.489 	 46.148 	 -81.0492
| 36> H 	 -107.232 	 46.7442 	 -81.651
| 37> H 	 -105.759 	 46.8179 	 -80.5447
| 38> H 	 -107.019 	 45.6891 	 -80.2492
| 39> H 	 -105.053 	 52.5714 	 -82.183
| 40> H 	 -107.415 	 46.685 	 -86.9716
| 41> *
| 42>
| 43>                          ****END OF INPUT****

CARTESIAN COORDINATES (ANGSTROEM)
---------------------------------
  S    -106.461000   50.642800  -82.752800
  C    -105.004000   51.527500  -82.467100
  C    -103.934000   50.733500  -82.697400
  C    -104.238000   49.441800  -83.201900
  C    -105.572000   49.199200  -83.283400
  H    -103.593000   48.591200  -83.594800
  C    -102.394000   51.118000  -82.713600
  H    -101.711000   50.256500  -82.727400
  H    -102.260000   51.690100  -81.752200
  C    -101.971000   52.022000  -83.911900
  H    -100.865000   52.269800  -83.815800
  H    -102.250000   51.417800  -84.841600
  C    -102.739000   53.386300  -83.934100
  H    -102.851000   53.795700  -82.941100
  H    -102.337000   54.184600  -84.493400
  H    -103.757000   53.302400  -84.263600
  S    -107.062000   48.532300  -85.367700
  C    -107.017000   46.915200  -85.972700
  C    -106.426000   46.030000  -85.107000
  C    -105.865000   46.748300  -83.999000
  C    -106.204000   48.066100  -83.917600
  H    -106.305000   45.015500  -85.430000
  C    -104.920000   46.039500  -83.024600
  H    -104.183000   46.733100  -82.562900
  H    -104.354000   45.349700  -83.690400
  C    -105.746000   45.210000  -81.974900
  H    -105.057000   44.633700  -81.367500
  H    -106.519000   44.518700  -82.374900
  C    -106.489000   46.148000  -81.049200
  H    -107.232000   46.744200  -81.651000
  H    -105.759000   46.817900  -80.544700
  H    -107.019000   45.689100  -80.249200
  H    -105.053000   52.571400  -82.183000
  H    -107.415000   46.685000  -86.971600

 Total Charge           Charge          ....    0
 Multiplicity           Mult            ....    1
 Number of Electrons    NEL             ....  134
 Basis Dimension        Dim             ....  322

ORBITAL ENERGIES
----------------

  NO   OCC          E(Eh)            E(eV)
   0   2.0000     -88.962123     -2420.7824
   1   2.0000     -88.961015     -2420.7523
   2   2.0000     -10.326184      -280.9898
   3   2.0000     -10.320431      -280.8332
   4   2.0000     -10.319858      -280.8176
   5   2.0000     -10.313015      -280.6314
   6   2.0000     -10.306313      -280.4490
   7   2.0000     -10.302578      -280.3474
   8   2.0000     -10.300862      -280.3007
   9   2.0000     -10.300420      -280.2887
  10   2.0000     -10.300369      -280.2873
  11   2.0000     -10.295991      -280.1682
  12   2.0000     -10.293413      -280.0980
  13   2.0000     -10.287901      -279.9480
  14   2.0000     -10.269712      -279.4531
  15   2.0000     -10.269386      -279.4442
  16   2.0000      -8.077221      -219.7924
  17   2.0000      -8.076857      -219.7824
  18   2.0000      -6.035750      -164.2411
  19   2.0000      -6.035321      -164.2294
  20   2.0000      -6.031681      -164.1304
  21   2.0000      -6.031190      -164.1170
  22   2.0000      -6.027933      -164.0284
  23   2.0000      -6.027575      -164.0187
  24   2.0000      -1.014248       -27.5991
  25   2.0000      -0.990058       -26.9409
  26   2.0000      -0.906715       -24.6730
  27   2.0000      -0.900005       -24.4904
  28   2.0000      -0.874669       -23.8010
  29   2.0000      -0.849789       -23.1239
  30   2.0000      -0.840886       -22.8817
  31   2.0000      -0.812804       -22.1175
  32   2.0000      -0.781475       -21.2650
  33   2.0000      -0.773021       -21.0350
  34   2.0000      -0.702947       -19.1282
  35   2.0000      -0.692686       -18.8489
  36   2.0000      -0.689611       -18.7653
  37   2.0000      -0.664997       -18.0955
  38   2.0000      -0.645186       -17.5564
  39   2.0000      -0.613694       -16.6995
  40   2.0000      -0.595740       -16.2109
  41   2.0000      -0.568694       -15.4749
  42   2.0000      -0.550980       -14.9929
  43   2.0000      -0.546260       -14.8645
  44   2.0000      -0.543718       -14.7953
  45   2.0000      -0.533612       -14.5203
  46   2.0000      -0.520276       -14.1574
  47   2.0000      -0.512228       -13.9384
  48   2.0000      -0.499002       -13.5785
  49   2.0000      -0.495073       -13.4716
  50   2.0000      -0.491595       -13.3770
  51   2.0000      -0.475721       -12.9450
  52   2.0000      -0.471583       -12.8324
  53   2.0000      -0.462155       -12.5759
  54   2.0000      -0.455376       -12.3914
  55   2.0000      -0.442354       -12.0371
  56   2.0000      -0.438104       -11.9214
  57   2.0000      -0.435317       -11.8456
  58   2.0000      -0.429707       -11.6929
  59   2.0000      -0.424785       -11.5590
  60   2.0000      -0.422524       -11.4975
  61   2.0000      -0.409510       -11.1433
  62   2.0000      -0.406423       -11.0593
  63   2.0000      -0.354698        -9.6518
  64   2.0000      -0.330613        -8.9964
  65   2.0000      -0.328885        -8.9494
  66   2.0000      -0.295946        -8.0531
  67   0.0000       0.035269         0.9597
  68   0.0000       0.069068         1.8794
  69   0.0000       0.113990         3.1018
  70   0.0000       0.116889         3.1807
  71   0.0000       0.137273         3.7354

MULLIKEN ATOMIC CHARGES
-----------------------
   0 S :    0.096022
   1 C :   -0.140924
   2 C :   -0.050688
   3 C :   -0.004500
   4 C :   -0.159509
   5 H :    0.046244
   6 C :    0.029688
   7 H :    0.033817
   8 H :    0.035814
   9 C :   -0.089318
  10 H :    0.051593
  11 H :    0.048537
  12 C :   -0.042441
  13 H :    0.008514
  14 H :    0.024223
  15 H :    0.032257
  16 S :    0.094189
  17 C :   -0.105236
  18 C :   -0.006871
  19 C :   -0.108640
  20 C :   -0.090320
  21 H :    0.018968
  22 C :    0.049093
  23 H :    0.035646
  24 H :    0.028996
  25 C :   -0.057864
  26 H :    0.026008
  27 H :    0.038897
  28 C :   -0.068889
  29 H :    0.050383
  30 H :    0.028996
  31 H :    0.025294
  32 H :    0.055691
  33 H :    0.066331
Sum of atomic charges:    0.0000000

LOEWDIN ATOMIC CHARGES
----------------------
   0 S :    0.393959
   1 C :   -0.198269
   2 C :   -0.068104
   3 C :   -0.076297
   4 C :   -0.186839
   5 H :    0.046526
   6 C :   -0.032530
   7 H :    0.029692
   8 H :    0.030591
   9 C :   -0.043558
  10 H :    0.033038
  11 H :    0.034137
  12 C :   -0.072111
  13 H :    0.018950
  14 H :    0.020470
  15 H :    0.023641
  16 S :    0.414887
  17 C :   -0.178072
  18 C :   -0.074362
  19 C :   -0.051297
  20 C :   -0.209798
  21 H :    0.033336
  22 C :   -0.029400
  23 H :    0.031559
  24 H :    0.032203
  25 C :   -0.039792
  26 H :    0.020361
  27 H :    0.029022
  28 C :   -0.070619
  29 H :    0.031489
  30 H :    0.026453
  31 H :    0.018039
  32 H :    0.030891
  33 H :    0.031803

  Mayer bond orders larger than 0.100000
B(  0-S ,  1-C ) :   1.1314 B(  0-S ,  4-C ) :   1.1409 B(  1-C ,  2-C ) :   1.6275
B(  1-C , 32-H ) :   0.9730 B(  2-C ,  3-C ) :   1.2224 B(  2-C ,  6-C ) :   1.0032
B(  3-C ,  4-C ) :   1.6205 B(  3-C ,  5-H ) :   0.9745 B(  4-C , 20-C ) :   1.0134
B(  6-C ,  7-H ) :   0.9509 B(  6-C ,  8-H ) :   0.9441 B(  6-C ,  9-C ) :   1.0652
B(  9-C , 10-H ) :   0.9571 B(  9-C , 11-H ) :   0.9553 B(  9-C , 12-C ) :   1.0688
B( 12-C , 13-H ) :   0.9741 B( 12-C , 14-H ) :   0.9743 B( 12-C , 15-H ) :   0.9708
B( 16-S , 17-C ) :   1.1844 B( 16-S , 20-C ) :   1.1201 B( 17-C , 18-C ) :   1.6059
B( 17-C , 33-H ) :   0.9631 B( 18-C , 19-C ) :   1.2174 B( 18-C , 21-H ) :   0.9995
B( 19-C , 20-C ) :   1.6285 B( 19-C , 22-C ) :   1.0297 B( 22-C , 23-H ) :   0.9442
B( 22-C , 24-H ) :   0.9350 B( 22-C , 25-C ) :   1.0605 B( 25-C , 26-H ) :   0.9556
B( 25-C , 27-H ) :   0.9600 B( 25-C , 28-C ) :   1.0764 B( 28-C , 29-H ) :   0.9723
B( 28-C , 30-H ) :   0.9741 B( 28-C , 31-H ) :   0.9733

Dispersion correction           -0.015260849
FINAL SINGLE POINT ENERGY     -1339.874808217515

DIPOLE MOMENT
-------------
                                X             Y             Z
Electronic contribution:    -15.94285       1.02545      -7.78028
Nuclear contribution   :     16.48971      -1.31860       7.60495
                        -----------------------------------------
Total Dipole Moment    :      0.54686      -0.29315      -0.17534
                        -----------------------------------------
Magnitude (a.u.)       :      0.64478
Magnitude (Debye)      :      1.63889

Rotational constants in cm-1:     0.021810     0.008320     0.007561
Rotational constants in MHz :   653.835020   249.415178   226.669576

                             ****ORCA TERMINATED NORMALLY****
TOTAL RUN TIME: 0 days 0 hours 0 minutes 22 seconds 264 msec
