                         Program Version 4.2.1 -  RELEASE  -
|  1> ! wB97X-D3 SP def2-SVP
|  2> %pal
|  3> nprocs 24
|  4> end
|  5>
|  6> * xyz 0 1
|  7> S 	 -76.1407 	 -4.53668 	 5.81794
|  8> C 	 -74.4998 	 -4.10697 	 5.31614
|  9> C 	 -73.8717 	 -5.2246 	 4.79821
| 10> C 	 -74.6528 	 -6.35648 	 4.69973
| 11> C 	 -75.946 	 -6.21762 	 5.27685
| 12> H 	 -74.3249 	 -7.25481 	 4.22266
| 13> C 	 -72.5299 	 -5.22304 	 4.01708
| 14> H 	 -72.6947 	 -4.9208 	 3.01161
| 15> H 	 -72.0604 	 -6.18382 	 3.93526
| 16> C 	 -71.4558 	 -4.26484 	 4.56199
| 17> H 	 -70.6124 	 -4.25592 	 3.90963
| 18> H 	 -71.8954 	 -3.26554 	 4.74806
| 19> C 	 -71.0505 	 -4.74643 	 5.96657
| 20> H 	 -71.8469 	 -4.96572 	 6.65043
| 21> H 	 -70.5118 	 -5.68525 	 5.87572
| 22> H 	 -70.3992 	 -4.0136 	 6.42481
| 23> S 	 -78.6989 	 -6.81254 	 4.97831
| 24> C 	 -79.2422 	 -8.50051 	 5.18474
| 25> C 	 -78.2424 	 -9.36514 	 5.38408
| 26> C 	 -77.0215 	 -8.60578 	 5.58086
| 27> C 	 -77.0298 	 -7.23497 	 5.29888
| 28> H 	 -78.5139 	 -10.4099 	 5.55146
| 29> C 	 -75.8228 	 -9.39587 	 5.96353
| 30> H 	 -75.9658 	 -9.92049 	 6.96166
| 31> H 	 -74.9694 	 -8.78246 	 6.14191
| 32> C 	 -75.5153 	 -10.4692 	 4.97145
| 33> H 	 -75.8878 	 -10.287 	 4.02415
| 34> H 	 -76.0171 	 -11.4587 	 5.25424
| 35> C 	 -73.9193 	 -10.7944 	 4.90625
| 36> H 	 -73.5811 	 -10.8386 	 5.90349
| 37> H 	 -73.4362 	 -10.0513 	 4.2676
| 38> H 	 -73.6814 	 -11.7084 	 4.39164
| 39> H 	 -74.0736 	 -3.11032 	 5.48228
| 40> H 	 -80.2912 	 -8.753 	 5.19465
| 41> *
| 42>
| 43>                          ****END OF INPUT****

CARTESIAN COORDINATES (ANGSTROEM)
---------------------------------
  S    -76.140700   -4.536680    5.817940
  C    -74.499800   -4.106970    5.316140
  C    -73.871700   -5.224600    4.798210
  C    -74.652800   -6.356480    4.699730
  C    -75.946000   -6.217620    5.276850
  H    -74.324900   -7.254810    4.222660
  C    -72.529900   -5.223040    4.017080
  H    -72.694700   -4.920800    3.011610
  H    -72.060400   -6.183820    3.935260
  C    -71.455800   -4.264840    4.561990
  H    -70.612400   -4.255920    3.909630
  H    -71.895400   -3.265540    4.748060
  C    -71.050500   -4.746430    5.966570
  H    -71.846900   -4.965720    6.650430
  H    -70.511800   -5.685250    5.875720
  H    -70.399200   -4.013600    6.424810
  S    -78.698900   -6.812540    4.978310
  C    -79.242200   -8.500510    5.184740
  C    -78.242400   -9.365140    5.384080
  C    -77.021500   -8.605780    5.580860
  C    -77.029800   -7.234970    5.298880
  H    -78.513900  -10.409900    5.551460
  C    -75.822800   -9.395870    5.963530
  H    -75.965800   -9.920490    6.961660
  H    -74.969400   -8.782460    6.141910
  C    -75.515300  -10.469200    4.971450
  H    -75.887800  -10.287000    4.024150
  H    -76.017100  -11.458700    5.254240
  C    -73.919300  -10.794400    4.906250
  H    -73.581100  -10.838600    5.903490
  H    -73.436200  -10.051300    4.267600
  H    -73.681400  -11.708400    4.391640
  H    -74.073600   -3.110320    5.482280
  H    -80.291200   -8.753000    5.194650

 Total Charge           Charge          ....    0
 Multiplicity           Mult            ....    1
 Number of Electrons    NEL             ....  134
 Basis Dimension        Dim             ....  322

ORBITAL ENERGIES
----------------

  NO   OCC          E(Eh)            E(eV)
   0   2.0000     -88.972384     -2421.0617
   1   2.0000     -88.961110     -2420.7549
   2   2.0000     -10.342317      -281.4287
   3   2.0000     -10.333363      -281.1851
   4   2.0000     -10.321090      -280.8511
   5   2.0000     -10.318331      -280.7760
   6   2.0000     -10.306497      -280.4541
   7   2.0000     -10.301407      -280.3155
   8   2.0000     -10.295474      -280.1541
   9   2.0000     -10.294305      -280.1223
  10   2.0000     -10.288482      -279.9638
  11   2.0000     -10.285861      -279.8925
  12   2.0000     -10.285838      -279.8919
  13   2.0000     -10.283395      -279.8254
  14   2.0000     -10.278845      -279.7016
  15   2.0000     -10.268630      -279.4236
  16   2.0000      -8.085946      -220.0298
  17   2.0000      -8.075799      -219.7537
  18   2.0000      -6.044478      -164.4786
  19   2.0000      -6.040470      -164.3695
  20   2.0000      -6.036899      -164.2724
  21   2.0000      -6.034503      -164.2072
  22   2.0000      -6.030387      -164.0952
  23   2.0000      -6.026276      -163.9833
  24   2.0000      -1.003789       -27.3145
  25   2.0000      -0.985878       -26.8271
  26   2.0000      -0.911995       -24.8166
  27   2.0000      -0.908921       -24.7330
  28   2.0000      -0.870820       -23.6962
  29   2.0000      -0.851344       -23.1663
  30   2.0000      -0.838910       -22.8279
  31   2.0000      -0.815188       -22.1824
  32   2.0000      -0.782676       -21.2977
  33   2.0000      -0.770432       -20.9645
  34   2.0000      -0.709084       -19.2952
  35   2.0000      -0.703571       -19.1451
  36   2.0000      -0.694597       -18.9009
  37   2.0000      -0.658407       -17.9162
  38   2.0000      -0.639404       -17.3991
  39   2.0000      -0.620432       -16.8828
  40   2.0000      -0.602141       -16.3851
  41   2.0000      -0.585107       -15.9216
  42   2.0000      -0.559132       -15.2147
  43   2.0000      -0.552713       -15.0401
  44   2.0000      -0.546796       -14.8791
  45   2.0000      -0.525932       -14.3113
  46   2.0000      -0.516213       -14.0469
  47   2.0000      -0.513453       -13.9718
  48   2.0000      -0.504227       -13.7207
  49   2.0000      -0.495243       -13.4763
  50   2.0000      -0.488962       -13.3053
  51   2.0000      -0.482823       -13.1383
  52   2.0000      -0.476166       -12.9571
  53   2.0000      -0.464451       -12.6384
  54   2.0000      -0.457034       -12.4365
  55   2.0000      -0.449257       -12.2249
  56   2.0000      -0.446403       -12.1473
  57   2.0000      -0.440934       -11.9984
  58   2.0000      -0.426694       -11.6109
  59   2.0000      -0.423962       -11.5366
  60   2.0000      -0.420103       -11.4316
  61   2.0000      -0.411456       -11.1963
  62   2.0000      -0.406826       -11.0703
  63   2.0000      -0.355729        -9.6799
  64   2.0000      -0.337301        -9.1784
  65   2.0000      -0.326744        -8.8912
  66   2.0000      -0.288202        -7.8424
  67   0.0000       0.020684         0.5628
  68   0.0000       0.077377         2.1055
  69   0.0000       0.106524         2.8987
  70   0.0000       0.118595         3.2271
  71   0.0000       0.128476         3.4960

MULLIKEN ATOMIC CHARGES
-----------------------
   0 S :    0.113732
   1 C :   -0.154956
   2 C :   -0.051245
   3 C :    0.029247
   4 C :   -0.141548
   5 H :    0.004406
   6 C :    0.067917
   7 H :    0.035738
   8 H :    0.011698
   9 C :   -0.068835
  10 H :    0.029465
  11 H :    0.026355
  12 C :   -0.060501
  13 H :    0.038044
  14 H :    0.017635
  15 H :    0.029957
  16 S :    0.076380
  17 C :   -0.084315
  18 C :   -0.009010
  19 C :   -0.089153
  20 C :   -0.103803
  21 H :    0.036185
  22 C :    0.070970
  23 H :    0.039433
  24 H :    0.012932
  25 C :   -0.100104
  26 H :    0.020388
  27 H :    0.032040
  28 C :   -0.045176
  29 H :    0.035029
  30 H :    0.032807
  31 H :    0.025615
  32 H :    0.067440
  33 H :    0.055235
Sum of atomic charges:    0.0000000

LOEWDIN ATOMIC CHARGES
----------------------
   0 S :    0.402880
   1 C :   -0.195427
   2 C :   -0.066021
   3 C :   -0.057280
   4 C :   -0.180386
   5 H :    0.029081
   6 C :   -0.022485
   7 H :    0.029198
   8 H :    0.023752
   9 C :   -0.035705
  10 H :    0.022525
  11 H :    0.022541
  12 C :   -0.066513
  13 H :    0.023273
  14 H :    0.021225
  15 H :    0.022282
  16 S :    0.374031
  17 C :   -0.153583
  18 C :   -0.073098
  19 C :   -0.049915
  20 C :   -0.203395
  21 H :    0.043884
  22 C :   -0.044072
  23 H :    0.041481
  24 H :    0.021159
  25 C :   -0.035381
  26 H :    0.009193
  27 H :    0.027736
  28 C :   -0.057912
  29 H :    0.019131
  30 H :    0.024236
  31 H :    0.022543
  32 H :    0.033549
  33 H :    0.027474

  Mayer bond orders larger than 0.100000
B(  0-S ,  1-C ) :   1.1457 B(  0-S ,  4-C ) :   1.1695 B(  1-C ,  2-C ) :   1.5519
B(  1-C ,  4-C ) :   0.1138 B(  1-C , 32-H ) :   0.9685 B(  2-C ,  3-C ) :   1.3058
B(  2-C ,  6-C ) :   1.0084 B(  3-C ,  4-C ) :   1.5021 B(  3-C ,  5-H ) :   0.9976
B(  4-C , 20-C ) :   1.0574 B(  6-C ,  7-H ) :   0.9407 B(  6-C ,  8-H ) :   0.9469
B(  6-C ,  9-C ) :   1.0831 B(  9-C , 10-H ) :   0.9549 B(  9-C , 11-H ) :   0.9541
B(  9-C , 12-C ) :   1.0757 B( 12-C , 13-H ) :   0.9760 B( 12-C , 14-H ) :   0.9743
B( 12-C , 15-H ) :   0.9766 B( 16-S , 17-C ) :   1.1458 B( 16-S , 20-C ) :   1.0999
B( 17-C , 18-C ) :   1.6500 B( 17-C , 33-H ) :   0.9636 B( 18-C , 19-C ) :   1.1847
B( 18-C , 21-H ) :   0.9921 B( 19-C , 20-C ) :   1.6191 B( 19-C , 22-C ) :   1.0755
B( 22-C , 23-H ) :   0.9213 B( 22-C , 24-H ) :   0.9441 B( 22-C , 25-C ) :   1.0374
B( 25-C , 26-H ) :   0.9705 B( 25-C , 27-H ) :   0.9514 B( 25-C , 28-C ) :   1.0729
B( 28-C , 29-H ) :   0.9783 B( 28-C , 30-H ) :   0.9785 B( 28-C , 31-H ) :   0.9765

Dispersion correction           -0.014226228
FINAL SINGLE POINT ENERGY     -1339.864230790124

DIPOLE MOMENT
-------------
                                X             Y             Z
Electronic contribution:    -27.51568      11.86888       1.46868
Nuclear contribution   :     27.95739     -12.35273      -1.59515
                        -----------------------------------------
Total Dipole Moment    :      0.44170      -0.48386      -0.12646
                        -----------------------------------------
Magnitude (a.u.)       :      0.66724
Magnitude (Debye)      :      1.69600

Rotational constants in cm-1:     0.019193     0.008743     0.006351
Rotational constants in MHz :   575.391992   262.109639   190.407751

                             ****ORCA TERMINATED NORMALLY****
TOTAL RUN TIME: 0 days 0 hours 0 minutes 21 seconds 653 msec
