                         Program Version 4.2.1 -  RELEASE  -
|  1> ! wB97X-D3 SP def2-SVP
|  2> %pal
|  3> nprocs 24
|  4> end
|  5>
|  6> * xyz 0 1
|  7> S 	 -100.566 	 -0.0928114 	 -105.935
|  8> C 	 -99.4411 	 1.17671 	 -105.537
|  9> C 	 -100.086 	 2.23944 	 -105.023
| 10> C 	 -101.473 	 2.16811 	 -105.258
| 11> C 	 -101.946 	 1.0025 	 -105.7
| 12> H 	 -102.192 	 2.9766 	 -105.046
| 13> C 	 -99.4681 	 3.57176 	 -104.476
| 14> H 	 -99.9846 	 4.40336 	 -104.86
| 15> H 	 -98.591 	 3.54821 	 -105.101
| 16> C 	 -99.2293 	 3.49275 	 -102.938
| 17> H 	 -98.7348 	 4.40378 	 -102.678
| 18> H 	 -100.107 	 3.39295 	 -102.341
| 19> C 	 -98.195 	 2.41283 	 -102.499
| 20> H 	 -97.1052 	 2.64332 	 -102.843
| 21> H 	 -98.0255 	 2.38103 	 -101.404
| 22> H 	 -98.4679 	 1.43435 	 -102.88
| 23> S 	 -103.607 	 -0.0676514 	 -107.393
| 24> C 	 -105.229 	 -0.374037 	 -106.94
| 25> C 	 -105.523 	 0.072164 	 -105.65
| 26> C 	 -104.442 	 0.645084 	 -105.044
| 27> C 	 -103.292 	 0.541692 	 -105.833
| 28> H 	 -106.513 	 0.0412879 	 -105.246
| 29> C 	 -104.526 	 1.00229 	 -103.574
| 30> H 	 -104.723 	 2.1083 	 -103.58
| 31> H 	 -103.49 	 0.855616 	 -103.161
| 32> C 	 -105.49 	 0.137752 	 -102.711
| 33> H 	 -105.296 	 -0.928771 	 -102.92
| 34> H 	 -106.468 	 0.466237 	 -103.086
| 35> C 	 -105.55 	 0.49373 	 -101.212
| 36> H 	 -104.68 	 0.312958 	 -100.636
| 37> H 	 -106.352 	 -0.0711036 	 -100.76
| 38> H 	 -105.903 	 1.53795 	 -101.09
| 39> H 	 -98.3709 	 1.08349 	 -105.513
| 40> H 	 -105.997 	 -0.835204 	 -107.59
| 41> *
| 42>
| 43>                          ****END OF INPUT****

CARTESIAN COORDINATES (ANGSTROEM)
---------------------------------
  S    -100.566000   -0.092811  -105.935000
  C    -99.441100    1.176710  -105.537000
  C    -100.086000    2.239440  -105.023000
  C    -101.473000    2.168110  -105.258000
  C    -101.946000    1.002500  -105.700000
  H    -102.192000    2.976600  -105.046000
  C    -99.468100    3.571760  -104.476000
  H    -99.984600    4.403360  -104.860000
  H    -98.591000    3.548210  -105.101000
  C    -99.229300    3.492750  -102.938000
  H    -98.734800    4.403780  -102.678000
  H    -100.107000    3.392950  -102.341000
  C    -98.195000    2.412830  -102.499000
  H    -97.105200    2.643320  -102.843000
  H    -98.025500    2.381030  -101.404000
  H    -98.467900    1.434350  -102.880000
  S    -103.607000   -0.067651  -107.393000
  C    -105.229000   -0.374037  -106.940000
  C    -105.523000    0.072164  -105.650000
  C    -104.442000    0.645084  -105.044000
  C    -103.292000    0.541692  -105.833000
  H    -106.513000    0.041288  -105.246000
  C    -104.526000    1.002290  -103.574000
  H    -104.723000    2.108300  -103.580000
  H    -103.490000    0.855616  -103.161000
  C    -105.490000    0.137752  -102.711000
  H    -105.296000   -0.928771  -102.920000
  H    -106.468000    0.466237  -103.086000
  C    -105.550000    0.493730  -101.212000
  H    -104.680000    0.312958  -100.636000
  H    -106.352000   -0.071104  -100.760000
  H    -105.903000    1.537950  -101.090000
  H    -98.370900    1.083490  -105.513000
  H    -105.997000   -0.835204  -107.590000

 Total Charge           Charge          ....    0
 Multiplicity           Mult            ....    1
 Number of Electrons    NEL             ....  134
 Basis Dimension        Dim             ....  322

ORBITAL ENERGIES
----------------

  NO   OCC          E(Eh)            E(eV)
   0   2.0000     -88.967220     -2420.9211
   1   2.0000     -88.957816     -2420.6652
   2   2.0000     -10.318101      -280.7698
   3   2.0000     -10.316725      -280.7324
   4   2.0000     -10.314167      -280.6627
   5   2.0000     -10.307159      -280.4721
   6   2.0000     -10.296621      -280.1853
   7   2.0000     -10.296262      -280.1755
   8   2.0000     -10.294452      -280.1263
   9   2.0000     -10.291894      -280.0567
  10   2.0000     -10.291410      -280.0435
  11   2.0000     -10.288674      -279.9690
  12   2.0000     -10.285668      -279.8873
  13   2.0000     -10.284459      -279.8544
  14   2.0000     -10.281668      -279.7784
  15   2.0000     -10.279052      -279.7072
  16   2.0000      -8.083353      -219.9592
  17   2.0000      -8.072832      -219.6729
  18   2.0000      -6.041405      -164.3950
  19   2.0000      -6.037585      -164.2911
  20   2.0000      -6.034577      -164.2092
  21   2.0000      -6.031460      -164.1244
  22   2.0000      -6.027434      -164.0148
  23   2.0000      -6.023293      -163.9021
  24   2.0000      -1.017182       -27.6789
  25   2.0000      -0.992081       -26.9959
  26   2.0000      -0.910737       -24.7824
  27   2.0000      -0.904393       -24.6098
  28   2.0000      -0.871729       -23.7210
  29   2.0000      -0.857648       -23.3378
  30   2.0000      -0.841446       -22.8969
  31   2.0000      -0.812911       -22.1204
  32   2.0000      -0.782561       -21.2946
  33   2.0000      -0.772606       -21.0237
  34   2.0000      -0.710052       -19.3215
  35   2.0000      -0.699985       -19.0476
  36   2.0000      -0.695322       -18.9207
  37   2.0000      -0.660134       -17.9632
  38   2.0000      -0.641377       -17.4528
  39   2.0000      -0.616985       -16.7890
  40   2.0000      -0.593080       -16.1385
  41   2.0000      -0.572357       -15.5746
  42   2.0000      -0.569365       -15.4932
  43   2.0000      -0.544161       -14.8074
  44   2.0000      -0.542337       -14.7577
  45   2.0000      -0.520481       -14.1630
  46   2.0000      -0.518015       -14.0959
  47   2.0000      -0.513396       -13.9702
  48   2.0000      -0.504482       -13.7276
  49   2.0000      -0.497623       -13.5410
  50   2.0000      -0.482812       -13.1380
  51   2.0000      -0.479878       -13.0581
  52   2.0000      -0.472157       -12.8480
  53   2.0000      -0.468853       -12.7581
  54   2.0000      -0.459001       -12.4901
  55   2.0000      -0.453699       -12.3458
  56   2.0000      -0.439295       -11.9538
  57   2.0000      -0.434380       -11.8201
  58   2.0000      -0.433357       -11.7922
  59   2.0000      -0.429284       -11.6814
  60   2.0000      -0.425894       -11.5892
  61   2.0000      -0.409562       -11.1448
  62   2.0000      -0.405088       -11.0230
  63   2.0000      -0.345719        -9.4075
  64   2.0000      -0.334850        -9.1117
  65   2.0000      -0.328020        -8.9259
  66   2.0000      -0.290872        -7.9150
  67   0.0000       0.032914         0.8956
  68   0.0000       0.075649         2.0585
  69   0.0000       0.120084         3.2677
  70   0.0000       0.127770         3.4768
  71   0.0000       0.136499         3.7143

MULLIKEN ATOMIC CHARGES
-----------------------
   0 S :    0.089871
   1 C :   -0.106296
   2 C :   -0.131722
   3 C :    0.010125
   4 C :   -0.122412
   5 H :    0.010390
   6 C :    0.097324
   7 H :    0.016093
   8 H :    0.013645
   9 C :   -0.010136
  10 H :    0.024345
  11 H :    0.035201
  12 C :   -0.113067
  13 H :    0.032361
  14 H :    0.040274
  15 H :    0.044874
  16 S :    0.140430
  17 C :   -0.089812
  18 C :   -0.061614
  19 C :    0.007671
  20 C :   -0.195340
  21 H :    0.007930
  22 C :    0.027360
  23 H :    0.041714
  24 H :    0.039262
  25 C :   -0.104968
  26 H :    0.053272
  27 H :    0.030017
  28 C :   -0.016607
  29 H :    0.033306
  30 H :    0.026944
  31 H :    0.027591
  32 H :    0.041938
  33 H :    0.060033
Sum of atomic charges:    0.0000000

LOEWDIN ATOMIC CHARGES
----------------------
   0 S :    0.380316
   1 C :   -0.193949
   2 C :   -0.067964
   3 C :   -0.071562
   4 C :   -0.192388
   5 H :    0.033913
   6 C :   -0.020104
   7 H :    0.023885
   8 H :    0.031503
   9 C :   -0.031478
  10 H :    0.023406
  11 H :    0.023705
  12 C :   -0.074921
  13 H :    0.030838
  14 H :    0.028795
  15 H :    0.019563
  16 S :    0.463185
  17 C :   -0.202565
  18 C :   -0.073422
  19 C :   -0.059835
  20 C :   -0.220692
  21 H :    0.029241
  22 C :   -0.039193
  23 H :    0.036700
  24 H :    0.034220
  25 C :   -0.041104
  26 H :    0.031870
  27 H :    0.024000
  28 C :   -0.061374
  29 H :    0.018647
  30 H :    0.027863
  31 H :    0.030817
  32 H :    0.026094
  33 H :    0.031991

  Mayer bond orders larger than 0.100000
B(  0-S ,  1-C ) :   1.1240 B(  0-S ,  4-C ) :   1.1210 B(  1-C ,  2-C ) :   1.6496
B(  1-C , 32-H ) :   0.9638 B(  2-C ,  3-C ) :   1.2161 B(  2-C ,  6-C ) :   0.9853
B(  3-C ,  4-C ) :   1.6281 B(  3-C ,  5-H ) :   0.9990 B(  4-C , 20-C ) :   1.0243
B(  6-C ,  7-H ) :   0.9524 B(  6-C ,  8-H ) :   0.9470 B(  6-C ,  9-C ) :   1.0511
B(  9-C , 10-H ) :   0.9565 B(  9-C , 11-H ) :   0.9609 B(  9-C , 12-C ) :   1.0704
B( 12-C , 13-H ) :   0.9764 B( 12-C , 14-H ) :   0.9743 B( 12-C , 15-H ) :   0.9752
B( 16-S , 17-C ) :   1.1911 B( 16-S , 20-C ) :   1.1906 B( 17-C , 18-C ) :   1.5409
B( 17-C , 20-C ) :   0.1161 B( 17-C , 33-H ) :   0.9633 B( 18-C , 19-C ) :   1.3097
B( 18-C , 21-H ) :   0.9929 B( 19-C , 20-C ) :   1.5324 B( 19-C , 22-C ) :   1.0226
B( 22-C , 23-H ) :   0.9238 B( 22-C , 24-H ) :   0.9467 B( 22-C , 25-C ) :   1.0717
B( 25-C , 26-H ) :   0.9588 B( 25-C , 27-H ) :   0.9432 B( 25-C , 28-C ) :   1.0880
B( 28-C , 29-H ) :   0.9769 B( 28-C , 30-H ) :   0.9718 B( 28-C , 31-H ) :   0.9717

Dispersion correction           -0.013992738
FINAL SINGLE POINT ENERGY     -1339.864835355615

DIPOLE MOMENT
-------------
                                X             Y             Z
Electronic contribution:     -1.04179     -10.82470     -26.06468
Nuclear contribution   :      0.77959      11.24964      26.60132
                        -----------------------------------------
Total Dipole Moment    :     -0.26220       0.42494       0.53664
                        -----------------------------------------
Magnitude (a.u.)       :      0.73301
Magnitude (Debye)      :      1.86317

Rotational constants in cm-1:     0.017654     0.008893     0.006525
Rotational constants in MHz :   529.240511   266.618551   195.607807

                             ****ORCA TERMINATED NORMALLY****
TOTAL RUN TIME: 0 days 0 hours 0 minutes 21 seconds 515 msec
