                         Program Version 4.2.1 -  RELEASE  -
|  1> ! wB97X-D3 SP def2-SVP
|  2> %pal
|  3> nprocs 24
|  4> end
|  5>
|  6> * xyz 0 1
|  7> S 	 -135.633 	 20.6398 	 -18.9687
|  8> C 	 -136.487 	 19.2609 	 -18.4016
|  9> C 	 -136.786 	 18.395 	 -19.4155
| 10> C 	 -136.168 	 18.8982 	 -20.6335
| 11> C 	 -135.495 	 20.0709 	 -20.5349
| 12> H 	 -136.23 	 18.5052 	 -21.6426
| 13> C 	 -137.632 	 17.1766 	 -19.3634
| 14> H 	 -137.304 	 16.5444 	 -18.5342
| 15> H 	 -137.416 	 16.5776 	 -20.2828
| 16> C 	 -139.132 	 17.4394 	 -19.2187
| 17> H 	 -139.349 	 18.2408 	 -19.9553
| 18> H 	 -139.782 	 16.6755 	 -19.5865
| 19> C 	 -139.564 	 17.7826 	 -17.8245
| 20> H 	 -140.654 	 17.7517 	 -17.7999
| 21> H 	 -139.182 	 17.0372 	 -17.1139
| 22> H 	 -139.352 	 18.7774 	 -17.4773
| 23> S 	 -135.376 	 22.5721 	 -21.7118
| 24> C 	 -134.637 	 22.7924 	 -23.2337
| 25> C 	 -134.193 	 21.5876 	 -23.7964
| 26> C 	 -134.496 	 20.5181 	 -22.9014
| 27> C 	 -135.064 	 20.9016 	 -21.6785
| 28> H 	 -133.71 	 21.5519 	 -24.7842
| 29> C 	 -133.926 	 19.1325 	 -23.3042
| 30> H 	 -134.01 	 18.4653 	 -22.4297
| 31> H 	 -132.861 	 19.1578 	 -23.4981
| 32> C 	 -134.551 	 18.5701 	 -24.6115
| 33> H 	 -134.542 	 19.2734 	 -25.4611
| 34> H 	 -135.587 	 18.3005 	 -24.3812
| 35> C 	 -133.751 	 17.3148 	 -25.0466
| 36> H 	 -133.876 	 16.5345 	 -24.3092
| 37> H 	 -132.665 	 17.4927 	 -25.1424
| 38> H 	 -134.106 	 16.9301 	 -25.975
| 39> H 	 -136.902 	 19.213 	 -17.3774
| 40> H 	 -134.53 	 23.7387 	 -23.5707
| 41> *
| 42>
| 43>                          ****END OF INPUT****

CARTESIAN COORDINATES (ANGSTROEM)
---------------------------------
  S    -135.633000   20.639800  -18.968700
  C    -136.487000   19.260900  -18.401600
  C    -136.786000   18.395000  -19.415500
  C    -136.168000   18.898200  -20.633500
  C    -135.495000   20.070900  -20.534900
  H    -136.230000   18.505200  -21.642600
  C    -137.632000   17.176600  -19.363400
  H    -137.304000   16.544400  -18.534200
  H    -137.416000   16.577600  -20.282800
  C    -139.132000   17.439400  -19.218700
  H    -139.349000   18.240800  -19.955300
  H    -139.782000   16.675500  -19.586500
  C    -139.564000   17.782600  -17.824500
  H    -140.654000   17.751700  -17.799900
  H    -139.182000   17.037200  -17.113900
  H    -139.352000   18.777400  -17.477300
  S    -135.376000   22.572100  -21.711800
  C    -134.637000   22.792400  -23.233700
  C    -134.193000   21.587600  -23.796400
  C    -134.496000   20.518100  -22.901400
  C    -135.064000   20.901600  -21.678500
  H    -133.710000   21.551900  -24.784200
  C    -133.926000   19.132500  -23.304200
  H    -134.010000   18.465300  -22.429700
  H    -132.861000   19.157800  -23.498100
  C    -134.551000   18.570100  -24.611500
  H    -134.542000   19.273400  -25.461100
  H    -135.587000   18.300500  -24.381200
  C    -133.751000   17.314800  -25.046600
  H    -133.876000   16.534500  -24.309200
  H    -132.665000   17.492700  -25.142400
  H    -134.106000   16.930100  -25.975000
  H    -136.902000   19.213000  -17.377400
  H    -134.530000   23.738700  -23.570700

 Total Charge           Charge          ....    0
 Multiplicity           Mult            ....    1
 Number of Electrons    NEL             ....  134
 Basis Dimension        Dim             ....  322

ORBITAL ENERGIES
----------------

  NO   OCC          E(Eh)            E(eV)
   0   2.0000     -88.965710     -2420.8801
   1   2.0000     -88.962856     -2420.8024
   2   2.0000     -10.327099      -281.0146
   3   2.0000     -10.321134      -280.8523
   4   2.0000     -10.312051      -280.6052
   5   2.0000     -10.308850      -280.5181
   6   2.0000     -10.302873      -280.3554
   7   2.0000     -10.301622      -280.3214
   8   2.0000     -10.297750      -280.2160
   9   2.0000     -10.293151      -280.0909
  10   2.0000     -10.291303      -280.0406
  11   2.0000     -10.290608      -280.0217
  12   2.0000     -10.288729      -279.9706
  13   2.0000     -10.284172      -279.8465
  14   2.0000     -10.276873      -279.6479
  15   2.0000     -10.276056      -279.6257
  16   2.0000      -8.082225      -219.9285
  17   2.0000      -8.079827      -219.8633
  18   2.0000      -6.040466      -164.3694
  19   2.0000      -6.038194      -164.3076
  20   2.0000      -6.036362      -164.2578
  21   2.0000      -6.033968      -164.1926
  22   2.0000      -6.033285      -164.1740
  23   2.0000      -6.030649      -164.1023
  24   2.0000      -1.019664       -27.7465
  25   2.0000      -0.995864       -27.0988
  26   2.0000      -0.919767       -25.0281
  27   2.0000      -0.905298       -24.6344
  28   2.0000      -0.872473       -23.7412
  29   2.0000      -0.853706       -23.2305
  30   2.0000      -0.847541       -23.0628
  31   2.0000      -0.815145       -22.1812
  32   2.0000      -0.785727       -21.3807
  33   2.0000      -0.773615       -21.0511
  34   2.0000      -0.706784       -19.2326
  35   2.0000      -0.699552       -19.0358
  36   2.0000      -0.695661       -18.9299
  37   2.0000      -0.665779       -18.1168
  38   2.0000      -0.643897       -17.5213
  39   2.0000      -0.619023       -16.8445
  40   2.0000      -0.601077       -16.3561
  41   2.0000      -0.577057       -15.7025
  42   2.0000      -0.563414       -15.3313
  43   2.0000      -0.551141       -14.9973
  44   2.0000      -0.545598       -14.8465
  45   2.0000      -0.527563       -14.3557
  46   2.0000      -0.519143       -14.1266
  47   2.0000      -0.512839       -13.9550
  48   2.0000      -0.504646       -13.7321
  49   2.0000      -0.497658       -13.5420
  50   2.0000      -0.492729       -13.4078
  51   2.0000      -0.484931       -13.1956
  52   2.0000      -0.471803       -12.8384
  53   2.0000      -0.469671       -12.7804
  54   2.0000      -0.458855       -12.4861
  55   2.0000      -0.451529       -12.2867
  56   2.0000      -0.443512       -12.0686
  57   2.0000      -0.439404       -11.9568
  58   2.0000      -0.432307       -11.7637
  59   2.0000      -0.429387       -11.6842
  60   2.0000      -0.422676       -11.5016
  61   2.0000      -0.414155       -11.2697
  62   2.0000      -0.411126       -11.1873
  63   2.0000      -0.356713        -9.7067
  64   2.0000      -0.331351        -9.0165
  65   2.0000      -0.327935        -8.9236
  66   2.0000      -0.290781        -7.9126
  67   0.0000       0.033785         0.9193
  68   0.0000       0.082814         2.2535
  69   0.0000       0.117435         3.1956
  70   0.0000       0.121838         3.3154
  71   0.0000       0.129461         3.5228

MULLIKEN ATOMIC CHARGES
-----------------------
   0 S :    0.102146
   1 C :   -0.140169
   2 C :   -0.074178
   3 C :   -0.003566
   4 C :   -0.125031
   5 H :    0.002488
   6 C :    0.064175
   7 H :    0.029492
   8 H :    0.027870
   9 C :   -0.056771
  10 H :    0.026819
  11 H :    0.023167
  12 C :   -0.043254
  13 H :    0.027533
  14 H :    0.030985
  15 H :    0.032092
  16 S :    0.116425
  17 C :   -0.066049
  18 C :   -0.027250
  19 C :   -0.042922
  20 C :   -0.124879
  21 H :    0.036780
  22 C :    0.029206
  23 H :    0.025192
  24 H :    0.024476
  25 C :   -0.090396
  26 H :    0.037174
  27 H :    0.031571
  28 C :   -0.035825
  29 H :    0.024863
  30 H :    0.032439
  31 H :    0.025623
  32 H :    0.062422
  33 H :    0.017351
Sum of atomic charges:   -0.0000000

LOEWDIN ATOMIC CHARGES
----------------------
   0 S :    0.443740
   1 C :   -0.208356
   2 C :   -0.062727
   3 C :   -0.068609
   4 C :   -0.221158
   5 H :    0.027641
   6 C :   -0.036384
   7 H :    0.030863
   8 H :    0.037095
   9 C :   -0.044061
  10 H :    0.030453
  11 H :    0.022938
  12 C :   -0.065684
  13 H :    0.030000
  14 H :    0.026573
  15 H :    0.021000
  16 S :    0.449991
  17 C :   -0.180938
  18 C :   -0.066198
  19 C :   -0.062953
  20 C :   -0.216408
  21 H :    0.039020
  22 C :   -0.033453
  23 H :    0.028012
  24 H :    0.027161
  25 C :   -0.036633
  26 H :    0.023758
  27 H :    0.023100
  28 C :   -0.064061
  29 H :    0.023029
  30 H :    0.026366
  31 H :    0.020124
  32 H :    0.034284
  33 H :    0.002475

  Mayer bond orders larger than 0.100000
B(  0-S ,  1-C ) :   1.1549 B(  0-S ,  4-C ) :   1.1635 B(  1-C ,  2-C ) :   1.5966
B(  1-C , 32-H ) :   0.9634 B(  2-C ,  3-C ) :   1.2504 B(  2-C ,  6-C ) :   1.0294
B(  3-C ,  4-C ) :   1.5747 B(  3-C ,  5-H ) :   0.9924 B(  4-C , 20-C ) :   1.0218
B(  6-C ,  7-H ) :   0.9415 B(  6-C ,  8-H ) :   0.9352 B(  6-C ,  9-C ) :   1.0652
B(  9-C , 10-H ) :   0.9490 B(  9-C , 11-H ) :   0.9576 B(  9-C , 12-C ) :   1.0849
B( 12-C , 13-H ) :   0.9690 B( 12-C , 14-H ) :   0.9734 B( 12-C , 15-H ) :   0.9717
B( 16-S , 17-C ) :   1.1939 B( 16-S , 20-C ) :   1.1638 B( 17-C , 18-C ) :   1.5443
B( 17-C , 33-H ) :   0.9864 B( 18-C , 19-C ) :   1.2740 B( 18-C , 21-H ) :   0.9929
B( 19-C , 20-C ) :   1.5646 B( 19-C , 22-C ) :   1.0334 B( 22-C , 23-H ) :   0.9409
B( 22-C , 24-H ) :   0.9496 B( 22-C , 25-C ) :   1.0456 B( 25-C , 26-H ) :   0.9607
B( 25-C , 27-H ) :   0.9547 B( 25-C , 28-C ) :   1.0808 B( 28-C , 29-H ) :   0.9748
B( 28-C , 30-H ) :   0.9745 B( 28-C , 31-H ) :   0.9745

Dispersion correction           -0.013878346
FINAL SINGLE POINT ENERGY     -1339.885730873814

DIPOLE MOMENT
-------------
                                X             Y             Z
Electronic contribution:      7.15507      23.83235       7.60860
Nuclear contribution   :     -7.40574     -24.25753      -7.92135
                        -----------------------------------------
Total Dipole Moment    :     -0.25067      -0.42518      -0.31275
                        -----------------------------------------
Magnitude (a.u.)       :      0.58431
Magnitude (Debye)      :      1.48521

Rotational constants in cm-1:     0.018738     0.008356     0.006351
Rotational constants in MHz :   561.759377   250.491929   190.403018

                             ****ORCA TERMINATED NORMALLY****
TOTAL RUN TIME: 0 days 0 hours 0 minutes 21 seconds 303 msec
