                         Program Version 4.2.1 -  RELEASE  -
|  1> ! wB97X-D3 SP def2-SVP
|  2> %pal
|  3> nprocs 24
|  4> end
|  5>
|  6> * xyz 0 1
|  7> S 	 -114.928 	 48.1303 	 -113.799
|  8> C 	 -116.366 	 47.2939 	 -113.437
|  9> C 	 -116.182 	 45.9311 	 -113.275
| 10> C 	 -114.817 	 45.5486 	 -113.325
| 11> C 	 -114.016 	 46.6543 	 -113.394
| 12> H 	 -114.518 	 44.5388 	 -113.202
| 13> C 	 -117.212 	 44.967 	 -112.923
| 14> H 	 -118.097 	 45.3241 	 -113.369
| 15> H 	 -117.474 	 45.0173 	 -111.864
| 16> C 	 -117.213 	 43.5386 	 -113.451
| 17> H 	 -116.982 	 43.6534 	 -114.526
| 18> H 	 -116.391 	 42.9131 	 -113.071
| 19> C 	 -118.488 	 42.8198 	 -113.182
| 20> H 	 -118.522 	 42.5828 	 -112.141
| 21> H 	 -119.313 	 43.4916 	 -113.256
| 22> H 	 -118.504 	 41.9349 	 -113.835
| 23> S 	 -111.821 	 47.5417 	 -111.954
| 24> C 	 -110.188 	 47.2364 	 -112.628
| 25> C 	 -110.27 	 46.2452 	 -113.554
| 26> C 	 -111.635 	 45.9371 	 -113.932
| 27> C 	 -112.613 	 46.6622 	 -113.289
| 28> H 	 -109.349 	 45.9303 	 -113.993
| 29> C 	 -111.927 	 44.9565 	 -114.992
| 30> H 	 -113.047 	 44.8709 	 -115.107
| 31> H 	 -111.592 	 43.9638 	 -114.731
| 32> C 	 -111.401 	 45.2695 	 -116.416
| 33> H 	 -111.603 	 44.5382 	 -117.158
| 34> H 	 -110.321 	 45.3274 	 -116.358
| 35> C 	 -111.968 	 46.512 	 -117.005
| 36> H 	 -111.638 	 47.4026 	 -116.469
| 37> H 	 -113.032 	 46.4218 	 -117.149
| 38> H 	 -111.525 	 46.7024 	 -118.016
| 39> H 	 -117.355 	 47.7462 	 -113.423
| 40> H 	 -109.25 	 47.4995 	 -112.178
| 41> *
| 42>
| 43>                          ****END OF INPUT****

CARTESIAN COORDINATES (ANGSTROEM)
---------------------------------
  S    -114.928000   48.130300  -113.799000
  C    -116.366000   47.293900  -113.437000
  C    -116.182000   45.931100  -113.275000
  C    -114.817000   45.548600  -113.325000
  C    -114.016000   46.654300  -113.394000
  H    -114.518000   44.538800  -113.202000
  C    -117.212000   44.967000  -112.923000
  H    -118.097000   45.324100  -113.369000
  H    -117.474000   45.017300  -111.864000
  C    -117.213000   43.538600  -113.451000
  H    -116.982000   43.653400  -114.526000
  H    -116.391000   42.913100  -113.071000
  C    -118.488000   42.819800  -113.182000
  H    -118.522000   42.582800  -112.141000
  H    -119.313000   43.491600  -113.256000
  H    -118.504000   41.934900  -113.835000
  S    -111.821000   47.541700  -111.954000
  C    -110.188000   47.236400  -112.628000
  C    -110.270000   46.245200  -113.554000
  C    -111.635000   45.937100  -113.932000
  C    -112.613000   46.662200  -113.289000
  H    -109.349000   45.930300  -113.993000
  C    -111.927000   44.956500  -114.992000
  H    -113.047000   44.870900  -115.107000
  H    -111.592000   43.963800  -114.731000
  C    -111.401000   45.269500  -116.416000
  H    -111.603000   44.538200  -117.158000
  H    -110.321000   45.327400  -116.358000
  C    -111.968000   46.512000  -117.005000
  H    -111.638000   47.402600  -116.469000
  H    -113.032000   46.421800  -117.149000
  H    -111.525000   46.702400  -118.016000
  H    -117.355000   47.746200  -113.423000
  H    -109.250000   47.499500  -112.178000

 Total Charge           Charge          ....    0
 Multiplicity           Mult            ....    1
 Number of Electrons    NEL             ....  134
 Basis Dimension        Dim             ....  322

ORBITAL ENERGIES
----------------

  NO   OCC          E(Eh)            E(eV)
   0   2.0000     -88.968562     -2420.9577
   1   2.0000     -88.957345     -2420.6524
   2   2.0000     -10.325254      -280.9644
   3   2.0000     -10.321490      -280.8620
   4   2.0000     -10.316227      -280.7188
   5   2.0000     -10.309729      -280.5420
   6   2.0000     -10.300748      -280.2976
   7   2.0000     -10.293610      -280.1034
   8   2.0000     -10.291725      -280.0521
   9   2.0000     -10.291270      -280.0397
  10   2.0000     -10.286720      -279.9159
  11   2.0000     -10.285486      -279.8823
  12   2.0000     -10.280625      -279.7500
  13   2.0000     -10.275562      -279.6123
  14   2.0000     -10.275284      -279.6047
  15   2.0000     -10.267448      -279.3915
  16   2.0000      -8.083619      -219.9664
  17   2.0000      -8.071355      -219.6327
  18   2.0000      -6.042029      -164.4120
  19   2.0000      -6.038264      -164.3095
  20   2.0000      -6.034280      -164.2011
  21   2.0000      -6.030114      -164.0877
  22   2.0000      -6.026103      -163.9786
  23   2.0000      -6.021729      -163.8596
  24   2.0000      -1.010127       -27.4870
  25   2.0000      -0.983912       -26.7736
  26   2.0000      -0.924458       -25.1558
  27   2.0000      -0.908617       -24.7247
  28   2.0000      -0.879770       -23.9398
  29   2.0000      -0.861726       -23.4487
  30   2.0000      -0.843663       -22.9572
  31   2.0000      -0.822095       -22.3703
  32   2.0000      -0.782087       -21.2817
  33   2.0000      -0.766763       -20.8647
  34   2.0000      -0.717936       -19.5360
  35   2.0000      -0.694589       -18.9007
  36   2.0000      -0.692184       -18.8353
  37   2.0000      -0.656359       -17.8604
  38   2.0000      -0.643742       -17.5171
  39   2.0000      -0.632184       -17.2026
  40   2.0000      -0.594125       -16.1670
  41   2.0000      -0.575582       -15.6624
  42   2.0000      -0.571770       -15.5587
  43   2.0000      -0.551979       -15.0201
  44   2.0000      -0.550547       -14.9812
  45   2.0000      -0.537577       -14.6282
  46   2.0000      -0.522494       -14.2178
  47   2.0000      -0.512461       -13.9448
  48   2.0000      -0.503761       -13.7080
  49   2.0000      -0.499221       -13.5845
  50   2.0000      -0.490386       -13.3441
  51   2.0000      -0.479451       -13.0465
  52   2.0000      -0.474759       -12.9189
  53   2.0000      -0.463888       -12.6230
  54   2.0000      -0.460278       -12.5248
  55   2.0000      -0.451545       -12.2872
  56   2.0000      -0.436905       -11.8888
  57   2.0000      -0.433162       -11.7869
  58   2.0000      -0.428535       -11.6610
  59   2.0000      -0.427056       -11.6208
  60   2.0000      -0.416588       -11.3359
  61   2.0000      -0.411851       -11.2070
  62   2.0000      -0.409344       -11.1388
  63   2.0000      -0.347173        -9.4470
  64   2.0000      -0.328232        -8.9317
  65   2.0000      -0.322803        -8.7839
  66   2.0000      -0.293001        -7.9730
  67   0.0000       0.026164         0.7120
  68   0.0000       0.067090         1.8256
  69   0.0000       0.104983         2.8567
  70   0.0000       0.112712         3.0670
  71   0.0000       0.134994         3.6734

MULLIKEN ATOMIC CHARGES
-----------------------
   0 S :    0.139778
   1 C :   -0.116356
   2 C :   -0.081121
   3 C :    0.057828
   4 C :   -0.176669
   5 H :    0.007373
   6 C :    0.065382
   7 H :   -0.009287
   8 H :    0.037288
   9 C :   -0.113851
  10 H :    0.028307
  11 H :    0.029767
  12 C :    0.007805
  13 H :    0.019941
  14 H :    0.011487
  15 H :    0.049090
  16 S :    0.080316
  17 C :   -0.079629
  18 C :   -0.026946
  19 C :   -0.011535
  20 C :   -0.145441
  21 H :    0.015874
  22 C :    0.050837
  23 H :    0.021281
  24 H :    0.027117
  25 C :   -0.056070
  26 H :    0.018111
  27 H :    0.014085
  28 C :   -0.054442
  29 H :    0.036744
  30 H :    0.033198
  31 H :    0.023463
  32 H :    0.042320
  33 H :    0.053956
Sum of atomic charges:    0.0000000

LOEWDIN ATOMIC CHARGES
----------------------
   0 S :    0.422565
   1 C :   -0.208967
   2 C :   -0.067601
   3 C :   -0.039244
   4 C :   -0.186099
   5 H :    0.029638
   6 C :   -0.043736
   7 H :    0.025707
   8 H :    0.034591
   9 C :   -0.044814
  10 H :    0.025129
  11 H :    0.019618
  12 C :   -0.056276
  13 H :    0.025527
  14 H :    0.019921
  15 H :    0.036118
  16 S :    0.361664
  17 C :   -0.162488
  18 C :   -0.067379
  19 C :   -0.053991
  20 C :   -0.189321
  21 H :    0.029369
  22 C :   -0.038110
  23 H :    0.033261
  24 H :    0.029767
  25 C :   -0.041709
  26 H :    0.021045
  27 H :    0.016998
  28 C :   -0.065926
  29 H :    0.025256
  30 H :    0.023318
  31 H :    0.029105
  32 H :    0.028085
  33 H :    0.028979

  Mayer bond orders larger than 0.100000
B(  0-S ,  1-C ) :   1.1422 B(  0-S ,  4-C ) :   1.1469 B(  1-C ,  2-C ) :   1.6013
B(  1-C , 32-H ) :   0.9677 B(  2-C ,  3-C ) :   1.2466 B(  2-C ,  6-C ) :   1.0351
B(  3-C ,  4-C ) :   1.5476 B(  3-C ,  5-H ) :   1.0053 B(  4-C , 20-C ) :   1.0806
B(  6-C ,  7-H ) :   0.9206 B(  6-C ,  8-H ) :   0.9279 B(  6-C ,  9-C ) :   1.0658
B(  9-C , 10-H ) :   0.9577 B(  9-C , 11-H ) :   0.9437 B(  9-C , 12-C ) :   1.0926
B( 12-C , 13-H ) :   0.9686 B( 12-C , 14-H ) :   0.9716 B( 12-C , 15-H ) :   0.9699
B( 16-S , 17-C ) :   1.1287 B( 16-S , 20-C ) :   1.1123 B( 17-C , 18-C ) :   1.6566
B( 17-C , 33-H ) :   0.9648 B( 18-C , 19-C ) :   1.1838 B( 18-C , 21-H ) :   0.9939
B( 19-C , 20-C ) :   1.6095 B( 19-C , 22-C ) :   1.0658 B( 22-C , 23-H ) :   0.9305
B( 22-C , 24-H ) :   0.9274 B( 22-C , 25-C ) :   1.0729 B( 25-C , 26-H ) :   0.9539
B( 25-C , 27-H ) :   0.9528 B( 25-C , 28-C ) :   1.0909 B( 28-C , 29-H ) :   0.9729
B( 28-C , 30-H ) :   0.9737 B( 28-C , 31-H ) :   0.9690

Dispersion correction           -0.014576927
FINAL SINGLE POINT ENERGY     -1339.864227649001

DIPOLE MOMENT
-------------
                                X             Y             Z
Electronic contribution:      9.61350      19.58746      12.48867
Nuclear contribution   :     -9.77620     -20.23429     -12.70204
                        -----------------------------------------
Total Dipole Moment    :     -0.16270      -0.64683      -0.21337
                        -----------------------------------------
Magnitude (a.u.)       :      0.70028
Magnitude (Debye)      :      1.77997

Rotational constants in cm-1:     0.019801     0.008165     0.007253
Rotational constants in MHz :   593.633646   244.778907   217.435096

                             ****ORCA TERMINATED NORMALLY****
TOTAL RUN TIME: 0 days 0 hours 0 minutes 23 seconds 310 msec
