                         Program Version 4.2.1 -  RELEASE  -
|  1> ! wB97X-D3 SP def2-SVP
|  2> %pal
|  3> nprocs 24
|  4> end
|  5>
|  6> * xyz 0 1
|  7> S 	 -54.3401 	 17.6035 	 -87.3138
|  8> C 	 -54.1836 	 17.4494 	 -89.0323
|  9> C 	 -55.3723 	 17.689 	 -89.7256
| 10> C 	 -56.4587 	 17.9016 	 -88.82
| 11> C 	 -56.0748 	 17.9994 	 -87.47
| 12> H 	 -57.5062 	 18.0058 	 -89.0381
| 13> C 	 -55.4929 	 17.6314 	 -91.2115
| 14> H 	 -56.4965 	 17.8125 	 -91.5787
| 15> H 	 -55.3447 	 16.6269 	 -91.5107
| 16> C 	 -54.6563 	 18.5058 	 -92.0412
| 17> H 	 -54.9249 	 19.5674 	 -91.979
| 18> H 	 -53.6761 	 18.3863 	 -91.6543
| 19> C 	 -54.6781 	 17.9436 	 -93.5038
| 20> H 	 -55.7239 	 17.8553 	 -93.7446
| 21> H 	 -54.1993 	 18.6226 	 -94.227
| 22> H 	 -54.1999 	 16.971 	 -93.5119
| 23> S 	 -57.2518 	 16.5938 	 -85.4136
| 24> C 	 -58.4382 	 17.3797 	 -84.3918
| 25> C 	 -58.4608 	 18.7428 	 -84.5923
| 26> C 	 -57.6659 	 19.1426 	 -85.7337
| 27> C 	 -56.9445 	 18.0971 	 -86.2927
| 28> H 	 -59.0214 	 19.3357 	 -83.8577
| 29> C 	 -57.5509 	 20.5807 	 -86.1018
| 30> H 	 -58.5611 	 20.9764 	 -86.1912
| 31> H 	 -56.9936 	 20.5535 	 -87.0241
| 32> C 	 -56.7739 	 21.4655 	 -85.1619
| 33> H 	 -55.9155 	 20.9018 	 -84.8519
| 34> H 	 -57.2505 	 21.6884 	 -84.2622
| 35> C 	 -56.4063 	 22.7458 	 -85.8464
| 36> H 	 -55.8186 	 22.6009 	 -86.717
| 37> H 	 -55.6566 	 23.3725 	 -85.1987
| 38> H 	 -57.2601 	 23.3971 	 -85.9527
| 39> H 	 -53.3147 	 17.2303 	 -89.5087
| 40> H 	 -58.891 	 16.9169 	 -83.563
| 41> *
| 42>
| 43>                          ****END OF INPUT****

CARTESIAN COORDINATES (ANGSTROEM)
---------------------------------
  S    -54.340100   17.603500  -87.313800
  C    -54.183600   17.449400  -89.032300
  C    -55.372300   17.689000  -89.725600
  C    -56.458700   17.901600  -88.820000
  C    -56.074800   17.999400  -87.470000
  H    -57.506200   18.005800  -89.038100
  C    -55.492900   17.631400  -91.211500
  H    -56.496500   17.812500  -91.578700
  H    -55.344700   16.626900  -91.510700
  C    -54.656300   18.505800  -92.041200
  H    -54.924900   19.567400  -91.979000
  H    -53.676100   18.386300  -91.654300
  C    -54.678100   17.943600  -93.503800
  H    -55.723900   17.855300  -93.744600
  H    -54.199300   18.622600  -94.227000
  H    -54.199900   16.971000  -93.511900
  S    -57.251800   16.593800  -85.413600
  C    -58.438200   17.379700  -84.391800
  C    -58.460800   18.742800  -84.592300
  C    -57.665900   19.142600  -85.733700
  C    -56.944500   18.097100  -86.292700
  H    -59.021400   19.335700  -83.857700
  C    -57.550900   20.580700  -86.101800
  H    -58.561100   20.976400  -86.191200
  H    -56.993600   20.553500  -87.024100
  C    -56.773900   21.465500  -85.161900
  H    -55.915500   20.901800  -84.851900
  H    -57.250500   21.688400  -84.262200
  C    -56.406300   22.745800  -85.846400
  H    -55.818600   22.600900  -86.717000
  H    -55.656600   23.372500  -85.198700
  H    -57.260100   23.397100  -85.952700
  H    -53.314700   17.230300  -89.508700
  H    -58.891000   16.916900  -83.563000

 Total Charge           Charge          ....    0
 Multiplicity           Mult            ....    1
 Number of Electrons    NEL             ....  134
 Basis Dimension        Dim             ....  322

ORBITAL ENERGIES
----------------

  NO   OCC          E(Eh)            E(eV)
   0   2.0000     -88.968565     -2420.9577
   1   2.0000     -88.961369     -2420.7619
   2   2.0000     -10.332573      -281.1636
   3   2.0000     -10.326758      -281.0054
   4   2.0000     -10.313534      -280.6455
   5   2.0000     -10.309406      -280.5332
   6   2.0000     -10.303291      -280.3668
   7   2.0000     -10.302304      -280.3399
   8   2.0000     -10.298340      -280.2321
   9   2.0000     -10.294782      -280.1353
  10   2.0000     -10.281220      -279.7662
  11   2.0000     -10.280970      -279.7594
  12   2.0000     -10.280946      -279.7588
  13   2.0000     -10.280717      -279.7525
  14   2.0000     -10.276892      -279.6484
  15   2.0000     -10.272076      -279.5174
  16   2.0000      -8.082828      -219.9449
  17   2.0000      -8.076075      -219.7612
  18   2.0000      -6.041262      -164.3911
  19   2.0000      -6.037354      -164.2847
  20   2.0000      -6.034642      -164.2110
  21   2.0000      -6.033756      -164.1869
  22   2.0000      -6.030572      -164.1002
  23   2.0000      -6.026786      -163.9972
  24   2.0000      -1.001417       -27.2499
  25   2.0000      -0.981502       -26.7080
  26   2.0000      -0.924229       -25.1495
  27   2.0000      -0.917475       -24.9658
  28   2.0000      -0.868654       -23.6373
  29   2.0000      -0.851579       -23.1726
  30   2.0000      -0.848259       -23.0823
  31   2.0000      -0.814526       -22.1644
  32   2.0000      -0.780086       -21.2272
  33   2.0000      -0.768747       -20.9187
  34   2.0000      -0.709320       -19.3016
  35   2.0000      -0.705025       -19.1847
  36   2.0000      -0.697943       -18.9920
  37   2.0000      -0.658870       -17.9288
  38   2.0000      -0.651339       -17.7238
  39   2.0000      -0.615290       -16.7429
  40   2.0000      -0.595533       -16.2053
  41   2.0000      -0.584010       -15.8917
  42   2.0000      -0.579518       -15.7695
  43   2.0000      -0.565980       -15.4011
  44   2.0000      -0.526410       -14.3244
  45   2.0000      -0.520718       -14.1694
  46   2.0000      -0.517377       -14.0786
  47   2.0000      -0.513099       -13.9621
  48   2.0000      -0.508507       -13.8372
  49   2.0000      -0.497400       -13.5349
  50   2.0000      -0.494915       -13.4673
  51   2.0000      -0.482568       -13.1314
  52   2.0000      -0.474660       -12.9161
  53   2.0000      -0.462922       -12.5967
  54   2.0000      -0.459001       -12.4901
  55   2.0000      -0.446712       -12.1556
  56   2.0000      -0.441619       -12.0171
  57   2.0000      -0.440659       -11.9909
  58   2.0000      -0.429484       -11.6868
  59   2.0000      -0.425658       -11.5828
  60   2.0000      -0.419965       -11.4278
  61   2.0000      -0.417918       -11.3721
  62   2.0000      -0.416435       -11.3318
  63   2.0000      -0.340120        -9.2551
  64   2.0000      -0.326443        -8.8830
  65   2.0000      -0.323769        -8.8102
  66   2.0000      -0.302718        -8.2374
  67   0.0000       0.037626         1.0239
  68   0.0000       0.055330         1.5056
  69   0.0000       0.119231         3.2445
  70   0.0000       0.121087         3.2949
  71   0.0000       0.125111         3.4044

MULLIKEN ATOMIC CHARGES
-----------------------
   0 S :    0.116249
   1 C :   -0.081986
   2 C :   -0.062910
   3 C :    0.061475
   4 C :   -0.198774
   5 H :    0.012231
   6 C :    0.069298
   7 H :    0.003610
   8 H :    0.019185
   9 C :   -0.059223
  10 H :    0.037607
  11 H :    0.008587
  12 C :   -0.052471
  13 H :    0.025170
  14 H :    0.040628
  15 H :    0.036679
  16 S :    0.102238
  17 C :   -0.077040
  18 C :   -0.046388
  19 C :   -0.036173
  20 C :   -0.164586
  21 H :    0.029697
  22 C :    0.089001
  23 H :    0.024290
  24 H :    0.016098
  25 C :   -0.020423
  26 H :    0.017262
  27 H :    0.006240
  28 C :   -0.062645
  29 H :    0.031524
  30 H :    0.030900
  31 H :    0.033144
  32 H :    0.009371
  33 H :    0.042135
Sum of atomic charges:    0.0000000

LOEWDIN ATOMIC CHARGES
----------------------
   0 S :    0.405956
   1 C :   -0.181573
   2 C :   -0.058899
   3 C :   -0.046295
   4 C :   -0.197942
   5 H :    0.032507
   6 C :   -0.038768
   7 H :    0.027522
   8 H :    0.029772
   9 C :   -0.034445
  10 H :    0.026930
  11 H :    0.013123
  12 C :   -0.056773
  13 H :    0.020889
  14 H :    0.027830
  15 H :    0.025934
  16 S :    0.394540
  17 C :   -0.172603
  18 C :   -0.074647
  19 C :   -0.049840
  20 C :   -0.204966
  21 H :    0.036555
  22 C :   -0.029597
  23 H :    0.031363
  24 H :    0.030528
  25 C :   -0.036831
  26 H :    0.024207
  27 H :    0.014573
  28 C :   -0.062390
  29 H :    0.020223
  30 H :    0.034989
  31 H :    0.023744
  32 H :    0.004904
  33 H :    0.019480

  Mayer bond orders larger than 0.100000
B(  0-S ,  1-C ) :   1.1569 B(  0-S ,  4-C ) :   1.1482 B(  1-C ,  2-C ) :   1.5837
B(  1-C ,  4-C ) :   0.1026 B(  1-C , 32-H ) :   0.9787 B(  2-C ,  3-C ) :   1.2536
B(  2-C ,  6-C ) :   1.0104 B(  3-C ,  4-C ) :   1.5712 B(  3-C ,  5-H ) :   0.9955
B(  4-C , 20-C ) :   1.0136 B(  6-C ,  7-H ) :   0.9361 B(  6-C ,  8-H ) :   0.9362
B(  6-C ,  9-C ) :   1.0662 B(  9-C , 10-H ) :   0.9549 B(  9-C , 11-H ) :   0.9575
B(  9-C , 12-C ) :   1.0721 B( 12-C , 13-H ) :   0.9766 B( 12-C , 14-H ) :   0.9745
B( 12-C , 15-H ) :   0.9761 B( 16-S , 17-C ) :   1.1558 B( 16-S , 20-C ) :   1.1280
B( 17-C , 18-C ) :   1.6356 B( 17-C , 33-H ) :   0.9688 B( 18-C , 19-C ) :   1.1994
B( 18-C , 21-H ) :   0.9889 B( 19-C , 20-C ) :   1.6224 B( 19-C , 22-C ) :   1.0664
B( 22-C , 23-H ) :   0.9202 B( 22-C , 24-H ) :   0.9287 B( 22-C , 25-C ) :   1.0774
B( 25-C , 26-H ) :   0.9486 B( 25-C , 27-H ) :   0.9443 B( 25-C , 28-C ) :   1.1003
B( 28-C , 29-H ) :   0.9753 B( 28-C , 30-H ) :   0.9712 B( 28-C , 31-H ) :   0.9731

Dispersion correction           -0.013384738
FINAL SINGLE POINT ENERGY     -1339.871755044170

DIPOLE MOMENT
-------------
                                X             Y             Z
Electronic contribution:     -1.02584     -17.86701      17.59135
Nuclear contribution   :      0.87407      18.18178     -17.84847
                        -----------------------------------------
Total Dipole Moment    :     -0.15177       0.31477      -0.25712
                        -----------------------------------------
Magnitude (a.u.)       :      0.43385
Magnitude (Debye)      :      1.10275

Rotational constants in cm-1:     0.019913     0.007358     0.006204
Rotational constants in MHz :   596.963887   220.580882   186.003661

                             ****ORCA TERMINATED NORMALLY****
TOTAL RUN TIME: 0 days 0 hours 0 minutes 22 seconds 90 msec
