                         Program Version 4.2.1 -  RELEASE  -
|  1> ! wB97X-D3 SP def2-SVP
|  2> %pal
|  3> nprocs 24
|  4> end
|  5>
|  6> * xyz 0 1
|  7> S 	 -70.7784 	 17.3419 	 -76.3865
|  8> C 	 -69.6967 	 17.5756 	 -75.0492
|  9> C 	 -68.484 	 16.9229 	 -75.288
| 10> C 	 -68.5096 	 16.2234 	 -76.5471
| 11> C 	 -69.6569 	 16.4217 	 -77.3086
| 12> H 	 -67.6003 	 15.7238 	 -76.9138
| 13> C 	 -67.3062 	 16.9105 	 -74.3363
| 14> H 	 -67.4173 	 15.9574 	 -73.8219
| 15> H 	 -67.4143 	 17.6929 	 -73.5746
| 16> C 	 -65.9096 	 17.1777 	 -74.9701
| 17> H 	 -65.1332 	 16.9241 	 -74.2805
| 18> H 	 -65.7321 	 16.4584 	 -75.8531
| 19> C 	 -65.6314 	 18.6506 	 -75.2824
| 20> H 	 -66.2467 	 19.016 	 -76.0526
| 21> H 	 -65.9617 	 19.2063 	 -74.406
| 22> H 	 -64.6126 	 18.7388 	 -75.5864
| 23> S 	 -69.436 	 14.4733 	 -79.2767
| 24> C 	 -70.0737 	 14.8147 	 -80.8727
| 25> C 	 -70.4803 	 16.1294 	 -80.9901
| 26> C 	 -70.5221 	 16.8084 	 -79.7583
| 27> C 	 -69.8861 	 16.0897 	 -78.7052
| 28> H 	 -70.8653 	 16.5133 	 -81.9707
| 29> C 	 -70.8583 	 18.3428 	 -79.6898
| 30> H 	 -71.2659 	 18.5257 	 -78.6416
| 31> H 	 -71.6883 	 18.4621 	 -80.3956
| 32> C 	 -69.7385 	 19.2885 	 -80.0728
| 33> H 	 -70.219 	 20.2389 	 -80.238
| 34> H 	 -69.2744 	 19.1021 	 -81.0526
| 35> C 	 -68.6309 	 19.4073 	 -79.0018
| 36> H 	 -68.208 	 18.4732 	 -78.7728
| 37> H 	 -69.0641 	 19.782 	 -78.1051
| 38> H 	 -67.9296 	 20.1639 	 -79.3139
| 39> H 	 -69.9531 	 18.0553 	 -74.1204
| 40> H 	 -70.01 	 14.1778 	 -81.8035
| 41> *
| 42>
| 43>                          ****END OF INPUT****

CARTESIAN COORDINATES (ANGSTROEM)
---------------------------------
  S    -70.778400   17.341900  -76.386500
  C    -69.696700   17.575600  -75.049200
  C    -68.484000   16.922900  -75.288000
  C    -68.509600   16.223400  -76.547100
  C    -69.656900   16.421700  -77.308600
  H    -67.600300   15.723800  -76.913800
  C    -67.306200   16.910500  -74.336300
  H    -67.417300   15.957400  -73.821900
  H    -67.414300   17.692900  -73.574600
  C    -65.909600   17.177700  -74.970100
  H    -65.133200   16.924100  -74.280500
  H    -65.732100   16.458400  -75.853100
  C    -65.631400   18.650600  -75.282400
  H    -66.246700   19.016000  -76.052600
  H    -65.961700   19.206300  -74.406000
  H    -64.612600   18.738800  -75.586400
  S    -69.436000   14.473300  -79.276700
  C    -70.073700   14.814700  -80.872700
  C    -70.480300   16.129400  -80.990100
  C    -70.522100   16.808400  -79.758300
  C    -69.886100   16.089700  -78.705200
  H    -70.865300   16.513300  -81.970700
  C    -70.858300   18.342800  -79.689800
  H    -71.265900   18.525700  -78.641600
  H    -71.688300   18.462100  -80.395600
  C    -69.738500   19.288500  -80.072800
  H    -70.219000   20.238900  -80.238000
  H    -69.274400   19.102100  -81.052600
  C    -68.630900   19.407300  -79.001800
  H    -68.208000   18.473200  -78.772800
  H    -69.064100   19.782000  -78.105100
  H    -67.929600   20.163900  -79.313900
  H    -69.953100   18.055300  -74.120400
  H    -70.010000   14.177800  -81.803500

 Total Charge           Charge          ....    0
 Multiplicity           Mult            ....    1
 Number of Electrons    NEL             ....  134
 Basis Dimension        Dim             ....  322

ORBITAL ENERGIES
----------------

  NO   OCC          E(Eh)            E(eV)
   0   2.0000     -88.970237     -2421.0032
   1   2.0000     -88.967741     -2420.9353
   2   2.0000     -10.333488      -281.1885
   3   2.0000     -10.332608      -281.1646
   4   2.0000     -10.321214      -280.8545
   5   2.0000     -10.313425      -280.6426
   6   2.0000     -10.306306      -280.4489
   7   2.0000     -10.304198      -280.3915
   8   2.0000     -10.296767      -280.1893
   9   2.0000     -10.296379      -280.1787
  10   2.0000     -10.296045      -280.1696
  11   2.0000     -10.294769      -280.1349
  12   2.0000     -10.292244      -280.0662
  13   2.0000     -10.281089      -279.7627
  14   2.0000     -10.271646      -279.5057
  15   2.0000     -10.261086      -279.2183
  16   2.0000      -8.084075      -219.9789
  17   2.0000      -8.082676      -219.9408
  18   2.0000      -6.042661      -164.4292
  19   2.0000      -6.041158      -164.3883
  20   2.0000      -6.038621      -164.3192
  21   2.0000      -6.036955      -164.2739
  22   2.0000      -6.034909      -164.2182
  23   2.0000      -6.033643      -164.1838
  24   2.0000      -1.007227       -27.4080
  25   2.0000      -0.983620       -26.7657
  26   2.0000      -0.912007       -24.8170
  27   2.0000      -0.902325       -24.5535
  28   2.0000      -0.870452       -23.6862
  29   2.0000      -0.850616       -23.1464
  30   2.0000      -0.841357       -22.8945
  31   2.0000      -0.812410       -22.1068
  32   2.0000      -0.784298       -21.3418
  33   2.0000      -0.771818       -21.0022
  34   2.0000      -0.710265       -19.3273
  35   2.0000      -0.698020       -18.9941
  36   2.0000      -0.685641       -18.6572
  37   2.0000      -0.659605       -17.9488
  38   2.0000      -0.632150       -17.2017
  39   2.0000      -0.620505       -16.8848
  40   2.0000      -0.587487       -15.9863
  41   2.0000      -0.567636       -15.4462
  42   2.0000      -0.561208       -15.2713
  43   2.0000      -0.549665       -14.9571
  44   2.0000      -0.541430       -14.7331
  45   2.0000      -0.532722       -14.4961
  46   2.0000      -0.514994       -14.0137
  47   2.0000      -0.512075       -13.9343
  48   2.0000      -0.502721       -13.6797
  49   2.0000      -0.495898       -13.4941
  50   2.0000      -0.488309       -13.2876
  51   2.0000      -0.481754       -13.1092
  52   2.0000      -0.471118       -12.8198
  53   2.0000      -0.464107       -12.6290
  54   2.0000      -0.455417       -12.3925
  55   2.0000      -0.448357       -12.2004
  56   2.0000      -0.445059       -12.1107
  57   2.0000      -0.439677       -11.9642
  58   2.0000      -0.434815       -11.8319
  59   2.0000      -0.423988       -11.5373
  60   2.0000      -0.419226       -11.4077
  61   2.0000      -0.410041       -11.1578
  62   2.0000      -0.404719       -11.0130
  63   2.0000      -0.354118        -9.6360
  64   2.0000      -0.334606        -9.1051
  65   2.0000      -0.328783        -8.9466
  66   2.0000      -0.284832        -7.7507
  67   0.0000       0.022129         0.6022
  68   0.0000       0.078483         2.1356
  69   0.0000       0.109763         2.9868
  70   0.0000       0.121498         3.3061
  71   0.0000       0.133941         3.6447

MULLIKEN ATOMIC CHARGES
-----------------------
   0 S :    0.113116
   1 C :   -0.127429
   2 C :   -0.107210
   3 C :    0.009917
   4 C :   -0.121951
   5 H :    0.017310
   6 C :    0.064176
   7 H :    0.049517
   8 H :    0.014131
   9 C :   -0.110454
  10 H :    0.024621
  11 H :    0.036401
  12 C :   -0.005130
  13 H :    0.026224
  14 H :    0.022880
  15 H :    0.038088
  16 S :    0.115384
  17 C :   -0.108819
  18 C :   -0.058320
  19 C :   -0.051013
  20 C :   -0.153883
  21 H :    0.037795
  22 C :    0.028736
  23 H :    0.040021
  24 H :    0.021285
  25 C :   -0.045224
  26 H :    0.018718
  27 H :    0.021864
  28 C :   -0.007880
  29 H :    0.036389
  30 H :    0.011509
  31 H :    0.027003
  32 H :    0.045313
  33 H :    0.076915
Sum of atomic charges:   -0.0000000

LOEWDIN ATOMIC CHARGES
----------------------
   0 S :    0.444841
   1 C :   -0.210018
   2 C :   -0.061585
   3 C :   -0.074400
   4 C :   -0.202591
   5 H :    0.030101
   6 C :   -0.033360
   7 H :    0.038411
   8 H :    0.028068
   9 C :   -0.043619
  10 H :    0.021135
  11 H :    0.026657
  12 C :   -0.054644
  13 H :    0.019902
  14 H :    0.027254
  15 H :    0.027121
  16 S :    0.407178
  17 C :   -0.199730
  18 C :   -0.079277
  19 C :   -0.060612
  20 C :   -0.197015
  21 H :    0.041046
  22 C :   -0.036906
  23 H :    0.023204
  24 H :    0.028544
  25 C :   -0.039095
  26 H :    0.022602
  27 H :    0.023886
  28 C :   -0.054403
  29 H :    0.020111
  30 H :    0.019879
  31 H :    0.025326
  32 H :    0.027256
  33 H :    0.044735

  Mayer bond orders larger than 0.100000
B(  0-S ,  1-C ) :   1.1452 B(  0-S ,  4-C ) :   1.1683 B(  1-C ,  2-C ) :   1.5833
B(  1-C , 32-H ) :   0.9723 B(  2-C ,  3-C ) :   1.2793 B(  2-C ,  6-C ) :   1.0166
B(  3-C ,  4-C ) :   1.5281 B(  3-C ,  5-H ) :   0.9851 B(  4-C , 20-C ) :   1.0587
B(  6-C ,  7-H ) :   0.9352 B(  6-C ,  8-H ) :   0.9459 B(  6-C ,  9-C ) :   1.0719
B(  9-C , 10-H ) :   0.9553 B(  9-C , 11-H ) :   0.9543 B(  9-C , 12-C ) :   1.0677
B( 12-C , 13-H ) :   0.9782 B( 12-C , 14-H ) :   0.9694 B( 12-C , 15-H ) :   0.9736
B( 16-S , 17-C ) :   1.1555 B( 16-S , 20-C ) :   1.1444 B( 17-C , 18-C ) :   1.6069
B( 17-C , 20-C ) :   0.1064 B( 17-C , 33-H ) :   0.9558 B( 18-C , 19-C ) :   1.2718
B( 18-C , 21-H ) :   0.9770 B( 19-C , 20-C ) :   1.5402 B( 19-C , 22-C ) :   1.0369
B( 22-C , 23-H ) :   0.9332 B( 22-C , 24-H ) :   0.9303 B( 22-C , 25-C ) :   1.0740
B( 25-C , 26-H ) :   0.9499 B( 25-C , 27-H ) :   0.9531 B( 25-C , 28-C ) :   1.0797
B( 28-C , 29-H ) :   0.9760 B( 28-C , 30-H ) :   0.9722 B( 28-C , 31-H ) :   0.9721

Dispersion correction           -0.016108193
FINAL SINGLE POINT ENERGY     -1339.886465938049

DIPOLE MOMENT
-------------
                                X             Y             Z
Electronic contribution:    -15.64525     -17.17337      -3.86130
Nuclear contribution   :     16.00561      17.52205       3.85105
                        -----------------------------------------
Total Dipole Moment    :      0.36036       0.34868      -0.01025
                        -----------------------------------------
Magnitude (a.u.)       :      0.50154
Magnitude (Debye)      :      1.27481

Rotational constants in cm-1:     0.020173     0.009045     0.008299
Rotational constants in MHz :   604.764847   271.175994   248.800002

                             ****ORCA TERMINATED NORMALLY****
TOTAL RUN TIME: 0 days 0 hours 0 minutes 21 seconds 636 msec
