                         Program Version 4.2.1 -  RELEASE  -
|  1> ! wB97X-D3 SP def2-SVP
|  2> %pal
|  3> nprocs 24
|  4> end
|  5>
|  6> * xyz 0 1
|  7> S 	 -41.5323 	 17.5515 	 -95.3596
|  8> C 	 -39.7934 	 17.8678 	 -95.4093
|  9> C 	 -39.0747 	 16.6623 	 -95.1425
| 10> C 	 -39.967 	 15.5578 	 -94.9286
| 11> C 	 -41.3076 	 15.8557 	 -94.986
| 12> H 	 -39.6856 	 14.5769 	 -94.6506
| 13> C 	 -37.5285 	 16.5453 	 -94.9671
| 14> H 	 -37.4397 	 15.6836 	 -94.3032
| 15> H 	 -37.3169 	 17.4703 	 -94.4386
| 16> C 	 -36.7624 	 16.356 	 -96.222
| 17> H 	 -36.8585 	 17.2318 	 -96.8918
| 18> H 	 -35.7135 	 16.2472 	 -95.8794
| 19> C 	 -37.3084 	 15.0771 	 -96.9651
| 20> H 	 -38.2268 	 15.4326 	 -97.4335
| 21> H 	 -36.5495 	 14.7229 	 -97.6326
| 22> H 	 -37.5555 	 14.1461 	 -96.3944
| 23> S 	 -43.384 	 15.3446 	 -93.4308
| 24> C 	 -44.6447 	 14.2696 	 -94.0037
| 25> C 	 -44.4711 	 13.8425 	 -95.3539
| 26> C 	 -43.2077 	 14.3096 	 -95.8391
| 27> C 	 -42.5243 	 15.1557 	 -94.9028
| 28> H 	 -45.2858 	 13.3639 	 -95.8654
| 29> C 	 -42.6008 	 13.8129 	 -97.1673
| 30> H 	 -42.5884 	 12.7361 	 -97.2864
| 31> H 	 -41.5501 	 14.1094 	 -97.1887
| 32> C 	 -43.1857 	 14.3974 	 -98.4809
| 33> H 	 -43.3121 	 15.4894 	 -98.2308
| 34> H 	 -44.2079 	 14.1155 	 -98.5502
| 35> C 	 -42.4931 	 13.9066 	 -99.7846
| 36> H 	 -41.4063 	 14.1231 	 -99.5872
| 37> H 	 -42.8284 	 14.367 	 -100.7
| 38> H 	 -42.6168 	 12.7871 	 -99.956
| 39> H 	 -39.3304 	 18.8319 	 -95.5178
| 40> H 	 -45.5763 	 14.2461 	 -93.4799
| 41> *
| 42>
| 43>                          ****END OF INPUT****

CARTESIAN COORDINATES (ANGSTROEM)
---------------------------------
  S    -41.532300   17.551500  -95.359600
  C    -39.793400   17.867800  -95.409300
  C    -39.074700   16.662300  -95.142500
  C    -39.967000   15.557800  -94.928600
  C    -41.307600   15.855700  -94.986000
  H    -39.685600   14.576900  -94.650600
  C    -37.528500   16.545300  -94.967100
  H    -37.439700   15.683600  -94.303200
  H    -37.316900   17.470300  -94.438600
  C    -36.762400   16.356000  -96.222000
  H    -36.858500   17.231800  -96.891800
  H    -35.713500   16.247200  -95.879400
  C    -37.308400   15.077100  -96.965100
  H    -38.226800   15.432600  -97.433500
  H    -36.549500   14.722900  -97.632600
  H    -37.555500   14.146100  -96.394400
  S    -43.384000   15.344600  -93.430800
  C    -44.644700   14.269600  -94.003700
  C    -44.471100   13.842500  -95.353900
  C    -43.207700   14.309600  -95.839100
  C    -42.524300   15.155700  -94.902800
  H    -45.285800   13.363900  -95.865400
  C    -42.600800   13.812900  -97.167300
  H    -42.588400   12.736100  -97.286400
  H    -41.550100   14.109400  -97.188700
  C    -43.185700   14.397400  -98.480900
  H    -43.312100   15.489400  -98.230800
  H    -44.207900   14.115500  -98.550200
  C    -42.493100   13.906600  -99.784600
  H    -41.406300   14.123100  -99.587200
  H    -42.828400   14.367000  -100.700000
  H    -42.616800   12.787100  -99.956000
  H    -39.330400   18.831900  -95.517800
  H    -45.576300   14.246100  -93.479900

 Total Charge           Charge          ....    0
 Multiplicity           Mult            ....    1
 Number of Electrons    NEL             ....  134
 Basis Dimension        Dim             ....  322

ORBITAL ENERGIES
----------------

  NO   OCC          E(Eh)            E(eV)
   0   2.0000     -88.970896     -2421.0212
   1   2.0000     -88.963272     -2420.8137
   2   2.0000     -10.324920      -280.9554
   3   2.0000     -10.323358      -280.9129
   4   2.0000     -10.318764      -280.7878
   5   2.0000     -10.317816      -280.7621
   6   2.0000     -10.313564      -280.6463
   7   2.0000     -10.306238      -280.4470
   8   2.0000     -10.301600      -280.3208
   9   2.0000     -10.293429      -280.0984
  10   2.0000     -10.291869      -280.0560
  11   2.0000     -10.291085      -280.0347
  12   2.0000     -10.289317      -279.9865
  13   2.0000     -10.288449      -279.9629
  14   2.0000     -10.283921      -279.8397
  15   2.0000     -10.279784      -279.7271
  16   2.0000      -8.085982      -220.0307
  17   2.0000      -8.077726      -219.8061
  18   2.0000      -6.044195      -164.4709
  19   2.0000      -6.040362      -164.3666
  20   2.0000      -6.037105      -164.2780
  21   2.0000      -6.036275      -164.2554
  22   2.0000      -6.032067      -164.1409
  23   2.0000      -6.028646      -164.0478
  24   2.0000      -1.007891       -27.4261
  25   2.0000      -0.976853       -26.5815
  26   2.0000      -0.914922       -24.8963
  27   2.0000      -0.901202       -24.5230
  28   2.0000      -0.869187       -23.6518
  29   2.0000      -0.847039       -23.0491
  30   2.0000      -0.840058       -22.8591
  31   2.0000      -0.810158       -22.0455
  32   2.0000      -0.783337       -21.3157
  33   2.0000      -0.766444       -20.8560
  34   2.0000      -0.704861       -19.1803
  35   2.0000      -0.699697       -19.0397
  36   2.0000      -0.692522       -18.8445
  37   2.0000      -0.661972       -18.0132
  38   2.0000      -0.644145       -17.5281
  39   2.0000      -0.614206       -16.7134
  40   2.0000      -0.595679       -16.2092
  41   2.0000      -0.574626       -15.6364
  42   2.0000      -0.559215       -15.2170
  43   2.0000      -0.551509       -15.0073
  44   2.0000      -0.543555       -14.7909
  45   2.0000      -0.520165       -14.1544
  46   2.0000      -0.515864       -14.0374
  47   2.0000      -0.510455       -13.8902
  48   2.0000      -0.507673       -13.8145
  49   2.0000      -0.491451       -13.3731
  50   2.0000      -0.485718       -13.2170
  51   2.0000      -0.477369       -12.9899
  52   2.0000      -0.471599       -12.8329
  53   2.0000      -0.460104       -12.5201
  54   2.0000      -0.456177       -12.4132
  55   2.0000      -0.449572       -12.2335
  56   2.0000      -0.442219       -12.0334
  57   2.0000      -0.439075       -11.9478
  58   2.0000      -0.431240       -11.7346
  59   2.0000      -0.425817       -11.5871
  60   2.0000      -0.421968       -11.4823
  61   2.0000      -0.407877       -11.0989
  62   2.0000      -0.403956       -10.9922
  63   2.0000      -0.340498        -9.2654
  64   2.0000      -0.328872        -8.9491
  65   2.0000      -0.319114        -8.6835
  66   2.0000      -0.302001        -8.2179
  67   0.0000       0.035805         0.9743
  68   0.0000       0.051523         1.4020
  69   0.0000       0.109360         2.9758
  70   0.0000       0.118710         3.2303
  71   0.0000       0.121922         3.3177

MULLIKEN ATOMIC CHARGES
-----------------------
   0 S :    0.107674
   1 C :   -0.115734
   2 C :   -0.149926
   3 C :    0.080839
   4 C :   -0.185002
   5 H :   -0.008060
   6 C :    0.074096
   7 H :    0.027425
   8 H :    0.029251
   9 C :   -0.050724
  10 H :    0.039335
  11 H :    0.039341
  12 C :   -0.087443
  13 H :    0.057698
  14 H :    0.034104
  15 H :    0.035382
  16 S :    0.137675
  17 C :   -0.103591
  18 C :   -0.035673
  19 C :    0.010150
  20 C :   -0.192510
  21 H :    0.030259
  22 C :    0.057092
  23 H :    0.027337
  24 H :    0.017003
  25 C :   -0.091106
  26 H :    0.038511
  27 H :    0.009130
  28 C :   -0.062510
  29 H :    0.040859
  30 H :    0.043367
  31 H :    0.043554
  32 H :    0.045367
  33 H :    0.056831
Sum of atomic charges:   -0.0000000

LOEWDIN ATOMIC CHARGES
----------------------
   0 S :    0.407095
   1 C :   -0.200146
   2 C :   -0.059963
   3 C :   -0.059051
   4 C :   -0.202197
   5 H :    0.024711
   6 C :   -0.030696
   7 H :    0.031089
   8 H :    0.029986
   9 C :   -0.039048
  10 H :    0.029647
  11 H :    0.027261
  12 C :   -0.070087
  13 H :    0.031424
  14 H :    0.022535
  15 H :    0.028435
  16 S :    0.443252
  17 C :   -0.188263
  18 C :   -0.061838
  19 C :   -0.044953
  20 C :   -0.231415
  21 H :    0.034454
  22 C :   -0.033802
  23 H :    0.027051
  24 H :    0.027441
  25 C :   -0.051223
  26 H :    0.031856
  27 H :    0.010973
  28 C :   -0.070172
  29 H :    0.030919
  30 H :    0.026016
  31 H :    0.034596
  32 H :    0.024491
  33 H :    0.019620

  Mayer bond orders larger than 0.100000
B(  0-S ,  1-C ) :   1.1502 B(  0-S ,  4-C ) :   1.1551 B(  1-C ,  2-C ) :   1.5909
B(  1-C ,  4-C ) :   0.1130 B(  1-C , 32-H ) :   0.9726 B(  2-C ,  3-C ) :   1.2370
B(  2-C ,  6-C ) :   0.9880 B(  3-C ,  4-C ) :   1.5928 B(  3-C ,  5-H ) :   1.0042
B(  4-C , 20-C ) :   1.0148 B(  6-C ,  7-H ) :   0.9461 B(  6-C ,  8-H ) :   0.9420
B(  6-C ,  9-C ) :   1.0810 B(  9-C , 10-H ) :   0.9560 B(  9-C , 11-H ) :   0.9570
B(  9-C , 12-C ) :   1.0551 B( 12-C , 13-H ) :   0.9723 B( 12-C , 14-H ) :   0.9755
B( 12-C , 15-H ) :   0.9786 B( 16-S , 17-C ) :   1.1786 B( 16-S , 20-C ) :   1.1835
B( 17-C , 18-C ) :   1.5724 B( 17-C , 20-C ) :   0.1175 B( 17-C , 33-H ) :   0.9669
B( 18-C , 19-C ) :   1.2627 B( 18-C , 21-H ) :   0.9931 B( 19-C , 20-C ) :   1.5384
B( 19-C , 22-C ) :   1.0443 B( 22-C , 23-H ) :   0.9446 B( 22-C , 24-H ) :   0.9331
B( 22-C , 25-C ) :   1.0501 B( 25-C , 26-H ) :   0.9557 B( 25-C , 27-H ) :   0.9567
B( 25-C , 28-C ) :   1.0634 B( 28-C , 29-H ) :   0.9787 B( 28-C , 30-H ) :   0.9754
B( 28-C , 31-H ) :   0.9722

Dispersion correction           -0.014659079
FINAL SINGLE POINT ENERGY     -1339.862819696531

DIPOLE MOMENT
-------------
                                X             Y             Z
Electronic contribution:    -15.47951       9.30469      20.55015
Nuclear contribution   :     15.73174      -9.52055     -20.80004
                        -----------------------------------------
Total Dipole Moment    :      0.25223      -0.21586      -0.24989
                        -----------------------------------------
Magnitude (a.u.)       :      0.41553
Magnitude (Debye)      :      1.05619

Rotational constants in cm-1:     0.017356     0.009405     0.007147
Rotational constants in MHz :   520.332465   281.964424   214.275890

                             ****ORCA TERMINATED NORMALLY****
TOTAL RUN TIME: 0 days 0 hours 0 minutes 20 seconds 722 msec
