                         Program Version 4.2.1 -  RELEASE  -
|  1> ! wB97X-D3 SP def2-SVP
|  2> %pal
|  3> nprocs 24
|  4> end
|  5>
|  6> * xyz 0 1
|  7> S 	 -37.5391 	 -51.7992 	 -74.4319
|  8> C 	 -37.4872 	 -50.672 	 -75.8549
|  9> C 	 -38.1126 	 -49.5128 	 -75.4723
| 10> C 	 -38.8336 	 -49.6903 	 -74.2437
| 11> C 	 -38.6152 	 -50.8173 	 -73.5066
| 12> H 	 -39.5779 	 -49.0444 	 -74
| 13> C 	 -38.3073 	 -48.2066 	 -76.314
| 14> H 	 -37.379 	 -48.0465 	 -76.8613
| 15> H 	 -38.4732 	 -47.2423 	 -75.8396
| 16> C 	 -39.2591 	 -48.322 	 -77.4723
| 17> H 	 -39.1122 	 -47.6062 	 -78.2633
| 18> H 	 -39.0893 	 -49.2928 	 -77.8977
| 19> C 	 -40.6882 	 -48.3431 	 -77.0015
| 20> H 	 -41.0072 	 -47.4238 	 -76.7116
| 21> H 	 -41.3042 	 -48.7478 	 -77.8111
| 22> H 	 -40.7437 	 -48.9245 	 -76.148
| 23> S 	 -37.7209 	 -51.6611 	 -71.0303
| 24> C 	 -38.9033 	 -51.8263 	 -69.7584
| 25> C 	 -40.1567 	 -51.3146 	 -70.1007
| 26> C 	 -40.2158 	 -50.9348 	 -71.4811
| 27> C 	 -38.9992 	 -51.1479 	 -72.1506
| 28> H 	 -40.8667 	 -51.1177 	 -69.302
| 29> C 	 -41.447 	 -50.3542 	 -72.1265
| 30> H 	 -41.6215 	 -50.6439 	 -73.1668
| 31> H 	 -41.2646 	 -49.2307 	 -72.0953
| 32> C 	 -42.7657 	 -50.6042 	 -71.3757
| 33> H 	 -42.6243 	 -50.2397 	 -70.3879
| 34> H 	 -42.9989 	 -51.6229 	 -71.3807
| 35> C 	 -43.9466 	 -49.693 	 -71.7902
| 36> H 	 -44.154 	 -49.5445 	 -72.9199
| 37> H 	 -43.89 	 -48.679 	 -71.3274
| 38> H 	 -44.9003 	 -50.0101 	 -71.3962
| 39> H 	 -36.89 	 -50.7046 	 -76.728
| 40> H 	 -38.6075 	 -51.9304 	 -68.6669
| 41> *
| 42>
| 43>                          ****END OF INPUT****

CARTESIAN COORDINATES (ANGSTROEM)
---------------------------------
  S    -37.539100  -51.799200  -74.431900
  C    -37.487200  -50.672000  -75.854900
  C    -38.112600  -49.512800  -75.472300
  C    -38.833600  -49.690300  -74.243700
  C    -38.615200  -50.817300  -73.506600
  H    -39.577900  -49.044400  -74.000000
  C    -38.307300  -48.206600  -76.314000
  H    -37.379000  -48.046500  -76.861300
  H    -38.473200  -47.242300  -75.839600
  C    -39.259100  -48.322000  -77.472300
  H    -39.112200  -47.606200  -78.263300
  H    -39.089300  -49.292800  -77.897700
  C    -40.688200  -48.343100  -77.001500
  H    -41.007200  -47.423800  -76.711600
  H    -41.304200  -48.747800  -77.811100
  H    -40.743700  -48.924500  -76.148000
  S    -37.720900  -51.661100  -71.030300
  C    -38.903300  -51.826300  -69.758400
  C    -40.156700  -51.314600  -70.100700
  C    -40.215800  -50.934800  -71.481100
  C    -38.999200  -51.147900  -72.150600
  H    -40.866700  -51.117700  -69.302000
  C    -41.447000  -50.354200  -72.126500
  H    -41.621500  -50.643900  -73.166800
  H    -41.264600  -49.230700  -72.095300
  C    -42.765700  -50.604200  -71.375700
  H    -42.624300  -50.239700  -70.387900
  H    -42.998900  -51.622900  -71.380700
  C    -43.946600  -49.693000  -71.790200
  H    -44.154000  -49.544500  -72.919900
  H    -43.890000  -48.679000  -71.327400
  H    -44.900300  -50.010100  -71.396200
  H    -36.890000  -50.704600  -76.728000
  H    -38.607500  -51.930400  -68.666900

 Total Charge           Charge          ....    0
 Multiplicity           Mult            ....    1
 Number of Electrons    NEL             ....  134
 Basis Dimension        Dim             ....  322

ORBITAL ENERGIES
----------------

  NO   OCC          E(Eh)            E(eV)
   0   2.0000     -88.971459     -2421.0365
   1   2.0000     -88.964096     -2420.8361
   2   2.0000     -10.331960      -281.1469
   3   2.0000     -10.329101      -281.0691
   4   2.0000     -10.324388      -280.9409
   5   2.0000     -10.318543      -280.7818
   6   2.0000     -10.310860      -280.5728
   7   2.0000     -10.306905      -280.4651
   8   2.0000     -10.300096      -280.2799
   9   2.0000     -10.299307      -280.2584
  10   2.0000     -10.292718      -280.0791
  11   2.0000     -10.288794      -279.9723
  12   2.0000     -10.284650      -279.8596
  13   2.0000     -10.282980      -279.8141
  14   2.0000     -10.275537      -279.6116
  15   2.0000     -10.257014      -279.1075
  16   2.0000      -8.085664      -220.0221
  17   2.0000      -8.078344      -219.8229
  18   2.0000      -6.044152      -164.4697
  19   2.0000      -6.040319      -164.3654
  20   2.0000      -6.037105      -164.2780
  21   2.0000      -6.036390      -164.2585
  22   2.0000      -6.032796      -164.1607
  23   2.0000      -6.028937      -164.0557
  24   2.0000      -1.007741       -27.4220
  25   2.0000      -0.983525       -26.7631
  26   2.0000      -0.920338       -25.0437
  27   2.0000      -0.912301       -24.8250
  28   2.0000      -0.873745       -23.7758
  29   2.0000      -0.853059       -23.2129
  30   2.0000      -0.838945       -22.8289
  31   2.0000      -0.816751       -22.2249
  32   2.0000      -0.790356       -21.5067
  33   2.0000      -0.776189       -21.1212
  34   2.0000      -0.710113       -19.3232
  35   2.0000      -0.703565       -19.1450
  36   2.0000      -0.696192       -18.9443
  37   2.0000      -0.653989       -17.7959
  38   2.0000      -0.642399       -17.4806
  39   2.0000      -0.623629       -16.9698
  40   2.0000      -0.600120       -16.3301
  41   2.0000      -0.583023       -15.8649
  42   2.0000      -0.576075       -15.6758
  43   2.0000      -0.554295       -15.0831
  44   2.0000      -0.546215       -14.8633
  45   2.0000      -0.522005       -14.2045
  46   2.0000      -0.514777       -14.0078
  47   2.0000      -0.510649       -13.8955
  48   2.0000      -0.508654       -13.8412
  49   2.0000      -0.503327       -13.6962
  50   2.0000      -0.489732       -13.3263
  51   2.0000      -0.478056       -13.0086
  52   2.0000      -0.475017       -12.9259
  53   2.0000      -0.466867       -12.7041
  54   2.0000      -0.463210       -12.6046
  55   2.0000      -0.457083       -12.4379
  56   2.0000      -0.439844       -11.9688
  57   2.0000      -0.433608       -11.7991
  58   2.0000      -0.429911       -11.6985
  59   2.0000      -0.425625       -11.5819
  60   2.0000      -0.418917       -11.3993
  61   2.0000      -0.418378       -11.3846
  62   2.0000      -0.410419       -11.1681
  63   2.0000      -0.352183        -9.5834
  64   2.0000      -0.334492        -9.1020
  65   2.0000      -0.327538        -8.9128
  66   2.0000      -0.290969        -7.9177
  67   0.0000       0.022679         0.6171
  68   0.0000       0.064883         1.7656
  69   0.0000       0.103822         2.8251
  70   0.0000       0.118644         3.2285
  71   0.0000       0.123725         3.3667

MULLIKEN ATOMIC CHARGES
-----------------------
   0 S :    0.088769
   1 C :   -0.093926
   2 C :   -0.089900
   3 C :    0.053967
   4 C :   -0.131714
   5 H :   -0.038221
   6 C :    0.045902
   7 H :    0.016507
   8 H :    0.030486
   9 C :   -0.065467
  10 H :    0.026530
  11 H :    0.009704
  12 C :    0.021950
  13 H :   -0.003993
  14 H :    0.033208
  15 H :   -0.000029
  16 S :    0.118372
  17 C :   -0.102820
  18 C :   -0.067715
  19 C :   -0.021560
  20 C :   -0.131699
  21 H :    0.032164
  22 C :    0.014339
  23 H :    0.045857
  24 H :    0.053049
  25 C :   -0.035276
  26 H :    0.023178
  27 H :    0.034528
  28 C :   -0.085519
  29 H :    0.041399
  30 H :    0.032783
  31 H :    0.025629
  32 H :    0.039359
  33 H :    0.080157
Sum of atomic charges:    0.0000000

LOEWDIN ATOMIC CHARGES
----------------------
   0 S :    0.390485
   1 C :   -0.172531
   2 C :   -0.051682
   3 C :   -0.063416
   4 C :   -0.195867
   5 H :    0.006786
   6 C :   -0.033528
   7 H :    0.033091
   8 H :    0.030164
   9 C :   -0.037225
  10 H :    0.020485
  11 H :    0.020151
  12 C :   -0.050441
  13 H :    0.007982
  14 H :    0.030388
  15 H :    0.015555
  16 S :    0.408527
  17 C :   -0.197794
  18 C :   -0.075561
  19 C :   -0.050511
  20 C :   -0.192853
  21 H :    0.035362
  22 C :   -0.036294
  23 H :    0.033447
  24 H :    0.042643
  25 C :   -0.034729
  26 H :    0.022892
  27 H :    0.019567
  28 C :   -0.075890
  29 H :    0.030224
  30 H :    0.028414
  31 H :    0.024010
  32 H :    0.025246
  33 H :    0.042902

  Mayer bond orders larger than 0.100000
B(  0-S ,  1-C ) :   1.1195 B(  0-S ,  4-C ) :   1.1383 B(  1-C ,  2-C ) :   1.6317
B(  1-C , 32-H ) :   0.9688 B(  2-C ,  3-C ) :   1.2334 B(  2-C ,  6-C ) :   1.0221
B(  3-C ,  4-C ) :   1.5688 B(  3-C ,  5-H ) :   1.0059 B(  4-C , 20-C ) :   1.0574
B(  6-C ,  7-H ) :   0.9311 B(  6-C ,  8-H ) :   0.9542 B(  6-C ,  9-C ) :   1.0804
B(  9-C , 10-H ) :   0.9559 B(  9-C , 11-H ) :   0.9506 B(  9-C , 12-C ) :   1.0829
B( 12-C , 13-H ) :   0.9710 B( 12-C , 14-H ) :   0.9719 B( 12-C , 15-H ) :   0.9709
B( 16-S , 17-C ) :   1.1627 B( 16-S , 20-C ) :   1.1420 B( 17-C , 18-C ) :   1.6059
B( 17-C , 20-C ) :   0.1009 B( 17-C , 33-H ) :   0.9521 B( 18-C , 19-C ) :   1.2512
B( 18-C , 21-H ) :   0.9844 B( 19-C , 20-C ) :   1.5827 B( 19-C , 22-C ) :   1.0399
B( 22-C , 23-H ) :   0.9370 B( 22-C , 24-H ) :   0.9247 B( 22-C , 25-C ) :   1.0798
B( 25-C , 26-H ) :   0.9418 B( 25-C , 27-H ) :   0.9637 B( 25-C , 28-C ) :   1.0745
B( 28-C , 29-H ) :   0.9756 B( 28-C , 30-H ) :   0.9767 B( 28-C , 31-H ) :   0.9723

Dispersion correction           -0.013939171
FINAL SINGLE POINT ENERGY     -1339.844639489825

DIPOLE MOMENT
-------------
                                X             Y             Z
Electronic contribution:     24.30337     -16.71494      10.57189
Nuclear contribution   :    -24.80144      17.37657     -10.52122
                        -----------------------------------------
Total Dipole Moment    :     -0.49807       0.66163       0.05067
                        -----------------------------------------
Magnitude (a.u.)       :      0.82969
Magnitude (Debye)      :      2.10891

Rotational constants in cm-1:     0.016466     0.009500     0.006402
Rotational constants in MHz :   493.629977   284.806762   191.924797

                             ****ORCA TERMINATED NORMALLY****
TOTAL RUN TIME: 0 days 0 hours 0 minutes 21 seconds 563 msec
