                         Program Version 4.2.1 -  RELEASE  -
|  1> ! wB97X-D3 SP def2-SVP
|  2> %pal
|  3> nprocs 24
|  4> end
|  5>
|  6> * xyz 0 1
|  7> S 	 -140.927 	 28.8883 	 -17.9332
|  8> C 	 -139.946 	 28.2428 	 -16.6529
|  9> C 	 -140.28 	 26.9176 	 -16.46
| 10> C 	 -141.143 	 26.3504 	 -17.4107
| 11> C 	 -141.554 	 27.3246 	 -18.2958
| 12> H 	 -141.388 	 25.3402 	 -17.4642
| 13> C 	 -139.627 	 26.0675 	 -15.3528
| 14> H 	 -138.793 	 26.6414 	 -14.8906
| 15> H 	 -139.31 	 25.16 	 -15.7749
| 16> C 	 -140.524 	 25.6092 	 -14.2018
| 17> H 	 -139.94 	 25.1675 	 -13.4501
| 18> H 	 -141.012 	 26.4731 	 -13.8083
| 19> C 	 -141.72 	 24.672 	 -14.4827
| 20> H 	 -142.381 	 25.193 	 -15.2051
| 21> H 	 -141.278 	 23.7613 	 -14.8699
| 22> H 	 -142.286 	 24.4813 	 -13.5553
| 23> S 	 -142.195 	 27.9557 	 -20.8692
| 24> C 	 -143.201 	 26.8341 	 -21.7127
| 25> C 	 -143.865 	 25.9521 	 -20.8929
| 26> C 	 -143.401 	 25.9909 	 -19.5386
| 27> C 	 -142.527 	 27.0878 	 -19.36
| 28> H 	 -144.515 	 25.2433 	 -21.3805
| 29> C 	 -143.988 	 25.0197 	 -18.5151
| 30> H 	 -144.978 	 24.9822 	 -18.7162
| 31> H 	 -143.716 	 25.5034 	 -17.5346
| 32> C 	 -143.313 	 23.6349 	 -18.6145
| 33> H 	 -142.324 	 23.7574 	 -18.7791
| 34> H 	 -143.651 	 23.1824 	 -19.5631
| 35> C 	 -143.556 	 22.6275 	 -17.4809
| 36> H 	 -143.597 	 22.9827 	 -16.5022
| 37> H 	 -142.922 	 21.7558 	 -17.6108
| 38> H 	 -144.558 	 22.2773 	 -17.5799
| 39> H 	 -139.318 	 28.794 	 -16.0014
| 40> H 	 -143.289 	 26.8653 	 -22.7782
| 41> *
| 42>
| 43>                          ****END OF INPUT****

CARTESIAN COORDINATES (ANGSTROEM)
---------------------------------
  S    -140.927000   28.888300  -17.933200
  C    -139.946000   28.242800  -16.652900
  C    -140.280000   26.917600  -16.460000
  C    -141.143000   26.350400  -17.410700
  C    -141.554000   27.324600  -18.295800
  H    -141.388000   25.340200  -17.464200
  C    -139.627000   26.067500  -15.352800
  H    -138.793000   26.641400  -14.890600
  H    -139.310000   25.160000  -15.774900
  C    -140.524000   25.609200  -14.201800
  H    -139.940000   25.167500  -13.450100
  H    -141.012000   26.473100  -13.808300
  C    -141.720000   24.672000  -14.482700
  H    -142.381000   25.193000  -15.205100
  H    -141.278000   23.761300  -14.869900
  H    -142.286000   24.481300  -13.555300
  S    -142.195000   27.955700  -20.869200
  C    -143.201000   26.834100  -21.712700
  C    -143.865000   25.952100  -20.892900
  C    -143.401000   25.990900  -19.538600
  C    -142.527000   27.087800  -19.360000
  H    -144.515000   25.243300  -21.380500
  C    -143.988000   25.019700  -18.515100
  H    -144.978000   24.982200  -18.716200
  H    -143.716000   25.503400  -17.534600
  C    -143.313000   23.634900  -18.614500
  H    -142.324000   23.757400  -18.779100
  H    -143.651000   23.182400  -19.563100
  C    -143.556000   22.627500  -17.480900
  H    -143.597000   22.982700  -16.502200
  H    -142.922000   21.755800  -17.610800
  H    -144.558000   22.277300  -17.579900
  H    -139.318000   28.794000  -16.001400
  H    -143.289000   26.865300  -22.778200

 Total Charge           Charge          ....    0
 Multiplicity           Mult            ....    1
 Number of Electrons    NEL             ....  134
 Basis Dimension        Dim             ....  322

ORBITAL ENERGIES
----------------

  NO   OCC          E(Eh)            E(eV)
   0   2.0000     -88.966881     -2420.9119
   1   2.0000     -88.965933     -2420.8861
   2   2.0000     -10.328072      -281.0411
   3   2.0000     -10.327531      -281.0264
   4   2.0000     -10.314792      -280.6798
   5   2.0000     -10.309355      -280.5318
   6   2.0000     -10.306585      -280.4564
   7   2.0000     -10.296174      -280.1731
   8   2.0000     -10.292934      -280.0850
   9   2.0000     -10.292485      -280.0728
  10   2.0000     -10.287804      -279.9454
  11   2.0000     -10.284420      -279.8533
  12   2.0000     -10.282821      -279.8098
  13   2.0000     -10.280035      -279.7340
  14   2.0000     -10.274354      -279.5794
  15   2.0000     -10.271917      -279.5131
  16   2.0000      -8.082144      -219.9263
  17   2.0000      -8.081063      -219.8969
  18   2.0000      -6.040578      -164.3725
  19   2.0000      -6.039407      -164.3406
  20   2.0000      -6.036628      -164.2650
  21   2.0000      -6.035626      -164.2377
  22   2.0000      -6.032932      -164.1644
  23   2.0000      -6.031872      -164.1356
  24   2.0000      -1.010921       -27.5085
  25   2.0000      -0.986505       -26.8442
  26   2.0000      -0.914789       -24.8927
  27   2.0000      -0.910172       -24.7670
  28   2.0000      -0.869306       -23.6550
  29   2.0000      -0.857904       -23.3448
  30   2.0000      -0.848174       -23.0800
  31   2.0000      -0.815820       -22.1996
  32   2.0000      -0.789584       -21.4857
  33   2.0000      -0.774637       -21.0789
  34   2.0000      -0.715098       -19.4588
  35   2.0000      -0.697995       -18.9934
  36   2.0000      -0.694380       -18.8950
  37   2.0000      -0.666698       -18.1418
  38   2.0000      -0.641104       -17.4453
  39   2.0000      -0.620097       -16.8737
  40   2.0000      -0.595209       -16.1965
  41   2.0000      -0.576363       -15.6836
  42   2.0000      -0.573504       -15.6058
  43   2.0000      -0.548156       -14.9161
  44   2.0000      -0.541917       -14.7463
  45   2.0000      -0.535254       -14.5650
  46   2.0000      -0.518225       -14.1016
  47   2.0000      -0.513752       -13.9799
  48   2.0000      -0.508902       -13.8479
  49   2.0000      -0.498489       -13.5646
  50   2.0000      -0.495285       -13.4774
  51   2.0000      -0.490185       -13.3386
  52   2.0000      -0.477853       -13.0030
  53   2.0000      -0.464361       -12.6359
  54   2.0000      -0.462094       -12.5742
  55   2.0000      -0.452485       -12.3127
  56   2.0000      -0.446626       -12.1533
  57   2.0000      -0.440122       -11.9763
  58   2.0000      -0.433110       -11.7855
  59   2.0000      -0.425634       -11.5821
  60   2.0000      -0.421767       -11.4769
  61   2.0000      -0.415995       -11.3198
  62   2.0000      -0.409859       -11.1528
  63   2.0000      -0.355647        -9.6776
  64   2.0000      -0.335474        -9.1287
  65   2.0000      -0.331019        -9.0075
  66   2.0000      -0.281149        -7.6505
  67   0.0000       0.024152         0.6572
  68   0.0000       0.078046         2.1237
  69   0.0000       0.105954         2.8832
  70   0.0000       0.120935         3.2908
  71   0.0000       0.131226         3.5708

MULLIKEN ATOMIC CHARGES
-----------------------
   0 S :    0.109687
   1 C :   -0.106214
   2 C :   -0.088653
   3 C :    0.009731
   4 C :   -0.083948
   5 H :   -0.031194
   6 C :    0.093743
   7 H :    0.026111
   8 H :    0.008285
   9 C :   -0.059479
  10 H :    0.019687
  11 H :    0.010923
  12 C :   -0.083262
  13 H :    0.045004
  14 H :    0.029495
  15 H :    0.043995
  16 S :    0.098046
  17 C :   -0.094562
  18 C :   -0.016562
  19 C :   -0.101403
  20 C :   -0.117084
  21 H :    0.016826
  22 C :    0.110484
  23 H :    0.009824
  24 H :    0.040785
  25 C :   -0.076293
  26 H :    0.009550
  27 H :    0.017650
  28 C :    0.015325
  29 H :    0.016548
  30 H :    0.036638
  31 H :    0.008766
  32 H :    0.031174
  33 H :    0.050378
Sum of atomic charges:    0.0000000

LOEWDIN ATOMIC CHARGES
----------------------
   0 S :    0.417765
   1 C :   -0.205746
   2 C :   -0.055215
   3 C :   -0.069172
   4 C :   -0.187306
   5 H :    0.021227
   6 C :   -0.023423
   7 H :    0.035555
   8 H :    0.019823
   9 C :   -0.038277
  10 H :    0.016106
  11 H :    0.017952
  12 C :   -0.066849
  13 H :    0.025552
  14 H :    0.018802
  15 H :    0.031548
  16 S :    0.404141
  17 C :   -0.179145
  18 C :   -0.074670
  19 C :   -0.043182
  20 C :   -0.195335
  21 H :    0.031189
  22 C :   -0.015175
  23 H :    0.016638
  24 H :    0.037065
  25 C :   -0.032871
  26 H :    0.005628
  27 H :    0.028250
  28 C :   -0.059084
  29 H :    0.017852
  30 H :    0.031342
  31 H :    0.024404
  32 H :    0.021745
  33 H :    0.022867

  Mayer bond orders larger than 0.100000
B(  0-S ,  1-C ) :   1.1202 B(  0-S ,  4-C ) :   1.1700 B(  1-C ,  2-C ) :   1.6086
B(  1-C , 32-H ) :   0.9737 B(  2-C ,  3-C ) :   1.2560 B(  2-C ,  6-C ) :   1.0272
B(  3-C ,  4-C ) :   1.5342 B(  3-C ,  5-H ) :   1.0032 B(  4-C , 20-C ) :   1.0362
B(  6-C ,  7-H ) :   0.9410 B(  6-C ,  8-H ) :   0.9388 B(  6-C ,  9-C ) :   1.0720
B(  9-C , 10-H ) :   0.9571 B(  9-C , 11-H ) :   0.9501 B(  9-C , 12-C ) :   1.0841
B( 12-C , 13-H ) :   0.9700 B( 12-C , 14-H ) :   0.9753 B( 12-C , 15-H ) :   0.9710
B( 16-S , 17-C ) :   1.1717 B( 16-S , 20-C ) :   1.1297 B( 17-C , 18-C ) :   1.6136
B( 17-C , 33-H ) :   0.9675 B( 18-C , 19-C ) :   1.2287 B( 18-C , 21-H ) :   0.9913
B( 19-C , 20-C ) :   1.5992 B( 19-C , 22-C ) :   1.0248 B( 22-C , 23-H ) :   0.9333
B( 22-C , 24-H ) :   0.9393 B( 22-C , 25-C ) :   1.0548 B( 25-C , 26-H ) :   0.9588
B( 25-C , 27-H ) :   0.9471 B( 25-C , 28-C ) :   1.0816 B( 28-C , 29-H ) :   0.9737
B( 28-C , 30-H ) :   0.9736 B( 28-C , 31-H ) :   0.9661

Dispersion correction           -0.015681782
FINAL SINGLE POINT ENERGY     -1339.864594148190

DIPOLE MOMENT
-------------
                                X             Y             Z
Electronic contribution:      4.07543      26.30631     -19.61173
Nuclear contribution   :     -4.23063     -27.02018      19.80848
                        -----------------------------------------
Total Dipole Moment    :     -0.15521      -0.71388       0.19675
                        -----------------------------------------
Magnitude (a.u.)       :      0.75659
Magnitude (Debye)      :      1.92309

Rotational constants in cm-1:     0.016845     0.011387     0.007097
Rotational constants in MHz :   505.012369   341.373877   212.753805

                             ****ORCA TERMINATED NORMALLY****
TOTAL RUN TIME: 0 days 0 hours 0 minutes 22 seconds 17 msec
