                         Program Version 4.2.1 -  RELEASE  -
|  1> ! wB97X-D3 SP def2-SVP
|  2> %pal
|  3> nprocs 24
|  4> end
|  5>
|  6> * xyz 0 1
|  7> S 	 -52.9843 	 21.4806 	 32.0997
|  8> C 	 -51.6026 	 22.557 	 32.1658
|  9> C 	 -50.492 	 21.9111 	 32.5718
| 10> C 	 -50.7259 	 20.5079 	 32.7345
| 11> C 	 -52.0515 	 20.1395 	 32.6397
| 12> H 	 -49.9964 	 19.8405 	 33.1693
| 13> C 	 -49.1487 	 22.4849 	 32.7785
| 14> H 	 -48.9236 	 22.9324 	 33.7584
| 15> H 	 -49.4283 	 23.3034 	 32.1094
| 16> C 	 -47.8991 	 21.701 	 32.2227
| 17> H 	 -48.2887 	 20.8575 	 31.7095
| 18> H 	 -47.2831 	 22.3057 	 31.5273
| 19> C 	 -46.9096 	 21.1573 	 33.251
| 20> H 	 -47.4367 	 20.6188 	 34.1036
| 21> H 	 -46.1933 	 20.498 	 32.7542
| 22> H 	 -46.2751 	 21.8955 	 33.6599
| 23> S 	 -53.4998 	 18.9819 	 34.6451
| 24> C 	 -53.8342 	 17.3013 	 34.5958
| 25> C 	 -53.2693 	 16.8118 	 33.4373
| 26> C 	 -52.5368 	 17.6577 	 32.6273
| 27> C 	 -52.7257 	 18.9707 	 33.0298
| 28> H 	 -53.3726 	 15.7469 	 33.2684
| 29> C 	 -52.0094 	 17.0528 	 31.3789
| 30> H 	 -51.9673 	 15.9349 	 31.4659
| 31> H 	 -50.9606 	 17.4431 	 31.2592
| 32> C 	 -52.9262 	 17.4029 	 30.2494
| 33> H 	 -52.9457 	 18.432 	 30.1043
| 34> H 	 -53.982 	 17.2144 	 30.505
| 35> C 	 -52.6249 	 16.6779 	 28.9442
| 36> H 	 -53.302 	 16.9966 	 28.1598
| 37> H 	 -52.6703 	 15.63 	 29.077
| 38> H 	 -51.7062 	 16.9067 	 28.4181
| 39> H 	 -51.7662 	 23.7 	 32.2431
| 40> H 	 -54.2844 	 16.714 	 35.4379
| 41> *
| 42>
| 43>                          ****END OF INPUT****

CARTESIAN COORDINATES (ANGSTROEM)
---------------------------------
  S    -52.984300   21.480600   32.099700
  C    -51.602600   22.557000   32.165800
  C    -50.492000   21.911100   32.571800
  C    -50.725900   20.507900   32.734500
  C    -52.051500   20.139500   32.639700
  H    -49.996400   19.840500   33.169300
  C    -49.148700   22.484900   32.778500
  H    -48.923600   22.932400   33.758400
  H    -49.428300   23.303400   32.109400
  C    -47.899100   21.701000   32.222700
  H    -48.288700   20.857500   31.709500
  H    -47.283100   22.305700   31.527300
  C    -46.909600   21.157300   33.251000
  H    -47.436700   20.618800   34.103600
  H    -46.193300   20.498000   32.754200
  H    -46.275100   21.895500   33.659900
  S    -53.499800   18.981900   34.645100
  C    -53.834200   17.301300   34.595800
  C    -53.269300   16.811800   33.437300
  C    -52.536800   17.657700   32.627300
  C    -52.725700   18.970700   33.029800
  H    -53.372600   15.746900   33.268400
  C    -52.009400   17.052800   31.378900
  H    -51.967300   15.934900   31.465900
  H    -50.960600   17.443100   31.259200
  C    -52.926200   17.402900   30.249400
  H    -52.945700   18.432000   30.104300
  H    -53.982000   17.214400   30.505000
  C    -52.624900   16.677900   28.944200
  H    -53.302000   16.996600   28.159800
  H    -52.670300   15.630000   29.077000
  H    -51.706200   16.906700   28.418100
  H    -51.766200   23.700000   32.243100
  H    -54.284400   16.714000   35.437900

 Total Charge           Charge          ....    0
 Multiplicity           Mult            ....    1
 Number of Electrons    NEL             ....  134
 Basis Dimension        Dim             ....  322

ORBITAL ENERGIES
----------------

  NO   OCC          E(Eh)            E(eV)
   0   2.0000     -88.963901     -2420.8308
   1   2.0000     -88.960386     -2420.7352
   2   2.0000     -10.322681      -280.8944
   3   2.0000     -10.321603      -280.8651
   4   2.0000     -10.318497      -280.7806
   5   2.0000     -10.313103      -280.6338
   6   2.0000     -10.297478      -280.2086
   7   2.0000     -10.297310      -280.2040
   8   2.0000     -10.294557      -280.1291
   9   2.0000     -10.289794      -279.9995
  10   2.0000     -10.289104      -279.9808
  11   2.0000     -10.288803      -279.9726
  12   2.0000     -10.283660      -279.8326
  13   2.0000     -10.279560      -279.7211
  14   2.0000     -10.277035      -279.6523
  15   2.0000     -10.269069      -279.4356
  16   2.0000      -8.078746      -219.8339
  17   2.0000      -8.076073      -219.7611
  18   2.0000      -6.037187      -164.2802
  19   2.0000      -6.034514      -164.2075
  20   2.0000      -6.033140      -164.1701
  21   2.0000      -6.030382      -164.0950
  22   2.0000      -6.029635      -164.0747
  23   2.0000      -6.026898      -164.0002
  24   2.0000      -1.014923       -27.6175
  25   2.0000      -0.991810       -26.9885
  26   2.0000      -0.919246       -25.0140
  27   2.0000      -0.914778       -24.8924
  28   2.0000      -0.875408       -23.8211
  29   2.0000      -0.855662       -23.2837
  30   2.0000      -0.846972       -23.0473
  31   2.0000      -0.813376       -22.1331
  32   2.0000      -0.786170       -21.3928
  33   2.0000      -0.773181       -21.0393
  34   2.0000      -0.715957       -19.4822
  35   2.0000      -0.703121       -19.1329
  36   2.0000      -0.689914       -18.7735
  37   2.0000      -0.660594       -17.9757
  38   2.0000      -0.637700       -17.3527
  39   2.0000      -0.623234       -16.9591
  40   2.0000      -0.600054       -16.3283
  41   2.0000      -0.572479       -15.5779
  42   2.0000      -0.568912       -15.4809
  43   2.0000      -0.550855       -14.9895
  44   2.0000      -0.534188       -14.5360
  45   2.0000      -0.526175       -14.3180
  46   2.0000      -0.518521       -14.1097
  47   2.0000      -0.514212       -13.9924
  48   2.0000      -0.505709       -13.7610
  49   2.0000      -0.498991       -13.5782
  50   2.0000      -0.493519       -13.4293
  51   2.0000      -0.490586       -13.3495
  52   2.0000      -0.472678       -12.8622
  53   2.0000      -0.460992       -12.5442
  54   2.0000      -0.453202       -12.3323
  55   2.0000      -0.449447       -12.2301
  56   2.0000      -0.445699       -12.1281
  57   2.0000      -0.430871       -11.7246
  58   2.0000      -0.429738       -11.6938
  59   2.0000      -0.425467       -11.5776
  60   2.0000      -0.420578       -11.4445
  61   2.0000      -0.413379       -11.2486
  62   2.0000      -0.406490       -11.0612
  63   2.0000      -0.336847        -9.1661
  64   2.0000      -0.331334        -9.0161
  65   2.0000      -0.325070        -8.8456
  66   2.0000      -0.301081        -8.1928
  67   0.0000       0.032331         0.8798
  68   0.0000       0.058538         1.5929
  69   0.0000       0.116428         3.1682
  70   0.0000       0.122850         3.3429
  71   0.0000       0.128138         3.4868

MULLIKEN ATOMIC CHARGES
-----------------------
   0 S :    0.104590
   1 C :   -0.159202
   2 C :   -0.114843
   3 C :    0.052250
   4 C :   -0.177240
   5 H :    0.009312
   6 C :    0.056886
   7 H :    0.050013
   8 H :    0.026077
   9 C :   -0.067129
  10 H :    0.026135
  11 H :    0.039045
  12 C :   -0.070711
  13 H :    0.042615
  14 H :    0.032166
  15 H :    0.024482
  16 S :    0.111230
  17 C :   -0.103720
  18 C :   -0.059210
  19 C :    0.010561
  20 C :   -0.176282
  21 H :    0.009200
  22 C :    0.067713
  23 H :    0.025765
  24 H :    0.036063
  25 C :   -0.045022
  26 H :    0.008836
  27 H :    0.025408
  28 C :   -0.016086
  29 H :    0.023895
  30 H :    0.022271
  31 H :    0.020229
  32 H :    0.083339
  33 H :    0.081365
Sum of atomic charges:   -0.0000000

LOEWDIN ATOMIC CHARGES
----------------------
   0 S :    0.414728
   1 C :   -0.220739
   2 C :   -0.068785
   3 C :   -0.063438
   4 C :   -0.206021
   5 H :    0.029224
   6 C :   -0.045005
   7 H :    0.035674
   8 H :    0.043744
   9 C :   -0.036807
  10 H :    0.019636
  11 H :    0.031497
  12 C :   -0.068892
  13 H :    0.029778
  14 H :    0.029030
  15 H :    0.016645
  16 S :    0.416180
  17 C :   -0.201869
  18 C :   -0.081544
  19 C :   -0.048517
  20 C :   -0.206019
  21 H :    0.025839
  22 C :   -0.028894
  23 H :    0.033970
  24 H :    0.037962
  25 C :   -0.036272
  26 H :    0.017335
  27 H :    0.031488
  28 C :   -0.065496
  29 H :    0.029245
  30 H :    0.017911
  31 H :    0.024459
  32 H :    0.048133
  33 H :    0.045818

  Mayer bond orders larger than 0.100000
B(  0-S ,  1-C ) :   1.1273 B(  0-S ,  4-C ) :   1.1614 B(  1-C ,  2-C ) :   1.6584
B(  1-C , 32-H ) :   0.9469 B(  2-C ,  3-C ) :   1.2258 B(  2-C ,  6-C ) :   0.9909
B(  3-C ,  4-C ) :   1.5921 B(  3-C ,  5-H ) :   0.9924 B(  4-C , 20-C ) :   1.0334
B(  6-C ,  7-H ) :   0.9389 B(  6-C ,  8-H ) :   0.9442 B(  6-C ,  9-C ) :   1.0479
B(  9-C , 10-H ) :   0.9634 B(  9-C , 11-H ) :   0.9591 B(  9-C , 12-C ) :   1.0819
B( 12-C , 13-H ) :   0.9766 B( 12-C , 14-H ) :   0.9718 B( 12-C , 15-H ) :   0.9745
B( 16-S , 17-C ) :   1.1772 B( 16-S , 20-C ) :   1.1501 B( 17-C , 18-C ) :   1.5644
B( 17-C , 20-C ) :   0.1137 B( 17-C , 33-H ) :   0.9625 B( 18-C , 19-C ) :   1.2825
B( 18-C , 21-H ) :   0.9879 B( 19-C , 20-C ) :   1.5319 B( 19-C , 22-C ) :   1.0552
B( 22-C , 23-H ) :   0.9369 B( 22-C , 24-H ) :   0.9154 B( 22-C , 25-C ) :   1.0767
B( 25-C , 26-H ) :   0.9473 B( 25-C , 27-H ) :   0.9491 B( 25-C , 28-C ) :   1.0894
B( 28-C , 29-H ) :   0.9687 B( 28-C , 30-H ) :   0.9753 B( 28-C , 31-H ) :   0.9710

Dispersion correction           -0.014037041
FINAL SINGLE POINT ENERGY     -1339.847868952028

DIPOLE MOMENT
-------------
                                X             Y             Z
Electronic contribution:    -19.43376       5.90497      12.57682
Nuclear contribution   :     19.91248      -6.16316     -12.57407
                        -----------------------------------------
Total Dipole Moment    :      0.47872      -0.25820       0.00275
                        -----------------------------------------
Magnitude (a.u.)       :      0.54392
Magnitude (Debye)      :      1.38253

Rotational constants in cm-1:     0.017051     0.008458     0.007591
Rotational constants in MHz :   511.190330   253.565214   227.583095

                             ****ORCA TERMINATED NORMALLY****
TOTAL RUN TIME: 0 days 0 hours 0 minutes 20 seconds 343 msec
