                         Program Version 4.2.1 -  RELEASE  -
|  1> ! wB97X-D3 SP def2-SVP
|  2> %pal
|  3> nprocs 24
|  4> end
|  5>
|  6> * xyz 0 1
|  7> S 	 -138.135 	 9.26291 	 -13.4866
|  8> C 	 -138.053 	 9.98465 	 -11.9572
|  9> C 	 -136.748 	 10.4584 	 -11.7068
| 10> C 	 -135.84 	 10.2745 	 -12.7931
| 11> C 	 -136.4 	 9.57865 	 -13.8622
| 12> H 	 -134.789 	 10.4819 	 -12.8412
| 13> C 	 -136.238 	 11.1761 	 -10.4468
| 14> H 	 -135.348 	 10.8044 	 -10.2504
| 15> H 	 -136.878 	 10.9781 	 -9.6329
| 16> C 	 -136.326 	 12.7235 	 -10.5043
| 17> H 	 -135.964 	 12.9363 	 -9.43953
| 18> H 	 -135.646 	 13.0862 	 -11.2692
| 19> C 	 -137.731 	 13.199 	 -10.651
| 20> H 	 -138.075 	 13.0744 	 -11.7107
| 21> H 	 -138.481 	 12.5542 	 -10.0834
| 22> H 	 -137.873 	 14.1871 	 -10.2925
| 23> S 	 -135.768 	 10.1651 	 -16.4077
| 24> C 	 -134.822 	 9.05764 	 -17.31
| 25> C 	 -134.317 	 8.08759 	 -16.5536
| 26> C 	 -134.962 	 7.99681 	 -15.2612
| 27> C 	 -135.775 	 9.10134 	 -15.0467
| 28> H 	 -133.654 	 7.32903 	 -16.9703
| 29> C 	 -134.799 	 6.92069 	 -14.2003
| 30> H 	 -134.786 	 7.40647 	 -13.2384
| 31> H 	 -133.792 	 6.53875 	 -14.3303
| 32> C 	 -135.814 	 5.7873 	 -14.3042
| 33> H 	 -135.648 	 5.24054 	 -15.1602
| 34> H 	 -136.762 	 6.21287 	 -14.3939
| 35> C 	 -135.835 	 4.76397 	 -13.1835
| 36> H 	 -136.412 	 3.82675 	 -13.4038
| 37> H 	 -136.438 	 5.31929 	 -12.3904
| 38> H 	 -134.792 	 4.49059 	 -12.9013
| 39> H 	 -138.822 	 9.97136 	 -11.1972
| 40> H 	 -134.544 	 9.30623 	 -18.306
| 41> *
| 42>
| 43>                          ****END OF INPUT****

CARTESIAN COORDINATES (ANGSTROEM)
---------------------------------
  S    -138.135000    9.262910  -13.486600
  C    -138.053000    9.984650  -11.957200
  C    -136.748000   10.458400  -11.706800
  C    -135.840000   10.274500  -12.793100
  C    -136.400000    9.578650  -13.862200
  H    -134.789000   10.481900  -12.841200
  C    -136.238000   11.176100  -10.446800
  H    -135.348000   10.804400  -10.250400
  H    -136.878000   10.978100   -9.632900
  C    -136.326000   12.723500  -10.504300
  H    -135.964000   12.936300   -9.439530
  H    -135.646000   13.086200  -11.269200
  C    -137.731000   13.199000  -10.651000
  H    -138.075000   13.074400  -11.710700
  H    -138.481000   12.554200  -10.083400
  H    -137.873000   14.187100  -10.292500
  S    -135.768000   10.165100  -16.407700
  C    -134.822000    9.057640  -17.310000
  C    -134.317000    8.087590  -16.553600
  C    -134.962000    7.996810  -15.261200
  C    -135.775000    9.101340  -15.046700
  H    -133.654000    7.329030  -16.970300
  C    -134.799000    6.920690  -14.200300
  H    -134.786000    7.406470  -13.238400
  H    -133.792000    6.538750  -14.330300
  C    -135.814000    5.787300  -14.304200
  H    -135.648000    5.240540  -15.160200
  H    -136.762000    6.212870  -14.393900
  C    -135.835000    4.763970  -13.183500
  H    -136.412000    3.826750  -13.403800
  H    -136.438000    5.319290  -12.390400
  H    -134.792000    4.490590  -12.901300
  H    -138.822000    9.971360  -11.197200
  H    -134.544000    9.306230  -18.306000

 Total Charge           Charge          ....    0
 Multiplicity           Mult            ....    1
 Number of Electrons    NEL             ....  134
 Basis Dimension        Dim             ....  322

ORBITAL ENERGIES
----------------

  NO   OCC          E(Eh)            E(eV)
   0   2.0000     -88.965013     -2420.8611
   1   2.0000     -88.959214     -2420.7033
   2   2.0000     -10.327853      -281.0352
   3   2.0000     -10.316958      -280.7387
   4   2.0000     -10.314517      -280.6723
   5   2.0000     -10.309156      -280.5264
   6   2.0000     -10.304386      -280.3966
   7   2.0000     -10.300976      -280.3038
   8   2.0000     -10.295112      -280.1443
   9   2.0000     -10.292313      -280.0681
  10   2.0000     -10.289126      -279.9814
  11   2.0000     -10.287137      -279.9272
  12   2.0000     -10.283137      -279.8184
  13   2.0000     -10.278146      -279.6826
  14   2.0000     -10.276113      -279.6273
  15   2.0000     -10.267821      -279.4016
  16   2.0000      -8.079718      -219.8603
  17   2.0000      -8.075785      -219.7533
  18   2.0000      -6.038108      -164.3053
  19   2.0000      -6.034072      -164.1954
  20   2.0000      -6.034033      -164.1944
  21   2.0000      -6.030784      -164.1060
  22   2.0000      -6.030088      -164.0870
  23   2.0000      -6.026612      -163.9925
  24   2.0000      -1.011889       -27.5349
  25   2.0000      -0.986446       -26.8426
  26   2.0000      -0.914787       -24.8926
  27   2.0000      -0.911334       -24.7987
  28   2.0000      -0.877178       -23.8692
  29   2.0000      -0.851032       -23.1578
  30   2.0000      -0.847987       -23.0749
  31   2.0000      -0.815257       -22.1843
  32   2.0000      -0.783969       -21.3329
  33   2.0000      -0.770071       -20.9547
  34   2.0000      -0.706198       -19.2166
  35   2.0000      -0.694945       -18.9104
  36   2.0000      -0.690128       -18.7794
  37   2.0000      -0.661989       -18.0136
  38   2.0000      -0.647603       -17.6222
  39   2.0000      -0.619755       -16.8644
  40   2.0000      -0.599504       -16.3133
  41   2.0000      -0.572960       -15.5910
  42   2.0000      -0.567962       -15.4550
  43   2.0000      -0.560876       -15.2622
  44   2.0000      -0.542226       -14.7547
  45   2.0000      -0.523602       -14.2479
  46   2.0000      -0.517653       -14.0860
  47   2.0000      -0.514431       -13.9984
  48   2.0000      -0.505742       -13.7619
  49   2.0000      -0.499222       -13.5845
  50   2.0000      -0.489406       -13.3174
  51   2.0000      -0.483855       -13.1664
  52   2.0000      -0.468431       -12.7467
  53   2.0000      -0.463500       -12.6125
  54   2.0000      -0.456604       -12.4248
  55   2.0000      -0.451053       -12.2738
  56   2.0000      -0.449954       -12.2439
  57   2.0000      -0.435469       -11.8497
  58   2.0000      -0.433084       -11.7848
  59   2.0000      -0.423784       -11.5318
  60   2.0000      -0.418148       -11.3784
  61   2.0000      -0.410253       -11.1636
  62   2.0000      -0.405233       -11.0270
  63   2.0000      -0.339101        -9.2274
  64   2.0000      -0.332096        -9.0368
  65   2.0000      -0.317846        -8.6490
  66   2.0000      -0.307287        -8.3617
  67   0.0000       0.046551         1.2667
  68   0.0000       0.051913         1.4126
  69   0.0000       0.115978         3.1559
  70   0.0000       0.124732         3.3941
  71   0.0000       0.130895         3.5618

MULLIKEN ATOMIC CHARGES
-----------------------
   0 S :    0.115540
   1 C :   -0.104485
   2 C :   -0.136511
   3 C :    0.067983
   4 C :   -0.193927
   5 H :    0.011833
   6 C :    0.145690
   7 H :   -0.014828
   8 H :   -0.005412
   9 C :   -0.075286
  10 H :    0.036446
  11 H :    0.037267
  12 C :   -0.059334
  13 H :    0.052250
  14 H :    0.018426
  15 H :    0.035272
  16 S :    0.112145
  17 C :   -0.069240
  18 C :   -0.027237
  19 C :   -0.057590
  20 C :   -0.187078
  21 H :    0.022134
  22 C :    0.110425
  23 H :    0.021246
  24 H :    0.005453
  25 C :   -0.004405
  26 H :   -0.000024
  27 H :    0.005764
  28 C :   -0.083557
  29 H :    0.045185
  30 H :    0.043519
  31 H :    0.037384
  32 H :    0.048868
  33 H :    0.046081
Sum of atomic charges:   -0.0000000

LOEWDIN ATOMIC CHARGES
----------------------
   0 S :    0.412953
   1 C :   -0.218031
   2 C :   -0.063691
   3 C :   -0.053700
   4 C :   -0.190245
   5 H :    0.032569
   6 C :   -0.015694
   7 H :    0.006458
   8 H :    0.021448
   9 C :   -0.036082
  10 H :    0.032432
  11 H :    0.022367
  12 C :   -0.071026
  13 H :    0.034899
  14 H :    0.027081
  15 H :    0.021595
  16 S :    0.426411
  17 C :   -0.180692
  18 C :   -0.075379
  19 C :   -0.041594
  20 C :   -0.221646
  21 H :    0.034269
  22 C :   -0.024878
  23 H :    0.029208
  24 H :    0.026784
  25 C :   -0.035278
  26 H :    0.012466
  27 H :    0.014472
  28 C :   -0.071141
  29 H :    0.031166
  30 H :    0.034623
  31 H :    0.025777
  32 H :    0.029555
  33 H :    0.022544

  Mayer bond orders larger than 0.100000
B(  0-S ,  1-C ) :   1.1637 B(  0-S ,  4-C ) :   1.1452 B(  1-C ,  2-C ) :   1.5772
B(  1-C ,  4-C ) :   0.1051 B(  1-C , 32-H ) :   0.9686 B(  2-C ,  3-C ) :   1.2460
B(  2-C ,  6-C ) :   1.0270 B(  3-C ,  4-C ) :   1.5773 B(  3-C ,  5-H ) :   0.9960
B(  4-C , 20-C ) :   1.0304 B(  6-C ,  7-H ) :   0.9357 B(  6-C ,  8-H ) :   0.9374
B(  6-C ,  9-C ) :   1.0653 B(  9-C , 10-H ) :   0.9574 B(  9-C , 11-H ) :   0.9572
B(  9-C , 12-C ) :   1.0779 B( 12-C , 13-H ) :   0.9684 B( 12-C , 14-H ) :   0.9713
B( 12-C , 15-H ) :   0.9725 B( 16-S , 17-C ) :   1.1604 B( 16-S , 20-C ) :   1.1589
B( 17-C , 18-C ) :   1.6229 B( 17-C , 33-H ) :   0.9701 B( 18-C , 19-C ) :   1.2353
B( 18-C , 21-H ) :   0.9883 B( 19-C , 20-C ) :   1.5999 B( 19-C , 22-C ) :   1.0469
B( 22-C , 23-H ) :   0.9274 B( 22-C , 24-H ) :   0.9205 B( 22-C , 25-C ) :   1.0666
B( 25-C , 26-H ) :   0.9483 B( 25-C , 27-H ) :   0.9549 B( 25-C , 28-C ) :   1.0816
B( 28-C , 29-H ) :   0.9748 B( 28-C , 30-H ) :   0.9790 B( 28-C , 31-H ) :   0.9732

Dispersion correction           -0.014945322
FINAL SINGLE POINT ENERGY     -1339.864725117762

DIPOLE MOMENT
-------------
                                X             Y             Z
Electronic contribution:     -2.86762       3.98449     -18.26564
Nuclear contribution   :      3.26803      -4.11015      18.55622
                        -----------------------------------------
Total Dipole Moment    :      0.40041      -0.12566       0.29058
                        -----------------------------------------
Magnitude (a.u.)       :      0.51045
Magnitude (Debye)      :      1.29746

Rotational constants in cm-1:     0.019775     0.008565     0.007020
Rotational constants in MHz :   592.824820   256.759204   210.447230

                             ****ORCA TERMINATED NORMALLY****
TOTAL RUN TIME: 0 days 0 hours 0 minutes 22 seconds 784 msec
