                         Program Version 4.2.1 -  RELEASE  -
|  1> ! wB97X-D3 SP def2-SVP
|  2> %pal
|  3> nprocs 24
|  4> end
|  5>
|  6> * xyz 0 1
|  7> S 	 -122.765 	 47.4249 	 -23.1821
|  8> C 	 -121.677 	 46.1281 	 -22.6418
|  9> C 	 -120.633 	 45.9017 	 -23.52
| 10> C 	 -120.743 	 46.7675 	 -24.6221
| 11> C 	 -121.87 	 47.5151 	 -24.6756
| 12> H 	 -120.094 	 46.8807 	 -25.4931
| 13> C 	 -119.589 	 44.813 	 -23.3505
| 14> H 	 -119.588 	 44.6867 	 -22.3052
| 15> H 	 -118.662 	 44.9915 	 -23.7774
| 16> C 	 -119.944 	 43.4163 	 -23.7913
| 17> H 	 -120.901 	 43.0821 	 -23.2966
| 18> H 	 -120.127 	 43.382 	 -24.926
| 19> C 	 -118.968 	 42.3132 	 -23.4741
| 20> H 	 -119.463 	 41.3094 	 -23.4112
| 21> H 	 -118.187 	 42.2118 	 -24.2209
| 22> H 	 -118.391 	 42.5624 	 -22.5235
| 23> S 	 -122.204 	 50.2819 	 -25.2805
| 24> C 	 -122.427 	 50.6875 	 -26.9597
| 25> C 	 -122.566 	 49.5585 	 -27.7577
| 26> C 	 -122.416 	 48.3051 	 -27.0718
| 27> C 	 -122.188 	 48.494 	 -25.6955
| 28> H 	 -122.674 	 49.7352 	 -28.8461
| 29> C 	 -122.384 	 46.9889 	 -27.7911
| 30> H 	 -123.071 	 46.4202 	 -27.1457
| 31> H 	 -121.446 	 46.5865 	 -27.6943
| 32> C 	 -122.794 	 46.8836 	 -29.2332
| 33> H 	 -121.92 	 47.2632 	 -29.8169
| 34> H 	 -123.588 	 47.543 	 -29.4504
| 35> C 	 -123.336 	 45.5414 	 -29.6805
| 36> H 	 -122.572 	 44.7794 	 -29.6121
| 37> H 	 -123.647 	 45.4599 	 -30.7334
| 38> H 	 -124.157 	 45.2262 	 -29.0355
| 39> H 	 -121.73 	 45.6207 	 -21.6939
| 40> H 	 -122.687 	 51.6877 	 -27.2723
| 41> *
| 42>
| 43>                          ****END OF INPUT****

CARTESIAN COORDINATES (ANGSTROEM)
---------------------------------
  S    -122.765000   47.424900  -23.182100
  C    -121.677000   46.128100  -22.641800
  C    -120.633000   45.901700  -23.520000
  C    -120.743000   46.767500  -24.622100
  C    -121.870000   47.515100  -24.675600
  H    -120.094000   46.880700  -25.493100
  C    -119.589000   44.813000  -23.350500
  H    -119.588000   44.686700  -22.305200
  H    -118.662000   44.991500  -23.777400
  C    -119.944000   43.416300  -23.791300
  H    -120.901000   43.082100  -23.296600
  H    -120.127000   43.382000  -24.926000
  C    -118.968000   42.313200  -23.474100
  H    -119.463000   41.309400  -23.411200
  H    -118.187000   42.211800  -24.220900
  H    -118.391000   42.562400  -22.523500
  S    -122.204000   50.281900  -25.280500
  C    -122.427000   50.687500  -26.959700
  C    -122.566000   49.558500  -27.757700
  C    -122.416000   48.305100  -27.071800
  C    -122.188000   48.494000  -25.695500
  H    -122.674000   49.735200  -28.846100
  C    -122.384000   46.988900  -27.791100
  H    -123.071000   46.420200  -27.145700
  H    -121.446000   46.586500  -27.694300
  C    -122.794000   46.883600  -29.233200
  H    -121.920000   47.263200  -29.816900
  H    -123.588000   47.543000  -29.450400
  C    -123.336000   45.541400  -29.680500
  H    -122.572000   44.779400  -29.612100
  H    -123.647000   45.459900  -30.733400
  H    -124.157000   45.226200  -29.035500
  H    -121.730000   45.620700  -21.693900
  H    -122.687000   51.687700  -27.272300

 Total Charge           Charge          ....    0
 Multiplicity           Mult            ....    1
 Number of Electrons    NEL             ....  134
 Basis Dimension        Dim             ....  322

ORBITAL ENERGIES
----------------

  NO   OCC          E(Eh)            E(eV)
   0   2.0000     -88.967624     -2420.9321
   1   2.0000     -88.964208     -2420.8392
   2   2.0000     -10.329276      -281.0739
   3   2.0000     -10.322507      -280.8897
   4   2.0000     -10.316967      -280.7389
   5   2.0000     -10.316536      -280.7272
   6   2.0000     -10.308646      -280.5125
   7   2.0000     -10.302743      -280.3519
   8   2.0000     -10.295453      -280.1535
   9   2.0000     -10.291476      -280.0453
  10   2.0000     -10.289890      -280.0021
  11   2.0000     -10.286118      -279.8995
  12   2.0000     -10.285672      -279.8874
  13   2.0000     -10.284336      -279.8510
  14   2.0000     -10.283586      -279.8306
  15   2.0000     -10.279403      -279.7168
  16   2.0000      -8.082127      -219.9258
  17   2.0000      -8.077881      -219.8103
  18   2.0000      -6.040618      -164.3736
  19   2.0000      -6.036770      -164.2689
  20   2.0000      -6.036436      -164.2598
  21   2.0000      -6.032809      -164.1611
  22   2.0000      -6.032572      -164.1546
  23   2.0000      -6.028627      -164.0473
  24   2.0000      -1.005452       -27.3597
  25   2.0000      -0.978531       -26.6272
  26   2.0000      -0.920245       -25.0411
  27   2.0000      -0.916715       -24.9451
  28   2.0000      -0.870636       -23.6912
  29   2.0000      -0.855048       -23.2670
  30   2.0000      -0.846010       -23.0211
  31   2.0000      -0.813930       -22.1482
  32   2.0000      -0.789551       -21.4848
  33   2.0000      -0.775100       -21.0915
  34   2.0000      -0.709368       -19.3029
  35   2.0000      -0.701025       -19.0759
  36   2.0000      -0.689683       -18.7672
  37   2.0000      -0.648129       -17.6365
  38   2.0000      -0.644912       -17.5490
  39   2.0000      -0.618258       -16.8237
  40   2.0000      -0.600993       -16.3538
  41   2.0000      -0.585090       -15.9211
  42   2.0000      -0.576665       -15.6918
  43   2.0000      -0.558995       -15.2110
  44   2.0000      -0.530356       -14.4317
  45   2.0000      -0.520744       -14.1702
  46   2.0000      -0.519590       -14.1388
  47   2.0000      -0.514071       -13.9886
  48   2.0000      -0.504120       -13.7178
  49   2.0000      -0.496868       -13.5205
  50   2.0000      -0.495231       -13.4759
  51   2.0000      -0.480631       -13.0786
  52   2.0000      -0.476074       -12.9546
  53   2.0000      -0.465087       -12.6557
  54   2.0000      -0.456237       -12.4148
  55   2.0000      -0.453782       -12.3480
  56   2.0000      -0.448405       -12.2017
  57   2.0000      -0.438111       -11.9216
  58   2.0000      -0.428527       -11.6608
  59   2.0000      -0.424697       -11.5566
  60   2.0000      -0.419718       -11.4211
  61   2.0000      -0.415694       -11.3116
  62   2.0000      -0.411187       -11.1890
  63   2.0000      -0.339616        -9.2414
  64   2.0000      -0.330685        -8.9984
  65   2.0000      -0.329265        -8.9598
  66   2.0000      -0.295715        -8.0468
  67   0.0000       0.029468         0.8019
  68   0.0000       0.060042         1.6338
  69   0.0000       0.110970         3.0197
  70   0.0000       0.121563         3.3079
  71   0.0000       0.132002         3.5920

MULLIKEN ATOMIC CHARGES
-----------------------
   0 S :    0.115388
   1 C :   -0.120251
   2 C :   -0.067553
   3 C :    0.032952
   4 C :   -0.191173
   5 H :    0.013714
   6 C :    0.155070
   7 H :    0.001261
   8 H :    0.009538
   9 C :   -0.118701
  10 H :    0.028224
  11 H :    0.033483
  12 C :   -0.064670
  13 H :    0.050217
  14 H :    0.027730
  15 H :    0.031684
  16 S :    0.097699
  17 C :   -0.086375
  18 C :   -0.069141
  19 C :   -0.040172
  20 C :   -0.169089
  21 H :    0.034076
  22 C :    0.111149
  23 H :    0.034382
  24 H :    0.013943
  25 C :   -0.070369
  26 H :    0.033602
  27 H :    0.020300
  28 C :   -0.037079
  29 H :    0.017823
  30 H :    0.037118
  31 H :    0.036044
  32 H :    0.040207
  33 H :    0.058968
Sum of atomic charges:    0.0000000

LOEWDIN ATOMIC CHARGES
----------------------
   0 S :    0.399574
   1 C :   -0.180356
   2 C :   -0.057411
   3 C :   -0.057580
   4 C :   -0.202034
   5 H :    0.034531
   6 C :   -0.022836
   7 H :    0.028611
   8 H :    0.022745
   9 C :   -0.051103
  10 H :    0.025935
  11 H :    0.026780
  12 C :   -0.075795
  13 H :    0.036154
  14 H :    0.020305
  15 H :    0.029759
  16 S :    0.373667
  17 C :   -0.184614
  18 C :   -0.084079
  19 C :   -0.042146
  20 C :   -0.185431
  21 H :    0.036784
  22 C :   -0.029258
  23 H :    0.041453
  24 H :    0.022093
  25 C :   -0.044224
  26 H :    0.029662
  27 H :    0.018077
  28 C :   -0.061263
  29 H :    0.020031
  30 H :    0.031059
  31 H :    0.028392
  32 H :    0.024432
  33 H :    0.028086

  Mayer bond orders larger than 0.100000
B(  0-S ,  1-C ) :   1.1391 B(  0-S ,  4-C ) :   1.1343 B(  1-C ,  2-C ) :   1.6159
B(  1-C , 32-H ) :   0.9648 B(  2-C ,  3-C ) :   1.2252 B(  2-C ,  6-C ) :   1.0331
B(  3-C ,  4-C ) :   1.6047 B(  3-C ,  5-H ) :   0.9909 B(  4-C , 20-C ) :   1.0518
B(  6-C ,  7-H ) :   0.9163 B(  6-C ,  8-H ) :   0.9419 B(  6-C ,  9-C ) :   1.0752
B(  9-C , 10-H ) :   0.9571 B(  9-C , 11-H ) :   0.9520 B(  9-C , 12-C ) :   1.0767
B( 12-C , 13-H ) :   0.9753 B( 12-C , 14-H ) :   0.9736 B( 12-C , 15-H ) :   0.9710
B( 16-S , 17-C ) :   1.1597 B( 16-S , 20-C ) :   1.1218 B( 17-C , 18-C ) :   1.6141
B( 17-C , 20-C ) :   0.1043 B( 17-C , 33-H ) :   0.9607 B( 18-C , 19-C ) :   1.2397
B( 18-C , 21-H ) :   0.9798 B( 19-C , 20-C ) :   1.5998 B( 19-C , 22-C ) :   1.0231
B( 22-C , 23-H ) :   0.9226 B( 22-C , 24-H ) :   0.9211 B( 22-C , 25-C ) :   1.0837
B( 25-C , 26-H ) :   0.9441 B( 25-C , 27-H ) :   0.9536 B( 25-C , 28-C ) :   1.0874
B( 28-C , 29-H ) :   0.9745 B( 28-C , 30-H ) :   0.9726 B( 28-C , 31-H ) :   0.9729

Dispersion correction           -0.013378993
FINAL SINGLE POINT ENERGY     -1339.866493466914

DIPOLE MOMENT
-------------
                                X             Y             Z
Electronic contribution:     -8.01660      26.90893      13.14213
Nuclear contribution   :      8.29565     -27.43997     -13.57182
                        -----------------------------------------
Total Dipole Moment    :      0.27905      -0.53104      -0.42969
                        -----------------------------------------
Magnitude (a.u.)       :      0.73791
Magnitude (Debye)      :      1.87562

Rotational constants in cm-1:     0.016728     0.008275     0.006100
Rotational constants in MHz :   501.503116   248.067351   182.882827

                             ****ORCA TERMINATED NORMALLY****
TOTAL RUN TIME: 0 days 0 hours 0 minutes 20 seconds 970 msec
