                         Program Version 4.2.1 -  RELEASE  -
|  1> ! wB97X-D3 SP def2-SVP
|  2> %pal
|  3> nprocs 24
|  4> end
|  5>
|  6> * xyz 0 1
|  7> S 	 -66.1849 	 18.9769 	 -117.309
|  8> C 	 -64.789 	 19.6644 	 -118.043
|  9> C 	 -63.8097 	 19.753 	 -117.002
| 10> C 	 -64.405 	 19.6851 	 -115.684
| 11> C 	 -65.7012 	 19.331 	 -115.741
| 12> H 	 -63.8668 	 19.814 	 -114.759
| 13> C 	 -62.3272 	 20.1489 	 -117.126
| 14> H 	 -62.3501 	 21.1362 	 -117.5
| 15> H 	 -61.8261 	 19.592 	 -117.916
| 16> C 	 -61.4216 	 20.0428 	 -115.801
| 17> H 	 -61.7658 	 20.8435 	 -115.108
| 18> H 	 -61.5627 	 19.056 	 -115.27
| 19> C 	 -59.9289 	 20.1807 	 -116.017
| 20> H 	 -59.4813 	 20.2288 	 -115.062
| 21> H 	 -59.6118 	 19.3063 	 -116.657
| 22> H 	 -59.7543 	 21.126 	 -116.53
| 23> S 	 -67.6476 	 17.654 	 -114.551
| 24> C 	 -68.2578 	 18.0491 	 -112.979
| 25> C 	 -67.612 	 19.1822 	 -112.433
| 26> C 	 -66.6604 	 19.8023 	 -113.306
| 27> C 	 -66.5935 	 19.1183 	 -114.566
| 28> H 	 -67.8356 	 19.3939 	 -111.365
| 29> C 	 -65.8711 	 21.0333 	 -112.9
| 30> H 	 -64.8634 	 20.7082 	 -112.719
| 31> H 	 -66.2208 	 21.3735 	 -111.931
| 32> C 	 -66.0194 	 22.1854 	 -113.906
| 33> H 	 -66.9521 	 22.7538 	 -113.749
| 34> H 	 -65.9171 	 21.8508 	 -114.907
| 35> C 	 -64.9287 	 23.2328 	 -113.787
| 36> H 	 -63.9717 	 22.7517 	 -114.026
| 37> H 	 -64.7638 	 23.6117 	 -112.72
| 38> H 	 -65.1563 	 24.0352 	 -114.45
| 39> H 	 -64.6253 	 19.8992 	 -119.065
| 40> H 	 -68.9018 	 17.4419 	 -112.362
| 41> *
| 42>
| 43>                          ****END OF INPUT****

CARTESIAN COORDINATES (ANGSTROEM)
---------------------------------
  S    -66.184900   18.976900  -117.309000
  C    -64.789000   19.664400  -118.043000
  C    -63.809700   19.753000  -117.002000
  C    -64.405000   19.685100  -115.684000
  C    -65.701200   19.331000  -115.741000
  H    -63.866800   19.814000  -114.759000
  C    -62.327200   20.148900  -117.126000
  H    -62.350100   21.136200  -117.500000
  H    -61.826100   19.592000  -117.916000
  C    -61.421600   20.042800  -115.801000
  H    -61.765800   20.843500  -115.108000
  H    -61.562700   19.056000  -115.270000
  C    -59.928900   20.180700  -116.017000
  H    -59.481300   20.228800  -115.062000
  H    -59.611800   19.306300  -116.657000
  H    -59.754300   21.126000  -116.530000
  S    -67.647600   17.654000  -114.551000
  C    -68.257800   18.049100  -112.979000
  C    -67.612000   19.182200  -112.433000
  C    -66.660400   19.802300  -113.306000
  C    -66.593500   19.118300  -114.566000
  H    -67.835600   19.393900  -111.365000
  C    -65.871100   21.033300  -112.900000
  H    -64.863400   20.708200  -112.719000
  H    -66.220800   21.373500  -111.931000
  C    -66.019400   22.185400  -113.906000
  H    -66.952100   22.753800  -113.749000
  H    -65.917100   21.850800  -114.907000
  C    -64.928700   23.232800  -113.787000
  H    -63.971700   22.751700  -114.026000
  H    -64.763800   23.611700  -112.720000
  H    -65.156300   24.035200  -114.450000
  H    -64.625300   19.899200  -119.065000
  H    -68.901800   17.441900  -112.362000

 Total Charge           Charge          ....    0
 Multiplicity           Mult            ....    1
 Number of Electrons    NEL             ....  134
 Basis Dimension        Dim             ....  322

ORBITAL ENERGIES
----------------

  NO   OCC          E(Eh)            E(eV)
   0   2.0000     -88.969425     -2420.9811
   1   2.0000     -88.964574     -2420.8491
   2   2.0000     -10.336328      -281.2658
   3   2.0000     -10.324043      -280.9315
   4   2.0000     -10.316970      -280.7390
   5   2.0000     -10.315110      -280.6884
   6   2.0000     -10.310233      -280.5557
   7   2.0000     -10.309948      -280.5479
   8   2.0000     -10.298394      -280.2336
   9   2.0000     -10.297946      -280.2213
  10   2.0000     -10.294565      -280.1294
  11   2.0000     -10.291888      -280.0565
  12   2.0000     -10.288202      -279.9562
  13   2.0000     -10.281663      -279.7783
  14   2.0000     -10.278338      -279.6878
  15   2.0000     -10.276118      -279.6274
  16   2.0000      -8.083148      -219.9536
  17   2.0000      -8.081094      -219.8978
  18   2.0000      -6.041654      -164.4018
  19   2.0000      -6.039574      -164.3452
  20   2.0000      -6.037714      -164.2946
  21   2.0000      -6.035302      -164.2289
  22   2.0000      -6.034080      -164.1957
  23   2.0000      -6.031820      -164.1342
  24   2.0000      -1.012363       -27.5478
  25   2.0000      -0.978766       -26.6336
  26   2.0000      -0.910541       -24.7771
  27   2.0000      -0.905127       -24.6298
  28   2.0000      -0.865837       -23.5606
  29   2.0000      -0.854103       -23.2413
  30   2.0000      -0.848497       -23.0888
  31   2.0000      -0.812761       -22.1163
  32   2.0000      -0.782190       -21.2845
  33   2.0000      -0.769495       -20.9390
  34   2.0000      -0.705908       -19.2087
  35   2.0000      -0.695301       -18.9201
  36   2.0000      -0.684374       -18.6228
  37   2.0000      -0.653655       -17.7869
  38   2.0000      -0.640724       -17.4350
  39   2.0000      -0.622678       -16.9439
  40   2.0000      -0.590444       -16.0668
  41   2.0000      -0.570520       -15.5246
  42   2.0000      -0.569098       -15.4859
  43   2.0000      -0.562300       -15.3009
  44   2.0000      -0.534282       -14.5385
  45   2.0000      -0.530442       -14.4341
  46   2.0000      -0.515142       -14.0177
  47   2.0000      -0.510705       -13.8970
  48   2.0000      -0.504398       -13.7254
  49   2.0000      -0.500394       -13.6164
  50   2.0000      -0.497164       -13.5285
  51   2.0000      -0.486069       -13.2266
  52   2.0000      -0.469483       -12.7753
  53   2.0000      -0.464042       -12.6272
  54   2.0000      -0.457729       -12.4554
  55   2.0000      -0.454893       -12.3783
  56   2.0000      -0.437034       -11.8923
  57   2.0000      -0.434407       -11.8208
  58   2.0000      -0.428998       -11.6736
  59   2.0000      -0.422569       -11.4987
  60   2.0000      -0.421717       -11.4755
  61   2.0000      -0.416822       -11.3423
  62   2.0000      -0.413551       -11.2533
  63   2.0000      -0.349154        -9.5010
  64   2.0000      -0.331727        -9.0268
  65   2.0000      -0.325435        -8.8555
  66   2.0000      -0.282276        -7.6811
  67   0.0000       0.025386         0.6908
  68   0.0000       0.066567         1.8114
  69   0.0000       0.105260         2.8643
  70   0.0000       0.119377         3.2484
  71   0.0000       0.131478         3.5777

MULLIKEN ATOMIC CHARGES
-----------------------
   0 S :    0.121656
   1 C :   -0.111543
   2 C :   -0.099165
   3 C :   -0.021369
   4 C :   -0.105293
   5 H :    0.008074
   6 C :    0.068187
   7 H :    0.029720
   8 H :    0.022512
   9 C :   -0.168128
  10 H :    0.042635
  11 H :    0.049064
  12 C :   -0.009567
  13 H :    0.033865
  14 H :    0.047185
  15 H :    0.028664
  16 S :    0.108062
  17 C :   -0.090934
  18 C :   -0.069082
  19 C :   -0.039175
  20 C :   -0.146256
  21 H :    0.032482
  22 C :    0.097021
  23 H :    0.027913
  24 H :    0.008993
  25 C :   -0.070367
  26 H :    0.038001
  27 H :    0.048808
  28 C :   -0.059314
  29 H :    0.017462
  30 H :    0.027714
  31 H :    0.035956
  32 H :    0.041967
  33 H :    0.054255
Sum of atomic charges:   -0.0000000

LOEWDIN ATOMIC CHARGES
----------------------
   0 S :    0.448745
   1 C :   -0.213749
   2 C :   -0.047362
   3 C :   -0.075786
   4 C :   -0.215875
   5 H :    0.030008
   6 C :   -0.035957
   7 H :    0.029383
   8 H :    0.027961
   9 C :   -0.049954
  10 H :    0.022544
  11 H :    0.029383
  12 C :   -0.060955
  13 H :    0.024430
  14 H :    0.034302
  15 H :    0.024424
  16 S :    0.397888
  17 C :   -0.198549
  18 C :   -0.079256
  19 C :   -0.052265
  20 C :   -0.180612
  21 H :    0.037546
  22 C :   -0.027287
  23 H :    0.027074
  24 H :    0.030577
  25 C :   -0.036876
  26 H :    0.030344
  27 H :    0.023795
  28 C :   -0.064220
  29 H :    0.018421
  30 H :    0.025667
  31 H :    0.022538
  32 H :    0.024871
  33 H :    0.028806

  Mayer bond orders larger than 0.100000
B(  0-S ,  1-C ) :   1.1480 B(  0-S ,  4-C ) :   1.1798 B(  1-C ,  2-C ) :   1.5589
B(  1-C , 32-H ) :   0.9873 B(  2-C ,  3-C ) :   1.2618 B(  2-C ,  6-C ) :   1.0125
B(  3-C ,  4-C ) :   1.5276 B(  3-C ,  5-H ) :   0.9982 B(  4-C , 20-C ) :   1.0312
B(  6-C ,  7-H ) :   0.9349 B(  6-C ,  8-H ) :   0.9438 B(  6-C ,  9-C ) :   1.0633
B(  9-C , 10-H ) :   0.9468 B(  9-C , 11-H ) :   0.9589 B(  9-C , 12-C ) :   1.0864
B( 12-C , 13-H ) :   0.9702 B( 12-C , 14-H ) :   0.9736 B( 12-C , 15-H ) :   0.9734
B( 16-S , 17-C ) :   1.1630 B( 16-S , 20-C ) :   1.1481 B( 17-C , 18-C ) :   1.5966
B( 17-C , 20-C ) :   0.1106 B( 17-C , 33-H ) :   0.9655 B( 18-C , 19-C ) :   1.2720
B( 18-C , 21-H ) :   0.9811 B( 19-C , 20-C ) :   1.5556 B( 19-C , 22-C ) :   1.0336
B( 22-C , 23-H ) :   0.9348 B( 22-C , 24-H ) :   0.9254 B( 22-C , 25-C ) :   1.0613
B( 25-C , 26-H ) :   0.9541 B( 25-C , 27-H ) :   0.9603 B( 25-C , 28-C ) :   1.0850
B( 28-C , 29-H ) :   0.9765 B( 28-C , 30-H ) :   0.9719 B( 28-C , 31-H ) :   0.9734

Dispersion correction           -0.014761335
FINAL SINGLE POINT ENERGY     -1339.864180656861

DIPOLE MOMENT
-------------
                                X             Y             Z
Electronic contribution:    -24.31297     -18.84468      -6.59385
Nuclear contribution   :     24.92435      19.20819       6.88724
                        -----------------------------------------
Total Dipole Moment    :      0.61138       0.36351       0.29339
                        -----------------------------------------
Magnitude (a.u.)       :      0.76942
Magnitude (Debye)      :      1.95570

Rotational constants in cm-1:     0.017999     0.009167     0.007341
Rotational constants in MHz :   539.607747   274.805238   220.089993

                             ****ORCA TERMINATED NORMALLY****
TOTAL RUN TIME: 0 days 0 hours 0 minutes 21 seconds 229 msec
