                         Program Version 4.2.1 -  RELEASE  -
|  1> ! wB97X-D3 SP def2-SVP
|  2> %pal
|  3> nprocs 24
|  4> end
|  5>
|  6> * xyz 0 1
|  7> S 	 -70.3343 	 17.0678 	 -69.5495
|  8> C 	 -69.606 	 15.6272 	 -68.7882
|  9> C 	 -68.3929 	 16.0183 	 -68.1845
| 10> C 	 -68.0935 	 17.3929 	 -68.232
| 11> C 	 -68.9601 	 18.0777 	 -69.0028
| 12> H 	 -67.1842 	 17.8985 	 -67.8496
| 13> C 	 -67.5584 	 15.022 	 -67.4098
| 14> H 	 -68.092 	 14.7141 	 -66.437
| 15> H 	 -66.6965 	 15.5927 	 -67.0995
| 16> C 	 -67.1254 	 13.8375 	 -68.2414
| 17> H 	 -68.0081 	 13.2843 	 -68.4986
| 18> H 	 -66.78 	 14.0329 	 -69.3004
| 19> C 	 -66.2067 	 13.034 	 -67.345
| 20> H 	 -66.7031 	 12.7029 	 -66.3459
| 21> H 	 -65.889 	 12.1594 	 -67.9119
| 22> H 	 -65.3108 	 13.605 	 -67.1705
| 23> S 	 -67.0535 	 20.0363 	 -69.615
| 24> C 	 -67.6745 	 21.5427 	 -70.2725
| 25> C 	 -69.064 	 21.6411 	 -70.2479
| 26> C 	 -69.6858 	 20.4383 	 -69.7712
| 27> C 	 -68.7222 	 19.4346 	 -69.4569
| 28> H 	 -69.6706 	 22.529 	 -70.5283
| 29> C 	 -71.157 	 20.3677 	 -69.6725
| 30> H 	 -71.5896 	 19.3756 	 -69.8598
| 31> H 	 -71.6007 	 21.0324 	 -70.434
| 32> C 	 -71.6925 	 20.7843 	 -68.2563
| 33> H 	 -72.6916 	 20.8864 	 -68.467
| 34> H 	 -71.3578 	 21.7378 	 -67.9391
| 35> C 	 -71.5094 	 19.7066 	 -67.066
| 36> H 	 -70.4784 	 19.4243 	 -66.8757
| 37> H 	 -72.1471 	 18.8575 	 -67.4196
| 38> H 	 -72.0529 	 20.0185 	 -66.2208
| 39> H 	 -69.9239 	 14.551 	 -68.8849
| 40> H 	 -67.1457 	 22.2954 	 -70.732
| 41> *
| 42>
| 43>                          ****END OF INPUT****

CARTESIAN COORDINATES (ANGSTROEM)
---------------------------------
  S    -70.334300   17.067800  -69.549500
  C    -69.606000   15.627200  -68.788200
  C    -68.392900   16.018300  -68.184500
  C    -68.093500   17.392900  -68.232000
  C    -68.960100   18.077700  -69.002800
  H    -67.184200   17.898500  -67.849600
  C    -67.558400   15.022000  -67.409800
  H    -68.092000   14.714100  -66.437000
  H    -66.696500   15.592700  -67.099500
  C    -67.125400   13.837500  -68.241400
  H    -68.008100   13.284300  -68.498600
  H    -66.780000   14.032900  -69.300400
  C    -66.206700   13.034000  -67.345000
  H    -66.703100   12.702900  -66.345900
  H    -65.889000   12.159400  -67.911900
  H    -65.310800   13.605000  -67.170500
  S    -67.053500   20.036300  -69.615000
  C    -67.674500   21.542700  -70.272500
  C    -69.064000   21.641100  -70.247900
  C    -69.685800   20.438300  -69.771200
  C    -68.722200   19.434600  -69.456900
  H    -69.670600   22.529000  -70.528300
  C    -71.157000   20.367700  -69.672500
  H    -71.589600   19.375600  -69.859800
  H    -71.600700   21.032400  -70.434000
  C    -71.692500   20.784300  -68.256300
  H    -72.691600   20.886400  -68.467000
  H    -71.357800   21.737800  -67.939100
  C    -71.509400   19.706600  -67.066000
  H    -70.478400   19.424300  -66.875700
  H    -72.147100   18.857500  -67.419600
  H    -72.052900   20.018500  -66.220800
  H    -69.923900   14.551000  -68.884900
  H    -67.145700   22.295400  -70.732000

 Total Charge           Charge          ....    0
 Multiplicity           Mult            ....    1
 Number of Electrons    NEL             ....  134
 Basis Dimension        Dim             ....  322

ORBITAL ENERGIES
----------------

  NO   OCC          E(Eh)            E(eV)
   0   2.0000     -88.973644     -2421.0959
   1   2.0000     -88.967655     -2420.9330
   2   2.0000     -10.329829      -281.0889
   3   2.0000     -10.328247      -281.0459
   4   2.0000     -10.318323      -280.7759
   5   2.0000     -10.315830      -280.7080
   6   2.0000     -10.303296      -280.3669
   7   2.0000     -10.298240      -280.2294
   8   2.0000     -10.297476      -280.2086
   9   2.0000     -10.293264      -280.0939
  10   2.0000     -10.289745      -279.9982
  11   2.0000     -10.288816      -279.9729
  12   2.0000     -10.285056      -279.8706
  13   2.0000     -10.282004      -279.7875
  14   2.0000     -10.279768      -279.7267
  15   2.0000     -10.274192      -279.5750
  16   2.0000      -8.087129      -220.0620
  17   2.0000      -8.080485      -219.8812
  18   2.0000      -6.045768      -164.5137
  19   2.0000      -6.041944      -164.4096
  20   2.0000      -6.039267      -164.3368
  21   2.0000      -6.037724      -164.2948
  22   2.0000      -6.035316      -164.2293
  23   2.0000      -6.031017      -164.1123
  24   2.0000      -1.001528       -27.2530
  25   2.0000      -0.977335       -26.5946
  26   2.0000      -0.914993       -24.8982
  27   2.0000      -0.904998       -24.6262
  28   2.0000      -0.867342       -23.6016
  29   2.0000      -0.849782       -23.1237
  30   2.0000      -0.841762       -22.9055
  31   2.0000      -0.810168       -22.0458
  32   2.0000      -0.780994       -21.2519
  33   2.0000      -0.760428       -20.6923
  34   2.0000      -0.711919       -19.3723
  35   2.0000      -0.702725       -19.1221
  36   2.0000      -0.692980       -18.8569
  37   2.0000      -0.664439       -18.0803
  38   2.0000      -0.629122       -17.1193
  39   2.0000      -0.613866       -16.7041
  40   2.0000      -0.599042       -16.3008
  41   2.0000      -0.565785       -15.3958
  42   2.0000      -0.558136       -15.1877
  43   2.0000      -0.547391       -14.8953
  44   2.0000      -0.537646       -14.6301
  45   2.0000      -0.521309       -14.1855
  46   2.0000      -0.515699       -14.0329
  47   2.0000      -0.504276       -13.7220
  48   2.0000      -0.501334       -13.6420
  49   2.0000      -0.497208       -13.5297
  50   2.0000      -0.488587       -13.2951
  51   2.0000      -0.477634       -12.9971
  52   2.0000      -0.469545       -12.7770
  53   2.0000      -0.463553       -12.6139
  54   2.0000      -0.461388       -12.5550
  55   2.0000      -0.451066       -12.2741
  56   2.0000      -0.448590       -12.2068
  57   2.0000      -0.436342       -11.8735
  58   2.0000      -0.432034       -11.7563
  59   2.0000      -0.424248       -11.5444
  60   2.0000      -0.416825       -11.3424
  61   2.0000      -0.409912       -11.1543
  62   2.0000      -0.404312       -11.0019
  63   2.0000      -0.354573        -9.6484
  64   2.0000      -0.332135        -9.0378
  65   2.0000      -0.331035        -9.0079
  66   2.0000      -0.275640        -7.5005
  67   0.0000       0.017990         0.4895
  68   0.0000       0.071842         1.9549
  69   0.0000       0.101475         2.7613
  70   0.0000       0.110453         3.0056
  71   0.0000       0.125358         3.4112

MULLIKEN ATOMIC CHARGES
-----------------------
   0 S :    0.089151
   1 C :   -0.137985
   2 C :   -0.092021
   3 C :   -0.029617
   4 C :   -0.094844
   5 H :    0.031913
   6 C :    0.042896
   7 H :    0.057425
   8 H :    0.005649
   9 C :   -0.099721
  10 H :    0.012726
  11 H :    0.043940
  12 C :   -0.032593
  13 H :    0.047548
  14 H :    0.027006
  15 H :    0.030148
  16 S :    0.110412
  17 C :   -0.049269
  18 C :   -0.042793
  19 C :   -0.044839
  20 C :   -0.143220
  21 H :    0.033063
  22 C :    0.024320
  23 H :    0.028111
  24 H :    0.027713
  25 C :   -0.035441
  26 H :    0.006840
  27 H :    0.013948
  28 C :   -0.044019
  29 H :    0.062027
  30 H :    0.025616
  31 H :    0.024129
  32 H :    0.074829
  33 H :    0.026952
Sum of atomic charges:   -0.0000000

LOEWDIN ATOMIC CHARGES
----------------------
   0 S :    0.385057
   1 C :   -0.208573
   2 C :   -0.060356
   3 C :   -0.085933
   4 C :   -0.164877
   5 H :    0.035601
   6 C :   -0.036633
   7 H :    0.044112
   8 H :    0.021577
   9 C :   -0.051213
  10 H :    0.015982
  11 H :    0.036357
  12 C :   -0.065622
  13 H :    0.038540
  14 H :    0.023380
  15 H :    0.022362
  16 S :    0.400035
  17 C :   -0.172985
  18 C :   -0.065451
  19 C :   -0.053228
  20 C :   -0.190817
  21 H :    0.038697
  22 C :   -0.038772
  23 H :    0.021692
  24 H :    0.034892
  25 C :   -0.020454
  26 H :    0.012119
  27 H :    0.013030
  28 C :   -0.060511
  29 H :    0.028135
  30 H :    0.028477
  31 H :    0.018903
  32 H :    0.042300
  33 H :    0.014179

  Mayer bond orders larger than 0.100000
B(  0-S ,  1-C ) :   1.1085 B(  0-S ,  4-C ) :   1.1346 B(  1-C ,  2-C ) :   1.6048
B(  1-C , 32-H ) :   0.9631 B(  2-C ,  3-C ) :   1.2473 B(  2-C ,  6-C ) :   1.0144
B(  3-C ,  4-C ) :   1.5655 B(  3-C ,  5-H ) :   0.9817 B(  4-C , 20-C ) :   1.1007
B(  6-C ,  7-H ) :   0.9371 B(  6-C ,  8-H ) :   0.9484 B(  6-C ,  9-C ) :   1.0526
B(  9-C , 10-H ) :   0.9479 B(  9-C , 11-H ) :   0.9562 B(  9-C , 12-C ) :   1.0837
B( 12-C , 13-H ) :   0.9688 B( 12-C , 14-H ) :   0.9706 B( 12-C , 15-H ) :   0.9759
B( 16-S , 17-C ) :   1.1450 B( 16-S , 20-C ) :   1.1241 B( 17-C , 18-C ) :   1.6061
B( 17-C , 33-H ) :   0.9727 B( 18-C , 19-C ) :   1.2628 B( 18-C , 21-H ) :   0.9772
B( 19-C , 20-C ) :   1.5349 B( 19-C , 22-C ) :   1.0632 B( 22-C , 23-H ) :   0.9294
B( 22-C , 24-H ) :   0.9307 B( 22-C , 25-C ) :   1.0625 B( 25-C , 26-H ) :   0.9558
B( 25-C , 27-H ) :   0.9590 B( 25-C , 28-C ) :   1.0686 B( 28-C , 29-H ) :   0.9775
B( 28-C , 30-H ) :   0.9746 B( 28-C , 31-H ) :   0.9744

Dispersion correction           -0.014910222
FINAL SINGLE POINT ENERGY     -1339.859090445070

DIPOLE MOMENT
-------------
                                X             Y             Z
Electronic contribution:      2.86004      11.27509     -11.40279
Nuclear contribution   :     -2.93272     -11.25445      11.47934
                        -----------------------------------------
Total Dipole Moment    :     -0.07268       0.02064       0.07656
                        -----------------------------------------
Magnitude (a.u.)       :      0.10756
Magnitude (Debye)      :      0.27339

Rotational constants in cm-1:     0.023201     0.008038     0.006650
Rotational constants in MHz :   695.550849   240.984746   199.360685

                             ****ORCA TERMINATED NORMALLY****
TOTAL RUN TIME: 0 days 0 hours 0 minutes 23 seconds 176 msec
