                         Program Version 4.2.1 -  RELEASE  -
|  1> ! wB97X-D3 SP def2-SVP
|  2> %pal
|  3> nprocs 24
|  4> end
|  5>
|  6> * xyz 0 1
|  7> S 	 -119.278 	 24.8029 	 -13.3061
|  8> C 	 -119.943 	 24.1794 	 -14.7969
|  9> C 	 -119.567 	 24.9221 	 -15.8864
| 10> C 	 -118.633 	 25.9576 	 -15.5109
| 11> C 	 -118.592 	 26.183 	 -14.1196
| 12> H 	 -118.128 	 26.7629 	 -16.1089
| 13> C 	 -120.026 	 24.6679 	 -17.2946
| 14> H 	 -120.309 	 25.7341 	 -17.5074
| 15> H 	 -120.864 	 23.961 	 -17.1239
| 16> C 	 -119.059 	 24.2836 	 -18.3122
| 17> H 	 -118.218 	 24.9864 	 -18.2811
| 18> H 	 -118.805 	 23.2427 	 -18.1857
| 19> C 	 -119.475 	 24.3313 	 -19.8059
| 20> H 	 -119.007 	 23.6322 	 -20.3869
| 21> H 	 -120.474 	 24.0571 	 -19.8501
| 22> H 	 -119.271 	 25.3455 	 -20.2097
| 23> S 	 -116.356 	 26.7364 	 -12.6339
| 24> C 	 -116.04 	 28.3674 	 -12.138
| 25> C 	 -116.996 	 29.287 	 -12.6049
| 26> C 	 -118.013 	 28.5711 	 -13.3876
| 27> C 	 -117.818 	 27.1873 	 -13.4405
| 28> H 	 -116.887 	 30.4051 	 -12.5759
| 29> C 	 -119.028 	 29.3884 	 -14.1123
| 30> H 	 -119.847 	 28.6894 	 -14.4148
| 31> H 	 -118.643 	 29.8663 	 -15.0303
| 32> C 	 -119.541 	 30.6512 	 -13.3996
| 33> H 	 -120.279 	 31.0698 	 -14.0794
| 34> H 	 -118.754 	 31.3911 	 -13.1917
| 35> C 	 -120.268 	 30.4198 	 -12.0597
| 36> H 	 -120.82 	 29.4977 	 -12.1843
| 37> H 	 -120.91 	 31.2267 	 -11.717
| 38> H 	 -119.539 	 30.1923 	 -11.3256
| 39> H 	 -120.828 	 23.6285 	 -14.763
| 40> H 	 -115.03 	 28.7839 	 -11.9282
| 41> *
| 42>
| 43>                          ****END OF INPUT****

CARTESIAN COORDINATES (ANGSTROEM)
---------------------------------
  S    -119.278000   24.802900  -13.306100
  C    -119.943000   24.179400  -14.796900
  C    -119.567000   24.922100  -15.886400
  C    -118.633000   25.957600  -15.510900
  C    -118.592000   26.183000  -14.119600
  H    -118.128000   26.762900  -16.108900
  C    -120.026000   24.667900  -17.294600
  H    -120.309000   25.734100  -17.507400
  H    -120.864000   23.961000  -17.123900
  C    -119.059000   24.283600  -18.312200
  H    -118.218000   24.986400  -18.281100
  H    -118.805000   23.242700  -18.185700
  C    -119.475000   24.331300  -19.805900
  H    -119.007000   23.632200  -20.386900
  H    -120.474000   24.057100  -19.850100
  H    -119.271000   25.345500  -20.209700
  S    -116.356000   26.736400  -12.633900
  C    -116.040000   28.367400  -12.138000
  C    -116.996000   29.287000  -12.604900
  C    -118.013000   28.571100  -13.387600
  C    -117.818000   27.187300  -13.440500
  H    -116.887000   30.405100  -12.575900
  C    -119.028000   29.388400  -14.112300
  H    -119.847000   28.689400  -14.414800
  H    -118.643000   29.866300  -15.030300
  C    -119.541000   30.651200  -13.399600
  H    -120.279000   31.069800  -14.079400
  H    -118.754000   31.391100  -13.191700
  C    -120.268000   30.419800  -12.059700
  H    -120.820000   29.497700  -12.184300
  H    -120.910000   31.226700  -11.717000
  H    -119.539000   30.192300  -11.325600
  H    -120.828000   23.628500  -14.763000
  H    -115.030000   28.783900  -11.928200

 Total Charge           Charge          ....    0
 Multiplicity           Mult            ....    1
 Number of Electrons    NEL             ....  134
 Basis Dimension        Dim             ....  322

ORBITAL ENERGIES
----------------

  NO   OCC          E(Eh)            E(eV)
   0   2.0000     -88.968877     -2420.9662
   1   2.0000     -88.962354     -2420.7887
   2   2.0000     -10.331193      -281.1260
   3   2.0000     -10.325771      -280.9785
   4   2.0000     -10.321577      -280.8644
   5   2.0000     -10.307043      -280.4689
   6   2.0000     -10.306658      -280.4584
   7   2.0000     -10.305093      -280.4158
   8   2.0000     -10.304238      -280.3926
   9   2.0000     -10.302106      -280.3346
  10   2.0000     -10.294941      -280.1396
  11   2.0000     -10.293734      -280.1067
  12   2.0000     -10.286605      -279.9128
  13   2.0000     -10.282968      -279.8138
  14   2.0000     -10.269189      -279.4388
  15   2.0000     -10.265991      -279.3518
  16   2.0000      -8.084068      -219.9787
  17   2.0000      -8.077697      -219.8053
  18   2.0000      -6.042600      -164.4275
  19   2.0000      -6.038440      -164.3143
  20   2.0000      -6.036141      -164.2517
  21   2.0000      -6.034831      -164.2161
  22   2.0000      -6.032139      -164.1429
  23   2.0000      -6.028460      -164.0427
  24   2.0000      -1.008593       -27.4452
  25   2.0000      -0.985232       -26.8095
  26   2.0000      -0.923448       -25.1283
  27   2.0000      -0.911023       -24.7902
  28   2.0000      -0.874814       -23.8049
  29   2.0000      -0.850936       -23.1552
  30   2.0000      -0.844944       -22.9921
  31   2.0000      -0.814792       -22.1716
  32   2.0000      -0.788514       -21.4566
  33   2.0000      -0.775624       -21.1058
  34   2.0000      -0.710676       -19.3385
  35   2.0000      -0.697090       -18.9688
  36   2.0000      -0.691373       -18.8132
  37   2.0000      -0.655089       -17.8259
  38   2.0000      -0.643709       -17.5162
  39   2.0000      -0.616146       -16.7662
  40   2.0000      -0.595944       -16.2165
  41   2.0000      -0.580196       -15.7879
  42   2.0000      -0.566623       -15.4186
  43   2.0000      -0.551223       -14.9995
  44   2.0000      -0.539510       -14.6808
  45   2.0000      -0.527827       -14.3629
  46   2.0000      -0.524585       -14.2747
  47   2.0000      -0.515852       -14.0370
  48   2.0000      -0.506900       -13.7934
  49   2.0000      -0.501236       -13.6393
  50   2.0000      -0.498282       -13.5590
  51   2.0000      -0.482298       -13.1240
  52   2.0000      -0.473143       -12.8749
  53   2.0000      -0.458123       -12.4662
  54   2.0000      -0.454411       -12.3651
  55   2.0000      -0.452747       -12.3199
  56   2.0000      -0.448898       -12.2151
  57   2.0000      -0.433511       -11.7964
  58   2.0000      -0.429976       -11.7002
  59   2.0000      -0.425928       -11.5901
  60   2.0000      -0.420488       -11.4420
  61   2.0000      -0.416682       -11.3385
  62   2.0000      -0.400476       -10.8975
  63   2.0000      -0.342457        -9.3187
  64   2.0000      -0.328284        -8.9331
  65   2.0000      -0.324699        -8.8355
  66   2.0000      -0.298411        -8.1202
  67   0.0000       0.035474         0.9653
  68   0.0000       0.050445         1.3727
  69   0.0000       0.106614         2.9011
  70   0.0000       0.121410         3.3037
  71   0.0000       0.123316         3.3556

MULLIKEN ATOMIC CHARGES
-----------------------
   0 S :    0.098234
   1 C :   -0.095468
   2 C :   -0.105071
   3 C :    0.012260
   4 C :   -0.196253
   5 H :    0.037371
   6 C :    0.089759
   7 H :    0.029854
   8 H :    0.020530
   9 C :   -0.077046
  10 H :    0.030865
  11 H :    0.024975
  12 C :    0.004644
  13 H :    0.012315
  14 H :    0.007911
  15 H :    0.035758
  16 S :    0.130019
  17 C :   -0.092901
  18 C :   -0.069501
  19 C :   -0.038975
  20 C :   -0.161368
  21 H :    0.048876
  22 C :    0.045180
  23 H :    0.039305
  24 H :    0.044984
  25 C :   -0.115908
  26 H :    0.030136
  27 H :    0.030701
  28 C :   -0.025434
  29 H :    0.022017
  30 H :    0.040949
  31 H :    0.021329
  32 H :    0.043861
  33 H :    0.076093
Sum of atomic charges:   -0.0000000

LOEWDIN ATOMIC CHARGES
----------------------
   0 S :    0.403727
   1 C :   -0.200887
   2 C :   -0.054808
   3 C :   -0.068856
   4 C :   -0.196990
   5 H :    0.039517
   6 C :   -0.037404
   7 H :    0.041442
   8 H :    0.033843
   9 C :   -0.042158
  10 H :    0.028426
  11 H :    0.025190
  12 C :   -0.049634
  13 H :    0.015869
  14 H :    0.016113
  15 H :    0.029345
  16 S :    0.430122
  17 C :   -0.205136
  18 C :   -0.074394
  19 C :   -0.055198
  20 C :   -0.220721
  21 H :    0.041878
  22 C :   -0.041747
  23 H :    0.035688
  24 H :    0.040246
  25 C :   -0.042807
  26 H :    0.025853
  27 H :    0.020196
  28 C :   -0.065434
  29 H :    0.025250
  30 H :    0.026574
  31 H :    0.019395
  32 H :    0.017154
  33 H :    0.040344

  Mayer bond orders larger than 0.100000
B(  0-S ,  1-C ) :   1.1287 B(  0-S ,  4-C ) :   1.1629 B(  1-C ,  2-C ) :   1.6388
B(  1-C , 32-H ) :   0.9595 B(  2-C ,  3-C ) :   1.2093 B(  2-C ,  6-C ) :   1.0116
B(  3-C ,  4-C ) :   1.5849 B(  3-C ,  5-H ) :   0.9790 B(  4-C , 20-C ) :   1.0355
B(  6-C ,  7-H ) :   0.9278 B(  6-C ,  8-H ) :   0.9299 B(  6-C ,  9-C ) :   1.0976
B(  9-C , 10-H ) :   0.9553 B(  9-C , 11-H ) :   0.9514 B(  9-C , 12-C ) :   1.0821
B( 12-C , 13-H ) :   0.9740 B( 12-C , 14-H ) :   0.9720 B( 12-C , 15-H ) :   0.9782
B( 16-S , 17-C ) :   1.1673 B( 16-S , 20-C ) :   1.1457 B( 17-C , 18-C ) :   1.6086
B( 17-C , 33-H ) :   0.9528 B( 18-C , 19-C ) :   1.2437 B( 18-C , 21-H ) :   0.9740
B( 19-C , 20-C ) :   1.5934 B( 19-C , 22-C ) :   1.0575 B( 22-C , 23-H ) :   0.9273
B( 22-C , 24-H ) :   0.9315 B( 22-C , 25-C ) :   1.0793 B( 25-C , 26-H ) :   0.9542
B( 25-C , 27-H ) :   0.9506 B( 25-C , 28-C ) :   1.0763 B( 28-C , 29-H ) :   0.9739
B( 28-C , 30-H ) :   0.9769 B( 28-C , 31-H ) :   0.9709

Dispersion correction           -0.013804148
FINAL SINGLE POINT ENERGY     -1339.845091636461

DIPOLE MOMENT
-------------
                                X             Y             Z
Electronic contribution:     11.47132     -10.24472      18.38823
Nuclear contribution   :    -11.60395      10.68654     -19.10784
                        -----------------------------------------
Total Dipole Moment    :     -0.13262       0.44182      -0.71960
                        -----------------------------------------
Magnitude (a.u.)       :      0.85477
Magnitude (Debye)      :      2.17265

Rotational constants in cm-1:     0.020070     0.007290     0.006584
Rotational constants in MHz :   601.691501   218.543348   197.375032

                             ****ORCA TERMINATED NORMALLY****
TOTAL RUN TIME: 0 days 0 hours 0 minutes 21 seconds 202 msec
