                         Program Version 4.2.1 -  RELEASE  -
|  1> ! wB97X-D3 SP def2-SVP
|  2> %pal
|  3> nprocs 24
|  4> end
|  5>
|  6> * xyz 0 1
|  7> S 	 -87.4148 	 -1.23093 	 5.47068
|  8> C 	 -86.069 	 -0.327772 	 4.80044
|  9> C 	 -84.9156 	 -1.03536 	 4.85321
| 10> C 	 -85.0489 	 -2.27496 	 5.57554
| 11> C 	 -86.3284 	 -2.51852 	 6.01753
| 12> H 	 -84.1735 	 -3.00496 	 5.70792
| 13> C 	 -83.6743 	 -0.634425 	 3.99476
| 14> H 	 -82.9442 	 -1.40707 	 4.29118
| 15> H 	 -83.4041 	 0.358129 	 4.246
| 16> C 	 -83.767 	 -0.770976 	 2.46384
| 17> H 	 -82.7348 	 -0.732735 	 2.09268
| 18> H 	 -84.2356 	 -1.74966 	 2.12276
| 19> C 	 -84.407 	 0.438134 	 1.75596
| 20> H 	 -83.9898 	 1.31109 	 2.17486
| 21> H 	 -84.4778 	 0.425493 	 0.688812
| 22> H 	 -85.459 	 0.449692 	 2.07043
| 23> S 	 -88.017 	 -4.69686 	 5.7293
| 24> C 	 -88.0359 	 -5.98688 	 6.87217
| 25> C 	 -87.0141 	 -5.736 	 7.79224
| 26> C 	 -86.3979 	 -4.45319 	 7.67911
| 27> C 	 -86.7586 	 -3.78168 	 6.58696
| 28> H 	 -86.7935 	 -6.49721 	 8.55162
| 29> C 	 -85.4527 	 -3.94389 	 8.73628
| 30> H 	 -85.8437 	 -4.33677 	 9.72405
| 31> H 	 -85.5446 	 -2.88819 	 8.73992
| 32> C 	 -83.9646 	 -4.42371 	 8.47906
| 33> H 	 -83.803 	 -4.36141 	 7.43134
| 34> H 	 -83.8988 	 -5.50634 	 8.73231
| 35> C 	 -82.8841 	 -3.6653 	 9.27239
| 36> H 	 -83.008 	 -3.88378 	 10.3433
| 37> H 	 -82.9932 	 -2.62389 	 8.93743
| 38> H 	 -81.8819 	 -4.1104 	 8.91922
| 39> H 	 -86.2243 	 0.533104 	 4.12979
| 40> H 	 -88.5835 	 -6.92233 	 6.77194
| 41> *
| 42>
| 43>                          ****END OF INPUT****

CARTESIAN COORDINATES (ANGSTROEM)
---------------------------------
  S    -87.414800   -1.230930    5.470680
  C    -86.069000   -0.327772    4.800440
  C    -84.915600   -1.035360    4.853210
  C    -85.048900   -2.274960    5.575540
  C    -86.328400   -2.518520    6.017530
  H    -84.173500   -3.004960    5.707920
  C    -83.674300   -0.634425    3.994760
  H    -82.944200   -1.407070    4.291180
  H    -83.404100    0.358129    4.246000
  C    -83.767000   -0.770976    2.463840
  H    -82.734800   -0.732735    2.092680
  H    -84.235600   -1.749660    2.122760
  C    -84.407000    0.438134    1.755960
  H    -83.989800    1.311090    2.174860
  H    -84.477800    0.425493    0.688812
  H    -85.459000    0.449692    2.070430
  S    -88.017000   -4.696860    5.729300
  C    -88.035900   -5.986880    6.872170
  C    -87.014100   -5.736000    7.792240
  C    -86.397900   -4.453190    7.679110
  C    -86.758600   -3.781680    6.586960
  H    -86.793500   -6.497210    8.551620
  C    -85.452700   -3.943890    8.736280
  H    -85.843700   -4.336770    9.724050
  H    -85.544600   -2.888190    8.739920
  C    -83.964600   -4.423710    8.479060
  H    -83.803000   -4.361410    7.431340
  H    -83.898800   -5.506340    8.732310
  C    -82.884100   -3.665300    9.272390
  H    -83.008000   -3.883780   10.343300
  H    -82.993200   -2.623890    8.937430
  H    -81.881900   -4.110400    8.919220
  H    -86.224300    0.533104    4.129790
  H    -88.583500   -6.922330    6.771940

 Total Charge           Charge          ....    0
 Multiplicity           Mult            ....    1
 Number of Electrons    NEL             ....  134
 Basis Dimension        Dim             ....  322

ORBITAL ENERGIES
----------------

  NO   OCC          E(Eh)            E(eV)
   0   2.0000     -88.967728     -2420.9350
   1   2.0000     -88.959624     -2420.7144
   2   2.0000     -10.333265      -281.1824
   3   2.0000     -10.321886      -280.8728
   4   2.0000     -10.318523      -280.7813
   5   2.0000     -10.313966      -280.6573
   6   2.0000     -10.305072      -280.4153
   7   2.0000     -10.301321      -280.3132
   8   2.0000     -10.297321      -280.2044
   9   2.0000     -10.295379      -280.1515
  10   2.0000     -10.294218      -280.1199
  11   2.0000     -10.293483      -280.0999
  12   2.0000     -10.291740      -280.0525
  13   2.0000     -10.287790      -279.9450
  14   2.0000     -10.287685      -279.9421
  15   2.0000     -10.274859      -279.5931
  16   2.0000      -8.082111      -219.9254
  17   2.0000      -8.074740      -219.7248
  18   2.0000      -6.040741      -164.3769
  19   2.0000      -6.036697      -164.2669
  20   2.0000      -6.033303      -164.1745
  21   2.0000      -6.032713      -164.1585
  22   2.0000      -6.029057      -164.0590
  23   2.0000      -6.025542      -163.9633
  24   2.0000      -1.009739       -27.4764
  25   2.0000      -0.987079       -26.8598
  26   2.0000      -0.910688       -24.7811
  27   2.0000      -0.904704       -24.6183
  28   2.0000      -0.871668       -23.7193
  29   2.0000      -0.851132       -23.1605
  30   2.0000      -0.845368       -23.0036
  31   2.0000      -0.812599       -22.1119
  32   2.0000      -0.783800       -21.3283
  33   2.0000      -0.773625       -21.0514
  34   2.0000      -0.705060       -19.1857
  35   2.0000      -0.695766       -18.9328
  36   2.0000      -0.694120       -18.8880
  37   2.0000      -0.664154       -18.0726
  38   2.0000      -0.637545       -17.3485
  39   2.0000      -0.617607       -16.8059
  40   2.0000      -0.591304       -16.0902
  41   2.0000      -0.570555       -15.5256
  42   2.0000      -0.565857       -15.3977
  43   2.0000      -0.550488       -14.9796
  44   2.0000      -0.540321       -14.7029
  45   2.0000      -0.525954       -14.3119
  46   2.0000      -0.524186       -14.2638
  47   2.0000      -0.513099       -13.9621
  48   2.0000      -0.508886       -13.8475
  49   2.0000      -0.496970       -13.5232
  50   2.0000      -0.488629       -13.2963
  51   2.0000      -0.481971       -13.1151
  52   2.0000      -0.472812       -12.8659
  53   2.0000      -0.468889       -12.7591
  54   2.0000      -0.459790       -12.5115
  55   2.0000      -0.443361       -12.0645
  56   2.0000      -0.441732       -12.0201
  57   2.0000      -0.437286       -11.8992
  58   2.0000      -0.435711       -11.8563
  59   2.0000      -0.428193       -11.6517
  60   2.0000      -0.422693       -11.5021
  61   2.0000      -0.412279       -11.2187
  62   2.0000      -0.401816       -10.9340
  63   2.0000      -0.348500        -9.4832
  64   2.0000      -0.333107        -9.0643
  65   2.0000      -0.324934        -8.8419
  66   2.0000      -0.300718        -8.1830
  67   0.0000       0.030947         0.8421
  68   0.0000       0.067779         1.8444
  69   0.0000       0.113848         3.0980
  70   0.0000       0.123163         3.3514
  71   0.0000       0.130415         3.5488

MULLIKEN ATOMIC CHARGES
-----------------------
   0 S :    0.109880
   1 C :   -0.132018
   2 C :   -0.096440
   3 C :   -0.001705
   4 C :   -0.150961
   5 H :    0.048769
   6 C :    0.078099
   7 H :    0.025198
   8 H :    0.026668
   9 C :   -0.090128
  10 H :    0.034367
  11 H :    0.046434
  12 C :   -0.031639
  13 H :    0.015612
  14 H :    0.038858
  15 H :    0.013879
  16 S :    0.093133
  17 C :   -0.094309
  18 C :   -0.052717
  19 C :   -0.047465
  20 C :   -0.157884
  21 H :    0.022519
  22 C :    0.081023
  23 H :    0.031427
  24 H :    0.020543
  25 C :   -0.091635
  26 H :    0.014717
  27 H :    0.027059
  28 C :   -0.052950
  29 H :    0.047636
  30 H :    0.047030
  31 H :    0.045043
  32 H :    0.063291
  33 H :    0.068667
Sum of atomic charges:    0.0000000

LOEWDIN ATOMIC CHARGES
----------------------
   0 S :    0.396249
   1 C :   -0.195583
   2 C :   -0.071311
   3 C :   -0.066258
   4 C :   -0.190665
   5 H :    0.044116
   6 C :   -0.022320
   7 H :    0.034338
   8 H :    0.025765
   9 C :   -0.041926
  10 H :    0.026000
  11 H :    0.032814
  12 C :   -0.065557
  13 H :    0.017269
  14 H :    0.025952
  15 H :    0.021979
  16 S :    0.397159
  17 C :   -0.192904
  18 C :   -0.075574
  19 C :   -0.064096
  20 C :   -0.189777
  21 H :    0.030858
  22 C :   -0.025011
  23 H :    0.035870
  24 H :    0.023399
  25 C :   -0.040000
  26 H :    0.011269
  27 H :    0.024694
  28 C :   -0.068947
  29 H :    0.028762
  30 H :    0.028991
  31 H :    0.036297
  32 H :    0.032091
  33 H :    0.036057

  Mayer bond orders larger than 0.100000
B(  0-S ,  1-C ) :   1.1293 B(  0-S ,  4-C ) :   1.1410 B(  1-C ,  2-C ) :   1.6365
B(  1-C , 32-H ) :   0.9589 B(  2-C ,  3-C ) :   1.2544 B(  2-C ,  6-C ) :   1.0101
B(  3-C ,  4-C ) :   1.5828 B(  3-C ,  5-H ) :   0.9702 B(  4-C , 20-C ) :   1.0378
B(  6-C ,  7-H ) :   0.9410 B(  6-C ,  8-H ) :   0.9406 B(  6-C ,  9-C ) :   1.0702
B(  9-C , 10-H ) :   0.9562 B(  9-C , 11-H ) :   0.9559 B(  9-C , 12-C ) :   1.0742
B( 12-C , 13-H ) :   0.9743 B( 12-C , 14-H ) :   0.9718 B( 12-C , 15-H ) :   0.9709
B( 16-S , 17-C ) :   1.1603 B( 16-S , 20-C ) :   1.1218 B( 17-C , 18-C ) :   1.6032
B( 17-C , 33-H ) :   0.9677 B( 18-C , 19-C ) :   1.2312 B( 18-C , 21-H ) :   0.9864
B( 19-C , 20-C ) :   1.6406 B( 19-C , 22-C ) :   1.0483 B( 22-C , 23-H ) :   0.9358
B( 22-C , 24-H ) :   0.9318 B( 22-C , 25-C ) :   1.0473 B( 25-C , 26-H ) :   0.9604
B( 25-C , 27-H ) :   0.9520 B( 25-C , 28-C ) :   1.0805 B( 28-C , 29-H ) :   0.9746
B( 28-C , 30-H ) :   0.9755 B( 28-C , 31-H ) :   0.9730

Dispersion correction           -0.014488858
FINAL SINGLE POINT ENERGY     -1339.876491791493

DIPOLE MOMENT
-------------
                                X             Y             Z
Electronic contribution:    -23.76342      -5.52149       0.90170
Nuclear contribution   :     24.37912       5.39302      -0.98632
                        -----------------------------------------
Total Dipole Moment    :      0.61571      -0.12847      -0.08462
                        -----------------------------------------
Magnitude (a.u.)       :      0.63463
Magnitude (Debye)      :      1.61311

Rotational constants in cm-1:     0.019057     0.008471     0.006685
Rotational constants in MHz :   571.312868   253.951380   200.425561

                             ****ORCA TERMINATED NORMALLY****
TOTAL RUN TIME: 0 days 0 hours 0 minutes 20 seconds 341 msec
