                         Program Version 4.2.1 -  RELEASE  -
|  1> ! wB97X-D3 SP def2-SVP
|  2> %pal
|  3> nprocs 24
|  4> end
|  5>
|  6> * xyz 0 1
|  7> S 	 -120.909 	 63.2717 	 -34.8679
|  8> C 	 -120.461 	 64.8608 	 -34.2814
|  9> C 	 -119.282 	 65.2695 	 -34.9196
| 10> C 	 -118.741 	 64.2763 	 -35.7945
| 11> C 	 -119.499 	 63.1259 	 -35.8788
| 12> H 	 -117.905 	 64.3183 	 -36.3883
| 13> C 	 -118.626 	 66.6548 	 -34.7633
| 14> H 	 -117.615 	 66.5637 	 -34.7162
| 15> H 	 -119.059 	 67.0742 	 -33.8366
| 16> C 	 -118.788 	 67.5868 	 -35.9238
| 17> H 	 -118.233 	 68.4512 	 -35.669
| 18> H 	 -118.457 	 67.0804 	 -36.8181
| 19> C 	 -120.247 	 67.9943 	 -36.1774
| 20> H 	 -120.76 	 67.0707 	 -36.4145
| 21> H 	 -120.713 	 68.4306 	 -35.2341
| 22> H 	 -120.431 	 68.6201 	 -36.9671
| 23> S 	 -120.249 	 61.543 	 -37.9957
| 24> C 	 -119.214 	 60.3118 	 -38.5642
| 25> C 	 -118.148 	 60.1934 	 -37.7207
| 26> C 	 -118.035 	 61.1706 	 -36.627
| 27> C 	 -119.195 	 61.9839 	 -36.6534
| 28> H 	 -117.427 	 59.4747 	 -37.9143
| 29> C 	 -116.978 	 61.2231 	 -35.5772
| 30> H 	 -117.153 	 60.3238 	 -34.9811
| 31> H 	 -117.156 	 62.1621 	 -34.993
| 32> C 	 -115.517 	 61.3034 	 -36.055
| 33> H 	 -115.513 	 62.1709 	 -36.7048
| 34> H 	 -115.167 	 60.4397 	 -36.6495
| 35> C 	 -114.586 	 61.4639 	 -34.8577
| 36> H 	 -114.788 	 60.5987 	 -34.1873
| 37> H 	 -114.744 	 62.4318 	 -34.3185
| 38> H 	 -113.497 	 61.416 	 -35.1277
| 39> H 	 -121.017 	 65.4214 	 -33.4825
| 40> H 	 -119.417 	 59.5796 	 -39.3065
| 41> *
| 42>
| 43>                          ****END OF INPUT****

CARTESIAN COORDINATES (ANGSTROEM)
---------------------------------
  S    -120.909000   63.271700  -34.867900
  C    -120.461000   64.860800  -34.281400
  C    -119.282000   65.269500  -34.919600
  C    -118.741000   64.276300  -35.794500
  C    -119.499000   63.125900  -35.878800
  H    -117.905000   64.318300  -36.388300
  C    -118.626000   66.654800  -34.763300
  H    -117.615000   66.563700  -34.716200
  H    -119.059000   67.074200  -33.836600
  C    -118.788000   67.586800  -35.923800
  H    -118.233000   68.451200  -35.669000
  H    -118.457000   67.080400  -36.818100
  C    -120.247000   67.994300  -36.177400
  H    -120.760000   67.070700  -36.414500
  H    -120.713000   68.430600  -35.234100
  H    -120.431000   68.620100  -36.967100
  S    -120.249000   61.543000  -37.995700
  C    -119.214000   60.311800  -38.564200
  C    -118.148000   60.193400  -37.720700
  C    -118.035000   61.170600  -36.627000
  C    -119.195000   61.983900  -36.653400
  H    -117.427000   59.474700  -37.914300
  C    -116.978000   61.223100  -35.577200
  H    -117.153000   60.323800  -34.981100
  H    -117.156000   62.162100  -34.993000
  C    -115.517000   61.303400  -36.055000
  H    -115.513000   62.170900  -36.704800
  H    -115.167000   60.439700  -36.649500
  C    -114.586000   61.463900  -34.857700
  H    -114.788000   60.598700  -34.187300
  H    -114.744000   62.431800  -34.318500
  H    -113.497000   61.416000  -35.127700
  H    -121.017000   65.421400  -33.482500
  H    -119.417000   59.579600  -39.306500

 Total Charge           Charge          ....    0
 Multiplicity           Mult            ....    1
 Number of Electrons    NEL             ....  134
 Basis Dimension        Dim             ....  322

ORBITAL ENERGIES
----------------

  NO   OCC          E(Eh)            E(eV)
   0   2.0000     -88.965838     -2420.8835
   1   2.0000     -88.963151     -2420.8104
   2   2.0000     -10.324935      -280.9558
   3   2.0000     -10.324527      -280.9447
   4   2.0000     -10.321851      -280.8718
   5   2.0000     -10.311661      -280.5946
   6   2.0000     -10.309045      -280.5234
   7   2.0000     -10.304983      -280.4128
   8   2.0000     -10.294244      -280.1206
   9   2.0000     -10.289046      -279.9792
  10   2.0000     -10.289025      -279.9786
  11   2.0000     -10.288738      -279.9708
  12   2.0000     -10.287010      -279.9238
  13   2.0000     -10.283969      -279.8410
  14   2.0000     -10.278538      -279.6932
  15   2.0000     -10.267231      -279.3856
  16   2.0000      -8.080645      -219.8855
  17   2.0000      -8.078564      -219.8289
  18   2.0000      -6.039114      -164.3326
  19   2.0000      -6.037119      -164.2784
  20   2.0000      -6.034946      -164.2192
  21   2.0000      -6.032850      -164.1622
  22   2.0000      -6.031626      -164.1289
  23   2.0000      -6.029347      -164.0669
  24   2.0000      -1.008598       -27.4454
  25   2.0000      -0.984125       -26.7794
  26   2.0000      -0.918921       -25.0051
  27   2.0000      -0.913672       -24.8623
  28   2.0000      -0.875705       -23.8291
  29   2.0000      -0.850372       -23.1398
  30   2.0000      -0.844556       -22.9815
  31   2.0000      -0.814716       -22.1695
  32   2.0000      -0.786608       -21.4047
  33   2.0000      -0.771262       -20.9871
  34   2.0000      -0.710042       -19.3212
  35   2.0000      -0.698408       -19.0047
  36   2.0000      -0.692223       -18.8363
  37   2.0000      -0.656975       -17.8772
  38   2.0000      -0.645383       -17.5618
  39   2.0000      -0.621639       -16.9157
  40   2.0000      -0.597348       -16.2547
  41   2.0000      -0.575792       -15.6681
  42   2.0000      -0.572923       -15.5900
  43   2.0000      -0.560537       -15.2530
  44   2.0000      -0.546812       -14.8795
  45   2.0000      -0.524813       -14.2809
  46   2.0000      -0.522234       -14.2107
  47   2.0000      -0.516086       -14.0434
  48   2.0000      -0.510882       -13.9018
  49   2.0000      -0.499405       -13.5895
  50   2.0000      -0.488035       -13.2801
  51   2.0000      -0.480011       -13.0618
  52   2.0000      -0.466513       -12.6945
  53   2.0000      -0.462303       -12.5799
  54   2.0000      -0.457378       -12.4459
  55   2.0000      -0.450414       -12.2564
  56   2.0000      -0.441439       -12.0122
  57   2.0000      -0.438931       -11.9439
  58   2.0000      -0.428457       -11.6589
  59   2.0000      -0.427362       -11.6291
  60   2.0000      -0.424391       -11.5483
  61   2.0000      -0.419628       -11.4187
  62   2.0000      -0.412608       -11.2276
  63   2.0000      -0.342974        -9.3328
  64   2.0000      -0.331006        -9.0071
  65   2.0000      -0.325454        -8.8560
  66   2.0000      -0.297376        -8.0920
  67   0.0000       0.034415         0.9365
  68   0.0000       0.065821         1.7911
  69   0.0000       0.116644         3.1740
  70   0.0000       0.124014         3.3746
  71   0.0000       0.130554         3.5526

MULLIKEN ATOMIC CHARGES
-----------------------
   0 S :    0.115869
   1 C :   -0.142368
   2 C :   -0.111465
   3 C :    0.068819
   4 C :   -0.180460
   5 H :   -0.023983
   6 C :    0.129494
   7 H :   -0.001432
   8 H :    0.016058
   9 C :   -0.055822
  10 H :    0.025520
  11 H :    0.027074
  12 C :   -0.046686
  13 H :    0.033784
  14 H :    0.025707
  15 H :    0.017641
  16 S :    0.112975
  17 C :   -0.063852
  18 C :   -0.020369
  19 C :   -0.027217
  20 C :   -0.171530
  21 H :   -0.013710
  22 C :    0.050733
  23 H :    0.043426
  24 H :    0.038581
  25 C :   -0.087563
  26 H :    0.025767
  27 H :    0.036912
  28 C :   -0.066085
  29 H :    0.034812
  30 H :    0.041834
  31 H :    0.043303
  32 H :    0.073356
  33 H :    0.050878
Sum of atomic charges:   -0.0000000

LOEWDIN ATOMIC CHARGES
----------------------
   0 S :    0.413611
   1 C :   -0.208168
   2 C :   -0.060706
   3 C :   -0.053980
   4 C :   -0.201468
   5 H :    0.016803
   6 C :   -0.019970
   7 H :    0.017921
   8 H :    0.030242
   9 C :   -0.030893
  10 H :    0.020059
  11 H :    0.024507
  12 C :   -0.062519
  13 H :    0.026714
  14 H :    0.027866
  15 H :    0.010565
  16 S :    0.417835
  17 C :   -0.194855
  18 C :   -0.067265
  19 C :   -0.045555
  20 C :   -0.206042
  21 H :    0.014558
  22 C :   -0.036398
  23 H :    0.036640
  24 H :    0.040035
  25 C :   -0.044325
  26 H :    0.021509
  27 H :    0.025276
  28 C :   -0.072627
  29 H :    0.028889
  30 H :    0.028959
  31 H :    0.030222
  32 H :    0.042335
  33 H :    0.030225

  Mayer bond orders larger than 0.100000
B(  0-S ,  1-C ) :   1.1452 B(  0-S ,  4-C ) :   1.1579 B(  1-C ,  2-C ) :   1.5859
B(  1-C , 32-H ) :   0.9647 B(  2-C ,  3-C ) :   1.2351 B(  2-C ,  6-C ) :   1.0252
B(  3-C ,  4-C ) :   1.5585 B(  3-C ,  5-H ) :   1.0113 B(  4-C , 20-C ) :   1.0515
B(  6-C ,  7-H ) :   0.9302 B(  6-C ,  8-H ) :   0.9387 B(  6-C ,  9-C ) :   1.0831
B(  9-C , 10-H ) :   0.9550 B(  9-C , 11-H ) :   0.9531 B(  9-C , 12-C ) :   1.0776
B( 12-C , 13-H ) :   0.9740 B( 12-C , 14-H ) :   0.9750 B( 12-C , 15-H ) :   0.9755
B( 16-S , 17-C ) :   1.1512 B( 16-S , 20-C ) :   1.1477 B( 17-C , 18-C ) :   1.6193
B( 17-C , 33-H ) :   0.9690 B( 18-C , 19-C ) :   1.2231 B( 18-C , 21-H ) :   0.9970
B( 19-C , 20-C ) :   1.5652 B( 19-C , 22-C ) :   1.0560 B( 22-C , 23-H ) :   0.9256
B( 22-C , 24-H ) :   0.9311 B( 22-C , 25-C ) :   1.0549 B( 25-C , 26-H ) :   0.9570
B( 25-C , 27-H ) :   0.9534 B( 25-C , 28-C ) :   1.0875 B( 28-C , 29-H ) :   0.9712
B( 28-C , 30-H ) :   0.9732 B( 28-C , 31-H ) :   0.9745

Dispersion correction           -0.014357937
FINAL SINGLE POINT ENERGY     -1339.878874017417

DIPOLE MOMENT
-------------
                                X             Y             Z
Electronic contribution:    -19.23148     -13.45271      -5.39060
Nuclear contribution   :     19.86143      13.55827       5.45436
                        -----------------------------------------
Total Dipole Moment    :      0.62996       0.10556       0.06376
                        -----------------------------------------
Magnitude (a.u.)       :      0.64192
Magnitude (Debye)      :      1.63162

Rotational constants in cm-1:     0.017465     0.008787     0.006996
Rotational constants in MHz :   523.577095   263.422580   209.749676

                             ****ORCA TERMINATED NORMALLY****
TOTAL RUN TIME: 0 days 0 hours 0 minutes 20 seconds 476 msec
