                         Program Version 4.2.1 -  RELEASE  -
|  1> ! wB97X-D3 SP def2-SVP
|  2> %pal
|  3> nprocs 24
|  4> end
|  5>
|  6> * xyz 0 1
|  7> S 	 -114.314 	 29.3765 	 -12.612
|  8> C 	 -114.478 	 27.9477 	 -13.5288
|  9> C 	 -115.628 	 28.0015 	 -14.2695
| 10> C 	 -116.4 	 29.1828 	 -14.1068
| 11> C 	 -115.86 	 29.9802 	 -13.152
| 12> H 	 -117.266 	 29.4019 	 -14.6026
| 13> C 	 -116.111 	 26.9502 	 -15.2965
| 14> H 	 -116.862 	 27.388 	 -15.8908
| 15> H 	 -116.53 	 26.1097 	 -14.7272
| 16> C 	 -114.997 	 26.2943 	 -16.1701
| 17> H 	 -114.342 	 27.0035 	 -16.7606
| 18> H 	 -114.289 	 25.8531 	 -15.4514
| 19> C 	 -115.571 	 25.1751 	 -16.9891
| 20> H 	 -116.015 	 25.4802 	 -17.9423
| 21> H 	 -114.73 	 24.4838 	 -17.3869
| 22> H 	 -116.359 	 24.6795 	 -16.4364
| 23> S 	 -115.915 	 31.7232 	 -11.1248
| 24> C 	 -116.642 	 33.2948 	 -11.3062
| 25> C 	 -117.187 	 33.4894 	 -12.4977
| 26> C 	 -116.816 	 32.4014 	 -13.3982
| 27> C 	 -116.31 	 31.2982 	 -12.7581
| 28> H 	 -117.726 	 34.417 	 -12.7036
| 29> C 	 -117.013 	 32.4279 	 -14.9243
| 30> H 	 -117.534 	 33.3249 	 -15.326
| 31> H 	 -117.649 	 31.594 	 -15.1458
| 32> C 	 -115.711 	 32.2376 	 -15.7751
| 33> H 	 -115.042 	 31.4398 	 -15.4619
| 34> H 	 -115.247 	 33.2438 	 -15.6398
| 35> C 	 -115.999 	 32.225 	 -17.3059
| 36> H 	 -116.804 	 32.9232 	 -17.4444
| 37> H 	 -116.403 	 31.2703 	 -17.7338
| 38> H 	 -115.143 	 32.5691 	 -17.7825
| 39> H 	 -113.736 	 27.1992 	 -13.5065
| 40> H 	 -116.614 	 34.0443 	 -10.4955
| 41> *
| 42>
| 43>                          ****END OF INPUT****

CARTESIAN COORDINATES (ANGSTROEM)
---------------------------------
  S    -114.314000   29.376500  -12.612000
  C    -114.478000   27.947700  -13.528800
  C    -115.628000   28.001500  -14.269500
  C    -116.400000   29.182800  -14.106800
  C    -115.860000   29.980200  -13.152000
  H    -117.266000   29.401900  -14.602600
  C    -116.111000   26.950200  -15.296500
  H    -116.862000   27.388000  -15.890800
  H    -116.530000   26.109700  -14.727200
  C    -114.997000   26.294300  -16.170100
  H    -114.342000   27.003500  -16.760600
  H    -114.289000   25.853100  -15.451400
  C    -115.571000   25.175100  -16.989100
  H    -116.015000   25.480200  -17.942300
  H    -114.730000   24.483800  -17.386900
  H    -116.359000   24.679500  -16.436400
  S    -115.915000   31.723200  -11.124800
  C    -116.642000   33.294800  -11.306200
  C    -117.187000   33.489400  -12.497700
  C    -116.816000   32.401400  -13.398200
  C    -116.310000   31.298200  -12.758100
  H    -117.726000   34.417000  -12.703600
  C    -117.013000   32.427900  -14.924300
  H    -117.534000   33.324900  -15.326000
  H    -117.649000   31.594000  -15.145800
  C    -115.711000   32.237600  -15.775100
  H    -115.042000   31.439800  -15.461900
  H    -115.247000   33.243800  -15.639800
  C    -115.999000   32.225000  -17.305900
  H    -116.804000   32.923200  -17.444400
  H    -116.403000   31.270300  -17.733800
  H    -115.143000   32.569100  -17.782500
  H    -113.736000   27.199200  -13.506500
  H    -116.614000   34.044300  -10.495500

 Total Charge           Charge          ....    0
 Multiplicity           Mult            ....    1
 Number of Electrons    NEL             ....  134
 Basis Dimension        Dim             ....  322

ORBITAL ENERGIES
----------------

  NO   OCC          E(Eh)            E(eV)
   0   2.0000     -88.964897     -2420.8579
   1   2.0000     -88.957179     -2420.6479
   2   2.0000     -10.325867      -280.9811
   3   2.0000     -10.320162      -280.8259
   4   2.0000     -10.312413      -280.6150
   5   2.0000     -10.307877      -280.4916
   6   2.0000     -10.306566      -280.4559
   7   2.0000     -10.299012      -280.2504
   8   2.0000     -10.293315      -280.0953
   9   2.0000     -10.293224      -280.0929
  10   2.0000     -10.291620      -280.0492
  11   2.0000     -10.291554      -280.0474
  12   2.0000     -10.286745      -279.9165
  13   2.0000     -10.285039      -279.8701
  14   2.0000     -10.283319      -279.8233
  15   2.0000     -10.274058      -279.5713
  16   2.0000      -8.080654      -219.8858
  17   2.0000      -8.073211      -219.6832
  18   2.0000      -6.039113      -164.3326
  19   2.0000      -6.034963      -164.2197
  20   2.0000      -6.031747      -164.1322
  21   2.0000      -6.031447      -164.1240
  22   2.0000      -6.027613      -164.0197
  23   2.0000      -6.023783      -163.9155
  24   2.0000      -1.016780       -27.6680
  25   2.0000      -0.992396       -27.0045
  26   2.0000      -0.910753       -24.7828
  27   2.0000      -0.902228       -24.5509
  28   2.0000      -0.877140       -23.8682
  29   2.0000      -0.858106       -23.3503
  30   2.0000      -0.843880       -22.9632
  31   2.0000      -0.821489       -22.3538
  32   2.0000      -0.778042       -21.1716
  33   2.0000      -0.768197       -20.9037
  34   2.0000      -0.709481       -19.3060
  35   2.0000      -0.697979       -18.9930
  36   2.0000      -0.686710       -18.6863
  37   2.0000      -0.668546       -18.1921
  38   2.0000      -0.649047       -17.6615
  39   2.0000      -0.621884       -16.9223
  40   2.0000      -0.594246       -16.1702
  41   2.0000      -0.570373       -15.5207
  42   2.0000      -0.567071       -15.4308
  43   2.0000      -0.561479       -15.2786
  44   2.0000      -0.527774       -14.3615
  45   2.0000      -0.526530       -14.3276
  46   2.0000      -0.522282       -14.2120
  47   2.0000      -0.512432       -13.9440
  48   2.0000      -0.506378       -13.7792
  49   2.0000      -0.500925       -13.6309
  50   2.0000      -0.491099       -13.3635
  51   2.0000      -0.489346       -13.3158
  52   2.0000      -0.475286       -12.9332
  53   2.0000      -0.464620       -12.6429
  54   2.0000      -0.460734       -12.5372
  55   2.0000      -0.454851       -12.3771
  56   2.0000      -0.441105       -12.0031
  57   2.0000      -0.438422       -11.9301
  58   2.0000      -0.432041       -11.7564
  59   2.0000      -0.420815       -11.4510
  60   2.0000      -0.416418       -11.3313
  61   2.0000      -0.412736       -11.2311
  62   2.0000      -0.407435       -11.0869
  63   2.0000      -0.357597        -9.7307
  64   2.0000      -0.333994        -9.0884
  65   2.0000      -0.325253        -8.8506
  66   2.0000      -0.290240        -7.8978
  67   0.0000       0.029575         0.8048
  68   0.0000       0.082647         2.2489
  69   0.0000       0.109729         2.9859
  70   0.0000       0.121581         3.3084
  71   0.0000       0.136901         3.7253

MULLIKEN ATOMIC CHARGES
-----------------------
   0 S :    0.114495
   1 C :   -0.123339
   2 C :   -0.054427
   3 C :    0.016128
   4 C :   -0.088157
   5 H :   -0.027151
   6 C :    0.081194
   7 H :    0.011781
   8 H :    0.039495
   9 C :   -0.104631
  10 H :    0.041881
  11 H :    0.026639
  12 C :   -0.057476
  13 H :    0.028915
  14 H :    0.043705
  15 H :    0.029593
  16 S :    0.079540
  17 C :   -0.088803
  18 C :   -0.017164
  19 C :   -0.049761
  20 C :   -0.140045
  21 H :    0.025838
  22 C :    0.036276
  23 H :    0.021776
  24 H :    0.019812
  25 C :   -0.111682
  26 H :    0.060729
  27 H :    0.032043
  28 C :   -0.017454
  29 H :    0.009322
  30 H :    0.035756
  31 H :    0.029320
  32 H :    0.033258
  33 H :    0.062596
Sum of atomic charges:    0.0000000

LOEWDIN ATOMIC CHARGES
----------------------
   0 S :    0.424824
   1 C :   -0.204929
   2 C :   -0.057429
   3 C :   -0.053318
   4 C :   -0.188479
   5 H :    0.017485
   6 C :   -0.024725
   7 H :    0.018741
   8 H :    0.036472
   9 C :   -0.049683
  10 H :    0.029576
  11 H :    0.022122
  12 C :   -0.074399
  13 H :    0.023542
  14 H :    0.037887
  15 H :    0.023544
  16 S :    0.397683
  17 C :   -0.179953
  18 C :   -0.076025
  19 C :   -0.051894
  20 C :   -0.199994
  21 H :    0.038534
  22 C :   -0.037169
  23 H :    0.030402
  24 H :    0.020615
  25 C :   -0.037888
  26 H :    0.025394
  27 H :    0.030078
  28 C :   -0.059765
  29 H :    0.020180
  30 H :    0.026978
  31 H :    0.018702
  32 H :    0.019004
  33 H :    0.033887

  Mayer bond orders larger than 0.100000
B(  0-S ,  1-C ) :   1.1376 B(  0-S ,  4-C ) :   1.1618 B(  1-C ,  2-C ) :   1.5915
B(  1-C , 32-H ) :   0.9821 B(  2-C ,  3-C ) :   1.2448 B(  2-C ,  6-C ) :   1.0145
B(  3-C ,  4-C ) :   1.5521 B(  3-C ,  5-H ) :   1.0286 B(  4-C , 20-C ) :   1.0470
B(  6-C ,  7-H ) :   0.9507 B(  6-C ,  8-H ) :   0.9305 B(  6-C ,  9-C ) :   1.0656
B(  9-C , 10-H ) :   0.9579 B(  9-C , 11-H ) :   0.9508 B(  9-C , 12-C ) :   1.0831
B( 12-C , 13-H ) :   0.9742 B( 12-C , 14-H ) :   0.9715 B( 12-C , 15-H ) :   0.9706
B( 16-S , 17-C ) :   1.1459 B( 16-S , 20-C ) :   1.1175 B( 17-C , 18-C ) :   1.6557
B( 17-C , 33-H ) :   0.9606 B( 18-C , 19-C ) :   1.1935 B( 18-C , 21-H ) :   0.9926
B( 19-C , 20-C ) :   1.6247 B( 19-C , 22-C ) :   1.0341 B( 22-C , 23-H ) :   0.9389
B( 22-C , 24-H ) :   0.9423 B( 22-C , 25-C ) :   1.0527 B( 25-C , 26-H ) :   0.9605
B( 25-C , 27-H ) :   0.9571 B( 25-C , 28-C ) :   1.0755 B( 28-C , 29-H ) :   0.9707
B( 28-C , 30-H ) :   0.9750 B( 28-C , 31-H ) :   0.9768

Dispersion correction           -0.014258637
FINAL SINGLE POINT ENERGY     -1339.871534955854

DIPOLE MOMENT
-------------
                                X             Y             Z
Electronic contribution:      3.36374       9.76423      29.03423
Nuclear contribution   :     -3.53673      -9.72591     -29.64018
                        -----------------------------------------
Total Dipole Moment    :     -0.17299       0.03832      -0.60595
                        -----------------------------------------
Magnitude (a.u.)       :      0.63132
Magnitude (Debye)      :      1.60470

Rotational constants in cm-1:     0.021441     0.008381     0.006582
Rotational constants in MHz :   642.787165   251.247277   197.314607

                             ****ORCA TERMINATED NORMALLY****
TOTAL RUN TIME: 0 days 0 hours 0 minutes 22 seconds 27 msec
