                         Program Version 4.2.1 -  RELEASE  -
|  1> ! wB97X-D3 SP def2-SVP
|  2> %pal
|  3> nprocs 24
|  4> end
|  5>
|  6> * xyz 0 1
|  7> S 	 -76.1011 	 5.72386 	 -112.073
|  8> C 	 -77.2633 	 4.42089 	 -112.52
|  9> C 	 -78.5539 	 4.77345 	 -112.479
| 10> C 	 -78.602 	 6.18936 	 -112.146
| 11> C 	 -77.4218 	 6.80791 	 -111.734
| 12> H 	 -79.5102 	 6.64574 	 -112.113
| 13> C 	 -79.7796 	 3.9574 	 -112.759
| 14> H 	 -79.5003 	 3.16319 	 -113.455
| 15> H 	 -80.5062 	 4.54861 	 -113.3
| 16> C 	 -80.2784 	 3.26712 	 -111.425
| 17> H 	 -81.0788 	 2.49607 	 -111.591
| 18> H 	 -79.474 	 2.70304 	 -110.955
| 19> C 	 -80.7034 	 4.27135 	 -110.384
| 20> H 	 -81.5784 	 4.80358 	 -110.805
| 21> H 	 -81.1066 	 3.814 	 -109.477
| 22> H 	 -79.8978 	 4.90037 	 -110.096
| 23> S 	 -75.9971 	 8.33719 	 -109.948
| 24> C 	 -76.4295 	 10.0437 	 -109.69
| 25> C 	 -77.6588 	 10.3154 	 -110.315
| 26> C 	 -78.1906 	 9.18791 	 -111.077
| 27> C 	 -77.3094 	 8.08576 	 -111.139
| 28> H 	 -78.1535 	 11.2278 	 -110.074
| 29> C 	 -79.5777 	 9.38965 	 -111.743
| 30> H 	 -79.6784 	 8.74598 	 -112.643
| 31> H 	 -79.7464 	 10.3284 	 -112.237
| 32> C 	 -80.7501 	 8.97003 	 -110.871
| 33> H 	 -80.5083 	 8.05522 	 -110.355
| 34> H 	 -81.5874 	 8.69659 	 -111.508
| 35> C 	 -81.2037 	 10.0176 	 -109.805
| 36> H 	 -82.0127 	 9.57527 	 -109.116
| 37> H 	 -81.6574 	 10.9294 	 -110.146
| 38> H 	 -80.3351 	 10.3457 	 -109.18
| 39> H 	 -76.8106 	 3.44339 	 -112.68
| 40> H 	 -75.8274 	 10.732 	 -109.196
| 41> *
| 42>
| 43>                          ****END OF INPUT****

CARTESIAN COORDINATES (ANGSTROEM)
---------------------------------
  S    -76.101100    5.723860  -112.073000
  C    -77.263300    4.420890  -112.520000
  C    -78.553900    4.773450  -112.479000
  C    -78.602000    6.189360  -112.146000
  C    -77.421800    6.807910  -111.734000
  H    -79.510200    6.645740  -112.113000
  C    -79.779600    3.957400  -112.759000
  H    -79.500300    3.163190  -113.455000
  H    -80.506200    4.548610  -113.300000
  C    -80.278400    3.267120  -111.425000
  H    -81.078800    2.496070  -111.591000
  H    -79.474000    2.703040  -110.955000
  C    -80.703400    4.271350  -110.384000
  H    -81.578400    4.803580  -110.805000
  H    -81.106600    3.814000  -109.477000
  H    -79.897800    4.900370  -110.096000
  S    -75.997100    8.337190  -109.948000
  C    -76.429500   10.043700  -109.690000
  C    -77.658800   10.315400  -110.315000
  C    -78.190600    9.187910  -111.077000
  C    -77.309400    8.085760  -111.139000
  H    -78.153500   11.227800  -110.074000
  C    -79.577700    9.389650  -111.743000
  H    -79.678400    8.745980  -112.643000
  H    -79.746400   10.328400  -112.237000
  C    -80.750100    8.970030  -110.871000
  H    -80.508300    8.055220  -110.355000
  H    -81.587400    8.696590  -111.508000
  C    -81.203700   10.017600  -109.805000
  H    -82.012700    9.575270  -109.116000
  H    -81.657400   10.929400  -110.146000
  H    -80.335100   10.345700  -109.180000
  H    -76.810600    3.443390  -112.680000
  H    -75.827400   10.732000  -109.196000

 Total Charge           Charge          ....    0
 Multiplicity           Mult            ....    1
 Number of Electrons    NEL             ....  134
 Basis Dimension        Dim             ....  322

ORBITAL ENERGIES
----------------

  NO   OCC          E(Eh)            E(eV)
   0   2.0000     -88.965645     -2420.8783
   1   2.0000     -88.964995     -2420.8606
   2   2.0000     -10.335189      -281.2348
   3   2.0000     -10.330864      -281.1171
   4   2.0000     -10.320094      -280.8240
   5   2.0000     -10.316375      -280.7228
   6   2.0000     -10.314137      -280.6619
   7   2.0000     -10.302293      -280.3396
   8   2.0000     -10.300671      -280.2955
   9   2.0000     -10.299360      -280.2598
  10   2.0000     -10.294844      -280.1369
  11   2.0000     -10.293655      -280.1046
  12   2.0000     -10.289082      -279.9802
  13   2.0000     -10.288187      -279.9558
  14   2.0000     -10.284686      -279.8605
  15   2.0000     -10.273113      -279.5456
  16   2.0000      -8.079449      -219.8530
  17   2.0000      -8.079373      -219.8509
  18   2.0000      -6.038158      -164.3066
  19   2.0000      -6.038030      -164.3031
  20   2.0000      -6.034125      -164.1969
  21   2.0000      -6.034073      -164.1955
  22   2.0000      -6.029983      -164.0842
  23   2.0000      -6.029862      -164.0809
  24   2.0000      -1.004139       -27.3240
  25   2.0000      -0.976676       -26.5767
  26   2.0000      -0.915688       -24.9171
  27   2.0000      -0.905423       -24.6378
  28   2.0000      -0.873859       -23.7789
  29   2.0000      -0.847339       -23.0573
  30   2.0000      -0.837233       -22.7823
  31   2.0000      -0.812576       -22.1113
  32   2.0000      -0.787712       -21.4347
  33   2.0000      -0.777506       -21.1570
  34   2.0000      -0.712320       -19.3832
  35   2.0000      -0.701484       -19.0883
  36   2.0000      -0.693540       -18.8722
  37   2.0000      -0.668896       -18.2016
  38   2.0000      -0.641686       -17.4612
  39   2.0000      -0.623232       -16.9590
  40   2.0000      -0.600379       -16.3371
  41   2.0000      -0.576615       -15.6905
  42   2.0000      -0.551951       -15.0194
  43   2.0000      -0.548227       -14.9180
  44   2.0000      -0.543040       -14.7769
  45   2.0000      -0.536910       -14.6101
  46   2.0000      -0.516481       -14.0542
  47   2.0000      -0.513976       -13.9860
  48   2.0000      -0.504101       -13.7173
  49   2.0000      -0.503468       -13.7001
  50   2.0000      -0.496490       -13.5102
  51   2.0000      -0.475406       -12.9364
  52   2.0000      -0.471925       -12.8417
  53   2.0000      -0.465295       -12.6613
  54   2.0000      -0.458177       -12.4676
  55   2.0000      -0.442832       -12.0501
  56   2.0000      -0.437627       -11.9084
  57   2.0000      -0.436647       -11.8818
  58   2.0000      -0.433329       -11.7915
  59   2.0000      -0.425737       -11.5849
  60   2.0000      -0.422658       -11.5011
  61   2.0000      -0.414691       -11.2843
  62   2.0000      -0.409597       -11.1457
  63   2.0000      -0.359923        -9.7940
  64   2.0000      -0.331690        -9.0257
  65   2.0000      -0.329209        -8.9582
  66   2.0000      -0.282371        -7.6837
  67   0.0000       0.013256         0.3607
  68   0.0000       0.079152         2.1538
  69   0.0000       0.096851         2.6354
  70   0.0000       0.111934         3.0459
  71   0.0000       0.131930         3.5900

MULLIKEN ATOMIC CHARGES
-----------------------
   0 S :    0.094619
   1 C :   -0.149615
   2 C :   -0.066762
   3 C :    0.027281
   4 C :   -0.100919
   5 H :   -0.059378
   6 C :    0.090422
   7 H :    0.026352
   8 H :    0.033680
   9 C :   -0.079847
  10 H :    0.038396
  11 H :    0.026868
  12 C :   -0.059983
  13 H :    0.025315
  14 H :    0.030390
  15 H :    0.055514
  16 S :    0.082045
  17 C :   -0.073115
  18 C :   -0.019628
  19 C :   -0.041795
  20 C :   -0.104567
  21 H :    0.019742
  22 C :    0.035537
  23 H :    0.020199
  24 H :    0.025339
  25 C :   -0.055826
  26 H :    0.034589
  27 H :    0.025630
  28 C :   -0.077310
  29 H :    0.041924
  30 H :    0.025162
  31 H :    0.038066
  32 H :    0.049954
  33 H :    0.041720
Sum of atomic charges:   -0.0000000

LOEWDIN ATOMIC CHARGES
----------------------
   0 S :    0.378451
   1 C :   -0.167280
   2 C :   -0.061304
   3 C :   -0.047783
   4 C :   -0.194554
   5 H :    0.004189
   6 C :   -0.025045
   7 H :    0.035177
   8 H :    0.031297
   9 C :   -0.038913
  10 H :    0.027232
  11 H :    0.024317
  12 C :   -0.068024
  13 H :    0.024924
  14 H :    0.027594
  15 H :    0.023961
  16 S :    0.376217
  17 C :   -0.164856
  18 C :   -0.063485
  19 C :   -0.048871
  20 C :   -0.179442
  21 H :    0.027347
  22 C :   -0.037849
  23 H :    0.033441
  24 H :    0.028938
  25 C :   -0.040294
  26 H :    0.025698
  27 H :    0.024009
  28 C :   -0.076764
  29 H :    0.034987
  30 H :    0.017039
  31 H :    0.028337
  32 H :    0.024250
  33 H :    0.017056

  Mayer bond orders larger than 0.100000
B(  0-S ,  1-C ) :   1.1182 B(  0-S ,  4-C ) :   1.1231 B(  1-C ,  2-C ) :   1.6479
B(  1-C , 32-H ) :   0.9636 B(  2-C ,  3-C ) :   1.2252 B(  2-C ,  6-C ) :   1.0146
B(  3-C ,  4-C ) :   1.5520 B(  3-C ,  5-H ) :   1.0023 B(  4-C , 20-C ) :   1.1277
B(  6-C ,  7-H ) :   0.9366 B(  6-C ,  8-H ) :   0.9479 B(  6-C ,  9-C ) :   1.0530
B(  9-C , 10-H ) :   0.9590 B(  9-C , 11-H ) :   0.9566 B(  9-C , 12-C ) :   1.0845
B( 12-C , 13-H ) :   0.9753 B( 12-C , 14-H ) :   0.9688 B( 12-C , 15-H ) :   0.9702
B( 16-S , 17-C ) :   1.1410 B( 16-S , 20-C ) :   1.1222 B( 17-C , 18-C ) :   1.6010
B( 17-C , 20-C ) :   0.1054 B( 17-C , 33-H ) :   0.9777 B( 18-C , 19-C ) :   1.2370
B( 18-C , 21-H ) :   0.9897 B( 19-C , 20-C ) :   1.5759 B( 19-C , 22-C ) :   1.0338
B( 22-C , 23-H ) :   0.9363 B( 22-C , 24-H ) :   0.9453 B( 22-C , 25-C ) :   1.0686
B( 25-C , 26-H ) :   0.9493 B( 25-C , 27-H ) :   0.9561 B( 25-C , 28-C ) :   1.0741
B( 28-C , 29-H ) :   0.9747 B( 28-C , 30-H ) :   0.9777 B( 28-C , 31-H ) :   0.9726

Dispersion correction           -0.015422947
FINAL SINGLE POINT ENERGY     -1339.867345248525

DIPOLE MOMENT
-------------
                                X             Y             Z
Electronic contribution:     28.72601       2.15811      -2.56656
Nuclear contribution   :    -29.49624      -2.23963       2.53797
                        -----------------------------------------
Total Dipole Moment    :     -0.77023      -0.08152      -0.02859
                        -----------------------------------------
Magnitude (a.u.)       :      0.77506
Magnitude (Debye)      :      1.97005

Rotational constants in cm-1:     0.017575     0.010355     0.007320
Rotational constants in MHz :   526.875231   310.422424   219.435511

                             ****ORCA TERMINATED NORMALLY****
TOTAL RUN TIME: 0 days 0 hours 0 minutes 22 seconds 740 msec
