                         Program Version 4.2.1 -  RELEASE  -
|  1> ! wB97X-D3 SP def2-SVP
|  2> %pal
|  3> nprocs 24
|  4> end
|  5>
|  6> * xyz 0 1
|  7> S 	 -50.2297 	 -44.9757 	 -76.1638
|  8> C 	 -51.2151 	 -44.9218 	 -74.773
|  9> C 	 -52.3493 	 -44.1304 	 -74.9187
| 10> C 	 -52.3884 	 -43.5244 	 -76.2332
| 11> C 	 -51.3355 	 -43.8962 	 -77.0612
| 12> H 	 -53.0906 	 -42.778 	 -76.5697
| 13> C 	 -53.3611 	 -43.8997 	 -73.6936
| 14> H 	 -52.7507 	 -43.2945 	 -72.9967
| 15> H 	 -53.4458 	 -44.9157 	 -73.2341
| 16> C 	 -54.7941 	 -43.4114 	 -74.0158
| 17> H 	 -54.8795 	 -42.3799 	 -74.4892
| 18> H 	 -55.2854 	 -44.1368 	 -74.683
| 19> C 	 -55.6589 	 -43.4989 	 -72.7335
| 20> H 	 -55.2998 	 -42.7582 	 -72.0451
| 21> H 	 -56.7556 	 -43.1775 	 -72.9287
| 22> H 	 -55.6217 	 -44.5159 	 -72.3459
| 23> S 	 -50.9187 	 -44.595 	 -79.6423
| 24> C 	 -50.5009 	 -43.3636 	 -80.8628
| 25> C 	 -50.2821 	 -42.1662 	 -80.2672
| 26> C 	 -50.5393 	 -42.0941 	 -78.8662
| 27> C 	 -50.9398 	 -43.3578 	 -78.3904
| 28> H 	 -49.9454 	 -41.3015 	 -80.9128
| 29> C 	 -50.5035 	 -40.8563 	 -77.9667
| 30> H 	 -51.1064 	 -41.1721 	 -77.1361
| 31> H 	 -51.1332 	 -40.0551 	 -78.45
| 32> C 	 -49.206 	 -40.5245 	 -77.3025
| 33> H 	 -48.7688 	 -41.3814 	 -76.7326
| 34> H 	 -49.489 	 -39.7008 	 -76.4978
| 35> C 	 -48.1654 	 -39.9838 	 -78.2155
| 36> H 	 -47.3024 	 -39.7108 	 -77.5852
| 37> H 	 -48.4713 	 -39.1345 	 -78.8793
| 38> H 	 -47.7709 	 -40.7569 	 -78.8727
| 39> H 	 -51.0256 	 -45.5667 	 -73.8663
| 40> H 	 -50.3808 	 -43.474 	 -81.9707
| 41> *
| 42>
| 43>                          ****END OF INPUT****

CARTESIAN COORDINATES (ANGSTROEM)
---------------------------------
  S    -50.229700  -44.975700  -76.163800
  C    -51.215100  -44.921800  -74.773000
  C    -52.349300  -44.130400  -74.918700
  C    -52.388400  -43.524400  -76.233200
  C    -51.335500  -43.896200  -77.061200
  H    -53.090600  -42.778000  -76.569700
  C    -53.361100  -43.899700  -73.693600
  H    -52.750700  -43.294500  -72.996700
  H    -53.445800  -44.915700  -73.234100
  C    -54.794100  -43.411400  -74.015800
  H    -54.879500  -42.379900  -74.489200
  H    -55.285400  -44.136800  -74.683000
  C    -55.658900  -43.498900  -72.733500
  H    -55.299800  -42.758200  -72.045100
  H    -56.755600  -43.177500  -72.928700
  H    -55.621700  -44.515900  -72.345900
  S    -50.918700  -44.595000  -79.642300
  C    -50.500900  -43.363600  -80.862800
  C    -50.282100  -42.166200  -80.267200
  C    -50.539300  -42.094100  -78.866200
  C    -50.939800  -43.357800  -78.390400
  H    -49.945400  -41.301500  -80.912800
  C    -50.503500  -40.856300  -77.966700
  H    -51.106400  -41.172100  -77.136100
  H    -51.133200  -40.055100  -78.450000
  C    -49.206000  -40.524500  -77.302500
  H    -48.768800  -41.381400  -76.732600
  H    -49.489000  -39.700800  -76.497800
  C    -48.165400  -39.983800  -78.215500
  H    -47.302400  -39.710800  -77.585200
  H    -48.471300  -39.134500  -78.879300
  H    -47.770900  -40.756900  -78.872700
  H    -51.025600  -45.566700  -73.866300
  H    -50.380800  -43.474000  -81.970700

 Total Charge           Charge          ....    0
 Multiplicity           Mult            ....    1
 Number of Electrons    NEL             ....  134
 Basis Dimension        Dim             ....  322

ORBITAL ENERGIES
----------------

  NO   OCC          E(Eh)            E(eV)
   0   2.0000     -88.966011     -2420.8882
   1   2.0000     -88.964111     -2420.8365
   2   2.0000     -10.333104      -281.1780
   3   2.0000     -10.330252      -281.1005
   4   2.0000     -10.318717      -280.7866
   5   2.0000     -10.315556      -280.7005
   6   2.0000     -10.308397      -280.5057
   7   2.0000     -10.307993      -280.4948
   8   2.0000     -10.306560      -280.4558
   9   2.0000     -10.299810      -280.2721
  10   2.0000     -10.299172      -280.2547
  11   2.0000     -10.294735      -280.1340
  12   2.0000     -10.292615      -280.0763
  13   2.0000     -10.290013      -280.0055
  14   2.0000     -10.286421      -279.9077
  15   2.0000     -10.273800      -279.5643
  16   2.0000      -8.080896      -219.8923
  17   2.0000      -8.078206      -219.8192
  18   2.0000      -6.039319      -164.3382
  19   2.0000      -6.036823      -164.2703
  20   2.0000      -6.035322      -164.2295
  21   2.0000      -6.032765      -164.1599
  22   2.0000      -6.031787      -164.1333
  23   2.0000      -6.028916      -164.0552
  24   2.0000      -1.000823       -27.2338
  25   2.0000      -0.980093       -26.6697
  26   2.0000      -0.911764       -24.8104
  27   2.0000      -0.903113       -24.5749
  28   2.0000      -0.866859       -23.5884
  29   2.0000      -0.847636       -23.0653
  30   2.0000      -0.843315       -22.9478
  31   2.0000      -0.815228       -22.1835
  32   2.0000      -0.780866       -21.2484
  33   2.0000      -0.765771       -20.8377
  34   2.0000      -0.706282       -19.2189
  35   2.0000      -0.687256       -18.7012
  36   2.0000      -0.678569       -18.4648
  37   2.0000      -0.651707       -17.7339
  38   2.0000      -0.640219       -17.4213
  39   2.0000      -0.614338       -16.7170
  40   2.0000      -0.588151       -16.0044
  41   2.0000      -0.571749       -15.5581
  42   2.0000      -0.558358       -15.1937
  43   2.0000      -0.548280       -14.9194
  44   2.0000      -0.542637       -14.7659
  45   2.0000      -0.521519       -14.1912
  46   2.0000      -0.513903       -13.9840
  47   2.0000      -0.507277       -13.8037
  48   2.0000      -0.498402       -13.5622
  49   2.0000      -0.493917       -13.4402
  50   2.0000      -0.486390       -13.2354
  51   2.0000      -0.475881       -12.9494
  52   2.0000      -0.474705       -12.9174
  53   2.0000      -0.466875       -12.7043
  54   2.0000      -0.454128       -12.3574
  55   2.0000      -0.446707       -12.1555
  56   2.0000      -0.438738       -11.9387
  57   2.0000      -0.436147       -11.8682
  58   2.0000      -0.432998       -11.7825
  59   2.0000      -0.428211       -11.6522
  60   2.0000      -0.415930       -11.3180
  61   2.0000      -0.413034       -11.2392
  62   2.0000      -0.403215       -10.9720
  63   2.0000      -0.342124        -9.3097
  64   2.0000      -0.331606        -9.0235
  65   2.0000      -0.326363        -8.8808
  66   2.0000      -0.298118        -8.1122
  67   0.0000       0.037760         1.0275
  68   0.0000       0.059194         1.6108
  69   0.0000       0.116173         3.1612
  70   0.0000       0.122828         3.3423
  71   0.0000       0.127447         3.4680

MULLIKEN ATOMIC CHARGES
-----------------------
   0 S :    0.121383
   1 C :   -0.149893
   2 C :   -0.093269
   3 C :    0.047363
   4 C :   -0.162249
   5 H :    0.017359
   6 C :    0.024461
   7 H :    0.053499
   8 H :    0.034952
   9 C :   -0.095035
  10 H :    0.050386
  11 H :    0.042017
  12 C :   -0.072890
  13 H :    0.031415
  14 H :    0.046173
  15 H :    0.040618
  16 S :    0.100964
  17 C :   -0.099734
  18 C :   -0.070062
  19 C :   -0.024756
  20 C :   -0.198555
  21 H :    0.036776
  22 C :    0.089826
  23 H :    0.004990
  24 H :    0.045477
  25 C :   -0.095893
  26 H :    0.044956
  27 H :    0.041069
  28 C :   -0.051056
  29 H :    0.033358
  30 H :    0.034281
  31 H :    0.032640
  32 H :    0.069652
  33 H :    0.069776
Sum of atomic charges:   -0.0000000

LOEWDIN ATOMIC CHARGES
----------------------
   0 S :    0.411815
   1 C :   -0.223330
   2 C :   -0.068967
   3 C :   -0.060729
   4 C :   -0.196904
   5 H :    0.031615
   6 C :   -0.033729
   7 H :    0.035930
   8 H :    0.036182
   9 C :   -0.051507
  10 H :    0.030725
  11 H :    0.029864
  12 C :   -0.067907
  13 H :    0.019645
  14 H :    0.035574
  15 H :    0.024808
  16 S :    0.391090
  17 C :   -0.188608
  18 C :   -0.084463
  19 C :   -0.055490
  20 C :   -0.195873
  21 H :    0.040983
  22 C :   -0.042634
  23 H :    0.032275
  24 H :    0.039966
  25 C :   -0.048315
  26 H :    0.035895
  27 H :    0.035018
  28 C :   -0.077221
  29 H :    0.029554
  30 H :    0.027241
  31 H :    0.024652
  32 H :    0.039583
  33 H :    0.043262

  Mayer bond orders larger than 0.100000
B(  0-S ,  1-C ) :   1.1601 B(  0-S ,  4-C ) :   1.1499 B(  1-C ,  2-C ) :   1.6122
B(  1-C , 32-H ) :   0.9597 B(  2-C ,  3-C ) :   1.2534 B(  2-C ,  6-C ) :   0.9817
B(  3-C ,  4-C ) :   1.5808 B(  3-C ,  5-H ) :   0.9950 B(  4-C , 20-C ) :   0.9929
B(  6-C ,  7-H ) :   0.9491 B(  6-C ,  8-H ) :   0.9478 B(  6-C ,  9-C ) :   1.0603
B(  9-C , 10-H ) :   0.9529 B(  9-C , 11-H ) :   0.9584 B(  9-C , 12-C ) :   1.0796
B( 12-C , 13-H ) :   0.9773 B( 12-C , 14-H ) :   0.9743 B( 12-C , 15-H ) :   0.9751
B( 16-S , 17-C ) :   1.1294 B( 16-S , 20-C ) :   1.1557 B( 17-C , 18-C ) :   1.6484
B( 17-C , 20-C ) :   0.1010 B( 17-C , 33-H ) :   0.9597 B( 18-C , 19-C ) :   1.2241
B( 18-C , 21-H ) :   0.9760 B( 19-C , 20-C ) :   1.6024 B( 19-C , 22-C ) :   1.0224
B( 22-C , 23-H ) :   0.9176 B( 22-C , 24-H ) :   0.9378 B( 22-C , 25-C ) :   1.0773
B( 25-C , 26-H ) :   0.9458 B( 25-C , 27-H ) :   0.9504 B( 25-C , 28-C ) :   1.0936
B( 28-C , 29-H ) :   0.9699 B( 28-C , 30-H ) :   0.9725 B( 28-C , 31-H ) :   0.9691

Dispersion correction           -0.014039296
FINAL SINGLE POINT ENERGY     -1339.874379617339

DIPOLE MOMENT
-------------
                                X             Y             Z
Electronic contribution:      8.40454     -17.40946     -15.17504
Nuclear contribution   :     -8.65711      17.88599      15.52092
                        -----------------------------------------
Total Dipole Moment    :     -0.25257       0.47653       0.34588
                        -----------------------------------------
Magnitude (a.u.)       :      0.64071
Magnitude (Debye)      :      1.62854

Rotational constants in cm-1:     0.019835     0.007328     0.006601
Rotational constants in MHz :   594.637042   219.673777   197.906818

                             ****ORCA TERMINATED NORMALLY****
TOTAL RUN TIME: 0 days 0 hours 0 minutes 21 seconds 17 msec
