                         Program Version 4.2.1 -  RELEASE  -
|  1> ! wB97X-D3 SP def2-SVP
|  2> %pal
|  3> nprocs 24
|  4> end
|  5>
|  6> * xyz 0 1
|  7> S 	 -104.905 	 22.8911 	 -118.745
|  8> C 	 -103.899 	 22.7882 	 -117.277
|  9> C 	 -103.368 	 21.51 	 -117.142
| 10> C 	 -103.894 	 20.5839 	 -118.15
| 11> C 	 -104.721 	 21.1207 	 -119.053
| 12> H 	 -103.639 	 19.528 	 -118.223
| 13> C 	 -102.496 	 21.095 	 -115.931
| 14> H 	 -102.645 	 20.0631 	 -115.804
| 15> H 	 -102.908 	 21.5858 	 -115.059
| 16> C 	 -100.966 	 21.3794 	 -116.042
| 17> H 	 -100.881 	 22.3487 	 -115.602
| 18> H 	 -100.32 	 20.5947 	 -115.533
| 19> C 	 -100.414 	 21.3347 	 -117.476
| 20> H 	 -100.7 	 20.3852 	 -117.833
| 21> H 	 -100.874 	 22.1136 	 -118.104
| 22> H 	 -99.3615 	 21.3758 	 -117.57
| 23> S 	 -106.949 	 21.0594 	 -120.589
| 24> C 	 -107.171 	 19.8217 	 -121.733
| 25> C 	 -106.225 	 18.8919 	 -121.647
| 26> C 	 -105.131 	 19.2119 	 -120.822
| 27> C 	 -105.35 	 20.4223 	 -120.134
| 28> H 	 -106.414 	 17.9636 	 -122.22
| 29> C 	 -103.934 	 18.2553 	 -120.622
| 30> H 	 -103.147 	 18.7764 	 -120.09
| 31> H 	 -103.537 	 18.1339 	 -121.627
| 32> C 	 -104.236 	 16.7865 	 -120.082
| 33> H 	 -105.026 	 16.377 	 -120.683
| 34> H 	 -104.688 	 16.9239 	 -119.061
| 35> C 	 -102.99 	 15.8751 	 -120.084
| 36> H 	 -102.092 	 16.3453 	 -119.592
| 37> H 	 -102.849 	 15.5505 	 -121.069
| 38> H 	 -103.184 	 14.8848 	 -119.642
| 39> H 	 -103.614 	 23.6336 	 -116.723
| 40> H 	 -108.089 	 19.674 	 -122.316
| 41> *
| 42>
| 43>                          ****END OF INPUT****

CARTESIAN COORDINATES (ANGSTROEM)
---------------------------------
  S    -104.905000   22.891100  -118.745000
  C    -103.899000   22.788200  -117.277000
  C    -103.368000   21.510000  -117.142000
  C    -103.894000   20.583900  -118.150000
  C    -104.721000   21.120700  -119.053000
  H    -103.639000   19.528000  -118.223000
  C    -102.496000   21.095000  -115.931000
  H    -102.645000   20.063100  -115.804000
  H    -102.908000   21.585800  -115.059000
  C    -100.966000   21.379400  -116.042000
  H    -100.881000   22.348700  -115.602000
  H    -100.320000   20.594700  -115.533000
  C    -100.414000   21.334700  -117.476000
  H    -100.700000   20.385200  -117.833000
  H    -100.874000   22.113600  -118.104000
  H    -99.361500   21.375800  -117.570000
  S    -106.949000   21.059400  -120.589000
  C    -107.171000   19.821700  -121.733000
  C    -106.225000   18.891900  -121.647000
  C    -105.131000   19.211900  -120.822000
  C    -105.350000   20.422300  -120.134000
  H    -106.414000   17.963600  -122.220000
  C    -103.934000   18.255300  -120.622000
  H    -103.147000   18.776400  -120.090000
  H    -103.537000   18.133900  -121.627000
  C    -104.236000   16.786500  -120.082000
  H    -105.026000   16.377000  -120.683000
  H    -104.688000   16.923900  -119.061000
  C    -102.990000   15.875100  -120.084000
  H    -102.092000   16.345300  -119.592000
  H    -102.849000   15.550500  -121.069000
  H    -103.184000   14.884800  -119.642000
  H    -103.614000   23.633600  -116.723000
  H    -108.089000   19.674000  -122.316000

 Total Charge           Charge          ....    0
 Multiplicity           Mult            ....    1
 Number of Electrons    NEL             ....  134
 Basis Dimension        Dim             ....  322

ORBITAL ENERGIES
----------------

  NO   OCC          E(Eh)            E(eV)
   0   2.0000     -88.963863     -2420.8298
   1   2.0000     -88.962158     -2420.7834
   2   2.0000     -10.330416      -281.1049
   3   2.0000     -10.329573      -281.0820
   4   2.0000     -10.315222      -280.6915
   5   2.0000     -10.309529      -280.5366
   6   2.0000     -10.309427      -280.5338
   7   2.0000     -10.308280      -280.5026
   8   2.0000     -10.298458      -280.2353
   9   2.0000     -10.297903      -280.2202
  10   2.0000     -10.293143      -280.0907
  11   2.0000     -10.290104      -280.0080
  12   2.0000     -10.289014      -279.9783
  13   2.0000     -10.288354      -279.9604
  14   2.0000     -10.285432      -279.8808
  15   2.0000     -10.268049      -279.4078
  16   2.0000      -8.077747      -219.8067
  17   2.0000      -8.077342      -219.7957
  18   2.0000      -6.036168      -164.2525
  19   2.0000      -6.036111      -164.2509
  20   2.0000      -6.032192      -164.1443
  21   2.0000      -6.032128      -164.1425
  22   2.0000      -6.028536      -164.0448
  23   2.0000      -6.027729      -164.0228
  24   2.0000      -1.009490       -27.4696
  25   2.0000      -0.981529       -26.7088
  26   2.0000      -0.907976       -24.7073
  27   2.0000      -0.903746       -24.5922
  28   2.0000      -0.874424       -23.7943
  29   2.0000      -0.854264       -23.2457
  30   2.0000      -0.838713       -22.8226
  31   2.0000      -0.819500       -22.2997
  32   2.0000      -0.785829       -21.3835
  33   2.0000      -0.774821       -21.0839
  34   2.0000      -0.711311       -19.3557
  35   2.0000      -0.702326       -19.1113
  36   2.0000      -0.697123       -18.9697
  37   2.0000      -0.657996       -17.9050
  38   2.0000      -0.637704       -17.3528
  39   2.0000      -0.617925       -16.8146
  40   2.0000      -0.596062       -16.2197
  41   2.0000      -0.573664       -15.6102
  42   2.0000      -0.563746       -15.3403
  43   2.0000      -0.554050       -15.0765
  44   2.0000      -0.540778       -14.7153
  45   2.0000      -0.527030       -14.3412
  46   2.0000      -0.516485       -14.0543
  47   2.0000      -0.511653       -13.9228
  48   2.0000      -0.506445       -13.7811
  49   2.0000      -0.498996       -13.5784
  50   2.0000      -0.489014       -13.3067
  51   2.0000      -0.482751       -13.1363
  52   2.0000      -0.470854       -12.8126
  53   2.0000      -0.465705       -12.6725
  54   2.0000      -0.460524       -12.5315
  55   2.0000      -0.453626       -12.3438
  56   2.0000      -0.445331       -12.1181
  57   2.0000      -0.438288       -11.9264
  58   2.0000      -0.434057       -11.8113
  59   2.0000      -0.423287       -11.5182
  60   2.0000      -0.421096       -11.4586
  61   2.0000      -0.415286       -11.3005
  62   2.0000      -0.408366       -11.1122
  63   2.0000      -0.363539        -9.8924
  64   2.0000      -0.332245        -9.0408
  65   2.0000      -0.327113        -8.9012
  66   2.0000      -0.286188        -7.7876
  67   0.0000       0.021697         0.5904
  68   0.0000       0.080767         2.1978
  69   0.0000       0.101099         2.7510
  70   0.0000       0.118024         3.2116
  71   0.0000       0.126413         3.4399

MULLIKEN ATOMIC CHARGES
-----------------------
   0 S :    0.088210
   1 C :   -0.100233
   2 C :   -0.123651
   3 C :   -0.016100
   4 C :   -0.081230
   5 H :    0.012695
   6 C :    0.107966
   7 H :    0.004894
   8 H :    0.033681
   9 C :   -0.100751
  10 H :    0.025384
  11 H :    0.041893
  12 C :   -0.014298
  13 H :    0.002624
  14 H :    0.044697
  15 H :    0.028454
  16 S :    0.090934
  17 C :   -0.077474
  18 C :   -0.069216
  19 C :   -0.020116
  20 C :   -0.150780
  21 H :    0.027663
  22 C :    0.046741
  23 H :    0.017968
  24 H :    0.024231
  25 C :   -0.079130
  26 H :    0.024699
  27 H :    0.039698
  28 C :   -0.032933
  29 H :    0.052444
  30 H :    0.019006
  31 H :    0.032389
  32 H :    0.037898
  33 H :    0.061742
Sum of atomic charges:   -0.0000000

LOEWDIN ATOMIC CHARGES
----------------------
   0 S :    0.356955
   1 C :   -0.176260
   2 C :   -0.053073
   3 C :   -0.068031
   4 C :   -0.173791
   5 H :    0.031962
   6 C :   -0.025914
   7 H :    0.021331
   8 H :    0.033631
   9 C :   -0.039731
  10 H :    0.016090
  11 H :    0.033895
  12 C :   -0.061301
  13 H :    0.016416
  14 H :    0.029374
  15 H :    0.020201
  16 S :    0.410234
  17 C :   -0.198054
  18 C :   -0.084958
  19 C :   -0.053410
  20 C :   -0.180610
  21 H :    0.038167
  22 C :   -0.033452
  23 H :    0.023502
  24 H :    0.031734
  25 C :   -0.037414
  26 H :    0.020671
  27 H :    0.026580
  28 C :   -0.068525
  29 H :    0.035142
  30 H :    0.020204
  31 H :    0.032406
  32 H :    0.019549
  33 H :    0.036481

  Mayer bond orders larger than 0.100000
B(  0-S ,  1-C ) :   1.1125 B(  0-S ,  4-C ) :   1.1021 B(  1-C ,  2-C ) :   1.6375
B(  1-C , 32-H ) :   0.9766 B(  2-C ,  3-C ) :   1.1957 B(  2-C ,  6-C ) :   1.0186
B(  3-C ,  4-C ) :   1.6357 B(  3-C ,  5-H ) :   0.9863 B(  4-C , 20-C ) :   1.0864
B(  6-C ,  7-H ) :   0.9336 B(  6-C ,  8-H ) :   0.9546 B(  6-C ,  9-C ) :   1.0484
B(  9-C , 10-H ) :   0.9614 B(  9-C , 11-H ) :   0.9612 B(  9-C , 12-C ) :   1.0933
B( 12-C , 13-H ) :   0.9738 B( 12-C , 14-H ) :   0.9630 B( 12-C , 15-H ) :   0.9756
B( 16-S , 17-C ) :   1.1558 B( 16-S , 20-C ) :   1.1426 B( 17-C , 18-C ) :   1.6329
B( 17-C , 33-H ) :   0.9598 B( 18-C , 19-C ) :   1.2425 B( 18-C , 21-H ) :   0.9849
B( 19-C , 20-C ) :   1.5696 B( 19-C , 22-C ) :   1.0342 B( 22-C , 23-H ) :   0.9401
B( 22-C , 24-H ) :   0.9290 B( 22-C , 25-C ) :   1.0478 B( 25-C , 26-H ) :   0.9537
B( 25-C , 27-H ) :   0.9594 B( 25-C , 28-C ) :   1.0803 B( 28-C , 29-H ) :   0.9761
B( 28-C , 30-H ) :   0.9719 B( 28-C , 31-H ) :   0.9704

Dispersion correction           -0.014273881
FINAL SINGLE POINT ENERGY     -1339.870045953696

DIPOLE MOMENT
-------------
                                X             Y             Z
Electronic contribution:    -22.77458      19.07715      -7.52953
Nuclear contribution   :     23.13790     -19.84227       7.63914
                        -----------------------------------------
Total Dipole Moment    :      0.36332      -0.76513       0.10961
                        -----------------------------------------
Magnitude (a.u.)       :      0.85407
Magnitude (Debye)      :      2.17087

Rotational constants in cm-1:     0.016480     0.009761     0.006496
Rotational constants in MHz :   494.069858   292.614798   194.737574

                             ****ORCA TERMINATED NORMALLY****
TOTAL RUN TIME: 0 days 0 hours 0 minutes 20 seconds 373 msec
