                         Program Version 4.2.1 -  RELEASE  -
|  1> ! wB97X-D3 SP def2-SVP
|  2> %pal
|  3> nprocs 24
|  4> end
|  5>
|  6> * xyz 0 1
|  7> S 	 -107.382 	 16.9753 	 -114.396
|  8> C 	 -106.642 	 15.5167 	 -113.717
|  9> C 	 -105.487 	 15.2292 	 -114.41
| 10> C 	 -105.081 	 16.1852 	 -115.45
| 11> C 	 -106.067 	 17.1165 	 -115.577
| 12> H 	 -104.179 	 16.1342 	 -116.042
| 13> C 	 -104.606 	 14.0562 	 -114.038
| 14> H 	 -104.018 	 13.715 	 -114.878
| 15> H 	 -105.345 	 13.3332 	 -113.693
| 16> C 	 -103.738 	 14.3736 	 -112.843
| 17> H 	 -103.094 	 15.1994 	 -113.089
| 18> H 	 -104.235 	 14.7529 	 -111.958
| 19> C 	 -103.115 	 13.0646 	 -112.335
| 20> H 	 -103.89 	 12.4023 	 -112.029
| 21> H 	 -102.406 	 12.5944 	 -112.947
| 22> H 	 -102.445 	 13.2742 	 -111.435
| 23> S 	 -105.347 	 19.8266 	 -115.877
| 24> C 	 -105.549 	 20.5485 	 -117.439
| 25> C 	 -105.856 	 19.6174 	 -118.389
| 26> C 	 -106.057 	 18.3243 	 -117.857
| 27> C 	 -105.945 	 18.2248 	 -116.483
| 28> H 	 -106.053 	 19.9493 	 -119.42
| 29> C 	 -106.609 	 17.2317 	 -118.763
| 30> H 	 -107.013 	 17.6795 	 -119.668
| 31> H 	 -107.531 	 16.9573 	 -118.258
| 32> C 	 -105.622 	 16.0906 	 -119.025
| 33> H 	 -106.297 	 15.2613 	 -119.471
| 34> H 	 -105.166 	 15.8154 	 -118.072
| 35> C 	 -104.456 	 16.5252 	 -119.994
| 36> H 	 -103.883 	 17.364 	 -119.654
| 37> H 	 -104.695 	 16.6982 	 -121.017
| 38> H 	 -103.66 	 15.726 	 -119.958
| 39> H 	 -107.109 	 14.8271 	 -112.944
| 40> H 	 -105.515 	 21.5738 	 -117.686
| 41> *
| 42>
| 43>                          ****END OF INPUT****

CARTESIAN COORDINATES (ANGSTROEM)
---------------------------------
  S    -107.382000   16.975300  -114.396000
  C    -106.642000   15.516700  -113.717000
  C    -105.487000   15.229200  -114.410000
  C    -105.081000   16.185200  -115.450000
  C    -106.067000   17.116500  -115.577000
  H    -104.179000   16.134200  -116.042000
  C    -104.606000   14.056200  -114.038000
  H    -104.018000   13.715000  -114.878000
  H    -105.345000   13.333200  -113.693000
  C    -103.738000   14.373600  -112.843000
  H    -103.094000   15.199400  -113.089000
  H    -104.235000   14.752900  -111.958000
  C    -103.115000   13.064600  -112.335000
  H    -103.890000   12.402300  -112.029000
  H    -102.406000   12.594400  -112.947000
  H    -102.445000   13.274200  -111.435000
  S    -105.347000   19.826600  -115.877000
  C    -105.549000   20.548500  -117.439000
  C    -105.856000   19.617400  -118.389000
  C    -106.057000   18.324300  -117.857000
  C    -105.945000   18.224800  -116.483000
  H    -106.053000   19.949300  -119.420000
  C    -106.609000   17.231700  -118.763000
  H    -107.013000   17.679500  -119.668000
  H    -107.531000   16.957300  -118.258000
  C    -105.622000   16.090600  -119.025000
  H    -106.297000   15.261300  -119.471000
  H    -105.166000   15.815400  -118.072000
  C    -104.456000   16.525200  -119.994000
  H    -103.883000   17.364000  -119.654000
  H    -104.695000   16.698200  -121.017000
  H    -103.660000   15.726000  -119.958000
  H    -107.109000   14.827100  -112.944000
  H    -105.515000   21.573800  -117.686000

 Total Charge           Charge          ....    0
 Multiplicity           Mult            ....    1
 Number of Electrons    NEL             ....  134
 Basis Dimension        Dim             ....  322

ORBITAL ENERGIES
----------------

  NO   OCC          E(Eh)            E(eV)
   0   2.0000     -88.968398     -2420.9532
   1   2.0000     -88.960486     -2420.7379
   2   2.0000     -10.330206      -281.0992
   3   2.0000     -10.323373      -280.9133
   4   2.0000     -10.321179      -280.8536
   5   2.0000     -10.309677      -280.5406
   6   2.0000     -10.302557      -280.3468
   7   2.0000     -10.300222      -280.2833
   8   2.0000     -10.297962      -280.2218
   9   2.0000     -10.295657      -280.1591
  10   2.0000     -10.287523      -279.9377
  11   2.0000     -10.286978      -279.9229
  12   2.0000     -10.284341      -279.8511
  13   2.0000     -10.281604      -279.7767
  14   2.0000     -10.277625      -279.6684
  15   2.0000     -10.275706      -279.6162
  16   2.0000      -8.082351      -219.9320
  17   2.0000      -8.074773      -219.7257
  18   2.0000      -6.041013      -164.3843
  19   2.0000      -6.037012      -164.2754
  20   2.0000      -6.033363      -164.1762
  21   2.0000      -6.032931      -164.1644
  22   2.0000      -6.029337      -164.0666
  23   2.0000      -6.025480      -163.9617
  24   2.0000      -1.003621       -27.3099
  25   2.0000      -0.981253       -26.7013
  26   2.0000      -0.917250       -24.9597
  27   2.0000      -0.902758       -24.5653
  28   2.0000      -0.871586       -23.7170
  29   2.0000      -0.848005       -23.0754
  30   2.0000      -0.840323       -22.8664
  31   2.0000      -0.814971       -22.1765
  32   2.0000      -0.781287       -21.2599
  33   2.0000      -0.768854       -20.9216
  34   2.0000      -0.710955       -19.3461
  35   2.0000      -0.704404       -19.1678
  36   2.0000      -0.690697       -18.7948
  37   2.0000      -0.657800       -17.8996
  38   2.0000      -0.642816       -17.4919
  39   2.0000      -0.617006       -16.7896
  40   2.0000      -0.591476       -16.0949
  41   2.0000      -0.577223       -15.7070
  42   2.0000      -0.561884       -15.2896
  43   2.0000      -0.544893       -14.8273
  44   2.0000      -0.536729       -14.6051
  45   2.0000      -0.523511       -14.2455
  46   2.0000      -0.518928       -14.1207
  47   2.0000      -0.510998       -13.9050
  48   2.0000      -0.508805       -13.8453
  49   2.0000      -0.500922       -13.6308
  50   2.0000      -0.487159       -13.2563
  51   2.0000      -0.476033       -12.9535
  52   2.0000      -0.472365       -12.8537
  53   2.0000      -0.467611       -12.7243
  54   2.0000      -0.460845       -12.5402
  55   2.0000      -0.448389       -12.2013
  56   2.0000      -0.440883       -11.9970
  57   2.0000      -0.437292       -11.8993
  58   2.0000      -0.431128       -11.7316
  59   2.0000      -0.423604       -11.5268
  60   2.0000      -0.415946       -11.3185
  61   2.0000      -0.411926       -11.2091
  62   2.0000      -0.405691       -11.0394
  63   2.0000      -0.338916        -9.2224
  64   2.0000      -0.327865        -8.9217
  65   2.0000      -0.320590        -8.7237
  66   2.0000      -0.307046        -8.3551
  67   0.0000       0.035388         0.9630
  68   0.0000       0.057156         1.5553
  69   0.0000       0.112252         3.0545
  70   0.0000       0.122490         3.3331
  71   0.0000       0.129775         3.5314

MULLIKEN ATOMIC CHARGES
-----------------------
   0 S :    0.113462
   1 C :   -0.147179
   2 C :   -0.106895
   3 C :    0.056566
   4 C :   -0.166347
   5 H :    0.036194
   6 C :    0.078654
   7 H :    0.026560
   8 H :    0.014682
   9 C :   -0.060767
  10 H :    0.018464
  11 H :    0.023834
  12 C :   -0.034243
  13 H :    0.029773
  14 H :    0.019124
  15 H :    0.030442
  16 S :    0.098323
  17 C :   -0.067287
  18 C :   -0.051547
  19 C :   -0.033928
  20 C :   -0.179937
  21 H :    0.024232
  22 C :    0.081829
  23 H :    0.007464
  24 H :    0.031832
  25 C :   -0.059298
  26 H :    0.048424
  27 H :    0.021963
  28 C :   -0.060869
  29 H :    0.029854
  30 H :    0.031239
  31 H :    0.029213
  32 H :    0.076772
  33 H :    0.039400
Sum of atomic charges:   -0.0000000

LOEWDIN ATOMIC CHARGES
----------------------
   0 S :    0.389727
   1 C :   -0.207152
   2 C :   -0.057934
   3 C :   -0.047926
   4 C :   -0.188486
   5 H :    0.036345
   6 C :   -0.031007
   7 H :    0.029230
   8 H :    0.030190
   9 C :   -0.039900
  10 H :    0.021010
  11 H :    0.026503
  12 C :   -0.062960
  13 H :    0.022114
  14 H :    0.014268
  15 H :    0.033504
  16 S :    0.381489
  17 C :   -0.178322
  18 C :   -0.083003
  19 C :   -0.053702
  20 C :   -0.190154
  21 H :    0.035386
  22 C :   -0.035008
  23 H :    0.025327
  24 H :    0.033658
  25 C :   -0.036233
  26 H :    0.036954
  27 H :    0.022412
  28 C :   -0.070774
  29 H :    0.023594
  30 H :    0.019323
  31 H :    0.031141
  32 H :    0.046599
  33 H :    0.023786

  Mayer bond orders larger than 0.100000
B(  0-S ,  1-C ) :   1.1086 B(  0-S ,  4-C ) :   1.1418 B(  1-C ,  2-C ) :   1.6522
B(  1-C , 32-H ) :   0.9579 B(  2-C ,  3-C ) :   1.1974 B(  2-C ,  6-C ) :   1.0274
B(  3-C ,  4-C ) :   1.6042 B(  3-C ,  5-H ) :   0.9826 B(  4-C , 20-C ) :   1.0324
B(  6-C ,  7-H ) :   0.9425 B(  6-C ,  8-H ) :   0.9356 B(  6-C ,  9-C ) :   1.0698
B(  9-C , 10-H ) :   0.9537 B(  9-C , 11-H ) :   0.9564 B(  9-C , 12-C ) :   1.0728
B( 12-C , 13-H ) :   0.9752 B( 12-C , 14-H ) :   0.9763 B( 12-C , 15-H ) :   0.9725
B( 16-S , 17-C ) :   1.1592 B( 16-S , 20-C ) :   1.1145 B( 17-C , 18-C ) :   1.6209
B( 17-C , 20-C ) :   0.1019 B( 17-C , 33-H ) :   0.9672 B( 18-C , 19-C ) :   1.2368
B( 18-C , 21-H ) :   0.9868 B( 19-C , 20-C ) :   1.6207 B( 19-C , 22-C ) :   1.0211
B( 22-C , 23-H ) :   0.9411 B( 22-C , 24-H ) :   0.9363 B( 22-C , 25-C ) :   1.0572
B( 25-C , 26-H ) :   0.9548 B( 25-C , 27-H ) :   0.9556 B( 25-C , 28-C ) :   1.0651
B( 28-C , 29-H ) :   0.9746 B( 28-C , 30-H ) :   0.9790 B( 28-C , 31-H ) :   0.9753

Dispersion correction           -0.014766652
FINAL SINGLE POINT ENERGY     -1339.867310168711

DIPOLE MOMENT
-------------
                                X             Y             Z
Electronic contribution:    -12.67759      20.73507       5.34430
Nuclear contribution   :     12.87454     -21.15506      -5.57063
                        -----------------------------------------
Total Dipole Moment    :      0.19696      -0.41999      -0.22632
                        -----------------------------------------
Magnitude (a.u.)       :      0.51614
Magnitude (Debye)      :      1.31193

Rotational constants in cm-1:     0.020155     0.008028     0.006943
Rotational constants in MHz :   604.223133   240.671405   208.142427

                             ****ORCA TERMINATED NORMALLY****
TOTAL RUN TIME: 0 days 0 hours 0 minutes 20 seconds 651 msec
