                         Program Version 4.2.1 -  RELEASE  -
|  1> ! wB97X-D3 SP def2-SVP
|  2> %pal
|  3> nprocs 24
|  4> end
|  5>
|  6> * xyz 0 1
|  7> S 	 -113.649 	 35.7911 	 -121.631
|  8> C 	 -113.486 	 34.1348 	 -121.804
|  9> C 	 -114.537 	 33.632 	 -122.523
| 10> C 	 -115.593 	 34.5948 	 -122.804
| 11> C 	 -115.27 	 35.867 	 -122.402
| 12> H 	 -116.539 	 34.4672 	 -123.282
| 13> C 	 -114.587 	 32.1978 	 -123.008
| 14> H 	 -113.952 	 32.1592 	 -123.927
| 15> H 	 -115.574 	 31.886 	 -123.346
| 16> C 	 -114.263 	 31.0679 	 -121.969
| 17> H 	 -114.072 	 30.1873 	 -122.477
| 18> H 	 -113.318 	 31.2613 	 -121.434
| 19> C 	 -115.38 	 30.728 	 -120.919
| 20> H 	 -116.272 	 30.2431 	 -121.419
| 21> H 	 -114.905 	 30.1094 	 -120.082
| 22> H 	 -115.778 	 31.6409 	 -120.435
| 23> S 	 -114.849 	 38.2367 	 -123.699
| 24> C 	 -116.223 	 39.2475 	 -124.107
| 25> C 	 -117.368 	 38.7944 	 -123.439
| 26> C 	 -117.246 	 37.5516 	 -122.731
| 27> C 	 -115.933 	 37.1343 	 -122.821
| 28> H 	 -118.391 	 39.2701 	 -123.551
| 29> C 	 -118.337 	 36.8779 	 -121.873
| 30> H 	 -118.919 	 37.6569 	 -121.33
| 31> H 	 -117.993 	 36.1838 	 -121.122
| 32> C 	 -119.36 	 35.96 	 -122.7
| 33> H 	 -120.083 	 35.4444 	 -122.019
| 34> H 	 -118.771 	 35.2371 	 -123.271
| 35> C 	 -120.201 	 36.7585 	 -123.643
| 36> H 	 -120.994 	 37.4538 	 -123.235
| 37> H 	 -120.767 	 35.9661 	 -124.232
| 38> H 	 -119.593 	 37.3964 	 -124.354
| 39> H 	 -112.577 	 33.6035 	 -121.523
| 40> H 	 -116.269 	 40.1402 	 -124.707
| 41> *
| 42>
| 43>                          ****END OF INPUT****

CARTESIAN COORDINATES (ANGSTROEM)
---------------------------------
  S    -113.649000   35.791100  -121.631000
  C    -113.486000   34.134800  -121.804000
  C    -114.537000   33.632000  -122.523000
  C    -115.593000   34.594800  -122.804000
  C    -115.270000   35.867000  -122.402000
  H    -116.539000   34.467200  -123.282000
  C    -114.587000   32.197800  -123.008000
  H    -113.952000   32.159200  -123.927000
  H    -115.574000   31.886000  -123.346000
  C    -114.263000   31.067900  -121.969000
  H    -114.072000   30.187300  -122.477000
  H    -113.318000   31.261300  -121.434000
  C    -115.380000   30.728000  -120.919000
  H    -116.272000   30.243100  -121.419000
  H    -114.905000   30.109400  -120.082000
  H    -115.778000   31.640900  -120.435000
  S    -114.849000   38.236700  -123.699000
  C    -116.223000   39.247500  -124.107000
  C    -117.368000   38.794400  -123.439000
  C    -117.246000   37.551600  -122.731000
  C    -115.933000   37.134300  -122.821000
  H    -118.391000   39.270100  -123.551000
  C    -118.337000   36.877900  -121.873000
  H    -118.919000   37.656900  -121.330000
  H    -117.993000   36.183800  -121.122000
  C    -119.360000   35.960000  -122.700000
  H    -120.083000   35.444400  -122.019000
  H    -118.771000   35.237100  -123.271000
  C    -120.201000   36.758500  -123.643000
  H    -120.994000   37.453800  -123.235000
  H    -120.767000   35.966100  -124.232000
  H    -119.593000   37.396400  -124.354000
  H    -112.577000   33.603500  -121.523000
  H    -116.269000   40.140200  -124.707000

 Total Charge           Charge          ....    0
 Multiplicity           Mult            ....    1
 Number of Electrons    NEL             ....  134
 Basis Dimension        Dim             ....  322

ORBITAL ENERGIES
----------------

  NO   OCC          E(Eh)            E(eV)
   0   2.0000     -88.970475     -2421.0097
   1   2.0000     -88.961564     -2420.7672
   2   2.0000     -10.333457      -281.1876
   3   2.0000     -10.331853      -281.1440
   4   2.0000     -10.320809      -280.8435
   5   2.0000     -10.310198      -280.5547
   6   2.0000     -10.309273      -280.5296
   7   2.0000     -10.302556      -280.3468
   8   2.0000     -10.302101      -280.3344
   9   2.0000     -10.301388      -280.3150
  10   2.0000     -10.295811      -280.1633
  11   2.0000     -10.295497      -280.1547
  12   2.0000     -10.295073      -280.1432
  13   2.0000     -10.290268      -280.0124
  14   2.0000     -10.286686      -279.9150
  15   2.0000     -10.286632      -279.9135
  16   2.0000      -8.084478      -219.9898
  17   2.0000      -8.077305      -219.7946
  18   2.0000      -6.043048      -164.4397
  19   2.0000      -6.039149      -164.3336
  20   2.0000      -6.035791      -164.2422
  21   2.0000      -6.035123      -164.2240
  22   2.0000      -6.031561      -164.1271
  23   2.0000      -6.028110      -164.0332
  24   2.0000      -1.006349       -27.3841
  25   2.0000      -0.985190       -26.8084
  26   2.0000      -0.905022       -24.6269
  27   2.0000      -0.901578       -24.5332
  28   2.0000      -0.869192       -23.6519
  29   2.0000      -0.850827       -23.1522
  30   2.0000      -0.843748       -22.9596
  31   2.0000      -0.812779       -22.1168
  32   2.0000      -0.780212       -21.2306
  33   2.0000      -0.766558       -20.8591
  34   2.0000      -0.703498       -19.1432
  35   2.0000      -0.698910       -19.0183
  36   2.0000      -0.685534       -18.6543
  37   2.0000      -0.662834       -18.0366
  38   2.0000      -0.646729       -17.5984
  39   2.0000      -0.606305       -16.4984
  40   2.0000      -0.595120       -16.1940
  41   2.0000      -0.572723       -15.5846
  42   2.0000      -0.552221       -15.0267
  43   2.0000      -0.546845       -14.8804
  44   2.0000      -0.538242       -14.6463
  45   2.0000      -0.530332       -14.4311
  46   2.0000      -0.517817       -14.0905
  47   2.0000      -0.512317       -13.9409
  48   2.0000      -0.502873       -13.6839
  49   2.0000      -0.495558       -13.4848
  50   2.0000      -0.487086       -13.2543
  51   2.0000      -0.481153       -13.0928
  52   2.0000      -0.474755       -12.9187
  53   2.0000      -0.467804       -12.7296
  54   2.0000      -0.459114       -12.4931
  55   2.0000      -0.441970       -12.0266
  56   2.0000      -0.437950       -11.9172
  57   2.0000      -0.435201       -11.8424
  58   2.0000      -0.431538       -11.7428
  59   2.0000      -0.424375       -11.5478
  60   2.0000      -0.417261       -11.3543
  61   2.0000      -0.414706       -11.2847
  62   2.0000      -0.411121       -11.1872
  63   2.0000      -0.353200        -9.6111
  64   2.0000      -0.334260        -9.0957
  65   2.0000      -0.323171        -8.7939
  66   2.0000      -0.293507        -7.9867
  67   0.0000       0.032228         0.8770
  68   0.0000       0.064154         1.7457
  69   0.0000       0.112263         3.0548
  70   0.0000       0.122152         3.3239
  71   0.0000       0.127672         3.4741

MULLIKEN ATOMIC CHARGES
-----------------------
   0 S :    0.098198
   1 C :   -0.116607
   2 C :   -0.092182
   3 C :    0.061805
   4 C :   -0.153777
   5 H :   -0.006450
   6 C :    0.047737
   7 H :    0.051731
   8 H :    0.010683
   9 C :   -0.050895
  10 H :    0.011776
  11 H :    0.019949
  12 C :   -0.101912
  13 H :    0.044289
  14 H :    0.053019
  15 H :    0.042008
  16 S :    0.121262
  17 C :   -0.085680
  18 C :   -0.062052
  19 C :   -0.021547
  20 C :   -0.168312
  21 H :    0.038657
  22 C :    0.051865
  23 H :    0.037000
  24 H :    0.035770
  25 C :   -0.072945
  26 H :    0.042438
  27 H :    0.034531
  28 C :   -0.114153
  29 H :    0.041630
  30 H :    0.039541
  31 H :    0.044829
  32 H :    0.062391
  33 H :    0.055402
Sum of atomic charges:    0.0000000

LOEWDIN ATOMIC CHARGES
----------------------
   0 S :    0.410351
   1 C :   -0.217011
   2 C :   -0.071369
   3 C :   -0.056903
   4 C :   -0.185038
   5 H :    0.027085
   6 C :   -0.036219
   7 H :    0.040321
   8 H :    0.025711
   9 C :   -0.038961
  10 H :    0.014377
  11 H :    0.019822
  12 C :   -0.076472
  13 H :    0.029188
  14 H :    0.037606
  15 H :    0.026017
  16 S :    0.402039
  17 C :   -0.192289
  18 C :   -0.074746
  19 C :   -0.062972
  20 C :   -0.177180
  21 H :    0.037188
  22 C :   -0.028643
  23 H :    0.035785
  24 H :    0.031360
  25 C :   -0.041181
  26 H :    0.031350
  27 H :    0.022528
  28 C :   -0.086401
  29 H :    0.027554
  30 H :    0.032846
  31 H :    0.027443
  32 H :    0.035272
  33 H :    0.031543

  Mayer bond orders larger than 0.100000
B(  0-S ,  1-C ) :   1.1516 B(  0-S ,  4-C ) :   1.1480 B(  1-C ,  2-C ) :   1.5976
B(  1-C , 32-H ) :   0.9698 B(  2-C ,  3-C ) :   1.2326 B(  2-C ,  6-C ) :   1.0213
B(  3-C ,  4-C ) :   1.5801 B(  3-C ,  5-H ) :   0.9994 B(  4-C , 20-C ) :   1.0141
B(  6-C ,  7-H ) :   0.9378 B(  6-C ,  8-H ) :   0.9481 B(  6-C ,  9-C ) :   1.0674
B(  9-C , 10-H ) :   0.9535 B(  9-C , 11-H ) :   0.9588 B(  9-C , 12-C ) :   1.0683
B( 12-C , 13-H ) :   0.9737 B( 12-C , 14-H ) :   0.9743 B( 12-C , 15-H ) :   0.9793
B( 16-S , 17-C ) :   1.1370 B( 16-S , 20-C ) :   1.1472 B( 17-C , 18-C ) :   1.6235
B( 17-C , 33-H ) :   0.9695 B( 18-C , 19-C ) :   1.2352 B( 18-C , 21-H ) :   0.9668
B( 19-C , 20-C ) :   1.6201 B( 19-C , 22-C ) :   1.0286 B( 22-C , 23-H ) :   0.9450
B( 22-C , 24-H ) :   0.9419 B( 22-C , 25-C ) :   1.0596 B( 25-C , 26-H ) :   0.9549
B( 25-C , 27-H ) :   0.9528 B( 25-C , 28-C ) :   1.0806 B( 28-C , 29-H ) :   0.9750
B( 28-C , 30-H ) :   0.9711 B( 28-C , 31-H ) :   0.9688

Dispersion correction           -0.014343573
FINAL SINGLE POINT ENERGY     -1339.873704120419

DIPOLE MOMENT
-------------
                                X             Y             Z
Electronic contribution:     18.75882      20.49231      -1.63342
Nuclear contribution   :    -19.18687     -20.90213       1.47817
                        -----------------------------------------
Total Dipole Moment    :     -0.42805      -0.40982      -0.15526
                        -----------------------------------------
Magnitude (a.u.)       :      0.61260
Magnitude (Debye)      :      1.55711

Rotational constants in cm-1:     0.019692     0.008388     0.006386
Rotational constants in MHz :   590.343499   251.470097   191.432744

                             ****ORCA TERMINATED NORMALLY****
TOTAL RUN TIME: 0 days 0 hours 0 minutes 21 seconds 439 msec
