                         Program Version 4.2.1 -  RELEASE  -
|  1> ! wB97X-D3 SP def2-SVP
|  2> %pal
|  3> nprocs 24
|  4> end
|  5>
|  6> * xyz 0 1
|  7> S 	 -121.37 	 59.6262 	 -37.0437
|  8> C 	 -121.288 	 61.079 	 -37.9395
|  9> C 	 -120.562 	 62.061 	 -37.3093
| 10> C 	 -120.238 	 61.6834 	 -35.9478
| 11> C 	 -120.636 	 60.3823 	 -35.6621
| 12> H 	 -119.738 	 62.3251 	 -35.1517
| 13> C 	 -120.211 	 63.4097 	 -37.8918
| 14> H 	 -119.706 	 63.1458 	 -38.7973
| 15> H 	 -119.402 	 63.8484 	 -37.2342
| 16> C 	 -121.368 	 64.3326 	 -38.327
| 17> H 	 -121.008 	 65.228 	 -38.9438
| 18> H 	 -121.902 	 63.6931 	 -38.9393
| 19> C 	 -122.245 	 64.7373 	 -37.0969
| 20> H 	 -122.858 	 65.5545 	 -37.4399
| 21> H 	 -122.998 	 63.9685 	 -36.816
| 22> H 	 -121.691 	 64.9107 	 -36.1946
| 23> S 	 -122.183 	 59.1774 	 -33.7662
| 24> C 	 -121.469 	 58.8931 	 -32.1932
| 25> C 	 -120.167 	 59.3512 	 -32.0868
| 26> C 	 -119.665 	 59.8309 	 -33.3371
| 27> C 	 -120.566 	 59.7289 	 -34.3587
| 28> H 	 -119.671 	 59.2739 	 -31.0622
| 29> C 	 -118.266 	 60.4149 	 -33.5411
| 30> H 	 -118.261 	 61.5455 	 -33.5811
| 31> H 	 -117.903 	 60.0862 	 -34.52
| 32> C 	 -117.193 	 59.8674 	 -32.5574
| 33> H 	 -117.214 	 58.7636 	 -32.4857
| 34> H 	 -117.38 	 60.1977 	 -31.5028
| 35> C 	 -115.834 	 60.5367 	 -32.9668
| 36> H 	 -115.03 	 59.7964 	 -32.7204
| 37> H 	 -115.626 	 61.4094 	 -32.3112
| 38> H 	 -115.773 	 60.9697 	 -34.0196
| 39> H 	 -121.57 	 61.122 	 -39.024
| 40> H 	 -121.835 	 58.5183 	 -31.2666
| 41> *
| 42>
| 43>                          ****END OF INPUT****

CARTESIAN COORDINATES (ANGSTROEM)
---------------------------------
  S    -121.370000   59.626200  -37.043700
  C    -121.288000   61.079000  -37.939500
  C    -120.562000   62.061000  -37.309300
  C    -120.238000   61.683400  -35.947800
  C    -120.636000   60.382300  -35.662100
  H    -119.738000   62.325100  -35.151700
  C    -120.211000   63.409700  -37.891800
  H    -119.706000   63.145800  -38.797300
  H    -119.402000   63.848400  -37.234200
  C    -121.368000   64.332600  -38.327000
  H    -121.008000   65.228000  -38.943800
  H    -121.902000   63.693100  -38.939300
  C    -122.245000   64.737300  -37.096900
  H    -122.858000   65.554500  -37.439900
  H    -122.998000   63.968500  -36.816000
  H    -121.691000   64.910700  -36.194600
  S    -122.183000   59.177400  -33.766200
  C    -121.469000   58.893100  -32.193200
  C    -120.167000   59.351200  -32.086800
  C    -119.665000   59.830900  -33.337100
  C    -120.566000   59.728900  -34.358700
  H    -119.671000   59.273900  -31.062200
  C    -118.266000   60.414900  -33.541100
  H    -118.261000   61.545500  -33.581100
  H    -117.903000   60.086200  -34.520000
  C    -117.193000   59.867400  -32.557400
  H    -117.214000   58.763600  -32.485700
  H    -117.380000   60.197700  -31.502800
  C    -115.834000   60.536700  -32.966800
  H    -115.030000   59.796400  -32.720400
  H    -115.626000   61.409400  -32.311200
  H    -115.773000   60.969700  -34.019600
  H    -121.570000   61.122000  -39.024000
  H    -121.835000   58.518300  -31.266600

 Total Charge           Charge          ....    0
 Multiplicity           Mult            ....    1
 Number of Electrons    NEL             ....  134
 Basis Dimension        Dim             ....  322

ORBITAL ENERGIES
----------------

  NO   OCC          E(Eh)            E(eV)
   0   2.0000     -88.966907     -2420.9126
   1   2.0000     -88.966287     -2420.8958
   2   2.0000     -10.327766      -281.0328
   3   2.0000     -10.324995      -280.9574
   4   2.0000     -10.313966      -280.6573
   5   2.0000     -10.312646      -280.6214
   6   2.0000     -10.303688      -280.3776
   7   2.0000     -10.301880      -280.3284
   8   2.0000     -10.300835      -280.3000
   9   2.0000     -10.299504      -280.2638
  10   2.0000     -10.297836      -280.2184
  11   2.0000     -10.296011      -280.1687
  12   2.0000     -10.291363      -280.0422
  13   2.0000     -10.290987      -280.0320
  14   2.0000     -10.290431      -280.0169
  15   2.0000     -10.274324      -279.5786
  16   2.0000      -8.082572      -219.9380
  17   2.0000      -8.080000      -219.8680
  18   2.0000      -6.040935      -164.3822
  19   2.0000      -6.038626      -164.3194
  20   2.0000      -6.036989      -164.2748
  21   2.0000      -6.034804      -164.2154
  22   2.0000      -6.033389      -164.1769
  23   2.0000      -6.030512      -164.0986
  24   2.0000      -1.007755       -27.4224
  25   2.0000      -0.983149       -26.7528
  26   2.0000      -0.910770       -24.7833
  27   2.0000      -0.902913       -24.5695
  28   2.0000      -0.867653       -23.6100
  29   2.0000      -0.849026       -23.1032
  30   2.0000      -0.841291       -22.8927
  31   2.0000      -0.811102       -22.0712
  32   2.0000      -0.779957       -21.2237
  33   2.0000      -0.766861       -20.8673
  34   2.0000      -0.706173       -19.2159
  35   2.0000      -0.700293       -19.0559
  36   2.0000      -0.697733       -18.9863
  37   2.0000      -0.651006       -17.7148
  38   2.0000      -0.634389       -17.2626
  39   2.0000      -0.608997       -16.5717
  40   2.0000      -0.591312       -16.0904
  41   2.0000      -0.570281       -15.5181
  42   2.0000      -0.559662       -15.2292
  43   2.0000      -0.548229       -14.9181
  44   2.0000      -0.540121       -14.6974
  45   2.0000      -0.518762       -14.1162
  46   2.0000      -0.511372       -13.9151
  47   2.0000      -0.508651       -13.8411
  48   2.0000      -0.499505       -13.5922
  49   2.0000      -0.493450       -13.4275
  50   2.0000      -0.483871       -13.1668
  51   2.0000      -0.476517       -12.9667
  52   2.0000      -0.471325       -12.8254
  53   2.0000      -0.467320       -12.7164
  54   2.0000      -0.457432       -12.4473
  55   2.0000      -0.446672       -12.1546
  56   2.0000      -0.441577       -12.0159
  57   2.0000      -0.439014       -11.9462
  58   2.0000      -0.436397       -11.8750
  59   2.0000      -0.421940       -11.4816
  60   2.0000      -0.418807       -11.3963
  61   2.0000      -0.414226       -11.2717
  62   2.0000      -0.410893       -11.1810
  63   2.0000      -0.348735        -9.4895
  64   2.0000      -0.332340        -9.0434
  65   2.0000      -0.328171        -8.9300
  66   2.0000      -0.290965        -7.9176
  67   0.0000       0.028453         0.7742
  68   0.0000       0.070846         1.9278
  69   0.0000       0.108321         2.9476
  70   0.0000       0.113792         3.0964
  71   0.0000       0.136666         3.7189

MULLIKEN ATOMIC CHARGES
-----------------------
   0 S :    0.125627
   1 C :   -0.150948
   2 C :   -0.101822
   3 C :   -0.000328
   4 C :   -0.172210
   5 H :    0.037455
   6 C :    0.052031
   7 H :    0.021916
   8 H :    0.028948
   9 C :   -0.048977
  10 H :    0.049856
  11 H :    0.007800
  12 C :   -0.052554
  13 H :    0.031218
  14 H :    0.041451
  15 H :    0.033310
  16 S :    0.100583
  17 C :   -0.049418
  18 C :   -0.099866
  19 C :   -0.024843
  20 C :   -0.115024
  21 H :    0.046551
  22 C :    0.012870
  23 H :    0.052007
  24 H :    0.041877
  25 C :   -0.103815
  26 H :    0.046349
  27 H :    0.035310
  28 C :   -0.081963
  29 H :    0.044833
  30 H :    0.037780
  31 H :    0.050871
  32 H :    0.069211
  33 H :    0.033912
Sum of atomic charges:   -0.0000000

LOEWDIN ATOMIC CHARGES
----------------------
   0 S :    0.428266
   1 C :   -0.222508
   2 C :   -0.065663
   3 C :   -0.068083
   4 C :   -0.205766
   5 H :    0.042786
   6 C :   -0.038668
   7 H :    0.029694
   8 H :    0.031601
   9 C :   -0.033061
  10 H :    0.034956
  11 H :    0.013039
  12 C :   -0.068006
  13 H :    0.024845
  14 H :    0.034225
  15 H :    0.021597
  16 S :    0.384505
  17 C :   -0.182941
  18 C :   -0.083373
  19 C :   -0.058761
  20 C :   -0.180792
  21 H :    0.045512
  22 C :   -0.036238
  23 H :    0.034841
  24 H :    0.034698
  25 C :   -0.047485
  26 H :    0.027108
  27 H :    0.024613
  28 C :   -0.078478
  29 H :    0.032638
  30 H :    0.028247
  31 H :    0.032850
  32 H :    0.037014
  33 H :    0.026788

  Mayer bond orders larger than 0.100000
B(  0-S ,  1-C ) :   1.1459 B(  0-S ,  4-C ) :   1.1661 B(  1-C ,  2-C ) :   1.6074
B(  1-C , 32-H ) :   0.9578 B(  2-C ,  3-C ) :   1.2446 B(  2-C ,  6-C ) :   1.0131
B(  3-C ,  4-C ) :   1.5660 B(  3-C ,  5-H ) :   0.9784 B(  4-C , 20-C ) :   1.0252
B(  6-C ,  7-H ) :   0.9314 B(  6-C ,  8-H ) :   0.9466 B(  6-C ,  9-C ) :   1.0713
B(  9-C , 10-H ) :   0.9595 B(  9-C , 11-H ) :   0.9515 B(  9-C , 12-C ) :   1.0661
B( 12-C , 13-H ) :   0.9760 B( 12-C , 14-H ) :   0.9726 B( 12-C , 15-H ) :   0.9830
B( 16-S , 17-C ) :   1.1438 B( 16-S , 20-C ) :   1.1117 B( 17-C , 18-C ) :   1.6511
B( 17-C , 33-H ) :   0.9593 B( 18-C , 19-C ) :   1.2135 B( 18-C , 21-H ) :   0.9775
B( 19-C , 20-C ) :   1.6491 B( 19-C , 22-C ) :   1.0190 B( 22-C , 23-H ) :   0.9320
B( 22-C , 24-H ) :   0.9432 B( 22-C , 25-C ) :   1.0685 B( 25-C , 26-H ) :   0.9668
B( 25-C , 27-H ) :   0.9505 B( 25-C , 28-C ) :   1.0539 B( 28-C , 29-H ) :   0.9750
B( 28-C , 30-H ) :   0.9783 B( 28-C , 31-H ) :   0.9757

Dispersion correction           -0.013993927
FINAL SINGLE POINT ENERGY     -1339.865890263025

DIPOLE MOMENT
-------------
                                X             Y             Z
Electronic contribution:    -16.16691     -18.86654      -0.88180
Nuclear contribution   :     16.60450      19.35363       0.99967
                        -----------------------------------------
Total Dipole Moment    :      0.43759       0.48709       0.11787
                        -----------------------------------------
Magnitude (a.u.)       :      0.66531
Magnitude (Debye)      :      1.69108

Rotational constants in cm-1:     0.017851     0.008317     0.006738
Rotational constants in MHz :   535.163397   249.338846   202.011969

                             ****ORCA TERMINATED NORMALLY****
TOTAL RUN TIME: 0 days 0 hours 0 minutes 21 seconds 353 msec
