                         Program Version 4.2.1 -  RELEASE  -
|  1> ! wB97X-D3 SP def2-SVP
|  2> %pal
|  3> nprocs 24
|  4> end
|  5>
|  6> * xyz 0 1
|  7> S 	 23.5802 	 -8.2569 	 -109.909
|  8> C 	 23.386 	 -9.0286 	 -111.455
|  9> C 	 23.3143 	 -8.19794 	 -112.526
| 10> C 	 23.4418 	 -6.83786 	 -112.09
| 11> C 	 23.4217 	 -6.66468 	 -110.735
| 12> H 	 23.41 	 -5.90647 	 -112.538
| 13> C 	 23.2064 	 -8.6932 	 -113.946
| 14> H 	 22.4045 	 -8.13443 	 -114.433
| 15> H 	 22.8277 	 -9.72957 	 -113.991
| 16> C 	 24.5189 	 -8.73657 	 -114.756
| 17> H 	 24.8089 	 -7.73647 	 -115.046
| 18> H 	 25.3543 	 -9.17261 	 -114.233
| 19> C 	 24.3574 	 -9.56057 	 -116.09
| 20> H 	 23.6295 	 -9.08273 	 -116.751
| 21> H 	 25.3312 	 -9.61065 	 -116.627
| 22> H 	 24.05 	 -10.6531 	 -115.976
| 23> S 	 24.6521 	 -5.04343 	 -108.911
| 24> C 	 23.9141 	 -3.62138 	 -108.35
| 25> C 	 22.8773 	 -3.28461 	 -109.194
| 26> C 	 22.4654 	 -4.34074 	 -110.059
| 27> C 	 23.3267 	 -5.43302 	 -109.989
| 28> H 	 22.5117 	 -2.21162 	 -109.028
| 29> C 	 21.3716 	 -4.26728 	 -111.089
| 30> H 	 21.7442 	 -4.54873 	 -112.024
| 31> H 	 21.0401 	 -3.27461 	 -111.215
| 32> C 	 20.1511 	 -5.06829 	 -110.718
| 33> H 	 19.6844 	 -4.68646 	 -109.765
| 34> H 	 20.4496 	 -6.02362 	 -110.529
| 35> C 	 19.0328 	 -5.10737 	 -111.755
| 36> H 	 18.312 	 -5.8885 	 -111.481
| 37> H 	 19.3443 	 -5.17112 	 -112.77
| 38> H 	 18.6335 	 -4.15341 	 -111.888
| 39> H 	 23.2996 	 -10.1165 	 -111.605
| 40> H 	 24.4678 	 -2.87861 	 -107.798
| 41> *
| 42>
| 43>                          ****END OF INPUT****

CARTESIAN COORDINATES (ANGSTROEM)
---------------------------------
  S     23.580200   -8.256900  -109.909000
  C     23.386000   -9.028600  -111.455000
  C     23.314300   -8.197940  -112.526000
  C     23.441800   -6.837860  -112.090000
  C     23.421700   -6.664680  -110.735000
  H     23.410000   -5.906470  -112.538000
  C     23.206400   -8.693200  -113.946000
  H     22.404500   -8.134430  -114.433000
  H     22.827700   -9.729570  -113.991000
  C     24.518900   -8.736570  -114.756000
  H     24.808900   -7.736470  -115.046000
  H     25.354300   -9.172610  -114.233000
  C     24.357400   -9.560570  -116.090000
  H     23.629500   -9.082730  -116.751000
  H     25.331200   -9.610650  -116.627000
  H     24.050000  -10.653100  -115.976000
  S     24.652100   -5.043430  -108.911000
  C     23.914100   -3.621380  -108.350000
  C     22.877300   -3.284610  -109.194000
  C     22.465400   -4.340740  -110.059000
  C     23.326700   -5.433020  -109.989000
  H     22.511700   -2.211620  -109.028000
  C     21.371600   -4.267280  -111.089000
  H     21.744200   -4.548730  -112.024000
  H     21.040100   -3.274610  -111.215000
  C     20.151100   -5.068290  -110.718000
  H     19.684400   -4.686460  -109.765000
  H     20.449600   -6.023620  -110.529000
  C     19.032800   -5.107370  -111.755000
  H     18.312000   -5.888500  -111.481000
  H     19.344300   -5.171120  -112.770000
  H     18.633500   -4.153410  -111.888000
  H     23.299600  -10.116500  -111.605000
  H     24.467800   -2.878610  -107.798000

 Total Charge           Charge          ....    0
 Multiplicity           Mult            ....    1
 Number of Electrons    NEL             ....  134
 Basis Dimension        Dim             ....  322

ORBITAL ENERGIES
----------------

  NO   OCC          E(Eh)            E(eV)
   0   2.0000     -88.964469     -2420.8463
   1   2.0000     -88.961412     -2420.7631
   2   2.0000     -10.328743      -281.0594
   3   2.0000     -10.325058      -280.9591
   4   2.0000     -10.312823      -280.6262
   5   2.0000     -10.310669      -280.5676
   6   2.0000     -10.306019      -280.4410
   7   2.0000     -10.301569      -280.3200
   8   2.0000     -10.299947      -280.2758
   9   2.0000     -10.296347      -280.1778
  10   2.0000     -10.291595      -280.0485
  11   2.0000     -10.290363      -280.0150
  12   2.0000     -10.288876      -279.9746
  13   2.0000     -10.279960      -279.7319
  14   2.0000     -10.273823      -279.5649
  15   2.0000     -10.266716      -279.3715
  16   2.0000      -8.078918      -219.8385
  17   2.0000      -8.077407      -219.7974
  18   2.0000      -6.037434      -164.2869
  19   2.0000      -6.035639      -164.2381
  20   2.0000      -6.033653      -164.1841
  21   2.0000      -6.031773      -164.1329
  22   2.0000      -6.029490      -164.0708
  23   2.0000      -6.028329      -164.0392
  24   2.0000      -1.011298       -27.5188
  25   2.0000      -0.988486       -26.8981
  26   2.0000      -0.917337       -24.9620
  27   2.0000      -0.908760       -24.7286
  28   2.0000      -0.873224       -23.7616
  29   2.0000      -0.853533       -23.2258
  30   2.0000      -0.846469       -23.0336
  31   2.0000      -0.818295       -22.2670
  32   2.0000      -0.786906       -21.4128
  33   2.0000      -0.771295       -20.9880
  34   2.0000      -0.711884       -19.3713
  35   2.0000      -0.702428       -19.1140
  36   2.0000      -0.696062       -18.9408
  37   2.0000      -0.661985       -18.0135
  38   2.0000      -0.648769       -17.6539
  39   2.0000      -0.619230       -16.8501
  40   2.0000      -0.596544       -16.2328
  41   2.0000      -0.572067       -15.5667
  42   2.0000      -0.568030       -15.4569
  43   2.0000      -0.556187       -15.1346
  44   2.0000      -0.536142       -14.5892
  45   2.0000      -0.522963       -14.2305
  46   2.0000      -0.516821       -14.0634
  47   2.0000      -0.509052       -13.8520
  48   2.0000      -0.507237       -13.8026
  49   2.0000      -0.500508       -13.6195
  50   2.0000      -0.494279       -13.4500
  51   2.0000      -0.481261       -13.0958
  52   2.0000      -0.471599       -12.8328
  53   2.0000      -0.464073       -12.6281
  54   2.0000      -0.456971       -12.4348
  55   2.0000      -0.447417       -12.1748
  56   2.0000      -0.441152       -12.0044
  57   2.0000      -0.438970       -11.9450
  58   2.0000      -0.434942       -11.8354
  59   2.0000      -0.430496       -11.7144
  60   2.0000      -0.422957       -11.5093
  61   2.0000      -0.417103       -11.3500
  62   2.0000      -0.412085       -11.2134
  63   2.0000      -0.346483        -9.4283
  64   2.0000      -0.332437        -9.0461
  65   2.0000      -0.328409        -8.9365
  66   2.0000      -0.296252        -8.0614
  67   0.0000       0.029013         0.7895
  68   0.0000       0.064763         1.7623
  69   0.0000       0.108826         2.9613
  70   0.0000       0.121114         3.2957
  71   0.0000       0.137080         3.7301

MULLIKEN ATOMIC CHARGES
-----------------------
   0 S :    0.110962
   1 C :   -0.110793
   2 C :   -0.061511
   3 C :    0.075843
   4 C :   -0.178878
   5 H :   -0.021195
   6 C :    0.064409
   7 H :    0.029232
   8 H :    0.012834
   9 C :   -0.040651
  10 H :    0.027268
  11 H :    0.033452
  12 C :   -0.106764
  13 H :    0.035160
  14 H :    0.042537
  15 H :    0.043121
  16 S :    0.105070
  17 C :   -0.083533
  18 C :   -0.098518
  19 C :   -0.020013
  20 C :   -0.175016
  21 H :    0.048480
  22 C :    0.143588
  23 H :   -0.007124
  24 H :   -0.007608
  25 C :   -0.069219
  26 H :    0.030067
  27 H :    0.010446
  28 C :    0.009361
  29 H :    0.049241
  30 H :   -0.000582
  31 H :   -0.001835
  32 H :    0.050555
  33 H :    0.061615
Sum of atomic charges:    0.0000000

LOEWDIN ATOMIC CHARGES
----------------------
   0 S :    0.381339
   1 C :   -0.189631
   2 C :   -0.068082
   3 C :   -0.048220
   4 C :   -0.178440
   5 H :    0.020688
   6 C :   -0.033659
   7 H :    0.032122
   8 H :    0.031524
   9 C :   -0.032854
  10 H :    0.022449
  11 H :    0.025212
  12 C :   -0.076776
  13 H :    0.022424
  14 H :    0.030029
  15 H :    0.029158
  16 S :    0.428438
  17 C :   -0.208186
  18 C :   -0.082379
  19 C :   -0.051138
  20 C :   -0.202007
  21 H :    0.046450
  22 C :   -0.021419
  23 H :    0.018055
  24 H :    0.023665
  25 C :   -0.029043
  26 H :    0.031775
  27 H :    0.009087
  28 C :   -0.064048
  29 H :    0.034850
  30 H :    0.019851
  31 H :    0.016850
  32 H :    0.032525
  33 H :    0.029388

  Mayer bond orders larger than 0.100000
B(  0-S ,  1-C ) :   1.1330 B(  0-S ,  4-C ) :   1.1121 B(  1-C ,  2-C ) :   1.6624
B(  1-C , 32-H ) :   0.9564 B(  2-C ,  3-C ) :   1.1681 B(  2-C ,  6-C ) :   1.0336
B(  3-C ,  4-C ) :   1.6279 B(  3-C ,  5-H ) :   1.0044 B(  4-C , 20-C ) :   1.0463
B(  6-C ,  7-H ) :   0.9336 B(  6-C ,  8-H ) :   0.9418 B(  6-C ,  9-C ) :   1.0556
B(  9-C , 10-H ) :   0.9545 B(  9-C , 11-H ) :   0.9598 B(  9-C , 12-C ) :   1.0769
B( 12-C , 13-H ) :   0.9773 B( 12-C , 14-H ) :   0.9759 B( 12-C , 15-H ) :   0.9753
B( 16-S , 17-C ) :   1.1749 B( 16-S , 20-C ) :   1.1729 B( 17-C , 18-C ) :   1.5955
B( 17-C , 20-C ) :   0.1051 B( 17-C , 33-H ) :   0.9617 B( 18-C , 19-C ) :   1.2576
B( 18-C , 21-H ) :   0.9793 B( 19-C , 20-C ) :   1.5553 B( 19-C , 22-C ) :   1.0490
B( 22-C , 23-H ) :   0.9299 B( 22-C , 24-H ) :   0.9197 B( 22-C , 25-C ) :   1.0657
B( 25-C , 26-H ) :   0.9502 B( 25-C , 27-H ) :   0.9600 B( 25-C , 28-C ) :   1.0897
B( 28-C , 29-H ) :   0.9739 B( 28-C , 30-H ) :   0.9654 B( 28-C , 31-H ) :   0.9645

Dispersion correction           -0.014042509
FINAL SINGLE POINT ENERGY     -1339.861817266085

DIPOLE MOMENT
-------------
                                X             Y             Z
Electronic contribution:     13.15350       3.05616      25.04068
Nuclear contribution   :    -13.33121      -2.80883     -25.72921
                        -----------------------------------------
Total Dipole Moment    :     -0.17771       0.24733      -0.68852
                        -----------------------------------------
Magnitude (a.u.)       :      0.75287
Magnitude (Debye)      :      1.91364

Rotational constants in cm-1:     0.018866     0.008107     0.006709
Rotational constants in MHz :   565.582792   243.056095   201.118952

                             ****ORCA TERMINATED NORMALLY****
TOTAL RUN TIME: 0 days 0 hours 0 minutes 21 seconds 585 msec
