                         Program Version 4.2.1 -  RELEASE  -
|  1> ! wB97X-D3 SP def2-SVP
|  2> %pal
|  3> nprocs 24
|  4> end
|  5>
|  6> * xyz 0 1
|  7> S 	 -88.7006 	 -31.027 	 -61.5589
|  8> C 	 -88.7978 	 -29.4314 	 -62.3677
|  9> C 	 -88.2896 	 -28.4391 	 -61.5293
| 10> C 	 -87.9648 	 -28.9248 	 -60.2443
| 11> C 	 -87.9442 	 -30.3146 	 -60.2049
| 12> H 	 -87.6707 	 -28.3933 	 -59.392
| 13> C 	 -88.3512 	 -26.981 	 -61.8851
| 14> H 	 -87.9808 	 -26.8909 	 -62.9206
| 15> H 	 -87.6611 	 -26.4364 	 -61.2757
| 16> C 	 -89.6901 	 -26.3397 	 -61.74
| 17> H 	 -89.6501 	 -25.315 	 -62.2275
| 18> H 	 -90.4683 	 -26.9517 	 -62.2913
| 19> C 	 -90.1101 	 -26.2029 	 -60.251
| 20> H 	 -90.5075 	 -26.9903 	 -59.7058
| 21> H 	 -89.385 	 -25.8707 	 -59.5821
| 22> H 	 -90.9036 	 -25.4107 	 -60.1311
| 23> S 	 -88.9116 	 -32.2498 	 -58.5511
| 24> C 	 -88.0399 	 -32.7969 	 -57.1878
| 25> C 	 -86.9142 	 -32.096 	 -56.9938
| 26> C 	 -86.6698 	 -31.1226 	 -57.9621
| 27> C 	 -87.6376 	 -31.1414 	 -59.0265
| 28> H 	 -86.3735 	 -32.3734 	 -56.1221
| 29> C 	 -85.4117 	 -30.2045 	 -57.9577
| 30> H 	 -85.2759 	 -29.6091 	 -58.8712
| 31> H 	 -84.5081 	 -30.8227 	 -57.9843
| 32> C 	 -85.3314 	 -29.2514 	 -56.7816
| 33> H 	 -85.3995 	 -29.8854 	 -55.9334
| 34> H 	 -86.214 	 -28.5898 	 -56.7714
| 35> C 	 -83.9761 	 -28.4926 	 -56.6018
| 36> H 	 -84.2139 	 -27.629 	 -55.9782
| 37> H 	 -83.6779 	 -28.1284 	 -57.5604
| 38> H 	 -83.2477 	 -29.0201 	 -56.0041
| 39> H 	 -89.1803 	 -29.1874 	 -63.3318
| 40> H 	 -88.3015 	 -33.5953 	 -56.5335
| 41> *
| 42>
| 43>                          ****END OF INPUT****

CARTESIAN COORDINATES (ANGSTROEM)
---------------------------------
  S    -88.700600  -31.027000  -61.558900
  C    -88.797800  -29.431400  -62.367700
  C    -88.289600  -28.439100  -61.529300
  C    -87.964800  -28.924800  -60.244300
  C    -87.944200  -30.314600  -60.204900
  H    -87.670700  -28.393300  -59.392000
  C    -88.351200  -26.981000  -61.885100
  H    -87.980800  -26.890900  -62.920600
  H    -87.661100  -26.436400  -61.275700
  C    -89.690100  -26.339700  -61.740000
  H    -89.650100  -25.315000  -62.227500
  H    -90.468300  -26.951700  -62.291300
  C    -90.110100  -26.202900  -60.251000
  H    -90.507500  -26.990300  -59.705800
  H    -89.385000  -25.870700  -59.582100
  H    -90.903600  -25.410700  -60.131100
  S    -88.911600  -32.249800  -58.551100
  C    -88.039900  -32.796900  -57.187800
  C    -86.914200  -32.096000  -56.993800
  C    -86.669800  -31.122600  -57.962100
  C    -87.637600  -31.141400  -59.026500
  H    -86.373500  -32.373400  -56.122100
  C    -85.411700  -30.204500  -57.957700
  H    -85.275900  -29.609100  -58.871200
  H    -84.508100  -30.822700  -57.984300
  C    -85.331400  -29.251400  -56.781600
  H    -85.399500  -29.885400  -55.933400
  H    -86.214000  -28.589800  -56.771400
  C    -83.976100  -28.492600  -56.601800
  H    -84.213900  -27.629000  -55.978200
  H    -83.677900  -28.128400  -57.560400
  H    -83.247700  -29.020100  -56.004100
  H    -89.180300  -29.187400  -63.331800
  H    -88.301500  -33.595300  -56.533500

 Total Charge           Charge          ....    0
 Multiplicity           Mult            ....    1
 Number of Electrons    NEL             ....  134
 Basis Dimension        Dim             ....  322

ORBITAL ENERGIES
----------------

  NO   OCC          E(Eh)            E(eV)
   0   2.0000     -88.970070     -2420.9987
   1   2.0000     -88.963239     -2420.8128
   2   2.0000     -10.331352      -281.1304
   3   2.0000     -10.328809      -281.0612
   4   2.0000     -10.314193      -280.6635
   5   2.0000     -10.310236      -280.5558
   6   2.0000     -10.306401      -280.4514
   7   2.0000     -10.299376      -280.2603
   8   2.0000     -10.297369      -280.2056
   9   2.0000     -10.290556      -280.0203
  10   2.0000     -10.289112      -279.9810
  11   2.0000     -10.286752      -279.9167
  12   2.0000     -10.284490      -279.8552
  13   2.0000     -10.282658      -279.8053
  14   2.0000     -10.278257      -279.6856
  15   2.0000     -10.269970      -279.4601
  16   2.0000      -8.084607      -219.9933
  17   2.0000      -8.078806      -219.8355
  18   2.0000      -6.043061      -164.4401
  19   2.0000      -6.039167      -164.3341
  20   2.0000      -6.037115      -164.2782
  21   2.0000      -6.035392      -164.2314
  22   2.0000      -6.033125      -164.1697
  23   2.0000      -6.029779      -164.0786
  24   2.0000      -1.010916       -27.5084
  25   2.0000      -0.988912       -26.9097
  26   2.0000      -0.918828       -25.0026
  27   2.0000      -0.906645       -24.6711
  28   2.0000      -0.869529       -23.6611
  29   2.0000      -0.849625       -23.1195
  30   2.0000      -0.844601       -22.9828
  31   2.0000      -0.817818       -22.2540
  32   2.0000      -0.789111       -21.4728
  33   2.0000      -0.775436       -21.1007
  34   2.0000      -0.706988       -19.2381
  35   2.0000      -0.706638       -19.2286
  36   2.0000      -0.694659       -18.9026
  37   2.0000      -0.656021       -17.8513
  38   2.0000      -0.639739       -17.4082
  39   2.0000      -0.620418       -16.8824
  40   2.0000      -0.600510       -16.3407
  41   2.0000      -0.579523       -15.7696
  42   2.0000      -0.565372       -15.3846
  43   2.0000      -0.549280       -14.9467
  44   2.0000      -0.542507       -14.7624
  45   2.0000      -0.524125       -14.2622
  46   2.0000      -0.514876       -14.0105
  47   2.0000      -0.513206       -13.9650
  48   2.0000      -0.506236       -13.7754
  49   2.0000      -0.497814       -13.5462
  50   2.0000      -0.492986       -13.4148
  51   2.0000      -0.480155       -13.0657
  52   2.0000      -0.475090       -12.9279
  53   2.0000      -0.466170       -12.6851
  54   2.0000      -0.466028       -12.6813
  55   2.0000      -0.450205       -12.2507
  56   2.0000      -0.440244       -11.9797
  57   2.0000      -0.436386       -11.8747
  58   2.0000      -0.431133       -11.7317
  59   2.0000      -0.428432       -11.6582
  60   2.0000      -0.417841       -11.3700
  61   2.0000      -0.415695       -11.3116
  62   2.0000      -0.412714       -11.2305
  63   2.0000      -0.347602        -9.4587
  64   2.0000      -0.334150        -9.0927
  65   2.0000      -0.331133        -9.0106
  66   2.0000      -0.288344        -7.8462
  67   0.0000       0.024808         0.6751
  68   0.0000       0.073827         2.0089
  69   0.0000       0.109265         2.9732
  70   0.0000       0.124098         3.3769
  71   0.0000       0.132006         3.5921

MULLIKEN ATOMIC CHARGES
-----------------------
   0 S :    0.116863
   1 C :   -0.109708
   2 C :   -0.087761
   3 C :    0.049341
   4 C :   -0.141869
   5 H :   -0.010479
   6 C :    0.072534
   7 H :    0.029796
   8 H :    0.011067
   9 C :   -0.059665
  10 H :    0.044548
  11 H :    0.037254
  12 C :   -0.039303
  13 H :    0.025859
  14 H :    0.002252
  15 H :    0.026192
  16 S :    0.100077
  17 C :   -0.069539
  18 C :   -0.040297
  19 C :   -0.005936
  20 C :   -0.154558
  21 H :    0.007119
  22 C :    0.056449
  23 H :    0.018211
  24 H :    0.026524
  25 C :   -0.099164
  26 H :    0.011632
  27 H :    0.032475
  28 C :   -0.019457
  29 H :    0.026818
  30 H :    0.028088
  31 H :    0.038849
  32 H :    0.034351
  33 H :    0.041439
Sum of atomic charges:   -0.0000000

LOEWDIN ATOMIC CHARGES
----------------------
   0 S :    0.417531
   1 C :   -0.187480
   2 C :   -0.055824
   3 C :   -0.056423
   4 C :   -0.204492
   5 H :    0.022566
   6 C :   -0.038141
   7 H :    0.034841
   8 H :    0.024454
   9 C :   -0.037735
  10 H :    0.033593
  11 H :    0.030194
  12 C :   -0.071720
  13 H :    0.020031
  14 H :    0.014964
  15 H :    0.034418
  16 S :    0.421252
  17 C :   -0.191383
  18 C :   -0.076904
  19 C :   -0.051771
  20 C :   -0.197574
  21 H :    0.030944
  22 C :   -0.036247
  23 H :    0.025136
  24 H :    0.030518
  25 C :   -0.042605
  26 H :    0.016088
  27 H :    0.023342
  28 C :   -0.059455
  29 H :    0.030804
  30 H :    0.020298
  31 H :    0.027016
  32 H :    0.022705
  33 H :    0.027060

  Mayer bond orders larger than 0.100000
B(  0-S ,  1-C ) :   1.1295 B(  0-S ,  4-C ) :   1.1745 B(  1-C ,  2-C ) :   1.5890
B(  1-C ,  4-C ) :   0.1016 B(  1-C , 32-H ) :   0.9729 B(  2-C ,  3-C ) :   1.2513
B(  2-C ,  6-C ) :   1.0345 B(  3-C ,  4-C ) :   1.5405 B(  3-C ,  5-H ) :   1.0006
B(  4-C , 20-C ) :   1.0291 B(  6-C ,  7-H ) :   0.9317 B(  6-C ,  8-H ) :   0.9364
B(  6-C ,  9-C ) :   1.0858 B(  9-C , 10-H ) :   0.9541 B(  9-C , 11-H ) :   0.9533
B(  9-C , 12-C ) :   1.0621 B( 12-C , 13-H ) :   0.9749 B( 12-C , 14-H ) :   0.9734
B( 12-C , 15-H ) :   0.9727 B( 16-S , 17-C ) :   1.1640 B( 16-S , 20-C ) :   1.1649
B( 17-C , 18-C ) :   1.6089 B( 17-C , 20-C ) :   0.1039 B( 17-C , 33-H ) :   0.9656
B( 18-C , 19-C ) :   1.2543 B( 18-C , 21-H ) :   0.9986 B( 19-C , 20-C ) :   1.5528
B( 19-C , 22-C ) :   1.0316 B( 22-C , 23-H ) :   0.9391 B( 22-C , 24-H ) :   0.9431
B( 22-C , 25-C ) :   1.0578 B( 25-C , 26-H ) :   0.9581 B( 25-C , 27-H ) :   0.9585
B( 25-C , 28-C ) :   1.0772 B( 28-C , 29-H ) :   0.9735 B( 28-C , 30-H ) :   0.9768
B( 28-C , 31-H ) :   0.9763

Dispersion correction           -0.014107482
FINAL SINGLE POINT ENERGY     -1339.865656646132

DIPOLE MOMENT
-------------
                                X             Y             Z
Electronic contribution:     -9.40427     -25.13090      -7.53985
Nuclear contribution   :      9.62057      25.64257       7.89158
                        -----------------------------------------
Total Dipole Moment    :      0.21630       0.51166       0.35173
                        -----------------------------------------
Magnitude (a.u.)       :      0.65749
Magnitude (Debye)      :      1.67121

Rotational constants in cm-1:     0.016715     0.009198     0.006869
Rotational constants in MHz :   501.098019   275.738046   205.922935

                             ****ORCA TERMINATED NORMALLY****
TOTAL RUN TIME: 0 days 0 hours 0 minutes 21 seconds 482 msec
