                         Program Version 4.2.1 -  RELEASE  -
|  1> ! wB97X-D3 SP def2-SVP
|  2> %pal
|  3> nprocs 24
|  4> end
|  5>
|  6> * xyz 0 1
|  7> S 	 -142.012 	 10.768 	 -11.6381
|  8> C 	 -140.35 	 10.3947 	 -11.8344
|  9> C 	 -139.868 	 9.39525 	 -11.0299
| 10> C 	 -140.897 	 8.96377 	 -10.1298
| 11> C 	 -142.047 	 9.68564 	 -10.2466
| 12> H 	 -140.744 	 8.19589 	 -9.40686
| 13> C 	 -138.432 	 8.94592 	 -11.1998
| 14> H 	 -138.316 	 8.34604 	 -12.1029
| 15> H 	 -138.136 	 8.22829 	 -10.4601
| 16> C 	 -137.338 	 10.0117 	 -11.1689
| 17> H 	 -137.775 	 10.9054 	 -11.812
| 18> H 	 -137.344 	 10.4688 	 -10.1972
| 19> C 	 -135.903 	 9.59168 	 -11.4965
| 20> H 	 -135.65 	 8.92218 	 -10.7119
| 21> H 	 -135.798 	 9.01915 	 -12.3515
| 22> H 	 -135.209 	 10.4545 	 -11.445
| 23> S 	 -143.765 	 7.97259 	 -8.92055
| 24> C 	 -145.2 	 8.60313 	 -8.1678
| 25> C 	 -145.239 	 9.96639 	 -8.20237
| 26> C 	 -144.033 	 10.5202 	 -8.8355
| 27> C 	 -143.267 	 9.59352 	 -9.37976
| 28> H 	 -146.023 	 10.5863 	 -7.81898
| 29> C 	 -143.705 	 11.9982 	 -8.73373
| 30> H 	 -144.593 	 12.6146 	 -8.93551
| 31> H 	 -143.099 	 12.2141 	 -9.59944
| 32> C 	 -143.049 	 12.4943 	 -7.44922
| 33> H 	 -142.233 	 11.8762 	 -7.26584
| 34> H 	 -143.761 	 12.199 	 -6.71399
| 35> C 	 -142.805 	 13.9548 	 -7.26965
| 36> H 	 -142.628 	 14.1992 	 -6.2199
| 37> H 	 -143.664 	 14.512 	 -7.68845
| 38> H 	 -141.902 	 14.2802 	 -7.80398
| 39> H 	 -139.712 	 10.9937 	 -12.4548
| 40> H 	 -145.845 	 7.95184 	 -7.6571
| 41> *
| 42>
| 43>                          ****END OF INPUT****

CARTESIAN COORDINATES (ANGSTROEM)
---------------------------------
  S    -142.012000   10.768000  -11.638100
  C    -140.350000   10.394700  -11.834400
  C    -139.868000    9.395250  -11.029900
  C    -140.897000    8.963770  -10.129800
  C    -142.047000    9.685640  -10.246600
  H    -140.744000    8.195890   -9.406860
  C    -138.432000    8.945920  -11.199800
  H    -138.316000    8.346040  -12.102900
  H    -138.136000    8.228290  -10.460100
  C    -137.338000   10.011700  -11.168900
  H    -137.775000   10.905400  -11.812000
  H    -137.344000   10.468800  -10.197200
  C    -135.903000    9.591680  -11.496500
  H    -135.650000    8.922180  -10.711900
  H    -135.798000    9.019150  -12.351500
  H    -135.209000   10.454500  -11.445000
  S    -143.765000    7.972590   -8.920550
  C    -145.200000    8.603130   -8.167800
  C    -145.239000    9.966390   -8.202370
  C    -144.033000   10.520200   -8.835500
  C    -143.267000    9.593520   -9.379760
  H    -146.023000   10.586300   -7.818980
  C    -143.705000   11.998200   -8.733730
  H    -144.593000   12.614600   -8.935510
  H    -143.099000   12.214100   -9.599440
  C    -143.049000   12.494300   -7.449220
  H    -142.233000   11.876200   -7.265840
  H    -143.761000   12.199000   -6.713990
  C    -142.805000   13.954800   -7.269650
  H    -142.628000   14.199200   -6.219900
  H    -143.664000   14.512000   -7.688450
  H    -141.902000   14.280200   -7.803980
  H    -139.712000   10.993700  -12.454800
  H    -145.845000    7.951840   -7.657100

 Total Charge           Charge          ....    0
 Multiplicity           Mult            ....    1
 Number of Electrons    NEL             ....  134
 Basis Dimension        Dim             ....  322

ORBITAL ENERGIES
----------------

  NO   OCC          E(Eh)            E(eV)
   0   2.0000     -88.968270     -2420.9497
   1   2.0000     -88.959154     -2420.7017
   2   2.0000     -10.330504      -281.1073
   3   2.0000     -10.321959      -280.8748
   4   2.0000     -10.314280      -280.6658
   5   2.0000     -10.306038      -280.4416
   6   2.0000     -10.300466      -280.2899
   7   2.0000     -10.297275      -280.2031
   8   2.0000     -10.294444      -280.1261
   9   2.0000     -10.294273      -280.1214
  10   2.0000     -10.293662      -280.1048
  11   2.0000     -10.291056      -280.0339
  12   2.0000     -10.283618      -279.8315
  13   2.0000     -10.277535      -279.6660
  14   2.0000     -10.277178      -279.6562
  15   2.0000     -10.270425      -279.4725
  16   2.0000      -8.083129      -219.9531
  17   2.0000      -8.074720      -219.7243
  18   2.0000      -6.041486      -164.3972
  19   2.0000      -6.037764      -164.2959
  20   2.0000      -6.033901      -164.1908
  21   2.0000      -6.033297      -164.1744
  22   2.0000      -6.029254      -164.0643
  23   2.0000      -6.025226      -163.9547
  24   2.0000      -1.010335       -27.4926
  25   2.0000      -0.989800       -26.9338
  26   2.0000      -0.913616       -24.8607
  27   2.0000      -0.910898       -24.7868
  28   2.0000      -0.869043       -23.6478
  29   2.0000      -0.856714       -23.3124
  30   2.0000      -0.850465       -23.1423
  31   2.0000      -0.819382       -22.2965
  32   2.0000      -0.785592       -21.3770
  33   2.0000      -0.775292       -21.0968
  34   2.0000      -0.706157       -19.2155
  35   2.0000      -0.700624       -19.0650
  36   2.0000      -0.693102       -18.8603
  37   2.0000      -0.671344       -18.2682
  38   2.0000      -0.643669       -17.5151
  39   2.0000      -0.617780       -16.8107
  40   2.0000      -0.600047       -16.3281
  41   2.0000      -0.574713       -15.6387
  42   2.0000      -0.566433       -15.4134
  43   2.0000      -0.555592       -15.1184
  44   2.0000      -0.530095       -14.4246
  45   2.0000      -0.525967       -14.3123
  46   2.0000      -0.521470       -14.1899
  47   2.0000      -0.515790       -14.0353
  48   2.0000      -0.510666       -13.8959
  49   2.0000      -0.504398       -13.7254
  50   2.0000      -0.486102       -13.2275
  51   2.0000      -0.479972       -13.0607
  52   2.0000      -0.470275       -12.7968
  53   2.0000      -0.465507       -12.6671
  54   2.0000      -0.462741       -12.5918
  55   2.0000      -0.455525       -12.3955
  56   2.0000      -0.448763       -12.2115
  57   2.0000      -0.442514       -12.0414
  58   2.0000      -0.436231       -11.8705
  59   2.0000      -0.430681       -11.7194
  60   2.0000      -0.421831       -11.4786
  61   2.0000      -0.406087       -11.0502
  62   2.0000      -0.403276       -10.9737
  63   2.0000      -0.350590        -9.5401
  64   2.0000      -0.333470        -9.0742
  65   2.0000      -0.327513        -8.9121
  66   2.0000      -0.295440        -8.0393
  67   0.0000       0.032962         0.8969
  68   0.0000       0.079388         2.1603
  69   0.0000       0.107104         2.9145
  70   0.0000       0.112264         3.0549
  71   0.0000       0.134540         3.6610

MULLIKEN ATOMIC CHARGES
-----------------------
   0 S :    0.129629
   1 C :   -0.137112
   2 C :   -0.067810
   3 C :    0.019720
   4 C :   -0.125189
   5 H :    0.001718
   6 C :    0.096809
   7 H :    0.034006
   8 H :   -0.001396
   9 C :   -0.136092
  10 H :    0.025564
  11 H :    0.025541
  12 C :    0.009005
  13 H :    0.016393
  14 H :    0.018120
  15 H :    0.048504
  16 S :    0.084450
  17 C :   -0.063888
  18 C :   -0.002651
  19 C :   -0.097331
  20 C :   -0.129409
  21 H :    0.014370
  22 C :    0.074068
  23 H :    0.008029
  24 H :   -0.001947
  25 C :   -0.015588
  26 H :    0.009889
  27 H :    0.002434
  28 C :   -0.027539
  29 H :    0.038285
  30 H :    0.030291
  31 H :    0.032186
  32 H :    0.044317
  33 H :    0.042624
Sum of atomic charges:   -0.0000000

LOEWDIN ATOMIC CHARGES
----------------------
   0 S :    0.424907
   1 C :   -0.197875
   2 C :   -0.061636
   3 C :   -0.059170
   4 C :   -0.180438
   5 H :    0.026737
   6 C :   -0.036283
   7 H :    0.033292
   8 H :    0.022704
   9 C :   -0.045256
  10 H :    0.024302
  11 H :    0.021632
  12 C :   -0.055662
  13 H :    0.024848
  14 H :    0.015428
  15 H :    0.037803
  16 S :    0.391360
  17 C :   -0.168076
  18 C :   -0.062005
  19 C :   -0.061672
  20 C :   -0.188374
  21 H :    0.028935
  22 C :   -0.033498
  23 H :    0.025868
  24 H :    0.011422
  25 C :   -0.038848
  26 H :    0.017609
  27 H :    0.020315
  28 C :   -0.061023
  29 H :    0.030610
  30 H :    0.028846
  31 H :    0.026456
  32 H :    0.018478
  33 H :    0.018264

  Mayer bond orders larger than 0.100000
B(  0-S ,  1-C ) :   1.1491 B(  0-S ,  4-C ) :   1.1502 B(  1-C ,  2-C ) :   1.6186
B(  1-C , 32-H ) :   0.9628 B(  2-C ,  3-C ) :   1.2461 B(  2-C ,  6-C ) :   1.0173
B(  3-C ,  4-C ) :   1.5793 B(  3-C ,  5-H ) :   1.0008 B(  4-C , 20-C ) :   1.0038
B(  6-C ,  7-H ) :   0.9348 B(  6-C ,  8-H ) :   0.9344 B(  6-C ,  9-C ) :   1.0560
B(  9-C , 10-H ) :   0.9554 B(  9-C , 11-H ) :   0.9544 B(  9-C , 12-C ) :   1.0744
B( 12-C , 13-H ) :   0.9693 B( 12-C , 14-H ) :   0.9766 B( 12-C , 15-H ) :   0.9720
B( 16-S , 17-C ) :   1.1445 B( 16-S , 20-C ) :   1.1118 B( 17-C , 18-C ) :   1.6263
B( 17-C , 33-H ) :   0.9770 B( 18-C , 19-C ) :   1.1892 B( 18-C , 21-H ) :   0.9966
B( 19-C , 20-C ) :   1.6896 B( 19-C , 22-C ) :   1.0546 B( 22-C , 23-H ) :   0.9240
B( 22-C , 24-H ) :   0.9174 B( 22-C , 25-C ) :   1.0664 B( 25-C , 26-H ) :   0.9483
B( 25-C , 27-H ) :   0.9484 B( 25-C , 28-C ) :   1.0897 B( 28-C , 29-H ) :   0.9722
B( 28-C , 30-H ) :   0.9707 B( 28-C , 31-H ) :   0.9743

Dispersion correction           -0.013620117
FINAL SINGLE POINT ENERGY     -1339.875243189246

DIPOLE MOMENT
-------------
                                X             Y             Z
Electronic contribution:    -19.28118     -13.16284      -5.14184
Nuclear contribution   :     19.65871      13.32352       5.44255
                        -----------------------------------------
Total Dipole Moment    :      0.37753       0.16068       0.30070
                        -----------------------------------------
Magnitude (a.u.)       :      0.50870
Magnitude (Debye)      :      1.29300

Rotational constants in cm-1:     0.019915     0.007484     0.006296
Rotational constants in MHz :   597.035176   224.367942   188.747010

                             ****ORCA TERMINATED NORMALLY****
TOTAL RUN TIME: 0 days 0 hours 0 minutes 21 seconds 57 msec
