                         Program Version 4.2.1 -  RELEASE  -
|  1> ! wB97X-D3 SP def2-SVP
|  2> %pal
|  3> nprocs 24
|  4> end
|  5>
|  6> * xyz 0 1
|  7> S 	 -51.8913 	 -41.9879 	 -76.876
|  8> C 	 -53.4169 	 -41.6649 	 -76.1449
|  9> C 	 -54.5727 	 -41.8301 	 -76.9401
| 10> C 	 -54.1044 	 -42.5046 	 -78.1598
| 11> C 	 -52.7368 	 -42.3948 	 -78.3936
| 12> H 	 -54.7724 	 -42.7162 	 -79.0377
| 13> C 	 -56.0068 	 -41.5627 	 -76.6142
| 14> H 	 -56.5747 	 -41.8474 	 -77.5164
| 15> H 	 -56.1343 	 -40.46 	 -76.5687
| 16> C 	 -56.5911 	 -42.1492 	 -75.3122
| 17> H 	 -56.6974 	 -43.2412 	 -75.4166
| 18> H 	 -55.8895 	 -42.0114 	 -74.5156
| 19> C 	 -57.9696 	 -41.587 	 -74.8535
| 20> H 	 -58.8053 	 -41.605 	 -75.6423
| 21> H 	 -58.3527 	 -42.2117 	 -74.0323
| 22> H 	 -57.929 	 -40.5985 	 -74.5489
| 23> S 	 -52.4179 	 -44.2658 	 -80.3953
| 24> C 	 -51.5421 	 -43.7797 	 -81.9007
| 25> C 	 -50.8556 	 -42.5792 	 -81.6756
| 26> C 	 -51.1522 	 -41.8975 	 -80.4667
| 27> C 	 -51.9798 	 -42.7009 	 -79.6453
| 28> H 	 -50.2447 	 -42.1429 	 -82.4804
| 29> C 	 -50.674 	 -40.5366 	 -80.0967
| 30> H 	 -51.4908 	 -40.1209 	 -79.515
| 31> H 	 -50.7009 	 -39.9316 	 -80.9769
| 32> C 	 -49.2963 	 -40.3187 	 -79.4591
| 33> H 	 -49.3829 	 -40.665 	 -78.3676
| 34> H 	 -48.9507 	 -39.2908 	 -79.4225
| 35> C 	 -48.1052 	 -41.1091 	 -80.0821
| 36> H 	 -47.9462 	 -40.7609 	 -81.1286
| 37> H 	 -48.2245 	 -42.1963 	 -80.0011
| 38> H 	 -47.2744 	 -40.778 	 -79.4756
| 39> H 	 -53.4693 	 -41.2129 	 -75.1303
| 40> H 	 -51.5546 	 -44.3692 	 -82.8244
| 41> *
| 42>
| 43>                          ****END OF INPUT****

CARTESIAN COORDINATES (ANGSTROEM)
---------------------------------
  S    -51.891300  -41.987900  -76.876000
  C    -53.416900  -41.664900  -76.144900
  C    -54.572700  -41.830100  -76.940100
  C    -54.104400  -42.504600  -78.159800
  C    -52.736800  -42.394800  -78.393600
  H    -54.772400  -42.716200  -79.037700
  C    -56.006800  -41.562700  -76.614200
  H    -56.574700  -41.847400  -77.516400
  H    -56.134300  -40.460000  -76.568700
  C    -56.591100  -42.149200  -75.312200
  H    -56.697400  -43.241200  -75.416600
  H    -55.889500  -42.011400  -74.515600
  C    -57.969600  -41.587000  -74.853500
  H    -58.805300  -41.605000  -75.642300
  H    -58.352700  -42.211700  -74.032300
  H    -57.929000  -40.598500  -74.548900
  S    -52.417900  -44.265800  -80.395300
  C    -51.542100  -43.779700  -81.900700
  C    -50.855600  -42.579200  -81.675600
  C    -51.152200  -41.897500  -80.466700
  C    -51.979800  -42.700900  -79.645300
  H    -50.244700  -42.142900  -82.480400
  C    -50.674000  -40.536600  -80.096700
  H    -51.490800  -40.120900  -79.515000
  H    -50.700900  -39.931600  -80.976900
  C    -49.296300  -40.318700  -79.459100
  H    -49.382900  -40.665000  -78.367600
  H    -48.950700  -39.290800  -79.422500
  C    -48.105200  -41.109100  -80.082100
  H    -47.946200  -40.760900  -81.128600
  H    -48.224500  -42.196300  -80.001100
  H    -47.274400  -40.778000  -79.475600
  H    -53.469300  -41.212900  -75.130300
  H    -51.554600  -44.369200  -82.824400

 Total Charge           Charge          ....    0
 Multiplicity           Mult            ....    1
 Number of Electrons    NEL             ....  134
 Basis Dimension        Dim             ....  322

ORBITAL ENERGIES
----------------

  NO   OCC          E(Eh)            E(eV)
   0   2.0000     -88.970087     -2420.9991
   1   2.0000     -88.966384     -2420.8984
   2   2.0000     -10.334229      -281.2087
   3   2.0000     -10.333779      -281.1964
   4   2.0000     -10.324827      -280.9528
   5   2.0000     -10.317764      -280.7606
   6   2.0000     -10.309789      -280.5436
   7   2.0000     -10.306245      -280.4472
   8   2.0000     -10.303135      -280.3626
   9   2.0000     -10.299491      -280.2634
  10   2.0000     -10.298398      -280.2337
  11   2.0000     -10.292146      -280.0635
  12   2.0000     -10.290627      -280.0222
  13   2.0000     -10.285352      -279.8787
  14   2.0000     -10.283774      -279.8357
  15   2.0000     -10.278142      -279.6825
  16   2.0000      -8.084290      -219.9847
  17   2.0000      -8.079377      -219.8510
  18   2.0000      -6.042718      -164.4307
  19   2.0000      -6.038959      -164.3284
  20   2.0000      -6.037973      -164.3016
  21   2.0000      -6.035102      -164.2235
  22   2.0000      -6.034110      -164.1965
  23   2.0000      -6.030172      -164.0893
  24   2.0000      -0.996430       -27.1142
  25   2.0000      -0.974741       -26.5240
  26   2.0000      -0.908685       -24.7266
  27   2.0000      -0.904146       -24.6031
  28   2.0000      -0.859910       -23.3993
  29   2.0000      -0.850798       -23.1514
  30   2.0000      -0.844437       -22.9783
  31   2.0000      -0.808238       -21.9933
  32   2.0000      -0.784581       -21.3495
  33   2.0000      -0.769211       -20.9313
  34   2.0000      -0.709212       -19.2986
  35   2.0000      -0.697910       -18.9911
  36   2.0000      -0.683401       -18.5963
  37   2.0000      -0.659683       -17.9509
  38   2.0000      -0.635185       -17.2843
  39   2.0000      -0.608176       -16.5493
  40   2.0000      -0.586889       -15.9701
  41   2.0000      -0.566961       -15.4278
  42   2.0000      -0.558411       -15.1951
  43   2.0000      -0.552427       -15.0323
  44   2.0000      -0.546433       -14.8692
  45   2.0000      -0.522131       -14.2079
  46   2.0000      -0.513658       -13.9773
  47   2.0000      -0.505327       -13.7506
  48   2.0000      -0.502053       -13.6616
  49   2.0000      -0.491346       -13.3702
  50   2.0000      -0.489816       -13.3286
  51   2.0000      -0.470506       -12.8031
  52   2.0000      -0.465039       -12.6543
  53   2.0000      -0.462377       -12.5819
  54   2.0000      -0.456903       -12.4330
  55   2.0000      -0.445596       -12.1253
  56   2.0000      -0.444331       -12.0908
  57   2.0000      -0.437004       -11.8915
  58   2.0000      -0.435886       -11.8611
  59   2.0000      -0.429718       -11.6932
  60   2.0000      -0.420641       -11.4462
  61   2.0000      -0.420410       -11.4399
  62   2.0000      -0.407335       -11.0841
  63   2.0000      -0.340946        -9.2776
  64   2.0000      -0.333898        -9.0858
  65   2.0000      -0.324280        -8.8241
  66   2.0000      -0.289905        -7.8887
  67   0.0000       0.024510         0.6670
  68   0.0000       0.066270         1.8033
  69   0.0000       0.099714         2.7134
  70   0.0000       0.107532         2.9261
  71   0.0000       0.123332         3.3560

MULLIKEN ATOMIC CHARGES
-----------------------
   0 S :    0.125283
   1 C :   -0.136468
   2 C :   -0.114905
   3 C :    0.015680
   4 C :   -0.176797
   5 H :    0.040765
   6 C :    0.074671
   7 H :    0.023629
   8 H :    0.038233
   9 C :   -0.067914
  10 H :    0.037340
  11 H :    0.024962
  12 C :   -0.060706
  13 H :    0.036096
  14 H :    0.040012
  15 H :    0.022557
  16 S :    0.095362
  17 C :   -0.120152
  18 C :   -0.026955
  19 C :   -0.051003
  20 C :   -0.153109
  21 H :    0.027310
  22 C :    0.108002
  23 H :    0.032282
  24 H :    0.007349
  25 C :   -0.092787
  26 H :    0.029886
  27 H :    0.034137
  28 C :   -0.065618
  29 H :    0.033184
  30 H :    0.056077
  31 H :    0.033017
  32 H :    0.060357
  33 H :    0.070222
Sum of atomic charges:    0.0000000

LOEWDIN ATOMIC CHARGES
----------------------
   0 S :    0.410556
   1 C :   -0.209876
   2 C :   -0.061748
   3 C :   -0.066356
   4 C :   -0.194265
   5 H :    0.037011
   6 C :   -0.040052
   7 H :    0.034702
   8 H :    0.039576
   9 C :   -0.037198
  10 H :    0.029353
  11 H :    0.021313
  12 C :   -0.066311
  13 H :    0.032320
  14 H :    0.031891
  15 H :    0.012157
  16 S :    0.374098
  17 C :   -0.175668
  18 C :   -0.070099
  19 C :   -0.056232
  20 C :   -0.183498
  21 H :    0.034601
  22 C :   -0.041322
  23 H :    0.036155
  24 H :    0.027846
  25 C :   -0.041886
  26 H :    0.023842
  27 H :    0.025004
  28 C :   -0.067509
  29 H :    0.024549
  30 H :    0.028566
  31 H :    0.026972
  32 H :    0.028103
  33 H :    0.033406

  Mayer bond orders larger than 0.100000
B(  0-S ,  1-C ) :   1.1611 B(  0-S ,  4-C ) :   1.1326 B(  1-C ,  2-C ) :   1.6074
B(  1-C , 32-H ) :   0.9560 B(  2-C ,  3-C ) :   1.2420 B(  2-C ,  6-C ) :   1.0347
B(  3-C ,  4-C ) :   1.6095 B(  3-C ,  5-H ) :   0.9638 B(  4-C , 20-C ) :   1.0187
B(  6-C ,  7-H ) :   0.9351 B(  6-C ,  8-H ) :   0.9316 B(  6-C ,  9-C ) :   1.0578
B(  9-C , 10-H ) :   0.9579 B(  9-C , 11-H ) :   0.9567 B(  9-C , 12-C ) :   1.0787
B( 12-C , 13-H ) :   0.9765 B( 12-C , 14-H ) :   0.9747 B( 12-C , 15-H ) :   0.9764
B( 16-S , 17-C ) :   1.1378 B( 16-S , 20-C ) :   1.1455 B( 17-C , 18-C ) :   1.6025
B( 17-C , 20-C ) :   0.1042 B( 17-C , 33-H ) :   0.9683 B( 18-C , 19-C ) :   1.2492
B( 18-C , 21-H ) :   0.9800 B( 19-C , 20-C ) :   1.5683 B( 19-C , 22-C ) :   1.0490
B( 22-C , 23-H ) :   0.9261 B( 22-C , 24-H ) :   0.9215 B( 22-C , 25-C ) :   1.0643
B( 25-C , 26-H ) :   0.9508 B( 25-C , 27-H ) :   0.9579 B( 25-C , 28-C ) :   1.0816
B( 28-C , 29-H ) :   0.9748 B( 28-C , 30-H ) :   0.9719 B( 28-C , 31-H ) :   0.9745

Dispersion correction           -0.014296379
FINAL SINGLE POINT ENERGY     -1339.873502587190

DIPOLE MOMENT
-------------
                                X             Y             Z
Electronic contribution:      6.17813     -11.87899      -6.79361
Nuclear contribution   :     -6.45389      12.36822       6.76334
                        -----------------------------------------
Total Dipole Moment    :     -0.27576       0.48923      -0.03027
                        -----------------------------------------
Magnitude (a.u.)       :      0.56241
Magnitude (Debye)      :      1.42954

Rotational constants in cm-1:     0.024989     0.006850     0.005828
Rotational constants in MHz :   749.136975   205.370100   174.708295

                             ****ORCA TERMINATED NORMALLY****
TOTAL RUN TIME: 0 days 0 hours 0 minutes 20 seconds 735 msec
