                         Program Version 4.2.1 -  RELEASE  -
|  1> ! wB97X-D3 SP def2-SVP
|  2> %pal
|  3> nprocs 24
|  4> end
|  5>
|  6> * xyz 0 1
|  7> S 	 -53.9163 	 -54.0481 	 -80.1529
|  8> C 	 -53.1826 	 -53.4755 	 -78.6628
|  9> C 	 -53.2257 	 -52.0694 	 -78.5868
| 10> C 	 -54.0068 	 -51.5091 	 -79.61
| 11> C 	 -54.4761 	 -52.431 	 -80.5023
| 12> H 	 -54.1239 	 -50.4759 	 -79.7467
| 13> C 	 -52.4166 	 -51.2239 	 -77.5617
| 14> H 	 -51.7405 	 -50.6233 	 -78.1996
| 15> H 	 -51.7726 	 -51.8674 	 -77.0034
| 16> C 	 -53.3093 	 -50.2861 	 -76.7844
| 17> H 	 -53.6074 	 -49.4211 	 -77.416
| 18> H 	 -54.1766 	 -50.8098 	 -76.4324
| 19> C 	 -52.5196 	 -49.8049 	 -75.5164
| 20> H 	 -53.1314 	 -49.0787 	 -74.9581
| 21> H 	 -52.2755 	 -50.6499 	 -74.8457
| 22> H 	 -51.6002 	 -49.3167 	 -75.8746
| 23> S 	 -54.7402 	 -53.4647 	 -83.0409
| 24> C 	 -55.9052 	 -52.7834 	 -84.1036
| 25> C 	 -56.421 	 -51.6291 	 -83.629
| 26> C 	 -55.9885 	 -51.2921 	 -82.3192
| 27> C 	 -55.0595 	 -52.1893 	 -81.8266
| 28> H 	 -57.265 	 -51.176 	 -84.1402
| 29> C 	 -56.5744 	 -50.1026 	 -81.5922
| 30> H 	 -57.0358 	 -49.5172 	 -82.3935
| 31> H 	 -55.6357 	 -49.5701 	 -81.2387
| 32> C 	 -57.4438 	 -50.2755 	 -80.2757
| 33> H 	 -57.4198 	 -49.3153 	 -79.8501
| 34> H 	 -57.0804 	 -51.0574 	 -79.6395
| 35> C 	 -58.864 	 -50.5972 	 -80.6685
| 36> H 	 -58.9798 	 -51.5683 	 -81.1787
| 37> H 	 -59.1675 	 -49.8948 	 -81.3623
| 38> H 	 -59.5024 	 -50.6189 	 -79.8324
| 39> H 	 -52.7192 	 -54.1164 	 -77.9354
| 40> H 	 -56.2573 	 -53.1678 	 -85.0838
| 41> *
| 42>
| 43>                          ****END OF INPUT****

CARTESIAN COORDINATES (ANGSTROEM)
---------------------------------
  S    -53.916300  -54.048100  -80.152900
  C    -53.182600  -53.475500  -78.662800
  C    -53.225700  -52.069400  -78.586800
  C    -54.006800  -51.509100  -79.610000
  C    -54.476100  -52.431000  -80.502300
  H    -54.123900  -50.475900  -79.746700
  C    -52.416600  -51.223900  -77.561700
  H    -51.740500  -50.623300  -78.199600
  H    -51.772600  -51.867400  -77.003400
  C    -53.309300  -50.286100  -76.784400
  H    -53.607400  -49.421100  -77.416000
  H    -54.176600  -50.809800  -76.432400
  C    -52.519600  -49.804900  -75.516400
  H    -53.131400  -49.078700  -74.958100
  H    -52.275500  -50.649900  -74.845700
  H    -51.600200  -49.316700  -75.874600
  S    -54.740200  -53.464700  -83.040900
  C    -55.905200  -52.783400  -84.103600
  C    -56.421000  -51.629100  -83.629000
  C    -55.988500  -51.292100  -82.319200
  C    -55.059500  -52.189300  -81.826600
  H    -57.265000  -51.176000  -84.140200
  C    -56.574400  -50.102600  -81.592200
  H    -57.035800  -49.517200  -82.393500
  H    -55.635700  -49.570100  -81.238700
  C    -57.443800  -50.275500  -80.275700
  H    -57.419800  -49.315300  -79.850100
  H    -57.080400  -51.057400  -79.639500
  C    -58.864000  -50.597200  -80.668500
  H    -58.979800  -51.568300  -81.178700
  H    -59.167500  -49.894800  -81.362300
  H    -59.502400  -50.618900  -79.832400
  H    -52.719200  -54.116400  -77.935400
  H    -56.257300  -53.167800  -85.083800

 Total Charge           Charge          ....    0
 Multiplicity           Mult            ....    1
 Number of Electrons    NEL             ....  134
 Basis Dimension        Dim             ....  322

ORBITAL ENERGIES
----------------

  NO   OCC          E(Eh)            E(eV)
   0   2.0000     -88.966736     -2420.9080
   1   2.0000     -88.963884     -2420.8304
   2   2.0000     -10.329251      -281.0732
   3   2.0000     -10.326037      -280.9857
   4   2.0000     -10.312727      -280.6236
   5   2.0000     -10.311947      -280.6023
   6   2.0000     -10.301913      -280.3293
   7   2.0000     -10.299805      -280.2719
   8   2.0000     -10.297432      -280.2074
   9   2.0000     -10.293658      -280.1047
  10   2.0000     -10.288877      -279.9746
  11   2.0000     -10.287238      -279.9300
  12   2.0000     -10.285816      -279.8913
  13   2.0000     -10.284731      -279.8618
  14   2.0000     -10.282643      -279.8049
  15   2.0000     -10.262761      -279.2639
  16   2.0000      -8.081341      -219.9045
  17   2.0000      -8.078698      -219.8325
  18   2.0000      -6.039814      -164.3517
  19   2.0000      -6.037306      -164.2834
  20   2.0000      -6.035954      -164.2466
  21   2.0000      -6.033210      -164.1720
  22   2.0000      -6.032057      -164.1406
  23   2.0000      -6.029331      -164.0664
  24   2.0000      -1.008943       -27.4547
  25   2.0000      -0.985187       -26.8083
  26   2.0000      -0.913159       -24.8483
  27   2.0000      -0.908330       -24.7169
  28   2.0000      -0.866956       -23.5911
  29   2.0000      -0.857980       -23.3468
  30   2.0000      -0.846190       -23.0260
  31   2.0000      -0.813850       -22.1460
  32   2.0000      -0.780726       -21.2446
  33   2.0000      -0.768777       -20.9195
  34   2.0000      -0.713795       -19.4233
  35   2.0000      -0.700805       -19.0699
  36   2.0000      -0.687787       -18.7156
  37   2.0000      -0.661644       -18.0043
  38   2.0000      -0.639962       -17.4142
  39   2.0000      -0.627292       -17.0695
  40   2.0000      -0.591195       -16.0872
  41   2.0000      -0.573441       -15.6041
  42   2.0000      -0.557657       -15.1746
  43   2.0000      -0.550808       -14.9883
  44   2.0000      -0.547254       -14.8916
  45   2.0000      -0.527640       -14.3578
  46   2.0000      -0.518359       -14.1053
  47   2.0000      -0.511228       -13.9112
  48   2.0000      -0.500912       -13.6305
  49   2.0000      -0.496513       -13.5108
  50   2.0000      -0.491468       -13.3735
  51   2.0000      -0.477681       -12.9984
  52   2.0000      -0.471024       -12.8172
  53   2.0000      -0.468225       -12.7411
  54   2.0000      -0.461833       -12.5671
  55   2.0000      -0.451667       -12.2905
  56   2.0000      -0.445808       -12.1310
  57   2.0000      -0.440955       -11.9990
  58   2.0000      -0.432375       -11.7655
  59   2.0000      -0.428768       -11.6674
  60   2.0000      -0.425686       -11.5835
  61   2.0000      -0.416550       -11.3349
  62   2.0000      -0.409674       -11.1478
  63   2.0000      -0.356805        -9.7092
  64   2.0000      -0.334830        -9.1112
  65   2.0000      -0.327691        -8.9169
  66   2.0000      -0.279236        -7.5984
  67   0.0000       0.022455         0.6110
  68   0.0000       0.074985         2.0404
  69   0.0000       0.105127         2.8607
  70   0.0000       0.125219         3.4074
  71   0.0000       0.127763         3.4766

MULLIKEN ATOMIC CHARGES
-----------------------
   0 S :    0.096112
   1 C :   -0.127183
   2 C :   -0.097823
   3 C :    0.020126
   4 C :   -0.083682
   5 H :   -0.016104
   6 C :    0.091110
   7 H :    0.036396
   8 H :    0.007662
   9 C :   -0.093786
  10 H :    0.042894
  11 H :    0.035813
  12 C :   -0.064100
  13 H :    0.037972
  14 H :    0.042196
  15 H :    0.032619
  16 S :    0.087408
  17 C :   -0.088053
  18 C :   -0.038574
  19 C :   -0.052795
  20 C :   -0.141877
  21 H :    0.017145
  22 C :   -0.010276
  23 H :    0.022762
  24 H :    0.041255
  25 C :   -0.008948
  26 H :    0.020845
  27 H :    0.045019
  28 C :   -0.011861
  29 H :    0.031917
  30 H :   -0.000516
  31 H :    0.022574
  32 H :    0.042031
  33 H :    0.061724
Sum of atomic charges:    0.0000000

LOEWDIN ATOMIC CHARGES
----------------------
   0 S :    0.402763
   1 C :   -0.203343
   2 C :   -0.053048
   3 C :   -0.065641
   4 C :   -0.181426
   5 H :    0.021637
   6 C :   -0.025917
   7 H :    0.037338
   8 H :    0.022731
   9 C :   -0.041305
  10 H :    0.028695
  11 H :    0.021982
  12 C :   -0.065518
  13 H :    0.025118
  14 H :    0.027649
  15 H :    0.024779
  16 S :    0.392680
  17 C :   -0.197174
  18 C :   -0.083015
  19 C :   -0.063526
  20 C :   -0.181519
  21 H :    0.031849
  22 C :   -0.034640
  23 H :    0.030058
  24 H :    0.036801
  25 C :   -0.022610
  26 H :    0.020775
  27 H :    0.027700
  28 C :   -0.057069
  29 H :    0.030210
  30 H :    0.011603
  31 H :    0.018603
  32 H :    0.023078
  33 H :    0.039703

  Mayer bond orders larger than 0.100000
B(  0-S ,  1-C ) :   1.1316 B(  0-S ,  4-C ) :   1.1528 B(  1-C ,  2-C ) :   1.5911
B(  1-C , 32-H ) :   0.9726 B(  2-C ,  3-C ) :   1.2684 B(  2-C ,  6-C ) :   1.0179
B(  3-C ,  4-C ) :   1.5385 B(  3-C ,  5-H ) :   1.0036 B(  4-C , 20-C ) :   1.0680
B(  6-C ,  7-H ) :   0.9333 B(  6-C ,  8-H ) :   0.9499 B(  6-C ,  9-C ) :   1.0527
B(  9-C , 10-H ) :   0.9500 B(  9-C , 11-H ) :   0.9646 B(  9-C , 12-C ) :   1.0835
B( 12-C , 13-H ) :   0.9765 B( 12-C , 14-H ) :   0.9779 B( 12-C , 15-H ) :   0.9737
B( 16-S , 17-C ) :   1.1488 B( 16-S , 20-C ) :   1.1149 B( 17-C , 18-C ) :   1.6370
B( 17-C , 33-H ) :   0.9560 B( 18-C , 19-C ) :   1.2486 B( 18-C , 21-H ) :   0.9839
B( 19-C , 20-C ) :   1.6079 B( 19-C , 22-C ) :   1.0298 B( 22-C , 23-H ) :   0.9376
B( 22-C , 24-H ) :   0.9368 B( 22-C , 25-C ) :   1.0554 B( 25-C , 26-H ) :   0.9510
B( 25-C , 27-H ) :   0.9563 B( 25-C , 28-C ) :   1.0880 B( 28-C , 29-H ) :   0.9761
B( 28-C , 30-H ) :   0.9735 B( 28-C , 31-H ) :   0.9719

Dispersion correction           -0.014242230
FINAL SINGLE POINT ENERGY     -1339.876687710536

DIPOLE MOMENT
-------------
                                X             Y             Z
Electronic contribution:      6.30675     -21.05646     -19.17860
Nuclear contribution   :     -6.46215      21.62281      19.49845
                        -----------------------------------------
Total Dipole Moment    :     -0.15540       0.56635       0.31986
                        -----------------------------------------
Magnitude (a.u.)       :      0.66874
Magnitude (Debye)      :      1.69979

Rotational constants in cm-1:     0.019467     0.008690     0.006591
Rotational constants in MHz :   583.605773   260.524274   197.595346

                             ****ORCA TERMINATED NORMALLY****
TOTAL RUN TIME: 0 days 0 hours 0 minutes 20 seconds 664 msec
