                         Program Version 4.2.1 -  RELEASE  -
|  1> ! wB97X-D3 SP def2-SVP
|  2> %pal
|  3> nprocs 24
|  4> end
|  5>
|  6> * xyz 0 1
|  7> S 	 43.6393 	 -19.8524 	 -114.124
|  8> C 	 42.9365 	 -18.285 	 -114.193
|  9> C 	 43.7075 	 -17.2623 	 -113.654
| 10> C 	 44.8093 	 -17.844 	 -112.989
| 11> C 	 44.8473 	 -19.2023 	 -113.026
| 12> H 	 45.3785 	 -17.2043 	 -112.36
| 13> C 	 43.3157 	 -15.8073 	 -113.682
| 14> H 	 42.7141 	 -15.4973 	 -114.468
| 15> H 	 44.1973 	 -15.2082 	 -113.887
| 16> C 	 42.6501 	 -15.3932 	 -112.36
| 17> H 	 43.2706 	 -15.516 	 -111.481
| 18> H 	 42.5422 	 -14.2938 	 -112.389
| 19> C 	 41.3555 	 -16.0501 	 -112.003
| 20> H 	 41.4442 	 -17.0873 	 -111.81
| 21> H 	 40.9675 	 -15.4531 	 -111.175
| 22> H 	 40.5934 	 -15.937 	 -112.871
| 23> S 	 46.9994 	 -20.7926 	 -112.598
| 24> C 	 47.3895 	 -21.4153 	 -110.976
| 25> C 	 46.4567 	 -20.9694 	 -110.093
| 26> C 	 45.3573 	 -20.2964 	 -110.708
| 27> C 	 45.5644 	 -19.9918 	 -112.059
| 28> H 	 46.4044 	 -21.2654 	 -109.04
| 29> C 	 44.1751 	 -19.8093 	 -109.954
| 30> H 	 43.9876 	 -20.5608 	 -109.19
| 31> H 	 43.3681 	 -19.9423 	 -110.649
| 32> C 	 44.3439 	 -18.4062 	 -109.299
| 33> H 	 44.5976 	 -17.6946 	 -110.09
| 34> H 	 45.3308 	 -18.4298 	 -108.765
| 35> C 	 43.0464 	 -17.9702 	 -108.469
| 36> H 	 43.3071 	 -17.0317 	 -107.921
| 37> H 	 42.6046 	 -18.6569 	 -107.707
| 38> H 	 42.2286 	 -17.7415 	 -109.184
| 39> H 	 42.1088 	 -18.0475 	 -114.811
| 40> H 	 48.2148 	 -22.0578 	 -110.627
| 41> *
| 42>
| 43>                          ****END OF INPUT****

CARTESIAN COORDINATES (ANGSTROEM)
---------------------------------
  S     43.639300  -19.852400  -114.124000
  C     42.936500  -18.285000  -114.193000
  C     43.707500  -17.262300  -113.654000
  C     44.809300  -17.844000  -112.989000
  C     44.847300  -19.202300  -113.026000
  H     45.378500  -17.204300  -112.360000
  C     43.315700  -15.807300  -113.682000
  H     42.714100  -15.497300  -114.468000
  H     44.197300  -15.208200  -113.887000
  C     42.650100  -15.393200  -112.360000
  H     43.270600  -15.516000  -111.481000
  H     42.542200  -14.293800  -112.389000
  C     41.355500  -16.050100  -112.003000
  H     41.444200  -17.087300  -111.810000
  H     40.967500  -15.453100  -111.175000
  H     40.593400  -15.937000  -112.871000
  S     46.999400  -20.792600  -112.598000
  C     47.389500  -21.415300  -110.976000
  C     46.456700  -20.969400  -110.093000
  C     45.357300  -20.296400  -110.708000
  C     45.564400  -19.991800  -112.059000
  H     46.404400  -21.265400  -109.040000
  C     44.175100  -19.809300  -109.954000
  H     43.987600  -20.560800  -109.190000
  H     43.368100  -19.942300  -110.649000
  C     44.343900  -18.406200  -109.299000
  H     44.597600  -17.694600  -110.090000
  H     45.330800  -18.429800  -108.765000
  C     43.046400  -17.970200  -108.469000
  H     43.307100  -17.031700  -107.921000
  H     42.604600  -18.656900  -107.707000
  H     42.228600  -17.741500  -109.184000
  H     42.108800  -18.047500  -114.811000
  H     48.214800  -22.057800  -110.627000

 Total Charge           Charge          ....    0
 Multiplicity           Mult            ....    1
 Number of Electrons    NEL             ....  134
 Basis Dimension        Dim             ....  322

ORBITAL ENERGIES
----------------

  NO   OCC          E(Eh)            E(eV)
   0   2.0000     -88.970016     -2420.9972
   1   2.0000     -88.959781     -2420.7187
   2   2.0000     -10.325044      -280.9587
   3   2.0000     -10.319731      -280.8142
   4   2.0000     -10.317219      -280.7458
   5   2.0000     -10.309956      -280.5482
   6   2.0000     -10.298748      -280.2432
   7   2.0000     -10.297205      -280.2012
   8   2.0000     -10.295768      -280.1621
   9   2.0000     -10.292069      -280.0614
  10   2.0000     -10.291942      -280.0580
  11   2.0000     -10.290526      -280.0194
  12   2.0000     -10.289277      -279.9855
  13   2.0000     -10.286353      -279.9059
  14   2.0000     -10.282158      -279.7917
  15   2.0000     -10.280014      -279.7334
  16   2.0000      -8.085157      -220.0083
  17   2.0000      -8.074488      -219.7180
  18   2.0000      -6.043472      -164.4512
  19   2.0000      -6.039794      -164.3512
  20   2.0000      -6.035904      -164.2453
  21   2.0000      -6.033101      -164.1690
  22   2.0000      -6.028800      -164.0520
  23   2.0000      -6.025333      -163.9576
  24   2.0000      -1.011432       -27.5225
  25   2.0000      -0.986402       -26.8414
  26   2.0000      -0.918929       -25.0053
  27   2.0000      -0.900355       -24.4999
  28   2.0000      -0.872744       -23.7486
  29   2.0000      -0.856546       -23.3078
  30   2.0000      -0.838388       -22.8137
  31   2.0000      -0.818931       -22.2842
  32   2.0000      -0.787982       -21.4421
  33   2.0000      -0.765258       -20.8237
  34   2.0000      -0.710261       -19.3272
  35   2.0000      -0.701111       -19.0782
  36   2.0000      -0.692308       -18.8387
  37   2.0000      -0.660561       -17.9748
  38   2.0000      -0.645909       -17.5761
  39   2.0000      -0.631770       -17.1913
  40   2.0000      -0.587920       -15.9981
  41   2.0000      -0.573405       -15.6031
  42   2.0000      -0.555989       -15.1292
  43   2.0000      -0.549816       -14.9613
  44   2.0000      -0.544914       -14.8279
  45   2.0000      -0.520755       -14.1705
  46   2.0000      -0.514378       -13.9969
  47   2.0000      -0.510587       -13.8938
  48   2.0000      -0.503439       -13.6993
  49   2.0000      -0.500381       -13.6160
  50   2.0000      -0.497380       -13.5344
  51   2.0000      -0.476342       -12.9619
  52   2.0000      -0.470098       -12.7920
  53   2.0000      -0.464474       -12.6390
  54   2.0000      -0.457924       -12.4608
  55   2.0000      -0.451472       -12.2852
  56   2.0000      -0.448172       -12.1954
  57   2.0000      -0.436685       -11.8828
  58   2.0000      -0.436125       -11.8676
  59   2.0000      -0.425009       -11.5651
  60   2.0000      -0.419197       -11.4069
  61   2.0000      -0.413103       -11.2411
  62   2.0000      -0.412537       -11.2257
  63   2.0000      -0.340365        -9.2618
  64   2.0000      -0.333584        -9.0773
  65   2.0000      -0.316175        -8.6036
  66   2.0000      -0.304547        -8.2871
  67   0.0000       0.040930         1.1138
  68   0.0000       0.053104         1.4450
  69   0.0000       0.113678         3.0933
  70   0.0000       0.118007         3.2111
  71   0.0000       0.128234         3.4894

MULLIKEN ATOMIC CHARGES
-----------------------
   0 S :    0.138886
   1 C :   -0.106366
   2 C :   -0.127284
   3 C :    0.078125
   4 C :   -0.157786
   5 H :    0.002487
   6 C :    0.130864
   7 H :    0.002144
   8 H :    0.020827
   9 C :   -0.093264
  10 H :    0.019700
  11 H :    0.025106
  12 C :   -0.054604
  13 H :    0.049789
  14 H :    0.039928
  15 H :    0.025996
  16 S :    0.096356
  17 C :   -0.088203
  18 C :   -0.032344
  19 C :   -0.086132
  20 C :   -0.170790
  21 H :    0.024010
  22 C :    0.095432
  23 H :    0.008803
  24 H :    0.019260
  25 C :   -0.056515
  26 H :    0.016107
  27 H :    0.027863
  28 C :   -0.071600
  29 H :    0.042132
  30 H :    0.046326
  31 H :    0.041900
  32 H :    0.029037
  33 H :    0.063811
Sum of atomic charges:   -0.0000000

LOEWDIN ATOMIC CHARGES
----------------------
   0 S :    0.419649
   1 C :   -0.193740
   2 C :   -0.062557
   3 C :   -0.038447
   4 C :   -0.206133
   5 H :    0.025961
   6 C :   -0.026616
   7 H :    0.022437
   8 H :    0.035420
   9 C :   -0.044575
  10 H :    0.020804
  11 H :    0.025479
  12 C :   -0.064352
  13 H :    0.019155
  14 H :    0.032102
  15 H :    0.028611
  16 S :    0.402075
  17 C :   -0.184048
  18 C :   -0.079277
  19 C :   -0.058417
  20 C :   -0.209524
  21 H :    0.034242
  22 C :   -0.036575
  23 H :    0.027466
  24 H :    0.027631
  25 C :   -0.038668
  26 H :    0.021945
  27 H :    0.028902
  28 C :   -0.076247
  29 H :    0.030458
  30 H :    0.030444
  31 H :    0.030312
  32 H :    0.016266
  33 H :    0.039818

  Mayer bond orders larger than 0.100000
B(  0-S ,  1-C ) :   1.1596 B(  0-S ,  4-C ) :   1.1388 B(  1-C ,  2-C ) :   1.6009
B(  1-C , 32-H ) :   0.9648 B(  2-C ,  3-C ) :   1.2614 B(  2-C ,  6-C ) :   1.0364
B(  3-C ,  4-C ) :   1.5733 B(  3-C ,  5-H ) :   0.9945 B(  4-C , 20-C ) :   1.0130
B(  6-C ,  7-H ) :   0.9351 B(  6-C ,  8-H ) :   0.9298 B(  6-C ,  9-C ) :   1.0701
B(  9-C , 10-H ) :   0.9541 B(  9-C , 11-H ) :   0.9523 B(  9-C , 12-C ) :   1.0831
B( 12-C , 13-H ) :   0.9694 B( 12-C , 14-H ) :   0.9696 B( 12-C , 15-H ) :   0.9714
B( 16-S , 17-C ) :   1.1478 B( 16-S , 20-C ) :   1.1450 B( 17-C , 18-C ) :   1.6101
B( 17-C , 33-H ) :   0.9635 B( 18-C , 19-C ) :   1.2614 B( 18-C , 21-H ) :   0.9779
B( 19-C , 20-C ) :   1.5900 B( 19-C , 22-C ) :   1.0573 B( 22-C , 23-H ) :   0.9252
B( 22-C , 24-H ) :   0.9254 B( 22-C , 25-C ) :   1.0531 B( 25-C , 26-H ) :   0.9519
B( 25-C , 27-H ) :   0.9553 B( 25-C , 28-C ) :   1.0551 B( 28-C , 29-H ) :   0.9763
B( 28-C , 30-H ) :   0.9783 B( 28-C , 31-H ) :   0.9753

Dispersion correction           -0.016731597
FINAL SINGLE POINT ENERGY     -1339.871245461561

DIPOLE MOMENT
-------------
                                X             Y             Z
Electronic contribution:     16.21435     -20.53454     -17.15579
Nuclear contribution   :    -16.56173      21.10174      17.58082
                        -----------------------------------------
Total Dipole Moment    :     -0.34738       0.56720       0.42503
                        -----------------------------------------
Magnitude (a.u.)       :      0.78933
Magnitude (Debye)      :      2.00632

Rotational constants in cm-1:     0.019049     0.010447     0.007713
Rotational constants in MHz :   571.075866   313.189755   231.221169

                             ****ORCA TERMINATED NORMALLY****
TOTAL RUN TIME: 0 days 0 hours 0 minutes 23 seconds 568 msec
