                         Program Version 4.2.1 -  RELEASE  -
|  1> ! wB97X-D3 SP def2-SVP
|  2> %pal
|  3> nprocs 24
|  4> end
|  5>
|  6> * xyz 0 1
|  7> S 	 -51.6395 	 17.4591 	 25.0835
|  8> C 	 -51.2751 	 15.7684 	 24.8536
|  9> C 	 -50.9656 	 15.1199 	 26.0244
| 10> C 	 -51.2451 	 15.9763 	 27.1358
| 11> C 	 -51.6466 	 17.262 	 26.8323
| 12> H 	 -51.0679 	 15.6917 	 28.1518
| 13> C 	 -50.5859 	 13.68 	 26.2681
| 14> H 	 -50.8678 	 13.41 	 27.2557
| 15> H 	 -49.4535 	 13.5971 	 26.3591
| 16> C 	 -51.0682 	 12.6222 	 25.2117
| 17> H 	 -50.6706 	 12.8277 	 24.1955
| 18> H 	 -50.7318 	 11.6015 	 25.4591
| 19> C 	 -52.6391 	 12.4973 	 25.0876
| 20> H 	 -53.1355 	 12.2586 	 26.0521
| 21> H 	 -53.069 	 13.3959 	 24.5694
| 22> H 	 -52.7627 	 11.631 	 24.4169
| 23> S 	 -50.7742 	 19.7139 	 27.5684
| 24> C 	 -51.5898 	 20.5984 	 28.7682
| 25> C 	 -52.7886 	 19.9926 	 29.2013
| 26> C 	 -52.9846 	 18.7155 	 28.5695
| 27> C 	 -51.8989 	 18.4048 	 27.6988
| 28> H 	 -53.4218 	 20.4421 	 30.0235
| 29> C 	 -54.2102 	 17.8857 	 28.8341
| 30> H 	 -54.7527 	 17.8585 	 27.927
| 31> H 	 -54.7388 	 18.4312 	 29.5663
| 32> C 	 -54.1503 	 16.4961 	 29.5263
| 33> H 	 -54.091 	 16.5576 	 30.645
| 34> H 	 -53.3263 	 15.991 	 29.2593
| 35> C 	 -55.2561 	 15.5634 	 29.1289
| 36> H 	 -55.2142 	 15.4549 	 27.9969
| 37> H 	 -56.2175 	 15.8273 	 29.4226
| 38> H 	 -55.1207 	 14.5819 	 29.4945
| 39> H 	 -51.0316 	 15.3296 	 23.8769
| 40> H 	 -51.0703 	 21.3786 	 29.2697
| 41> *
| 42>
| 43>                          ****END OF INPUT****

CARTESIAN COORDINATES (ANGSTROEM)
---------------------------------
  S    -51.639500   17.459100   25.083500
  C    -51.275100   15.768400   24.853600
  C    -50.965600   15.119900   26.024400
  C    -51.245100   15.976300   27.135800
  C    -51.646600   17.262000   26.832300
  H    -51.067900   15.691700   28.151800
  C    -50.585900   13.680000   26.268100
  H    -50.867800   13.410000   27.255700
  H    -49.453500   13.597100   26.359100
  C    -51.068200   12.622200   25.211700
  H    -50.670600   12.827700   24.195500
  H    -50.731800   11.601500   25.459100
  C    -52.639100   12.497300   25.087600
  H    -53.135500   12.258600   26.052100
  H    -53.069000   13.395900   24.569400
  H    -52.762700   11.631000   24.416900
  S    -50.774200   19.713900   27.568400
  C    -51.589800   20.598400   28.768200
  C    -52.788600   19.992600   29.201300
  C    -52.984600   18.715500   28.569500
  C    -51.898900   18.404800   27.698800
  H    -53.421800   20.442100   30.023500
  C    -54.210200   17.885700   28.834100
  H    -54.752700   17.858500   27.927000
  H    -54.738800   18.431200   29.566300
  C    -54.150300   16.496100   29.526300
  H    -54.091000   16.557600   30.645000
  H    -53.326300   15.991000   29.259300
  C    -55.256100   15.563400   29.128900
  H    -55.214200   15.454900   27.996900
  H    -56.217500   15.827300   29.422600
  H    -55.120700   14.581900   29.494500
  H    -51.031600   15.329600   23.876900
  H    -51.070300   21.378600   29.269700

 Total Charge           Charge          ....    0
 Multiplicity           Mult            ....    1
 Number of Electrons    NEL             ....  134
 Basis Dimension        Dim             ....  322

ORBITAL ENERGIES
----------------

  NO   OCC          E(Eh)            E(eV)
   0   2.0000     -88.967515     -2420.9292
   1   2.0000     -88.964176     -2420.8383
   2   2.0000     -10.327975      -281.0385
   3   2.0000     -10.325428      -280.9692
   4   2.0000     -10.313691      -280.6498
   5   2.0000     -10.313127      -280.6345
   6   2.0000     -10.308661      -280.5129
   7   2.0000     -10.302638      -280.3490
   8   2.0000     -10.300264      -280.2844
   9   2.0000     -10.299093      -280.2526
  10   2.0000     -10.298266      -280.2301
  11   2.0000     -10.290652      -280.0229
  12   2.0000     -10.284428      -279.8535
  13   2.0000     -10.282886      -279.8116
  14   2.0000     -10.276364      -279.6341
  15   2.0000     -10.268492      -279.4199
  16   2.0000      -8.083460      -219.9621
  17   2.0000      -8.078981      -219.8402
  18   2.0000      -6.041670      -164.4022
  19   2.0000      -6.037600      -164.2914
  20   2.0000      -6.037480      -164.2882
  21   2.0000      -6.034671      -164.2117
  22   2.0000      -6.033546      -164.1811
  23   2.0000      -6.029673      -164.0757
  24   2.0000      -1.007360       -27.4117
  25   2.0000      -0.985115       -26.8063
  26   2.0000      -0.912455       -24.8292
  27   2.0000      -0.904401       -24.6100
  28   2.0000      -0.863299       -23.4916
  29   2.0000      -0.858790       -23.3689
  30   2.0000      -0.845651       -23.0113
  31   2.0000      -0.808542       -22.0015
  32   2.0000      -0.784790       -21.3552
  33   2.0000      -0.772948       -21.0330
  34   2.0000      -0.708867       -19.2893
  35   2.0000      -0.700854       -19.0712
  36   2.0000      -0.689543       -18.7634
  37   2.0000      -0.662364       -18.0238
  38   2.0000      -0.638878       -17.3848
  39   2.0000      -0.611664       -16.6442
  40   2.0000      -0.596143       -16.2219
  41   2.0000      -0.572883       -15.5889
  42   2.0000      -0.570918       -15.5355
  43   2.0000      -0.541227       -14.7275
  44   2.0000      -0.536346       -14.5947
  45   2.0000      -0.520430       -14.1616
  46   2.0000      -0.517988       -14.0952
  47   2.0000      -0.509921       -13.8756
  48   2.0000      -0.506156       -13.7732
  49   2.0000      -0.494943       -13.4681
  50   2.0000      -0.490110       -13.3366
  51   2.0000      -0.483461       -13.1557
  52   2.0000      -0.475850       -12.9485
  53   2.0000      -0.462639       -12.5890
  54   2.0000      -0.461694       -12.5633
  55   2.0000      -0.448443       -12.2028
  56   2.0000      -0.438579       -11.9343
  57   2.0000      -0.434761       -11.8304
  58   2.0000      -0.429985       -11.7005
  59   2.0000      -0.427518       -11.6333
  60   2.0000      -0.426156       -11.5963
  61   2.0000      -0.419322       -11.4103
  62   2.0000      -0.411186       -11.1889
  63   2.0000      -0.339206        -9.2303
  64   2.0000      -0.331177        -9.0118
  65   2.0000      -0.326252        -8.8778
  66   2.0000      -0.295529        -8.0418
  67   0.0000       0.038500         1.0476
  68   0.0000       0.054601         1.4858
  69   0.0000       0.116559         3.1717
  70   0.0000       0.123625         3.3640
  71   0.0000       0.125649         3.4191

MULLIKEN ATOMIC CHARGES
-----------------------
   0 S :    0.110587
   1 C :   -0.127996
   2 C :   -0.088348
   3 C :    0.041565
   4 C :   -0.163025
   5 H :    0.007732
   6 C :    0.084895
   7 H :    0.008039
   8 H :    0.047359
   9 C :   -0.102783
  10 H :    0.034977
  11 H :    0.032307
  12 C :   -0.082064
  13 H :    0.043004
  14 H :    0.052836
  15 H :    0.034267
  16 S :    0.130547
  17 C :   -0.094872
  18 C :   -0.061583
  19 C :   -0.043061
  20 C :   -0.192259
  21 H :    0.045989
  22 C :    0.123851
  23 H :    0.033035
  24 H :    0.001233
  25 C :   -0.014525
  26 H :    0.027509
  27 H :   -0.019867
  28 C :   -0.045311
  29 H :    0.036112
  30 H :    0.016068
  31 H :    0.015391
  32 H :    0.052658
  33 H :    0.055732
Sum of atomic charges:   -0.0000000

LOEWDIN ATOMIC CHARGES
----------------------
   0 S :    0.401345
   1 C :   -0.203172
   2 C :   -0.066208
   3 C :   -0.057941
   4 C :   -0.197260
   5 H :    0.025286
   6 C :   -0.034728
   7 H :    0.023543
   8 H :    0.043856
   9 C :   -0.043137
  10 H :    0.024659
  11 H :    0.026465
  12 C :   -0.073209
  13 H :    0.026930
  14 H :    0.030106
  15 H :    0.026792
  16 S :    0.449111
  17 C :   -0.202629
  18 C :   -0.077468
  19 C :   -0.046691
  20 C :   -0.219021
  21 H :    0.043215
  22 C :   -0.024699
  23 H :    0.033158
  24 H :    0.028709
  25 C :   -0.030547
  26 H :    0.027945
  27 H :    0.002998
  28 C :   -0.055613
  29 H :    0.034705
  30 H :    0.011051
  31 H :    0.021105
  32 H :    0.029844
  33 H :    0.021499

  Mayer bond orders larger than 0.100000
B(  0-S ,  1-C ) :   1.1387 B(  0-S ,  4-C ) :   1.1462 B(  1-C ,  2-C ) :   1.6303
B(  1-C , 32-H ) :   0.9561 B(  2-C ,  3-C ) :   1.2396 B(  2-C ,  6-C ) :   1.0150
B(  3-C ,  4-C ) :   1.6007 B(  3-C ,  5-H ) :   0.9893 B(  4-C , 20-C ) :   1.0291
B(  6-C ,  7-H ) :   0.9457 B(  6-C ,  8-H ) :   0.9268 B(  6-C ,  9-C ) :   1.0716
B(  9-C , 10-H ) :   0.9552 B(  9-C , 11-H ) :   0.9593 B(  9-C , 12-C ) :   1.0700
B( 12-C , 13-H ) :   0.9772 B( 12-C , 14-H ) :   0.9751 B( 12-C , 15-H ) :   0.9763
B( 16-S , 17-C ) :   1.1966 B( 16-S , 20-C ) :   1.1762 B( 17-C , 18-C ) :   1.5568
B( 17-C , 20-C ) :   0.1078 B( 17-C , 33-H ) :   0.9698 B( 18-C , 19-C ) :   1.2899
B( 18-C , 21-H ) :   0.9771 B( 19-C , 20-C ) :   1.5390 B( 19-C , 22-C ) :   1.0452
B( 22-C , 23-H ) :   0.9311 B( 22-C , 24-H ) :   0.9244 B( 22-C , 25-C ) :   1.0534
B( 25-C , 26-H ) :   0.9534 B( 25-C , 27-H ) :   0.9543 B( 25-C , 28-C ) :   1.0896
B( 28-C , 29-H ) :   0.9737 B( 28-C , 30-H ) :   0.9781 B( 28-C , 31-H ) :   0.9692

Dispersion correction           -0.014471143
FINAL SINGLE POINT ENERGY     -1339.868656334242

DIPOLE MOMENT
-------------
                                X             Y             Z
Electronic contribution:     12.81169      26.32275      -5.31438
Nuclear contribution   :    -12.82290     -26.82237       5.70653
                        -----------------------------------------
Total Dipole Moment    :     -0.01121      -0.49961       0.39214
                        -----------------------------------------
Magnitude (a.u.)       :      0.63523
Magnitude (Debye)      :      1.61462

Rotational constants in cm-1:     0.019786     0.008953     0.006838
Rotational constants in MHz :   593.176588   268.397249   205.006722

                             ****ORCA TERMINATED NORMALLY****
TOTAL RUN TIME: 0 days 0 hours 0 minutes 21 seconds 926 msec
