                         Program Version 4.2.1 -  RELEASE  -
|  1> ! wB97X-D3 SP def2-SVP
|  2> %pal
|  3> nprocs 24
|  4> end
|  5>
|  6> * xyz 0 1
|  7> S 	 -106.876 	 58.2833 	 -91.7422
|  8> C 	 -106.368 	 59.9228 	 -91.4255
|  9> C 	 -105.569 	 60.5242 	 -92.3816
| 10> C 	 -105.377 	 59.5888 	 -93.4599
| 11> C 	 -105.982 	 58.3452 	 -93.2394
| 12> H 	 -104.839 	 59.9325 	 -94.3679
| 13> C 	 -105.002 	 61.9443 	 -92.3498
| 14> H 	 -105.342 	 62.4114 	 -91.4337
| 15> H 	 -105.563 	 62.5855 	 -93.0196
| 16> C 	 -103.505 	 62.1992 	 -92.4898
| 17> H 	 -102.915 	 61.4561 	 -91.9135
| 18> H 	 -103.403 	 62.0629 	 -93.5456
| 19> C 	 -103.17 	 63.5849 	 -92.05
| 20> H 	 -103.74 	 64.3567 	 -92.531
| 21> H 	 -103.29 	 63.8253 	 -91.0012
| 22> H 	 -102.104 	 63.7786 	 -92.3591
| 23> S 	 -105.715 	 55.6688 	 -93.2749
| 24> C 	 -105.172 	 54.9668 	 -94.7678
| 25> C 	 -105.398 	 55.8936 	 -95.8141
| 26> C 	 -105.9 	 57.2027 	 -95.473
| 27> C 	 -105.958 	 57.2145 	 -94.1008
| 28> H 	 -105.08 	 55.5388 	 -96.7931
| 29> C 	 -106.105 	 58.3732 	 -96.4546
| 30> H 	 -106.474 	 59.1388 	 -95.7852
| 31> H 	 -106.867 	 58.2428 	 -97.1954
| 32> C 	 -104.9 	 58.8038 	 -97.2603
| 33> H 	 -104.686 	 58.086 	 -98.0252
| 34> H 	 -103.93 	 58.7778 	 -96.6591
| 35> C 	 -105.126 	 60.0745 	 -98.0622
| 36> H 	 -105.459 	 60.864 	 -97.3953
| 37> H 	 -105.877 	 59.9063 	 -98.7957
| 38> H 	 -104.178 	 60.3548 	 -98.5156
| 39> H 	 -106.657 	 60.4063 	 -90.4761
| 40> H 	 -104.75 	 53.9764 	 -94.9291
| 41> *
| 42>
| 43>                          ****END OF INPUT****

CARTESIAN COORDINATES (ANGSTROEM)
---------------------------------
  S    -106.876000   58.283300  -91.742200
  C    -106.368000   59.922800  -91.425500
  C    -105.569000   60.524200  -92.381600
  C    -105.377000   59.588800  -93.459900
  C    -105.982000   58.345200  -93.239400
  H    -104.839000   59.932500  -94.367900
  C    -105.002000   61.944300  -92.349800
  H    -105.342000   62.411400  -91.433700
  H    -105.563000   62.585500  -93.019600
  C    -103.505000   62.199200  -92.489800
  H    -102.915000   61.456100  -91.913500
  H    -103.403000   62.062900  -93.545600
  C    -103.170000   63.584900  -92.050000
  H    -103.740000   64.356700  -92.531000
  H    -103.290000   63.825300  -91.001200
  H    -102.104000   63.778600  -92.359100
  S    -105.715000   55.668800  -93.274900
  C    -105.172000   54.966800  -94.767800
  C    -105.398000   55.893600  -95.814100
  C    -105.900000   57.202700  -95.473000
  C    -105.958000   57.214500  -94.100800
  H    -105.080000   55.538800  -96.793100
  C    -106.105000   58.373200  -96.454600
  H    -106.474000   59.138800  -95.785200
  H    -106.867000   58.242800  -97.195400
  C    -104.900000   58.803800  -97.260300
  H    -104.686000   58.086000  -98.025200
  H    -103.930000   58.777800  -96.659100
  C    -105.126000   60.074500  -98.062200
  H    -105.459000   60.864000  -97.395300
  H    -105.877000   59.906300  -98.795700
  H    -104.178000   60.354800  -98.515600
  H    -106.657000   60.406300  -90.476100
  H    -104.750000   53.976400  -94.929100

 Total Charge           Charge          ....    0
 Multiplicity           Mult            ....    1
 Number of Electrons    NEL             ....  134
 Basis Dimension        Dim             ....  322

ORBITAL ENERGIES
----------------

  NO   OCC          E(Eh)            E(eV)
   0   2.0000     -88.967089     -2420.9176
   1   2.0000     -88.964995     -2420.8606
   2   2.0000     -10.325603      -280.9739
   3   2.0000     -10.322639      -280.8933
   4   2.0000     -10.317701      -280.7589
   5   2.0000     -10.312702      -280.6229
   6   2.0000     -10.306524      -280.4548
   7   2.0000     -10.301831      -280.3271
   8   2.0000     -10.297023      -280.1963
   9   2.0000     -10.295861      -280.1646
  10   2.0000     -10.293200      -280.0922
  11   2.0000     -10.290137      -280.0089
  12   2.0000     -10.287709      -279.9428
  13   2.0000     -10.287034      -279.9244
  14   2.0000     -10.279781      -279.7271
  15   2.0000     -10.277948      -279.6772
  16   2.0000      -8.082219      -219.9284
  17   2.0000      -8.079923      -219.8659
  18   2.0000      -6.040585      -164.3727
  19   2.0000      -6.038473      -164.3152
  20   2.0000      -6.036918      -164.2729
  21   2.0000      -6.034527      -164.2078
  22   2.0000      -6.032877      -164.1629
  23   2.0000      -6.030499      -164.0982
  24   2.0000      -1.007930       -27.4272
  25   2.0000      -0.979414       -26.6512
  26   2.0000      -0.918166       -24.9846
  27   2.0000      -0.915699       -24.9174
  28   2.0000      -0.870805       -23.6958
  29   2.0000      -0.859698       -23.3936
  30   2.0000      -0.844516       -22.9805
  31   2.0000      -0.806570       -21.9479
  32   2.0000      -0.788881       -21.4665
  33   2.0000      -0.773506       -21.0482
  34   2.0000      -0.710276       -19.3276
  35   2.0000      -0.700904       -19.0726
  36   2.0000      -0.692607       -18.8468
  37   2.0000      -0.659299       -17.9405
  38   2.0000      -0.632813       -17.2197
  39   2.0000      -0.622734       -16.9455
  40   2.0000      -0.598814       -16.2946
  41   2.0000      -0.574881       -15.6433
  42   2.0000      -0.570651       -15.5282
  43   2.0000      -0.551624       -15.0104
  44   2.0000      -0.535335       -14.5672
  45   2.0000      -0.526453       -14.3255
  46   2.0000      -0.517112       -14.0713
  47   2.0000      -0.511619       -13.9219
  48   2.0000      -0.508914       -13.8483
  49   2.0000      -0.498989       -13.5782
  50   2.0000      -0.489393       -13.3171
  51   2.0000      -0.477178       -12.9847
  52   2.0000      -0.473442       -12.8830
  53   2.0000      -0.465005       -12.6534
  54   2.0000      -0.458890       -12.4870
  55   2.0000      -0.447788       -12.1849
  56   2.0000      -0.444145       -12.0858
  57   2.0000      -0.441324       -12.0090
  58   2.0000      -0.434172       -11.8144
  59   2.0000      -0.430072       -11.7028
  60   2.0000      -0.428084       -11.6488
  61   2.0000      -0.413974       -11.2648
  62   2.0000      -0.410660       -11.1746
  63   2.0000      -0.348850        -9.4927
  64   2.0000      -0.334387        -9.0991
  65   2.0000      -0.330707        -8.9990
  66   2.0000      -0.278610        -7.5814
  67   0.0000       0.025572         0.6958
  68   0.0000       0.072725         1.9790
  69   0.0000       0.100319         2.7298
  70   0.0000       0.120803         3.2872
  71   0.0000       0.124920         3.3993

MULLIKEN ATOMIC CHARGES
-----------------------
   0 S :    0.111514
   1 C :   -0.138559
   2 C :   -0.065062
   3 C :   -0.009645
   4 C :   -0.139972
   5 H :    0.021186
   6 C :    0.050233
   7 H :   -0.008935
   8 H :    0.025907
   9 C :   -0.037630
  10 H :    0.046393
  11 H :    0.025719
  12 C :   -0.052712
  13 H :    0.016770
  14 H :    0.035647
  15 H :    0.038879
  16 S :    0.108330
  17 C :   -0.101220
  18 C :   -0.064912
  19 C :   -0.006102
  20 C :   -0.142892
  21 H :    0.013120
  22 C :    0.105855
  23 H :    0.021015
  24 H :    0.021671
  25 C :   -0.121108
  26 H :    0.020953
  27 H :    0.039957
  28 C :   -0.014246
  29 H :    0.023803
  30 H :    0.027349
  31 H :    0.038402
  32 H :    0.048682
  33 H :    0.061607
Sum of atomic charges:    0.0000000

LOEWDIN ATOMIC CHARGES
----------------------
   0 S :    0.405049
   1 C :   -0.198825
   2 C :   -0.061899
   3 C :   -0.068401
   4 C :   -0.194351
   5 H :    0.035283
   6 C :   -0.037740
   7 H :    0.023727
   8 H :    0.031693
   9 C :   -0.038881
  10 H :    0.033811
  11 H :    0.023187
  12 C :   -0.066287
  13 H :    0.021455
  14 H :    0.026024
  15 H :    0.034913
  16 S :    0.396938
  17 C :   -0.200093
  18 C :   -0.066209
  19 C :   -0.049917
  20 C :   -0.185422
  21 H :    0.024612
  22 C :   -0.027634
  23 H :    0.029478
  24 H :    0.031865
  25 C :   -0.049776
  26 H :    0.020672
  27 H :    0.027896
  28 C :   -0.054842
  29 H :    0.021885
  30 H :    0.021943
  31 H :    0.030633
  32 H :    0.025880
  33 H :    0.033333

  Mayer bond orders larger than 0.100000
B(  0-S ,  1-C ) :   1.1351 B(  0-S ,  4-C ) :   1.1467 B(  1-C ,  2-C ) :   1.6323
B(  1-C , 32-H ) :   0.9572 B(  2-C ,  3-C ) :   1.2477 B(  2-C ,  6-C ) :   1.0201
B(  3-C ,  4-C ) :   1.5545 B(  3-C ,  5-H ) :   0.9873 B(  4-C , 20-C ) :   1.0597
B(  6-C ,  7-H ) :   0.9369 B(  6-C ,  8-H ) :   0.9307 B(  6-C ,  9-C ) :   1.0497
B(  9-C , 10-H ) :   0.9570 B(  9-C , 11-H ) :   0.9495 B(  9-C , 12-C ) :   1.0978
B( 12-C , 13-H ) :   0.9694 B( 12-C , 14-H ) :   0.9738 B( 12-C , 15-H ) :   0.9712
B( 16-S , 17-C ) :   1.1306 B( 16-S , 20-C ) :   1.1375 B( 17-C , 18-C ) :   1.6327
B( 17-C , 33-H ) :   0.9701 B( 18-C , 19-C ) :   1.1913 B( 18-C , 21-H ) :   0.9875
B( 19-C , 20-C ) :   1.5992 B( 19-C , 22-C ) :   1.0378 B( 22-C , 23-H ) :   0.9316
B( 22-C , 24-H ) :   0.9260 B( 22-C , 25-C ) :   1.0613 B( 25-C , 26-H ) :   0.9465
B( 25-C , 27-H ) :   0.9566 B( 25-C , 28-C ) :   1.0850 B( 28-C , 29-H ) :   0.9771
B( 28-C , 30-H ) :   0.9721 B( 28-C , 31-H ) :   0.9721

Dispersion correction           -0.013815964
FINAL SINGLE POINT ENERGY     -1339.870219093091

DIPOLE MOMENT
-------------
                                X             Y             Z
Electronic contribution:    -12.40293     -26.76823      14.42121
Nuclear contribution   :     12.72667      27.33909     -14.91682
                        -----------------------------------------
Total Dipole Moment    :      0.32374       0.57087      -0.49561
                        -----------------------------------------
Magnitude (a.u.)       :      0.82239
Magnitude (Debye)      :      2.09035

Rotational constants in cm-1:     0.016383     0.009245     0.006580
Rotational constants in MHz :   491.146526   277.162910   197.252545

                             ****ORCA TERMINATED NORMALLY****
TOTAL RUN TIME: 0 days 0 hours 0 minutes 21 seconds 599 msec
