                         Program Version 4.2.1 -  RELEASE  -
|  1> ! wB97X-D3 SP def2-SVP
|  2> %pal
|  3> nprocs 24
|  4> end
|  5>
|  6> * xyz 0 1
|  7> S 	 -106.134 	 17.5434 	 -116.96
|  8> C 	 -104.812 	 16.5689 	 -116.381
|  9> C 	 -103.707 	 16.6548 	 -117.19
| 10> C 	 -103.953 	 17.4094 	 -118.351
| 11> C 	 -105.175 	 18.0619 	 -118.304
| 12> H 	 -103.275 	 17.6688 	 -119.115
| 13> C 	 -102.325 	 16.0985 	 -116.952
| 14> H 	 -101.799 	 15.9657 	 -117.926
| 15> H 	 -102.234 	 15.0954 	 -116.513
| 16> C 	 -101.48 	 17.0343 	 -116.069
| 17> H 	 -101.901 	 17.0676 	 -115.065
| 18> H 	 -100.476 	 16.5428 	 -115.921
| 19> C 	 -101.375 	 18.4828 	 -116.465
| 20> H 	 -102.38 	 19.0135 	 -116.451
| 21> H 	 -100.754 	 19.1334 	 -115.857
| 22> H 	 -101.109 	 18.5123 	 -117.514
| 23> S 	 -105.758 	 20.7408 	 -118.834
| 24> C 	 -106.141 	 21.2906 	 -120.467
| 25> C 	 -106.192 	 20.2065 	 -121.328
| 26> C 	 -105.857 	 18.9344 	 -120.677
| 27> C 	 -105.61 	 19.0621 	 -119.302
| 28> H 	 -106.407 	 20.3199 	 -122.426
| 29> C 	 -105.969 	 17.6862 	 -121.463
| 30> H 	 -106.628 	 17.8802 	 -122.338
| 31> H 	 -106.453 	 16.9162 	 -120.926
| 32> C 	 -104.674 	 17.1624 	 -122.156
| 33> H 	 -104.944 	 16.4535 	 -122.887
| 34> H 	 -104.18 	 16.5593 	 -121.456
| 35> C 	 -103.748 	 18.1401 	 -122.838
| 36> H 	 -104.308 	 18.8631 	 -123.413
| 37> H 	 -103.087 	 17.6231 	 -123.548
| 38> H 	 -103.029 	 18.5983 	 -122.138
| 39> H 	 -104.739 	 16.0056 	 -115.491
| 40> H 	 -106.468 	 22.2531 	 -120.643
| 41> *
| 42>
| 43>                          ****END OF INPUT****

CARTESIAN COORDINATES (ANGSTROEM)
---------------------------------
  S    -106.134000   17.543400  -116.960000
  C    -104.812000   16.568900  -116.381000
  C    -103.707000   16.654800  -117.190000
  C    -103.953000   17.409400  -118.351000
  C    -105.175000   18.061900  -118.304000
  H    -103.275000   17.668800  -119.115000
  C    -102.325000   16.098500  -116.952000
  H    -101.799000   15.965700  -117.926000
  H    -102.234000   15.095400  -116.513000
  C    -101.480000   17.034300  -116.069000
  H    -101.901000   17.067600  -115.065000
  H    -100.476000   16.542800  -115.921000
  C    -101.375000   18.482800  -116.465000
  H    -102.380000   19.013500  -116.451000
  H    -100.754000   19.133400  -115.857000
  H    -101.109000   18.512300  -117.514000
  S    -105.758000   20.740800  -118.834000
  C    -106.141000   21.290600  -120.467000
  C    -106.192000   20.206500  -121.328000
  C    -105.857000   18.934400  -120.677000
  C    -105.610000   19.062100  -119.302000
  H    -106.407000   20.319900  -122.426000
  C    -105.969000   17.686200  -121.463000
  H    -106.628000   17.880200  -122.338000
  H    -106.453000   16.916200  -120.926000
  C    -104.674000   17.162400  -122.156000
  H    -104.944000   16.453500  -122.887000
  H    -104.180000   16.559300  -121.456000
  C    -103.748000   18.140100  -122.838000
  H    -104.308000   18.863100  -123.413000
  H    -103.087000   17.623100  -123.548000
  H    -103.029000   18.598300  -122.138000
  H    -104.739000   16.005600  -115.491000
  H    -106.468000   22.253100  -120.643000

 Total Charge           Charge          ....    0
 Multiplicity           Mult            ....    1
 Number of Electrons    NEL             ....  134
 Basis Dimension        Dim             ....  322

ORBITAL ENERGIES
----------------

  NO   OCC          E(Eh)            E(eV)
   0   2.0000     -88.972747     -2421.0715
   1   2.0000     -88.962273     -2420.7865
   2   2.0000     -10.329286      -281.0742
   3   2.0000     -10.328783      -281.0605
   4   2.0000     -10.315821      -280.7078
   5   2.0000     -10.310195      -280.5547
   6   2.0000     -10.304682      -280.4047
   7   2.0000     -10.301853      -280.3277
   8   2.0000     -10.298110      -280.2258
   9   2.0000     -10.296874      -280.1922
  10   2.0000     -10.289198      -279.9833
  11   2.0000     -10.287167      -279.9280
  12   2.0000     -10.285526      -279.8834
  13   2.0000     -10.276350      -279.6337
  14   2.0000     -10.274760      -279.5904
  15   2.0000     -10.273679      -279.5610
  16   2.0000      -8.087497      -220.0720
  17   2.0000      -8.076970      -219.7855
  18   2.0000      -6.045922      -164.5179
  19   2.0000      -6.041973      -164.4104
  20   2.0000      -6.038375      -164.3125
  21   2.0000      -6.035548      -164.2356
  22   2.0000      -6.031355      -164.1215
  23   2.0000      -6.027794      -164.0246
  24   2.0000      -1.008283       -27.4368
  25   2.0000      -0.983334       -26.7579
  26   2.0000      -0.913462       -24.8566
  27   2.0000      -0.908680       -24.7264
  28   2.0000      -0.867235       -23.5987
  29   2.0000      -0.851315       -23.1655
  30   2.0000      -0.846518       -23.0349
  31   2.0000      -0.815171       -22.1819
  32   2.0000      -0.785433       -21.3727
  33   2.0000      -0.775837       -21.1116
  34   2.0000      -0.709991       -19.3198
  35   2.0000      -0.697582       -18.9822
  36   2.0000      -0.690313       -18.7844
  37   2.0000      -0.662805       -18.0358
  38   2.0000      -0.646272       -17.5859
  39   2.0000      -0.614907       -16.7325
  40   2.0000      -0.591530       -16.0964
  41   2.0000      -0.573785       -15.6135
  42   2.0000      -0.562722       -15.3124
  43   2.0000      -0.550847       -14.9893
  44   2.0000      -0.544484       -14.8162
  45   2.0000      -0.541077       -14.7234
  46   2.0000      -0.516567       -14.0565
  47   2.0000      -0.510004       -13.8779
  48   2.0000      -0.503103       -13.6901
  49   2.0000      -0.492786       -13.4094
  50   2.0000      -0.486846       -13.2478
  51   2.0000      -0.478119       -13.0103
  52   2.0000      -0.474489       -12.9115
  53   2.0000      -0.467445       -12.7198
  54   2.0000      -0.463803       -12.6207
  55   2.0000      -0.448103       -12.1935
  56   2.0000      -0.444229       -12.0881
  57   2.0000      -0.441285       -12.0080
  58   2.0000      -0.432276       -11.7628
  59   2.0000      -0.422128       -11.4867
  60   2.0000      -0.419055       -11.4031
  61   2.0000      -0.407614       -11.0917
  62   2.0000      -0.405291       -11.0285
  63   2.0000      -0.340935        -9.2773
  64   2.0000      -0.333950        -9.0873
  65   2.0000      -0.323305        -8.7976
  66   2.0000      -0.302456        -8.2302
  67   0.0000       0.035639         0.9698
  68   0.0000       0.062792         1.7086
  69   0.0000       0.113444         3.0870
  70   0.0000       0.119534         3.2527
  71   0.0000       0.128378         3.4933

MULLIKEN ATOMIC CHARGES
-----------------------
   0 S :    0.138596
   1 C :   -0.093494
   2 C :   -0.078286
   3 C :    0.056478
   4 C :   -0.177196
   5 H :   -0.000351
   6 C :    0.056276
   7 H :    0.027977
   8 H :    0.029604
   9 C :   -0.082484
  10 H :    0.021140
  11 H :    0.034706
  12 C :   -0.058640
  13 H :    0.047660
  14 H :    0.039721
  15 H :    0.017913
  16 S :    0.093057
  17 C :   -0.070570
  18 C :   -0.043698
  19 C :   -0.036003
  20 C :   -0.161660
  21 H :    0.045100
  22 C :    0.071090
  23 H :    0.016985
  24 H :    0.025138
  25 C :   -0.047923
  26 H :    0.010383
  27 H :    0.005481
  28 C :   -0.036336
  29 H :    0.022217
  30 H :    0.027349
  31 H :    0.037658
  32 H :    0.024688
  33 H :    0.037425
Sum of atomic charges:    0.0000000

LOEWDIN ATOMIC CHARGES
----------------------
   0 S :    0.429443
   1 C :   -0.195962
   2 C :   -0.063708
   3 C :   -0.050034
   4 C :   -0.203362
   5 H :    0.025416
   6 C :   -0.034003
   7 H :    0.032803
   8 H :    0.033494
   9 C :   -0.046514
  10 H :    0.020922
  11 H :    0.027722
  12 C :   -0.073817
  13 H :    0.036625
  14 H :    0.027477
  15 H :    0.018924
  16 S :    0.397647
  17 C :   -0.169820
  18 C :   -0.071311
  19 C :   -0.056805
  20 C :   -0.204348
  21 H :    0.039794
  22 C :   -0.030682
  23 H :    0.034162
  24 H :    0.029030
  25 C :   -0.037795
  26 H :    0.019646
  27 H :    0.013120
  28 C :   -0.064243
  29 H :    0.021505
  30 H :    0.029521
  31 H :    0.028454
  32 H :    0.022440
  33 H :    0.014261

  Mayer bond orders larger than 0.100000
B(  0-S ,  1-C ) :   1.1392 B(  0-S ,  4-C ) :   1.1670 B(  1-C ,  2-C ) :   1.6152
B(  1-C , 32-H ) :   0.9682 B(  2-C ,  3-C ) :   1.2489 B(  2-C ,  6-C ) :   1.0204
B(  3-C ,  4-C ) :   1.5724 B(  3-C ,  5-H ) :   0.9972 B(  4-C , 20-C ) :   1.0125
B(  6-C ,  7-H ) :   0.9422 B(  6-C ,  8-H ) :   0.9399 B(  6-C ,  9-C ) :   1.0732
B(  9-C , 10-H ) :   0.9540 B(  9-C , 11-H ) :   0.9551 B(  9-C , 12-C ) :   1.0829
B( 12-C , 13-H ) :   0.9644 B( 12-C , 14-H ) :   0.9723 B( 12-C , 15-H ) :   0.9738
B( 16-S , 17-C ) :   1.1554 B( 16-S , 20-C ) :   1.1427 B( 17-C , 18-C ) :   1.6016
B( 17-C , 33-H ) :   0.9791 B( 18-C , 19-C ) :   1.2386 B( 18-C , 21-H ) :   0.9762
B( 19-C , 20-C ) :   1.5902 B( 19-C , 22-C ) :   1.0614 B( 22-C , 23-H ) :   0.9342
B( 22-C , 24-H ) :   0.9363 B( 22-C , 25-C ) :   1.0686 B( 25-C , 26-H ) :   0.9535
B( 25-C , 27-H ) :   0.9503 B( 25-C , 28-C ) :   1.0875 B( 28-C , 29-H ) :   0.9732
B( 28-C , 30-H ) :   0.9716 B( 28-C , 31-H ) :   0.9711

Dispersion correction           -0.015751363
FINAL SINGLE POINT ENERGY     -1339.882535722353

DIPOLE MOMENT
-------------
                                X             Y             Z
Electronic contribution:    -19.03428       8.41671       9.58905
Nuclear contribution   :     19.36345      -8.69872      -9.88816
                        -----------------------------------------
Total Dipole Moment    :      0.32917      -0.28201      -0.29911
                        -----------------------------------------
Magnitude (a.u.)       :      0.52664
Magnitude (Debye)      :      1.33862

Rotational constants in cm-1:     0.018784     0.009170     0.008095
Rotational constants in MHz :   563.135989   274.900057   242.670949

                             ****ORCA TERMINATED NORMALLY****
TOTAL RUN TIME: 0 days 0 hours 0 minutes 22 seconds 631 msec
