                         Program Version 4.2.1 -  RELEASE  -
|  1> ! wB97X-D3 SP def2-SVP
|  2> %pal
|  3> nprocs 24
|  4> end
|  5>
|  6> * xyz 0 1
|  7> S 	 -71.7761 	 -43.4929 	 -95.3193
|  8> C 	 -70.944 	 -41.9378 	 -95.0778
|  9> C 	 -70.6021 	 -41.4079 	 -96.2932
| 10> C 	 -70.8239 	 -42.2745 	 -97.4228
| 11> C 	 -71.4486 	 -43.4237 	 -97.0386
| 12> H 	 -70.5991 	 -41.987 	 -98.3931
| 13> C 	 -69.7093 	 -40.1902 	 -96.4435
| 14> H 	 -69.8142 	 -39.5928 	 -95.5598
| 15> H 	 -70.0355 	 -39.5415 	 -97.2844
| 16> C 	 -68.2061 	 -40.4842 	 -96.6692
| 17> H 	 -67.6616 	 -39.5975 	 -96.8669
| 18> H 	 -67.6635 	 -40.8664 	 -95.8283
| 19> C 	 -67.9439 	 -41.408 	 -97.8535
| 20> H 	 -66.9331 	 -41.2848 	 -98.2863
| 21> H 	 -68.0511 	 -42.4806 	 -97.4695
| 22> H 	 -68.6623 	 -41.247 	 -98.5708
| 23> S 	 -70.9663 	 -46.0823 	 -97.2137
| 24> C 	 -71.3256 	 -46.9438 	 -98.6601
| 25> C 	 -72.0992 	 -46.2399 	 -99.5554
| 26> C 	 -72.1115 	 -44.844 	 -99.1919
| 27> C 	 -71.5319 	 -44.5912 	 -97.8905
| 28> H 	 -72.499 	 -46.7466 	 -100.429
| 29> C 	 -72.854 	 -43.7237 	 -99.9755
| 30> H 	 -73.0793 	 -44.1258 	 -100.923
| 31> H 	 -72.2174 	 -42.8816 	 -100.176
| 32> C 	 -74.23 	 -43.3597 	 -99.4398
| 33> H 	 -74.568 	 -42.5618 	 -100.094
| 34> H 	 -73.9879 	 -42.8706 	 -98.4567
| 35> C 	 -75.2565 	 -44.5034 	 -99.3414
| 36> H 	 -75.1596 	 -45.0382 	 -98.4832
| 37> H 	 -75.3413 	 -45.1952 	 -100.194
| 38> H 	 -76.2405 	 -44.0481 	 -99.2465
| 39> H 	 -70.7228 	 -41.5151 	 -94.0922
| 40> H 	 -71.1453 	 -48.0485 	 -98.8044
| 41> *
| 42>
| 43>                          ****END OF INPUT****

CARTESIAN COORDINATES (ANGSTROEM)
---------------------------------
  S    -71.776100  -43.492900  -95.319300
  C    -70.944000  -41.937800  -95.077800
  C    -70.602100  -41.407900  -96.293200
  C    -70.823900  -42.274500  -97.422800
  C    -71.448600  -43.423700  -97.038600
  H    -70.599100  -41.987000  -98.393100
  C    -69.709300  -40.190200  -96.443500
  H    -69.814200  -39.592800  -95.559800
  H    -70.035500  -39.541500  -97.284400
  C    -68.206100  -40.484200  -96.669200
  H    -67.661600  -39.597500  -96.866900
  H    -67.663500  -40.866400  -95.828300
  C    -67.943900  -41.408000  -97.853500
  H    -66.933100  -41.284800  -98.286300
  H    -68.051100  -42.480600  -97.469500
  H    -68.662300  -41.247000  -98.570800
  S    -70.966300  -46.082300  -97.213700
  C    -71.325600  -46.943800  -98.660100
  C    -72.099200  -46.239900  -99.555400
  C    -72.111500  -44.844000  -99.191900
  C    -71.531900  -44.591200  -97.890500
  H    -72.499000  -46.746600  -100.429000
  C    -72.854000  -43.723700  -99.975500
  H    -73.079300  -44.125800  -100.923000
  H    -72.217400  -42.881600  -100.176000
  C    -74.230000  -43.359700  -99.439800
  H    -74.568000  -42.561800  -100.094000
  H    -73.987900  -42.870600  -98.456700
  C    -75.256500  -44.503400  -99.341400
  H    -75.159600  -45.038200  -98.483200
  H    -75.341300  -45.195200  -100.194000
  H    -76.240500  -44.048100  -99.246500
  H    -70.722800  -41.515100  -94.092200
  H    -71.145300  -48.048500  -98.804400

 Total Charge           Charge          ....    0
 Multiplicity           Mult            ....    1
 Number of Electrons    NEL             ....  134
 Basis Dimension        Dim             ....  322

ORBITAL ENERGIES
----------------

  NO   OCC          E(Eh)            E(eV)
   0   2.0000     -88.967194     -2420.9204
   1   2.0000     -88.966051     -2420.8893
   2   2.0000     -10.329176      -281.0712
   3   2.0000     -10.326437      -280.9966
   4   2.0000     -10.317142      -280.7437
   5   2.0000     -10.315959      -280.7115
   6   2.0000     -10.310527      -280.5637
   7   2.0000     -10.299593      -280.2662
   8   2.0000     -10.296697      -280.1874
   9   2.0000     -10.292595      -280.0758
  10   2.0000     -10.288293      -279.9587
  11   2.0000     -10.284000      -279.8419
  12   2.0000     -10.282827      -279.8099
  13   2.0000     -10.278012      -279.6789
  14   2.0000     -10.272260      -279.5224
  15   2.0000     -10.268902      -279.4310
  16   2.0000      -8.081598      -219.9115
  17   2.0000      -8.081388      -219.9058
  18   2.0000      -6.040268      -164.3641
  19   2.0000      -6.039739      -164.3497
  20   2.0000      -6.036234      -164.2543
  21   2.0000      -6.035754      -164.2412
  22   2.0000      -6.032334      -164.1482
  23   2.0000      -6.032116      -164.1422
  24   2.0000      -1.007685       -27.4205
  25   2.0000      -0.983117       -26.7520
  26   2.0000      -0.911949       -24.8154
  27   2.0000      -0.905872       -24.6500
  28   2.0000      -0.871264       -23.7083
  29   2.0000      -0.847505       -23.0618
  30   2.0000      -0.840991       -22.8845
  31   2.0000      -0.816758       -22.2251
  32   2.0000      -0.787157       -21.4196
  33   2.0000      -0.771222       -20.9860
  34   2.0000      -0.708078       -19.2678
  35   2.0000      -0.702676       -19.1208
  36   2.0000      -0.684527       -18.6269
  37   2.0000      -0.659296       -17.9404
  38   2.0000      -0.641077       -17.4446
  39   2.0000      -0.619562       -16.8591
  40   2.0000      -0.588425       -16.0119
  41   2.0000      -0.570823       -15.5329
  42   2.0000      -0.555856       -15.1256
  43   2.0000      -0.547719       -14.9042
  44   2.0000      -0.544986       -14.8298
  45   2.0000      -0.537834       -14.6352
  46   2.0000      -0.519839       -14.1455
  47   2.0000      -0.511816       -13.9272
  48   2.0000      -0.502269       -13.6674
  49   2.0000      -0.492130       -13.3915
  50   2.0000      -0.484795       -13.1919
  51   2.0000      -0.480556       -13.0766
  52   2.0000      -0.475855       -12.9487
  53   2.0000      -0.464225       -12.6322
  54   2.0000      -0.458639       -12.4802
  55   2.0000      -0.445753       -12.1296
  56   2.0000      -0.443206       -12.0602
  57   2.0000      -0.439114       -11.9489
  58   2.0000      -0.434239       -11.8162
  59   2.0000      -0.426193       -11.5973
  60   2.0000      -0.417346       -11.3566
  61   2.0000      -0.408057       -11.1038
  62   2.0000      -0.407598       -11.0913
  63   2.0000      -0.349829        -9.5193
  64   2.0000      -0.331026        -9.0077
  65   2.0000      -0.330009        -8.9800
  66   2.0000      -0.286124        -7.7858
  67   0.0000       0.027981         0.7614
  68   0.0000       0.069103         1.8804
  69   0.0000       0.109826         2.9885
  70   0.0000       0.127075         3.4579
  71   0.0000       0.128242         3.4896

MULLIKEN ATOMIC CHARGES
-----------------------
   0 S :    0.100705
   1 C :   -0.145669
   2 C :   -0.059674
   3 C :    0.043825
   4 C :   -0.118195
   5 H :   -0.013256
   6 C :    0.050423
   7 H :    0.013777
   8 H :    0.032303
   9 C :   -0.038719
  10 H :    0.013275
  11 H :    0.018126
  12 C :   -0.060978
  13 H :    0.038709
  14 H :    0.059051
  15 H :    0.001042
  16 S :    0.120070
  17 C :   -0.119426
  18 C :   -0.034985
  19 C :   -0.061644
  20 C :   -0.157075
  21 H :    0.026924
  22 C :    0.094193
  23 H :   -0.010348
  24 H :    0.024968
  25 C :   -0.083692
  26 H :    0.026417
  27 H :    0.041445
  28 C :   -0.007722
  29 H :    0.021583
  30 H :    0.028037
  31 H :    0.024537
  32 H :    0.058890
  33 H :    0.073082
Sum of atomic charges:    0.0000000

LOEWDIN ATOMIC CHARGES
----------------------
   0 S :    0.384050
   1 C :   -0.188078
   2 C :   -0.061757
   3 C :   -0.046751
   4 C :   -0.190093
   5 H :    0.019419
   6 C :   -0.030458
   7 H :    0.025858
   8 H :    0.033537
   9 C :   -0.037388
  10 H :    0.018632
  11 H :    0.020715
  12 C :   -0.062746
  13 H :    0.029237
  14 H :    0.039143
  15 H :    0.004193
  16 S :    0.431835
  17 C :   -0.207800
  18 C :   -0.074719
  19 C :   -0.049281
  20 C :   -0.208462
  21 H :    0.035874
  22 C :   -0.033524
  23 H :    0.018386
  24 H :    0.026912
  25 C :   -0.037820
  26 H :    0.022355
  27 H :    0.030652
  28 C :   -0.059318
  29 H :    0.015673
  30 H :    0.026900
  31 H :    0.031606
  32 H :    0.033625
  33 H :    0.039593

  Mayer bond orders larger than 0.100000
B(  0-S ,  1-C ) :   1.1085 B(  0-S ,  4-C ) :   1.1419 B(  1-C ,  2-C ) :   1.6278
B(  1-C , 32-H ) :   0.9697 B(  2-C ,  3-C ) :   1.2179 B(  2-C ,  6-C ) :   1.0449
B(  3-C ,  4-C ) :   1.5706 B(  3-C ,  5-H ) :   1.0056 B(  4-C , 20-C ) :   1.0635
B(  6-C ,  7-H ) :   0.9401 B(  6-C ,  8-H ) :   0.9385 B(  6-C ,  9-C ) :   1.0718
B(  9-C , 10-H ) :   0.9545 B(  9-C , 11-H ) :   0.9557 B(  9-C , 12-C ) :   1.0875
B( 12-C , 13-H ) :   0.9691 B( 12-C , 14-H ) :   0.9681 B( 12-C , 15-H ) :   0.9753
B( 16-S , 17-C ) :   1.1765 B( 16-S , 20-C ) :   1.1588 B( 17-C , 18-C ) :   1.5926
B( 17-C , 20-C ) :   0.1012 B( 17-C , 33-H ) :   0.9572 B( 18-C , 19-C ) :   1.2700
B( 18-C , 21-H ) :   0.9888 B( 19-C , 20-C ) :   1.5269 B( 19-C , 22-C ) :   1.0400
B( 22-C , 23-H ) :   0.9246 B( 22-C , 24-H ) :   0.9377 B( 22-C , 25-C ) :   1.0750
B( 25-C , 26-H ) :   0.9576 B( 25-C , 27-H ) :   0.9550 B( 25-C , 28-C ) :   1.0667
B( 28-C , 29-H ) :   0.9728 B( 28-C , 30-H ) :   0.9763 B( 28-C , 31-H ) :   0.9707

Dispersion correction           -0.015503929
FINAL SINGLE POINT ENERGY     -1339.864719915092

DIPOLE MOMENT
-------------
                                X             Y             Z
Electronic contribution:     -0.08551     -14.00264      12.63530
Nuclear contribution   :      0.17226      14.30073     -12.98579
                        -----------------------------------------
Total Dipole Moment    :      0.08675       0.29808      -0.35049
                        -----------------------------------------
Magnitude (a.u.)       :      0.46821
Magnitude (Debye)      :      1.19011

Rotational constants in cm-1:     0.020139     0.008844     0.008337
Rotational constants in MHz :   603.762148   265.148738   249.950331

                             ****ORCA TERMINATED NORMALLY****
TOTAL RUN TIME: 0 days 0 hours 0 minutes 22 seconds 603 msec
