                         Program Version 4.2.1 -  RELEASE  -
|  1> ! wB97X-D3 SP def2-SVP
|  2> %pal
|  3> nprocs 24
|  4> end
|  5>
|  6> * xyz 0 1
|  7> S 	 -42.7783 	 7.98276 	 29.855
|  8> C 	 -42.1114 	 9.47412 	 29.2817
|  9> C 	 -43.0887 	 10.379 	 29.0141
| 10> C 	 -44.3713 	 9.78834 	 29.1419
| 11> C 	 -44.4777 	 8.4955 	 29.6361
| 12> H 	 -45.3145 	 10.2483 	 28.8587
| 13> C 	 -42.7764 	 11.8075 	 28.4926
| 14> H 	 -41.6762 	 11.9367 	 28.6472
| 15> H 	 -43.27 	 12.4924 	 29.13
| 16> C 	 -43.0693 	 12.1038 	 27.0375
| 17> H 	 -44.1109 	 12.1638 	 26.8276
| 18> H 	 -42.8082 	 13.1862 	 26.8858
| 19> C 	 -42.3613 	 11.1714 	 25.9657
| 20> H 	 -42.6085 	 10.153 	 26.2439
| 21> H 	 -42.8069 	 11.3872 	 25.0165
| 22> H 	 -41.2677 	 11.235 	 25.8356
| 23> S 	 -45.3252 	 5.83441 	 29.7617
| 24> C 	 -46.9913 	 5.56328 	 30.3049
| 25> C 	 -47.6625 	 6.74058 	 30.483
| 26> C 	 -46.9004 	 7.91167 	 30.2043
| 27> C 	 -45.6021 	 7.58663 	 29.8328
| 28> H 	 -48.6687 	 6.77029 	 30.8862
| 29> C 	 -47.4516 	 9.31157 	 30.5705
| 30> H 	 -46.667 	 9.97533 	 30.3599
| 31> H 	 -47.5931 	 9.46425 	 31.6085
| 32> C 	 -48.7013 	 9.82411 	 29.8175
| 33> H 	 -48.8712 	 10.8443 	 30.2443
| 34> H 	 -49.5629 	 9.1917 	 30.0653
| 35> C 	 -48.5933 	 9.99109 	 28.3372
| 36> H 	 -49.5369 	 10.1504 	 27.7915
| 37> H 	 -48.1818 	 9.03466 	 27.947
| 38> H 	 -47.9277 	 10.7904 	 28.0435
| 39> H 	 -41.0191 	 9.58685 	 29.114
| 40> H 	 -47.5532 	 4.61247 	 30.4554
| 41> *
| 42>
| 43>                          ****END OF INPUT****

CARTESIAN COORDINATES (ANGSTROEM)
---------------------------------
  S    -42.778300    7.982760   29.855000
  C    -42.111400    9.474120   29.281700
  C    -43.088700   10.379000   29.014100
  C    -44.371300    9.788340   29.141900
  C    -44.477700    8.495500   29.636100
  H    -45.314500   10.248300   28.858700
  C    -42.776400   11.807500   28.492600
  H    -41.676200   11.936700   28.647200
  H    -43.270000   12.492400   29.130000
  C    -43.069300   12.103800   27.037500
  H    -44.110900   12.163800   26.827600
  H    -42.808200   13.186200   26.885800
  C    -42.361300   11.171400   25.965700
  H    -42.608500   10.153000   26.243900
  H    -42.806900   11.387200   25.016500
  H    -41.267700   11.235000   25.835600
  S    -45.325200    5.834410   29.761700
  C    -46.991300    5.563280   30.304900
  C    -47.662500    6.740580   30.483000
  C    -46.900400    7.911670   30.204300
  C    -45.602100    7.586630   29.832800
  H    -48.668700    6.770290   30.886200
  C    -47.451600    9.311570   30.570500
  H    -46.667000    9.975330   30.359900
  H    -47.593100    9.464250   31.608500
  C    -48.701300    9.824110   29.817500
  H    -48.871200   10.844300   30.244300
  H    -49.562900    9.191700   30.065300
  C    -48.593300    9.991090   28.337200
  H    -49.536900   10.150400   27.791500
  H    -48.181800    9.034660   27.947000
  H    -47.927700   10.790400   28.043500
  H    -41.019100    9.586850   29.114000
  H    -47.553200    4.612470   30.455400

 Total Charge           Charge          ....    0
 Multiplicity           Mult            ....    1
 Number of Electrons    NEL             ....  134
 Basis Dimension        Dim             ....  322

ORBITAL ENERGIES
----------------

  NO   OCC          E(Eh)            E(eV)
   0   2.0000     -88.973296     -2421.0865
   1   2.0000     -88.960344     -2420.7340
   2   2.0000     -10.335873      -281.2534
   3   2.0000     -10.334290      -281.2103
   4   2.0000     -10.322968      -280.9022
   5   2.0000     -10.314959      -280.6843
   6   2.0000     -10.306546      -280.4554
   7   2.0000     -10.300017      -280.2777
   8   2.0000     -10.294875      -280.1378
   9   2.0000     -10.294344      -280.1234
  10   2.0000     -10.293027      -280.0875
  11   2.0000     -10.290449      -280.0173
  12   2.0000     -10.290310      -280.0136
  13   2.0000     -10.288496      -279.9642
  14   2.0000     -10.278272      -279.6860
  15   2.0000     -10.276828      -279.6467
  16   2.0000      -8.086907      -220.0559
  17   2.0000      -8.075175      -219.7367
  18   2.0000      -6.045599      -164.5091
  19   2.0000      -6.041706      -164.4032
  20   2.0000      -6.037382      -164.2855
  21   2.0000      -6.033760      -164.1869
  22   2.0000      -6.029573      -164.0730
  23   2.0000      -6.025945      -163.9743
  24   2.0000      -1.005994       -27.3745
  25   2.0000      -0.985194       -26.8085
  26   2.0000      -0.911129       -24.7931
  27   2.0000      -0.906732       -24.6734
  28   2.0000      -0.870629       -23.6910
  29   2.0000      -0.852981       -23.2108
  30   2.0000      -0.837835       -22.7986
  31   2.0000      -0.816420       -22.2159
  32   2.0000      -0.789264       -21.4770
  33   2.0000      -0.779099       -21.2004
  34   2.0000      -0.711907       -19.3720
  35   2.0000      -0.694554       -18.8998
  36   2.0000      -0.694069       -18.8866
  37   2.0000      -0.658044       -17.9063
  38   2.0000      -0.641244       -17.4491
  39   2.0000      -0.620119       -16.8743
  40   2.0000      -0.597987       -16.2721
  41   2.0000      -0.564382       -15.3576
  42   2.0000      -0.556473       -15.1424
  43   2.0000      -0.551875       -15.0173
  44   2.0000      -0.546251       -14.8642
  45   2.0000      -0.533155       -14.5079
  46   2.0000      -0.521703       -14.1963
  47   2.0000      -0.511103       -13.9078
  48   2.0000      -0.502945       -13.6858
  49   2.0000      -0.495199       -13.4750
  50   2.0000      -0.486484       -13.2379
  51   2.0000      -0.481222       -13.0947
  52   2.0000      -0.471777       -12.8377
  53   2.0000      -0.466984       -12.7073
  54   2.0000      -0.461777       -12.5656
  55   2.0000      -0.451379       -12.2827
  56   2.0000      -0.446406       -12.1473
  57   2.0000      -0.442163       -12.0319
  58   2.0000      -0.433143       -11.7864
  59   2.0000      -0.423772       -11.5314
  60   2.0000      -0.416627       -11.3370
  61   2.0000      -0.411986       -11.2107
  62   2.0000      -0.404719       -11.0130
  63   2.0000      -0.362302        -9.8587
  64   2.0000      -0.338087        -9.1998
  65   2.0000      -0.329672        -8.9708
  66   2.0000      -0.286605        -7.7989
  67   0.0000       0.018775         0.5109
  68   0.0000       0.082590         2.2474
  69   0.0000       0.102979         2.8022
  70   0.0000       0.121337         3.3017
  71   0.0000       0.129405         3.5213

MULLIKEN ATOMIC CHARGES
-----------------------
   0 S :    0.078484
   1 C :   -0.146136
   2 C :   -0.087081
   3 C :    0.011214
   4 C :   -0.148521
   5 H :   -0.000543
   6 C :    0.105650
   7 H :    0.020831
   8 H :    0.023497
   9 C :   -0.079326
  10 H :    0.018999
  11 H :    0.027240
  12 C :   -0.051212
  13 H :    0.044025
  14 H :    0.028849
  15 H :    0.038017
  16 S :    0.117816
  17 C :   -0.093615
  18 C :   -0.034500
  19 C :   -0.066673
  20 C :   -0.122507
  21 H :    0.020054
  22 C :    0.120704
  23 H :   -0.022746
  24 H :    0.031945
  25 C :   -0.084700
  26 H :    0.031708
  27 H :    0.031396
  28 C :   -0.059215
  29 H :    0.039155
  30 H :    0.038186
  31 H :    0.030270
  32 H :    0.068874
  33 H :    0.069863
Sum of atomic charges:    0.0000000

LOEWDIN ATOMIC CHARGES
----------------------
   0 S :    0.384237
   1 C :   -0.198240
   2 C :   -0.075215
   3 C :   -0.072832
   4 C :   -0.176009
   5 H :    0.024431
   6 C :   -0.024016
   7 H :    0.034562
   8 H :    0.026899
   9 C :   -0.043364
  10 H :    0.018130
  11 H :    0.029383
  12 C :   -0.063910
  13 H :    0.027397
  14 H :    0.024291
  15 H :    0.026848
  16 S :    0.391511
  17 C :   -0.184610
  18 C :   -0.070701
  19 C :   -0.054770
  20 C :   -0.186108
  21 H :    0.032171
  22 C :   -0.023531
  23 H :    0.019481
  24 H :    0.033162
  25 C :   -0.041930
  26 H :    0.029661
  27 H :    0.021774
  28 C :   -0.072586
  29 H :    0.030914
  30 H :    0.030270
  31 H :    0.021113
  32 H :    0.038176
  33 H :    0.043413

  Mayer bond orders larger than 0.100000
B(  0-S ,  1-C ) :   1.1535 B(  0-S ,  4-C ) :   1.1299 B(  1-C ,  2-C ) :   1.5978
B(  1-C , 32-H ) :   0.9613 B(  2-C ,  3-C ) :   1.2501 B(  2-C ,  6-C ) :   1.0129
B(  3-C ,  4-C ) :   1.5740 B(  3-C ,  5-H ) :   0.9835 B(  4-C , 20-C ) :   1.0802
B(  6-C ,  7-H ) :   0.9427 B(  6-C ,  8-H ) :   0.9339 B(  6-C ,  9-C ) :   1.0830
B(  9-C , 10-H ) :   0.9565 B(  9-C , 11-H ) :   0.9516 B(  9-C , 12-C ) :   1.0605
B( 12-C , 13-H ) :   0.9766 B( 12-C , 14-H ) :   0.9760 B( 12-C , 15-H ) :   0.9790
B( 16-S , 17-C ) :   1.1254 B( 16-S , 20-C ) :   1.1291 B( 17-C , 18-C ) :   1.6434
B( 17-C , 33-H ) :   0.9593 B( 18-C , 19-C ) :   1.2363 B( 18-C , 21-H ) :   0.9849
B( 19-C , 20-C ) :   1.5906 B( 19-C , 22-C ) :   1.0283 B( 22-C , 23-H ) :   0.9206
B( 22-C , 24-H ) :   0.9343 B( 22-C , 25-C ) :   1.0712 B( 25-C , 26-H ) :   0.9523
B( 25-C , 27-H ) :   0.9578 B( 25-C , 28-C ) :   1.0843 B( 28-C , 29-H ) :   0.9714
B( 28-C , 30-H ) :   0.9725 B( 28-C , 31-H ) :   0.9705

Dispersion correction           -0.014606567
FINAL SINGLE POINT ENERGY     -1339.885348068317

DIPOLE MOMENT
-------------
                                X             Y             Z
Electronic contribution:      8.57058     -23.70060      12.14381
Nuclear contribution   :     -9.00508      24.25806     -12.23872
                        -----------------------------------------
Total Dipole Moment    :     -0.43449       0.55746      -0.09491
                        -----------------------------------------
Magnitude (a.u.)       :      0.71313
Magnitude (Debye)      :      1.81264

Rotational constants in cm-1:     0.018545     0.009138     0.006842
Rotational constants in MHz :   555.963223   273.950987   205.130337

                             ****ORCA TERMINATED NORMALLY****
TOTAL RUN TIME: 0 days 0 hours 0 minutes 22 seconds 22 msec
