                         Program Version 4.2.1 -  RELEASE  -
|  1> ! wB97X-D3 SP def2-SVP
|  2> %pal
|  3> nprocs 24
|  4> end
|  5>
|  6> * xyz 0 1
|  7> S 	 -48.111 	 26.119 	 26.9886
|  8> C 	 -47.7572 	 27.6305 	 26.1665
|  9> C 	 -46.4362 	 27.9852 	 26.4088
| 10> C 	 -45.7805 	 27.1133 	 27.3998
| 11> C 	 -46.5343 	 25.9906 	 27.6973
| 12> H 	 -44.7908 	 27.2587 	 27.8181
| 13> C 	 -45.6883 	 28.9631 	 25.6355
| 14> H 	 -46.3769 	 29.2295 	 24.8198
| 15> H 	 -44.7427 	 28.4565 	 25.3545
| 16> C 	 -45.3584 	 30.2586 	 26.4683
| 17> H 	 -46.3313 	 30.8496 	 26.6755
| 18> H 	 -44.974 	 29.9642 	 27.4535
| 19> C 	 -44.2361 	 31.2406 	 25.7636
| 20> H 	 -44.0579 	 32.08 	 26.4251
| 21> H 	 -43.3229 	 30.7333 	 25.5626
| 22> H 	 -44.7868 	 31.6785 	 24.9565
| 23> S 	 -46.5528 	 23.2925 	 28.2018
| 24> C 	 -46.0633 	 22.6989 	 29.7263
| 25> C 	 -45.6404 	 23.7181 	 30.5653
| 26> C 	 -45.5049 	 24.9728 	 29.8719
| 27> C 	 -46.1019 	 24.9193 	 28.621
| 28> H 	 -45.2575 	 23.5758 	 31.5609
| 29> C 	 -44.9679 	 26.1086 	 30.6529
| 30> H 	 -44.4813 	 26.7868 	 29.9641
| 31> H 	 -44.3295 	 25.7765 	 31.4172
| 32> C 	 -46.004 	 26.9517 	 31.4474
| 33> H 	 -45.4296 	 27.7475 	 31.9152
| 34> H 	 -46.4297 	 26.3909 	 32.2386
| 35> C 	 -47.1199 	 27.6779 	 30.6808
| 36> H 	 -46.6035 	 28.3588 	 29.8932
| 37> H 	 -47.7391 	 28.1952 	 31.336
| 38> H 	 -47.752 	 26.9492 	 30.1459
| 39> H 	 -48.5246 	 27.9579 	 25.452
| 40> H 	 -46.2121 	 21.7353 	 30.0268
| 41> *
| 42>
| 43>                          ****END OF INPUT****

CARTESIAN COORDINATES (ANGSTROEM)
---------------------------------
  S    -48.111000   26.119000   26.988600
  C    -47.757200   27.630500   26.166500
  C    -46.436200   27.985200   26.408800
  C    -45.780500   27.113300   27.399800
  C    -46.534300   25.990600   27.697300
  H    -44.790800   27.258700   27.818100
  C    -45.688300   28.963100   25.635500
  H    -46.376900   29.229500   24.819800
  H    -44.742700   28.456500   25.354500
  C    -45.358400   30.258600   26.468300
  H    -46.331300   30.849600   26.675500
  H    -44.974000   29.964200   27.453500
  C    -44.236100   31.240600   25.763600
  H    -44.057900   32.080000   26.425100
  H    -43.322900   30.733300   25.562600
  H    -44.786800   31.678500   24.956500
  S    -46.552800   23.292500   28.201800
  C    -46.063300   22.698900   29.726300
  C    -45.640400   23.718100   30.565300
  C    -45.504900   24.972800   29.871900
  C    -46.101900   24.919300   28.621000
  H    -45.257500   23.575800   31.560900
  C    -44.967900   26.108600   30.652900
  H    -44.481300   26.786800   29.964100
  H    -44.329500   25.776500   31.417200
  C    -46.004000   26.951700   31.447400
  H    -45.429600   27.747500   31.915200
  H    -46.429700   26.390900   32.238600
  C    -47.119900   27.677900   30.680800
  H    -46.603500   28.358800   29.893200
  H    -47.739100   28.195200   31.336000
  H    -47.752000   26.949200   30.145900
  H    -48.524600   27.957900   25.452000
  H    -46.212100   21.735300   30.026800

 Total Charge           Charge          ....    0
 Multiplicity           Mult            ....    1
 Number of Electrons    NEL             ....  134
 Basis Dimension        Dim             ....  322

ORBITAL ENERGIES
----------------

  NO   OCC          E(Eh)            E(eV)
   0   2.0000     -88.965619     -2420.8776
   1   2.0000     -88.962485     -2420.7923
   2   2.0000     -10.331062      -281.1225
   3   2.0000     -10.327272      -281.0194
   4   2.0000     -10.316306      -280.7209
   5   2.0000     -10.309514      -280.5361
   6   2.0000     -10.304065      -280.3879
   7   2.0000     -10.302092      -280.3342
   8   2.0000     -10.301010      -280.3047
   9   2.0000     -10.294997      -280.1411
  10   2.0000     -10.293669      -280.1050
  11   2.0000     -10.292301      -280.0678
  12   2.0000     -10.286650      -279.9140
  13   2.0000     -10.281103      -279.7630
  14   2.0000     -10.279387      -279.7163
  15   2.0000     -10.270881      -279.4849
  16   2.0000      -8.081376      -219.9054
  17   2.0000      -8.077412      -219.7975
  18   2.0000      -6.039787      -164.3510
  19   2.0000      -6.036037      -164.2489
  20   2.0000      -6.035623      -164.2376
  21   2.0000      -6.032326      -164.1479
  22   2.0000      -6.031783      -164.1332
  23   2.0000      -6.028142      -164.0341
  24   2.0000      -1.008839       -27.4519
  25   2.0000      -0.985991       -26.8302
  26   2.0000      -0.912382       -24.8272
  27   2.0000      -0.907737       -24.7008
  28   2.0000      -0.864506       -23.5244
  29   2.0000      -0.850356       -23.1394
  30   2.0000      -0.839142       -22.8342
  31   2.0000      -0.814715       -22.1695
  32   2.0000      -0.784595       -21.3499
  33   2.0000      -0.771396       -20.9908
  34   2.0000      -0.705162       -19.1884
  35   2.0000      -0.695950       -18.9378
  36   2.0000      -0.692279       -18.8379
  37   2.0000      -0.665913       -18.1204
  38   2.0000      -0.643739       -17.5170
  39   2.0000      -0.618766       -16.8375
  40   2.0000      -0.599174       -16.3043
  41   2.0000      -0.567350       -15.4384
  42   2.0000      -0.560003       -15.2385
  43   2.0000      -0.553025       -15.0486
  44   2.0000      -0.541402       -14.7323
  45   2.0000      -0.525272       -14.2934
  46   2.0000      -0.520805       -14.1718
  47   2.0000      -0.511717       -13.9245
  48   2.0000      -0.505875       -13.7656
  49   2.0000      -0.502989       -13.6870
  50   2.0000      -0.492610       -13.4046
  51   2.0000      -0.479852       -13.0574
  52   2.0000      -0.473169       -12.8756
  53   2.0000      -0.461115       -12.5476
  54   2.0000      -0.455954       -12.4071
  55   2.0000      -0.445169       -12.1137
  56   2.0000      -0.440178       -11.9778
  57   2.0000      -0.436780       -11.8854
  58   2.0000      -0.433090       -11.7850
  59   2.0000      -0.425552       -11.5799
  60   2.0000      -0.421328       -11.4649
  61   2.0000      -0.412347       -11.2205
  62   2.0000      -0.410242       -11.1633
  63   2.0000      -0.351072        -9.5532
  64   2.0000      -0.330000        -8.9798
  65   2.0000      -0.320741        -8.7278
  66   2.0000      -0.289789        -7.8856
  67   0.0000       0.030497         0.8299
  68   0.0000       0.075258         2.0479
  69   0.0000       0.108395         2.9496
  70   0.0000       0.120156         3.2696
  71   0.0000       0.124023         3.3748

MULLIKEN ATOMIC CHARGES
-----------------------
   0 S :    0.094413
   1 C :   -0.145586
   2 C :   -0.081961
   3 C :   -0.000482
   4 C :   -0.109632
   5 H :    0.016957
   6 C :    0.083917
   7 H :    0.025950
   8 H :    0.044628
   9 C :   -0.155957
  10 H :    0.045191
  11 H :    0.030214
  12 C :   -0.026064
  13 H :    0.031025
  14 H :    0.041644
  15 H :    0.032924
  16 S :    0.114816
  17 C :   -0.043378
  18 C :   -0.038152
  19 C :   -0.052903
  20 C :   -0.166126
  21 H :    0.015459
  22 C :    0.115212
  23 H :    0.007927
  24 H :    0.010310
  25 C :   -0.078817
  26 H :    0.022759
  27 H :    0.012929
  28 C :   -0.041922
  29 H :    0.042033
  30 H :    0.022566
  31 H :    0.038538
  32 H :    0.067513
  33 H :    0.024053
Sum of atomic charges:   -0.0000000

LOEWDIN ATOMIC CHARGES
----------------------
   0 S :    0.401468
   1 C :   -0.205053
   2 C :   -0.059259
   3 C :   -0.070602
   4 C :   -0.192655
   5 H :    0.027355
   6 C :   -0.037506
   7 H :    0.034870
   8 H :    0.040155
   9 C :   -0.041235
  10 H :    0.032806
  11 H :    0.015130
  12 C :   -0.061199
  13 H :    0.026161
  14 H :    0.021253
  15 H :    0.024304
  16 S :    0.431073
  17 C :   -0.181449
  18 C :   -0.063829
  19 C :   -0.053460
  20 C :   -0.204257
  21 H :    0.028366
  22 C :   -0.026393
  23 H :    0.026395
  24 H :    0.028937
  25 C :   -0.031982
  26 H :    0.023029
  27 H :    0.014073
  28 C :   -0.063305
  29 H :    0.034542
  30 H :    0.014957
  31 H :    0.024503
  32 H :    0.033128
  33 H :    0.009680

  Mayer bond orders larger than 0.100000
B(  0-S ,  1-C ) :   1.1180 B(  0-S ,  4-C ) :   1.1586 B(  1-C ,  2-C ) :   1.6054
B(  1-C , 32-H ) :   0.9706 B(  2-C ,  3-C ) :   1.2054 B(  2-C ,  6-C ) :   1.0456
B(  3-C ,  4-C ) :   1.5799 B(  3-C ,  5-H ) :   0.9935 B(  4-C , 20-C ) :   1.0349
B(  6-C ,  7-H ) :   0.9378 B(  6-C ,  8-H ) :   0.9395 B(  6-C ,  9-C ) :   1.0418
B(  9-C , 10-H ) :   0.9579 B(  9-C , 11-H ) :   0.9663 B(  9-C , 12-C ) :   1.0617
B( 12-C , 13-H ) :   0.9775 B( 12-C , 14-H ) :   0.9796 B( 12-C , 15-H ) :   0.9785
B( 16-S , 17-C ) :   1.1701 B( 16-S , 20-C ) :   1.1480 B( 17-C , 18-C ) :   1.5838
B( 17-C , 33-H ) :   0.9796 B( 18-C , 19-C ) :   1.2560 B( 18-C , 21-H ) :   0.9872
B( 19-C , 20-C ) :   1.5698 B( 19-C , 22-C ) :   1.0662 B( 22-C , 23-H ) :   0.9271
B( 22-C , 24-H ) :   0.9194 B( 22-C , 25-C ) :   1.0784 B( 25-C , 26-H ) :   0.9544
B( 25-C , 27-H ) :   0.9534 B( 25-C , 28-C ) :   1.0873 B( 28-C , 29-H ) :   0.9707
B( 28-C , 30-H ) :   0.9713 B( 28-C , 31-H ) :   0.9695

Dispersion correction           -0.015634642
FINAL SINGLE POINT ENERGY     -1339.868052526042

DIPOLE MOMENT
-------------
                                X             Y             Z
Electronic contribution:     -9.93406     -26.47611      -5.23721
Nuclear contribution   :     10.26416      26.87627       5.49413
                        -----------------------------------------
Total Dipole Moment    :      0.33010       0.40016       0.25692
                        -----------------------------------------
Magnitude (a.u.)       :      0.57888
Magnitude (Debye)      :      1.47140

Rotational constants in cm-1:     0.021352     0.008552     0.007192
Rotational constants in MHz :   640.112598   256.371726   215.610466

                             ****ORCA TERMINATED NORMALLY****
TOTAL RUN TIME: 0 days 0 hours 0 minutes 21 seconds 431 msec
