                         Program Version 4.2.1 -  RELEASE  -
|  1> ! wB97X-D3 SP def2-SVP
|  2> %pal
|  3> nprocs 24
|  4> end
|  5>
|  6> * xyz 0 1
|  7> S 	 -38.0341 	 -8.89188 	 17.8364
|  8> C 	 -37.5881 	 -10.5389 	 18.0836
|  9> C 	 -38.1504 	 -11.3174 	 17.125
| 10> C 	 -38.7543 	 -10.5246 	 16.1257
| 11> C 	 -38.6298 	 -9.17946 	 16.2428
| 12> H 	 -39.1712 	 -10.9715 	 15.2854
| 13> C 	 -37.9901 	 -12.8216 	 16.9844
| 14> H 	 -39.0019 	 -13.1733 	 16.7216
| 15> H 	 -37.5715 	 -13.302 	 17.8452
| 16> C 	 -37.018 	 -13.1982 	 15.9071
| 17> H 	 -37.0998 	 -14.2369 	 15.4777
| 18> H 	 -37.115 	 -12.4919 	 15.1541
| 19> C 	 -35.572 	 -13.0907 	 16.2531
| 20> H 	 -35.3917 	 -13.6308 	 17.1497
| 21> H 	 -35.0469 	 -13.4611 	 15.3726
| 22> H 	 -35.3651 	 -12.0557 	 16.4942
| 23> S 	 -39.889 	 -6.73941 	 15.9265
| 24> C 	 -40.1164 	 -6.08488 	 14.2901
| 25> C 	 -39.6253 	 -6.94727 	 13.3401
| 26> C 	 -38.9806 	 -8.10966 	 13.9182
| 27> C 	 -39.0011 	 -8.15819 	 15.2669
| 28> H 	 -39.7586 	 -6.60756 	 12.3403
| 29> C 	 -38.4108 	 -9.1581 	 13.003
| 30> H 	 -38.8598 	 -8.91322 	 12.0678
| 31> H 	 -38.7491 	 -10.182 	 13.3017
| 32> C 	 -36.8483 	 -9.28988 	 12.8837
| 33> H 	 -36.3275 	 -8.41647 	 12.5464
| 34> H 	 -36.6869 	 -10.0882 	 12.1608
| 35> C 	 -36.1789 	 -9.52495 	 14.2075
| 36> H 	 -36.2356 	 -8.77137 	 14.9582
| 37> H 	 -35.1307 	 -9.52355 	 13.9636
| 38> H 	 -36.3884 	 -10.4709 	 14.6834
| 39> H 	 -37 	 -10.9108 	 18.9664
| 40> H 	 -40.6413 	 -5.20081 	 14.1263
| 41> *
| 42>
| 43>                          ****END OF INPUT****

CARTESIAN COORDINATES (ANGSTROEM)
---------------------------------
  S    -38.034100   -8.891880   17.836400
  C    -37.588100  -10.538900   18.083600
  C    -38.150400  -11.317400   17.125000
  C    -38.754300  -10.524600   16.125700
  C    -38.629800   -9.179460   16.242800
  H    -39.171200  -10.971500   15.285400
  C    -37.990100  -12.821600   16.984400
  H    -39.001900  -13.173300   16.721600
  H    -37.571500  -13.302000   17.845200
  C    -37.018000  -13.198200   15.907100
  H    -37.099800  -14.236900   15.477700
  H    -37.115000  -12.491900   15.154100
  C    -35.572000  -13.090700   16.253100
  H    -35.391700  -13.630800   17.149700
  H    -35.046900  -13.461100   15.372600
  H    -35.365100  -12.055700   16.494200
  S    -39.889000   -6.739410   15.926500
  C    -40.116400   -6.084880   14.290100
  C    -39.625300   -6.947270   13.340100
  C    -38.980600   -8.109660   13.918200
  C    -39.001100   -8.158190   15.266900
  H    -39.758600   -6.607560   12.340300
  C    -38.410800   -9.158100   13.003000
  H    -38.859800   -8.913220   12.067800
  H    -38.749100  -10.182000   13.301700
  C    -36.848300   -9.289880   12.883700
  H    -36.327500   -8.416470   12.546400
  H    -36.686900  -10.088200   12.160800
  C    -36.178900   -9.524950   14.207500
  H    -36.235600   -8.771370   14.958200
  H    -35.130700   -9.523550   13.963600
  H    -36.388400  -10.470900   14.683400
  H    -37.000000  -10.910800   18.966400
  H    -40.641300   -5.200810   14.126300

 Total Charge           Charge          ....    0
 Multiplicity           Mult            ....    1
 Number of Electrons    NEL             ....  134
 Basis Dimension        Dim             ....  322

ORBITAL ENERGIES
----------------

  NO   OCC          E(Eh)            E(eV)
   0   2.0000     -88.963435     -2420.8181
   1   2.0000     -88.961180     -2420.7568
   2   2.0000     -10.329960      -281.0925
   3   2.0000     -10.328015      -281.0396
   4   2.0000     -10.317196      -280.7452
   5   2.0000     -10.315189      -280.6906
   6   2.0000     -10.304639      -280.4035
   7   2.0000     -10.297016      -280.1961
   8   2.0000     -10.296313      -280.1769
   9   2.0000     -10.292058      -280.0611
  10   2.0000     -10.291212      -280.0381
  11   2.0000     -10.285195      -279.8744
  12   2.0000     -10.283994      -279.8417
  13   2.0000     -10.275355      -279.6066
  14   2.0000     -10.268791      -279.4280
  15   2.0000     -10.262827      -279.2657
  16   2.0000      -8.079232      -219.8471
  17   2.0000      -8.075344      -219.7413
  18   2.0000      -6.037739      -164.2952
  19   2.0000      -6.033978      -164.1929
  20   2.0000      -6.033617      -164.1831
  21   2.0000      -6.030012      -164.0850
  22   2.0000      -6.029881      -164.0814
  23   2.0000      -6.025933      -163.9740
  24   2.0000      -1.016021       -27.6473
  25   2.0000      -0.987693       -26.8765
  26   2.0000      -0.926314       -25.2063
  27   2.0000      -0.907760       -24.7014
  28   2.0000      -0.875820       -23.8323
  29   2.0000      -0.855313       -23.2743
  30   2.0000      -0.848407       -23.0863
  31   2.0000      -0.821069       -22.3424
  32   2.0000      -0.786297       -21.3962
  33   2.0000      -0.779613       -21.2143
  34   2.0000      -0.711671       -19.3656
  35   2.0000      -0.695666       -18.9300
  36   2.0000      -0.689990       -18.7756
  37   2.0000      -0.668571       -18.1928
  38   2.0000      -0.644137       -17.5279
  39   2.0000      -0.635759       -17.2999
  40   2.0000      -0.596542       -16.2327
  41   2.0000      -0.580544       -15.7974
  42   2.0000      -0.565728       -15.3942
  43   2.0000      -0.551955       -15.0195
  44   2.0000      -0.548349       -14.9213
  45   2.0000      -0.542142       -14.7524
  46   2.0000      -0.526568       -14.3287
  47   2.0000      -0.514386       -13.9972
  48   2.0000      -0.508030       -13.8242
  49   2.0000      -0.504678       -13.7330
  50   2.0000      -0.486354       -13.2344
  51   2.0000      -0.482343       -13.1252
  52   2.0000      -0.477329       -12.9888
  53   2.0000      -0.464828       -12.6486
  54   2.0000      -0.463774       -12.6199
  55   2.0000      -0.450124       -12.2485
  56   2.0000      -0.444427       -12.0935
  57   2.0000      -0.436477       -11.8771
  58   2.0000      -0.427070       -11.6212
  59   2.0000      -0.420315       -11.4373
  60   2.0000      -0.418523       -11.3886
  61   2.0000      -0.413583       -11.2542
  62   2.0000      -0.407172       -11.0797
  63   2.0000      -0.357249        -9.7212
  64   2.0000      -0.331913        -9.0318
  65   2.0000      -0.327732        -8.9180
  66   2.0000      -0.293810        -7.9950
  67   0.0000       0.026432         0.7192
  68   0.0000       0.074101         2.0164
  69   0.0000       0.100426         2.7327
  70   0.0000       0.123610         3.3636
  71   0.0000       0.127499         3.4694

MULLIKEN ATOMIC CHARGES
-----------------------
   0 S :    0.109262
   1 C :   -0.143911
   2 C :   -0.105070
   3 C :    0.029051
   4 C :   -0.120638
   5 H :   -0.026869
   6 C :    0.124854
   7 H :    0.035971
   8 H :    0.006072
   9 C :   -0.071136
  10 H :    0.033042
  11 H :   -0.012005
  12 C :   -0.033418
  13 H :    0.010751
  14 H :    0.042753
  15 H :    0.029906
  16 S :    0.070433
  17 C :   -0.072048
  18 C :   -0.026493
  19 C :   -0.055061
  20 C :   -0.111262
  21 H :    0.015144
  22 C :    0.069583
  23 H :    0.007963
  24 H :    0.028617
  25 C :   -0.030716
  26 H :    0.020200
  27 H :    0.031264
  28 C :   -0.024674
  29 H :    0.038396
  30 H :    0.015403
  31 H :    0.009142
  32 H :    0.067136
  33 H :    0.038357
Sum of atomic charges:    0.0000000

LOEWDIN ATOMIC CHARGES
----------------------
   0 S :    0.418163
   1 C :   -0.206063
   2 C :   -0.070146
   3 C :   -0.058712
   4 C :   -0.193952
   5 H :    0.014641
   6 C :   -0.022628
   7 H :    0.038571
   8 H :    0.024208
   9 C :   -0.045770
  10 H :    0.029156
  11 H :    0.007037
  12 C :   -0.055739
  13 H :    0.014288
  14 H :    0.032570
  15 H :    0.021428
  16 S :    0.360689
  17 C :   -0.153477
  18 C :   -0.066879
  19 C :   -0.058505
  20 C :   -0.171771
  21 H :    0.031783
  22 C :   -0.030792
  23 H :    0.024369
  24 H :    0.032088
  25 C :   -0.028299
  26 H :    0.023015
  27 H :    0.026719
  28 C :   -0.063556
  29 H :    0.025469
  30 H :    0.026316
  31 H :    0.017144
  32 H :    0.041737
  33 H :    0.016898

  Mayer bond orders larger than 0.100000
B(  0-S ,  1-C ) :   1.1426 B(  0-S ,  4-C ) :   1.1503 B(  1-C ,  2-C ) :   1.6023
B(  1-C , 32-H ) :   0.9628 B(  2-C ,  3-C ) :   1.2526 B(  2-C ,  6-C ) :   1.0335
B(  3-C ,  4-C ) :   1.5511 B(  3-C ,  5-H ) :   1.0142 B(  4-C , 20-C ) :   1.0439
B(  6-C ,  7-H ) :   0.9285 B(  6-C ,  8-H ) :   0.9437 B(  6-C ,  9-C ) :   1.0649
B(  9-C , 10-H ) :   0.9518 B(  9-C , 11-H ) :   0.9533 B(  9-C , 12-C ) :   1.0864
B( 12-C , 13-H ) :   0.9711 B( 12-C , 14-H ) :   0.9730 B( 12-C , 15-H ) :   0.9716
B( 16-S , 17-C ) :   1.1404 B( 16-S , 20-C ) :   1.1066 B( 17-C , 18-C ) :   1.6494
B( 17-C , 33-H ) :   0.9747 B( 18-C , 19-C ) :   1.1829 B( 18-C , 21-H ) :   0.9980
B( 19-C , 20-C ) :   1.6637 B( 19-C , 22-C ) :   1.0381 B( 22-C , 23-H ) :   0.9265
B( 22-C , 24-H ) :   0.9380 B( 22-C , 25-C ) :   1.0702 B( 25-C , 26-H ) :   0.9542
B( 25-C , 27-H ) :   0.9543 B( 25-C , 28-C ) :   1.0917 B( 28-C , 29-H ) :   0.9590
B( 28-C , 30-H ) :   0.9644 B( 28-C , 31-H ) :   0.9706

Dispersion correction           -0.017207255
FINAL SINGLE POINT ENERGY     -1339.864271208746

DIPOLE MOMENT
-------------
                                X             Y             Z
Electronic contribution:    -15.58540      21.54339      11.78530
Nuclear contribution   :     15.74139     -21.99940     -12.35271
                        -----------------------------------------
Total Dipole Moment    :      0.15599      -0.45602      -0.56741
                        -----------------------------------------
Magnitude (a.u.)       :      0.74448
Magnitude (Debye)      :      1.89231

Rotational constants in cm-1:     0.022869     0.010029     0.007850
Rotational constants in MHz :   685.602434   300.651681   235.334221

                             ****ORCA TERMINATED NORMALLY****
TOTAL RUN TIME: 0 days 0 hours 0 minutes 24 seconds 534 msec
