                         Program Version 4.2.1 -  RELEASE  -
|  1> ! wB97X-D3 SP def2-SVP
|  2> %pal
|  3> nprocs 24
|  4> end
|  5>
|  6> * xyz 0 1
|  7> S 	 -42.4433 	 7.4274 	 29.6697
|  8> C 	 -44.0437 	 6.9316 	 30.3059
|  9> C 	 -45.0337 	 7.73095 	 29.7746
| 10> C 	 -44.5043 	 8.74584 	 28.845
| 11> C 	 -43.0996 	 8.7762 	 28.7896
| 12> H 	 -45.121 	 9.34817 	 28.25
| 13> C 	 -46.5356 	 7.48011 	 29.9259
| 14> H 	 -46.6258 	 6.5853 	 30.5034
| 15> H 	 -46.8858 	 7.09628 	 28.9531
| 16> C 	 -47.4123 	 8.55885 	 30.5255
| 17> H 	 -48.427 	 8.12996 	 30.7562
| 18> H 	 -47.0374 	 8.84037 	 31.5116
| 19> C 	 -47.7379 	 9.76343 	 29.7549
| 20> H 	 -48.4774 	 10.5069 	 30.2126
| 21> H 	 -46.745 	 10.2478 	 29.7285
| 22> H 	 -48.0935 	 9.55202 	 28.7152
| 23> S 	 -40.9586 	 8.83426 	 27.1166
| 24> C 	 -40.4347 	 10.4469 	 26.6227
| 25> C 	 -41.3601 	 11.453 	 26.8581
| 26> C 	 -42.3929 	 10.9865 	 27.7489
| 27> C 	 -42.2791 	 9.61615 	 27.9573
| 28> H 	 -41.2027 	 12.4483 	 26.5448
| 29> C 	 -43.4932 	 11.9267 	 28.2514
| 30> H 	 -42.7996 	 12.6798 	 28.5824
| 31> H 	 -44.0437 	 11.5433 	 29.1582
| 32> C 	 -44.4485 	 12.5445 	 27.2475
| 33> H 	 -43.8542 	 13.1263 	 26.5593
| 34> H 	 -45.0919 	 13.2287 	 27.8321
| 35> C 	 -45.3658 	 11.5439 	 26.5265
| 36> H 	 -44.9377 	 10.6428 	 26.0316
| 37> H 	 -46.0582 	 12.0872 	 25.9037
| 38> H 	 -45.9924 	 11.1008 	 27.2754
| 39> H 	 -44.1774 	 6.15731 	 31.1118
| 40> H 	 -39.4249 	 10.6431 	 26.1838
| 41> *
| 42>
| 43>                          ****END OF INPUT****

CARTESIAN COORDINATES (ANGSTROEM)
---------------------------------
  S    -42.443300    7.427400   29.669700
  C    -44.043700    6.931600   30.305900
  C    -45.033700    7.730950   29.774600
  C    -44.504300    8.745840   28.845000
  C    -43.099600    8.776200   28.789600
  H    -45.121000    9.348170   28.250000
  C    -46.535600    7.480110   29.925900
  H    -46.625800    6.585300   30.503400
  H    -46.885800    7.096280   28.953100
  C    -47.412300    8.558850   30.525500
  H    -48.427000    8.129960   30.756200
  H    -47.037400    8.840370   31.511600
  C    -47.737900    9.763430   29.754900
  H    -48.477400   10.506900   30.212600
  H    -46.745000   10.247800   29.728500
  H    -48.093500    9.552020   28.715200
  S    -40.958600    8.834260   27.116600
  C    -40.434700   10.446900   26.622700
  C    -41.360100   11.453000   26.858100
  C    -42.392900   10.986500   27.748900
  C    -42.279100    9.616150   27.957300
  H    -41.202700   12.448300   26.544800
  C    -43.493200   11.926700   28.251400
  H    -42.799600   12.679800   28.582400
  H    -44.043700   11.543300   29.158200
  C    -44.448500   12.544500   27.247500
  H    -43.854200   13.126300   26.559300
  H    -45.091900   13.228700   27.832100
  C    -45.365800   11.543900   26.526500
  H    -44.937700   10.642800   26.031600
  H    -46.058200   12.087200   25.903700
  H    -45.992400   11.100800   27.275400
  H    -44.177400    6.157310   31.111800
  H    -39.424900   10.643100   26.183800

 Total Charge           Charge          ....    0
 Multiplicity           Mult            ....    1
 Number of Electrons    NEL             ....  134
 Basis Dimension        Dim             ....  322

ORBITAL ENERGIES
----------------

  NO   OCC          E(Eh)            E(eV)
   0   2.0000     -88.968637     -2420.9597
   1   2.0000     -88.963704     -2420.8255
   2   2.0000     -10.329130      -281.0699
   3   2.0000     -10.323112      -280.9062
   4   2.0000     -10.323044      -280.9043
   5   2.0000     -10.320895      -280.8458
   6   2.0000     -10.306069      -280.4424
   7   2.0000     -10.305711      -280.4326
   8   2.0000     -10.295809      -280.1632
   9   2.0000     -10.293790      -280.1083
  10   2.0000     -10.292974      -280.0861
  11   2.0000     -10.292952      -280.0855
  12   2.0000     -10.291496      -280.0459
  13   2.0000     -10.286621      -279.9132
  14   2.0000     -10.284724      -279.8616
  15   2.0000     -10.277164      -279.6558
  16   2.0000      -8.083241      -219.9562
  17   2.0000      -8.078054      -219.8150
  18   2.0000      -6.041666      -164.4021
  19   2.0000      -6.038066      -164.3041
  20   2.0000      -6.036699      -164.2669
  21   2.0000      -6.033795      -164.1879
  22   2.0000      -6.032578      -164.1548
  23   2.0000      -6.028724      -164.0499
  24   2.0000      -1.004215       -27.3261
  25   2.0000      -0.976818       -26.5806
  26   2.0000      -0.917326       -24.9617
  27   2.0000      -0.911382       -24.8000
  28   2.0000      -0.871834       -23.7238
  29   2.0000      -0.852280       -23.1917
  30   2.0000      -0.842034       -22.9129
  31   2.0000      -0.813122       -22.1262
  32   2.0000      -0.787727       -21.4351
  33   2.0000      -0.774892       -21.0859
  34   2.0000      -0.708333       -19.2747
  35   2.0000      -0.692949       -18.8561
  36   2.0000      -0.688775       -18.7425
  37   2.0000      -0.663761       -18.0618
  38   2.0000      -0.635962       -17.3054
  39   2.0000      -0.618548       -16.8316
  40   2.0000      -0.593118       -16.1396
  41   2.0000      -0.570380       -15.5208
  42   2.0000      -0.555334       -15.1114
  43   2.0000      -0.551884       -15.0175
  44   2.0000      -0.548054       -14.9133
  45   2.0000      -0.535461       -14.5706
  46   2.0000      -0.517287       -14.0761
  47   2.0000      -0.512921       -13.9573
  48   2.0000      -0.501288       -13.6407
  49   2.0000      -0.496922       -13.5219
  50   2.0000      -0.495015       -13.4701
  51   2.0000      -0.487555       -13.2670
  52   2.0000      -0.465275       -12.6608
  53   2.0000      -0.462555       -12.5868
  54   2.0000      -0.458260       -12.4699
  55   2.0000      -0.455428       -12.3928
  56   2.0000      -0.442458       -12.0399
  57   2.0000      -0.439881       -11.9698
  58   2.0000      -0.431302       -11.7363
  59   2.0000      -0.423613       -11.5271
  60   2.0000      -0.421156       -11.4602
  61   2.0000      -0.416699       -11.3390
  62   2.0000      -0.398065       -10.8319
  63   2.0000      -0.348432        -9.4813
  64   2.0000      -0.333082        -9.0636
  65   2.0000      -0.326127        -8.8744
  66   2.0000      -0.285589        -7.7713
  67   0.0000       0.023621         0.6428
  68   0.0000       0.075602         2.0572
  69   0.0000       0.096267         2.6195
  70   0.0000       0.122057         3.3213
  71   0.0000       0.124893         3.3985

MULLIKEN ATOMIC CHARGES
-----------------------
   0 S :    0.090379
   1 C :   -0.150749
   2 C :   -0.093851
   3 C :    0.058599
   4 C :   -0.126540
   5 H :   -0.050864
   6 C :    0.090358
   7 H :    0.002276
   8 H :    0.036022
   9 C :   -0.059840
  10 H :    0.023199
  11 H :    0.026780
  12 C :   -0.091780
  13 H :    0.051748
  14 H :    0.033716
  15 H :    0.039914
  16 S :    0.116342
  17 C :   -0.115249
  18 C :   -0.012617
  19 C :   -0.050123
  20 C :   -0.148654
  21 H :    0.007738
  22 C :    0.030591
  23 H :    0.025236
  24 H :    0.045250
  25 C :   -0.039519
  26 H :    0.022405
  27 H :    0.035132
  28 C :   -0.043719
  29 H :    0.057907
  30 H :    0.028716
  31 H :    0.016445
  32 H :    0.072339
  33 H :    0.072414
Sum of atomic charges:   -0.0000000

LOEWDIN ATOMIC CHARGES
----------------------
   0 S :    0.385971
   1 C :   -0.198008
   2 C :   -0.060591
   3 C :   -0.061184
   4 C :   -0.189380
   5 H :    0.013333
   6 C :   -0.031697
   7 H :    0.029906
   8 H :    0.037963
   9 C :   -0.051397
  10 H :    0.027231
  11 H :    0.027233
  12 C :   -0.079678
  13 H :    0.037497
  14 H :    0.024038
  15 H :    0.026241
  16 S :    0.394656
  17 C :   -0.178204
  18 C :   -0.063304
  19 C :   -0.049207
  20 C :   -0.203127
  21 H :    0.025572
  22 C :   -0.039439
  23 H :    0.034065
  24 H :    0.036172
  25 C :   -0.032886
  26 H :    0.018429
  27 H :    0.033100
  28 C :   -0.070684
  29 H :    0.034248
  30 H :    0.026886
  31 H :    0.019373
  32 H :    0.041331
  33 H :    0.035542

  Mayer bond orders larger than 0.100000
B(  0-S ,  1-C ) :   1.1158 B(  0-S ,  4-C ) :   1.1496 B(  1-C ,  2-C ) :   1.6347
B(  1-C , 32-H ) :   0.9583 B(  2-C ,  3-C ) :   1.2180 B(  2-C ,  6-C ) :   1.0204
B(  3-C ,  4-C ) :   1.5509 B(  3-C ,  5-H ) :   0.9952 B(  4-C , 20-C ) :   1.0735
B(  6-C ,  7-H ) :   0.9298 B(  6-C ,  8-H ) :   0.9372 B(  6-C ,  9-C ) :   1.0737
B(  9-C , 10-H ) :   0.9489 B(  9-C , 11-H ) :   0.9505 B(  9-C , 12-C ) :   1.0866
B( 12-C , 13-H ) :   0.9668 B( 12-C , 14-H ) :   0.9685 B( 12-C , 15-H ) :   0.9696
B( 16-S , 17-C ) :   1.1409 B( 16-S , 20-C ) :   1.1267 B( 17-C , 18-C ) :   1.6299
B( 17-C , 33-H ) :   0.9615 B( 18-C , 19-C ) :   1.2137 B( 18-C , 21-H ) :   0.9926
B( 19-C , 20-C ) :   1.6086 B( 19-C , 22-C ) :   1.0224 B( 22-C , 23-H ) :   0.9234
B( 22-C , 24-H ) :   0.9363 B( 22-C , 25-C ) :   1.0890 B( 25-C , 26-H ) :   0.9534
B( 25-C , 27-H ) :   0.9494 B( 25-C , 28-C ) :   1.0791 B( 28-C , 29-H ) :   0.9731
B( 28-C , 30-H ) :   0.9653 B( 28-C , 31-H ) :   0.9598

Dispersion correction           -0.015880460
FINAL SINGLE POINT ENERGY     -1339.870489335126

DIPOLE MOMENT
-------------
                                X             Y             Z
Electronic contribution:     27.77888     -13.99604      -1.06233
Nuclear contribution   :    -28.32773      14.43500       1.06689
                        -----------------------------------------
Total Dipole Moment    :     -0.54884       0.43896       0.00456
                        -----------------------------------------
Magnitude (a.u.)       :      0.70280
Magnitude (Debye)      :      1.78638

Rotational constants in cm-1:     0.018240     0.010703     0.007187
Rotational constants in MHz :   546.830359   320.880060   215.458365

                             ****ORCA TERMINATED NORMALLY****
TOTAL RUN TIME: 0 days 0 hours 0 minutes 23 seconds 53 msec
