                         Program Version 4.2.1 -  RELEASE  -
|  1> ! wB97X-D3 SP def2-SVP
|  2> %pal
|  3> nprocs 24
|  4> end
|  5>
|  6> * xyz 0 1
|  7> S 	 -50.8361 	 9.36878 	 -21.5123
|  8> C 	 -49.8717 	 10.0326 	 -20.2212
|  9> C 	 -50.6729 	 10.7127 	 -19.3305
| 10> C 	 -52.0328 	 10.7695 	 -19.7207
| 11> C 	 -52.2878 	 10.2751 	 -20.9788
| 12> H 	 -52.8374 	 11.2197 	 -19.1318
| 13> C 	 -50.119 	 11.3554 	 -18.0642
| 14> H 	 -49.1211 	 11.0027 	 -17.899
| 15> H 	 -50.6772 	 10.8744 	 -17.2372
| 16> C 	 -50.0672 	 12.8607 	 -17.9255
| 17> H 	 -51.0615 	 13.2621 	 -18.1913
| 18> H 	 -49.8353 	 13.0732 	 -16.8881
| 19> C 	 -48.881 	 13.3658 	 -18.7427
| 20> H 	 -48.8894 	 14.3928 	 -18.8143
| 21> H 	 -47.8995 	 13.2103 	 -18.3762
| 22> H 	 -48.8215 	 12.9743 	 -19.7397
| 23> S 	 -53.7959 	 8.88205 	 -22.7088
| 24> C 	 -55.3707 	 9.54339 	 -23.1382
| 25> C 	 -55.5593 	 10.8401 	 -22.6868
| 26> C 	 -54.54 	 11.2696 	 -21.8329
| 27> C 	 -53.5468 	 10.2742 	 -21.6886
| 28> H 	 -56.3784 	 11.492 	 -22.9405
| 29> C 	 -54.3751 	 12.7888 	 -21.4954
| 30> H 	 -53.5322 	 12.8831 	 -20.8894
| 31> H 	 -55.226 	 12.9336 	 -20.8614
| 32> C 	 -54.3238 	 13.7785 	 -22.6391
| 33> H 	 -55.307 	 13.9312 	 -23.1142
| 34> H 	 -53.7024 	 13.4556 	 -23.4237
| 35> C 	 -53.9307 	 15.1749 	 -22.1487
| 36> H 	 -54.2528 	 15.3512 	 -21.1286
| 37> H 	 -54.3487 	 16.0457 	 -22.7486
| 38> H 	 -52.8525 	 15.3042 	 -22.1751
| 39> H 	 -48.8612 	 9.80156 	 -20.0096
| 40> H 	 -56.0441 	 9.02939 	 -23.7692
| 41> *
| 42>
| 43>                          ****END OF INPUT****

CARTESIAN COORDINATES (ANGSTROEM)
---------------------------------
  S    -50.836100    9.368780  -21.512300
  C    -49.871700   10.032600  -20.221200
  C    -50.672900   10.712700  -19.330500
  C    -52.032800   10.769500  -19.720700
  C    -52.287800   10.275100  -20.978800
  H    -52.837400   11.219700  -19.131800
  C    -50.119000   11.355400  -18.064200
  H    -49.121100   11.002700  -17.899000
  H    -50.677200   10.874400  -17.237200
  C    -50.067200   12.860700  -17.925500
  H    -51.061500   13.262100  -18.191300
  H    -49.835300   13.073200  -16.888100
  C    -48.881000   13.365800  -18.742700
  H    -48.889400   14.392800  -18.814300
  H    -47.899500   13.210300  -18.376200
  H    -48.821500   12.974300  -19.739700
  S    -53.795900    8.882050  -22.708800
  C    -55.370700    9.543390  -23.138200
  C    -55.559300   10.840100  -22.686800
  C    -54.540000   11.269600  -21.832900
  C    -53.546800   10.274200  -21.688600
  H    -56.378400   11.492000  -22.940500
  C    -54.375100   12.788800  -21.495400
  H    -53.532200   12.883100  -20.889400
  H    -55.226000   12.933600  -20.861400
  C    -54.323800   13.778500  -22.639100
  H    -55.307000   13.931200  -23.114200
  H    -53.702400   13.455600  -23.423700
  C    -53.930700   15.174900  -22.148700
  H    -54.252800   15.351200  -21.128600
  H    -54.348700   16.045700  -22.748600
  H    -52.852500   15.304200  -22.175100
  H    -48.861200    9.801560  -20.009600
  H    -56.044100    9.029390  -23.769200

 Total Charge           Charge          ....    0
 Multiplicity           Mult            ....    1
 Number of Electrons    NEL             ....  134
 Basis Dimension        Dim             ....  322

ORBITAL ENERGIES
----------------

  NO   OCC          E(Eh)            E(eV)
   0   2.0000     -88.970079     -2420.9989
   1   2.0000     -88.963600     -2420.8226
   2   2.0000     -10.330408      -281.1047
   3   2.0000     -10.328653      -281.0569
   4   2.0000     -10.317407      -280.7509
   5   2.0000     -10.308916      -280.5199
   6   2.0000     -10.304140      -280.3899
   7   2.0000     -10.297311      -280.2041
   8   2.0000     -10.293093      -280.0893
   9   2.0000     -10.291114      -280.0355
  10   2.0000     -10.288802      -279.9725
  11   2.0000     -10.287721      -279.9431
  12   2.0000     -10.285931      -279.8944
  13   2.0000     -10.284702      -279.8610
  14   2.0000     -10.281113      -279.7633
  15   2.0000     -10.262805      -279.2651
  16   2.0000      -8.084853      -220.0000
  17   2.0000      -8.077902      -219.8109
  18   2.0000      -6.043169      -164.4430
  19   2.0000      -6.039573      -164.3451
  20   2.0000      -6.036614      -164.2646
  21   2.0000      -6.035601      -164.2370
  22   2.0000      -6.032566      -164.1545
  23   2.0000      -6.028388      -164.0408
  24   2.0000      -1.007241       -27.4084
  25   2.0000      -0.983965       -26.7751
  26   2.0000      -0.914875       -24.8950
  27   2.0000      -0.911684       -24.8082
  28   2.0000      -0.871998       -23.7283
  29   2.0000      -0.855946       -23.2915
  30   2.0000      -0.843916       -22.9641
  31   2.0000      -0.814154       -22.1543
  32   2.0000      -0.784522       -21.3479
  33   2.0000      -0.773715       -21.0539
  34   2.0000      -0.712160       -19.3789
  35   2.0000      -0.704627       -19.1739
  36   2.0000      -0.698471       -19.0064
  37   2.0000      -0.664615       -18.0851
  38   2.0000      -0.639854       -17.4113
  39   2.0000      -0.621157       -16.9026
  40   2.0000      -0.599691       -16.3184
  41   2.0000      -0.569498       -15.4968
  42   2.0000      -0.567283       -15.4366
  43   2.0000      -0.552793       -15.0423
  44   2.0000      -0.538081       -14.6419
  45   2.0000      -0.526247       -14.3199
  46   2.0000      -0.519114       -14.1258
  47   2.0000      -0.514066       -13.9884
  48   2.0000      -0.502847       -13.6832
  49   2.0000      -0.499431       -13.5902
  50   2.0000      -0.487146       -13.2559
  51   2.0000      -0.481180       -13.0936
  52   2.0000      -0.473908       -12.8957
  53   2.0000      -0.466612       -12.6972
  54   2.0000      -0.459567       -12.5055
  55   2.0000      -0.456461       -12.4209
  56   2.0000      -0.444878       -12.1057
  57   2.0000      -0.438310       -11.9270
  58   2.0000      -0.433682       -11.8011
  59   2.0000      -0.429429       -11.6854
  60   2.0000      -0.423985       -11.5372
  61   2.0000      -0.417144       -11.3511
  62   2.0000      -0.407308       -11.0834
  63   2.0000      -0.356929        -9.7125
  64   2.0000      -0.338039        -9.1985
  65   2.0000      -0.326662        -8.8889
  66   2.0000      -0.279615        -7.6087
  67   0.0000       0.018160         0.4942
  68   0.0000       0.073919         2.0114
  69   0.0000       0.097401         2.6504
  70   0.0000       0.120637         3.2827
  71   0.0000       0.136686         3.7194

MULLIKEN ATOMIC CHARGES
-----------------------
   0 S :    0.085155
   1 C :   -0.089961
   2 C :   -0.103155
   3 C :    0.011921
   4 C :   -0.119989
   5 H :    0.020932
   6 C :    0.051710
   7 H :   -0.005569
   8 H :    0.030527
   9 C :   -0.020547
  10 H :    0.032536
  11 H :    0.028655
  12 C :   -0.019134
  13 H :    0.006664
  14 H :    0.011065
  15 H :    0.026456
  16 S :    0.107879
  17 C :   -0.069847
  18 C :   -0.024114
  19 C :   -0.065419
  20 C :   -0.158587
  21 H :    0.014517
  22 C :    0.105030
  23 H :   -0.000077
  24 H :    0.022545
  25 C :   -0.032561
  26 H :    0.022980
  27 H :    0.030891
  28 C :   -0.077867
  29 H :    0.027017
  30 H :    0.039606
  31 H :    0.036963
  32 H :    0.033025
  33 H :    0.040753
Sum of atomic charges:   -0.0000000

LOEWDIN ATOMIC CHARGES
----------------------
   0 S :    0.375644
   1 C :   -0.194381
   2 C :   -0.064322
   3 C :   -0.070921
   4 C :   -0.174741
   5 H :    0.033424
   6 C :   -0.034790
   7 H :    0.022352
   8 H :    0.033237
   9 C :   -0.032210
  10 H :    0.025577
  11 H :    0.028368
  12 C :   -0.062414
  13 H :    0.016095
  14 H :    0.023041
  15 H :    0.025147
  16 S :    0.410462
  17 C :   -0.170928
  18 C :   -0.064029
  19 C :   -0.056657
  20 C :   -0.194501
  21 H :    0.032332
  22 C :   -0.019744
  23 H :    0.018410
  24 H :    0.030681
  25 C :   -0.037501
  26 H :    0.025806
  27 H :    0.022485
  28 C :   -0.067385
  29 H :    0.022744
  30 H :    0.033447
  31 H :    0.025034
  32 H :    0.022724
  33 H :    0.017515

  Mayer bond orders larger than 0.100000
B(  0-S ,  1-C ) :   1.1217 B(  0-S ,  4-C ) :   1.1284 B(  1-C ,  2-C ) :   1.6172
B(  1-C , 32-H ) :   0.9707 B(  2-C ,  3-C ) :   1.2385 B(  2-C ,  6-C ) :   1.0284
B(  3-C ,  4-C ) :   1.5656 B(  3-C ,  5-H ) :   0.9921 B(  4-C , 20-C ) :   1.0890
B(  6-C ,  7-H ) :   0.9352 B(  6-C ,  8-H ) :   0.9353 B(  6-C ,  9-C ) :   1.0744
B(  9-C , 10-H ) :   0.9588 B(  9-C , 11-H ) :   0.9490 B(  9-C , 12-C ) :   1.0743
B( 12-C , 13-H ) :   0.9688 B( 12-C , 14-H ) :   0.9690 B( 12-C , 15-H ) :   0.9769
B( 16-S , 17-C ) :   1.1548 B( 16-S , 20-C ) :   1.1510 B( 17-C , 18-C ) :   1.5748
B( 17-C , 20-C ) :   0.1057 B( 17-C , 33-H ) :   0.9768 B( 18-C , 19-C ) :   1.2767
B( 18-C , 21-H ) :   0.9909 B( 19-C , 20-C ) :   1.5524 B( 19-C , 22-C ) :   1.0280
B( 22-C , 23-H ) :   0.9390 B( 22-C , 24-H ) :   0.9201 B( 22-C , 25-C ) :   1.0741
B( 25-C , 26-H ) :   0.9488 B( 25-C , 27-H ) :   0.9608 B( 25-C , 28-C ) :   1.0749
B( 28-C , 29-H ) :   0.9754 B( 28-C , 30-H ) :   0.9771 B( 28-C , 31-H ) :   0.9769

Dispersion correction           -0.014007935
FINAL SINGLE POINT ENERGY     -1339.868977689115

DIPOLE MOMENT
-------------
                                X             Y             Z
Electronic contribution:     -4.44108     -28.32097     -11.14500
Nuclear contribution   :      4.32205      28.94857      11.39677
                        -----------------------------------------
Total Dipole Moment    :     -0.11903       0.62760       0.25177
                        -----------------------------------------
Magnitude (a.u.)       :      0.68661
Magnitude (Debye)      :      1.74523

Rotational constants in cm-1:     0.017199     0.009565     0.006736
Rotational constants in MHz :   515.627014   286.759781   201.953959

                             ****ORCA TERMINATED NORMALLY****
TOTAL RUN TIME: 0 days 0 hours 0 minutes 21 seconds 747 msec
