                         Program Version 4.2.1 -  RELEASE  -
|  1> ! wB97X-D3 SP def2-SVP
|  2> %pal
|  3> nprocs 24
|  4> end
|  5>
|  6> * xyz 0 1
|  7> S 	 45.6448 	 -18.1196 	 -115.07
|  8> C 	 46.5173 	 -17.7387 	 -113.611
|  9> C 	 46.2729 	 -16.4515 	 -113.162
| 10> C 	 45.4989 	 -15.7088 	 -114.109
| 11> C 	 45.0376 	 -16.4932 	 -115.11
| 12> H 	 45.1079 	 -14.6638 	 -114.063
| 13> C 	 46.808 	 -15.8923 	 -111.82
| 14> H 	 46.1279 	 -16.4186 	 -111.094
| 15> H 	 46.6079 	 -14.8178 	 -111.791
| 16> C 	 48.2796 	 -16.2376 	 -111.49
| 17> H 	 48.5126 	 -17.3105 	 -111.657
| 18> H 	 48.8842 	 -15.6462 	 -112.143
| 19> C 	 48.6633 	 -15.6924 	 -110.042
| 20> H 	 49.7491 	 -15.6287 	 -109.818
| 21> H 	 48.2507 	 -14.7265 	 -109.976
| 22> H 	 48.1345 	 -16.25 	 -109.346
| 23> S 	 45.4144 	 -16.4237 	 -117.851
| 24> C 	 44.2994 	 -15.4239 	 -118.838
| 25> C 	 43.2461 	 -14.9603 	 -118.086
| 26> C 	 43.4362 	 -15.2402 	 -116.681
| 27> C 	 44.5491 	 -15.9848 	 -116.385
| 28> H 	 42.3058 	 -14.6834 	 -118.538
| 29> C 	 42.4374 	 -14.8859 	 -115.707
| 30> H 	 42.6697 	 -13.8897 	 -115.27
| 31> H 	 42.5117 	 -15.6314 	 -114.962
| 32> C 	 40.9133 	 -14.9234 	 -116.14
| 33> H 	 40.6437 	 -15.6794 	 -116.923
| 34> H 	 40.7362 	 -14.0461 	 -116.675
| 35> C 	 39.9461 	 -14.8915 	 -114.984
| 36> H 	 40.231 	 -15.652 	 -114.247
| 37> H 	 38.9699 	 -15.1139 	 -115.346
| 38> H 	 39.9453 	 -14.0172 	 -114.395
| 39> H 	 46.9421 	 -18.4806 	 -112.94
| 40> H 	 44.1644 	 -15.6475 	 -119.877
| 41> *
| 42>
| 43>                          ****END OF INPUT****

CARTESIAN COORDINATES (ANGSTROEM)
---------------------------------
  S     45.644800  -18.119600  -115.070000
  C     46.517300  -17.738700  -113.611000
  C     46.272900  -16.451500  -113.162000
  C     45.498900  -15.708800  -114.109000
  C     45.037600  -16.493200  -115.110000
  H     45.107900  -14.663800  -114.063000
  C     46.808000  -15.892300  -111.820000
  H     46.127900  -16.418600  -111.094000
  H     46.607900  -14.817800  -111.791000
  C     48.279600  -16.237600  -111.490000
  H     48.512600  -17.310500  -111.657000
  H     48.884200  -15.646200  -112.143000
  C     48.663300  -15.692400  -110.042000
  H     49.749100  -15.628700  -109.818000
  H     48.250700  -14.726500  -109.976000
  H     48.134500  -16.250000  -109.346000
  S     45.414400  -16.423700  -117.851000
  C     44.299400  -15.423900  -118.838000
  C     43.246100  -14.960300  -118.086000
  C     43.436200  -15.240200  -116.681000
  C     44.549100  -15.984800  -116.385000
  H     42.305800  -14.683400  -118.538000
  C     42.437400  -14.885900  -115.707000
  H     42.669700  -13.889700  -115.270000
  H     42.511700  -15.631400  -114.962000
  C     40.913300  -14.923400  -116.140000
  H     40.643700  -15.679400  -116.923000
  H     40.736200  -14.046100  -116.675000
  C     39.946100  -14.891500  -114.984000
  H     40.231000  -15.652000  -114.247000
  H     38.969900  -15.113900  -115.346000
  H     39.945300  -14.017200  -114.395000
  H     46.942100  -18.480600  -112.940000
  H     44.164400  -15.647500  -119.877000

 Total Charge           Charge          ....    0
 Multiplicity           Mult            ....    1
 Number of Electrons    NEL             ....  134
 Basis Dimension        Dim             ....  322

ORBITAL ENERGIES
----------------

  NO   OCC          E(Eh)            E(eV)
   0   2.0000     -88.969078     -2420.9717
   1   2.0000     -88.960328     -2420.7336
   2   2.0000     -10.323651      -280.9208
   3   2.0000     -10.321388      -280.8592
   4   2.0000     -10.313149      -280.6350
   5   2.0000     -10.311988      -280.6035
   6   2.0000     -10.306471      -280.4533
   7   2.0000     -10.302742      -280.3519
   8   2.0000     -10.298032      -280.2237
   9   2.0000     -10.293501      -280.1004
  10   2.0000     -10.292779      -280.0807
  11   2.0000     -10.292545      -280.0744
  12   2.0000     -10.284543      -279.8566
  13   2.0000     -10.283903      -279.8392
  14   2.0000     -10.276152      -279.6283
  15   2.0000     -10.271202      -279.4936
  16   2.0000      -8.084177      -219.9816
  17   2.0000      -8.074345      -219.7141
  18   2.0000      -6.042588      -164.4272
  19   2.0000      -6.038706      -164.3215
  20   2.0000      -6.034944      -164.2192
  21   2.0000      -6.033046      -164.1675
  22   2.0000      -6.029044      -164.0586
  23   2.0000      -6.024836      -163.9441
  24   2.0000      -1.011405       -27.5217
  25   2.0000      -0.982558       -26.7368
  26   2.0000      -0.910364       -24.7723
  27   2.0000      -0.907525       -24.6950
  28   2.0000      -0.869896       -23.6711
  29   2.0000      -0.857221       -23.3262
  30   2.0000      -0.848990       -23.1022
  31   2.0000      -0.818071       -22.2608
  32   2.0000      -0.780414       -21.2362
  33   2.0000      -0.767144       -20.8751
  34   2.0000      -0.711023       -19.3479
  35   2.0000      -0.710046       -19.3213
  36   2.0000      -0.695620       -18.9288
  37   2.0000      -0.656408       -17.8618
  38   2.0000      -0.641665       -17.4606
  39   2.0000      -0.611394       -16.6369
  40   2.0000      -0.595277       -16.1983
  41   2.0000      -0.575445       -15.6587
  42   2.0000      -0.568867       -15.4797
  43   2.0000      -0.556755       -15.1501
  44   2.0000      -0.532004       -14.4766
  45   2.0000      -0.526266       -14.3204
  46   2.0000      -0.517436       -14.0801
  47   2.0000      -0.513549       -13.9744
  48   2.0000      -0.501400       -13.6438
  49   2.0000      -0.496094       -13.4994
  50   2.0000      -0.491511       -13.3747
  51   2.0000      -0.479612       -13.0509
  52   2.0000      -0.473833       -12.8936
  53   2.0000      -0.466265       -12.6877
  54   2.0000      -0.456502       -12.4221
  55   2.0000      -0.451025       -12.2730
  56   2.0000      -0.448729       -12.2105
  57   2.0000      -0.441599       -12.0165
  58   2.0000      -0.434980       -11.8364
  59   2.0000      -0.428836       -11.6692
  60   2.0000      -0.421326       -11.4649
  61   2.0000      -0.415885       -11.3168
  62   2.0000      -0.410085       -11.1590
  63   2.0000      -0.351419        -9.5626
  64   2.0000      -0.330911        -9.0046
  65   2.0000      -0.324063        -8.8182
  66   2.0000      -0.293666        -7.9911
  67   0.0000       0.029122         0.7924
  68   0.0000       0.064760         1.7622
  69   0.0000       0.107457         2.9241
  70   0.0000       0.128721         3.5027
  71   0.0000       0.129518         3.5244

MULLIKEN ATOMIC CHARGES
-----------------------
   0 S :    0.114411
   1 C :   -0.127558
   2 C :   -0.092111
   3 C :    0.017920
   4 C :   -0.165034
   5 H :    0.035536
   6 C :    0.043395
   7 H :    0.048586
   8 H :    0.028017
   9 C :   -0.090345
  10 H :    0.042222
  11 H :    0.031644
  12 C :   -0.016687
  13 H :    0.049253
  14 H :    0.012572
  15 H :    0.014335
  16 S :    0.084523
  17 C :   -0.082449
  18 C :   -0.031888
  19 C :   -0.072938
  20 C :   -0.126988
  21 H :    0.029596
  22 C :    0.064513
  23 H :    0.043823
  24 H :    0.018007
  25 C :   -0.102194
  26 H :    0.038267
  27 H :    0.012565
  28 C :   -0.001571
  29 H :    0.019619
  30 H :    0.028297
  31 H :    0.019492
  32 H :    0.053751
  33 H :    0.059421
Sum of atomic charges:   -0.0000000

LOEWDIN ATOMIC CHARGES
----------------------
   0 S :    0.416584
   1 C :   -0.204290
   2 C :   -0.059089
   3 C :   -0.059861
   4 C :   -0.200055
   5 H :    0.044048
   6 C :   -0.032956
   7 H :    0.039815
   8 H :    0.029521
   9 C :   -0.035078
  10 H :    0.025404
  11 H :    0.022488
  12 C :   -0.056665
  13 H :    0.032923
  14 H :    0.019464
  15 H :    0.013763
  16 S :    0.376628
  17 C :   -0.178986
  18 C :   -0.061309
  19 C :   -0.069323
  20 C :   -0.191771
  21 H :    0.033062
  22 C :   -0.033766
  23 H :    0.037526
  24 H :    0.023856
  25 C :   -0.042235
  26 H :    0.030243
  27 H :    0.013205
  28 C :   -0.056862
  29 H :    0.025817
  30 H :    0.026044
  31 H :    0.020141
  32 H :    0.026874
  33 H :    0.024841

  Mayer bond orders larger than 0.100000
B(  0-S ,  1-C ) :   1.1358 B(  0-S ,  4-C ) :   1.1529 B(  1-C ,  2-C ) :   1.6194
B(  1-C , 32-H ) :   0.9615 B(  2-C ,  3-C ) :   1.2435 B(  2-C ,  6-C ) :   1.0007
B(  3-C ,  4-C ) :   1.5879 B(  3-C ,  5-H ) :   0.9809 B(  4-C , 20-C ) :   1.0161
B(  6-C ,  7-H ) :   0.9373 B(  6-C ,  8-H ) :   0.9468 B(  6-C ,  9-C ) :   1.0624
B(  9-C , 10-H ) :   0.9585 B(  9-C , 11-H ) :   0.9594 B(  9-C , 12-C ) :   1.0687
B( 12-C , 13-H ) :   0.9773 B( 12-C , 14-H ) :   0.9715 B( 12-C , 15-H ) :   0.9785
B( 16-S , 17-C ) :   1.1355 B( 16-S , 20-C ) :   1.1192 B( 17-C , 18-C ) :   1.6401
B( 17-C , 33-H ) :   0.9567 B( 18-C , 19-C ) :   1.2270 B( 18-C , 21-H ) :   0.9807
B( 19-C , 20-C ) :   1.6315 B( 19-C , 22-C ) :   1.0712 B( 22-C , 23-H ) :   0.9145
B( 22-C , 24-H ) :   0.9336 B( 22-C , 25-C ) :   1.0580 B( 25-C , 26-H ) :   0.9619
B( 25-C , 27-H ) :   0.9409 B( 25-C , 28-C ) :   1.0936 B( 28-C , 29-H ) :   0.9738
B( 28-C , 30-H ) :   0.9710 B( 28-C , 31-H ) :   0.9726

Dispersion correction           -0.013371356
FINAL SINGLE POINT ENERGY     -1339.859546512050

DIPOLE MOMENT
-------------
                                X             Y             Z
Electronic contribution:      6.91235     -10.94218     -20.93172
Nuclear contribution   :     -7.28132      11.18831      21.50852
                        -----------------------------------------
Total Dipole Moment    :     -0.36896       0.24613       0.57680
                        -----------------------------------------
Magnitude (a.u.)       :      0.72761
Magnitude (Debye)      :      1.84944

Rotational constants in cm-1:     0.020426     0.007146     0.005943
Rotational constants in MHz :   612.358489   214.231685   178.152060

                             ****ORCA TERMINATED NORMALLY****
TOTAL RUN TIME: 0 days 0 hours 0 minutes 19 seconds 763 msec
