                         Program Version 4.2.1 -  RELEASE  -
|  1> ! wB97X-D3 SP def2-SVP
|  2> %pal
|  3> nprocs 24
|  4> end
|  5>
|  6> * xyz 0 1
|  7> S 	 -104.04 	 57.5706 	 -95.6742
|  8> C 	 -103.557 	 57.0117 	 -94.1177
|  9> C 	 -103.811 	 55.662 	 -93.9105
| 10> C 	 -104.695 	 55.1639 	 -94.8222
| 11> C 	 -105.047 	 56.1017 	 -95.7689
| 12> H 	 -105.089 	 54.1562 	 -94.9264
| 13> C 	 -103.059 	 54.9195 	 -92.8273
| 14> H 	 -103.778 	 54.8103 	 -92.0053
| 15> H 	 -102.25 	 55.5769 	 -92.6162
| 16> C 	 -102.472 	 53.5713 	 -93.1442
| 17> H 	 -101.578 	 53.4354 	 -92.5414
| 18> H 	 -103.222 	 52.8275 	 -92.9663
| 19> C 	 -102.02 	 53.4299 	 -94.6283
| 20> H 	 -102.847 	 53.4626 	 -95.3036
| 21> H 	 -101.417 	 54.2863 	 -94.8096
| 22> H 	 -101.373 	 52.5206 	 -94.7346
| 23> S 	 -105.205 	 56.4366 	 -98.4506
| 24> C 	 -106.597 	 55.9531 	 -99.2819
| 25> C 	 -107.424 	 55.1481 	 -98.5586
| 26> C 	 -107.039 	 55.0846 	 -97.2036
| 27> C 	 -105.798 	 55.7248 	 -96.9732
| 28> H 	 -108.211 	 54.5522 	 -99.0077
| 29> C 	 -107.918 	 54.4241 	 -96.2634
| 30> H 	 -108.911 	 54.7047 	 -96.4733
| 31> H 	 -107.694 	 54.9484 	 -95.3282
| 32> C 	 -107.52 	 52.9431 	 -96.1618
| 33> H 	 -106.433 	 52.7886 	 -96.2105
| 34> H 	 -107.976 	 52.4418 	 -97.0256
| 35> C 	 -108.13 	 52.2639 	 -94.8439
| 36> H 	 -108.17 	 51.2155 	 -94.9817
| 37> H 	 -109.095 	 52.6845 	 -94.7851
| 38> H 	 -107.645 	 52.5735 	 -93.8876
| 39> H 	 -102.889 	 57.6448 	 -93.4335
| 40> H 	 -106.762 	 56.0611 	 -100.316
| 41> *
| 42>
| 43>                          ****END OF INPUT****

CARTESIAN COORDINATES (ANGSTROEM)
---------------------------------
  S    -104.040000   57.570600  -95.674200
  C    -103.557000   57.011700  -94.117700
  C    -103.811000   55.662000  -93.910500
  C    -104.695000   55.163900  -94.822200
  C    -105.047000   56.101700  -95.768900
  H    -105.089000   54.156200  -94.926400
  C    -103.059000   54.919500  -92.827300
  H    -103.778000   54.810300  -92.005300
  H    -102.250000   55.576900  -92.616200
  C    -102.472000   53.571300  -93.144200
  H    -101.578000   53.435400  -92.541400
  H    -103.222000   52.827500  -92.966300
  C    -102.020000   53.429900  -94.628300
  H    -102.847000   53.462600  -95.303600
  H    -101.417000   54.286300  -94.809600
  H    -101.373000   52.520600  -94.734600
  S    -105.205000   56.436600  -98.450600
  C    -106.597000   55.953100  -99.281900
  C    -107.424000   55.148100  -98.558600
  C    -107.039000   55.084600  -97.203600
  C    -105.798000   55.724800  -96.973200
  H    -108.211000   54.552200  -99.007700
  C    -107.918000   54.424100  -96.263400
  H    -108.911000   54.704700  -96.473300
  H    -107.694000   54.948400  -95.328200
  C    -107.520000   52.943100  -96.161800
  H    -106.433000   52.788600  -96.210500
  H    -107.976000   52.441800  -97.025600
  C    -108.130000   52.263900  -94.843900
  H    -108.170000   51.215500  -94.981700
  H    -109.095000   52.684500  -94.785100
  H    -107.645000   52.573500  -93.887600
  H    -102.889000   57.644800  -93.433500
  H    -106.762000   56.061100  -100.316000

 Total Charge           Charge          ....    0
 Multiplicity           Mult            ....    1
 Number of Electrons    NEL             ....  134
 Basis Dimension        Dim             ....  322

ORBITAL ENERGIES
----------------

  NO   OCC          E(Eh)            E(eV)
   0   2.0000     -88.971179     -2421.0289
   1   2.0000     -88.962904     -2420.8037
   2   2.0000     -10.328370      -281.0492
   3   2.0000     -10.322261      -280.8830
   4   2.0000     -10.314672      -280.6765
   5   2.0000     -10.302650      -280.3494
   6   2.0000     -10.295317      -280.1498
   7   2.0000     -10.294346      -280.1234
   8   2.0000     -10.293661      -280.1048
   9   2.0000     -10.289769      -279.9989
  10   2.0000     -10.284769      -279.8628
  11   2.0000     -10.283176      -279.8195
  12   2.0000     -10.282173      -279.7921
  13   2.0000     -10.281182      -279.7652
  14   2.0000     -10.277899      -279.6759
  15   2.0000     -10.272149      -279.5194
  16   2.0000      -8.085587      -220.0200
  17   2.0000      -8.078914      -219.8384
  18   2.0000      -6.043888      -164.4625
  19   2.0000      -6.040511      -164.3707
  20   2.0000      -6.037324      -164.2839
  21   2.0000      -6.036213      -164.2537
  22   2.0000      -6.033250      -164.1731
  23   2.0000      -6.029729      -164.0773
  24   2.0000      -1.013092       -27.5676
  25   2.0000      -0.992638       -27.0111
  26   2.0000      -0.918145       -24.9840
  27   2.0000      -0.915313       -24.9069
  28   2.0000      -0.867962       -23.6184
  29   2.0000      -0.854812       -23.2606
  30   2.0000      -0.847965       -23.0743
  31   2.0000      -0.816540       -22.2192
  32   2.0000      -0.784621       -21.3506
  33   2.0000      -0.767475       -20.8841
  34   2.0000      -0.710424       -19.3316
  35   2.0000      -0.701021       -19.0757
  36   2.0000      -0.690327       -18.7848
  37   2.0000      -0.663323       -18.0499
  38   2.0000      -0.636663       -17.3245
  39   2.0000      -0.623631       -16.9699
  40   2.0000      -0.596349       -16.2275
  41   2.0000      -0.573627       -15.6092
  42   2.0000      -0.563103       -15.3228
  43   2.0000      -0.552579       -15.0364
  44   2.0000      -0.545148       -14.8342
  45   2.0000      -0.534994       -14.5579
  46   2.0000      -0.515730       -14.0337
  47   2.0000      -0.512328       -13.9411
  48   2.0000      -0.502198       -13.6655
  49   2.0000      -0.493286       -13.4230
  50   2.0000      -0.487912       -13.2768
  51   2.0000      -0.478641       -13.0245
  52   2.0000      -0.476794       -12.9742
  53   2.0000      -0.468119       -12.7382
  54   2.0000      -0.462572       -12.5872
  55   2.0000      -0.453096       -12.3294
  56   2.0000      -0.450073       -12.2471
  57   2.0000      -0.438704       -11.9378
  58   2.0000      -0.435362       -11.8468
  59   2.0000      -0.424474       -11.5505
  60   2.0000      -0.419215       -11.4074
  61   2.0000      -0.415570       -11.3082
  62   2.0000      -0.414106       -11.2684
  63   2.0000      -0.353520        -9.6198
  64   2.0000      -0.334165        -9.0931
  65   2.0000      -0.327420        -8.9096
  66   2.0000      -0.275905        -7.5078
  67   0.0000       0.023825         0.6483
  68   0.0000       0.070261         1.9119
  69   0.0000       0.101111         2.7514
  70   0.0000       0.125849         3.4245
  71   0.0000       0.136162         3.7051

MULLIKEN ATOMIC CHARGES
-----------------------
   0 S :    0.118371
   1 C :   -0.152784
   2 C :   -0.105665
   3 C :   -0.012965
   4 C :   -0.102335
   5 H :    0.010772
   6 C :    0.126697
   7 H :    0.042815
   8 H :    0.005832
   9 C :   -0.089936
  10 H :    0.036574
  11 H :    0.024528
  12 C :   -0.037536
  13 H :    0.029903
  14 H :    0.020648
  15 H :    0.043086
  16 S :    0.100519
  17 C :   -0.060057
  18 C :   -0.043486
  19 C :   -0.088560
  20 C :   -0.168121
  21 H :    0.018308
  22 C :    0.095910
  23 H :    0.019139
  24 H :    0.018151
  25 C :   -0.101843
  26 H :    0.047822
  27 H :    0.028667
  28 C :   -0.021267
  29 H :    0.035419
  30 H :    0.018561
  31 H :    0.039958
  32 H :    0.069302
  33 H :    0.033573
Sum of atomic charges:   -0.0000000

LOEWDIN ATOMIC CHARGES
----------------------
   0 S :    0.404803
   1 C :   -0.215738
   2 C :   -0.068273
   3 C :   -0.064265
   4 C :   -0.180718
   5 H :    0.034167
   6 C :   -0.029361
   7 H :    0.037340
   8 H :    0.025157
   9 C :   -0.038315
  10 H :    0.029792
  11 H :    0.018017
  12 C :   -0.060307
  13 H :    0.020041
  14 H :    0.020973
  15 H :    0.031421
  16 S :    0.425743
  17 C :   -0.196507
  18 C :   -0.074337
  19 C :   -0.057770
  20 C :   -0.201831
  21 H :    0.032294
  22 C :   -0.037905
  23 H :    0.027448
  24 H :    0.032928
  25 C :   -0.029240
  26 H :    0.023384
  27 H :    0.026017
  28 C :   -0.061332
  29 H :    0.020245
  30 H :    0.019610
  31 H :    0.029257
  32 H :    0.038213
  33 H :    0.019048

  Mayer bond orders larger than 0.100000
B(  0-S ,  1-C ) :   1.1501 B(  0-S ,  4-C ) :   1.1566 B(  1-C ,  2-C ) :   1.5801
B(  1-C , 32-H ) :   0.9560 B(  2-C ,  3-C ) :   1.2706 B(  2-C ,  6-C ) :   1.0123
B(  3-C ,  4-C ) :   1.5147 B(  3-C ,  5-H ) :   1.0012 B(  4-C , 20-C ) :   1.0624
B(  6-C ,  7-H ) :   0.9322 B(  6-C ,  8-H ) :   0.9328 B(  6-C ,  9-C ) :   1.0816
B(  9-C , 10-H ) :   0.9592 B(  9-C , 11-H ) :   0.9501 B(  9-C , 12-C ) :   1.1010
B( 12-C , 13-H ) :   0.9652 B( 12-C , 14-H ) :   0.9731 B( 12-C , 15-H ) :   0.9743
B( 16-S , 17-C ) :   1.1732 B( 16-S , 20-C ) :   1.1369 B( 17-C , 18-C ) :   1.5970
B( 17-C , 33-H ) :   0.9656 B( 18-C , 19-C ) :   1.2685 B( 18-C , 21-H ) :   0.9878
B( 19-C , 20-C ) :   1.5631 B( 19-C , 22-C ) :   1.0549 B( 22-C , 23-H ) :   0.9268
B( 22-C , 24-H ) :   0.9274 B( 22-C , 25-C ) :   1.0433 B( 25-C , 26-H ) :   0.9590
B( 25-C , 27-H ) :   0.9534 B( 25-C , 28-C ) :   1.0694 B( 28-C , 29-H ) :   0.9772
B( 28-C , 30-H ) :   0.9726 B( 28-C , 31-H ) :   0.9782

Dispersion correction           -0.015196215
FINAL SINGLE POINT ENERGY     -1339.852090874416

DIPOLE MOMENT
-------------
                                X             Y             Z
Electronic contribution:      2.11229      22.92571     -14.47084
Nuclear contribution   :     -2.19048     -23.45981      14.69490
                        -----------------------------------------
Total Dipole Moment    :     -0.07819      -0.53411       0.22405
                        -----------------------------------------
Magnitude (a.u.)       :      0.58445
Magnitude (Debye)      :      1.48556

Rotational constants in cm-1:     0.017002     0.010605     0.007642
Rotational constants in MHz :   509.700561   317.934652   229.098480

                             ****ORCA TERMINATED NORMALLY****
TOTAL RUN TIME: 0 days 0 hours 0 minutes 21 seconds 680 msec
