                         Program Version 4.2.1 -  RELEASE  -
|  1> ! wB97X-D3 SP def2-SVP
|  2> %pal
|  3> nprocs 24
|  4> end
|  5>
|  6> * xyz 0 1
|  7> S 	 -131.753 	 57.7067 	 -59.1206
|  8> C 	 -132.4 	 59.1269 	 -59.9095
|  9> C 	 -133.185 	 58.7896 	 -60.9973
| 10> C 	 -133.375 	 57.356 	 -61.0693
| 11> C 	 -132.514 	 56.6206 	 -60.2525
| 12> H 	 -133.892 	 56.87 	 -61.8723
| 13> C 	 -133.81 	 59.7409 	 -62.0297
| 14> H 	 -133.911 	 59.1099 	 -62.8842
| 15> H 	 -133.129 	 60.5434 	 -62.2526
| 16> C 	 -135.168 	 60.3885 	 -61.6654
| 17> H 	 -135.945 	 59.734 	 -61.9279
| 18> H 	 -135.2 	 60.6284 	 -60.5927
| 19> C 	 -135.435 	 61.706 	 -62.3419
| 20> H 	 -134.652 	 62.4183 	 -61.9265
| 21> H 	 -135.355 	 61.6244 	 -63.4777
| 22> H 	 -136.429 	 61.9821 	 -62.1056
| 23> S 	 -132.618 	 54.5094 	 -58.569
| 24> C 	 -132.28 	 52.9164 	 -59.2085
| 25> C 	 -132.192 	 52.8774 	 -60.545
| 26> C 	 -132.285 	 54.1694 	 -61.0734
| 27> C 	 -132.452 	 55.184 	 -60.1151
| 28> H 	 -132.059 	 51.9217 	 -61.0498
| 29> C 	 -132.271 	 54.3273 	 -62.5278
| 30> H 	 -132.683 	 55.3286 	 -62.7969
| 31> H 	 -132.962 	 53.567 	 -62.9436
| 32> C 	 -130.854 	 54.1144 	 -63.0843
| 33> H 	 -130.489 	 53.0497 	 -62.9103
| 34> H 	 -130.042 	 54.7059 	 -62.6567
| 35> C 	 -130.811 	 54.2817 	 -64.6636
| 36> H 	 -130.874 	 53.3196 	 -65.1175
| 37> H 	 -129.833 	 54.5395 	 -65.0639
| 38> H 	 -131.549 	 54.9696 	 -65.1338
| 39> H 	 -132.317 	 60.1499 	 -59.6249
| 40> H 	 -132.224 	 52.0679 	 -58.5512
| 41> *
| 42>
| 43>                          ****END OF INPUT****

CARTESIAN COORDINATES (ANGSTROEM)
---------------------------------
  S    -131.753000   57.706700  -59.120600
  C    -132.400000   59.126900  -59.909500
  C    -133.185000   58.789600  -60.997300
  C    -133.375000   57.356000  -61.069300
  C    -132.514000   56.620600  -60.252500
  H    -133.892000   56.870000  -61.872300
  C    -133.810000   59.740900  -62.029700
  H    -133.911000   59.109900  -62.884200
  H    -133.129000   60.543400  -62.252600
  C    -135.168000   60.388500  -61.665400
  H    -135.945000   59.734000  -61.927900
  H    -135.200000   60.628400  -60.592700
  C    -135.435000   61.706000  -62.341900
  H    -134.652000   62.418300  -61.926500
  H    -135.355000   61.624400  -63.477700
  H    -136.429000   61.982100  -62.105600
  S    -132.618000   54.509400  -58.569000
  C    -132.280000   52.916400  -59.208500
  C    -132.192000   52.877400  -60.545000
  C    -132.285000   54.169400  -61.073400
  C    -132.452000   55.184000  -60.115100
  H    -132.059000   51.921700  -61.049800
  C    -132.271000   54.327300  -62.527800
  H    -132.683000   55.328600  -62.796900
  H    -132.962000   53.567000  -62.943600
  C    -130.854000   54.114400  -63.084300
  H    -130.489000   53.049700  -62.910300
  H    -130.042000   54.705900  -62.656700
  C    -130.811000   54.281700  -64.663600
  H    -130.874000   53.319600  -65.117500
  H    -129.833000   54.539500  -65.063900
  H    -131.549000   54.969600  -65.133800
  H    -132.317000   60.149900  -59.624900
  H    -132.224000   52.067900  -58.551200

 Total Charge           Charge          ....    0
 Multiplicity           Mult            ....    1
 Number of Electrons    NEL             ....  134
 Basis Dimension        Dim             ....  322

ORBITAL ENERGIES
----------------

  NO   OCC          E(Eh)            E(eV)
   0   2.0000     -88.967095     -2420.9177
   1   2.0000     -88.963446     -2420.8184
   2   2.0000     -10.329149      -281.0704
   3   2.0000     -10.320840      -280.8443
   4   2.0000     -10.310886      -280.5735
   5   2.0000     -10.310425      -280.5609
   6   2.0000     -10.301369      -280.3145
   7   2.0000     -10.295882      -280.1652
   8   2.0000     -10.294139      -280.1178
   9   2.0000     -10.292389      -280.0701
  10   2.0000     -10.291991      -280.0593
  11   2.0000     -10.290283      -280.0128
  12   2.0000     -10.287754      -279.9440
  13   2.0000     -10.284055      -279.8434
  14   2.0000     -10.280383      -279.7434
  15   2.0000     -10.275891      -279.6212
  16   2.0000      -8.081661      -219.9132
  17   2.0000      -8.079496      -219.8543
  18   2.0000      -6.040268      -164.3641
  19   2.0000      -6.037840      -164.2980
  20   2.0000      -6.036087      -164.2503
  21   2.0000      -6.033872      -164.1900
  22   2.0000      -6.032430      -164.1508
  23   2.0000      -6.030305      -164.0929
  24   2.0000      -1.014460       -27.6049
  25   2.0000      -0.987187       -26.8627
  26   2.0000      -0.913829       -24.8666
  27   2.0000      -0.908853       -24.7311
  28   2.0000      -0.876805       -23.8591
  29   2.0000      -0.849264       -23.1097
  30   2.0000      -0.847023       -23.0487
  31   2.0000      -0.816273       -22.2119
  32   2.0000      -0.781813       -21.2742
  33   2.0000      -0.769260       -20.9326
  34   2.0000      -0.707577       -19.2541
  35   2.0000      -0.696827       -18.9616
  36   2.0000      -0.693754       -18.8780
  37   2.0000      -0.665339       -18.1048
  38   2.0000      -0.638413       -17.3721
  39   2.0000      -0.621753       -16.9187
  40   2.0000      -0.599412       -16.3108
  41   2.0000      -0.576189       -15.6789
  42   2.0000      -0.569605       -15.4998
  43   2.0000      -0.552999       -15.0479
  44   2.0000      -0.530611       -14.4386
  45   2.0000      -0.523701       -14.2506
  46   2.0000      -0.514219       -13.9926
  47   2.0000      -0.508807       -13.8453
  48   2.0000      -0.506387       -13.7795
  49   2.0000      -0.502629       -13.6772
  50   2.0000      -0.497423       -13.5356
  51   2.0000      -0.476566       -12.9680
  52   2.0000      -0.471159       -12.8209
  53   2.0000      -0.464188       -12.6312
  54   2.0000      -0.457735       -12.4556
  55   2.0000      -0.448884       -12.2148
  56   2.0000      -0.448069       -12.1926
  57   2.0000      -0.439372       -11.9559
  58   2.0000      -0.428829       -11.6690
  59   2.0000      -0.428252       -11.6533
  60   2.0000      -0.421096       -11.4586
  61   2.0000      -0.416125       -11.3233
  62   2.0000      -0.410830       -11.1792
  63   2.0000      -0.351031        -9.5520
  64   2.0000      -0.329974        -8.9791
  65   2.0000      -0.327098        -8.9008
  66   2.0000      -0.288584        -7.8528
  67   0.0000       0.029966         0.8154
  68   0.0000       0.077384         2.1057
  69   0.0000       0.111872         3.0442
  70   0.0000       0.114582         3.1179
  71   0.0000       0.139149         3.7864

MULLIKEN ATOMIC CHARGES
-----------------------
   0 S :    0.114610
   1 C :   -0.101176
   2 C :   -0.117417
   3 C :    0.037848
   4 C :   -0.159788
   5 H :    0.010076
   6 C :    0.095023
   7 H :    0.014857
   8 H :    0.018299
   9 C :   -0.056336
  10 H :    0.018405
  11 H :    0.032723
  12 C :   -0.072658
  13 H :    0.041908
  14 H :    0.039019
  15 H :    0.032247
  16 S :    0.111355
  17 C :   -0.089786
  18 C :   -0.026837
  19 C :   -0.035626
  20 C :   -0.144052
  21 H :    0.025806
  22 C :    0.080334
  23 H :    0.017014
  24 H :    0.037014
  25 C :   -0.110343
  26 H :    0.032464
  27 H :    0.043540
  28 C :   -0.043281
  29 H :    0.017610
  30 H :    0.019278
  31 H :    0.039871
  32 H :    0.033049
  33 H :    0.044951
Sum of atomic charges:    0.0000000

LOEWDIN ATOMIC CHARGES
----------------------
   0 S :    0.411310
   1 C :   -0.199042
   2 C :   -0.059078
   3 C :   -0.063916
   4 C :   -0.196090
   5 H :    0.022253
   6 C :   -0.025559
   7 H :    0.027961
   8 H :    0.028063
   9 C :   -0.039801
  10 H :    0.016015
  11 H :    0.027479
  12 C :   -0.065648
  13 H :    0.030689
  14 H :    0.028850
  15 H :    0.021000
  16 S :    0.427805
  17 C :   -0.173390
  18 C :   -0.070817
  19 C :   -0.057372
  20 C :   -0.223148
  21 H :    0.039759
  22 C :   -0.036000
  23 H :    0.029589
  24 H :    0.038629
  25 C :   -0.038553
  26 H :    0.029315
  27 H :    0.027143
  28 C :   -0.077914
  29 H :    0.020479
  30 H :    0.025095
  31 H :    0.027514
  32 H :    0.024998
  33 H :    0.022383

  Mayer bond orders larger than 0.100000
B(  0-S ,  1-C ) :   1.1356 B(  0-S ,  4-C ) :   1.1509 B(  1-C ,  2-C ) :   1.6111
B(  1-C , 32-H ) :   0.9701 B(  2-C ,  3-C ) :   1.2559 B(  2-C ,  6-C ) :   1.0211
B(  3-C ,  4-C ) :   1.5663 B(  3-C ,  5-H ) :   0.9786 B(  4-C , 20-C ) :   1.0496
B(  6-C ,  7-H ) :   0.9336 B(  6-C ,  8-H ) :   0.9462 B(  6-C ,  9-C ) :   1.0577
B(  9-C , 10-H ) :   0.9535 B(  9-C , 11-H ) :   0.9616 B(  9-C , 12-C ) :   1.0882
B( 12-C , 13-H ) :   0.9756 B( 12-C , 14-H ) :   0.9737 B( 12-C , 15-H ) :   0.9730
B( 16-S , 17-C ) :   1.1632 B( 16-S , 20-C ) :   1.1550 B( 17-C , 18-C ) :   1.6014
B( 17-C , 33-H ) :   0.9678 B( 18-C , 19-C ) :   1.2456 B( 18-C , 21-H ) :   0.9964
B( 19-C , 20-C ) :   1.5666 B( 19-C , 22-C ) :   1.0626 B( 22-C , 23-H ) :   0.9262
B( 22-C , 24-H ) :   0.9318 B( 22-C , 25-C ) :   1.0507 B( 25-C , 26-H ) :   0.9605
B( 25-C , 27-H ) :   0.9651 B( 25-C , 28-C ) :   1.0632 B( 28-C , 29-H ) :   0.9773
B( 28-C , 30-H ) :   0.9749 B( 28-C , 31-H ) :   0.9783

Dispersion correction           -0.013368967
FINAL SINGLE POINT ENERGY     -1339.871845011998

DIPOLE MOMENT
-------------
                                X             Y             Z
Electronic contribution:      5.34528      -9.61067      26.06951
Nuclear contribution   :     -5.55669       9.52323     -26.64925
                        -----------------------------------------
Total Dipole Moment    :     -0.21141      -0.08744      -0.57974
                        -----------------------------------------
Magnitude (a.u.)       :      0.62325
Magnitude (Debye)      :      1.58418

Rotational constants in cm-1:     0.018781     0.007764     0.006182
Rotational constants in MHz :   563.044334   232.762698   185.326717

                             ****ORCA TERMINATED NORMALLY****
TOTAL RUN TIME: 0 days 0 hours 0 minutes 21 seconds 156 msec
