                         Program Version 4.2.1 -  RELEASE  -
|  1> ! wB97X-D3 SP def2-SVP
|  2> %pal
|  3> nprocs 24
|  4> end
|  5>
|  6> * xyz 0 1
|  7> S 	 -42.1434 	 20.9381 	 23.2386
|  8> C 	 -41.7983 	 19.9702 	 21.8002
|  9> C 	 -42.4713 	 18.7922 	 21.8785
| 10> C 	 -43.2927 	 18.6922 	 23.0533
| 11> C 	 -43.2622 	 19.8316 	 23.8495
| 12> H 	 -43.8557 	 17.8304 	 23.3985
| 13> C 	 -42.4327 	 17.7257 	 20.879
| 14> H 	 -41.8454 	 18.0507 	 20.0012
| 15> H 	 -43.4404 	 17.7476 	 20.4288
| 16> C 	 -42.1153 	 16.3251 	 21.3744
| 17> H 	 -42.9156 	 15.9355 	 21.9617
| 18> H 	 -42.1002 	 15.6494 	 20.5463
| 19> C 	 -40.78 	 16.2496 	 22.0625
| 20> H 	 -40.5002 	 15.2266 	 22.3485
| 21> H 	 -39.9792 	 16.5066 	 21.4363
| 22> H 	 -40.7235 	 16.8297 	 22.9845
| 23> S 	 -45.566 	 20.2297 	 25.2492
| 24> C 	 -45.6146 	 19.8387 	 26.9539
| 25> C 	 -44.3754 	 19.5271 	 27.493
| 26> C 	 -43.3777 	 19.5239 	 26.4385
| 27> C 	 -43.8914 	 19.8506 	 25.1635
| 28> H 	 -44.4113 	 19.3044 	 28.5468
| 29> C 	 -41.9191 	 19.0888 	 26.8187
| 30> H 	 -41.5335 	 19.7487 	 27.5498
| 31> H 	 -41.2799 	 19.1966 	 25.9774
| 32> C 	 -41.8124 	 17.618 	 27.2377
| 33> H 	 -42.2532 	 17.4535 	 28.2157
| 34> H 	 -40.739 	 17.3625 	 27.3966
| 35> C 	 -42.4744 	 16.7641 	 26.1654
| 36> H 	 -42.2348 	 15.7053 	 26.3679
| 37> H 	 -42.0698 	 17.1358 	 25.2089
| 38> H 	 -43.543 	 16.8963 	 26.1711
| 39> H 	 -41.1417 	 20.1897 	 20.9671
| 40> H 	 -46.3507 	 19.9705 	 27.7177
| 41> *
| 42>
| 43>                          ****END OF INPUT****

CARTESIAN COORDINATES (ANGSTROEM)
---------------------------------
  S    -42.143400   20.938100   23.238600
  C    -41.798300   19.970200   21.800200
  C    -42.471300   18.792200   21.878500
  C    -43.292700   18.692200   23.053300
  C    -43.262200   19.831600   23.849500
  H    -43.855700   17.830400   23.398500
  C    -42.432700   17.725700   20.879000
  H    -41.845400   18.050700   20.001200
  H    -43.440400   17.747600   20.428800
  C    -42.115300   16.325100   21.374400
  H    -42.915600   15.935500   21.961700
  H    -42.100200   15.649400   20.546300
  C    -40.780000   16.249600   22.062500
  H    -40.500200   15.226600   22.348500
  H    -39.979200   16.506600   21.436300
  H    -40.723500   16.829700   22.984500
  S    -45.566000   20.229700   25.249200
  C    -45.614600   19.838700   26.953900
  C    -44.375400   19.527100   27.493000
  C    -43.377700   19.523900   26.438500
  C    -43.891400   19.850600   25.163500
  H    -44.411300   19.304400   28.546800
  C    -41.919100   19.088800   26.818700
  H    -41.533500   19.748700   27.549800
  H    -41.279900   19.196600   25.977400
  C    -41.812400   17.618000   27.237700
  H    -42.253200   17.453500   28.215700
  H    -40.739000   17.362500   27.396600
  C    -42.474400   16.764100   26.165400
  H    -42.234800   15.705300   26.367900
  H    -42.069800   17.135800   25.208900
  H    -43.543000   16.896300   26.171100
  H    -41.141700   20.189700   20.967100
  H    -46.350700   19.970500   27.717700

 Total Charge           Charge          ....    0
 Multiplicity           Mult            ....    1
 Number of Electrons    NEL             ....  134
 Basis Dimension        Dim             ....  322

ORBITAL ENERGIES
----------------

  NO   OCC          E(Eh)            E(eV)
   0   2.0000     -88.969578     -2420.9853
   1   2.0000     -88.966891     -2420.9122
   2   2.0000     -10.327448      -281.0242
   3   2.0000     -10.324798      -280.9520
   4   2.0000     -10.312940      -280.6294
   5   2.0000     -10.312127      -280.6072
   6   2.0000     -10.311231      -280.5829
   7   2.0000     -10.295323      -280.1500
   8   2.0000     -10.294414      -280.1252
   9   2.0000     -10.291292      -280.0403
  10   2.0000     -10.288726      -279.9705
  11   2.0000     -10.283252      -279.8215
  12   2.0000     -10.282494      -279.8009
  13   2.0000     -10.281865      -279.7838
  14   2.0000     -10.271842      -279.5110
  15   2.0000     -10.269594      -279.4499
  16   2.0000      -8.084348      -219.9863
  17   2.0000      -8.082033      -219.9233
  18   2.0000      -6.042840      -164.4340
  19   2.0000      -6.040542      -164.3715
  20   2.0000      -6.038828      -164.3249
  21   2.0000      -6.036362      -164.2578
  22   2.0000      -6.035138      -164.2245
  23   2.0000      -6.032861      -164.1625
  24   2.0000      -1.011013       -27.5111
  25   2.0000      -0.986897       -26.8548
  26   2.0000      -0.921740       -25.0818
  27   2.0000      -0.908072       -24.7099
  28   2.0000      -0.874310       -23.7912
  29   2.0000      -0.850293       -23.1377
  30   2.0000      -0.838822       -22.8255
  31   2.0000      -0.815876       -22.2011
  32   2.0000      -0.785655       -21.3788
  33   2.0000      -0.773419       -21.0458
  34   2.0000      -0.715653       -19.4739
  35   2.0000      -0.702325       -19.1112
  36   2.0000      -0.688407       -18.7325
  37   2.0000      -0.653547       -17.7839
  38   2.0000      -0.637962       -17.3598
  39   2.0000      -0.623237       -16.9591
  40   2.0000      -0.590849       -16.0778
  41   2.0000      -0.573823       -15.6145
  42   2.0000      -0.559139       -15.2149
  43   2.0000      -0.555502       -15.1160
  44   2.0000      -0.543746       -14.7961
  45   2.0000      -0.541213       -14.7272
  46   2.0000      -0.517045       -14.0695
  47   2.0000      -0.513742       -13.9796
  48   2.0000      -0.507448       -13.8084
  49   2.0000      -0.496035       -13.4978
  50   2.0000      -0.486012       -13.2251
  51   2.0000      -0.475619       -12.9423
  52   2.0000      -0.471870       -12.8402
  53   2.0000      -0.463378       -12.6092
  54   2.0000      -0.456283       -12.4161
  55   2.0000      -0.445302       -12.1173
  56   2.0000      -0.443559       -12.0699
  57   2.0000      -0.436054       -11.8656
  58   2.0000      -0.429613       -11.6904
  59   2.0000      -0.424662       -11.5556
  60   2.0000      -0.423964       -11.5367
  61   2.0000      -0.418053       -11.3758
  62   2.0000      -0.410433       -11.1685
  63   2.0000      -0.335909        -9.1406
  64   2.0000      -0.329626        -8.9696
  65   2.0000      -0.325988        -8.8706
  66   2.0000      -0.307339        -8.3631
  67   0.0000       0.047740         1.2991
  68   0.0000       0.058442         1.5903
  69   0.0000       0.116529         3.1709
  70   0.0000       0.122891         3.3440
  71   0.0000       0.132107         3.5948

MULLIKEN ATOMIC CHARGES
-----------------------
   0 S :    0.123999
   1 C :   -0.127165
   2 C :   -0.086291
   3 C :    0.032471
   4 C :   -0.151823
   5 H :    0.017133
   6 C :    0.060259
   7 H :    0.008358
   8 H :    0.037911
   9 C :   -0.026929
  10 H :    0.022682
  11 H :    0.015981
  12 C :   -0.034172
  13 H :    0.021825
  14 H :    0.013297
  15 H :    0.043976
  16 S :    0.134987
  17 C :   -0.081466
  18 C :   -0.061131
  19 C :   -0.045408
  20 C :   -0.201363
  21 H :    0.025502
  22 C :    0.115887
  23 H :    0.022350
  24 H :    0.008583
  25 C :   -0.096519
  26 H :    0.020305
  27 H :    0.033559
  28 C :   -0.042441
  29 H :    0.035886
  30 H :    0.031621
  31 H :    0.045462
  32 H :    0.041798
  33 H :    0.040877
Sum of atomic charges:   -0.0000000

LOEWDIN ATOMIC CHARGES
----------------------
   0 S :    0.430291
   1 C :   -0.197545
   2 C :   -0.067460
   3 C :   -0.059144
   4 C :   -0.224206
   5 H :    0.030786
   6 C :   -0.037876
   7 H :    0.028988
   8 H :    0.040719
   9 C :   -0.036551
  10 H :    0.021963
  11 H :    0.025513
  12 C :   -0.062016
  13 H :    0.027890
  14 H :    0.018802
  15 H :    0.026154
  16 S :    0.430842
  17 C :   -0.192259
  18 C :   -0.072044
  19 C :   -0.046266
  20 C :   -0.218558
  21 H :    0.035294
  22 C :   -0.025136
  23 H :    0.025449
  24 H :    0.020241
  25 C :   -0.041525
  26 H :    0.015333
  27 H :    0.027328
  28 C :   -0.062372
  29 H :    0.027002
  30 H :    0.025838
  31 H :    0.024894
  32 H :    0.032117
  33 H :    0.027513

  Mayer bond orders larger than 0.100000
B(  0-S ,  1-C ) :   1.1260 B(  0-S ,  4-C ) :   1.1707 B(  1-C ,  2-C ) :   1.6095
B(  1-C , 32-H ) :   0.9684 B(  2-C ,  3-C ) :   1.2283 B(  2-C ,  6-C ) :   1.0340
B(  3-C ,  4-C ) :   1.5670 B(  3-C ,  5-H ) :   0.9936 B(  4-C , 20-C ) :   1.0009
B(  6-C ,  7-H ) :   0.9374 B(  6-C ,  8-H ) :   0.9285 B(  6-C ,  9-C ) :   1.0800
B(  9-C , 10-H ) :   0.9488 B(  9-C , 11-H ) :   0.9461 B(  9-C , 12-C ) :   1.0857
B( 12-C , 13-H ) :   0.9697 B( 12-C , 14-H ) :   0.9710 B( 12-C , 15-H ) :   0.9698
B( 16-S , 17-C ) :   1.1537 B( 16-S , 20-C ) :   1.1570 B( 17-C , 18-C ) :   1.6468
B( 17-C , 33-H ) :   0.9621 B( 18-C , 19-C ) :   1.2120 B( 18-C , 21-H ) :   0.9920
B( 19-C , 20-C ) :   1.6010 B( 19-C , 22-C ) :   1.0337 B( 22-C , 23-H ) :   0.9375
B( 22-C , 24-H ) :   0.9321 B( 22-C , 25-C ) :   1.0742 B( 25-C , 26-H ) :   0.9541
B( 25-C , 27-H ) :   0.9572 B( 25-C , 28-C ) :   1.0741 B( 28-C , 29-H ) :   0.9703
B( 28-C , 30-H ) :   0.9724 B( 28-C , 31-H ) :   0.9637

Dispersion correction           -0.016946844
FINAL SINGLE POINT ENERGY     -1339.880451891752

DIPOLE MOMENT
-------------
                                X             Y             Z
Electronic contribution:    -12.96542      23.31829       0.74195
Nuclear contribution   :     13.19719     -23.89794      -0.68895
                        -----------------------------------------
Total Dipole Moment    :      0.23177      -0.57965       0.05299
                        -----------------------------------------
Magnitude (a.u.)       :      0.62652
Magnitude (Debye)      :      1.59248

Rotational constants in cm-1:     0.019604     0.010004     0.008308
Rotational constants in MHz :   587.724318   299.905853   249.080249

                             ****ORCA TERMINATED NORMALLY****
TOTAL RUN TIME: 0 days 0 hours 0 minutes 23 seconds 699 msec
