                         Program Version 4.2.1 -  RELEASE  -
|  1> ! wB97X-D3 SP def2-SVP
|  2> %pal
|  3> nprocs 24
|  4> end
|  5>
|  6> * xyz 0 1
|  7> S 	 -35.2286 	 -6.68443 	 10.123
|  8> C 	 -35.6263 	 -6.01016 	 11.6466
|  9> C 	 -36.4124 	 -6.84574 	 12.4139
| 10> C 	 -36.7355 	 -8.05478 	 11.7104
| 11> C 	 -36.2925 	 -8.08204 	 10.3762
| 12> H 	 -37.4029 	 -8.82611 	 12.0568
| 13> C 	 -36.8817 	 -6.65367 	 13.8841
| 14> H 	 -37.893 	 -6.976 	 14.0027
| 15> H 	 -36.9358 	 -5.60827 	 14.1746
| 16> C 	 -36.0223 	 -7.52737 	 14.9196
| 17> H 	 -36.4714 	 -7.44704 	 15.9215
| 18> H 	 -36.1487 	 -8.6339 	 14.7067
| 19> C 	 -34.506 	 -7.23934 	 14.973
| 20> H 	 -34.1196 	 -8.05742 	 15.6344
| 21> H 	 -33.9961 	 -7.27658 	 14.0439
| 22> H 	 -34.1792 	 -6.27761 	 15.5344
| 23> S 	 -35.0574 	 -9.97888 	 8.73587
| 24> C 	 -36.0996 	 -11.0777 	 7.89784
| 25> C 	 -37.3869 	 -10.9737 	 8.14925
| 26> C 	 -37.5814 	 -9.85818 	 9.0867
| 27> C 	 -36.4744 	 -9.14542 	 9.44132
| 28> H 	 -38.1218 	 -11.696 	 7.7928
| 29> C 	 -38.9578 	 -9.39015 	 9.43513
| 30> H 	 -39.3843 	 -9.30284 	 8.46615
| 31> H 	 -38.8748 	 -8.41899 	 9.84583
| 32> C 	 -39.6931 	 -10.3211 	 10.3179
| 33> H 	 -39.214 	 -10.331 	 11.3161
| 34> H 	 -39.6187 	 -11.3969 	 10.0533
| 35> C 	 -41.2395 	 -9.92597 	 10.4425
| 36> H 	 -41.5637 	 -10.228 	 11.4281
| 37> H 	 -41.8072 	 -10.5402 	 9.77573
| 38> H 	 -41.4692 	 -8.86677 	 10.1652
| 39> H 	 -35.2067 	 -5.05954 	 12.0185
| 40> H 	 -35.818 	 -11.8954 	 7.29219
| 41> *
| 42>
| 43>                          ****END OF INPUT****

CARTESIAN COORDINATES (ANGSTROEM)
---------------------------------
  S    -35.228600   -6.684430   10.123000
  C    -35.626300   -6.010160   11.646600
  C    -36.412400   -6.845740   12.413900
  C    -36.735500   -8.054780   11.710400
  C    -36.292500   -8.082040   10.376200
  H    -37.402900   -8.826110   12.056800
  C    -36.881700   -6.653670   13.884100
  H    -37.893000   -6.976000   14.002700
  H    -36.935800   -5.608270   14.174600
  C    -36.022300   -7.527370   14.919600
  H    -36.471400   -7.447040   15.921500
  H    -36.148700   -8.633900   14.706700
  C    -34.506000   -7.239340   14.973000
  H    -34.119600   -8.057420   15.634400
  H    -33.996100   -7.276580   14.043900
  H    -34.179200   -6.277610   15.534400
  S    -35.057400   -9.978880    8.735870
  C    -36.099600  -11.077700    7.897840
  C    -37.386900  -10.973700    8.149250
  C    -37.581400   -9.858180    9.086700
  C    -36.474400   -9.145420    9.441320
  H    -38.121800  -11.696000    7.792800
  C    -38.957800   -9.390150    9.435130
  H    -39.384300   -9.302840    8.466150
  H    -38.874800   -8.418990    9.845830
  C    -39.693100  -10.321100   10.317900
  H    -39.214000  -10.331000   11.316100
  H    -39.618700  -11.396900   10.053300
  C    -41.239500   -9.925970   10.442500
  H    -41.563700  -10.228000   11.428100
  H    -41.807200  -10.540200    9.775730
  H    -41.469200   -8.866770   10.165200
  H    -35.206700   -5.059540   12.018500
  H    -35.818000  -11.895400    7.292190

 Total Charge           Charge          ....    0
 Multiplicity           Mult            ....    1
 Number of Electrons    NEL             ....  134
 Basis Dimension        Dim             ....  322

ORBITAL ENERGIES
----------------

  NO   OCC          E(Eh)            E(eV)
   0   2.0000     -88.967913     -2420.9400
   1   2.0000     -88.958905     -2420.6949
   2   2.0000     -10.331696      -281.1397
   3   2.0000     -10.321857      -280.8720
   4   2.0000     -10.316786      -280.7340
   5   2.0000     -10.307661      -280.4857
   6   2.0000     -10.305056      -280.4148
   7   2.0000     -10.299052      -280.2515
   8   2.0000     -10.298853      -280.2460
   9   2.0000     -10.297865      -280.2191
  10   2.0000     -10.297359      -280.2054
  11   2.0000     -10.290159      -280.0095
  12   2.0000     -10.289826      -280.0004
  13   2.0000     -10.282794      -279.8091
  14   2.0000     -10.280710      -279.7523
  15   2.0000     -10.275065      -279.5987
  16   2.0000      -8.082803      -219.9443
  17   2.0000      -8.074016      -219.7051
  18   2.0000      -6.041315      -164.3925
  19   2.0000      -6.037185      -164.2802
  20   2.0000      -6.033656      -164.1841
  21   2.0000      -6.032720      -164.1587
  22   2.0000      -6.028651      -164.0479
  23   2.0000      -6.024354      -163.9310
  24   2.0000      -1.008008       -27.4293
  25   2.0000      -0.986778       -26.8516
  26   2.0000      -0.913608       -24.8605
  27   2.0000      -0.899469       -24.4758
  28   2.0000      -0.875876       -23.8338
  29   2.0000      -0.845985       -23.0204
  30   2.0000      -0.840729       -22.8774
  31   2.0000      -0.817505       -22.2454
  32   2.0000      -0.783155       -21.3107
  33   2.0000      -0.772259       -21.0142
  34   2.0000      -0.710613       -19.3368
  35   2.0000      -0.699647       -19.0384
  36   2.0000      -0.691986       -18.8299
  37   2.0000      -0.661398       -17.9975
  38   2.0000      -0.640796       -17.4369
  39   2.0000      -0.619018       -16.8443
  40   2.0000      -0.596584       -16.2339
  41   2.0000      -0.572028       -15.5657
  42   2.0000      -0.557750       -15.1771
  43   2.0000      -0.542623       -14.7655
  44   2.0000      -0.534225       -14.5370
  45   2.0000      -0.529482       -14.4079
  46   2.0000      -0.515509       -14.0277
  47   2.0000      -0.508063       -13.8251
  48   2.0000      -0.505624       -13.7587
  49   2.0000      -0.499669       -13.5967
  50   2.0000      -0.491842       -13.3837
  51   2.0000      -0.481931       -13.1140
  52   2.0000      -0.470569       -12.8048
  53   2.0000      -0.462081       -12.5739
  54   2.0000      -0.457617       -12.4524
  55   2.0000      -0.454013       -12.3543
  56   2.0000      -0.451582       -12.2882
  57   2.0000      -0.442238       -12.0339
  58   2.0000      -0.430378       -11.7112
  59   2.0000      -0.421278       -11.4636
  60   2.0000      -0.415890       -11.3169
  61   2.0000      -0.414268       -11.2728
  62   2.0000      -0.403594       -10.9823
  63   2.0000      -0.353446        -9.6177
  64   2.0000      -0.330560        -8.9950
  65   2.0000      -0.326123        -8.8743
  66   2.0000      -0.294785        -8.0215
  67   0.0000       0.032085         0.8731
  68   0.0000       0.073882         2.0104
  69   0.0000       0.115418         3.1407
  70   0.0000       0.123428         3.3586
  71   0.0000       0.131236         3.5711

MULLIKEN ATOMIC CHARGES
-----------------------
   0 S :    0.117653
   1 C :   -0.121200
   2 C :   -0.092367
   3 C :    0.045583
   4 C :   -0.191726
   5 H :    0.004442
   6 C :    0.095737
   7 H :    0.018403
   8 H :    0.022550
   9 C :   -0.107597
  10 H :    0.033384
  11 H :    0.038995
  12 C :   -0.078058
  13 H :    0.037112
  14 H :    0.047354
  15 H :    0.040966
  16 S :    0.088459
  17 C :   -0.037424
  18 C :   -0.031620
  19 C :   -0.091421
  20 C :   -0.113172
  21 H :    0.027687
  22 C :    0.109678
  23 H :    0.020801
  24 H :    0.019828
  25 C :   -0.114872
  26 H :    0.023949
  27 H :    0.029090
  28 C :   -0.032001
  29 H :    0.028835
  30 H :    0.024280
  31 H :    0.046167
  32 H :    0.058422
  33 H :    0.032083
Sum of atomic charges:    0.0000000

LOEWDIN ATOMIC CHARGES
----------------------
   0 S :    0.414371
   1 C :   -0.208259
   2 C :   -0.067926
   3 C :   -0.049805
   4 C :   -0.193028
   5 H :    0.027412
   6 C :   -0.028046
   7 H :    0.026840
   8 H :    0.027741
   9 C :   -0.044650
  10 H :    0.025335
  11 H :    0.029985
  12 C :   -0.077208
  13 H :    0.033553
  14 H :    0.020316
  15 H :    0.032060
  16 S :    0.376361
  17 C :   -0.169552
  18 C :   -0.076199
  19 C :   -0.043094
  20 C :   -0.195384
  21 H :    0.038422
  22 C :   -0.033083
  23 H :    0.029829
  24 H :    0.026096
  25 C :   -0.041946
  26 H :    0.021362
  27 H :    0.025057
  28 C :   -0.064138
  29 H :    0.024509
  30 H :    0.020847
  31 H :    0.031930
  32 H :    0.035424
  33 H :    0.024866

  Mayer bond orders larger than 0.100000
B(  0-S ,  1-C ) :   1.1529 B(  0-S ,  4-C ) :   1.1426 B(  1-C ,  2-C ) :   1.6014
B(  1-C , 32-H ) :   0.9630 B(  2-C ,  3-C ) :   1.2500 B(  2-C ,  6-C ) :   1.0246
B(  3-C ,  4-C ) :   1.5524 B(  3-C ,  5-H ) :   0.9907 B(  4-C , 20-C ) :   1.0772
B(  6-C ,  7-H ) :   0.9401 B(  6-C ,  8-H ) :   0.9488 B(  6-C ,  9-C ) :   1.0562
B(  9-C , 10-H ) :   0.9578 B(  9-C , 11-H ) :   0.9599 B(  9-C , 12-C ) :   1.0686
B( 12-C , 13-H ) :   0.9727 B( 12-C , 14-H ) :   0.9764 B( 12-C , 15-H ) :   0.9758
B( 16-S , 17-C ) :   1.1368 B( 16-S , 20-C ) :   1.0784 B( 17-C , 18-C ) :   1.6878
B( 17-C , 33-H ) :   0.9570 B( 18-C , 19-C ) :   1.1716 B( 18-C , 21-H ) :   0.9889
B( 19-C , 20-C ) :   1.6679 B( 19-C , 22-C ) :   1.0440 B( 22-C , 23-H ) :   0.9372
B( 22-C , 24-H ) :   0.9275 B( 22-C , 25-C ) :   1.0589 B( 25-C , 26-H ) :   0.9550
B( 25-C , 27-H ) :   0.9607 B( 25-C , 28-C ) :   1.0569 B( 28-C , 29-H ) :   0.9775
B( 28-C , 30-H ) :   0.9788 B( 28-C , 31-H ) :   0.9780

Dispersion correction           -0.014484888
FINAL SINGLE POINT ENERGY     -1339.873557315238

DIPOLE MOMENT
-------------
                                X             Y             Z
Electronic contribution:     16.63459       2.12363     -20.00475
Nuclear contribution   :    -17.20953      -2.37699      20.42440
                        -----------------------------------------
Total Dipole Moment    :     -0.57493      -0.25336       0.41965
                        -----------------------------------------
Magnitude (a.u.)       :      0.75554
Magnitude (Debye)      :      1.92043

Rotational constants in cm-1:     0.017457     0.008953     0.006954
Rotational constants in MHz :   523.338467   268.395202   208.484472

                             ****ORCA TERMINATED NORMALLY****
TOTAL RUN TIME: 0 days 0 hours 0 minutes 21 seconds 592 msec
