                         Program Version 4.2.1 -  RELEASE  -
|  1> ! wB97X-D3 SP def2-SVP
|  2> %pal
|  3> nprocs 24
|  4> end
|  5>
|  6> * xyz 0 1
|  7> S 	 -38.3429 	 -10.6056 	 18.5981
|  8> C 	 -37.297 	 -11.9162 	 18.1742
|  9> C 	 -36.9824 	 -11.9244 	 16.8378
| 10> C 	 -37.6666 	 -10.8121 	 16.1834
| 11> C 	 -38.4503 	 -10.0321 	 16.9864
| 12> H 	 -37.6476 	 -10.6251 	 15.176
| 13> C 	 -36.1144 	 -12.9469 	 16.1343
| 14> H 	 -36.1024 	 -12.598 	 15.1347
| 15> H 	 -36.5684 	 -13.8965 	 16.1375
| 16> C 	 -34.739 	 -13.17 	 16.6713
| 17> H 	 -34.3516 	 -12.227 	 16.8208
| 18> H 	 -34.7477 	 -13.5276 	 17.6867
| 19> C 	 -33.8325 	 -14.0655 	 15.8775
| 20> H 	 -32.8211 	 -14.0432 	 16.3702
| 21> H 	 -34.0817 	 -15.1326 	 16.0554
| 22> H 	 -33.7074 	 -13.8543 	 14.8266
| 23> S 	 -40.4294 	 -8.91133 	 15.3571
| 24> C 	 -40.9293 	 -7.24111 	 15.6594
| 25> C 	 -40.0969 	 -6.6644 	 16.5908
| 26> C 	 -39.0992 	 -7.52793 	 17.1581
| 27> C 	 -39.2062 	 -8.78582 	 16.6411
| 28> H 	 -40.2342 	 -5.6272 	 16.8567
| 29> C 	 -38.1925 	 -7.08166 	 18.2829
| 30> H 	 -38.1068 	 -7.9368 	 18.9634
| 31> H 	 -38.6654 	 -6.33025 	 18.9072
| 32> C 	 -36.8459 	 -6.50382 	 17.8863
| 33> H 	 -36.3266 	 -6.20135 	 18.731
| 34> H 	 -37.0154 	 -5.69412 	 17.1697
| 35> C 	 -35.9881 	 -7.55705 	 17.1773
| 36> H 	 -36.3638 	 -7.8389 	 16.282
| 37> H 	 -35.8681 	 -8.43212 	 17.7701
| 38> H 	 -34.9961 	 -7.16609 	 16.8743
| 39> H 	 -36.7305 	 -12.591 	 18.9126
| 40> H 	 -41.71 	 -6.68025 	 15.1475
| 41> *
| 42>
| 43>                          ****END OF INPUT****

CARTESIAN COORDINATES (ANGSTROEM)
---------------------------------
  S    -38.342900  -10.605600   18.598100
  C    -37.297000  -11.916200   18.174200
  C    -36.982400  -11.924400   16.837800
  C    -37.666600  -10.812100   16.183400
  C    -38.450300  -10.032100   16.986400
  H    -37.647600  -10.625100   15.176000
  C    -36.114400  -12.946900   16.134300
  H    -36.102400  -12.598000   15.134700
  H    -36.568400  -13.896500   16.137500
  C    -34.739000  -13.170000   16.671300
  H    -34.351600  -12.227000   16.820800
  H    -34.747700  -13.527600   17.686700
  C    -33.832500  -14.065500   15.877500
  H    -32.821100  -14.043200   16.370200
  H    -34.081700  -15.132600   16.055400
  H    -33.707400  -13.854300   14.826600
  S    -40.429400   -8.911330   15.357100
  C    -40.929300   -7.241110   15.659400
  C    -40.096900   -6.664400   16.590800
  C    -39.099200   -7.527930   17.158100
  C    -39.206200   -8.785820   16.641100
  H    -40.234200   -5.627200   16.856700
  C    -38.192500   -7.081660   18.282900
  H    -38.106800   -7.936800   18.963400
  H    -38.665400   -6.330250   18.907200
  C    -36.845900   -6.503820   17.886300
  H    -36.326600   -6.201350   18.731000
  H    -37.015400   -5.694120   17.169700
  C    -35.988100   -7.557050   17.177300
  H    -36.363800   -7.838900   16.282000
  H    -35.868100   -8.432120   17.770100
  H    -34.996100   -7.166090   16.874300
  H    -36.730500  -12.591000   18.912600
  H    -41.710000   -6.680250   15.147500

 Total Charge           Charge          ....    0
 Multiplicity           Mult            ....    1
 Number of Electrons    NEL             ....  134
 Basis Dimension        Dim             ....  322

ORBITAL ENERGIES
----------------

  NO   OCC          E(Eh)            E(eV)
   0   2.0000     -88.966902     -2420.9125
   1   2.0000     -88.966297     -2420.8960
   2   2.0000     -10.331289      -281.1287
   3   2.0000     -10.327268      -281.0193
   4   2.0000     -10.319663      -280.8123
   5   2.0000     -10.315916      -280.7103
   6   2.0000     -10.302910      -280.3564
   7   2.0000     -10.301640      -280.3219
   8   2.0000     -10.293456      -280.0992
   9   2.0000     -10.288112      -279.9538
  10   2.0000     -10.287253      -279.9304
  11   2.0000     -10.282814      -279.8096
  12   2.0000     -10.282278      -279.7950
  13   2.0000     -10.277240      -279.6579
  14   2.0000     -10.275001      -279.5970
  15   2.0000     -10.256663      -279.0980
  16   2.0000      -8.081535      -219.9098
  17   2.0000      -8.080842      -219.8909
  18   2.0000      -6.040013      -164.3571
  19   2.0000      -6.039497      -164.3431
  20   2.0000      -6.035855      -164.2440
  21   2.0000      -6.035480      -164.2338
  22   2.0000      -6.032402      -164.1500
  23   2.0000      -6.031480      -164.1249
  24   2.0000      -1.008533       -27.4436
  25   2.0000      -0.985924       -26.8283
  26   2.0000      -0.922449       -25.1011
  27   2.0000      -0.911234       -24.7959
  28   2.0000      -0.868162       -23.6239
  29   2.0000      -0.852062       -23.1858
  30   2.0000      -0.846038       -23.0219
  31   2.0000      -0.815938       -22.2028
  32   2.0000      -0.787285       -21.4231
  33   2.0000      -0.777612       -21.1599
  34   2.0000      -0.711006       -19.3475
  35   2.0000      -0.703573       -19.1452
  36   2.0000      -0.691792       -18.8246
  37   2.0000      -0.661322       -17.9955
  38   2.0000      -0.642945       -17.4954
  39   2.0000      -0.618802       -16.8385
  40   2.0000      -0.597749       -16.2656
  41   2.0000      -0.576219       -15.6797
  42   2.0000      -0.569229       -15.4895
  43   2.0000      -0.554423       -15.0866
  44   2.0000      -0.546405       -14.8684
  45   2.0000      -0.526147       -14.3172
  46   2.0000      -0.518587       -14.1115
  47   2.0000      -0.511046       -13.9063
  48   2.0000      -0.509294       -13.8586
  49   2.0000      -0.495273       -13.4771
  50   2.0000      -0.492268       -13.3953
  51   2.0000      -0.475599       -12.9417
  52   2.0000      -0.472127       -12.8472
  53   2.0000      -0.467007       -12.7079
  54   2.0000      -0.462467       -12.5844
  55   2.0000      -0.452188       -12.3047
  56   2.0000      -0.444088       -12.0843
  57   2.0000      -0.436477       -11.8772
  58   2.0000      -0.431013       -11.7285
  59   2.0000      -0.425855       -11.5881
  60   2.0000      -0.421602       -11.4724
  61   2.0000      -0.414415       -11.2768
  62   2.0000      -0.413573       -11.2539
  63   2.0000      -0.344169        -9.3653
  64   2.0000      -0.332700        -9.0532
  65   2.0000      -0.328943        -8.9510
  66   2.0000      -0.301745        -8.2109
  67   0.0000       0.036138         0.9834
  68   0.0000       0.070859         1.9282
  69   0.0000       0.109043         2.9672
  70   0.0000       0.125497         3.4149
  71   0.0000       0.129163         3.5147

MULLIKEN ATOMIC CHARGES
-----------------------
   0 S :    0.115660
   1 C :   -0.159399
   2 C :   -0.112813
   3 C :    0.057540
   4 C :   -0.149981
   5 H :   -0.030237
   6 C :    0.149403
   7 H :    0.000415
   8 H :    0.022608
   9 C :   -0.061846
  10 H :    0.004077
  11 H :    0.011881
  12 C :   -0.050498
  13 H :    0.032637
  14 H :    0.030990
  15 H :    0.040532
  16 S :    0.105647
  17 C :   -0.088382
  18 C :   -0.038863
  19 C :   -0.020700
  20 C :   -0.165211
  21 H :    0.015336
  22 C :    0.058785
  23 H :    0.017265
  24 H :    0.017896
  25 C :   -0.014251
  26 H :    0.018890
  27 H :    0.024625
  28 C :   -0.010939
  29 H :    0.001121
  30 H :    0.021288
  31 H :    0.019973
  32 H :    0.076301
  33 H :    0.060248
Sum of atomic charges:    0.0000000

LOEWDIN ATOMIC CHARGES
----------------------
   0 S :    0.437765
   1 C :   -0.218607
   2 C :   -0.060664
   3 C :   -0.058302
   4 C :   -0.202187
   5 H :    0.012616
   6 C :   -0.023934
   7 H :    0.026329
   8 H :    0.028800
   9 C :   -0.042957
  10 H :    0.014082
  11 H :    0.023500
  12 C :   -0.066068
  13 H :    0.036162
  14 H :    0.029006
  15 H :    0.023423
  16 S :    0.386134
  17 C :   -0.180752
  18 C :   -0.067208
  19 C :   -0.056821
  20 C :   -0.183543
  21 H :    0.029441
  22 C :   -0.033846
  23 H :    0.019768
  24 H :    0.030098
  25 C :   -0.025197
  26 H :    0.016719
  27 H :    0.026165
  28 C :   -0.055290
  29 H :    0.007963
  30 H :    0.020334
  31 H :    0.027101
  32 H :    0.045371
  33 H :    0.034599

  Mayer bond orders larger than 0.100000
B(  0-S ,  1-C ) :   1.1499 B(  0-S ,  4-C ) :   1.1617 B(  1-C ,  2-C ) :   1.6145
B(  1-C , 32-H ) :   0.9547 B(  2-C ,  3-C ) :   1.2417 B(  2-C ,  6-C ) :   1.0185
B(  3-C ,  4-C ) :   1.5935 B(  3-C ,  5-H ) :   1.0064 B(  4-C , 20-C ) :   0.9883
B(  6-C ,  7-H ) :   0.9300 B(  6-C ,  8-H ) :   0.9298 B(  6-C ,  9-C ) :   1.0729
B(  9-C , 10-H ) :   0.9540 B(  9-C , 11-H ) :   0.9422 B(  9-C , 12-C ) :   1.0994
B( 12-C , 13-H ) :   0.9692 B( 12-C , 14-H ) :   0.9710 B( 12-C , 15-H ) :   0.9762
B( 16-S , 17-C ) :   1.1316 B( 16-S , 20-C ) :   1.1352 B( 17-C , 18-C ) :   1.6411
B( 17-C , 33-H ) :   0.9662 B( 18-C , 19-C ) :   1.2194 B( 18-C , 21-H ) :   0.9855
B( 19-C , 20-C ) :   1.6227 B( 19-C , 22-C ) :   1.0294 B( 22-C , 23-H ) :   0.9303
B( 22-C , 24-H ) :   0.9324 B( 22-C , 25-C ) :   1.0826 B( 25-C , 26-H ) :   0.9528
B( 25-C , 27-H ) :   0.9522 B( 25-C , 28-C ) :   1.0902 B( 28-C , 29-H ) :   0.9703
B( 28-C , 30-H ) :   0.9728 B( 28-C , 31-H ) :   0.9698

Dispersion correction           -0.015361621
FINAL SINGLE POINT ENERGY     -1339.877596199610

DIPOLE MOMENT
-------------
                                X             Y             Z
Electronic contribution:    -24.62954       4.54450       0.38023
Nuclear contribution   :     25.09160      -4.44899      -0.39376
                        -----------------------------------------
Total Dipole Moment    :      0.46206       0.09551      -0.01353
                        -----------------------------------------
Magnitude (a.u.)       :      0.47202
Magnitude (Debye)      :      1.19978

Rotational constants in cm-1:     0.023392     0.007683     0.006916
Rotational constants in MHz :   701.276917   230.330971   207.334435

                             ****ORCA TERMINATED NORMALLY****
TOTAL RUN TIME: 0 days 0 hours 0 minutes 20 seconds 995 msec
