                         Program Version 4.2.1 -  RELEASE  -
|  1> ! wB97X-D3 SP def2-SVP
|  2> %pal
|  3> nprocs 24
|  4> end
|  5>
|  6> * xyz 0 1
|  7> S 	 -114.602 	 14.348 	 -114.634
|  8> C 	 -113.603 	 14.9251 	 -115.946
|  9> C 	 -114.308 	 15.467 	 -117.001
| 10> C 	 -115.65 	 15.5662 	 -116.658
| 11> C 	 -115.986 	 15.0387 	 -115.402
| 12> H 	 -116.35 	 15.8577 	 -117.408
| 13> C 	 -113.697 	 15.8567 	 -118.305
| 14> H 	 -114.457 	 16.2725 	 -119.06
| 15> H 	 -113.277 	 14.9348 	 -118.767
| 16> C 	 -112.674 	 16.9743 	 -118.262
| 17> H 	 -113.108 	 17.793 	 -117.746
| 18> H 	 -111.861 	 16.7838 	 -117.557
| 19> C 	 -111.994 	 17.3643 	 -119.533
| 20> H 	 -112.567 	 17.9968 	 -120.194
| 21> H 	 -111.168 	 18.0197 	 -119.199
| 22> H 	 -111.518 	 16.6495 	 -120.146
| 23> S 	 -117.742 	 13.002 	 -115.118
| 24> C 	 -119.331 	 13.3576 	 -114.499
| 25> C 	 -119.603 	 14.6802 	 -114.28
| 26> C 	 -118.441 	 15.4493 	 -114.641
| 27> C 	 -117.365 	 14.6976 	 -114.948
| 28> H 	 -120.56 	 15.0216 	 -114.028
| 29> C 	 -118.392 	 16.9368 	 -114.49
| 30> H 	 -117.435 	 17.3353 	 -114.674
| 31> H 	 -118.632 	 17.1007 	 -113.493
| 32> C 	 -119.417 	 17.7555 	 -115.418
| 33> H 	 -119.633 	 18.7486 	 -114.954
| 34> H 	 -120.399 	 17.2759 	 -115.436
| 35> C 	 -118.935 	 17.9615 	 -116.881
| 36> H 	 -119.634 	 18.247 	 -117.599
| 37> H 	 -118.422 	 17.0272 	 -117.176
| 38> H 	 -118.263 	 18.8027 	 -116.889
| 39> H 	 -112.563 	 14.7648 	 -115.849
| 40> H 	 -120.102 	 12.6492 	 -114.356
| 41> *
| 42>
| 43>                          ****END OF INPUT****

CARTESIAN COORDINATES (ANGSTROEM)
---------------------------------
  S    -114.602000   14.348000  -114.634000
  C    -113.603000   14.925100  -115.946000
  C    -114.308000   15.467000  -117.001000
  C    -115.650000   15.566200  -116.658000
  C    -115.986000   15.038700  -115.402000
  H    -116.350000   15.857700  -117.408000
  C    -113.697000   15.856700  -118.305000
  H    -114.457000   16.272500  -119.060000
  H    -113.277000   14.934800  -118.767000
  C    -112.674000   16.974300  -118.262000
  H    -113.108000   17.793000  -117.746000
  H    -111.861000   16.783800  -117.557000
  C    -111.994000   17.364300  -119.533000
  H    -112.567000   17.996800  -120.194000
  H    -111.168000   18.019700  -119.199000
  H    -111.518000   16.649500  -120.146000
  S    -117.742000   13.002000  -115.118000
  C    -119.331000   13.357600  -114.499000
  C    -119.603000   14.680200  -114.280000
  C    -118.441000   15.449300  -114.641000
  C    -117.365000   14.697600  -114.948000
  H    -120.560000   15.021600  -114.028000
  C    -118.392000   16.936800  -114.490000
  H    -117.435000   17.335300  -114.674000
  H    -118.632000   17.100700  -113.493000
  C    -119.417000   17.755500  -115.418000
  H    -119.633000   18.748600  -114.954000
  H    -120.399000   17.275900  -115.436000
  C    -118.935000   17.961500  -116.881000
  H    -119.634000   18.247000  -117.599000
  H    -118.422000   17.027200  -117.176000
  H    -118.263000   18.802700  -116.889000
  H    -112.563000   14.764800  -115.849000
  H    -120.102000   12.649200  -114.356000

 Total Charge           Charge          ....    0
 Multiplicity           Mult            ....    1
 Number of Electrons    NEL             ....  134
 Basis Dimension        Dim             ....  322

ORBITAL ENERGIES
----------------

  NO   OCC          E(Eh)            E(eV)
   0   2.0000     -88.968451     -2420.9546
   1   2.0000     -88.962226     -2420.7853
   2   2.0000     -10.327601      -281.0283
   3   2.0000     -10.318178      -280.7719
   4   2.0000     -10.310083      -280.5516
   5   2.0000     -10.309107      -280.5251
   6   2.0000     -10.297666      -280.2137
   7   2.0000     -10.296240      -280.1749
   8   2.0000     -10.295801      -280.1630
   9   2.0000     -10.291629      -280.0495
  10   2.0000     -10.289396      -279.9887
  11   2.0000     -10.287978      -279.9501
  12   2.0000     -10.281326      -279.7691
  13   2.0000     -10.281104      -279.7631
  14   2.0000     -10.273953      -279.5685
  15   2.0000     -10.271867      -279.5117
  16   2.0000      -8.083639      -219.9670
  17   2.0000      -8.077526      -219.8007
  18   2.0000      -6.041842      -164.4069
  19   2.0000      -6.038103      -164.3051
  20   2.0000      -6.036033      -164.2488
  21   2.0000      -6.034692      -164.2123
  22   2.0000      -6.032151      -164.1432
  23   2.0000      -6.028061      -164.0319
  24   2.0000      -1.010198       -27.4889
  25   2.0000      -0.988944       -26.9105
  26   2.0000      -0.917496       -24.9663
  27   2.0000      -0.900864       -24.5138
  28   2.0000      -0.870601       -23.6903
  29   2.0000      -0.854705       -23.2577
  30   2.0000      -0.847902       -23.0726
  31   2.0000      -0.815784       -22.1986
  32   2.0000      -0.786633       -21.4054
  33   2.0000      -0.773479       -21.0474
  34   2.0000      -0.706798       -19.2330
  35   2.0000      -0.702120       -19.1057
  36   2.0000      -0.693496       -18.8710
  37   2.0000      -0.663783       -18.0624
  38   2.0000      -0.646196       -17.5839
  39   2.0000      -0.623031       -16.9535
  40   2.0000      -0.596045       -16.2192
  41   2.0000      -0.575388       -15.6571
  42   2.0000      -0.562703       -15.3119
  43   2.0000      -0.556389       -15.1401
  44   2.0000      -0.538682       -14.6583
  45   2.0000      -0.525993       -14.3130
  46   2.0000      -0.518567       -14.1109
  47   2.0000      -0.512220       -13.9382
  48   2.0000      -0.504403       -13.7255
  49   2.0000      -0.492882       -13.4120
  50   2.0000      -0.485287       -13.2053
  51   2.0000      -0.478347       -13.0165
  52   2.0000      -0.466323       -12.6893
  53   2.0000      -0.465603       -12.6697
  54   2.0000      -0.457438       -12.4475
  55   2.0000      -0.456857       -12.4317
  56   2.0000      -0.447713       -12.1829
  57   2.0000      -0.442038       -12.0285
  58   2.0000      -0.436763       -11.8849
  59   2.0000      -0.431728       -11.7479
  60   2.0000      -0.418901       -11.3989
  61   2.0000      -0.415578       -11.3084
  62   2.0000      -0.405810       -11.0427
  63   2.0000      -0.342014        -9.3067
  64   2.0000      -0.331414        -9.0182
  65   2.0000      -0.326535        -8.8855
  66   2.0000      -0.297752        -8.1022
  67   0.0000       0.039776         1.0824
  68   0.0000       0.064264         1.7487
  69   0.0000       0.114412         3.1133
  70   0.0000       0.116608         3.1731
  71   0.0000       0.134598         3.6626

MULLIKEN ATOMIC CHARGES
-----------------------
   0 S :    0.120576
   1 C :   -0.134759
   2 C :   -0.054516
   3 C :    0.051437
   4 C :   -0.168903
   5 H :   -0.000070
   6 C :    0.053774
   7 H :    0.030649
   8 H :    0.042675
   9 C :   -0.070213
  10 H :    0.015134
  11 H :    0.014342
  12 C :   -0.020930
  13 H :    0.023976
  14 H :    0.025933
  15 H :    0.023648
  16 S :    0.112313
  17 C :   -0.063059
  18 C :   -0.009970
  19 C :   -0.043639
  20 C :   -0.159145
  21 H :   -0.000360
  22 C :    0.117423
  23 H :    0.013766
  24 H :    0.015916
  25 C :   -0.112235
  26 H :    0.030127
  27 H :    0.024203
  28 C :   -0.029207
  29 H :    0.021919
  30 H :    0.038969
  31 H :    0.022934
  32 H :    0.034246
  33 H :    0.033044
Sum of atomic charges:    0.0000000

LOEWDIN ATOMIC CHARGES
----------------------
   0 S :    0.429226
   1 C :   -0.184979
   2 C :   -0.067915
   3 C :   -0.055526
   4 C :   -0.210559
   5 H :    0.026063
   6 C :   -0.037006
   7 H :    0.037598
   8 H :    0.036700
   9 C :   -0.047621
  10 H :    0.024880
  11 H :    0.022289
  12 C :   -0.064118
  13 H :    0.021412
  14 H :    0.036179
  15 H :    0.020455
  16 S :    0.403134
  17 C :   -0.170242
  18 C :   -0.060800
  19 C :   -0.056591
  20 C :   -0.202780
  21 H :    0.024280
  22 C :   -0.015540
  23 H :    0.023546
  24 H :    0.026467
  25 C :   -0.037928
  26 H :    0.024553
  27 H :    0.017733
  28 C :   -0.064445
  29 H :    0.018153
  30 H :    0.028145
  31 H :    0.023798
  32 H :    0.013405
  33 H :    0.018036

  Mayer bond orders larger than 0.100000
B(  0-S ,  1-C ) :   1.1687 B(  0-S ,  4-C ) :   1.1834 B(  1-C ,  2-C ) :   1.5477
B(  1-C ,  4-C ) :   0.1063 B(  1-C , 32-H ) :   0.9780 B(  2-C ,  3-C ) :   1.3177
B(  2-C ,  6-C ) :   1.0179 B(  3-C ,  4-C ) :   1.5156 B(  3-C ,  5-H ) :   0.9938
B(  4-C , 20-C ) :   0.9862 B(  6-C ,  7-H ) :   0.9439 B(  6-C ,  8-H ) :   0.9337
B(  6-C ,  9-C ) :   1.0642 B(  9-C , 10-H ) :   0.9461 B(  9-C , 11-H ) :   0.9557
B(  9-C , 12-C ) :   1.0899 B( 12-C , 13-H ) :   0.9732 B( 12-C , 14-H ) :   0.9700
B( 12-C , 15-H ) :   0.9737 B( 16-S , 17-C ) :   1.1478 B( 16-S , 20-C ) :   1.1267
B( 17-C , 18-C ) :   1.6516 B( 17-C , 33-H ) :   0.9662 B( 18-C , 19-C ) :   1.1872
B( 18-C , 21-H ) :   0.9995 B( 19-C , 20-C ) :   1.6737 B( 19-C , 22-C ) :   1.0506
B( 22-C , 23-H ) :   0.9401 B( 22-C , 24-H ) :   0.9317 B( 22-C , 25-C ) :   1.0537
B( 25-C , 26-H ) :   0.9616 B( 25-C , 27-H ) :   0.9645 B( 25-C , 28-C ) :   1.0636
B( 28-C , 29-H ) :   0.9728 B( 28-C , 30-H ) :   0.9771 B( 28-C , 31-H ) :   0.9761

Dispersion correction           -0.014322095
FINAL SINGLE POINT ENERGY     -1339.868720051597

DIPOLE MOMENT
-------------
                                X             Y             Z
Electronic contribution:     -3.43797     -22.89289      17.10790
Nuclear contribution   :      3.41029      23.30302     -17.47024
                        -----------------------------------------
Total Dipole Moment    :     -0.02768       0.41013      -0.36233
                        -----------------------------------------
Magnitude (a.u.)       :      0.54796
Magnitude (Debye)      :      1.39280

Rotational constants in cm-1:     0.020212     0.008151     0.006457
Rotational constants in MHz :   605.942573   244.372667   193.568744

                             ****ORCA TERMINATED NORMALLY****
TOTAL RUN TIME: 0 days 0 hours 0 minutes 21 seconds 591 msec
