                         Program Version 4.2.1 -  RELEASE  -
|  1> ! wB97X-D3 SP def2-SVP
|  2> %pal
|  3> nprocs 24
|  4> end
|  5>
|  6> * xyz 0 1
|  7> S 	 -67.5075 	 9.67924 	 -72.1228
|  8> C 	 -66.3676 	 11.0148 	 -72.2936
|  9> C 	 -66.6009 	 11.9848 	 -71.2933
| 10> C 	 -67.7698 	 11.6456 	 -70.5536
| 11> C 	 -68.4216 	 10.4706 	 -70.9308
| 12> H 	 -68.0764 	 12.2848 	 -69.8067
| 13> C 	 -65.6794 	 13.0969 	 -71.0226
| 14> H 	 -66.2239 	 14.0164 	 -70.9906
| 15> H 	 -65.249 	 13.3187 	 -71.991
| 16> C 	 -64.5897 	 12.9429 	 -69.9729
| 17> H 	 -63.9136 	 12.1214 	 -70.2209
| 18> H 	 -63.8871 	 13.8274 	 -69.8963
| 19> C 	 -65.1681 	 12.8691 	 -68.5854
| 20> H 	 -65.8166 	 11.9611 	 -68.4691
| 21> H 	 -64.3664 	 12.9827 	 -67.8181
| 22> H 	 -65.7047 	 13.7756 	 -68.4888
| 23> S 	 -69.3901 	 8.04995 	 -69.8602
| 24> C 	 -70.8969 	 7.97962 	 -69.0162
| 25> C 	 -71.5058 	 9.23064 	 -69.0727
| 26> C 	 -70.6622 	 10.2827 	 -69.659
| 27> C 	 -69.5353 	 9.77091 	 -70.2929
| 28> H 	 -72.4675 	 9.23677 	 -68.6313
| 29> C 	 -71.022 	 11.7107 	 -69.8361
| 30> H 	 -72.0633 	 11.8097 	 -70.1975
| 31> H 	 -70.4572 	 12.0996 	 -70.6843
| 32> C 	 -70.757 	 12.602 	 -68.5991
| 33> H 	 -71.0579 	 13.5902 	 -68.8001
| 34> H 	 -69.7038 	 12.7091 	 -68.344
| 35> C 	 -71.5253 	 12.1429 	 -67.4402
| 36> H 	 -71.6282 	 12.9904 	 -66.719
| 37> H 	 -71.1593 	 11.2686 	 -66.8458
| 38> H 	 -72.5895 	 12.038 	 -67.7369
| 39> H 	 -65.483 	 10.9599 	 -72.8212
| 40> H 	 -71.3528 	 7.13049 	 -68.6316
| 41> *
| 42>
| 43>                          ****END OF INPUT****

CARTESIAN COORDINATES (ANGSTROEM)
---------------------------------
  S    -67.507500    9.679240  -72.122800
  C    -66.367600   11.014800  -72.293600
  C    -66.600900   11.984800  -71.293300
  C    -67.769800   11.645600  -70.553600
  C    -68.421600   10.470600  -70.930800
  H    -68.076400   12.284800  -69.806700
  C    -65.679400   13.096900  -71.022600
  H    -66.223900   14.016400  -70.990600
  H    -65.249000   13.318700  -71.991000
  C    -64.589700   12.942900  -69.972900
  H    -63.913600   12.121400  -70.220900
  H    -63.887100   13.827400  -69.896300
  C    -65.168100   12.869100  -68.585400
  H    -65.816600   11.961100  -68.469100
  H    -64.366400   12.982700  -67.818100
  H    -65.704700   13.775600  -68.488800
  S    -69.390100    8.049950  -69.860200
  C    -70.896900    7.979620  -69.016200
  C    -71.505800    9.230640  -69.072700
  C    -70.662200   10.282700  -69.659000
  C    -69.535300    9.770910  -70.292900
  H    -72.467500    9.236770  -68.631300
  C    -71.022000   11.710700  -69.836100
  H    -72.063300   11.809700  -70.197500
  H    -70.457200   12.099600  -70.684300
  C    -70.757000   12.602000  -68.599100
  H    -71.057900   13.590200  -68.800100
  H    -69.703800   12.709100  -68.344000
  C    -71.525300   12.142900  -67.440200
  H    -71.628200   12.990400  -66.719000
  H    -71.159300   11.268600  -66.845800
  H    -72.589500   12.038000  -67.736900
  H    -65.483000   10.959900  -72.821200
  H    -71.352800    7.130490  -68.631600

 Total Charge           Charge          ....    0
 Multiplicity           Mult            ....    1
 Number of Electrons    NEL             ....  134
 Basis Dimension        Dim             ....  322

ORBITAL ENERGIES
----------------

  NO   OCC          E(Eh)            E(eV)
   0   2.0000     -88.968352     -2420.9519
   1   2.0000     -88.962000     -2420.7791
   2   2.0000     -10.331705      -281.1400
   3   2.0000     -10.330116      -281.0967
   4   2.0000     -10.314303      -280.6664
   5   2.0000     -10.312047      -280.6051
   6   2.0000     -10.306442      -280.4526
   7   2.0000     -10.302130      -280.3352
   8   2.0000     -10.296288      -280.1762
   9   2.0000     -10.290686      -280.0238
  10   2.0000     -10.290023      -280.0058
  11   2.0000     -10.287488      -279.9368
  12   2.0000     -10.286923      -279.9214
  13   2.0000     -10.279343      -279.7151
  14   2.0000     -10.277170      -279.6560
  15   2.0000     -10.276917      -279.6491
  16   2.0000      -8.083588      -219.9656
  17   2.0000      -8.076774      -219.7802
  18   2.0000      -6.041969      -164.4103
  19   2.0000      -6.037845      -164.2981
  20   2.0000      -6.035409      -164.2318
  21   2.0000      -6.034638      -164.2108
  22   2.0000      -6.031150      -164.1159
  23   2.0000      -6.027497      -164.0165
  24   2.0000      -1.009132       -27.4599
  25   2.0000      -0.983886       -26.7729
  26   2.0000      -0.922412       -25.1001
  27   2.0000      -0.916750       -24.9460
  28   2.0000      -0.873465       -23.7682
  29   2.0000      -0.856001       -23.2930
  30   2.0000      -0.842260       -22.9191
  31   2.0000      -0.820474       -22.3262
  32   2.0000      -0.787480       -21.4284
  33   2.0000      -0.772603       -21.0236
  34   2.0000      -0.709113       -19.2960
  35   2.0000      -0.702486       -19.1156
  36   2.0000      -0.695145       -18.9159
  37   2.0000      -0.661924       -18.0119
  38   2.0000      -0.643570       -17.5124
  39   2.0000      -0.627602       -17.0779
  40   2.0000      -0.594093       -16.1661
  41   2.0000      -0.579800       -15.7772
  42   2.0000      -0.560551       -15.2534
  43   2.0000      -0.558593       -15.2001
  44   2.0000      -0.551481       -15.0066
  45   2.0000      -0.544453       -14.8153
  46   2.0000      -0.519363       -14.1326
  47   2.0000      -0.511539       -13.9197
  48   2.0000      -0.506058       -13.7705
  49   2.0000      -0.499394       -13.5892
  50   2.0000      -0.492004       -13.3881
  51   2.0000      -0.489325       -13.3152
  52   2.0000      -0.476185       -12.9577
  53   2.0000      -0.461201       -12.5499
  54   2.0000      -0.460139       -12.5210
  55   2.0000      -0.444457       -12.0943
  56   2.0000      -0.438198       -11.9240
  57   2.0000      -0.434361       -11.8196
  58   2.0000      -0.427444       -11.6313
  59   2.0000      -0.425049       -11.5662
  60   2.0000      -0.418470       -11.3872
  61   2.0000      -0.415404       -11.3037
  62   2.0000      -0.405447       -11.0328
  63   2.0000      -0.352213        -9.5842
  64   2.0000      -0.332899        -9.0586
  65   2.0000      -0.325259        -8.8508
  66   2.0000      -0.290415        -7.9026
  67   0.0000       0.023035         0.6268
  68   0.0000       0.072539         1.9739
  69   0.0000       0.115197         3.1347
  70   0.0000       0.118444         3.2230
  71   0.0000       0.123499         3.3606

MULLIKEN ATOMIC CHARGES
-----------------------
   0 S :    0.111930
   1 C :   -0.077677
   2 C :   -0.140869
   3 C :    0.073496
   4 C :   -0.137066
   5 H :   -0.050651
   6 C :    0.087890
   7 H :    0.013403
   8 H :    0.004445
   9 C :   -0.052051
  10 H :    0.027845
  11 H :    0.029469
  12 C :   -0.054757
  13 H :    0.060891
  14 H :    0.035602
  15 H :    0.012642
  16 S :    0.090874
  17 C :   -0.074383
  18 C :   -0.020051
  19 C :   -0.031776
  20 C :   -0.101157
  21 H :    0.008037
  22 C :    0.011874
  23 H :    0.034344
  24 H :    0.027517
  25 C :   -0.018432
  26 H :    0.010928
  27 H :    0.032549
  28 C :   -0.081509
  29 H :    0.024017
  30 H :    0.059830
  31 H :    0.021728
  32 H :    0.023367
  33 H :    0.037701
Sum of atomic charges:    0.0000000

LOEWDIN ATOMIC CHARGES
----------------------
   0 S :    0.436357
   1 C :   -0.184024
   2 C :   -0.055155
   3 C :   -0.056808
   4 C :   -0.207327
   5 H :    0.011922
   6 C :   -0.044753
   7 H :    0.030861
   8 H :    0.035933
   9 C :   -0.040492
  10 H :    0.022281
  11 H :    0.032035
  12 C :   -0.069046
  13 H :    0.032725
  14 H :    0.030485
  15 H :    0.017993
  16 S :    0.393704
  17 C :   -0.179628
  18 C :   -0.065848
  19 C :   -0.052923
  20 C :   -0.189170
  21 H :    0.025727
  22 C :   -0.037047
  23 H :    0.034817
  24 H :    0.031191
  25 C :   -0.039854
  26 H :    0.021072
  27 H :    0.023153
  28 C :   -0.075925
  29 H :    0.028620
  30 H :    0.032352
  31 H :    0.025772
  32 H :    0.011261
  33 H :    0.019741

  Mayer bond orders larger than 0.100000
B(  0-S ,  1-C ) :   1.1574 B(  0-S ,  4-C ) :   1.1813 B(  1-C ,  2-C ) :   1.5625
B(  1-C ,  4-C ) :   0.1020 B(  1-C , 32-H ) :   0.9736 B(  2-C ,  3-C ) :   1.3049
B(  2-C ,  6-C ) :   1.0330 B(  3-C ,  4-C ) :   1.4795 B(  3-C ,  5-H ) :   1.0089
B(  4-C , 20-C ) :   1.0468 B(  6-C ,  7-H ) :   0.9292 B(  6-C ,  8-H ) :   0.9184
B(  6-C ,  9-C ) :   1.0699 B(  9-C , 10-H ) :   0.9542 B(  9-C , 11-H ) :   0.9524
B(  9-C , 12-C ) :   1.0789 B( 12-C , 13-H ) :   0.9720 B( 12-C , 14-H ) :   0.9715
B( 12-C , 15-H ) :   0.9715 B( 16-S , 17-C ) :   1.1556 B( 16-S , 20-C ) :   1.1241
B( 17-C , 18-C ) :   1.6192 B( 17-C , 33-H ) :   0.9749 B( 18-C , 19-C ) :   1.1953
B( 18-C , 21-H ) :   0.9993 B( 19-C , 20-C ) :   1.6061 B( 19-C , 22-C ) :   1.0503
B( 22-C , 23-H ) :   0.9421 B( 22-C , 24-H ) :   0.9336 B( 22-C , 25-C ) :   1.0754
B( 25-C , 26-H ) :   0.9455 B( 25-C , 27-H ) :   0.9441 B( 25-C , 28-C ) :   1.1000
B( 28-C , 29-H ) :   0.9668 B( 28-C , 30-H ) :   0.9687 B( 28-C , 31-H ) :   0.9686

Dispersion correction           -0.015041509
FINAL SINGLE POINT ENERGY     -1339.864660563480

DIPOLE MOMENT
-------------
                                X             Y             Z
Electronic contribution:     -2.54174     -23.18354     -14.08064
Nuclear contribution   :      2.55510      23.81706      14.40888
                        -----------------------------------------
Total Dipole Moment    :      0.01336       0.63351       0.32824
                        -----------------------------------------
Magnitude (a.u.)       :      0.71362
Magnitude (Debye)      :      1.81389

Rotational constants in cm-1:     0.018765     0.009537     0.007343
Rotational constants in MHz :   562.562367   285.922020   220.146753

                             ****ORCA TERMINATED NORMALLY****
TOTAL RUN TIME: 0 days 0 hours 0 minutes 22 seconds 421 msec
