                         Program Version 4.2.1 -  RELEASE  -
|  1> ! wB97X-D3 SP def2-SVP
|  2> %pal
|  3> nprocs 24
|  4> end
|  5>
|  6> * xyz 0 1
|  7> S 	 -56.0279 	 19.4789 	 24.6123
|  8> C 	 -56.6949 	 18.8199 	 26.0855
|  9> C 	 -57.5558 	 17.7489 	 25.7012
| 10> C 	 -57.6001 	 17.4981 	 24.2838
| 11> C 	 -56.7212 	 18.2851 	 23.6037
| 12> H 	 -58.1318 	 16.823 	 23.6761
| 13> C 	 -58.307 	 16.8348 	 26.6458
| 14> H 	 -59.2385 	 16.544 	 26.196
| 15> H 	 -58.5961 	 17.3766 	 27.5857
| 16> C 	 -57.5812 	 15.506 	 27.0034
| 17> H 	 -57.4297 	 15.0017 	 26.0417
| 18> H 	 -56.6112 	 15.7565 	 27.4614
| 19> C 	 -58.3793 	 14.6996 	 28.0213
| 20> H 	 -58.0215 	 13.6959 	 28.0676
| 21> H 	 -58.1822 	 15.0763 	 29.0409
| 22> H 	 -59.4738 	 14.7518 	 27.9427
| 23> S 	 -56.7137 	 19.6669 	 21.2801
| 24> C 	 -56.233 	 18.84 	 19.7465
| 25> C 	 -56.0843 	 17.4939 	 19.913
| 26> C 	 -56.3027 	 17.0837 	 21.2856
| 27> C 	 -56.4616 	 18.1705 	 22.1476
| 28> H 	 -56.0157 	 16.921 	 18.9688
| 29> C 	 -56.2329 	 15.5458 	 21.6888
| 30> H 	 -56.6757 	 14.8697 	 20.9511
| 31> H 	 -56.9149 	 15.3322 	 22.4863
| 32> C 	 -54.741 	 15.1191 	 22.1164
| 33> H 	 -53.9494 	 15.5334 	 21.5176
| 34> H 	 -54.5034 	 14.1211 	 21.8899
| 35> C 	 -54.5913 	 15.4662 	 23.597
| 36> H 	 -53.5772 	 15.3024 	 23.996
| 37> H 	 -55.2643 	 14.8073 	 24.1955
| 38> H 	 -54.7623 	 16.5355 	 23.891
| 39> H 	 -56.6088 	 19.2051 	 27.0954
| 40> H 	 -56.1239 	 19.409 	 18.8314
| 41> *
| 42>
| 43>                          ****END OF INPUT****

CARTESIAN COORDINATES (ANGSTROEM)
---------------------------------
  S    -56.027900   19.478900   24.612300
  C    -56.694900   18.819900   26.085500
  C    -57.555800   17.748900   25.701200
  C    -57.600100   17.498100   24.283800
  C    -56.721200   18.285100   23.603700
  H    -58.131800   16.823000   23.676100
  C    -58.307000   16.834800   26.645800
  H    -59.238500   16.544000   26.196000
  H    -58.596100   17.376600   27.585700
  C    -57.581200   15.506000   27.003400
  H    -57.429700   15.001700   26.041700
  H    -56.611200   15.756500   27.461400
  C    -58.379300   14.699600   28.021300
  H    -58.021500   13.695900   28.067600
  H    -58.182200   15.076300   29.040900
  H    -59.473800   14.751800   27.942700
  S    -56.713700   19.666900   21.280100
  C    -56.233000   18.840000   19.746500
  C    -56.084300   17.493900   19.913000
  C    -56.302700   17.083700   21.285600
  C    -56.461600   18.170500   22.147600
  H    -56.015700   16.921000   18.968800
  C    -56.232900   15.545800   21.688800
  H    -56.675700   14.869700   20.951100
  H    -56.914900   15.332200   22.486300
  C    -54.741000   15.119100   22.116400
  H    -53.949400   15.533400   21.517600
  H    -54.503400   14.121100   21.889900
  C    -54.591300   15.466200   23.597000
  H    -53.577200   15.302400   23.996000
  H    -55.264300   14.807300   24.195500
  H    -54.762300   16.535500   23.891000
  H    -56.608800   19.205100   27.095400
  H    -56.123900   19.409000   18.831400

 Total Charge           Charge          ....    0
 Multiplicity           Mult            ....    1
 Number of Electrons    NEL             ....  134
 Basis Dimension        Dim             ....  322

ORBITAL ENERGIES
----------------

  NO   OCC          E(Eh)            E(eV)
   0   2.0000     -88.968527     -2420.9567
   1   2.0000     -88.963445     -2420.8184
   2   2.0000     -10.331970      -281.1472
   3   2.0000     -10.325570      -280.9730
   4   2.0000     -10.319901      -280.8188
   5   2.0000     -10.319559      -280.8095
   6   2.0000     -10.316306      -280.7210
   7   2.0000     -10.308125      -280.4983
   8   2.0000     -10.301472      -280.3173
   9   2.0000     -10.300046      -280.2785
  10   2.0000     -10.290558      -280.0203
  11   2.0000     -10.288625      -279.9677
  12   2.0000     -10.287997      -279.9506
  13   2.0000     -10.284193      -279.8471
  14   2.0000     -10.278007      -279.6788
  15   2.0000     -10.275866      -279.6205
  16   2.0000      -8.083440      -219.9616
  17   2.0000      -8.077763      -219.8071
  18   2.0000      -6.041962      -164.4101
  19   2.0000      -6.037692      -164.2940
  20   2.0000      -6.036321      -164.2566
  21   2.0000      -6.034382      -164.2039
  22   2.0000      -6.032497      -164.1526
  23   2.0000      -6.028332      -164.0393
  24   2.0000      -1.007948       -27.4276
  25   2.0000      -0.980676       -26.6856
  26   2.0000      -0.909102       -24.7379
  27   2.0000      -0.894939       -24.3525
  28   2.0000      -0.869754       -23.6672
  29   2.0000      -0.850869       -23.1533
  30   2.0000      -0.838824       -22.8256
  31   2.0000      -0.815817       -22.1995
  32   2.0000      -0.776819       -21.1383
  33   2.0000      -0.767538       -20.8858
  34   2.0000      -0.708003       -19.2657
  35   2.0000      -0.698364       -19.0035
  36   2.0000      -0.695717       -18.9314
  37   2.0000      -0.659960       -17.9584
  38   2.0000      -0.646958       -17.6046
  39   2.0000      -0.616672       -16.7805
  40   2.0000      -0.593571       -16.1519
  41   2.0000      -0.570857       -15.5338
  42   2.0000      -0.559819       -15.2334
  43   2.0000      -0.546247       -14.8641
  44   2.0000      -0.529528       -14.4092
  45   2.0000      -0.521631       -14.1943
  46   2.0000      -0.519637       -14.1400
  47   2.0000      -0.512506       -13.9460
  48   2.0000      -0.503867       -13.7109
  49   2.0000      -0.495041       -13.4708
  50   2.0000      -0.491289       -13.3687
  51   2.0000      -0.473362       -12.8808
  52   2.0000      -0.468908       -12.7596
  53   2.0000      -0.463480       -12.6119
  54   2.0000      -0.458214       -12.4686
  55   2.0000      -0.444359       -12.0916
  56   2.0000      -0.443311       -12.0631
  57   2.0000      -0.432404       -11.7663
  58   2.0000      -0.430803       -11.7228
  59   2.0000      -0.425080       -11.5670
  60   2.0000      -0.420200       -11.4342
  61   2.0000      -0.414603       -11.2819
  62   2.0000      -0.409108       -11.1324
  63   2.0000      -0.347818        -9.4646
  64   2.0000      -0.330310        -8.9882
  65   2.0000      -0.326784        -8.8922
  66   2.0000      -0.295014        -8.0277
  67   0.0000       0.029419         0.8005
  68   0.0000       0.070830         1.9274
  69   0.0000       0.099132         2.6975
  70   0.0000       0.123329         3.3560
  71   0.0000       0.127720         3.4754

MULLIKEN ATOMIC CHARGES
-----------------------
   0 S :    0.122100
   1 C :   -0.112122
   2 C :   -0.082807
   3 C :    0.051869
   4 C :   -0.165704
   5 H :   -0.003024
   6 C :    0.032967
   7 H :    0.016155
   8 H :    0.022476
   9 C :   -0.070123
  10 H :    0.033200
  11 H :    0.033175
  12 C :   -0.034637
  13 H :    0.030817
  14 H :    0.025155
  15 H :    0.032845
  16 S :    0.085159
  17 C :   -0.103879
  18 C :   -0.028991
  19 C :   -0.033899
  20 C :   -0.143494
  21 H :    0.041380
  22 C :    0.061615
  23 H :    0.022830
  24 H :    0.000747
  25 C :   -0.009599
  26 H :    0.020440
  27 H :    0.007610
  28 C :   -0.080200
  29 H :    0.024523
  30 H :    0.032938
  31 H :    0.055581
  32 H :    0.055408
  33 H :    0.059491
Sum of atomic charges:   -0.0000000

LOEWDIN ATOMIC CHARGES
----------------------
   0 S :    0.429405
   1 C :   -0.209562
   2 C :   -0.053476
   3 C :   -0.062184
   4 C :   -0.211188
   5 H :    0.025490
   6 C :   -0.038263
   7 H :    0.024918
   8 H :    0.028626
   9 C :   -0.036603
  10 H :    0.021962
  11 H :    0.027335
  12 C :   -0.069286
  13 H :    0.024254
  14 H :    0.029026
  15 H :    0.025672
  16 S :    0.376859
  17 C :   -0.162690
  18 C :   -0.073846
  19 C :   -0.051418
  20 C :   -0.191980
  21 H :    0.044594
  22 C :   -0.025319
  23 H :    0.030322
  24 H :    0.020675
  25 C :   -0.035709
  26 H :    0.025066
  27 H :    0.017058
  28 C :   -0.072719
  29 H :    0.022997
  30 H :    0.024585
  31 H :    0.034279
  32 H :    0.034240
  33 H :    0.026881

  Mayer bond orders larger than 0.100000
B(  0-S ,  1-C ) :   1.1347 B(  0-S ,  4-C ) :   1.1699 B(  1-C ,  2-C ) :   1.5732
B(  1-C ,  4-C ) :   0.1009 B(  1-C , 32-H ) :   0.9763 B(  2-C ,  3-C ) :   1.2269
B(  2-C ,  6-C ) :   1.0436 B(  3-C ,  4-C ) :   1.5667 B(  3-C ,  5-H ) :   1.0039
B(  4-C , 20-C ) :   1.0026 B(  6-C ,  7-H ) :   0.9367 B(  6-C ,  8-H ) :   0.9446
B(  6-C ,  9-C ) :   1.0595 B(  9-C , 10-H ) :   0.9564 B(  9-C , 11-H ) :   0.9564
B(  9-C , 12-C ) :   1.0783 B( 12-C , 13-H ) :   0.9724 B( 12-C , 14-H ) :   0.9728
B( 12-C , 15-H ) :   0.9752 B( 16-S , 17-C ) :   1.1272 B( 16-S , 20-C ) :   1.1511
B( 17-C , 18-C ) :   1.6568 B( 17-C , 33-H ) :   0.9682 B( 18-C , 19-C ) :   1.1991
B( 18-C , 21-H ) :   0.9841 B( 19-C , 20-C ) :   1.6285 B( 19-C , 22-C ) :   1.0350
B( 22-C , 23-H ) :   0.9431 B( 22-C , 24-H ) :   0.9442 B( 22-C , 25-C ) :   1.0429
B( 25-C , 26-H ) :   0.9588 B( 25-C , 27-H ) :   0.9543 B( 25-C , 28-C ) :   1.0745
B( 28-C , 29-H ) :   0.9704 B( 28-C , 30-H ) :   0.9751 B( 28-C , 31-H ) :   0.9736

Dispersion correction           -0.015752027
FINAL SINGLE POINT ENERGY     -1339.867329119873

DIPOLE MOMENT
-------------
                                X             Y             Z
Electronic contribution:      1.08113      26.33756     -14.75827
Nuclear contribution   :     -1.23858     -27.00276      14.78021
                        -----------------------------------------
Total Dipole Moment    :     -0.15745      -0.66520       0.02194
                        -----------------------------------------
Magnitude (a.u.)       :      0.68393
Magnitude (Debye)      :      1.73841

Rotational constants in cm-1:     0.020938     0.008998     0.007190
Rotational constants in MHz :   627.708925   269.743529   215.564563

                             ****ORCA TERMINATED NORMALLY****
TOTAL RUN TIME: 0 days 0 hours 0 minutes 21 seconds 595 msec
