                         Program Version 4.2.1 -  RELEASE  -
|  1> ! wB97X-D3 SP def2-SVP
|  2> %pal
|  3> nprocs 24
|  4> end
|  5>
|  6> * xyz 0 1
|  7> S 	 -132.429 	 10.8063 	 -6.89665
|  8> C 	 -130.762 	 10.6118 	 -6.32259
|  9> C 	 -129.892 	 10.5919 	 -7.37148
| 10> C 	 -130.57 	 10.6737 	 -8.6612
| 11> C 	 -131.94 	 10.7015 	 -8.54389
| 12> H 	 -130.134 	 10.653 	 -9.64844
| 13> C 	 -128.381 	 10.4045 	 -7.3335
| 14> H 	 -128.188 	 9.3171 	 -7.34474
| 15> H 	 -127.996 	 10.767 	 -6.38364
| 16> C 	 -127.525 	 10.8873 	 -8.48943
| 17> H 	 -126.483 	 10.6271 	 -8.21135
| 18> H 	 -127.772 	 10.3323 	 -9.38135
| 19> C 	 -127.391 	 12.3763 	 -8.71799
| 20> H 	 -126.947 	 12.7976 	 -7.84045
| 21> H 	 -126.712 	 12.6018 	 -9.62301
| 22> H 	 -128.337 	 12.9397 	 -8.8674
| 23> S 	 -133.653 	 12.3656 	 -9.61779
| 24> C 	 -134.371 	 12.0147 	 -11.1743
| 25> C 	 -134.031 	 10.7633 	 -11.6917
| 26> C 	 -133.061 	 10.1628 	 -10.8151
| 27> C 	 -132.827 	 10.881 	 -9.65293
| 28> H 	 -134.35 	 10.3431 	 -12.6754
| 29> C 	 -132.373 	 8.84617 	 -11.2127
| 30> H 	 -133.098 	 8.27627 	 -11.7928
| 31> H 	 -132.19 	 8.3687 	 -10.2755
| 32> C 	 -131.2 	 8.92126 	 -12.1567
| 33> H 	 -130.686 	 9.76107 	 -11.8651
| 34> H 	 -131.636 	 9.08821 	 -13.1286
| 35> C 	 -130.317 	 7.69932 	 -12.0543
| 36> H 	 -129.942 	 7.69964 	 -10.9964
| 37> H 	 -129.524 	 7.78336 	 -12.7402
| 38> H 	 -130.856 	 6.77286 	 -12.1942
| 39> H 	 -130.49 	 10.4453 	 -5.34348
| 40> H 	 -134.923 	 12.74 	 -11.6752
| 41> *
| 42>
| 43>                          ****END OF INPUT****

CARTESIAN COORDINATES (ANGSTROEM)
---------------------------------
  S    -132.429000   10.806300   -6.896650
  C    -130.762000   10.611800   -6.322590
  C    -129.892000   10.591900   -7.371480
  C    -130.570000   10.673700   -8.661200
  C    -131.940000   10.701500   -8.543890
  H    -130.134000   10.653000   -9.648440
  C    -128.381000   10.404500   -7.333500
  H    -128.188000    9.317100   -7.344740
  H    -127.996000   10.767000   -6.383640
  C    -127.525000   10.887300   -8.489430
  H    -126.483000   10.627100   -8.211350
  H    -127.772000   10.332300   -9.381350
  C    -127.391000   12.376300   -8.717990
  H    -126.947000   12.797600   -7.840450
  H    -126.712000   12.601800   -9.623010
  H    -128.337000   12.939700   -8.867400
  S    -133.653000   12.365600   -9.617790
  C    -134.371000   12.014700  -11.174300
  C    -134.031000   10.763300  -11.691700
  C    -133.061000   10.162800  -10.815100
  C    -132.827000   10.881000   -9.652930
  H    -134.350000   10.343100  -12.675400
  C    -132.373000    8.846170  -11.212700
  H    -133.098000    8.276270  -11.792800
  H    -132.190000    8.368700  -10.275500
  C    -131.200000    8.921260  -12.156700
  H    -130.686000    9.761070  -11.865100
  H    -131.636000    9.088210  -13.128600
  C    -130.317000    7.699320  -12.054300
  H    -129.942000    7.699640  -10.996400
  H    -129.524000    7.783360  -12.740200
  H    -130.856000    6.772860  -12.194200
  H    -130.490000   10.445300   -5.343480
  H    -134.923000   12.740000  -11.675200

 Total Charge           Charge          ....    0
 Multiplicity           Mult            ....    1
 Number of Electrons    NEL             ....  134
 Basis Dimension        Dim             ....  322

ORBITAL ENERGIES
----------------

  NO   OCC          E(Eh)            E(eV)
   0   2.0000     -88.965396     -2420.8715
   1   2.0000     -88.964886     -2420.8576
   2   2.0000     -10.323909      -280.9278
   3   2.0000     -10.317766      -280.7607
   4   2.0000     -10.313873      -280.6548
   5   2.0000     -10.308973      -280.5214
   6   2.0000     -10.303395      -280.3696
   7   2.0000     -10.301495      -280.3179
   8   2.0000     -10.300720      -280.2968
   9   2.0000     -10.294209      -280.1197
  10   2.0000     -10.291570      -280.0479
  11   2.0000     -10.288278      -279.9583
  12   2.0000     -10.281827      -279.7827
  13   2.0000     -10.280548      -279.7479
  14   2.0000     -10.276646      -279.6418
  15   2.0000     -10.274224      -279.5759
  16   2.0000      -8.080868      -219.8916
  17   2.0000      -8.080352      -219.8776
  18   2.0000      -6.039196      -164.3349
  19   2.0000      -6.038989      -164.3292
  20   2.0000      -6.035231      -164.2270
  21   2.0000      -6.034851      -164.2166
  22   2.0000      -6.031703      -164.1310
  23   2.0000      -6.030936      -164.1101
  24   2.0000      -1.013360       -27.5749
  25   2.0000      -0.984845       -26.7990
  26   2.0000      -0.918279       -24.9876
  27   2.0000      -0.914718       -24.8907
  28   2.0000      -0.875806       -23.8319
  29   2.0000      -0.853629       -23.2284
  30   2.0000      -0.843925       -22.9644
  31   2.0000      -0.815062       -22.1790
  32   2.0000      -0.785215       -21.3668
  33   2.0000      -0.775431       -21.1005
  34   2.0000      -0.708463       -19.2783
  35   2.0000      -0.698520       -19.0077
  36   2.0000      -0.694687       -18.9034
  37   2.0000      -0.668068       -18.1791
  38   2.0000      -0.642824       -17.4921
  39   2.0000      -0.620892       -16.8953
  40   2.0000      -0.596031       -16.2188
  41   2.0000      -0.579032       -15.7563
  42   2.0000      -0.566241       -15.4082
  43   2.0000      -0.552638       -15.0381
  44   2.0000      -0.537041       -14.6136
  45   2.0000      -0.529219       -14.4008
  46   2.0000      -0.524068       -14.2606
  47   2.0000      -0.519345       -14.1321
  48   2.0000      -0.504513       -13.7285
  49   2.0000      -0.501342       -13.6422
  50   2.0000      -0.491495       -13.3743
  51   2.0000      -0.482322       -13.1247
  52   2.0000      -0.478272       -13.0145
  53   2.0000      -0.464096       -12.6287
  54   2.0000      -0.459659       -12.5079
  55   2.0000      -0.451110       -12.2753
  56   2.0000      -0.439159       -11.9501
  57   2.0000      -0.438247       -11.9253
  58   2.0000      -0.434453       -11.8221
  59   2.0000      -0.427952       -11.6452
  60   2.0000      -0.419737       -11.4216
  61   2.0000      -0.418292       -11.3823
  62   2.0000      -0.411066       -11.1857
  63   2.0000      -0.346928        -9.4404
  64   2.0000      -0.329772        -8.9736
  65   2.0000      -0.326660        -8.8889
  66   2.0000      -0.294852        -8.0233
  67   0.0000       0.039481         1.0743
  68   0.0000       0.065753         1.7892
  69   0.0000       0.111158         3.0248
  70   0.0000       0.119911         3.2629
  71   0.0000       0.125938         3.4269

MULLIKEN ATOMIC CHARGES
-----------------------
   0 S :    0.109287
   1 C :   -0.102366
   2 C :   -0.055315
   3 C :    0.017639
   4 C :   -0.148088
   5 H :    0.006374
   6 C :    0.072601
   7 H :    0.045987
   8 H :    0.013776
   9 C :   -0.088161
  10 H :    0.030626
  11 H :    0.029293
  12 C :   -0.063177
  13 H :    0.021308
  14 H :    0.046173
  15 H :    0.041563
  16 S :    0.119278
  17 C :   -0.079763
  18 C :   -0.027075
  19 C :   -0.069029
  20 C :   -0.161852
  21 H :    0.037917
  22 C :    0.047624
  23 H :    0.011546
  24 H :    0.023893
  25 C :   -0.013025
  26 H :    0.001487
  27 H :    0.015796
  28 C :   -0.020498
  29 H :    0.031833
  30 H :    0.028661
  31 H :    0.028828
  32 H :    0.012868
  33 H :    0.033989
Sum of atomic charges:   -0.0000000

LOEWDIN ATOMIC CHARGES
----------------------
   0 S :    0.403504
   1 C :   -0.180783
   2 C :   -0.055526
   3 C :   -0.066030
   4 C :   -0.205629
   5 H :    0.027921
   6 C :   -0.033642
   7 H :    0.042916
   8 H :    0.026074
   9 C :   -0.048570
  10 H :    0.034940
  11 H :    0.019082
  12 C :   -0.073065
  13 H :    0.020392
  14 H :    0.036914
  15 H :    0.025737
  16 S :    0.434924
  17 C :   -0.173596
  18 C :   -0.069369
  19 C :   -0.054966
  20 C :   -0.220590
  21 H :    0.041555
  22 C :   -0.028992
  23 H :    0.028357
  24 H :    0.024488
  25 C :   -0.033079
  26 H :    0.008107
  27 H :    0.021233
  28 C :   -0.052603
  29 H :    0.032675
  30 H :    0.019378
  31 H :    0.023975
  32 H :    0.013219
  33 H :    0.011049

  Mayer bond orders larger than 0.100000
B(  0-S ,  1-C ) :   1.1106 B(  0-S ,  4-C ) :   1.1535 B(  1-C ,  2-C ) :   1.6438
B(  1-C , 32-H ) :   0.9838 B(  2-C ,  3-C ) :   1.2045 B(  2-C ,  6-C ) :   1.0130
B(  3-C ,  4-C ) :   1.5912 B(  3-C ,  5-H ) :   0.9927 B(  4-C , 20-C ) :   1.0179
B(  6-C ,  7-H ) :   0.9305 B(  6-C ,  8-H ) :   0.9405 B(  6-C ,  9-C ) :   1.0961
B(  9-C , 10-H ) :   0.9502 B(  9-C , 11-H ) :   0.9461 B(  9-C , 12-C ) :   1.0771
B( 12-C , 13-H ) :   0.9724 B( 12-C , 14-H ) :   0.9734 B( 12-C , 15-H ) :   0.9762
B( 16-S , 17-C ) :   1.1715 B( 16-S , 20-C ) :   1.1558 B( 17-C , 18-C ) :   1.5863
B( 17-C , 33-H ) :   0.9769 B( 18-C , 19-C ) :   1.2476 B( 18-C , 21-H ) :   0.9840
B( 19-C , 20-C ) :   1.6063 B( 19-C , 22-C ) :   1.0497 B( 22-C , 23-H ) :   0.9321
B( 22-C , 24-H ) :   0.9393 B( 22-C , 25-C ) :   1.0573 B( 25-C , 26-H ) :   0.9539
B( 25-C , 27-H ) :   0.9468 B( 25-C , 28-C ) :   1.0900 B( 28-C , 29-H ) :   0.9737
B( 28-C , 30-H ) :   0.9733 B( 28-C , 31-H ) :   0.9740

Dispersion correction           -0.014735383
FINAL SINGLE POINT ENERGY     -1339.875143907665

DIPOLE MOMENT
-------------
                                X             Y             Z
Electronic contribution:    -24.29043      10.00346      11.89887
Nuclear contribution   :     24.86861     -10.25038     -12.28325
                        -----------------------------------------
Total Dipole Moment    :      0.57819      -0.24692      -0.38438
                        -----------------------------------------
Magnitude (a.u.)       :      0.73690
Magnitude (Debye)      :      1.87304

Rotational constants in cm-1:     0.016058     0.010286     0.007780
Rotational constants in MHz :   481.421654   308.352687   233.229343

                             ****ORCA TERMINATED NORMALLY****
TOTAL RUN TIME: 0 days 0 hours 0 minutes 22 seconds 487 msec
