                         Program Version 4.2.1 -  RELEASE  -
|  1> ! wB97X-D3 SP def2-SVP
|  2> %pal
|  3> nprocs 24
|  4> end
|  5>
|  6> * xyz 0 1
|  7> S 	 -84.9013 	 2.45951 	 7.72615
|  8> C 	 -83.6208 	 1.49666 	 6.96659
|  9> C 	 -84.0286 	 1.08561 	 5.69446
| 10> C 	 -85.3778 	 1.34909 	 5.43643
| 11> C 	 -85.9853 	 2.04112 	 6.48072
| 12> H 	 -85.941 	 0.999202 	 4.56466
| 13> C 	 -83.1817 	 0.303178 	 4.77025
| 14> H 	 -83.6784 	 -0.707106 	 4.75267
| 15> H 	 -82.2094 	 0.412311 	 5.27167
| 16> C 	 -82.9979 	 0.903866 	 3.32708
| 17> H 	 -82.3401 	 0.305676 	 2.68504
| 18> H 	 -83.8858 	 0.839032 	 2.72372
| 19> C 	 -82.4125 	 2.32686 	 3.35236
| 20> H 	 -82.8968 	 2.89686 	 4.11812
| 21> H 	 -81.3398 	 2.431 	 3.60609
| 22> H 	 -82.4274 	 2.86827 	 2.38633
| 23> S 	 -87.785 	 4.17187 	 6.58834
| 24> C 	 -89.4811 	 3.95711 	 6.91586
| 25> C 	 -89.7155 	 2.63238 	 7.14455
| 26> C 	 -88.5466 	 1.78573 	 7.00713
| 27> C 	 -87.381 	 2.47244 	 6.61781
| 28> H 	 -90.6802 	 2.379 	 7.45888
| 29> C 	 -88.5639 	 0.296098 	 7.22809
| 30> H 	 -89.2727 	 0.0783478 	 8.05137
| 31> H 	 -87.5822 	 -0.0652529 	 7.41503
| 32> C 	 -89.0556 	 -0.546781 	 5.98824
| 33> H 	 -88.2912 	 -0.38799 	 5.23114
| 34> H 	 -90.0232 	 -0.247947 	 5.58443
| 35> C 	 -89.1626 	 -2.00601 	 6.30217
| 36> H 	 -89.9238 	 -2.18011 	 6.98477
| 37> H 	 -88.2496 	 -2.38466 	 6.74595
| 38> H 	 -89.2674 	 -2.5849 	 5.36173
| 39> H 	 -82.6468 	 1.338 	 7.39432
| 40> H 	 -90.1716 	 4.70769 	 7.05672
| 41> *
| 42>
| 43>                          ****END OF INPUT****

CARTESIAN COORDINATES (ANGSTROEM)
---------------------------------
  S    -84.901300    2.459510    7.726150
  C    -83.620800    1.496660    6.966590
  C    -84.028600    1.085610    5.694460
  C    -85.377800    1.349090    5.436430
  C    -85.985300    2.041120    6.480720
  H    -85.941000    0.999202    4.564660
  C    -83.181700    0.303178    4.770250
  H    -83.678400   -0.707106    4.752670
  H    -82.209400    0.412311    5.271670
  C    -82.997900    0.903866    3.327080
  H    -82.340100    0.305676    2.685040
  H    -83.885800    0.839032    2.723720
  C    -82.412500    2.326860    3.352360
  H    -82.896800    2.896860    4.118120
  H    -81.339800    2.431000    3.606090
  H    -82.427400    2.868270    2.386330
  S    -87.785000    4.171870    6.588340
  C    -89.481100    3.957110    6.915860
  C    -89.715500    2.632380    7.144550
  C    -88.546600    1.785730    7.007130
  C    -87.381000    2.472440    6.617810
  H    -90.680200    2.379000    7.458880
  C    -88.563900    0.296098    7.228090
  H    -89.272700    0.078348    8.051370
  H    -87.582200   -0.065253    7.415030
  C    -89.055600   -0.546781    5.988240
  H    -88.291200   -0.387990    5.231140
  H    -90.023200   -0.247947    5.584430
  C    -89.162600   -2.006010    6.302170
  H    -89.923800   -2.180110    6.984770
  H    -88.249600   -2.384660    6.745950
  H    -89.267400   -2.584900    5.361730
  H    -82.646800    1.338000    7.394320
  H    -90.171600    4.707690    7.056720

 Total Charge           Charge          ....    0
 Multiplicity           Mult            ....    1
 Number of Electrons    NEL             ....  134
 Basis Dimension        Dim             ....  322

ORBITAL ENERGIES
----------------

  NO   OCC          E(Eh)            E(eV)
   0   2.0000     -88.969514     -2420.9836
   1   2.0000     -88.959620     -2420.7143
   2   2.0000     -10.330590      -281.1097
   3   2.0000     -10.326318      -280.9934
   4   2.0000     -10.316666      -280.7307
   5   2.0000     -10.311059      -280.5782
   6   2.0000     -10.305334      -280.4224
   7   2.0000     -10.298978      -280.2494
   8   2.0000     -10.298723      -280.2425
   9   2.0000     -10.295029      -280.1420
  10   2.0000     -10.291706      -280.0515
  11   2.0000     -10.289911      -280.0027
  12   2.0000     -10.287934      -279.9489
  13   2.0000     -10.281538      -279.7749
  14   2.0000     -10.276101      -279.6269
  15   2.0000     -10.268926      -279.4317
  16   2.0000      -8.084623      -219.9938
  17   2.0000      -8.074750      -219.7251
  18   2.0000      -6.042966      -164.4375
  19   2.0000      -6.039053      -164.3310
  20   2.0000      -6.035537      -164.2353
  21   2.0000      -6.033313      -164.1748
  22   2.0000      -6.029006      -164.0576
  23   2.0000      -6.025610      -163.9652
  24   2.0000      -1.010161       -27.4879
  25   2.0000      -0.986677       -26.8489
  26   2.0000      -0.914964       -24.8974
  27   2.0000      -0.907527       -24.6951
  28   2.0000      -0.868944       -23.6452
  29   2.0000      -0.850949       -23.1555
  30   2.0000      -0.847022       -23.0486
  31   2.0000      -0.819899       -22.3106
  32   2.0000      -0.781256       -21.2591
  33   2.0000      -0.767795       -20.8928
  34   2.0000      -0.715570       -19.4717
  35   2.0000      -0.700242       -19.0545
  36   2.0000      -0.693608       -18.8740
  37   2.0000      -0.660399       -17.9704
  38   2.0000      -0.640725       -17.4350
  39   2.0000      -0.624098       -16.9826
  40   2.0000      -0.596191       -16.2232
  41   2.0000      -0.572648       -15.5826
  42   2.0000      -0.564121       -15.3505
  43   2.0000      -0.562982       -15.3195
  44   2.0000      -0.539500       -14.6805
  45   2.0000      -0.523980       -14.2582
  46   2.0000      -0.520701       -14.1690
  47   2.0000      -0.513816       -13.9816
  48   2.0000      -0.508959       -13.8495
  49   2.0000      -0.500342       -13.6150
  50   2.0000      -0.487740       -13.2721
  51   2.0000      -0.478847       -13.0301
  52   2.0000      -0.468870       -12.7586
  53   2.0000      -0.466891       -12.7048
  54   2.0000      -0.455920       -12.4062
  55   2.0000      -0.450076       -12.2472
  56   2.0000      -0.447839       -12.1863
  57   2.0000      -0.443251       -12.0615
  58   2.0000      -0.428626       -11.6635
  59   2.0000      -0.426649       -11.6097
  60   2.0000      -0.423528       -11.5248
  61   2.0000      -0.411900       -11.2084
  62   2.0000      -0.407176       -11.0798
  63   2.0000      -0.336957        -9.1691
  64   2.0000      -0.333869        -9.0850
  65   2.0000      -0.321588        -8.7509
  66   2.0000      -0.303173        -8.2498
  67   0.0000       0.039359         1.0710
  68   0.0000       0.057516         1.5651
  69   0.0000       0.113792         3.0964
  70   0.0000       0.121825         3.3150
  71   0.0000       0.128207         3.4887

MULLIKEN ATOMIC CHARGES
-----------------------
   0 S :    0.136206
   1 C :   -0.130560
   2 C :   -0.113757
   3 C :    0.040675
   4 C :   -0.175622
   5 H :    0.023323
   6 C :    0.068533
   7 H :    0.059481
   8 H :    0.018527
   9 C :   -0.047011
  10 H :    0.026306
  11 H :    0.022318
  12 C :   -0.080453
  13 H :    0.040533
  14 H :    0.026444
  15 H :    0.038530
  16 S :    0.092329
  17 C :   -0.057349
  18 C :   -0.011338
  19 C :   -0.019292
  20 C :   -0.163332
  21 H :   -0.005056
  22 C :    0.069604
  23 H :    0.022714
  24 H :    0.021307
  25 C :   -0.081345
  26 H :    0.016086
  27 H :    0.025926
  28 C :   -0.006863
  29 H :    0.017470
  30 H :    0.013310
  31 H :    0.036783
  32 H :    0.045460
  33 H :    0.030114
Sum of atomic charges:    0.0000000

LOEWDIN ATOMIC CHARGES
----------------------
   0 S :    0.432525
   1 C :   -0.197122
   2 C :   -0.070893
   3 C :   -0.062750
   4 C :   -0.205831
   5 H :    0.036626
   6 C :   -0.032222
   7 H :    0.045451
   8 H :    0.033855
   9 C :   -0.042711
  10 H :    0.026855
  11 H :    0.020184
  12 C :   -0.073930
  13 H :    0.022964
  14 H :    0.027201
  15 H :    0.031458
  16 S :    0.405679
  17 C :   -0.170583
  18 C :   -0.066972
  19 C :   -0.051237
  20 C :   -0.213726
  21 H :    0.022054
  22 C :   -0.027440
  23 H :    0.030956
  24 H :    0.025799
  25 C :   -0.035780
  26 H :    0.018419
  27 H :    0.021145
  28 C :   -0.060490
  29 H :    0.014416
  30 H :    0.021691
  31 H :    0.032679
  32 H :    0.024661
  33 H :    0.017065

  Mayer bond orders larger than 0.100000
B(  0-S ,  1-C ) :   1.1421 B(  0-S ,  4-C ) :   1.1904 B(  1-C ,  2-C ) :   1.5776
B(  1-C ,  4-C ) :   0.1050 B(  1-C , 32-H ) :   0.9702 B(  2-C ,  3-C ) :   1.2450
B(  2-C ,  6-C ) :   1.0213 B(  3-C ,  4-C ) :   1.5549 B(  3-C ,  5-H ) :   0.9967
B(  4-C , 20-C ) :   1.0099 B(  6-C ,  7-H ) :   0.9390 B(  6-C ,  8-H ) :   0.9381
B(  6-C ,  9-C ) :   1.0675 B(  9-C , 10-H ) :   0.9574 B(  9-C , 11-H ) :   0.9560
B(  9-C , 12-C ) :   1.0629 B( 12-C , 13-H ) :   0.9790 B( 12-C , 14-H ) :   0.9737
B( 12-C , 15-H ) :   0.9739 B( 16-S , 17-C ) :   1.1610 B( 16-S , 20-C ) :   1.1445
B( 17-C , 18-C ) :   1.6014 B( 17-C , 33-H ) :   0.9777 B( 18-C , 19-C ) :   1.2347
B( 18-C , 21-H ) :   1.0028 B( 19-C , 20-C ) :   1.5748 B( 19-C , 22-C ) :   1.0683
B( 22-C , 23-H ) :   0.9351 B( 22-C , 24-H ) :   0.9259 B( 22-C , 25-C ) :   1.0642
B( 25-C , 26-H ) :   0.9527 B( 25-C , 27-H ) :   0.9575 B( 25-C , 28-C ) :   1.0941
B( 28-C , 29-H ) :   0.9742 B( 28-C , 30-H ) :   0.9686 B( 28-C , 31-H ) :   0.9704

Dispersion correction           -0.014431470
FINAL SINGLE POINT ENERGY     -1339.878337895284

DIPOLE MOMENT
-------------
                                X             Y             Z
Electronic contribution:     -3.53818      19.29582      13.48760
Nuclear contribution   :      3.48587     -19.77655     -13.66664
                        -----------------------------------------
Total Dipole Moment    :     -0.05230      -0.48073      -0.17904
                        -----------------------------------------
Magnitude (a.u.)       :      0.51565
Magnitude (Debye)      :      1.31067

Rotational constants in cm-1:     0.017946     0.008817     0.007126
Rotational constants in MHz :   537.996909   264.338217   213.619070

                             ****ORCA TERMINATED NORMALLY****
TOTAL RUN TIME: 0 days 0 hours 0 minutes 21 seconds 831 msec
