                         Program Version 4.2.1 -  RELEASE  -
|  1> ! wB97X-D3 SP def2-SVP
|  2> %pal
|  3> nprocs 24
|  4> end
|  5>
|  6> * xyz 0 1
|  7> S 	 -125.139 	 27.9121 	 -17.3573
|  8> C 	 -124.422 	 29.1773 	 -18.3519
|  9> C 	 -125.227 	 29.454 	 -19.4202
| 10> C 	 -126.38 	 28.6048 	 -19.51
| 11> C 	 -126.509 	 27.7946 	 -18.4466
| 12> H 	 -127.106 	 28.7587 	 -20.2661
| 13> C 	 -124.896 	 30.6523 	 -20.4152
| 14> H 	 -125.136 	 30.4804 	 -21.4649
| 15> H 	 -123.75 	 30.8723 	 -20.3187
| 16> C 	 -125.519 	 31.9763 	 -20.0295
| 17> H 	 -125.322 	 32.8496 	 -20.7152
| 18> H 	 -126.599 	 31.8213 	 -19.8536
| 19> C 	 -125.09 	 32.53 	 -18.6781
| 20> H 	 -125.373 	 33.6065 	 -18.5428
| 21> H 	 -125.557 	 31.811 	 -18.0312
| 22> H 	 -124.08 	 32.4521 	 -18.4975
| 23> S 	 -127.304 	 25.3616 	 -17.5217
| 24> C 	 -129.097 	 25.0532 	 -17.4578
| 25> C 	 -129.812 	 26.1286 	 -17.9586
| 26> C 	 -129.011 	 27.1822 	 -18.3061
| 27> C 	 -127.641 	 26.9644 	 -18.1202
| 28> H 	 -130.881 	 26.1497 	 -17.956
| 29> C 	 -129.657 	 28.4588 	 -18.7707
| 30> H 	 -128.842 	 29.2152 	 -18.6527
| 31> H 	 -130.37 	 28.6876 	 -18.0336
| 32> C 	 -130.355 	 28.5033 	 -20.1642
| 33> H 	 -131.058 	 27.7085 	 -20.3815
| 34> H 	 -129.682 	 28.3638 	 -21.0158
| 35> C 	 -131.105 	 29.8408 	 -20.3843
| 36> H 	 -131.784 	 30.1771 	 -19.5904
| 37> H 	 -131.742 	 29.6828 	 -21.2431
| 38> H 	 -130.449 	 30.7613 	 -20.506
| 39> H 	 -123.551 	 29.7189 	 -18.0056
| 40> H 	 -129.585 	 24.179 	 -16.9651
| 41> *
| 42>
| 43>                          ****END OF INPUT****

CARTESIAN COORDINATES (ANGSTROEM)
---------------------------------
  S    -125.139000   27.912100  -17.357300
  C    -124.422000   29.177300  -18.351900
  C    -125.227000   29.454000  -19.420200
  C    -126.380000   28.604800  -19.510000
  C    -126.509000   27.794600  -18.446600
  H    -127.106000   28.758700  -20.266100
  C    -124.896000   30.652300  -20.415200
  H    -125.136000   30.480400  -21.464900
  H    -123.750000   30.872300  -20.318700
  C    -125.519000   31.976300  -20.029500
  H    -125.322000   32.849600  -20.715200
  H    -126.599000   31.821300  -19.853600
  C    -125.090000   32.530000  -18.678100
  H    -125.373000   33.606500  -18.542800
  H    -125.557000   31.811000  -18.031200
  H    -124.080000   32.452100  -18.497500
  S    -127.304000   25.361600  -17.521700
  C    -129.097000   25.053200  -17.457800
  C    -129.812000   26.128600  -17.958600
  C    -129.011000   27.182200  -18.306100
  C    -127.641000   26.964400  -18.120200
  H    -130.881000   26.149700  -17.956000
  C    -129.657000   28.458800  -18.770700
  H    -128.842000   29.215200  -18.652700
  H    -130.370000   28.687600  -18.033600
  C    -130.355000   28.503300  -20.164200
  H    -131.058000   27.708500  -20.381500
  H    -129.682000   28.363800  -21.015800
  C    -131.105000   29.840800  -20.384300
  H    -131.784000   30.177100  -19.590400
  H    -131.742000   29.682800  -21.243100
  H    -130.449000   30.761300  -20.506000
  H    -123.551000   29.718900  -18.005600
  H    -129.585000   24.179000  -16.965100

 Total Charge           Charge          ....    0
 Multiplicity           Mult            ....    1
 Number of Electrons    NEL             ....  134
 Basis Dimension        Dim             ....  322

ORBITAL ENERGIES
----------------

  NO   OCC          E(Eh)            E(eV)
   0   2.0000     -88.969927     -2420.9948
   1   2.0000     -88.965986     -2420.8876
   2   2.0000     -10.328137      -281.0429
   3   2.0000     -10.326006      -280.9849
   4   2.0000     -10.325753      -280.9780
   5   2.0000     -10.316719      -280.7322
   6   2.0000     -10.308068      -280.4968
   7   2.0000     -10.306003      -280.4406
   8   2.0000     -10.297185      -280.2007
   9   2.0000     -10.295054      -280.1427
  10   2.0000     -10.292019      -280.0601
  11   2.0000     -10.291558      -280.0475
  12   2.0000     -10.290281      -280.0128
  13   2.0000     -10.286403      -279.9072
  14   2.0000     -10.284989      -279.8688
  15   2.0000     -10.265960      -279.3510
  16   2.0000      -8.083577      -219.9653
  17   2.0000      -8.080914      -219.8929
  18   2.0000      -6.042103      -164.4140
  19   2.0000      -6.039454      -164.3419
  20   2.0000      -6.038309      -164.3107
  21   2.0000      -6.035459      -164.2332
  22   2.0000      -6.034321      -164.2022
  23   2.0000      -6.031563      -164.1272
  24   2.0000      -1.011608       -27.5273
  25   2.0000      -0.985948       -26.8290
  26   2.0000      -0.912819       -24.8391
  27   2.0000      -0.906060       -24.6551
  28   2.0000      -0.874559       -23.7979
  29   2.0000      -0.856431       -23.3047
  30   2.0000      -0.846319       -23.0295
  31   2.0000      -0.816137       -22.2082
  32   2.0000      -0.783368       -21.3165
  33   2.0000      -0.770301       -20.9610
  34   2.0000      -0.711451       -19.3596
  35   2.0000      -0.700748       -19.0683
  36   2.0000      -0.685497       -18.6533
  37   2.0000      -0.667528       -18.1644
  38   2.0000      -0.645572       -17.5669
  39   2.0000      -0.626717       -17.0538
  40   2.0000      -0.593940       -16.1619
  41   2.0000      -0.574512       -15.6333
  42   2.0000      -0.558742       -15.2041
  43   2.0000      -0.550784       -14.9876
  44   2.0000      -0.543582       -14.7916
  45   2.0000      -0.532761       -14.4972
  46   2.0000      -0.518758       -14.1161
  47   2.0000      -0.511439       -13.9169
  48   2.0000      -0.505846       -13.7648
  49   2.0000      -0.502501       -13.6738
  50   2.0000      -0.487176       -13.2567
  51   2.0000      -0.478328       -13.0160
  52   2.0000      -0.470980       -12.8160
  53   2.0000      -0.469363       -12.7720
  54   2.0000      -0.457735       -12.4556
  55   2.0000      -0.451282       -12.2800
  56   2.0000      -0.445819       -12.1313
  57   2.0000      -0.443098       -12.0573
  58   2.0000      -0.430998       -11.7281
  59   2.0000      -0.423795       -11.5321
  60   2.0000      -0.417578       -11.3629
  61   2.0000      -0.415079       -11.2949
  62   2.0000      -0.404855       -11.0167
  63   2.0000      -0.355089        -9.6625
  64   2.0000      -0.337880        -9.1942
  65   2.0000      -0.334080        -9.0908
  66   2.0000      -0.289244        -7.8707
  67   0.0000       0.022762         0.6194
  68   0.0000       0.072925         1.9844
  69   0.0000       0.097996         2.6666
  70   0.0000       0.121561         3.3078
  71   0.0000       0.125038         3.4025

MULLIKEN ATOMIC CHARGES
-----------------------
   0 S :    0.098369
   1 C :   -0.124601
   2 C :   -0.097837
   3 C :    0.043930
   4 C :   -0.123594
   5 H :   -0.005532
   6 C :    0.041768
   7 H :    0.039236
   8 H :    0.038769
   9 C :   -0.101774
  10 H :    0.042725
  11 H :    0.028154
  12 C :   -0.042981
  13 H :    0.045220
  14 H :    0.033737
  15 H :   -0.002619
  16 S :    0.100948
  17 C :   -0.111637
  18 C :   -0.019568
  19 C :   -0.019797
  20 C :   -0.140866
  21 H :    0.011829
  22 C :    0.064602
  23 H :    0.032796
  24 H :    0.013945
  25 C :   -0.049577
  26 H :    0.023153
  27 H :    0.026969
  28 C :   -0.078113
  29 H :    0.028802
  30 H :    0.033014
  31 H :    0.042291
  32 H :    0.056371
  33 H :    0.071867
Sum of atomic charges:   -0.0000000

LOEWDIN ATOMIC CHARGES
----------------------
   0 S :    0.391460
   1 C :   -0.185618
   2 C :   -0.061317
   3 C :   -0.060076
   4 C :   -0.185190
   5 H :    0.028238
   6 C :   -0.032703
   7 H :    0.030768
   8 H :    0.039022
   9 C :   -0.054218
  10 H :    0.028818
  11 H :    0.023918
  12 C :   -0.065242
  13 H :    0.033859
  14 H :    0.024633
  15 H :    0.004017
  16 S :    0.386560
  17 C :   -0.168636
  18 C :   -0.064271
  19 C :   -0.062042
  20 C :   -0.198943
  21 H :    0.032343
  22 C :   -0.030743
  23 H :    0.035993
  24 H :    0.025632
  25 C :   -0.039380
  26 H :    0.024325
  27 H :    0.025382
  28 C :   -0.073351
  29 H :    0.023685
  30 H :    0.025660
  31 H :    0.031220
  32 H :    0.028816
  33 H :    0.037382

  Mayer bond orders larger than 0.100000
B(  0-S ,  1-C ) :   1.1234 B(  0-S ,  4-C ) :   1.1449 B(  1-C ,  2-C ) :   1.6374
B(  1-C , 32-H ) :   0.9701 B(  2-C ,  3-C ) :   1.2257 B(  2-C ,  6-C ) :   1.0026
B(  3-C ,  4-C ) :   1.5787 B(  3-C ,  5-H ) :   1.0077 B(  4-C , 20-C ) :   1.0409
B(  6-C ,  7-H ) :   0.9476 B(  6-C ,  8-H ) :   0.9493 B(  6-C ,  9-C ) :   1.0671
B(  9-C , 10-H ) :   0.9597 B(  9-C , 11-H ) :   0.9594 B(  9-C , 12-C ) :   1.0652
B( 12-C , 13-H ) :   0.9741 B( 12-C , 14-H ) :   0.9780 B( 12-C , 15-H ) :   0.9741
B( 16-S , 17-C ) :   1.1417 B( 16-S , 20-C ) :   1.1422 B( 17-C , 18-C ) :   1.5886
B( 17-C , 20-C ) :   0.1141 B( 17-C , 33-H ) :   0.9618 B( 18-C , 19-C ) :   1.2758
B( 18-C , 21-H ) :   0.9917 B( 19-C , 20-C ) :   1.5699 B( 19-C , 22-C ) :   1.0351
B( 22-C , 23-H ) :   0.9343 B( 22-C , 24-H ) :   0.9330 B( 22-C , 25-C ) :   1.0531
B( 25-C , 26-H ) :   0.9563 B( 25-C , 27-H ) :   0.9510 B( 25-C , 28-C ) :   1.0772
B( 28-C , 29-H ) :   0.9761 B( 28-C , 30-H ) :   0.9755 B( 28-C , 31-H ) :   0.9763

Dispersion correction           -0.014614028
FINAL SINGLE POINT ENERGY     -1339.865562672578

DIPOLE MOMENT
-------------
                                X             Y             Z
Electronic contribution:     10.41050     -26.13614      13.54024
Nuclear contribution   :    -10.91534      26.60402     -13.80211
                        -----------------------------------------
Total Dipole Moment    :     -0.50484       0.46787      -0.26187
                        -----------------------------------------
Magnitude (a.u.)       :      0.73644
Magnitude (Debye)      :      1.87188

Rotational constants in cm-1:     0.017218     0.009929     0.006738
Rotational constants in MHz :   516.184357   297.662389   201.991960

                             ****ORCA TERMINATED NORMALLY****
TOTAL RUN TIME: 0 days 0 hours 0 minutes 22 seconds 211 msec
