                         Program Version 4.2.1 -  RELEASE  -
|  1> ! wB97X-D3 SP def2-SVP
|  2> %pal
|  3> nprocs 24
|  4> end
|  5>
|  6> * xyz 0 1
|  7> S 	 -72.919 	 1.26918 	 -104.975
|  8> C 	 -72.7265 	 2.83826 	 -104.167
|  9> C 	 -71.7047 	 3.58111 	 -104.776
| 10> C 	 -71.1478 	 2.9229 	 -105.95
| 11> C 	 -71.7312 	 1.6898 	 -106.188
| 12> H 	 -70.3352 	 3.28725 	 -106.487
| 13> C 	 -71.2397 	 4.97694 	 -104.383
| 14> H 	 -71.8391 	 5.34628 	 -103.578
| 15> H 	 -71.456 	 5.55064 	 -105.253
| 16> C 	 -69.7788 	 5.00724 	 -103.858
| 17> H 	 -69.625 	 4.11661 	 -103.222
| 18> H 	 -69.0737 	 4.90118 	 -104.696
| 19> C 	 -69.6062 	 6.38138 	 -103.235
| 20> H 	 -70.4339 	 6.46323 	 -102.512
| 21> H 	 -68.6985 	 6.57239 	 -102.695
| 22> H 	 -69.6516 	 7.15003 	 -103.98
| 23> S 	 -72.5936 	 -0.248292 	 -108.014
| 24> C 	 -71.5061 	 -0.77411 	 -109.263
| 25> C 	 -70.3295 	 -0.0628709 	 -109.2
| 26> C 	 -70.2284 	 0.8262 	 -108.117
| 27> C 	 -71.3937 	 0.821171 	 -107.331
| 28> H 	 -69.574 	 -0.246945 	 -109.913
| 29> C 	 -68.9701 	 1.69776 	 -107.963
| 30> H 	 -69.2717 	 2.75341 	 -108.038
| 31> H 	 -68.3833 	 1.4775 	 -108.884
| 32> C 	 -68.0894 	 1.32015 	 -106.769
| 33> H 	 -68.1562 	 0.279176 	 -106.374
| 34> H 	 -68.3418 	 1.89532 	 -105.871
| 35> C 	 -66.5531 	 1.55468 	 -107.138
| 36> H 	 -65.8523 	 1.41881 	 -106.3
| 37> H 	 -66.4842 	 2.62884 	 -107.487
| 38> H 	 -66.3474 	 0.869602 	 -108.006
| 39> H 	 -73.3642 	 3.10407 	 -103.319
| 40> H 	 -71.7945 	 -1.50995 	 -110.02
| 41> *
| 42>
| 43>                          ****END OF INPUT****

CARTESIAN COORDINATES (ANGSTROEM)
---------------------------------
  S    -72.919000    1.269180  -104.975000
  C    -72.726500    2.838260  -104.167000
  C    -71.704700    3.581110  -104.776000
  C    -71.147800    2.922900  -105.950000
  C    -71.731200    1.689800  -106.188000
  H    -70.335200    3.287250  -106.487000
  C    -71.239700    4.976940  -104.383000
  H    -71.839100    5.346280  -103.578000
  H    -71.456000    5.550640  -105.253000
  C    -69.778800    5.007240  -103.858000
  H    -69.625000    4.116610  -103.222000
  H    -69.073700    4.901180  -104.696000
  C    -69.606200    6.381380  -103.235000
  H    -70.433900    6.463230  -102.512000
  H    -68.698500    6.572390  -102.695000
  H    -69.651600    7.150030  -103.980000
  S    -72.593600   -0.248292  -108.014000
  C    -71.506100   -0.774110  -109.263000
  C    -70.329500   -0.062871  -109.200000
  C    -70.228400    0.826200  -108.117000
  C    -71.393700    0.821171  -107.331000
  H    -69.574000   -0.246945  -109.913000
  C    -68.970100    1.697760  -107.963000
  H    -69.271700    2.753410  -108.038000
  H    -68.383300    1.477500  -108.884000
  C    -68.089400    1.320150  -106.769000
  H    -68.156200    0.279176  -106.374000
  H    -68.341800    1.895320  -105.871000
  C    -66.553100    1.554680  -107.138000
  H    -65.852300    1.418810  -106.300000
  H    -66.484200    2.628840  -107.487000
  H    -66.347400    0.869602  -108.006000
  H    -73.364200    3.104070  -103.319000
  H    -71.794500   -1.509950  -110.020000

 Total Charge           Charge          ....    0
 Multiplicity           Mult            ....    1
 Number of Electrons    NEL             ....  134
 Basis Dimension        Dim             ....  322

ORBITAL ENERGIES
----------------

  NO   OCC          E(Eh)            E(eV)
   0   2.0000     -88.966977     -2420.9145
   1   2.0000     -88.965065     -2420.8625
   2   2.0000     -10.332541      -281.1627
   3   2.0000     -10.328629      -281.0563
   4   2.0000     -10.317474      -280.7527
   5   2.0000     -10.316416      -280.7240
   6   2.0000     -10.304873      -280.4098
   7   2.0000     -10.302648      -280.3493
   8   2.0000     -10.302173      -280.3364
   9   2.0000     -10.292198      -280.0649
  10   2.0000     -10.291463      -280.0449
  11   2.0000     -10.290971      -280.0316
  12   2.0000     -10.289522      -279.9921
  13   2.0000     -10.288516      -279.9647
  14   2.0000     -10.287951      -279.9494
  15   2.0000     -10.277448      -279.6636
  16   2.0000      -8.081889      -219.9194
  17   2.0000      -8.079446      -219.8529
  18   2.0000      -6.040299      -164.3649
  19   2.0000      -6.038028      -164.3031
  20   2.0000      -6.036292      -164.2559
  21   2.0000      -6.034074      -164.1955
  22   2.0000      -6.032838      -164.1619
  23   2.0000      -6.030097      -164.0873
  24   2.0000      -1.004917       -27.3452
  25   2.0000      -0.980446       -26.6793
  26   2.0000      -0.915030       -24.8992
  27   2.0000      -0.905937       -24.6518
  28   2.0000      -0.866901       -23.5896
  29   2.0000      -0.850286       -23.1375
  30   2.0000      -0.844955       -22.9924
  31   2.0000      -0.810774       -22.0623
  32   2.0000      -0.778578       -21.1862
  33   2.0000      -0.767434       -20.8829
  34   2.0000      -0.707601       -19.2548
  35   2.0000      -0.702533       -19.1169
  36   2.0000      -0.689072       -18.7506
  37   2.0000      -0.665960       -18.1217
  38   2.0000      -0.640145       -17.4192
  39   2.0000      -0.625474       -17.0200
  40   2.0000      -0.596360       -16.2278
  41   2.0000      -0.575328       -15.6555
  42   2.0000      -0.562771       -15.3138
  43   2.0000      -0.559553       -15.2262
  44   2.0000      -0.527128       -14.3439
  45   2.0000      -0.522924       -14.2295
  46   2.0000      -0.518571       -14.1110
  47   2.0000      -0.509996       -13.8777
  48   2.0000      -0.505512       -13.7557
  49   2.0000      -0.496486       -13.5101
  50   2.0000      -0.490539       -13.3483
  51   2.0000      -0.483414       -13.1544
  52   2.0000      -0.472271       -12.8512
  53   2.0000      -0.460892       -12.5415
  54   2.0000      -0.455413       -12.3924
  55   2.0000      -0.449416       -12.2292
  56   2.0000      -0.447322       -12.1723
  57   2.0000      -0.439134       -11.9495
  58   2.0000      -0.438655       -11.9364
  59   2.0000      -0.428294       -11.6545
  60   2.0000      -0.418428       -11.3860
  61   2.0000      -0.414882       -11.2895
  62   2.0000      -0.413121       -11.2416
  63   2.0000      -0.355627        -9.6771
  64   2.0000      -0.334953        -9.1145
  65   2.0000      -0.327146        -8.9021
  66   2.0000      -0.282932        -7.6990
  67   0.0000       0.022066         0.6004
  68   0.0000       0.087032         2.3683
  69   0.0000       0.105296         2.8652
  70   0.0000       0.119954         3.2641
  71   0.0000       0.126869         3.4523

MULLIKEN ATOMIC CHARGES
-----------------------
   0 S :    0.095749
   1 C :   -0.141367
   2 C :   -0.095263
   3 C :    0.028029
   4 C :   -0.101913
   5 H :   -0.038893
   6 C :    0.080327
   7 H :    0.001953
   8 H :    0.035737
   9 C :   -0.095225
  10 H :    0.047046
  11 H :    0.030168
  12 C :   -0.017804
  13 H :    0.026698
  14 H :    0.028981
  15 H :    0.026505
  16 S :    0.108894
  17 C :   -0.101821
  18 C :   -0.020650
  19 C :   -0.060090
  20 C :   -0.122708
  21 H :    0.000833
  22 C :    0.044798
  23 H :    0.058983
  24 H :    0.015906
  25 C :   -0.065022
  26 H :    0.046968
  27 H :    0.032407
  28 C :   -0.108172
  29 H :    0.048706
  30 H :    0.038901
  31 H :    0.048047
  32 H :    0.057871
  33 H :    0.065422
Sum of atomic charges:    0.0000000

LOEWDIN ATOMIC CHARGES
----------------------
   0 S :    0.387308
   1 C :   -0.200486
   2 C :   -0.053017
   3 C :   -0.062041
   4 C :   -0.179547
   5 H :    0.015541
   6 C :   -0.025730
   7 H :    0.023036
   8 H :    0.030801
   9 C :   -0.038897
  10 H :    0.030349
  11 H :    0.021012
  12 C :   -0.060886
  13 H :    0.026459
  14 H :    0.021710
  15 H :    0.025149
  16 S :    0.416586
  17 C :   -0.191373
  18 C :   -0.071232
  19 C :   -0.056999
  20 C :   -0.199386
  21 H :    0.024469
  22 C :   -0.031756
  23 H :    0.033798
  24 H :    0.033432
  25 C :   -0.046232
  26 H :    0.032728
  27 H :    0.021973
  28 C :   -0.073154
  29 H :    0.026206
  30 H :    0.027551
  31 H :    0.028094
  32 H :    0.030595
  33 H :    0.033940

  Mayer bond orders larger than 0.100000
B(  0-S ,  1-C ) :   1.1161 B(  0-S ,  4-C ) :   1.1512 B(  1-C ,  2-C ) :   1.6108
B(  1-C , 32-H ) :   0.9702 B(  2-C ,  3-C ) :   1.2287 B(  2-C ,  6-C ) :   1.0258
B(  3-C ,  4-C ) :   1.5636 B(  3-C ,  5-H ) :   0.9971 B(  4-C , 20-C ) :   1.0647
B(  6-C ,  7-H ) :   0.9466 B(  6-C ,  8-H ) :   0.9370 B(  6-C ,  9-C ) :   1.0458
B(  9-C , 10-H ) :   0.9609 B(  9-C , 11-H ) :   0.9518 B(  9-C , 12-C ) :   1.0814
B( 12-C , 13-H ) :   0.9766 B( 12-C , 14-H ) :   0.9739 B( 12-C , 15-H ) :   0.9709
B( 16-S , 17-C ) :   1.1645 B( 16-S , 20-C ) :   1.1563 B( 17-C , 18-C ) :   1.5688
B( 17-C , 20-C ) :   0.1036 B( 17-C , 33-H ) :   0.9677 B( 18-C , 19-C ) :   1.2968
B( 18-C , 21-H ) :   0.9956 B( 19-C , 20-C ) :   1.5474 B( 19-C , 22-C ) :   1.0294
B( 22-C , 23-H ) :   0.9246 B( 22-C , 24-H ) :   0.9393 B( 22-C , 25-C ) :   1.0375
B( 25-C , 26-H ) :   0.9628 B( 25-C , 27-H ) :   0.9524 B( 25-C , 28-C ) :   1.0706
B( 28-C , 29-H ) :   0.9767 B( 28-C , 30-H ) :   0.9767 B( 28-C , 31-H ) :   0.9774

Dispersion correction           -0.014252986
FINAL SINGLE POINT ENERGY     -1339.887817582320

DIPOLE MOMENT
-------------
                                X             Y             Z
Electronic contribution:    -25.35805     -19.64666      -6.92397
Nuclear contribution   :     25.92817      20.10478       6.84927
                        -----------------------------------------
Total Dipole Moment    :      0.57012       0.45812      -0.07470
                        -----------------------------------------
Magnitude (a.u.)       :      0.73518
Magnitude (Debye)      :      1.86868

Rotational constants in cm-1:     0.017775     0.009326     0.006517
Rotational constants in MHz :   532.875035   279.573658   195.371918

                             ****ORCA TERMINATED NORMALLY****
TOTAL RUN TIME: 0 days 0 hours 0 minutes 20 seconds 811 msec
