                         Program Version 4.2.1 -  RELEASE  -
|  1> ! wB97X-D3 SP def2-SVP
|  2> %pal
|  3> nprocs 24
|  4> end
|  5>
|  6> * xyz 0 1
|  7> S 	 -124.96 	 32.2029 	 -111.822
|  8> C 	 -124.825 	 30.5136 	 -112.161
|  9> C 	 -123.957 	 29.8999 	 -111.287
| 10> C 	 -123.377 	 30.8162 	 -110.301
| 11> C 	 -123.703 	 32.1223 	 -110.57
| 12> H 	 -122.849 	 30.5317 	 -109.446
| 13> C 	 -123.753 	 28.4164 	 -111.14
| 14> H 	 -124.67 	 28.1724 	 -110.564
| 15> H 	 -122.896 	 28.2511 	 -110.467
| 16> C 	 -123.74 	 27.6708 	 -112.489
| 17> H 	 -124.64 	 28.0218 	 -113.051
| 18> H 	 -122.847 	 27.9438 	 -113.131
| 19> C 	 -123.579 	 26.154 	 -112.39
| 20> H 	 -122.665 	 25.8442 	 -111.78
| 21> H 	 -124.429 	 25.5775 	 -112.164
| 22> H 	 -123.213 	 25.7403 	 -113.385
| 23> S 	 -121.658 	 33.9145 	 -110.257
| 24> C 	 -121.988 	 35.2829 	 -109.21
| 25> C 	 -123.099 	 35.2094 	 -108.415
| 26> C 	 -123.795 	 34.0091 	 -108.723
| 27> C 	 -123.218 	 33.2892 	 -109.795
| 28> H 	 -123.392 	 35.9475 	 -107.695
| 29> C 	 -125.016 	 33.5273 	 -108.035
| 30> H 	 -125.008 	 33.8599 	 -106.963
| 31> H 	 -124.885 	 32.4387 	 -108.071
| 32> C 	 -126.401 	 33.7976 	 -108.674
| 33> H 	 -126.521 	 33.7825 	 -109.723
| 34> H 	 -126.569 	 34.9177 	 -108.54
| 35> C 	 -127.604 	 33.0284 	 -108.138
| 36> H 	 -127.394 	 31.9246 	 -108.309
| 37> H 	 -128.502 	 33.1755 	 -108.734
| 38> H 	 -127.849 	 33.188 	 -107.088
| 39> H 	 -125.526 	 30.0206 	 -112.852
| 40> H 	 -121.395 	 36.1443 	 -109.035
| 41> *
| 42>
| 43>                          ****END OF INPUT****

CARTESIAN COORDINATES (ANGSTROEM)
---------------------------------
  S    -124.960000   32.202900  -111.822000
  C    -124.825000   30.513600  -112.161000
  C    -123.957000   29.899900  -111.287000
  C    -123.377000   30.816200  -110.301000
  C    -123.703000   32.122300  -110.570000
  H    -122.849000   30.531700  -109.446000
  C    -123.753000   28.416400  -111.140000
  H    -124.670000   28.172400  -110.564000
  H    -122.896000   28.251100  -110.467000
  C    -123.740000   27.670800  -112.489000
  H    -124.640000   28.021800  -113.051000
  H    -122.847000   27.943800  -113.131000
  C    -123.579000   26.154000  -112.390000
  H    -122.665000   25.844200  -111.780000
  H    -124.429000   25.577500  -112.164000
  H    -123.213000   25.740300  -113.385000
  S    -121.658000   33.914500  -110.257000
  C    -121.988000   35.282900  -109.210000
  C    -123.099000   35.209400  -108.415000
  C    -123.795000   34.009100  -108.723000
  C    -123.218000   33.289200  -109.795000
  H    -123.392000   35.947500  -107.695000
  C    -125.016000   33.527300  -108.035000
  H    -125.008000   33.859900  -106.963000
  H    -124.885000   32.438700  -108.071000
  C    -126.401000   33.797600  -108.674000
  H    -126.521000   33.782500  -109.723000
  H    -126.569000   34.917700  -108.540000
  C    -127.604000   33.028400  -108.138000
  H    -127.394000   31.924600  -108.309000
  H    -128.502000   33.175500  -108.734000
  H    -127.849000   33.188000  -107.088000
  H    -125.526000   30.020600  -112.852000
  H    -121.395000   36.144300  -109.035000

 Total Charge           Charge          ....    0
 Multiplicity           Mult            ....    1
 Number of Electrons    NEL             ....  134
 Basis Dimension        Dim             ....  322

ORBITAL ENERGIES
----------------

  NO   OCC          E(Eh)            E(eV)
   0   2.0000     -88.969939     -2420.9951
   1   2.0000     -88.963533     -2420.8208
   2   2.0000     -10.329938      -281.0919
   3   2.0000     -10.323233      -280.9094
   4   2.0000     -10.313087      -280.6334
   5   2.0000     -10.311468      -280.5893
   6   2.0000     -10.302097      -280.3343
   7   2.0000     -10.301307      -280.3128
   8   2.0000     -10.298190      -280.2280
   9   2.0000     -10.295033      -280.1421
  10   2.0000     -10.292936      -280.0850
  11   2.0000     -10.291093      -280.0349
  12   2.0000     -10.290483      -280.0183
  13   2.0000     -10.285089      -279.8715
  14   2.0000     -10.282927      -279.8127
  15   2.0000     -10.278393      -279.6893
  16   2.0000      -8.084405      -219.9878
  17   2.0000      -8.077998      -219.8135
  18   2.0000      -6.042810      -164.4332
  19   2.0000      -6.039074      -164.3315
  20   2.0000      -6.036599      -164.2642
  21   2.0000      -6.035170      -164.2253
  22   2.0000      -6.032531      -164.1535
  23   2.0000      -6.028683      -164.0488
  24   2.0000      -1.003866       -27.3166
  25   2.0000      -0.983987       -26.7757
  26   2.0000      -0.909272       -24.7425
  27   2.0000      -0.903751       -24.5923
  28   2.0000      -0.868837       -23.6423
  29   2.0000      -0.851138       -23.1606
  30   2.0000      -0.849134       -23.1061
  31   2.0000      -0.818326       -22.2678
  32   2.0000      -0.778778       -21.1916
  33   2.0000      -0.762546       -20.7499
  34   2.0000      -0.707912       -19.2633
  35   2.0000      -0.698972       -19.0200
  36   2.0000      -0.687503       -18.7079
  37   2.0000      -0.661619       -18.0036
  38   2.0000      -0.647799       -17.6275
  39   2.0000      -0.607804       -16.5392
  40   2.0000      -0.593329       -16.1453
  41   2.0000      -0.574814       -15.6415
  42   2.0000      -0.562038       -15.2938
  43   2.0000      -0.551430       -15.0052
  44   2.0000      -0.526125       -14.3166
  45   2.0000      -0.519705       -14.1419
  46   2.0000      -0.517319       -14.0770
  47   2.0000      -0.514108       -13.9896
  48   2.0000      -0.500213       -13.6115
  49   2.0000      -0.498750       -13.5717
  50   2.0000      -0.490472       -13.3464
  51   2.0000      -0.478555       -13.0221
  52   2.0000      -0.471932       -12.8419
  53   2.0000      -0.466009       -12.6808
  54   2.0000      -0.458369       -12.4729
  55   2.0000      -0.451454       -12.2847
  56   2.0000      -0.447018       -12.1640
  57   2.0000      -0.436263       -11.8713
  58   2.0000      -0.429031       -11.6745
  59   2.0000      -0.424492       -11.5510
  60   2.0000      -0.420085       -11.4311
  61   2.0000      -0.413038       -11.2393
  62   2.0000      -0.399258       -10.8644
  63   2.0000      -0.338064        -9.1992
  64   2.0000      -0.332142        -9.0380
  65   2.0000      -0.312753        -8.5104
  66   2.0000      -0.303711        -8.2644
  67   0.0000       0.042648         1.1605
  68   0.0000       0.053219         1.4482
  69   0.0000       0.104633         2.8472
  70   0.0000       0.116094         3.1591
  71   0.0000       0.132441         3.6039

MULLIKEN ATOMIC CHARGES
-----------------------
   0 S :    0.115424
   1 C :   -0.157130
   2 C :   -0.091654
   3 C :    0.058956
   4 C :   -0.154766
   5 H :    0.000797
   6 C :    0.069948
   7 H :    0.049244
   8 H :    0.026023
   9 C :   -0.106263
  10 H :    0.034755
  11 H :    0.045385
  12 C :   -0.054576
  13 H :    0.038094
  14 H :    0.033738
  15 H :    0.026985
  16 S :    0.138399
  17 C :   -0.057753
  18 C :   -0.040281
  19 C :   -0.017360
  20 C :   -0.210157
  21 H :    0.015823
  22 C :    0.080814
  23 H :    0.033373
  24 H :    0.020424
  25 C :   -0.066321
  26 H :    0.013238
  27 H :    0.014576
  28 C :   -0.059089
  29 H :    0.032345
  30 H :    0.031800
  31 H :    0.035550
  32 H :    0.067585
  33 H :    0.032073
Sum of atomic charges:    0.0000000

LOEWDIN ATOMIC CHARGES
----------------------
   0 S :    0.406546
   1 C :   -0.216329
   2 C :   -0.062717
   3 C :   -0.051469
   4 C :   -0.190511
   5 H :    0.024230
   6 C :   -0.038214
   7 H :    0.042950
   8 H :    0.029104
   9 C :   -0.048756
  10 H :    0.027650
  11 H :    0.036725
  12 C :   -0.075981
  13 H :    0.035545
  14 H :    0.014707
  15 H :    0.032376
  16 S :    0.420443
  17 C :   -0.176400
  18 C :   -0.066700
  19 C :   -0.049213
  20 C :   -0.211292
  21 H :    0.033818
  22 C :   -0.038659
  23 H :    0.037565
  24 H :    0.032155
  25 C :   -0.050263
  26 H :    0.013830
  27 H :    0.024757
  28 C :   -0.069293
  29 H :    0.031057
  30 H :    0.027871
  31 H :    0.021436
  32 H :    0.032411
  33 H :    0.020622

  Mayer bond orders larger than 0.100000
B(  0-S ,  1-C ) :   1.1336 B(  0-S ,  4-C ) :   1.1439 B(  1-C ,  2-C ) :   1.6175
B(  1-C , 32-H ) :   0.9647 B(  2-C ,  3-C ) :   1.2206 B(  2-C ,  6-C ) :   1.0145
B(  3-C ,  4-C ) :   1.5973 B(  3-C ,  5-H ) :   1.0016 B(  4-C , 20-C ) :   1.0149
B(  6-C ,  7-H ) :   0.9325 B(  6-C ,  8-H ) :   0.9448 B(  6-C ,  9-C ) :   1.0593
B(  9-C , 10-H ) :   0.9503 B(  9-C , 11-H ) :   0.9611 B(  9-C , 12-C ) :   1.0835
B( 12-C , 13-H ) :   0.9699 B( 12-C , 14-H ) :   0.9778 B( 12-C , 15-H ) :   0.9743
B( 16-S , 17-C ) :   1.1550 B( 16-S , 20-C ) :   1.1478 B( 17-C , 18-C ) :   1.6219
B( 17-C , 33-H ) :   0.9614 B( 18-C , 19-C ) :   1.2417 B( 18-C , 21-H ) :   0.9944
B( 19-C , 20-C ) :   1.5869 B( 19-C , 22-C ) :   1.0515 B( 22-C , 23-H ) :   0.9332
B( 22-C , 24-H ) :   0.9252 B( 22-C , 25-C ) :   1.0502 B( 25-C , 26-H ) :   0.9558
B( 25-C , 27-H ) :   0.9476 B( 25-C , 28-C ) :   1.0869 B( 28-C , 29-H ) :   0.9714
B( 28-C , 30-H ) :   0.9730 B( 28-C , 31-H ) :   0.9774

Dispersion correction           -0.014422772
FINAL SINGLE POINT ENERGY     -1339.863807719227

DIPOLE MOMENT
-------------
                                X             Y             Z
Electronic contribution:     12.69863      18.66615      -4.41767
Nuclear contribution   :    -12.89211     -19.04190       4.74283
                        -----------------------------------------
Total Dipole Moment    :     -0.19348      -0.37574       0.32516
                        -----------------------------------------
Magnitude (a.u.)       :      0.53324
Magnitude (Debye)      :      1.35538

Rotational constants in cm-1:     0.020632     0.007739     0.006377
Rotational constants in MHz :   618.534840   231.997029   191.181127

                             ****ORCA TERMINATED NORMALLY****
TOTAL RUN TIME: 0 days 0 hours 0 minutes 21 seconds 187 msec
