                         Program Version 4.2.1 -  RELEASE  -
|  1> ! wB97X-D3 SP def2-SVP
|  2> %pal
|  3> nprocs 24
|  4> end
|  5>
|  6> * xyz 0 1
|  7> S 	 -51.1717 	 11.6046 	 -101.822
|  8> C 	 -52.1037 	 10.2405 	 -101.256
|  9> C 	 -53.1448 	 10.0253 	 -102.177
| 10> C 	 -53.2241 	 10.9188 	 -103.233
| 11> C 	 -52.1989 	 11.7925 	 -103.255
| 12> H 	 -54.0164 	 10.8453 	 -104.018
| 13> C 	 -54.1791 	 8.95344 	 -101.871
| 14> H 	 -55.1022 	 9.33416 	 -102.255
| 15> H 	 -54.2862 	 8.91186 	 -100.864
| 16> C 	 -53.8487 	 7.55337 	 -102.374
| 17> H 	 -53.7367 	 7.57044 	 -103.412
| 18> H 	 -52.9524 	 7.09519 	 -101.967
| 19> C 	 -54.8767 	 6.49208 	 -102.069
| 20> H 	 -55.8395 	 6.67842 	 -102.49
| 21> H 	 -54.5735 	 5.55338 	 -102.41
| 22> H 	 -55.0486 	 6.52466 	 -100.997
| 23> S 	 -51.9203 	 14.5157 	 -103.324
| 24> C 	 -51.7332 	 15.3791 	 -104.885
| 25> C 	 -51.9429 	 14.4821 	 -105.906
| 26> C 	 -52.2353 	 13.1799 	 -105.511
| 27> C 	 -52.0426 	 12.9684 	 -104.135
| 28> H 	 -51.9132 	 14.7869 	 -106.967
| 29> C 	 -52.501 	 12.0647 	 -106.517
| 30> H 	 -52.8308 	 11.172 	 -106.005
| 31> H 	 -51.5046 	 11.8919 	 -106.941
| 32> C 	 -53.5165 	 12.3796 	 -107.684
| 33> H 	 -53.2637 	 11.5445 	 -108.382
| 34> H 	 -53.2692 	 13.2554 	 -108.341
| 35> C 	 -55.0111 	 12.5126 	 -107.309
| 36> H 	 -55.2197 	 13.523 	 -107.048
| 37> H 	 -55.3802 	 11.7638 	 -106.621
| 38> H 	 -55.5826 	 12.2307 	 -108.22
| 39> H 	 -51.9726 	 9.58389 	 -100.368
| 40> H 	 -51.4642 	 16.4007 	 -104.974
| 41> *
| 42>
| 43>                          ****END OF INPUT****

CARTESIAN COORDINATES (ANGSTROEM)
---------------------------------
  S    -51.171700   11.604600  -101.822000
  C    -52.103700   10.240500  -101.256000
  C    -53.144800   10.025300  -102.177000
  C    -53.224100   10.918800  -103.233000
  C    -52.198900   11.792500  -103.255000
  H    -54.016400   10.845300  -104.018000
  C    -54.179100    8.953440  -101.871000
  H    -55.102200    9.334160  -102.255000
  H    -54.286200    8.911860  -100.864000
  C    -53.848700    7.553370  -102.374000
  H    -53.736700    7.570440  -103.412000
  H    -52.952400    7.095190  -101.967000
  C    -54.876700    6.492080  -102.069000
  H    -55.839500    6.678420  -102.490000
  H    -54.573500    5.553380  -102.410000
  H    -55.048600    6.524660  -100.997000
  S    -51.920300   14.515700  -103.324000
  C    -51.733200   15.379100  -104.885000
  C    -51.942900   14.482100  -105.906000
  C    -52.235300   13.179900  -105.511000
  C    -52.042600   12.968400  -104.135000
  H    -51.913200   14.786900  -106.967000
  C    -52.501000   12.064700  -106.517000
  H    -52.830800   11.172000  -106.005000
  H    -51.504600   11.891900  -106.941000
  C    -53.516500   12.379600  -107.684000
  H    -53.263700   11.544500  -108.382000
  H    -53.269200   13.255400  -108.341000
  C    -55.011100   12.512600  -107.309000
  H    -55.219700   13.523000  -107.048000
  H    -55.380200   11.763800  -106.621000
  H    -55.582600   12.230700  -108.220000
  H    -51.972600    9.583890  -100.368000
  H    -51.464200   16.400700  -104.974000

 Total Charge           Charge          ....    0
 Multiplicity           Mult            ....    1
 Number of Electrons    NEL             ....  134
 Basis Dimension        Dim             ....  322

ORBITAL ENERGIES
----------------

  NO   OCC          E(Eh)            E(eV)
   0   2.0000     -88.969568     -2420.9850
   1   2.0000     -88.961978     -2420.7785
   2   2.0000     -10.330444      -281.1057
   3   2.0000     -10.327213      -281.0178
   4   2.0000     -10.317052      -280.7413
   5   2.0000     -10.315723      -280.7051
   6   2.0000     -10.299208      -280.2557
   7   2.0000     -10.298101      -280.2256
   8   2.0000     -10.295606      -280.1577
   9   2.0000     -10.294482      -280.1271
  10   2.0000     -10.292979      -280.0862
  11   2.0000     -10.291702      -280.0514
  12   2.0000     -10.280579      -279.7488
  13   2.0000     -10.279727      -279.7256
  14   2.0000     -10.276048      -279.6255
  15   2.0000     -10.266931      -279.3774
  16   2.0000      -8.083488      -219.9629
  17   2.0000      -8.076048      -219.7604
  18   2.0000      -6.042025      -164.4119
  19   2.0000      -6.037986      -164.3019
  20   2.0000      -6.034648      -164.2111
  21   2.0000      -6.034375      -164.2037
  22   2.0000      -6.030642      -164.1021
  23   2.0000      -6.026747      -163.9961
  24   2.0000      -1.007471       -27.4147
  25   2.0000      -0.984177       -26.7808
  26   2.0000      -0.916525       -24.9399
  27   2.0000      -0.900543       -24.5050
  28   2.0000      -0.869367       -23.6567
  29   2.0000      -0.855566       -23.2811
  30   2.0000      -0.845827       -23.0161
  31   2.0000      -0.820572       -22.3289
  32   2.0000      -0.783439       -21.3185
  33   2.0000      -0.770618       -20.9696
  34   2.0000      -0.706592       -19.2274
  35   2.0000      -0.701983       -19.1019
  36   2.0000      -0.698031       -18.9944
  37   2.0000      -0.655836       -17.8462
  38   2.0000      -0.639838       -17.4109
  39   2.0000      -0.623651       -16.9704
  40   2.0000      -0.597257       -16.2522
  41   2.0000      -0.570589       -15.5265
  42   2.0000      -0.563458       -15.3325
  43   2.0000      -0.548901       -14.9364
  44   2.0000      -0.541779       -14.7425
  45   2.0000      -0.535669       -14.5763
  46   2.0000      -0.525644       -14.3035
  47   2.0000      -0.508568       -13.8388
  48   2.0000      -0.503364       -13.6972
  49   2.0000      -0.499672       -13.5968
  50   2.0000      -0.493483       -13.4283
  51   2.0000      -0.478323       -13.0158
  52   2.0000      -0.476422       -12.9641
  53   2.0000      -0.467140       -12.7115
  54   2.0000      -0.463039       -12.5999
  55   2.0000      -0.448186       -12.1958
  56   2.0000      -0.441371       -12.0103
  57   2.0000      -0.437224       -11.8975
  58   2.0000      -0.434281       -11.8174
  59   2.0000      -0.428435       -11.6583
  60   2.0000      -0.423577       -11.5261
  61   2.0000      -0.412318       -11.2197
  62   2.0000      -0.404873       -11.0172
  63   2.0000      -0.352062        -9.5801
  64   2.0000      -0.332555        -9.0493
  65   2.0000      -0.325928        -8.8689
  66   2.0000      -0.287247        -7.8164
  67   0.0000       0.025083         0.6825
  68   0.0000       0.071275         1.9395
  69   0.0000       0.110048         2.9946
  70   0.0000       0.125103         3.4042
  71   0.0000       0.128599         3.4994

MULLIKEN ATOMIC CHARGES
-----------------------
   0 S :    0.117161
   1 C :   -0.123000
   2 C :   -0.129816
   3 C :    0.033173
   4 C :   -0.151441
   5 H :    0.031285
   6 C :    0.130351
   7 H :    0.005379
   8 H :   -0.013922
   9 C :   -0.049520
  10 H :    0.006975
  11 H :    0.020843
  12 C :   -0.006850
  13 H :    0.010628
  14 H :    0.022725
  15 H :    0.016673
  16 S :    0.090496
  17 C :   -0.087736
  18 C :   -0.031840
  19 C :   -0.035590
  20 C :   -0.142302
  21 H :    0.025063
  22 C :    0.068406
  23 H :    0.013636
  24 H :    0.044874
  25 C :   -0.127133
  26 H :    0.032299
  27 H :    0.033436
  28 C :   -0.022951
  29 H :    0.047547
  30 H :    0.026617
  31 H :    0.032011
  32 H :    0.063992
  33 H :    0.048529
Sum of atomic charges:   -0.0000000

LOEWDIN ATOMIC CHARGES
----------------------
   0 S :    0.409081
   1 C :   -0.209140
   2 C :   -0.062179
   3 C :   -0.070278
   4 C :   -0.186567
   5 H :    0.041526
   6 C :   -0.019099
   7 H :    0.027574
   8 H :    0.014366
   9 C :   -0.034192
  10 H :    0.013914
  11 H :    0.025961
  12 C :   -0.054456
  13 H :    0.017028
  14 H :    0.019169
  15 H :    0.022953
  16 S :    0.388528
  17 C :   -0.169088
  18 C :   -0.073089
  19 C :   -0.067521
  20 C :   -0.195296
  21 H :    0.035974
  22 C :   -0.028745
  23 H :    0.025407
  24 H :    0.039449
  25 C :   -0.050058
  26 H :    0.028265
  27 H :    0.026632
  28 C :   -0.065295
  29 H :    0.026512
  30 H :    0.022581
  31 H :    0.035225
  32 H :    0.041334
  33 H :    0.023525

  Mayer bond orders larger than 0.100000
B(  0-S ,  1-C ) :   1.1396 B(  0-S ,  4-C ) :   1.1636 B(  1-C ,  2-C ) :   1.5794
B(  1-C ,  4-C ) :   0.1043 B(  1-C , 32-H ) :   0.9644 B(  2-C ,  3-C ) :   1.2971
B(  2-C ,  6-C ) :   1.0225 B(  3-C ,  4-C ) :   1.5429 B(  3-C ,  5-H ) :   0.9794
B(  4-C , 20-C ) :   1.0217 B(  6-C ,  7-H ) :   0.9370 B(  6-C ,  8-H ) :   0.9316
B(  6-C ,  9-C ) :   1.0679 B(  9-C , 10-H ) :   0.9535 B(  9-C , 11-H ) :   0.9555
B(  9-C , 12-C ) :   1.0928 B( 12-C , 13-H ) :   0.9721 B( 12-C , 14-H ) :   0.9734
B( 12-C , 15-H ) :   0.9732 B( 16-S , 17-C ) :   1.1432 B( 16-S , 20-C ) :   1.1565
B( 17-C , 18-C ) :   1.5859 B( 17-C , 20-C ) :   0.1129 B( 17-C , 33-H ) :   0.9768
B( 18-C , 19-C ) :   1.2691 B( 18-C , 21-H ) :   0.9848 B( 19-C , 20-C ) :   1.5631
B( 19-C , 22-C ) :   1.0351 B( 22-C , 23-H ) :   0.9384 B( 22-C , 24-H ) :   0.9379
B( 22-C , 25-C ) :   1.0675 B( 25-C , 26-H ) :   0.9592 B( 25-C , 27-H ) :   0.9551
B( 25-C , 28-C ) :   1.0619 B( 28-C , 29-H ) :   0.9775 B( 28-C , 30-H ) :   0.9764
B( 28-C , 31-H ) :   0.9712

Dispersion correction           -0.013738433
FINAL SINGLE POINT ENERGY     -1339.866742307937

DIPOLE MOMENT
-------------
                                X             Y             Z
Electronic contribution:     17.61591      20.70238      12.94583
Nuclear contribution   :    -18.04685     -21.11075     -13.41856
                        -----------------------------------------
Total Dipole Moment    :     -0.43095      -0.40837      -0.47274
                        -----------------------------------------
Magnitude (a.u.)       :      0.75892
Magnitude (Debye)      :      1.92902

Rotational constants in cm-1:     0.018799     0.008337     0.006153
Rotational constants in MHz :   563.575080   249.931494   184.476035

                             ****ORCA TERMINATED NORMALLY****
TOTAL RUN TIME: 0 days 0 hours 0 minutes 20 seconds 197 msec
