                         Program Version 4.2.1 -  RELEASE  -
|  1> ! wB97X-D3 SP def2-SVP
|  2> %pal
|  3> nprocs 24
|  4> end
|  5>
|  6> * xyz 0 1
|  7> S 	 -53.3247 	 21.3518 	 -97.5097
|  8> C 	 -52.3798 	 21.432 	 -96.0386
|  9> C 	 -51.1201 	 20.8802 	 -96.2247
| 10> C 	 -50.9081 	 20.3477 	 -97.5169
| 11> C 	 -51.9678 	 20.5783 	 -98.3915
| 12> H 	 -50.0763 	 19.7666 	 -97.8671
| 13> C 	 -50.0369 	 20.6677 	 -95.0869
| 14> H 	 -50.4658 	 20.9452 	 -94.1395
| 15> H 	 -49.3426 	 21.4078 	 -95.3594
| 16> C 	 -49.4646 	 19.2029 	 -95.1223
| 17> H 	 -48.7445 	 19.0832 	 -95.9541
| 18> H 	 -48.7851 	 19.1382 	 -94.28
| 19> C 	 -50.6021 	 18.1205 	 -94.983
| 20> H 	 -51.2525 	 18.2467 	 -94.0663
| 21> H 	 -51.1602 	 18.0267 	 -95.9332
| 22> H 	 -50.0395 	 17.2003 	 -94.8619
| 23> S 	 -53.4685 	 19.5217 	 -100.422
| 24> C 	 -52.8944 	 19.5806 	 -102.104
| 25> C 	 -51.5576 	 19.9479 	 -102.09
| 26> C 	 -51.0757 	 20.3475 	 -100.788
| 27> C 	 -52.0509 	 20.3198 	 -99.8138
| 28> H 	 -51.1409 	 20.0091 	 -103.074
| 29> C 	 -49.6697 	 20.8346 	 -100.577
| 30> H 	 -49.3071 	 20.8324 	 -99.576
| 31> H 	 -49.7128 	 21.8751 	 -100.869
| 32> C 	 -48.5684 	 20.1621 	 -101.425
| 33> H 	 -47.6558 	 20.749 	 -101.207
| 34> H 	 -48.9673 	 20.492 	 -102.415
| 35> C 	 -48.4111 	 18.6298 	 -101.339
| 36> H 	 -48.0309 	 18.0212 	 -102.245
| 37> H 	 -49.2903 	 18.0459 	 -101.215
| 38> H 	 -47.8351 	 18.3279 	 -100.477
| 39> H 	 -52.7114 	 21.7004 	 -94.9998
| 40> H 	 -53.3855 	 19.4163 	 -103.018
| 41> *
| 42>
| 43>                          ****END OF INPUT****

CARTESIAN COORDINATES (ANGSTROEM)
---------------------------------
  S    -53.324700   21.351800  -97.509700
  C    -52.379800   21.432000  -96.038600
  C    -51.120100   20.880200  -96.224700
  C    -50.908100   20.347700  -97.516900
  C    -51.967800   20.578300  -98.391500
  H    -50.076300   19.766600  -97.867100
  C    -50.036900   20.667700  -95.086900
  H    -50.465800   20.945200  -94.139500
  H    -49.342600   21.407800  -95.359400
  C    -49.464600   19.202900  -95.122300
  H    -48.744500   19.083200  -95.954100
  H    -48.785100   19.138200  -94.280000
  C    -50.602100   18.120500  -94.983000
  H    -51.252500   18.246700  -94.066300
  H    -51.160200   18.026700  -95.933200
  H    -50.039500   17.200300  -94.861900
  S    -53.468500   19.521700  -100.422000
  C    -52.894400   19.580600  -102.104000
  C    -51.557600   19.947900  -102.090000
  C    -51.075700   20.347500  -100.788000
  C    -52.050900   20.319800  -99.813800
  H    -51.140900   20.009100  -103.074000
  C    -49.669700   20.834600  -100.577000
  H    -49.307100   20.832400  -99.576000
  H    -49.712800   21.875100  -100.869000
  C    -48.568400   20.162100  -101.425000
  H    -47.655800   20.749000  -101.207000
  H    -48.967300   20.492000  -102.415000
  C    -48.411100   18.629800  -101.339000
  H    -48.030900   18.021200  -102.245000
  H    -49.290300   18.045900  -101.215000
  H    -47.835100   18.327900  -100.477000
  H    -52.711400   21.700400  -94.999800
  H    -53.385500   19.416300  -103.018000

 Total Charge           Charge          ....    0
 Multiplicity           Mult            ....    1
 Number of Electrons    NEL             ....  134
 Basis Dimension        Dim             ....  322

ORBITAL ENERGIES
----------------

  NO   OCC          E(Eh)            E(eV)
   0   2.0000     -88.966727     -2420.9077
   1   2.0000     -88.962949     -2420.8049
   2   2.0000     -10.332671      -281.1663
   3   2.0000     -10.324813      -280.9524
   4   2.0000     -10.317205      -280.7454
   5   2.0000     -10.316970      -280.7390
   6   2.0000     -10.305976      -280.4399
   7   2.0000     -10.300915      -280.3022
   8   2.0000     -10.296235      -280.1748
   9   2.0000     -10.295753      -280.1617
  10   2.0000     -10.295627      -280.1583
  11   2.0000     -10.293633      -280.1040
  12   2.0000     -10.292918      -280.0845
  13   2.0000     -10.286018      -279.8968
  14   2.0000     -10.285724      -279.8888
  15   2.0000     -10.282020      -279.7880
  16   2.0000      -8.080525      -219.8823
  17   2.0000      -8.077524      -219.8006
  18   2.0000      -6.039152      -164.3337
  19   2.0000      -6.036220      -164.2539
  20   2.0000      -6.035134      -164.2244
  21   2.0000      -6.032054      -164.1405
  22   2.0000      -6.031231      -164.1181
  23   2.0000      -6.028072      -164.0322
  24   2.0000      -1.004941       -27.3458
  25   2.0000      -0.980342       -26.6765
  26   2.0000      -0.909512       -24.7491
  27   2.0000      -0.901235       -24.5238
  28   2.0000      -0.870335       -23.6830
  29   2.0000      -0.844449       -22.9786
  30   2.0000      -0.836658       -22.7666
  31   2.0000      -0.816449       -22.2167
  32   2.0000      -0.786391       -21.3988
  33   2.0000      -0.775498       -21.1024
  34   2.0000      -0.713345       -19.4111
  35   2.0000      -0.699414       -19.0320
  36   2.0000      -0.694901       -18.9092
  37   2.0000      -0.655935       -17.8489
  38   2.0000      -0.635936       -17.3047
  39   2.0000      -0.623648       -16.9703
  40   2.0000      -0.598812       -16.2945
  41   2.0000      -0.563147       -15.3240
  42   2.0000      -0.553512       -15.0618
  43   2.0000      -0.552881       -15.0447
  44   2.0000      -0.534465       -14.5435
  45   2.0000      -0.532466       -14.4891
  46   2.0000      -0.519841       -14.1456
  47   2.0000      -0.513103       -13.9623
  48   2.0000      -0.499487       -13.5917
  49   2.0000      -0.491736       -13.3808
  50   2.0000      -0.487712       -13.2713
  51   2.0000      -0.486788       -13.2462
  52   2.0000      -0.475140       -12.9292
  53   2.0000      -0.467273       -12.7152
  54   2.0000      -0.457866       -12.4592
  55   2.0000      -0.445741       -12.1292
  56   2.0000      -0.440912       -11.9978
  57   2.0000      -0.438036       -11.9196
  58   2.0000      -0.435474       -11.8499
  59   2.0000      -0.427614       -11.6360
  60   2.0000      -0.417170       -11.3518
  61   2.0000      -0.408438       -11.1142
  62   2.0000      -0.401456       -10.9242
  63   2.0000      -0.350574        -9.5396
  64   2.0000      -0.331327        -9.0159
  65   2.0000      -0.326051        -8.8723
  66   2.0000      -0.288650        -7.8546
  67   0.0000       0.020756         0.5648
  68   0.0000       0.078841         2.1454
  69   0.0000       0.106464         2.8970
  70   0.0000       0.124984         3.4010
  71   0.0000       0.128264         3.4902

MULLIKEN ATOMIC CHARGES
-----------------------
   0 S :    0.110398
   1 C :   -0.127105
   2 C :   -0.134133
   3 C :    0.020877
   4 C :   -0.161082
   5 H :    0.017899
   6 C :    0.114688
   7 H :    0.010888
   8 H :    0.029134
   9 C :   -0.107670
  10 H :    0.034070
  11 H :    0.025571
  12 C :   -0.053784
  13 H :    0.051334
  14 H :    0.058451
  15 H :    0.030891
  16 S :    0.096270
  17 C :   -0.073729
  18 C :   -0.055709
  19 C :   -0.033623
  20 C :   -0.118691
  21 H :    0.019815
  22 C :    0.069193
  23 H :    0.007463
  24 H :    0.039785
  25 C :   -0.078144
  26 H :    0.040983
  27 H :    0.027544
  28 C :   -0.055578
  29 H :    0.043114
  30 H :    0.024302
  31 H :    0.026229
  32 H :    0.062103
  33 H :    0.038247
Sum of atomic charges:   -0.0000000

LOEWDIN ATOMIC CHARGES
----------------------
   0 S :    0.391601
   1 C :   -0.214110
   2 C :   -0.064700
   3 C :   -0.062507
   4 C :   -0.177092
   5 H :    0.029284
   6 C :   -0.019675
   7 H :    0.022478
   8 H :    0.026065
   9 C :   -0.045383
  10 H :    0.025951
  11 H :    0.022762
  12 C :   -0.067164
  13 H :    0.036108
  14 H :    0.032747
  15 H :    0.025470
  16 S :    0.395102
  17 C :   -0.168465
  18 C :   -0.070893
  19 C :   -0.054676
  20 C :   -0.204516
  21 H :    0.030390
  22 C :   -0.032143
  23 H :    0.018096
  24 H :    0.039952
  25 C :   -0.041542
  26 H :    0.031433
  27 H :    0.024812
  28 C :   -0.084539
  29 H :    0.041393
  30 H :    0.024170
  31 H :    0.024048
  32 H :    0.041352
  33 H :    0.024191

  Mayer bond orders larger than 0.100000
B(  0-S ,  1-C ) :   1.1316 B(  0-S ,  4-C ) :   1.1459 B(  1-C ,  2-C ) :   1.6276
B(  1-C ,  4-C ) :   0.1061 B(  1-C , 32-H ) :   0.9563 B(  2-C ,  3-C ) :   1.2481
B(  2-C ,  6-C ) :   0.9917 B(  3-C ,  4-C ) :   1.5678 B(  3-C ,  5-H ) :   0.9863
B(  4-C , 20-C ) :   1.0531 B(  6-C ,  7-H ) :   0.9479 B(  6-C ,  8-H ) :   0.9383
B(  6-C ,  9-C ) :   1.0728 B(  9-C , 10-H ) :   0.9511 B(  9-C , 11-H ) :   0.9579
B(  9-C , 12-C ) :   1.0618 B( 12-C , 13-H ) :   0.9763 B( 12-C , 14-H ) :   0.9724
B( 12-C , 15-H ) :   0.9744 B( 16-S , 17-C ) :   1.1385 B( 16-S , 20-C ) :   1.1335
B( 17-C , 18-C ) :   1.6418 B( 17-C , 33-H ) :   0.9714 B( 18-C , 19-C ) :   1.1988
B( 18-C , 21-H ) :   0.9922 B( 19-C , 20-C ) :   1.6038 B( 19-C , 22-C ) :   1.0370
B( 22-C , 23-H ) :   0.9403 B( 22-C , 24-H ) :   0.9280 B( 22-C , 25-C ) :   1.0694
B( 25-C , 26-H ) :   0.9584 B( 25-C , 27-H ) :   0.9561 B( 25-C , 28-C ) :   1.0582
B( 28-C , 29-H ) :   0.9754 B( 28-C , 30-H ) :   0.9726 B( 28-C , 31-H ) :   0.9754

Dispersion correction           -0.014977066
FINAL SINGLE POINT ENERGY     -1339.857888079828

DIPOLE MOMENT
-------------
                                X             Y             Z
Electronic contribution:    -24.57115       8.45461      -5.23697
Nuclear contribution   :     25.30077      -8.60200       5.30873
                        -----------------------------------------
Total Dipole Moment    :      0.72962      -0.14739       0.07176
                        -----------------------------------------
Magnitude (a.u.)       :      0.74781
Magnitude (Debye)      :      1.90077

Rotational constants in cm-1:     0.018092     0.009602     0.007317
Rotational constants in MHz :   542.391134   287.869541   219.359988

                             ****ORCA TERMINATED NORMALLY****
TOTAL RUN TIME: 0 days 0 hours 0 minutes 22 seconds 412 msec
