                         Program Version 4.2.1 -  RELEASE  -
|  1> ! wB97X-D3 SP def2-SVP
|  2> %pal
|  3> nprocs 24
|  4> end
|  5>
|  6> * xyz 0 1
|  7> S 	 36.5573 	 -24.4628 	 -121.56
|  8> C 	 36.1295 	 -23.8006 	 -123.165
|  9> C 	 37.1412 	 -23.8168 	 -124.085
| 10> C 	 38.3241 	 -24.3899 	 -123.483
| 11> C 	 38.1924 	 -24.6149 	 -122.136
| 12> H 	 39.2512 	 -24.3417 	 -123.866
| 13> C 	 37.0202 	 -23.4469 	 -125.545
| 14> H 	 36.161 	 -22.7142 	 -125.553
| 15> H 	 36.9597 	 -24.325 	 -126.269
| 16> C 	 38.1535 	 -22.4918 	 -126.177
| 17> H 	 39.0949 	 -23.0609 	 -126.443
| 18> H 	 37.7886 	 -22.1462 	 -127.144
| 19> C 	 38.2362 	 -21.1805 	 -125.432
| 20> H 	 39.0005 	 -20.5063 	 -125.809
| 21> H 	 37.2982 	 -20.6933 	 -125.389
| 22> H 	 38.5032 	 -21.3005 	 -124.412
| 23> S 	 38.8281 	 -26.2947 	 -120.018
| 24> C 	 40.4996 	 -26.4534 	 -119.413
| 25> C 	 41.3864 	 -25.5925 	 -120.118
| 26> C 	 40.652 	 -24.8153 	 -121.038
| 27> C 	 39.2503 	 -25.1021 	 -121.241
| 28> H 	 42.4923 	 -25.5761 	 -119.909
| 29> C 	 41.3913 	 -23.8272 	 -121.895
| 30> H 	 42.0623 	 -23.2866 	 -121.238
| 31> H 	 40.7048 	 -23.0848 	 -122.307
| 32> C 	 42.2912 	 -24.4696 	 -123.01
| 33> H 	 41.8044 	 -25.4126 	 -123.263
| 34> H 	 43.2016 	 -24.8431 	 -122.589
| 35> C 	 42.3812 	 -23.6022 	 -124.315
| 36> H 	 41.4639 	 -23.4162 	 -124.841
| 37> H 	 43.1067 	 -23.8944 	 -125.006
| 38> H 	 42.7054 	 -22.6041 	 -124.083
| 39> H 	 35.1815 	 -23.3537 	 -123.389
| 40> H 	 40.6544 	 -27.028 	 -118.533
| 41> *
| 42>
| 43>                          ****END OF INPUT****

CARTESIAN COORDINATES (ANGSTROEM)
---------------------------------
  S     36.557300  -24.462800  -121.560000
  C     36.129500  -23.800600  -123.165000
  C     37.141200  -23.816800  -124.085000
  C     38.324100  -24.389900  -123.483000
  C     38.192400  -24.614900  -122.136000
  H     39.251200  -24.341700  -123.866000
  C     37.020200  -23.446900  -125.545000
  H     36.161000  -22.714200  -125.553000
  H     36.959700  -24.325000  -126.269000
  C     38.153500  -22.491800  -126.177000
  H     39.094900  -23.060900  -126.443000
  H     37.788600  -22.146200  -127.144000
  C     38.236200  -21.180500  -125.432000
  H     39.000500  -20.506300  -125.809000
  H     37.298200  -20.693300  -125.389000
  H     38.503200  -21.300500  -124.412000
  S     38.828100  -26.294700  -120.018000
  C     40.499600  -26.453400  -119.413000
  C     41.386400  -25.592500  -120.118000
  C     40.652000  -24.815300  -121.038000
  C     39.250300  -25.102100  -121.241000
  H     42.492300  -25.576100  -119.909000
  C     41.391300  -23.827200  -121.895000
  H     42.062300  -23.286600  -121.238000
  H     40.704800  -23.084800  -122.307000
  C     42.291200  -24.469600  -123.010000
  H     41.804400  -25.412600  -123.263000
  H     43.201600  -24.843100  -122.589000
  C     42.381200  -23.602200  -124.315000
  H     41.463900  -23.416200  -124.841000
  H     43.106700  -23.894400  -125.006000
  H     42.705400  -22.604100  -124.083000
  H     35.181500  -23.353700  -123.389000
  H     40.654400  -27.028000  -118.533000

 Total Charge           Charge          ....    0
 Multiplicity           Mult            ....    1
 Number of Electrons    NEL             ....  134
 Basis Dimension        Dim             ....  322

ORBITAL ENERGIES
----------------

  NO   OCC          E(Eh)            E(eV)
   0   2.0000     -88.970639     -2421.0142
   1   2.0000     -88.965687     -2420.8794
   2   2.0000     -10.333756      -281.1958
   3   2.0000     -10.333131      -281.1788
   4   2.0000     -10.325154      -280.9617
   5   2.0000     -10.316141      -280.7165
   6   2.0000     -10.309903      -280.5467
   7   2.0000     -10.307319      -280.4764
   8   2.0000     -10.306739      -280.4606
   9   2.0000     -10.304915      -280.4110
  10   2.0000     -10.296737      -280.1885
  11   2.0000     -10.288774      -279.9718
  12   2.0000     -10.286503      -279.9100
  13   2.0000     -10.286374      -279.9065
  14   2.0000     -10.275335      -279.6061
  15   2.0000     -10.271046      -279.4894
  16   2.0000      -8.085067      -220.0058
  17   2.0000      -8.079721      -219.8604
  18   2.0000      -6.043617      -164.4552
  19   2.0000      -6.039899      -164.3540
  20   2.0000      -6.038089      -164.3048
  21   2.0000      -6.035511      -164.2346
  22   2.0000      -6.034182      -164.1984
  23   2.0000      -6.030821      -164.1070
  24   2.0000      -1.004344       -27.3296
  25   2.0000      -0.978920       -26.6378
  26   2.0000      -0.910246       -24.7690
  27   2.0000      -0.901895       -24.5418
  28   2.0000      -0.870221       -23.6799
  29   2.0000      -0.850714       -23.1491
  30   2.0000      -0.845904       -23.0182
  31   2.0000      -0.816452       -22.2168
  32   2.0000      -0.782535       -21.2939
  33   2.0000      -0.771127       -20.9834
  34   2.0000      -0.714280       -19.4366
  35   2.0000      -0.703600       -19.1459
  36   2.0000      -0.696610       -18.9557
  37   2.0000      -0.662150       -18.0180
  38   2.0000      -0.643434       -17.5087
  39   2.0000      -0.621980       -16.9249
  40   2.0000      -0.594141       -16.1674
  41   2.0000      -0.563755       -15.3406
  42   2.0000      -0.562786       -15.3142
  43   2.0000      -0.556619       -15.1464
  44   2.0000      -0.540063       -14.6959
  45   2.0000      -0.521757       -14.1977
  46   2.0000      -0.515847       -14.0369
  47   2.0000      -0.509734       -13.8706
  48   2.0000      -0.501881       -13.6569
  49   2.0000      -0.499568       -13.5939
  50   2.0000      -0.489577       -13.3221
  51   2.0000      -0.487795       -13.2736
  52   2.0000      -0.476778       -12.9738
  53   2.0000      -0.466457       -12.6929
  54   2.0000      -0.458524       -12.4771
  55   2.0000      -0.451093       -12.2749
  56   2.0000      -0.446706       -12.1555
  57   2.0000      -0.441137       -12.0039
  58   2.0000      -0.438203       -11.9241
  59   2.0000      -0.423897       -11.5348
  60   2.0000      -0.421229       -11.4622
  61   2.0000      -0.411289       -11.1917
  62   2.0000      -0.405360       -11.0304
  63   2.0000      -0.351437        -9.5631
  64   2.0000      -0.335943        -9.1415
  65   2.0000      -0.329460        -8.9651
  66   2.0000      -0.284834        -7.7507
  67   0.0000       0.020584         0.5601
  68   0.0000       0.069638         1.8950
  69   0.0000       0.095885         2.6092
  70   0.0000       0.114585         3.1180
  71   0.0000       0.125350         3.4109

MULLIKEN ATOMIC CHARGES
-----------------------
   0 S :    0.111553
   1 C :   -0.108428
   2 C :   -0.069785
   3 C :    0.102396
   4 C :   -0.135558
   5 H :   -0.058499
   6 C :    0.016453
   7 H :    0.025107
   8 H :    0.071912
   9 C :   -0.104361
  10 H :    0.045940
  11 H :    0.029087
  12 C :   -0.028362
  13 H :    0.034257
  14 H :    0.020015
  15 H :    0.022943
  16 S :    0.079364
  17 C :   -0.101322
  18 C :   -0.034411
  19 C :   -0.072898
  20 C :   -0.123576
  21 H :    0.052796
  22 C :    0.043766
  23 H :    0.020779
  24 H :    0.027398
  25 C :   -0.049048
  26 H :    0.029473
  27 H :    0.017435
  28 C :   -0.019759
  29 H :    0.026887
  30 H :    0.021119
  31 H :    0.013072
  32 H :    0.034843
  33 H :    0.059411
Sum of atomic charges:   -0.0000000

LOEWDIN ATOMIC CHARGES
----------------------
   0 S :    0.390478
   1 C :   -0.174609
   2 C :   -0.063153
   3 C :   -0.046308
   4 C :   -0.182603
   5 H :    0.008161
   6 C :   -0.035320
   7 H :    0.035888
   8 H :    0.046165
   9 C :   -0.049201
  10 H :    0.025411
  11 H :    0.026563
  12 C :   -0.065211
  13 H :    0.029189
  14 H :    0.022780
  15 H :    0.019233
  16 S :    0.392077
  17 C :   -0.167493
  18 C :   -0.075002
  19 C :   -0.059865
  20 C :   -0.199634
  21 H :    0.047997
  22 C :   -0.036299
  23 H :    0.028173
  24 H :    0.027564
  25 C :   -0.035544
  26 H :    0.023237
  27 H :    0.020162
  28 C :   -0.062310
  29 H :    0.023242
  30 H :    0.020413
  31 H :    0.023425
  32 H :    0.021831
  33 H :    0.020564

  Mayer bond orders larger than 0.100000
B(  0-S ,  1-C ) :   1.1166 B(  0-S ,  4-C ) :   1.1344 B(  1-C ,  2-C ) :   1.6618
B(  1-C , 32-H ) :   0.9625 B(  2-C ,  3-C ) :   1.1887 B(  2-C ,  6-C ) :   1.0226
B(  3-C ,  4-C ) :   1.6069 B(  3-C ,  5-H ) :   1.0006 B(  4-C , 20-C ) :   1.0563
B(  6-C ,  7-H ) :   0.9407 B(  6-C ,  8-H ) :   0.9426 B(  6-C ,  9-C ) :   1.0649
B(  9-C , 10-H ) :   0.9546 B(  9-C , 11-H ) :   0.9576 B(  9-C , 12-C ) :   1.0676
B( 12-C , 13-H ) :   0.9723 B( 12-C , 14-H ) :   0.9705 B( 12-C , 15-H ) :   0.9734
B( 16-S , 17-C ) :   1.1859 B( 16-S , 20-C ) :   1.1384 B( 17-C , 18-C ) :   1.5315
B( 17-C , 20-C ) :   0.1184 B( 17-C , 33-H ) :   0.9740 B( 18-C , 19-C ) :   1.2884
B( 18-C , 21-H ) :   0.9857 B( 19-C , 20-C ) :   1.5246 B( 19-C , 22-C ) :   1.0700
B( 22-C , 23-H ) :   0.9275 B( 22-C , 24-H ) :   0.9460 B( 22-C , 25-C ) :   1.0331
B( 25-C , 26-H ) :   0.9645 B( 25-C , 27-H ) :   0.9543 B( 25-C , 28-C ) :   1.0701
B( 28-C , 29-H ) :   0.9772 B( 28-C , 30-H ) :   0.9729 B( 28-C , 31-H ) :   0.9701

Dispersion correction           -0.015303695
FINAL SINGLE POINT ENERGY     -1339.852999099134

DIPOLE MOMENT
-------------
                                X             Y             Z
Electronic contribution:    -14.62337     -16.00826      23.92177
Nuclear contribution   :     15.06825      16.37881     -24.38437
                        -----------------------------------------
Total Dipole Moment    :      0.44488       0.37056      -0.46260
                        -----------------------------------------
Magnitude (a.u.)       :      0.74110
Magnitude (Debye)      :      1.88374

Rotational constants in cm-1:     0.017767     0.010349     0.006934
Rotational constants in MHz :   532.652096   310.243362   207.890418

                             ****ORCA TERMINATED NORMALLY****
TOTAL RUN TIME: 0 days 0 hours 0 minutes 22 seconds 382 msec
