                         Program Version 4.2.1 -  RELEASE  -
|  1> ! wB97X-D3 SP def2-SVP
|  2> %pal
|  3> nprocs 24
|  4> end
|  5>
|  6> * xyz 0 1
|  7> S 	 -16.0669 	 -32.2705 	 -105.978
|  8> C 	 -16.2157 	 -31.2061 	 -104.554
|  9> C 	 -15.6772 	 -31.8008 	 -103.438
| 10> C 	 -15.2667 	 -33.1591 	 -103.761
| 11> C 	 -15.2489 	 -33.5132 	 -105.051
| 12> H 	 -14.8139 	 -33.8948 	 -103.098
| 13> C 	 -15.7746 	 -31.2947 	 -102.063
| 14> H 	 -16.7559 	 -31.4194 	 -101.581
| 15> H 	 -15.6533 	 -30.1938 	 -102.149
| 16> C 	 -14.7725 	 -31.8171 	 -100.967
| 17> H 	 -15.1574 	 -31.4086 	 -100.008
| 18> H 	 -14.8392 	 -32.9286 	 -100.923
| 19> C 	 -13.3586 	 -31.1744 	 -101.16
| 20> H 	 -13.2657 	 -30.1001 	 -101.093
| 21> H 	 -12.7881 	 -31.5684 	 -100.319
| 22> H 	 -12.9064 	 -31.4191 	 -102.094
| 23> S 	 -16.2868 	 -35.7093 	 -106.23
| 24> C 	 -15.3432 	 -37.1164 	 -106.603
| 25> C 	 -14.0438 	 -36.8631 	 -106.307
| 26> C 	 -13.7847 	 -35.5968 	 -105.685
| 27> C 	 -14.9267 	 -34.8264 	 -105.608
| 28> H 	 -13.3082 	 -37.6326 	 -106.565
| 29> C 	 -12.3984 	 -35.1515 	 -105.14
| 30> H 	 -11.8842 	 -36.0243 	 -104.719
| 31> H 	 -12.606 	 -34.357 	 -104.325
| 32> C 	 -11.5721 	 -34.375 	 -106.233
| 33> H 	 -11.6084 	 -34.7551 	 -107.161
| 34> H 	 -10.5767 	 -34.5254 	 -105.955
| 35> C 	 -11.9295 	 -32.8652 	 -106.363
| 36> H 	 -11.9945 	 -32.3275 	 -105.386
| 37> H 	 -12.8973 	 -32.837 	 -106.907
| 38> H 	 -11.1739 	 -32.4133 	 -107.019
| 39> H 	 -16.8442 	 -30.307 	 -104.59
| 40> H 	 -15.7216 	 -38.0247 	 -107.019
| 41> *
| 42>
| 43>                          ****END OF INPUT****

CARTESIAN COORDINATES (ANGSTROEM)
---------------------------------
  S    -16.066900  -32.270500  -105.978000
  C    -16.215700  -31.206100  -104.554000
  C    -15.677200  -31.800800  -103.438000
  C    -15.266700  -33.159100  -103.761000
  C    -15.248900  -33.513200  -105.051000
  H    -14.813900  -33.894800  -103.098000
  C    -15.774600  -31.294700  -102.063000
  H    -16.755900  -31.419400  -101.581000
  H    -15.653300  -30.193800  -102.149000
  C    -14.772500  -31.817100  -100.967000
  H    -15.157400  -31.408600  -100.008000
  H    -14.839200  -32.928600  -100.923000
  C    -13.358600  -31.174400  -101.160000
  H    -13.265700  -30.100100  -101.093000
  H    -12.788100  -31.568400  -100.319000
  H    -12.906400  -31.419100  -102.094000
  S    -16.286800  -35.709300  -106.230000
  C    -15.343200  -37.116400  -106.603000
  C    -14.043800  -36.863100  -106.307000
  C    -13.784700  -35.596800  -105.685000
  C    -14.926700  -34.826400  -105.608000
  H    -13.308200  -37.632600  -106.565000
  C    -12.398400  -35.151500  -105.140000
  H    -11.884200  -36.024300  -104.719000
  H    -12.606000  -34.357000  -104.325000
  C    -11.572100  -34.375000  -106.233000
  H    -11.608400  -34.755100  -107.161000
  H    -10.576700  -34.525400  -105.955000
  C    -11.929500  -32.865200  -106.363000
  H    -11.994500  -32.327500  -105.386000
  H    -12.897300  -32.837000  -106.907000
  H    -11.173900  -32.413300  -107.019000
  H    -16.844200  -30.307000  -104.590000
  H    -15.721600  -38.024700  -107.019000

 Total Charge           Charge          ....    0
 Multiplicity           Mult            ....    1
 Number of Electrons    NEL             ....  134
 Basis Dimension        Dim             ....  322

ORBITAL ENERGIES
----------------

  NO   OCC          E(Eh)            E(eV)
   0   2.0000     -88.961724     -2420.7716
   1   2.0000     -88.960256     -2420.7316
   2   2.0000     -10.325328      -280.9665
   3   2.0000     -10.324226      -280.9365
   4   2.0000     -10.318156      -280.7713
   5   2.0000     -10.312544      -280.6186
   6   2.0000     -10.305492      -280.4267
   7   2.0000     -10.303520      -280.3730
   8   2.0000     -10.302394      -280.3424
   9   2.0000     -10.299007      -280.2502
  10   2.0000     -10.292610      -280.0762
  11   2.0000     -10.292294      -280.0676
  12   2.0000     -10.290377      -280.0154
  13   2.0000     -10.277465      -279.6640
  14   2.0000     -10.276552      -279.6392
  15   2.0000     -10.271854      -279.5114
  16   2.0000      -8.076084      -219.7614
  17   2.0000      -8.075796      -219.7536
  18   2.0000      -6.034730      -164.2134
  19   2.0000      -6.034336      -164.2026
  20   2.0000      -6.030622      -164.1016
  21   2.0000      -6.030053      -164.0861
  22   2.0000      -6.026723      -163.9955
  23   2.0000      -6.026592      -163.9919
  24   2.0000      -1.009822       -27.4787
  25   2.0000      -0.986192       -26.8356
  26   2.0000      -0.909591       -24.7512
  27   2.0000      -0.899984       -24.4898
  28   2.0000      -0.871559       -23.7163
  29   2.0000      -0.844600       -22.9827
  30   2.0000      -0.839490       -22.8437
  31   2.0000      -0.820011       -22.3136
  32   2.0000      -0.780259       -21.2319
  33   2.0000      -0.769632       -20.9428
  34   2.0000      -0.711299       -19.3554
  35   2.0000      -0.699351       -19.0303
  36   2.0000      -0.692805       -18.8522
  37   2.0000      -0.657351       -17.8874
  38   2.0000      -0.644005       -17.5243
  39   2.0000      -0.620545       -16.8859
  40   2.0000      -0.595272       -16.1982
  41   2.0000      -0.566333       -15.4107
  42   2.0000      -0.550888       -14.9904
  43   2.0000      -0.546146       -14.8614
  44   2.0000      -0.536995       -14.6124
  45   2.0000      -0.535143       -14.5620
  46   2.0000      -0.520545       -14.1647
  47   2.0000      -0.510678       -13.8963
  48   2.0000      -0.502949       -13.6859
  49   2.0000      -0.498431       -13.5630
  50   2.0000      -0.489340       -13.3156
  51   2.0000      -0.480223       -13.0675
  52   2.0000      -0.471592       -12.8327
  53   2.0000      -0.463901       -12.6234
  54   2.0000      -0.462812       -12.5937
  55   2.0000      -0.441044       -12.0014
  56   2.0000      -0.439298       -11.9539
  57   2.0000      -0.435612       -11.8536
  58   2.0000      -0.431795       -11.7497
  59   2.0000      -0.426172       -11.5967
  60   2.0000      -0.416523       -11.3342
  61   2.0000      -0.411998       -11.2110
  62   2.0000      -0.407999       -11.1022
  63   2.0000      -0.344173        -9.3654
  64   2.0000      -0.326732        -8.8908
  65   2.0000      -0.324281        -8.8241
  66   2.0000      -0.303964        -8.2713
  67   0.0000       0.038781         1.0553
  68   0.0000       0.066409         1.8071
  69   0.0000       0.120600         3.2817
  70   0.0000       0.121698         3.3116
  71   0.0000       0.123429         3.3587

MULLIKEN ATOMIC CHARGES
-----------------------
   0 S :    0.090887
   1 C :   -0.140065
   2 C :   -0.030754
   3 C :    0.034102
   4 C :   -0.160397
   5 H :    0.014843
   6 C :    0.009752
   7 H :    0.049091
   8 H :    0.025925
   9 C :   -0.097587
  10 H :    0.032460
  11 H :    0.049327
  12 C :   -0.043680
  13 H :    0.030103
  14 H :    0.034182
  15 H :    0.032920
  16 S :    0.104204
  17 C :   -0.082039
  18 C :   -0.050841
  19 C :   -0.024785
  20 C :   -0.174378
  21 H :    0.021802
  22 C :    0.034799
  23 H :    0.035344
  24 H :    0.037297
  25 C :   -0.000733
  26 H :   -0.002424
  27 H :    0.006965
  28 C :   -0.076694
  29 H :    0.046613
  30 H :    0.043694
  31 H :    0.037548
  32 H :    0.062485
  33 H :    0.050033
Sum of atomic charges:   -0.0000000

LOEWDIN ATOMIC CHARGES
----------------------
   0 S :    0.382191
   1 C :   -0.179313
   2 C :   -0.068143
   3 C :   -0.063827
   4 C :   -0.195492
   5 H :    0.030605
   6 C :   -0.046051
   7 H :    0.037183
   8 H :    0.034934
   9 C :   -0.038009
  10 H :    0.029360
  11 H :    0.027987
  12 C :   -0.066309
  13 H :    0.026119
  14 H :    0.028098
  15 H :    0.020106
  16 S :    0.416539
  17 C :   -0.184838
  18 C :   -0.079309
  19 C :   -0.057750
  20 C :   -0.206036
  21 H :    0.033611
  22 C :   -0.027848
  23 H :    0.030343
  24 H :    0.039601
  25 C :   -0.028789
  26 H :    0.008507
  27 H :    0.014804
  28 C :   -0.064846
  29 H :    0.027961
  30 H :    0.028563
  31 H :    0.027801
  32 H :    0.033625
  33 H :    0.028622

  Mayer bond orders larger than 0.100000
B(  0-S ,  1-C ) :   1.1310 B(  0-S ,  4-C ) :   1.1236 B(  1-C ,  2-C ) :   1.6208
B(  1-C , 32-H ) :   0.9697 B(  2-C ,  3-C ) :   1.1955 B(  2-C ,  6-C ) :   1.0323
B(  3-C ,  4-C ) :   1.6551 B(  3-C ,  5-H ) :   0.9777 B(  4-C , 20-C ) :   0.9961
B(  6-C ,  7-H ) :   0.9380 B(  6-C ,  8-H ) :   0.9377 B(  6-C ,  9-C ) :   1.0794
B(  9-C , 10-H ) :   0.9553 B(  9-C , 11-H ) :   0.9535 B(  9-C , 12-C ) :   1.0662
B( 12-C , 13-H ) :   0.9745 B( 12-C , 14-H ) :   0.9761 B( 12-C , 15-H ) :   0.9803
B( 16-S , 17-C ) :   1.1528 B( 16-S , 20-C ) :   1.1580 B( 17-C , 18-C ) :   1.6155
B( 17-C , 33-H ) :   0.9732 B( 18-C , 19-C ) :   1.2345 B( 18-C , 21-H ) :   0.9890
B( 19-C , 20-C ) :   1.6105 B( 19-C , 22-C ) :   1.0306 B( 22-C , 23-H ) :   0.9414
B( 22-C , 24-H ) :   0.9407 B( 22-C , 25-C ) :   1.0553 B( 25-C , 26-H ) :   0.9551
B( 25-C , 27-H ) :   0.9544 B( 25-C , 28-C ) :   1.0792 B( 28-C , 29-H ) :   0.9759
B( 28-C , 30-H ) :   0.9729 B( 28-C , 31-H ) :   0.9731

Dispersion correction           -0.015395488
FINAL SINGLE POINT ENERGY     -1339.873196148551

DIPOLE MOMENT
-------------
                                X             Y             Z
Electronic contribution:    -18.90778      -9.60312     -15.24475
Nuclear contribution   :     19.25913       9.53398      15.73250
                        -----------------------------------------
Total Dipole Moment    :      0.35135      -0.06914       0.48775
                        -----------------------------------------
Magnitude (a.u.)       :      0.60509
Magnitude (Debye)      :      1.53800

Rotational constants in cm-1:     0.018855     0.009343     0.007987
Rotational constants in MHz :   565.270400   280.084517   239.445699

                             ****ORCA TERMINATED NORMALLY****
TOTAL RUN TIME: 0 days 0 hours 0 minutes 21 seconds 337 msec
