                         Program Version 4.2.1 -  RELEASE  -
|  1> ! wB97X-D3 SP def2-SVP
|  2> %pal
|  3> nprocs 24
|  4> end
|  5>
|  6> * xyz 0 1
|  7> S 	 20.6389 	 -24.7605 	 -119.072
|  8> C 	 21.0488 	 -26.2098 	 -119.94
|  9> C 	 22.3058 	 -26.6275 	 -119.647
| 10> C 	 22.7941 	 -25.8953 	 -118.468
| 11> C 	 21.9998 	 -24.9364 	 -117.981
| 12> H 	 23.6621 	 -26.0745 	 -117.849
| 13> C 	 23.0899 	 -27.7915 	 -120.222
| 14> H 	 24.1492 	 -27.519 	 -120.262
| 15> H 	 22.8212 	 -27.872 	 -121.279
| 16> C 	 22.7124 	 -29.0986 	 -119.473
| 17> H 	 22.9079 	 -28.9575 	 -118.413
| 18> H 	 21.5934 	 -29.1388 	 -119.602
| 19> C 	 23.3034 	 -30.4201 	 -119.981
| 20> H 	 22.8158 	 -30.6464 	 -120.985
| 21> H 	 24.3984 	 -30.3721 	 -120.022
| 22> H 	 22.9414 	 -31.2786 	 -119.394
| 23> S 	 23.8131 	 -23.6898 	 -116.296
| 24> C 	 23.2247 	 -22.7195 	 -115.003
| 25> C 	 21.9066 	 -22.9151 	 -114.771
| 26> C 	 21.3054 	 -23.7931 	 -115.743
| 27> C 	 22.2223 	 -24.2275 	 -116.715
| 28> H 	 21.4249 	 -22.3716 	 -114.05
| 29> C 	 19.7987 	 -24.0967 	 -115.778
| 30> H 	 19.4124 	 -23.6322 	 -116.732
| 31> H 	 19.2167 	 -23.4887 	 -115.024
| 32> C 	 19.5481 	 -25.5678 	 -115.671
| 33> H 	 20.4011 	 -26.0241 	 -115.097
| 34> H 	 19.5205 	 -26.0538 	 -116.634
| 35> C 	 18.2491 	 -25.9361 	 -115.041
| 36> H 	 18.2072 	 -27.0004 	 -114.68
| 37> H 	 17.4738 	 -25.7232 	 -115.809
| 38> H 	 18.0469 	 -25.4473 	 -114.067
| 39> H 	 20.6209 	 -26.7151 	 -120.762
| 40> H 	 23.7885 	 -21.8981 	 -114.513
| 41> *
| 42>
| 43>                          ****END OF INPUT****

CARTESIAN COORDINATES (ANGSTROEM)
---------------------------------
  S     20.638900  -24.760500  -119.072000
  C     21.048800  -26.209800  -119.940000
  C     22.305800  -26.627500  -119.647000
  C     22.794100  -25.895300  -118.468000
  C     21.999800  -24.936400  -117.981000
  H     23.662100  -26.074500  -117.849000
  C     23.089900  -27.791500  -120.222000
  H     24.149200  -27.519000  -120.262000
  H     22.821200  -27.872000  -121.279000
  C     22.712400  -29.098600  -119.473000
  H     22.907900  -28.957500  -118.413000
  H     21.593400  -29.138800  -119.602000
  C     23.303400  -30.420100  -119.981000
  H     22.815800  -30.646400  -120.985000
  H     24.398400  -30.372100  -120.022000
  H     22.941400  -31.278600  -119.394000
  S     23.813100  -23.689800  -116.296000
  C     23.224700  -22.719500  -115.003000
  C     21.906600  -22.915100  -114.771000
  C     21.305400  -23.793100  -115.743000
  C     22.222300  -24.227500  -116.715000
  H     21.424900  -22.371600  -114.050000
  C     19.798700  -24.096700  -115.778000
  H     19.412400  -23.632200  -116.732000
  H     19.216700  -23.488700  -115.024000
  C     19.548100  -25.567800  -115.671000
  H     20.401100  -26.024100  -115.097000
  H     19.520500  -26.053800  -116.634000
  C     18.249100  -25.936100  -115.041000
  H     18.207200  -27.000400  -114.680000
  H     17.473800  -25.723200  -115.809000
  H     18.046900  -25.447300  -114.067000
  H     20.620900  -26.715100  -120.762000
  H     23.788500  -21.898100  -114.513000

 Total Charge           Charge          ....    0
 Multiplicity           Mult            ....    1
 Number of Electrons    NEL             ....  134
 Basis Dimension        Dim             ....  322

ORBITAL ENERGIES
----------------

  NO   OCC          E(Eh)            E(eV)
   0   2.0000     -88.966446     -2420.9001
   1   2.0000     -88.966305     -2420.8962
   2   2.0000     -10.327136      -281.0156
   3   2.0000     -10.325667      -280.9757
   4   2.0000     -10.315122      -280.6887
   5   2.0000     -10.308544      -280.5098
   6   2.0000     -10.306567      -280.4560
   7   2.0000     -10.301481      -280.3175
   8   2.0000     -10.295963      -280.1674
   9   2.0000     -10.294321      -280.1227
  10   2.0000     -10.292441      -280.0716
  11   2.0000     -10.287228      -279.9297
  12   2.0000     -10.287187      -279.9286
  13   2.0000     -10.286926      -279.9215
  14   2.0000     -10.276345      -279.6336
  15   2.0000     -10.274516      -279.5838
  16   2.0000      -8.081965      -219.9215
  17   2.0000      -8.080479      -219.8810
  18   2.0000      -6.040444      -164.3688
  19   2.0000      -6.039324      -164.3384
  20   2.0000      -6.036333      -164.2570
  21   2.0000      -6.035153      -164.2249
  22   2.0000      -6.032760      -164.1598
  23   2.0000      -6.030814      -164.1068
  24   2.0000      -1.011923       -27.5358
  25   2.0000      -0.990850       -26.9624
  26   2.0000      -0.912508       -24.8306
  27   2.0000      -0.909103       -24.7379
  28   2.0000      -0.875904       -23.8346
  29   2.0000      -0.851154       -23.1611
  30   2.0000      -0.842582       -22.9278
  31   2.0000      -0.821533       -22.3550
  32   2.0000      -0.781025       -21.2528
  33   2.0000      -0.770089       -20.9552
  34   2.0000      -0.705442       -19.1961
  35   2.0000      -0.697044       -18.9675
  36   2.0000      -0.684094       -18.6152
  37   2.0000      -0.667003       -18.1501
  38   2.0000      -0.635604       -17.2957
  39   2.0000      -0.617605       -16.8059
  40   2.0000      -0.596220       -16.2240
  41   2.0000      -0.575562       -15.6618
  42   2.0000      -0.564110       -15.3502
  43   2.0000      -0.561003       -15.2657
  44   2.0000      -0.527011       -14.3407
  45   2.0000      -0.522328       -14.2133
  46   2.0000      -0.520965       -14.1762
  47   2.0000      -0.513294       -13.9674
  48   2.0000      -0.508611       -13.8400
  49   2.0000      -0.504386       -13.7250
  50   2.0000      -0.492069       -13.3899
  51   2.0000      -0.480449       -13.0737
  52   2.0000      -0.469905       -12.7868
  53   2.0000      -0.461053       -12.5459
  54   2.0000      -0.459270       -12.4974
  55   2.0000      -0.448180       -12.1956
  56   2.0000      -0.441157       -12.0045
  57   2.0000      -0.432047       -11.7566
  58   2.0000      -0.425396       -11.5756
  59   2.0000      -0.420863       -11.4523
  60   2.0000      -0.419677       -11.4200
  61   2.0000      -0.414360       -11.2753
  62   2.0000      -0.403519       -10.9803
  63   2.0000      -0.359488        -9.7822
  64   2.0000      -0.331232        -9.0133
  65   2.0000      -0.325508        -8.8575
  66   2.0000      -0.291753        -7.9390
  67   0.0000       0.027858         0.7581
  68   0.0000       0.079557         2.1649
  69   0.0000       0.108549         2.9538
  70   0.0000       0.123004         3.3471
  71   0.0000       0.134567         3.6618

MULLIKEN ATOMIC CHARGES
-----------------------
   0 S :    0.104401
   1 C :   -0.081884
   2 C :   -0.111844
   3 C :   -0.005508
   4 C :   -0.106705
   5 H :    0.003824
   6 C :    0.075919
   7 H :    0.033054
   8 H :    0.014549
   9 C :   -0.097129
  10 H :    0.034036
  11 H :    0.029373
  12 C :   -0.039287
  13 H :    0.032685
  14 H :    0.045255
  15 H :    0.040636
  16 S :    0.109557
  17 C :   -0.096914
  18 C :    0.000479
  19 C :   -0.066628
  20 C :   -0.150145
  21 H :   -0.016342
  22 C :    0.044995
  23 H :    0.042537
  24 H :    0.022671
  25 C :   -0.059606
  26 H :    0.040657
  27 H :    0.035819
  28 C :   -0.076198
  29 H :    0.035260
  30 H :    0.041161
  31 H :    0.025672
  32 H :    0.023761
  33 H :    0.071888
Sum of atomic charges:   -0.0000000

LOEWDIN ATOMIC CHARGES
----------------------
   0 S :    0.405553
   1 C :   -0.196327
   2 C :   -0.056198
   3 C :   -0.069043
   4 C :   -0.186456
   5 H :    0.023397
   6 C :   -0.034478
   7 H :    0.031592
   8 H :    0.027423
   9 C :   -0.044205
  10 H :    0.022991
  11 H :    0.030375
  12 C :   -0.073155
  13 H :    0.032080
  14 H :    0.026563
  15 H :    0.030934
  16 S :    0.425775
  17 C :   -0.194424
  18 C :   -0.064160
  19 C :   -0.047454
  20 C :   -0.205000
  21 H :    0.017945
  22 C :   -0.043085
  23 H :    0.032004
  24 H :    0.032706
  25 C :   -0.055219
  26 H :    0.030476
  27 H :    0.023759
  28 C :   -0.074162
  29 H :    0.031779
  30 H :    0.029849
  31 H :    0.021473
  32 H :    0.025695
  33 H :    0.040996

  Mayer bond orders larger than 0.100000
B(  0-S ,  1-C ) :   1.1140 B(  0-S ,  4-C ) :   1.1042 B(  1-C ,  2-C ) :   1.6712
B(  1-C , 32-H ) :   0.9614 B(  2-C ,  3-C ) :   1.1744 B(  2-C ,  6-C ) :   1.0391
B(  3-C ,  4-C ) :   1.6522 B(  3-C ,  5-H ) :   0.9922 B(  4-C , 20-C ) :   1.0439
B(  6-C ,  7-H ) :   0.9390 B(  6-C ,  8-H ) :   0.9338 B(  6-C ,  9-C ) :   1.0488
B(  9-C , 10-H ) :   0.9600 B(  9-C , 11-H ) :   0.9553 B(  9-C , 12-C ) :   1.0822
B( 12-C , 13-H ) :   0.9726 B( 12-C , 14-H ) :   0.9748 B( 12-C , 15-H ) :   0.9718
B( 16-S , 17-C ) :   1.1619 B( 16-S , 20-C ) :   1.1446 B( 17-C , 18-C ) :   1.6108
B( 17-C , 33-H ) :   0.9593 B( 18-C , 19-C ) :   1.2432 B( 18-C , 21-H ) :   1.0088
B( 19-C , 20-C ) :   1.5638 B( 19-C , 22-C ) :   1.0409 B( 22-C , 23-H ) :   0.9269
B( 22-C , 24-H ) :   0.9448 B( 22-C , 25-C ) :   1.0401 B( 25-C , 26-H ) :   0.9635
B( 25-C , 27-H ) :   0.9405 B( 25-C , 28-C ) :   1.0983 B( 28-C , 29-H ) :   0.9722
B( 28-C , 30-H ) :   0.9732 B( 28-C , 31-H ) :   0.9743

Dispersion correction           -0.014462812
FINAL SINGLE POINT ENERGY     -1339.869626021780

DIPOLE MOMENT
-------------
                                X             Y             Z
Electronic contribution:      8.28703      21.15504      -0.12135
Nuclear contribution   :     -8.32739     -21.42094       0.19521
                        -----------------------------------------
Total Dipole Moment    :     -0.04036      -0.26590       0.07386
                        -----------------------------------------
Magnitude (a.u.)       :      0.27891
Magnitude (Debye)      :      0.70893

Rotational constants in cm-1:     0.018843     0.008332     0.007072
Rotational constants in MHz :   564.905869   249.794321   212.008288

                             ****ORCA TERMINATED NORMALLY****
TOTAL RUN TIME: 0 days 0 hours 0 minutes 20 seconds 545 msec
