                         Program Version 4.2.1 -  RELEASE  -
|  1> ! wB97X-D3 SP def2-SVP
|  2> %pal
|  3> nprocs 24
|  4> end
|  5>
|  6> * xyz 0 1
|  7> S 	 -71.7693 	 18.4584 	 -78.1802
|  8> C 	 -72.0712 	 19.5011 	 -76.7994
|  9> C 	 -70.98 	 19.5719 	 -75.9745
| 10> C 	 -69.9197 	 18.7721 	 -76.4988
| 11> C 	 -70.133 	 18.2194 	 -77.722
| 12> H 	 -68.9356 	 18.7346 	 -76.0155
| 13> C 	 -70.7716 	 20.3795 	 -74.6977
| 14> H 	 -70.9072 	 19.7279 	 -73.8411
| 15> H 	 -71.5755 	 21.1412 	 -74.7349
| 16> C 	 -69.4714 	 21.1951 	 -74.6728
| 17> H 	 -68.5526 	 20.576 	 -74.666
| 18> H 	 -69.3649 	 21.7596 	 -75.6176
| 19> C 	 -69.2172 	 22.1953 	 -73.4548
| 20> H 	 -70.0629 	 22.9753 	 -73.3406
| 21> H 	 -69.1233 	 21.5752 	 -72.5535
| 22> H 	 -68.2008 	 22.6572 	 -73.614
| 23> S 	 -69.7029 	 15.8912 	 -79.1298
| 24> C 	 -68.3127 	 15.6432 	 -80.0853
| 25> C 	 -67.455 	 16.7175 	 -79.8822
| 26> C 	 -67.9325 	 17.8664 	 -79.1302
| 27> C 	 -69.2147 	 17.5106 	 -78.6121
| 28> H 	 -66.4251 	 16.5915 	 -80.2719
| 29> C 	 -67.0818 	 19.0263 	 -78.7357
| 30> H 	 -67.7441 	 19.6163 	 -78.1307
| 31> H 	 -66.9098 	 19.659 	 -79.5849
| 32> C 	 -65.626 	 18.8912 	 -78.1917
| 33> H 	 -65.2588 	 19.9516 	 -78.0627
| 34> H 	 -65.0334 	 18.5209 	 -79.0461
| 35> C 	 -65.4468 	 17.9359 	 -76.9634
| 36> H 	 -64.464 	 17.5773 	 -76.8333
| 37> H 	 -66.167 	 17.1288 	 -77.0395
| 38> H 	 -65.6386 	 18.4265 	 -76.0348
| 39> H 	 -73.021 	 20.0327 	 -76.4511
| 40> H 	 -68.0568 	 14.7333 	 -80.6522
| 41> *
| 42>
| 43>                          ****END OF INPUT****

CARTESIAN COORDINATES (ANGSTROEM)
---------------------------------
  S    -71.769300   18.458400  -78.180200
  C    -72.071200   19.501100  -76.799400
  C    -70.980000   19.571900  -75.974500
  C    -69.919700   18.772100  -76.498800
  C    -70.133000   18.219400  -77.722000
  H    -68.935600   18.734600  -76.015500
  C    -70.771600   20.379500  -74.697700
  H    -70.907200   19.727900  -73.841100
  H    -71.575500   21.141200  -74.734900
  C    -69.471400   21.195100  -74.672800
  H    -68.552600   20.576000  -74.666000
  H    -69.364900   21.759600  -75.617600
  C    -69.217200   22.195300  -73.454800
  H    -70.062900   22.975300  -73.340600
  H    -69.123300   21.575200  -72.553500
  H    -68.200800   22.657200  -73.614000
  S    -69.702900   15.891200  -79.129800
  C    -68.312700   15.643200  -80.085300
  C    -67.455000   16.717500  -79.882200
  C    -67.932500   17.866400  -79.130200
  C    -69.214700   17.510600  -78.612100
  H    -66.425100   16.591500  -80.271900
  C    -67.081800   19.026300  -78.735700
  H    -67.744100   19.616300  -78.130700
  H    -66.909800   19.659000  -79.584900
  C    -65.626000   18.891200  -78.191700
  H    -65.258800   19.951600  -78.062700
  H    -65.033400   18.520900  -79.046100
  C    -65.446800   17.935900  -76.963400
  H    -64.464000   17.577300  -76.833300
  H    -66.167000   17.128800  -77.039500
  H    -65.638600   18.426500  -76.034800
  H    -73.021000   20.032700  -76.451100
  H    -68.056800   14.733300  -80.652200

 Total Charge           Charge          ....    0
 Multiplicity           Mult            ....    1
 Number of Electrons    NEL             ....  134
 Basis Dimension        Dim             ....  322

ORBITAL ENERGIES
----------------

  NO   OCC          E(Eh)            E(eV)
   0   2.0000     -88.966084     -2420.8902
   1   2.0000     -88.965664     -2420.8788
   2   2.0000     -10.333694      -281.1941
   3   2.0000     -10.324966      -280.9566
   4   2.0000     -10.318131      -280.7706
   5   2.0000     -10.317506      -280.7536
   6   2.0000     -10.311766      -280.5974
   7   2.0000     -10.300483      -280.2904
   8   2.0000     -10.299751      -280.2705
   9   2.0000     -10.298353      -280.2324
  10   2.0000     -10.297026      -280.1963
  11   2.0000     -10.296518      -280.1825
  12   2.0000     -10.296236      -280.1748
  13   2.0000     -10.289269      -279.9852
  14   2.0000     -10.288843      -279.9736
  15   2.0000     -10.273322      -279.5513
  16   2.0000      -8.081160      -219.8995
  17   2.0000      -8.080888      -219.8921
  18   2.0000      -6.039609      -164.3461
  19   2.0000      -6.039445      -164.3417
  20   2.0000      -6.035448      -164.2329
  21   2.0000      -6.035321      -164.2294
  22   2.0000      -6.032118      -164.1423
  23   2.0000      -6.031531      -164.1263
  24   2.0000      -1.010005       -27.4836
  25   2.0000      -0.986016       -26.8309
  26   2.0000      -0.909235       -24.7415
  27   2.0000      -0.907501       -24.6944
  28   2.0000      -0.866964       -23.5913
  29   2.0000      -0.848099       -23.0780
  30   2.0000      -0.839888       -22.8545
  31   2.0000      -0.812089       -22.0981
  32   2.0000      -0.789505       -21.4835
  33   2.0000      -0.776228       -21.1222
  34   2.0000      -0.713138       -19.4055
  35   2.0000      -0.699704       -19.0399
  36   2.0000      -0.688654       -18.7392
  37   2.0000      -0.648294       -17.6410
  38   2.0000      -0.635726       -17.2990
  39   2.0000      -0.620737       -16.8911
  40   2.0000      -0.594808       -16.1855
  41   2.0000      -0.568573       -15.4717
  42   2.0000      -0.559993       -15.2382
  43   2.0000      -0.550708       -14.9855
  44   2.0000      -0.537739       -14.6326
  45   2.0000      -0.523174       -14.2363
  46   2.0000      -0.521541       -14.1918
  47   2.0000      -0.506686       -13.7876
  48   2.0000      -0.502579       -13.6759
  49   2.0000      -0.494903       -13.4670
  50   2.0000      -0.494176       -13.4472
  51   2.0000      -0.482184       -13.1209
  52   2.0000      -0.466889       -12.7047
  53   2.0000      -0.464470       -12.6389
  54   2.0000      -0.460332       -12.5263
  55   2.0000      -0.449745       -12.2382
  56   2.0000      -0.442348       -12.0369
  57   2.0000      -0.437743       -11.9116
  58   2.0000      -0.435903       -11.8615
  59   2.0000      -0.425438       -11.5767
  60   2.0000      -0.421377       -11.4662
  61   2.0000      -0.416515       -11.3339
  62   2.0000      -0.413196       -11.2436
  63   2.0000      -0.342162        -9.3107
  64   2.0000      -0.332157        -9.0384
  65   2.0000      -0.326249        -8.8777
  66   2.0000      -0.297265        -8.0890
  67   0.0000       0.033360         0.9078
  68   0.0000       0.070378         1.9151
  69   0.0000       0.112392         3.0583
  70   0.0000       0.119353         3.2478
  71   0.0000       0.126092         3.4311

MULLIKEN ATOMIC CHARGES
-----------------------
   0 S :    0.122912
   1 C :   -0.139322
   2 C :   -0.126876
   3 C :    0.032546
   4 C :   -0.152144
   5 H :    0.009692
   6 C :    0.120491
   7 H :    0.046312
   8 H :    0.018276
   9 C :   -0.143534
  10 H :    0.031781
  11 H :    0.040189
  12 C :   -0.082962
  13 H :    0.054201
  14 H :    0.037178
  15 H :    0.049186
  16 S :    0.116200
  17 C :   -0.100319
  18 C :   -0.076829
  19 C :   -0.012314
  20 C :   -0.180244
  21 H :    0.027451
  22 C :    0.082998
  23 H :    0.011758
  24 H :    0.023692
  25 C :   -0.093935
  26 H :    0.041685
  27 H :    0.031944
  28 C :   -0.012877
  29 H :    0.024413
  30 H :    0.042871
  31 H :    0.018448
  32 H :    0.064475
  33 H :    0.072657
Sum of atomic charges:   -0.0000000

LOEWDIN ATOMIC CHARGES
----------------------
   0 S :    0.420694
   1 C :   -0.210824
   2 C :   -0.071126
   3 C :   -0.066173
   4 C :   -0.210116
   5 H :    0.030259
   6 C :   -0.029773
   7 H :    0.033892
   8 H :    0.033476
   9 C :   -0.051433
  10 H :    0.021594
  11 H :    0.027496
  12 C :   -0.074145
  13 H :    0.032618
  14 H :    0.023845
  15 H :    0.034874
  16 S :    0.421751
  17 C :   -0.212236
  18 C :   -0.079773
  19 C :   -0.051878
  20 C :   -0.195324
  21 H :    0.030932
  22 C :   -0.039949
  23 H :    0.026944
  24 H :    0.036606
  25 C :   -0.036898
  26 H :    0.033930
  27 H :    0.024093
  28 C :   -0.064063
  29 H :    0.021502
  30 H :    0.030075
  31 H :    0.021894
  32 H :    0.046575
  33 H :    0.040662

  Mayer bond orders larger than 0.100000
B(  0-S ,  1-C ) :   1.1336 B(  0-S ,  4-C ) :   1.1540 B(  1-C ,  2-C ) :   1.6451
B(  1-C , 32-H ) :   0.9513 B(  2-C ,  3-C ) :   1.2396 B(  2-C ,  6-C ) :   1.0131
B(  3-C ,  4-C ) :   1.5889 B(  3-C ,  5-H ) :   0.9928 B(  4-C , 20-C ) :   1.0146
B(  6-C ,  7-H ) :   0.9356 B(  6-C ,  8-H ) :   0.9393 B(  6-C ,  9-C ) :   1.0575
B(  9-C , 10-H ) :   0.9521 B(  9-C , 11-H ) :   0.9604 B(  9-C , 12-C ) :   1.0767
B( 12-C , 13-H ) :   0.9755 B( 12-C , 14-H ) :   0.9763 B( 12-C , 15-H ) :   0.9745
B( 16-S , 17-C ) :   1.1560 B( 16-S , 20-C ) :   1.1763 B( 17-C , 18-C ) :   1.6022
B( 17-C , 20-C ) :   0.1025 B( 17-C , 33-H ) :   0.9659 B( 18-C , 19-C ) :   1.2333
B( 18-C , 21-H ) :   0.9804 B( 19-C , 20-C ) :   1.5378 B( 19-C , 22-C ) :   1.0660
B( 22-C , 23-H ) :   0.9269 B( 22-C , 24-H ) :   0.9150 B( 22-C , 25-C ) :   1.0706
B( 25-C , 26-H ) :   0.9544 B( 25-C , 27-H ) :   0.9537 B( 25-C , 28-C ) :   1.0617
B( 28-C , 29-H ) :   0.9760 B( 28-C , 30-H ) :   0.9770 B( 28-C , 31-H ) :   0.9751

Dispersion correction           -0.014505859
FINAL SINGLE POINT ENERGY     -1339.874769102902

DIPOLE MOMENT
-------------
                                X             Y             Z
Electronic contribution:    -19.47688     -17.89198     -17.86959
Nuclear contribution   :     20.08468      18.21783      18.26607
                        -----------------------------------------
Total Dipole Moment    :      0.60781       0.32585       0.39648
                        -----------------------------------------
Magnitude (a.u.)       :      0.79549
Magnitude (Debye)      :      2.02197

Rotational constants in cm-1:     0.017457     0.009529     0.006617
Rotational constants in MHz :   523.362127   285.666730   198.371659

                             ****ORCA TERMINATED NORMALLY****
TOTAL RUN TIME: 0 days 0 hours 0 minutes 21 seconds 594 msec
