                         Program Version 4.2.1 -  RELEASE  -
|  1> ! wB97X-D3 SP def2-SVP
|  2> %pal
|  3> nprocs 24
|  4> end
|  5>
|  6> * xyz 0 1
|  7> S 	 -132.731 	 6.28683 	 -11.309
|  8> C 	 -131.016 	 6.11205 	 -10.8036
|  9> C 	 -130.136 	 6.57008 	 -11.7874
| 10> C 	 -130.85 	 7.02413 	 -12.9592
| 11> C 	 -132.242 	 6.87856 	 -12.8981
| 12> H 	 -130.386 	 7.32039 	 -13.8934
| 13> C 	 -128.591 	 6.48528 	 -11.7975
| 14> H 	 -128.519 	 6.13582 	 -10.6683
| 15> H 	 -128.06 	 7.40129 	 -11.8532
| 16> C 	 -127.94 	 5.41902 	 -12.6738
| 17> H 	 -126.894 	 5.66138 	 -12.2846
| 18> H 	 -128.299 	 4.4366 	 -12.5166
| 19> C 	 -127.892 	 5.86292 	 -14.2174
| 20> H 	 -127.183 	 5.24208 	 -14.7135
| 21> H 	 -128.833 	 5.88791 	 -14.8052
| 22> H 	 -127.451 	 6.93303 	 -14.2766
| 23> S 	 -134.353 	 8.59167 	 -13.2908
| 24> C 	 -135.03 	 8.69616 	 -14.9477
| 25> C 	 -134.362 	 7.99466 	 -15.8794
| 26> C 	 -133.3 	 7.26926 	 -15.3113
| 27> C 	 -133.198 	 7.43012 	 -13.8938
| 28> H 	 -134.75 	 7.96468 	 -16.9363
| 29> C 	 -132.484 	 6.34343 	 -16.2017
| 30> H 	 -131.753 	 5.83854 	 -15.6095
| 31> H 	 -131.871 	 6.92948 	 -16.8324
| 32> C 	 -133.308 	 5.37151 	 -16.9847
| 33> H 	 -134.161 	 5.85519 	 -17.4955
| 34> H 	 -133.665 	 4.69747 	 -16.2293
| 35> C 	 -132.434 	 4.52929 	 -17.9331
| 36> H 	 -131.88 	 5.23795 	 -18.5787
| 37> H 	 -132.967 	 3.78381 	 -18.5342
| 38> H 	 -131.768 	 4.00059 	 -17.3838
| 39> H 	 -130.645 	 5.64013 	 -9.87638
| 40> H 	 -135.866 	 9.3337 	 -15.2373
| 41> *
| 42>
| 43>                          ****END OF INPUT****

CARTESIAN COORDINATES (ANGSTROEM)
---------------------------------
  S    -132.731000    6.286830  -11.309000
  C    -131.016000    6.112050  -10.803600
  C    -130.136000    6.570080  -11.787400
  C    -130.850000    7.024130  -12.959200
  C    -132.242000    6.878560  -12.898100
  H    -130.386000    7.320390  -13.893400
  C    -128.591000    6.485280  -11.797500
  H    -128.519000    6.135820  -10.668300
  H    -128.060000    7.401290  -11.853200
  C    -127.940000    5.419020  -12.673800
  H    -126.894000    5.661380  -12.284600
  H    -128.299000    4.436600  -12.516600
  C    -127.892000    5.862920  -14.217400
  H    -127.183000    5.242080  -14.713500
  H    -128.833000    5.887910  -14.805200
  H    -127.451000    6.933030  -14.276600
  S    -134.353000    8.591670  -13.290800
  C    -135.030000    8.696160  -14.947700
  C    -134.362000    7.994660  -15.879400
  C    -133.300000    7.269260  -15.311300
  C    -133.198000    7.430120  -13.893800
  H    -134.750000    7.964680  -16.936300
  C    -132.484000    6.343430  -16.201700
  H    -131.753000    5.838540  -15.609500
  H    -131.871000    6.929480  -16.832400
  C    -133.308000    5.371510  -16.984700
  H    -134.161000    5.855190  -17.495500
  H    -133.665000    4.697470  -16.229300
  C    -132.434000    4.529290  -17.933100
  H    -131.880000    5.237950  -18.578700
  H    -132.967000    3.783810  -18.534200
  H    -131.768000    4.000590  -17.383800
  H    -130.645000    5.640130   -9.876380
  H    -135.866000    9.333700  -15.237300

 Total Charge           Charge          ....    0
 Multiplicity           Mult            ....    1
 Number of Electrons    NEL             ....  134
 Basis Dimension        Dim             ....  322

ORBITAL ENERGIES
----------------

  NO   OCC          E(Eh)            E(eV)
   0   2.0000     -88.970545     -2421.0116
   1   2.0000     -88.967684     -2420.9338
   2   2.0000     -10.334131      -281.2060
   3   2.0000     -10.332177      -281.1528
   4   2.0000     -10.323382      -280.9135
   5   2.0000     -10.314468      -280.6709
   6   2.0000     -10.305737      -280.4334
   7   2.0000     -10.304829      -280.4087
   8   2.0000     -10.302833      -280.3543
   9   2.0000     -10.300747      -280.2976
  10   2.0000     -10.294189      -280.1191
  11   2.0000     -10.292482      -280.0727
  12   2.0000     -10.292409      -280.0707
  13   2.0000     -10.282025      -279.7881
  14   2.0000     -10.281762      -279.7810
  15   2.0000     -10.272587      -279.5313
  16   2.0000      -8.083906      -219.9743
  17   2.0000      -8.081771      -219.9162
  18   2.0000      -6.042603      -164.4276
  19   2.0000      -6.040236      -164.3632
  20   2.0000      -6.038606      -164.3188
  21   2.0000      -6.036549      -164.2629
  22   2.0000      -6.034545      -164.2083
  23   2.0000      -6.032433      -164.1509
  24   2.0000      -0.999577       -27.1999
  25   2.0000      -0.976993       -26.5853
  26   2.0000      -0.916702       -24.9447
  27   2.0000      -0.907709       -24.7000
  28   2.0000      -0.866973       -23.5915
  29   2.0000      -0.848125       -23.0787
  30   2.0000      -0.838565       -22.8185
  31   2.0000      -0.813569       -22.1384
  32   2.0000      -0.783527       -21.3209
  33   2.0000      -0.770358       -20.9625
  34   2.0000      -0.705802       -19.2058
  35   2.0000      -0.698801       -19.0153
  36   2.0000      -0.696746       -18.9594
  37   2.0000      -0.653578       -17.7848
  38   2.0000      -0.636077       -17.3085
  39   2.0000      -0.615019       -16.7355
  40   2.0000      -0.598967       -16.2987
  41   2.0000      -0.582415       -15.8483
  42   2.0000      -0.572451       -15.5772
  43   2.0000      -0.539962       -14.6931
  44   2.0000      -0.530406       -14.4331
  45   2.0000      -0.522093       -14.2069
  46   2.0000      -0.513805       -13.9813
  47   2.0000      -0.507362       -13.8060
  48   2.0000      -0.502506       -13.6739
  49   2.0000      -0.493705       -13.4344
  50   2.0000      -0.488514       -13.2931
  51   2.0000      -0.482255       -13.1228
  52   2.0000      -0.471969       -12.8429
  53   2.0000      -0.463776       -12.6200
  54   2.0000      -0.460607       -12.5337
  55   2.0000      -0.451379       -12.2827
  56   2.0000      -0.448701       -12.2098
  57   2.0000      -0.440112       -11.9760
  58   2.0000      -0.431764       -11.7489
  59   2.0000      -0.426475       -11.6050
  60   2.0000      -0.422049       -11.4845
  61   2.0000      -0.418319       -11.3830
  62   2.0000      -0.399806       -10.8793
  63   2.0000      -0.349717        -9.5163
  64   2.0000      -0.331692        -9.0258
  65   2.0000      -0.329954        -8.9785
  66   2.0000      -0.289114        -7.8672
  67   0.0000       0.029515         0.8032
  68   0.0000       0.068223         1.8565
  69   0.0000       0.105332         2.8662
  70   0.0000       0.120109         3.2683
  71   0.0000       0.124291         3.3821

MULLIKEN ATOMIC CHARGES
-----------------------
   0 S :    0.106527
   1 C :   -0.135652
   2 C :   -0.079607
   3 C :    0.038299
   4 C :   -0.155612
   5 H :    0.012686
   6 C :    0.008117
   7 H :    0.025531
   8 H :    0.037323
   9 C :   -0.038188
  10 H :    0.048481
  11 H :    0.038918
  12 C :   -0.097319
  13 H :    0.036045
  14 H :    0.053789
  15 H :    0.033674
  16 S :    0.107490
  17 C :   -0.093793
  18 C :   -0.052629
  19 C :   -0.050729
  20 C :   -0.155226
  21 H :    0.047056
  22 C :    0.117331
  23 H :   -0.001162
  24 H :    0.006924
  25 C :   -0.096000
  26 H :    0.036163
  27 H :    0.028961
  28 C :    0.001450
  29 H :    0.023697
  30 H :    0.035801
  31 H :    0.002133
  32 H :    0.058344
  33 H :    0.051176
Sum of atomic charges:   -0.0000000

LOEWDIN ATOMIC CHARGES
----------------------
   0 S :    0.383981
   1 C :   -0.194164
   2 C :   -0.066655
   3 C :   -0.061954
   4 C :   -0.194514
   5 H :    0.028212
   6 C :   -0.037788
   7 H :    0.039584
   8 H :    0.025679
   9 C :   -0.029861
  10 H :    0.043437
  11 H :    0.021343
  12 C :   -0.077151
  13 H :    0.020632
  14 H :    0.024811
  15 H :    0.033694
  16 S :    0.393065
  17 C :   -0.171101
  18 C :   -0.078504
  19 C :   -0.052330
  20 C :   -0.200214
  21 H :    0.047416
  22 C :   -0.029393
  23 H :    0.023537
  24 H :    0.021584
  25 C :   -0.037171
  26 H :    0.022753
  27 H :    0.026911
  28 C :   -0.053676
  29 H :    0.026003
  30 H :    0.028857
  31 H :    0.009685
  32 H :    0.034336
  33 H :    0.028954

  Mayer bond orders larger than 0.100000
B(  0-S ,  1-C ) :   1.1243 B(  0-S ,  4-C ) :   1.1420 B(  1-C ,  2-C ) :   1.6334
B(  1-C , 32-H ) :   0.9574 B(  2-C ,  3-C ) :   1.2342 B(  2-C ,  6-C ) :   1.0049
B(  3-C ,  4-C ) :   1.5770 B(  3-C ,  5-H ) :   0.9859 B(  4-C , 20-C ) :   1.0277
B(  6-C ,  7-H ) :   0.9426 B(  6-C ,  8-H ) :   0.9482 B(  6-C ,  9-C ) :   1.0583
B(  9-C , 10-H ) :   0.9550 B(  9-C , 11-H ) :   0.9606 B(  9-C , 12-C ) :   1.0596
B( 12-C , 13-H ) :   0.9748 B( 12-C , 14-H ) :   0.9735 B( 12-C , 15-H ) :   0.9742
B( 16-S , 17-C ) :   1.1369 B( 16-S , 20-C ) :   1.1453 B( 17-C , 18-C ) :   1.6526
B( 17-C , 33-H ) :   0.9599 B( 18-C , 19-C ) :   1.2374 B( 18-C , 21-H ) :   0.9759
B( 19-C , 20-C ) :   1.5943 B( 19-C , 22-C ) :   1.0389 B( 22-C , 23-H ) :   0.9272
B( 22-C , 24-H ) :   0.9248 B( 22-C , 25-C ) :   1.0623 B( 25-C , 26-H ) :   0.9584
B( 25-C , 27-H ) :   0.9528 B( 25-C , 28-C ) :   1.0819 B( 28-C , 29-H ) :   0.9753
B( 28-C , 30-H ) :   0.9742 B( 28-C , 31-H ) :   0.9722

Dispersion correction           -0.014086012
FINAL SINGLE POINT ENERGY     -1339.852137488482

DIPOLE MOMENT
-------------
                                X             Y             Z
Electronic contribution:    -20.28817      12.26370      18.78210
Nuclear contribution   :     20.84464     -12.47078     -19.26440
                        -----------------------------------------
Total Dipole Moment    :      0.55647      -0.20708      -0.48231
                        -----------------------------------------
Magnitude (a.u.)       :      0.76496
Magnitude (Debye)      :      1.94437

Rotational constants in cm-1:     0.015845     0.009739     0.006815
Rotational constants in MHz :   475.022270   291.980559   204.313900

                             ****ORCA TERMINATED NORMALLY****
TOTAL RUN TIME: 0 days 0 hours 0 minutes 21 seconds 577 msec
