                         Program Version 4.2.1 -  RELEASE  -
|  1> ! wB97X-D3 SP def2-SVP
|  2> %pal
|  3> nprocs 24
|  4> end
|  5>
|  6> * xyz 0 1
|  7> S 	 -106.014 	 15.4282 	 -121.377
|  8> C 	 -106.754 	 14.5652 	 -120.009
|  9> C 	 -107.546 	 13.5646 	 -120.46
| 10> C 	 -107.505 	 13.3908 	 -121.887
| 11> C 	 -106.693 	 14.3824 	 -122.551
| 12> H 	 -107.934 	 12.5824 	 -122.539
| 13> C 	 -108.345 	 12.631 	 -119.497
| 14> H 	 -108.914 	 11.9354 	 -120.158
| 15> H 	 -108.957 	 13.3084 	 -118.956
| 16> C 	 -107.458 	 11.7925 	 -118.535
| 17> H 	 -106.837 	 12.5665 	 -118.064
| 18> H 	 -108.02 	 11.2416 	 -117.743
| 19> C 	 -106.577 	 10.7626 	 -119.309
| 20> H 	 -107.089 	 10.1463 	 -119.991
| 21> H 	 -105.853 	 11.2701 	 -120.003
| 22> H 	 -105.856 	 10.2584 	 -118.698
| 23> S 	 -104.543 	 14.2316 	 -124.216
| 24> C 	 -104.793 	 14.2024 	 -125.905
| 25> C 	 -106.12 	 14.488 	 -126.211
| 26> C 	 -106.962 	 14.6722 	 -125.108
| 27> C 	 -106.274 	 14.4335 	 -123.942
| 28> H 	 -106.414 	 14.5071 	 -127.193
| 29> C 	 -108.461 	 15.0864 	 -125.295
| 30> H 	 -108.379 	 15.9894 	 -125.835
| 31> H 	 -108.834 	 15.3302 	 -124.311
| 32> C 	 -109.433 	 14.0411 	 -125.962
| 33> H 	 -109.204 	 13.0332 	 -125.626
| 34> H 	 -109.295 	 13.9925 	 -127.029
| 35> C 	 -110.851 	 14.4035 	 -125.628
| 36> H 	 -111.579 	 13.7152 	 -126.116
| 37> H 	 -111.188 	 15.4099 	 -125.914
| 38> H 	 -111.054 	 14.3057 	 -124.515
| 39> H 	 -106.589 	 14.7977 	 -118.966
| 40> H 	 -104.023 	 14.0942 	 -126.588
| 41> *
| 42>
| 43>                          ****END OF INPUT****

CARTESIAN COORDINATES (ANGSTROEM)
---------------------------------
  S    -106.014000   15.428200  -121.377000
  C    -106.754000   14.565200  -120.009000
  C    -107.546000   13.564600  -120.460000
  C    -107.505000   13.390800  -121.887000
  C    -106.693000   14.382400  -122.551000
  H    -107.934000   12.582400  -122.539000
  C    -108.345000   12.631000  -119.497000
  H    -108.914000   11.935400  -120.158000
  H    -108.957000   13.308400  -118.956000
  C    -107.458000   11.792500  -118.535000
  H    -106.837000   12.566500  -118.064000
  H    -108.020000   11.241600  -117.743000
  C    -106.577000   10.762600  -119.309000
  H    -107.089000   10.146300  -119.991000
  H    -105.853000   11.270100  -120.003000
  H    -105.856000   10.258400  -118.698000
  S    -104.543000   14.231600  -124.216000
  C    -104.793000   14.202400  -125.905000
  C    -106.120000   14.488000  -126.211000
  C    -106.962000   14.672200  -125.108000
  C    -106.274000   14.433500  -123.942000
  H    -106.414000   14.507100  -127.193000
  C    -108.461000   15.086400  -125.295000
  H    -108.379000   15.989400  -125.835000
  H    -108.834000   15.330200  -124.311000
  C    -109.433000   14.041100  -125.962000
  H    -109.204000   13.033200  -125.626000
  H    -109.295000   13.992500  -127.029000
  C    -110.851000   14.403500  -125.628000
  H    -111.579000   13.715200  -126.116000
  H    -111.188000   15.409900  -125.914000
  H    -111.054000   14.305700  -124.515000
  H    -106.589000   14.797700  -118.966000
  H    -104.023000   14.094200  -126.588000

 Total Charge           Charge          ....    0
 Multiplicity           Mult            ....    1
 Number of Electrons    NEL             ....  134
 Basis Dimension        Dim             ....  322

ORBITAL ENERGIES
----------------

  NO   OCC          E(Eh)            E(eV)
   0   2.0000     -88.964984     -2420.8603
   1   2.0000     -88.964548     -2420.8484
   2   2.0000     -10.329762      -281.0871
   3   2.0000     -10.324206      -280.9359
   4   2.0000     -10.311408      -280.5877
   5   2.0000     -10.310418      -280.5607
   6   2.0000     -10.302645      -280.3492
   7   2.0000     -10.302088      -280.3341
   8   2.0000     -10.302015      -280.3321
   9   2.0000     -10.295722      -280.1608
  10   2.0000     -10.295117      -280.1444
  11   2.0000     -10.293275      -280.0943
  12   2.0000     -10.289527      -279.9923
  13   2.0000     -10.284543      -279.8566
  14   2.0000     -10.283763      -279.8354
  15   2.0000     -10.272911      -279.5401
  16   2.0000      -8.080040      -219.8691
  17   2.0000      -8.079774      -219.8618
  18   2.0000      -6.038337      -164.3115
  19   2.0000      -6.038270      -164.3097
  20   2.0000      -6.034473      -164.2063
  21   2.0000      -6.034072      -164.1954
  22   2.0000      -6.030930      -164.1099
  23   2.0000      -6.030746      -164.1049
  24   2.0000      -1.008242       -27.4357
  25   2.0000      -0.984390       -26.7866
  26   2.0000      -0.907439       -24.6927
  27   2.0000      -0.906499       -24.6671
  28   2.0000      -0.865910       -23.5626
  29   2.0000      -0.856663       -23.3110
  30   2.0000      -0.836820       -22.7710
  31   2.0000      -0.807758       -21.9802
  32   2.0000      -0.783252       -21.3134
  33   2.0000      -0.774701       -21.0807
  34   2.0000      -0.706300       -19.2194
  35   2.0000      -0.703266       -19.1368
  36   2.0000      -0.699296       -19.0288
  37   2.0000      -0.667025       -18.1507
  38   2.0000      -0.636155       -17.3106
  39   2.0000      -0.607082       -16.5195
  40   2.0000      -0.595705       -16.2100
  41   2.0000      -0.571468       -15.5504
  42   2.0000      -0.566209       -15.4073
  43   2.0000      -0.551922       -15.0185
  44   2.0000      -0.536499       -14.5989
  45   2.0000      -0.525459       -14.2985
  46   2.0000      -0.518143       -14.0994
  47   2.0000      -0.512497       -13.9458
  48   2.0000      -0.510905       -13.9024
  49   2.0000      -0.495649       -13.4873
  50   2.0000      -0.484400       -13.1812
  51   2.0000      -0.479676       -13.0526
  52   2.0000      -0.476174       -12.9574
  53   2.0000      -0.462676       -12.5900
  54   2.0000      -0.456872       -12.4321
  55   2.0000      -0.444955       -12.1078
  56   2.0000      -0.437789       -11.9129
  57   2.0000      -0.435687       -11.8557
  58   2.0000      -0.431733       -11.7480
  59   2.0000      -0.428404       -11.6575
  60   2.0000      -0.425409       -11.5760
  61   2.0000      -0.419371       -11.4117
  62   2.0000      -0.410006       -11.1568
  63   2.0000      -0.337381        -9.1806
  64   2.0000      -0.334680        -9.1071
  65   2.0000      -0.328960        -8.9515
  66   2.0000      -0.295824        -8.0498
  67   0.0000       0.034319         0.9339
  68   0.0000       0.063473         1.7272
  69   0.0000       0.116271         3.1639
  70   0.0000       0.126738         3.4487
  71   0.0000       0.135633         3.6908

MULLIKEN ATOMIC CHARGES
-----------------------
   0 S :    0.110978
   1 C :   -0.143229
   2 C :   -0.088495
   3 C :    0.021193
   4 C :   -0.187161
   5 H :    0.031853
   6 C :    0.083859
   7 H :    0.026144
   8 H :    0.032947
   9 C :   -0.074939
  10 H :    0.022560
  11 H :    0.046254
  12 C :   -0.048679
  13 H :    0.022708
  14 H :    0.030834
  15 H :    0.029858
  16 S :    0.120598
  17 C :   -0.062451
  18 C :   -0.013761
  19 C :   -0.012217
  20 C :   -0.200841
  21 H :   -0.020803
  22 C :    0.101278
  23 H :    0.027584
  24 H :    0.019510
  25 C :   -0.037603
  26 H :    0.029960
  27 H :    0.025923
  28 C :   -0.087437
  29 H :    0.034947
  30 H :    0.034111
  31 H :    0.042854
  32 H :    0.050486
  33 H :    0.031178
Sum of atomic charges:    0.0000000

LOEWDIN ATOMIC CHARGES
----------------------
   0 S :    0.414849
   1 C :   -0.195879
   2 C :   -0.066295
   3 C :   -0.075194
   4 C :   -0.212293
   5 H :    0.039179
   6 C :   -0.022004
   7 H :    0.029334
   8 H :    0.027281
   9 C :   -0.038658
  10 H :    0.022197
  11 H :    0.028765
  12 C :   -0.071118
  13 H :    0.017112
  14 H :    0.034824
  15 H :    0.024146
  16 S :    0.423505
  17 C :   -0.180936
  18 C :   -0.064023
  19 C :   -0.050602
  20 C :   -0.204822
  21 H :    0.014632
  22 C :   -0.014998
  23 H :    0.029079
  24 H :    0.028423
  25 C :   -0.038234
  26 H :    0.026459
  27 H :    0.021499
  28 C :   -0.073754
  29 H :    0.028348
  30 H :    0.024968
  31 H :    0.032048
  32 H :    0.028099
  33 H :    0.014060

  Mayer bond orders larger than 0.100000
B(  0-S ,  1-C ) :   1.1302 B(  0-S ,  4-C ) :   1.1870 B(  1-C ,  2-C ) :   1.6094
B(  1-C , 32-H ) :   0.9716 B(  2-C ,  3-C ) :   1.2515 B(  2-C ,  6-C ) :   0.9923
B(  3-C ,  4-C ) :   1.5443 B(  3-C ,  5-H ) :   0.9854 B(  4-C , 20-C ) :   1.0257
B(  6-C ,  7-H ) :   0.9498 B(  6-C ,  8-H ) :   0.9424 B(  6-C ,  9-C ) :   1.0685
B(  9-C , 10-H ) :   0.9560 B(  9-C , 11-H ) :   0.9602 B(  9-C , 12-C ) :   1.0658
B( 12-C , 13-H ) :   0.9792 B( 12-C , 14-H ) :   0.9707 B( 12-C , 15-H ) :   0.9748
B( 16-S , 17-C ) :   1.1728 B( 16-S , 20-C ) :   1.1526 B( 17-C , 18-C ) :   1.5757
B( 17-C , 20-C ) :   0.1045 B( 17-C , 33-H ) :   0.9797 B( 18-C , 19-C ) :   1.2529
B( 18-C , 21-H ) :   1.0080 B( 19-C , 20-C ) :   1.5909 B( 19-C , 22-C ) :   1.0262
B( 22-C , 23-H ) :   0.9317 B( 22-C , 24-H ) :   0.9393 B( 22-C , 25-C ) :   1.0515
B( 25-C , 26-H ) :   0.9573 B( 25-C , 27-H ) :   0.9507 B( 25-C , 28-C ) :   1.0936
B( 28-C , 29-H ) :   0.9723 B( 28-C , 30-H ) :   0.9737 B( 28-C , 31-H ) :   0.9741

Dispersion correction           -0.014107228
FINAL SINGLE POINT ENERGY     -1339.876507161568

DIPOLE MOMENT
-------------
                                X             Y             Z
Electronic contribution:     19.89904      12.25313      -2.92442
Nuclear contribution   :    -20.28399     -12.49601       2.74761
                        -----------------------------------------
Total Dipole Moment    :     -0.38495      -0.24288      -0.17681
                        -----------------------------------------
Magnitude (a.u.)       :      0.48830
Magnitude (Debye)      :      1.24116

Rotational constants in cm-1:     0.017777     0.008426     0.006821
Rotational constants in MHz :   532.944031   252.614782   204.500978

                             ****ORCA TERMINATED NORMALLY****
TOTAL RUN TIME: 0 days 0 hours 0 minutes 21 seconds 308 msec
