                         Program Version 4.2.1 -  RELEASE  -
|  1> ! wB97X-D3 SP def2-SVP
|  2> %pal
|  3> nprocs 24
|  4> end
|  5>
|  6> * xyz 0 1
|  7> S 	 -100.784 	 4.39087 	 -106.06
|  8> C 	 -99.6651 	 4.09467 	 -107.375
|  9> C 	 -98.7295 	 3.11302 	 -107.059
| 10> C 	 -98.9238 	 2.65342 	 -105.706
| 11> C 	 -100.021 	 3.14904 	 -105.06
| 12> H 	 -98.3145 	 1.89791 	 -105.243
| 13> C 	 -97.5708 	 2.68616 	 -107.896
| 14> H 	 -97.7888 	 2.65096 	 -108.95
| 15> H 	 -97.4899 	 1.58526 	 -107.719
| 16> C 	 -96.3409 	 3.42098 	 -107.556
| 17> H 	 -96.5722 	 4.49859 	 -107.44
| 18> H 	 -95.9459 	 3.02181 	 -106.681
| 19> C 	 -95.2688 	 3.26944 	 -108.558
| 20> H 	 -94.7643 	 2.28486 	 -108.376
| 21> H 	 -95.6725 	 3.38962 	 -109.594
| 22> H 	 -94.473 	 3.90601 	 -108.426
| 23> S 	 -101.915 	 2.25277 	 -103.32
| 24> C 	 -101.429 	 2.15973 	 -101.618
| 25> C 	 -100.132 	 2.49047 	 -101.41
| 26> C 	 -99.5162 	 2.95957 	 -102.59
| 27> C 	 -100.341 	 2.93208 	 -103.699
| 28> H 	 -99.6449 	 2.54765 	 -100.425
| 29> C 	 -98.1734 	 3.59141 	 -102.575
| 30> H 	 -98.1459 	 4.25666 	 -101.706
| 31> H 	 -98.0699 	 4.39088 	 -103.356
| 32> C 	 -96.9749 	 2.67558 	 -102.592
| 33> H 	 -97.0663 	 2.03737 	 -103.502
| 34> H 	 -97.1249 	 1.91945 	 -101.808
| 35> C 	 -95.6999 	 3.47939 	 -102.43
| 36> H 	 -95.5375 	 3.97036 	 -103.363
| 37> H 	 -94.8922 	 2.77733 	 -102.42
| 38> H 	 -95.806 	 4.16474 	 -101.596
| 39> H 	 -99.7448 	 4.67919 	 -108.28
| 40> H 	 -102.032 	 1.71995 	 -100.766
| 41> *
| 42>
| 43>                          ****END OF INPUT****

CARTESIAN COORDINATES (ANGSTROEM)
---------------------------------
  S    -100.784000    4.390870  -106.060000
  C    -99.665100    4.094670  -107.375000
  C    -98.729500    3.113020  -107.059000
  C    -98.923800    2.653420  -105.706000
  C    -100.021000    3.149040  -105.060000
  H    -98.314500    1.897910  -105.243000
  C    -97.570800    2.686160  -107.896000
  H    -97.788800    2.650960  -108.950000
  H    -97.489900    1.585260  -107.719000
  C    -96.340900    3.420980  -107.556000
  H    -96.572200    4.498590  -107.440000
  H    -95.945900    3.021810  -106.681000
  C    -95.268800    3.269440  -108.558000
  H    -94.764300    2.284860  -108.376000
  H    -95.672500    3.389620  -109.594000
  H    -94.473000    3.906010  -108.426000
  S    -101.915000    2.252770  -103.320000
  C    -101.429000    2.159730  -101.618000
  C    -100.132000    2.490470  -101.410000
  C    -99.516200    2.959570  -102.590000
  C    -100.341000    2.932080  -103.699000
  H    -99.644900    2.547650  -100.425000
  C    -98.173400    3.591410  -102.575000
  H    -98.145900    4.256660  -101.706000
  H    -98.069900    4.390880  -103.356000
  C    -96.974900    2.675580  -102.592000
  H    -97.066300    2.037370  -103.502000
  H    -97.124900    1.919450  -101.808000
  C    -95.699900    3.479390  -102.430000
  H    -95.537500    3.970360  -103.363000
  H    -94.892200    2.777330  -102.420000
  H    -95.806000    4.164740  -101.596000
  H    -99.744800    4.679190  -108.280000
  H    -102.032000    1.719950  -100.766000

 Total Charge           Charge          ....    0
 Multiplicity           Mult            ....    1
 Number of Electrons    NEL             ....  134
 Basis Dimension        Dim             ....  322

ORBITAL ENERGIES
----------------

  NO   OCC          E(Eh)            E(eV)
   0   2.0000     -88.965279     -2420.8683
   1   2.0000     -88.962504     -2420.7928
   2   2.0000     -10.322139      -280.8797
   3   2.0000     -10.320253      -280.8284
   4   2.0000     -10.319229      -280.8005
   5   2.0000     -10.315432      -280.6972
   6   2.0000     -10.301200      -280.3099
   7   2.0000     -10.295869      -280.1648
   8   2.0000     -10.291577      -280.0480
   9   2.0000     -10.290953      -280.0311
  10   2.0000     -10.287693      -279.9423
  11   2.0000     -10.285616      -279.8858
  12   2.0000     -10.284989      -279.8688
  13   2.0000     -10.275783      -279.6183
  14   2.0000     -10.275515      -279.6110
  15   2.0000     -10.273743      -279.5628
  16   2.0000      -8.079753      -219.8613
  17   2.0000      -8.077233      -219.7927
  18   2.0000      -6.038259      -164.3094
  19   2.0000      -6.035773      -164.2417
  20   2.0000      -6.034424      -164.2050
  21   2.0000      -6.031698      -164.1308
  22   2.0000      -6.030399      -164.0955
  23   2.0000      -6.028008      -164.0304
  24   2.0000      -1.008203       -27.4346
  25   2.0000      -0.983404       -26.7598
  26   2.0000      -0.928308       -25.2605
  27   2.0000      -0.915494       -24.9118
  28   2.0000      -0.876547       -23.8521
  29   2.0000      -0.855574       -23.2814
  30   2.0000      -0.851182       -23.1618
  31   2.0000      -0.815924       -22.2024
  32   2.0000      -0.784353       -21.3433
  33   2.0000      -0.769166       -20.9301
  34   2.0000      -0.707252       -19.2453
  35   2.0000      -0.700847       -19.0710
  36   2.0000      -0.694159       -18.8890
  37   2.0000      -0.663133       -18.0448
  38   2.0000      -0.646451       -17.5908
  39   2.0000      -0.623132       -16.9563
  40   2.0000      -0.600388       -16.3374
  41   2.0000      -0.580582       -15.7984
  42   2.0000      -0.567309       -15.4373
  43   2.0000      -0.561312       -15.2741
  44   2.0000      -0.534011       -14.5312
  45   2.0000      -0.527921       -14.3655
  46   2.0000      -0.523628       -14.2487
  47   2.0000      -0.512136       -13.9359
  48   2.0000      -0.508167       -13.8279
  49   2.0000      -0.498882       -13.5753
  50   2.0000      -0.492904       -13.4126
  51   2.0000      -0.480804       -13.0833
  52   2.0000      -0.468714       -12.7543
  53   2.0000      -0.461856       -12.5677
  54   2.0000      -0.458948       -12.4886
  55   2.0000      -0.452192       -12.3048
  56   2.0000      -0.446841       -12.1592
  57   2.0000      -0.440466       -11.9857
  58   2.0000      -0.433349       -11.7920
  59   2.0000      -0.427187       -11.6243
  60   2.0000      -0.423139       -11.5142
  61   2.0000      -0.411147       -11.1879
  62   2.0000      -0.405520       -11.0348
  63   2.0000      -0.346069        -9.4170
  64   2.0000      -0.330087        -8.9821
  65   2.0000      -0.329786        -8.9739
  66   2.0000      -0.294015        -8.0006
  67   0.0000       0.033031         0.8988
  68   0.0000       0.068683         1.8690
  69   0.0000       0.113411         3.0861
  70   0.0000       0.117162         3.1881
  71   0.0000       0.128976         3.5096

MULLIKEN ATOMIC CHARGES
-----------------------
   0 S :    0.100264
   1 C :   -0.130106
   2 C :   -0.077327
   3 C :    0.019585
   4 C :   -0.132098
   5 H :    0.004215
   6 C :    0.057811
   7 H :    0.011493
   8 H :    0.022984
   9 C :   -0.033203
  10 H :    0.035472
  11 H :    0.008157
  12 C :   -0.018295
  13 H :    0.023783
  14 H :    0.034351
  15 H :    0.010680
  16 S :    0.108680
  17 C :   -0.101108
  18 C :   -0.031085
  19 C :   -0.008029
  20 C :   -0.162205
  21 H :    0.027462
  22 C :    0.004005
  23 H :    0.012058
  24 H :    0.030399
  25 C :   -0.082582
  26 H :    0.011729
  27 H :    0.016128
  28 C :    0.029533
  29 H :    0.020666
  30 H :    0.023628
  31 H :    0.039170
  32 H :    0.049843
  33 H :    0.073944
Sum of atomic charges:    0.0000000

LOEWDIN ATOMIC CHARGES
----------------------
   0 S :    0.393038
   1 C :   -0.189323
   2 C :   -0.059706
   3 C :   -0.052324
   4 C :   -0.196241
   5 H :    0.025668
   6 C :   -0.037398
   7 H :    0.026115
   8 H :    0.036560
   9 C :   -0.041098
  10 H :    0.030022
  11 H :    0.018881
  12 C :   -0.059672
  13 H :    0.031083
  14 H :    0.028158
  15 H :    0.013754
  16 S :    0.394845
  17 C :   -0.183898
  18 C :   -0.074298
  19 C :   -0.055092
  20 C :   -0.199462
  21 H :    0.038703
  22 C :   -0.043333
  23 H :    0.027592
  24 H :    0.034725
  25 C :   -0.043834
  26 H :    0.021658
  27 H :    0.019404
  28 C :   -0.053453
  29 H :    0.025673
  30 H :    0.025657
  31 H :    0.029217
  32 H :    0.025410
  33 H :    0.042968

  Mayer bond orders larger than 0.100000
B(  0-S ,  1-C ) :   1.1443 B(  0-S ,  4-C ) :   1.1345 B(  1-C ,  2-C ) :   1.5975
B(  1-C , 32-H ) :   0.9738 B(  2-C ,  3-C ) :   1.2325 B(  2-C ,  6-C ) :   1.0344
B(  3-C ,  4-C ) :   1.5856 B(  3-C ,  5-H ) :   0.9980 B(  4-C , 20-C ) :   1.0409
B(  6-C ,  7-H ) :   0.9413 B(  6-C ,  8-H ) :   0.9265 B(  6-C ,  9-C ) :   1.0643
B(  9-C , 10-H ) :   0.9554 B(  9-C , 11-H ) :   0.9436 B(  9-C , 12-C ) :   1.1045
B( 12-C , 13-H ) :   0.9688 B( 12-C , 14-H ) :   0.9738 B( 12-C , 15-H ) :   0.9689
B( 16-S , 17-C ) :   1.1425 B( 16-S , 20-C ) :   1.1265 B( 17-C , 18-C ) :   1.6305
B( 17-C , 33-H ) :   0.9547 B( 18-C , 19-C ) :   1.2424 B( 18-C , 21-H ) :   0.9832
B( 19-C , 20-C ) :   1.6095 B( 19-C , 22-C ) :   1.0378 B( 22-C , 23-H ) :   0.9342
B( 22-C , 24-H ) :   0.9360 B( 22-C , 25-C ) :   1.0573 B( 25-C , 26-H ) :   0.9458
B( 25-C , 27-H ) :   0.9522 B( 25-C , 28-C ) :   1.0769 B( 28-C , 29-H ) :   0.9701
B( 28-C , 30-H ) :   0.9690 B( 28-C , 31-H ) :   0.9726

Dispersion correction           -0.014855379
FINAL SINGLE POINT ENERGY     -1339.877524331224

DIPOLE MOMENT
-------------
                                X             Y             Z
Electronic contribution:    -32.25287       0.42138       4.26289
Nuclear contribution   :     33.08745      -0.47172      -4.17870
                        -----------------------------------------
Total Dipole Moment    :      0.83458      -0.05033       0.08419
                        -----------------------------------------
Magnitude (a.u.)       :      0.84032
Magnitude (Debye)      :      2.13593

Rotational constants in cm-1:     0.018557     0.009518     0.006849
Rotational constants in MHz :   556.316628   285.351740   205.330964

                             ****ORCA TERMINATED NORMALLY****
TOTAL RUN TIME: 0 days 0 hours 0 minutes 22 seconds 750 msec
