                         Program Version 4.2.1 -  RELEASE  -
|  1> ! wB97X-D3 SP def2-SVP
|  2> %pal
|  3> nprocs 24
|  4> end
|  5>
|  6> * xyz 0 1
|  7> S 	 -45.1876 	 15.1981 	 26.3102
|  8> C 	 -45.4321 	 16.75 	 27.0665
|  9> C 	 -46.7699 	 17.1622 	 26.9879
| 10> C 	 -47.5264 	 16.4185 	 26.0582
| 11> C 	 -46.8305 	 15.3061 	 25.606
| 12> H 	 -48.5059 	 16.6831 	 25.866
| 13> C 	 -47.2669 	 18.4384 	 27.5687
| 14> H 	 -46.9814 	 18.541 	 28.5998
| 15> H 	 -48.3176 	 18.3222 	 27.6175
| 16> C 	 -46.9058 	 19.7666 	 26.6941
| 17> H 	 -46.9036 	 19.6291 	 25.6105
| 18> H 	 -47.6894 	 20.4854 	 26.8873
| 19> C 	 -45.5007 	 20.3111 	 27.1666
| 20> H 	 -44.8409 	 20.3893 	 26.3381
| 21> H 	 -45.4847 	 21.3177 	 27.5332
| 22> H 	 -45.0199 	 19.6084 	 27.8872
| 23> S 	 -47.9851 	 12.7915 	 25.1456
| 24> C 	 -48.3098 	 12.2998 	 23.5407
| 25> C 	 -47.9798 	 13.3378 	 22.7021
| 26> C 	 -47.5271 	 14.5137 	 23.3085
| 27> C 	 -47.3404 	 14.3292 	 24.6155
| 28> H 	 -48.2034 	 13.1096 	 21.6998
| 29> C 	 -47.182 	 15.7613 	 22.4931
| 30> H 	 -46.3374 	 16.1679 	 23.0073
| 31> H 	 -48.0537 	 16.4621 	 22.6297
| 32> C 	 -46.8503 	 15.6701 	 20.9875
| 33> H 	 -47.8085 	 15.3243 	 20.5753
| 34> H 	 -46.0334 	 15.0288 	 20.9094
| 35> C 	 -46.5012 	 16.9776 	 20.393
| 36> H 	 -46.6083 	 16.9298 	 19.3262
| 37> H 	 -45.5374 	 17.3397 	 20.7081
| 38> H 	 -47.2262 	 17.7823 	 20.7004
| 39> H 	 -44.6362 	 17.244 	 27.5174
| 40> H 	 -48.6437 	 11.286 	 23.3741
| 41> *
| 42>
| 43>                          ****END OF INPUT****

CARTESIAN COORDINATES (ANGSTROEM)
---------------------------------
  S    -45.187600   15.198100   26.310200
  C    -45.432100   16.750000   27.066500
  C    -46.769900   17.162200   26.987900
  C    -47.526400   16.418500   26.058200
  C    -46.830500   15.306100   25.606000
  H    -48.505900   16.683100   25.866000
  C    -47.266900   18.438400   27.568700
  H    -46.981400   18.541000   28.599800
  H    -48.317600   18.322200   27.617500
  C    -46.905800   19.766600   26.694100
  H    -46.903600   19.629100   25.610500
  H    -47.689400   20.485400   26.887300
  C    -45.500700   20.311100   27.166600
  H    -44.840900   20.389300   26.338100
  H    -45.484700   21.317700   27.533200
  H    -45.019900   19.608400   27.887200
  S    -47.985100   12.791500   25.145600
  C    -48.309800   12.299800   23.540700
  C    -47.979800   13.337800   22.702100
  C    -47.527100   14.513700   23.308500
  C    -47.340400   14.329200   24.615500
  H    -48.203400   13.109600   21.699800
  C    -47.182000   15.761300   22.493100
  H    -46.337400   16.167900   23.007300
  H    -48.053700   16.462100   22.629700
  C    -46.850300   15.670100   20.987500
  H    -47.808500   15.324300   20.575300
  H    -46.033400   15.028800   20.909400
  C    -46.501200   16.977600   20.393000
  H    -46.608300   16.929800   19.326200
  H    -45.537400   17.339700   20.708100
  H    -47.226200   17.782300   20.700400
  H    -44.636200   17.244000   27.517400
  H    -48.643700   11.286000   23.374100

 Total Charge           Charge          ....    0
 Multiplicity           Mult            ....    1
 Number of Electrons    NEL             ....  134
 Basis Dimension        Dim             ....  322

ORBITAL ENERGIES
----------------

  NO   OCC          E(Eh)            E(eV)
   0   2.0000     -88.966918     -2420.9129
   1   2.0000     -88.955529     -2420.6030
   2   2.0000     -10.330379      -281.1039
   3   2.0000     -10.315556      -280.7005
   4   2.0000     -10.309700      -280.5412
   5   2.0000     -10.309063      -280.5239
   6   2.0000     -10.296089      -280.1708
   7   2.0000     -10.295905      -280.1658
   8   2.0000     -10.293318      -280.0954
   9   2.0000     -10.289327      -279.9868
  10   2.0000     -10.289092      -279.9804
  11   2.0000     -10.288525      -279.9650
  12   2.0000     -10.281754      -279.7808
  13   2.0000     -10.280013      -279.7334
  14   2.0000     -10.277829      -279.6740
  15   2.0000     -10.275411      -279.6082
  16   2.0000      -8.081028      -219.8960
  17   2.0000      -8.071661      -219.6411
  18   2.0000      -6.039393      -164.3403
  19   2.0000      -6.035691      -164.2395
  20   2.0000      -6.031937      -164.1374
  21   2.0000      -6.029981      -164.0841
  22   2.0000      -6.025892      -163.9729
  23   2.0000      -6.022628      -163.8840
  24   2.0000      -1.009193       -27.4615
  25   2.0000      -0.985306       -26.8115
  26   2.0000      -0.913962       -24.8702
  27   2.0000      -0.901351       -24.5270
  28   2.0000      -0.867449       -23.6045
  29   2.0000      -0.852562       -23.1994
  30   2.0000      -0.849979       -23.1291
  31   2.0000      -0.811641       -22.0859
  32   2.0000      -0.782139       -21.2831
  33   2.0000      -0.771596       -20.9962
  34   2.0000      -0.709468       -19.3056
  35   2.0000      -0.701159       -19.0795
  36   2.0000      -0.698551       -19.0085
  37   2.0000      -0.654142       -17.8001
  38   2.0000      -0.648652       -17.6507
  39   2.0000      -0.622496       -16.9390
  40   2.0000      -0.598143       -16.2763
  41   2.0000      -0.584350       -15.9010
  42   2.0000      -0.566448       -15.4138
  43   2.0000      -0.545795       -14.8518
  44   2.0000      -0.534818       -14.5531
  45   2.0000      -0.529476       -14.4078
  46   2.0000      -0.522015       -14.2048
  47   2.0000      -0.507102       -13.7989
  48   2.0000      -0.506634       -13.7862
  49   2.0000      -0.493956       -13.4412
  50   2.0000      -0.484837       -13.1931
  51   2.0000      -0.482076       -13.1180
  52   2.0000      -0.474553       -12.9132
  53   2.0000      -0.467700       -12.7268
  54   2.0000      -0.459784       -12.5114
  55   2.0000      -0.445875       -12.1329
  56   2.0000      -0.442939       -12.0530
  57   2.0000      -0.439444       -11.9579
  58   2.0000      -0.432405       -11.7663
  59   2.0000      -0.425777       -11.5860
  60   2.0000      -0.418695       -11.3933
  61   2.0000      -0.416634       -11.3372
  62   2.0000      -0.410738       -11.1768
  63   2.0000      -0.337136        -9.1739
  64   2.0000      -0.328626        -8.9424
  65   2.0000      -0.323148        -8.7933
  66   2.0000      -0.300527        -8.1778
  67   0.0000       0.042009         1.1431
  68   0.0000       0.059769         1.6264
  69   0.0000       0.113654         3.0927
  70   0.0000       0.129893         3.5346
  71   0.0000       0.133848         3.6422

MULLIKEN ATOMIC CHARGES
-----------------------
   0 S :    0.116570
   1 C :   -0.122312
   2 C :   -0.075786
   3 C :    0.080043
   4 C :   -0.171101
   5 H :   -0.016025
   6 C :    0.059240
   7 H :    0.030978
   8 H :    0.003360
   9 C :   -0.058653
  10 H :    0.038693
  11 H :    0.031642
  12 C :   -0.051979
  13 H :    0.020379
  14 H :    0.031875
  15 H :    0.035158
  16 S :    0.100378
  17 C :   -0.107106
  18 C :   -0.039331
  19 C :    0.027397
  20 C :   -0.195230
  21 H :   -0.003346
  22 C :    0.041829
  23 H :    0.023456
  24 H :    0.034917
  25 C :   -0.040461
  26 H :    0.032234
  27 H :    0.024598
  28 C :   -0.021352
  29 H :    0.031960
  30 H :    0.028653
  31 H :    0.020021
  32 H :    0.028924
  33 H :    0.060378
Sum of atomic charges:   -0.0000000

LOEWDIN ATOMIC CHARGES
----------------------
   0 S :    0.397933
   1 C :   -0.187473
   2 C :   -0.062723
   3 C :   -0.041329
   4 C :   -0.178747
   5 H :    0.022192
   6 C :   -0.028145
   7 H :    0.029856
   8 H :    0.022114
   9 C :   -0.027879
  10 H :    0.026821
  11 H :    0.021381
  12 C :   -0.069412
  13 H :    0.021798
  14 H :    0.024840
  15 H :    0.026626
  16 S :    0.412637
  17 C :   -0.190779
  18 C :   -0.076255
  19 C :   -0.060269
  20 C :   -0.206735
  21 H :    0.022103
  22 C :   -0.027956
  23 H :    0.025139
  24 H :    0.035991
  25 C :   -0.036525
  26 H :    0.027566
  27 H :    0.020137
  28 C :   -0.060497
  29 H :    0.026348
  30 H :    0.023323
  31 H :    0.028959
  32 H :    0.010313
  33 H :    0.028647

  Mayer bond orders larger than 0.100000
B(  0-S ,  1-C ) :   1.1529 B(  0-S ,  4-C ) :   1.1514 B(  1-C ,  2-C ) :   1.5714
B(  1-C ,  4-C ) :   0.1058 B(  1-C , 32-H ) :   0.9804 B(  2-C ,  3-C ) :   1.2602
B(  2-C ,  6-C ) :   1.0479 B(  3-C ,  4-C ) :   1.5626 B(  3-C ,  5-H ) :   1.0071
B(  4-C , 20-C ) :   1.0048 B(  6-C ,  7-H ) :   0.9443 B(  6-C ,  8-H ) :   0.9354
B(  6-C ,  9-C ) :   1.0475 B(  9-C , 10-H ) :   0.9686 B(  9-C , 11-H ) :   0.9660
B(  9-C , 12-C ) :   1.0506 B( 12-C , 13-H ) :   0.9785 B( 12-C , 14-H ) :   0.9763
B( 12-C , 15-H ) :   0.9816 B( 16-S , 17-C ) :   1.1723 B( 16-S , 20-C ) :   1.1571
B( 17-C , 18-C ) :   1.5782 B( 17-C , 33-H ) :   0.9721 B( 18-C , 19-C ) :   1.2298
B( 18-C , 21-H ) :   1.0056 B( 19-C , 20-C ) :   1.6242 B( 19-C , 22-C ) :   1.0177
B( 22-C , 23-H ) :   0.9337 B( 22-C , 24-H ) :   0.9246 B( 22-C , 25-C ) :   1.0850
B( 25-C , 26-H ) :   0.9422 B( 25-C , 27-H ) :   0.9540 B( 25-C , 28-C ) :   1.1030
B( 28-C , 29-H ) :   0.9702 B( 28-C , 30-H ) :   0.9722 B( 28-C , 31-H ) :   0.9684

Dispersion correction           -0.014155174
FINAL SINGLE POINT ENERGY     -1339.859910828503

DIPOLE MOMENT
-------------
                                X             Y             Z
Electronic contribution:     -1.04086     -26.26432      10.47130
Nuclear contribution   :      0.88921      26.88740     -10.79567
                        -----------------------------------------
Total Dipole Moment    :     -0.15165       0.62308      -0.32436
                        -----------------------------------------
Magnitude (a.u.)       :      0.71864
Magnitude (Debye)      :      1.82663

Rotational constants in cm-1:     0.017774     0.008586     0.006615
Rotational constants in MHz :   532.858576   257.400870   198.303825

                             ****ORCA TERMINATED NORMALLY****
TOTAL RUN TIME: 0 days 0 hours 0 minutes 21 seconds 407 msec
