                         Program Version 4.2.1 -  RELEASE  -
|  1> ! wB97X-D3 SP def2-SVP
|  2> %pal
|  3> nprocs 24
|  4> end
|  5>
|  6> * xyz 0 1
|  7> S 	 -125.689 	 62.992 	 -40.332
|  8> C 	 -124.525 	 62.2502 	 -41.5062
|  9> C 	 -123.253 	 62.2878 	 -41.0436
| 10> C 	 -123.147 	 62.7414 	 -39.7156
| 11> C 	 -124.35 	 63.2912 	 -39.2259
| 12> H 	 -122.234 	 62.8992 	 -39.1715
| 13> C 	 -122.068 	 61.6387 	 -41.7414
| 14> H 	 -122.103 	 60.5299 	 -41.6355
| 15> H 	 -121.166 	 61.9635 	 -41.2079
| 16> C 	 -121.875 	 61.8875 	 -43.239
| 17> H 	 -120.968 	 61.3194 	 -43.4972
| 18> H 	 -122.602 	 61.3762 	 -43.8936
| 19> C 	 -121.565 	 63.3513 	 -43.6965
| 20> H 	 -120.804 	 63.7875 	 -43.1126
| 21> H 	 -121.233 	 63.2568 	 -44.7065
| 22> H 	 -122.439 	 64.0361 	 -43.5359
| 23> S 	 -125.833 	 63.9719 	 -37.0979
| 24> C 	 -125.596 	 65.5194 	 -36.3218
| 25> C 	 -124.612 	 66.2539 	 -36.9478
| 26> C 	 -123.924 	 65.4553 	 -37.9345
| 27> C 	 -124.562 	 64.2756 	 -38.1877
| 28> H 	 -124.159 	 67.2048 	 -36.5603
| 29> C 	 -122.772 	 65.9514 	 -38.6694
| 30> H 	 -123.117 	 66.908 	 -38.9768
| 31> H 	 -122.591 	 65.3331 	 -39.5484
| 32> C 	 -121.467 	 66.0894 	 -37.8793
| 33> H 	 -120.955 	 65.0642 	 -37.8089
| 34> H 	 -121.692 	 66.4748 	 -36.9019
| 35> C 	 -120.369 	 66.9718 	 -38.5038
| 36> H 	 -120.28 	 66.6936 	 -39.5589
| 37> H 	 -119.442 	 66.7407 	 -37.9539
| 38> H 	 -120.566 	 68.0371 	 -38.5516
| 39> H 	 -124.824 	 61.7899 	 -42.3787
| 40> H 	 -126.314 	 65.8992 	 -35.5111
| 41> *
| 42>
| 43>                          ****END OF INPUT****

CARTESIAN COORDINATES (ANGSTROEM)
---------------------------------
  S    -125.689000   62.992000  -40.332000
  C    -124.525000   62.250200  -41.506200
  C    -123.253000   62.287800  -41.043600
  C    -123.147000   62.741400  -39.715600
  C    -124.350000   63.291200  -39.225900
  H    -122.234000   62.899200  -39.171500
  C    -122.068000   61.638700  -41.741400
  H    -122.103000   60.529900  -41.635500
  H    -121.166000   61.963500  -41.207900
  C    -121.875000   61.887500  -43.239000
  H    -120.968000   61.319400  -43.497200
  H    -122.602000   61.376200  -43.893600
  C    -121.565000   63.351300  -43.696500
  H    -120.804000   63.787500  -43.112600
  H    -121.233000   63.256800  -44.706500
  H    -122.439000   64.036100  -43.535900
  S    -125.833000   63.971900  -37.097900
  C    -125.596000   65.519400  -36.321800
  C    -124.612000   66.253900  -36.947800
  C    -123.924000   65.455300  -37.934500
  C    -124.562000   64.275600  -38.187700
  H    -124.159000   67.204800  -36.560300
  C    -122.772000   65.951400  -38.669400
  H    -123.117000   66.908000  -38.976800
  H    -122.591000   65.333100  -39.548400
  C    -121.467000   66.089400  -37.879300
  H    -120.955000   65.064200  -37.808900
  H    -121.692000   66.474800  -36.901900
  C    -120.369000   66.971800  -38.503800
  H    -120.280000   66.693600  -39.558900
  H    -119.442000   66.740700  -37.953900
  H    -120.566000   68.037100  -38.551600
  H    -124.824000   61.789900  -42.378700
  H    -126.314000   65.899200  -35.511100

 Total Charge           Charge          ....    0
 Multiplicity           Mult            ....    1
 Number of Electrons    NEL             ....  134
 Basis Dimension        Dim             ....  322

ORBITAL ENERGIES
----------------

  NO   OCC          E(Eh)            E(eV)
   0   2.0000     -88.965172     -2420.8654
   1   2.0000     -88.962896     -2420.8035
   2   2.0000     -10.330998      -281.1208
   3   2.0000     -10.325111      -280.9606
   4   2.0000     -10.316632      -280.7298
   5   2.0000     -10.309307      -280.5305
   6   2.0000     -10.299468      -280.2628
   7   2.0000     -10.297546      -280.2105
   8   2.0000     -10.296534      -280.1829
   9   2.0000     -10.296251      -280.1752
  10   2.0000     -10.294502      -280.1276
  11   2.0000     -10.291405      -280.0434
  12   2.0000     -10.291388      -280.0429
  13   2.0000     -10.280458      -279.7455
  14   2.0000     -10.280157      -279.7373
  15   2.0000     -10.276612      -279.6408
  16   2.0000      -8.079008      -219.8410
  17   2.0000      -8.078971      -219.8400
  18   2.0000      -6.037496      -164.2886
  19   2.0000      -6.037393      -164.2858
  20   2.0000      -6.033665      -164.1844
  21   2.0000      -6.033344      -164.1756
  22   2.0000      -6.029775      -164.0785
  23   2.0000      -6.029710      -164.0768
  24   2.0000      -1.012707       -27.5571
  25   2.0000      -0.983530       -26.7632
  26   2.0000      -0.915394       -24.9091
  27   2.0000      -0.908853       -24.7311
  28   2.0000      -0.869367       -23.6567
  29   2.0000      -0.855339       -23.2749
  30   2.0000      -0.844405       -22.9774
  31   2.0000      -0.813423       -22.1344
  32   2.0000      -0.786360       -21.3979
  33   2.0000      -0.773843       -21.0573
  34   2.0000      -0.707291       -19.2464
  35   2.0000      -0.702214       -19.1082
  36   2.0000      -0.691688       -18.8218
  37   2.0000      -0.665795       -18.1172
  38   2.0000      -0.641555       -17.4576
  39   2.0000      -0.612926       -16.6786
  40   2.0000      -0.595233       -16.1971
  41   2.0000      -0.568331       -15.4651
  42   2.0000      -0.563928       -15.3453
  43   2.0000      -0.551574       -15.0091
  44   2.0000      -0.539394       -14.6777
  45   2.0000      -0.528937       -14.3931
  46   2.0000      -0.518080       -14.0977
  47   2.0000      -0.514010       -13.9869
  48   2.0000      -0.511136       -13.9087
  49   2.0000      -0.499985       -13.6053
  50   2.0000      -0.495378       -13.4799
  51   2.0000      -0.482305       -13.1242
  52   2.0000      -0.466860       -12.7039
  53   2.0000      -0.465161       -12.6577
  54   2.0000      -0.455364       -12.3911
  55   2.0000      -0.451183       -12.2773
  56   2.0000      -0.439629       -11.9629
  57   2.0000      -0.437964       -11.9176
  58   2.0000      -0.433016       -11.7830
  59   2.0000      -0.428409       -11.6576
  60   2.0000      -0.422138       -11.4870
  61   2.0000      -0.418593       -11.3905
  62   2.0000      -0.410139       -11.1604
  63   2.0000      -0.343564        -9.3489
  64   2.0000      -0.334583        -9.1045
  65   2.0000      -0.326371        -8.8810
  66   2.0000      -0.294036        -8.0011
  67   0.0000       0.029343         0.7985
  68   0.0000       0.067903         1.8477
  69   0.0000       0.107104         2.9144
  70   0.0000       0.118379         3.2212
  71   0.0000       0.122323         3.3286

MULLIKEN ATOMIC CHARGES
-----------------------
   0 S :    0.097699
   1 C :   -0.091272
   2 C :   -0.070947
   3 C :    0.033291
   4 C :   -0.140591
   5 H :    0.007076
   6 C :    0.054167
   7 H :    0.051422
   8 H :    0.015202
   9 C :   -0.110480
  10 H :    0.022009
  11 H :    0.030715
  12 C :   -0.027192
  13 H :    0.014640
  14 H :    0.035617
  15 H :    0.047680
  16 S :    0.108872
  17 C :   -0.116469
  18 C :   -0.031466
  19 C :   -0.054832
  20 C :   -0.161763
  21 H :    0.040911
  22 C :    0.085645
  23 H :    0.012840
  24 H :    0.026054
  25 C :   -0.093481
  26 H :    0.035657
  27 H :    0.022573
  28 C :   -0.047005
  29 H :    0.022584
  30 H :    0.044882
  31 H :    0.032384
  32 H :    0.015182
  33 H :    0.088395
Sum of atomic charges:    0.0000000

LOEWDIN ATOMIC CHARGES
----------------------
   0 S :    0.379335
   1 C :   -0.161590
   2 C :   -0.069195
   3 C :   -0.063131
   4 C :   -0.180196
   5 H :    0.027866
   6 C :   -0.032980
   7 H :    0.042080
   8 H :    0.028198
   9 C :   -0.049616
  10 H :    0.027634
  11 H :    0.023021
  12 C :   -0.061181
  13 H :    0.016937
  14 H :    0.025831
  15 H :    0.032233
  16 S :    0.422759
  17 C :   -0.192081
  18 C :   -0.078406
  19 C :   -0.054361
  20 C :   -0.224676
  21 H :    0.040638
  22 C :   -0.036409
  23 H :    0.029728
  24 H :    0.031512
  25 C :   -0.037814
  26 H :    0.031383
  27 H :    0.016799
  28 C :   -0.067869
  29 H :    0.024260
  30 H :    0.031947
  31 H :    0.021214
  32 H :    0.010505
  33 H :    0.045625

  Mayer bond orders larger than 0.100000
B(  0-S ,  1-C ) :   1.1157 B(  0-S ,  4-C ) :   1.1608 B(  1-C ,  2-C ) :   1.6215
B(  1-C ,  4-C ) :   0.1038 B(  1-C , 32-H ) :   0.9840 B(  2-C ,  3-C ) :   1.2363
B(  2-C ,  6-C ) :   1.0147 B(  3-C ,  4-C ) :   1.5592 B(  3-C ,  5-H ) :   0.9987
B(  4-C , 20-C ) :   1.0167 B(  6-C ,  7-H ) :   0.9382 B(  6-C ,  8-H ) :   0.9405
B(  6-C ,  9-C ) :   1.0876 B(  9-C , 10-H ) :   0.9515 B(  9-C , 11-H ) :   0.9532
B(  9-C , 12-C ) :   1.0711 B( 12-C , 13-H ) :   0.9744 B( 12-C , 14-H ) :   0.9757
B( 12-C , 15-H ) :   0.9758 B( 16-S , 17-C ) :   1.1595 B( 16-S , 20-C ) :   1.1413
B( 17-C , 18-C ) :   1.6113 B( 17-C , 33-H ) :   0.9565 B( 18-C , 19-C ) :   1.2355
B( 18-C , 21-H ) :   0.9749 B( 19-C , 20-C ) :   1.6059 B( 19-C , 22-C ) :   1.0616
B( 22-C , 23-H ) :   0.9246 B( 22-C , 24-H ) :   0.9224 B( 22-C , 25-C ) :   1.0635
B( 25-C , 26-H ) :   0.9523 B( 25-C , 27-H ) :   0.9588 B( 25-C , 28-C ) :   1.0806
B( 28-C , 29-H ) :   0.9721 B( 28-C , 30-H ) :   0.9758 B( 28-C , 31-H ) :   0.9759

Dispersion correction           -0.014355666
FINAL SINGLE POINT ENERGY     -1339.875460779276

DIPOLE MOMENT
-------------
                                X             Y             Z
Electronic contribution:    -27.44753      -6.83623      13.68839
Nuclear contribution   :     28.11221       7.04265     -13.88737
                        -----------------------------------------
Total Dipole Moment    :      0.66468       0.20642      -0.19898
                        -----------------------------------------
Magnitude (a.u.)       :      0.72388
Magnitude (Debye)      :      1.83996

Rotational constants in cm-1:     0.017840     0.009473     0.006653
Rotational constants in MHz :   534.836688   284.008289   199.443732

                             ****ORCA TERMINATED NORMALLY****
TOTAL RUN TIME: 0 days 0 hours 0 minutes 21 seconds 942 msec
