                         Program Version 4.2.1 -  RELEASE  -
|  1> ! wB97X-D3 SP def2-SVP
|  2> %pal
|  3> nprocs 24
|  4> end
|  5>
|  6> * xyz 0 1
|  7> S 	 -51.0875 	 14.4211 	 -100.03
|  8> C 	 -52.1318 	 13.063 	 -99.6801
|  9> C 	 -51.3236 	 11.8756 	 -99.6957
| 10> C 	 -49.9594 	 12.1083 	 -99.9365
| 11> C 	 -49.6476 	 13.4429 	 -100.228
| 12> H 	 -49.1454 	 11.3729 	 -99.9402
| 13> C 	 -51.9771 	 10.5888 	 -99.0778
| 14> H 	 -52.9182 	 10.7982 	 -98.5826
| 15> H 	 -51.332 	 10.3105 	 -98.2637
| 16> C 	 -52.1316 	 9.35168 	 -99.9633
| 17> H 	 -51.152 	 9.10693 	 -100.251
| 18> H 	 -52.4797 	 8.55607 	 -99.3607
| 19> C 	 -53.0362 	 9.48812 	 -101.151
| 20> H 	 -53.1892 	 8.57122 	 -101.691
| 21> H 	 -54.0304 	 9.76845 	 -100.772
| 22> H 	 -52.6104 	 10.1825 	 -101.889
| 23> S 	 -48.3021 	 15.2949 	 -101.764
| 24> C 	 -46.6166 	 15.5845 	 -101.504
| 25> C 	 -46.1031 	 14.5049 	 -100.872
| 26> C 	 -47.0977 	 13.6418 	 -100.262
| 27> C 	 -48.4061 	 13.9459 	 -100.641
| 28> H 	 -45.0359 	 14.3674 	 -100.673
| 29> C 	 -46.695 	 12.5309 	 -99.414
| 30> H 	 -46.2319 	 11.7671 	 -100.106
| 31> H 	 -47.466 	 11.9629 	 -98.9556
| 32> C 	 -45.5376 	 12.7738 	 -98.382
| 33> H 	 -45.9121 	 13.3248 	 -97.5205
| 34> H 	 -44.6875 	 13.2534 	 -98.753
| 35> C 	 -44.8667 	 11.5361 	 -97.7584
| 36> H 	 -43.9198 	 11.7254 	 -97.2237
| 37> H 	 -44.6332 	 10.77 	 -98.4488
| 38> H 	 -45.5086 	 11.1229 	 -97.0852
| 39> H 	 -53.1801 	 13.1293 	 -99.4386
| 40> H 	 -46.0662 	 16.3283 	 -102.098
| 41> *
| 42>
| 43>                          ****END OF INPUT****

CARTESIAN COORDINATES (ANGSTROEM)
---------------------------------
  S    -51.087500   14.421100  -100.030000
  C    -52.131800   13.063000  -99.680100
  C    -51.323600   11.875600  -99.695700
  C    -49.959400   12.108300  -99.936500
  C    -49.647600   13.442900  -100.228000
  H    -49.145400   11.372900  -99.940200
  C    -51.977100   10.588800  -99.077800
  H    -52.918200   10.798200  -98.582600
  H    -51.332000   10.310500  -98.263700
  C    -52.131600    9.351680  -99.963300
  H    -51.152000    9.106930  -100.251000
  H    -52.479700    8.556070  -99.360700
  C    -53.036200    9.488120  -101.151000
  H    -53.189200    8.571220  -101.691000
  H    -54.030400    9.768450  -100.772000
  H    -52.610400   10.182500  -101.889000
  S    -48.302100   15.294900  -101.764000
  C    -46.616600   15.584500  -101.504000
  C    -46.103100   14.504900  -100.872000
  C    -47.097700   13.641800  -100.262000
  C    -48.406100   13.945900  -100.641000
  H    -45.035900   14.367400  -100.673000
  C    -46.695000   12.530900  -99.414000
  H    -46.231900   11.767100  -100.106000
  H    -47.466000   11.962900  -98.955600
  C    -45.537600   12.773800  -98.382000
  H    -45.912100   13.324800  -97.520500
  H    -44.687500   13.253400  -98.753000
  C    -44.866700   11.536100  -97.758400
  H    -43.919800   11.725400  -97.223700
  H    -44.633200   10.770000  -98.448800
  H    -45.508600   11.122900  -97.085200
  H    -53.180100   13.129300  -99.438600
  H    -46.066200   16.328300  -102.098000

 Total Charge           Charge          ....    0
 Multiplicity           Mult            ....    1
 Number of Electrons    NEL             ....  134
 Basis Dimension        Dim             ....  322

ORBITAL ENERGIES
----------------

  NO   OCC          E(Eh)            E(eV)
   0   2.0000     -88.969588     -2420.9856
   1   2.0000     -88.959218     -2420.7034
   2   2.0000     -10.330880      -281.1175
   3   2.0000     -10.325865      -280.9811
   4   2.0000     -10.320246      -280.8282
   5   2.0000     -10.317994      -280.7669
   6   2.0000     -10.309043      -280.5233
   7   2.0000     -10.304033      -280.3870
   8   2.0000     -10.298979      -280.2495
   9   2.0000     -10.294731      -280.1339
  10   2.0000     -10.294713      -280.1334
  11   2.0000     -10.290837      -280.0279
  12   2.0000     -10.283874      -279.8384
  13   2.0000     -10.273013      -279.5429
  14   2.0000     -10.271524      -279.5024
  15   2.0000     -10.268394      -279.4172
  16   2.0000      -8.083820      -219.9719
  17   2.0000      -8.074701      -219.7238
  18   2.0000      -6.042254      -164.4181
  19   2.0000      -6.038153      -164.3065
  20   2.0000      -6.034908      -164.2182
  21   2.0000      -6.033318      -164.1749
  22   2.0000      -6.029058      -164.0590
  23   2.0000      -6.025319      -163.9573
  24   2.0000      -1.011182       -27.5157
  25   2.0000      -0.985120       -26.8065
  26   2.0000      -0.912781       -24.8380
  27   2.0000      -0.911568       -24.8050
  28   2.0000      -0.878536       -23.9062
  29   2.0000      -0.857033       -23.3210
  30   2.0000      -0.845951       -23.0195
  31   2.0000      -0.816596       -22.2207
  32   2.0000      -0.785541       -21.3757
  33   2.0000      -0.773758       -21.0550
  34   2.0000      -0.715681       -19.4747
  35   2.0000      -0.706537       -19.2258
  36   2.0000      -0.693054       -18.8590
  37   2.0000      -0.657552       -17.8929
  38   2.0000      -0.641143       -17.4464
  39   2.0000      -0.623937       -16.9782
  40   2.0000      -0.606387       -16.5006
  41   2.0000      -0.570998       -15.5377
  42   2.0000      -0.568247       -15.4628
  43   2.0000      -0.551652       -15.0112
  44   2.0000      -0.548080       -14.9140
  45   2.0000      -0.531688       -14.4680
  46   2.0000      -0.518540       -14.1102
  47   2.0000      -0.517936       -14.0938
  48   2.0000      -0.514781       -14.0079
  49   2.0000      -0.500359       -13.6154
  50   2.0000      -0.485452       -13.2098
  51   2.0000      -0.483534       -13.1576
  52   2.0000      -0.473469       -12.8837
  53   2.0000      -0.470929       -12.8146
  54   2.0000      -0.462718       -12.5912
  55   2.0000      -0.452428       -12.3112
  56   2.0000      -0.442568       -12.0429
  57   2.0000      -0.438692       -11.9374
  58   2.0000      -0.427750       -11.6397
  59   2.0000      -0.424565       -11.5530
  60   2.0000      -0.423161       -11.5148
  61   2.0000      -0.414273       -11.2729
  62   2.0000      -0.404382       -11.0038
  63   2.0000      -0.359449        -9.7811
  64   2.0000      -0.333657        -9.0793
  65   2.0000      -0.322693        -8.7809
  66   2.0000      -0.282601        -7.6900
  67   0.0000       0.017289         0.4705
  68   0.0000       0.079621         2.1666
  69   0.0000       0.107213         2.9174
  70   0.0000       0.111780         3.0417
  71   0.0000       0.142858         3.8874

MULLIKEN ATOMIC CHARGES
-----------------------
   0 S :    0.129336
   1 C :   -0.133211
   2 C :   -0.061269
   3 C :    0.006874
   4 C :   -0.160364
   5 H :    0.023865
   6 C :    0.042217
   7 H :    0.012398
   8 H :    0.025696
   9 C :   -0.031715
  10 H :    0.004562
  11 H :    0.014328
  12 C :   -0.040052
  13 H :    0.025646
  14 H :    0.021113
  15 H :    0.043840
  16 S :    0.085886
  17 C :   -0.092302
  18 C :   -0.019399
  19 C :   -0.032654
  20 C :   -0.122776
  21 H :    0.028040
  22 C :    0.029169
  23 H :    0.039762
  24 H :    0.015478
  25 C :   -0.060297
  26 H :    0.035268
  27 H :    0.017341
  28 C :   -0.036205
  29 H :    0.035842
  30 H :    0.012395
  31 H :    0.005897
  32 H :    0.060559
  33 H :    0.074732
Sum of atomic charges:    0.0000000

LOEWDIN ATOMIC CHARGES
----------------------
   0 S :    0.423083
   1 C :   -0.199936
   2 C :   -0.060645
   3 C :   -0.069392
   4 C :   -0.195323
   5 H :    0.033155
   6 C :   -0.024247
   7 H :    0.023861
   8 H :    0.030856
   9 C :   -0.040319
  10 H :    0.014121
  11 H :    0.020160
  12 C :   -0.063747
  13 H :    0.023440
  14 H :    0.024621
  15 H :    0.030293
  16 S :    0.399316
  17 C :   -0.186900
  18 C :   -0.070494
  19 C :   -0.055959
  20 C :   -0.197518
  21 H :    0.032133
  22 C :   -0.038222
  23 H :    0.044992
  24 H :    0.023815
  25 C :   -0.031783
  26 H :    0.027483
  27 H :    0.013938
  28 C :   -0.058599
  29 H :    0.033248
  30 H :    0.016875
  31 H :    0.009431
  32 H :    0.030136
  33 H :    0.038128

  Mayer bond orders larger than 0.100000
B(  0-S ,  1-C ) :   1.1602 B(  0-S ,  4-C ) :   1.1607 B(  1-C ,  2-C ) :   1.5251
B(  1-C ,  4-C ) :   0.1160 B(  1-C , 32-H ) :   0.9762 B(  2-C ,  3-C ) :   1.3030
B(  2-C ,  6-C ) :   1.0072 B(  3-C ,  4-C ) :   1.4995 B(  3-C ,  5-H ) :   0.9847
B(  4-C , 20-C ) :   1.1333 B(  6-C ,  7-H ) :   0.9509 B(  6-C ,  8-H ) :   0.9445
B(  6-C ,  9-C ) :   1.0783 B(  9-C , 10-H ) :   0.9532 B(  9-C , 11-H ) :   0.9504
B(  9-C , 12-C ) :   1.0887 B( 12-C , 13-H ) :   0.9725 B( 12-C , 14-H ) :   0.9738
B( 12-C , 15-H ) :   0.9732 B( 16-S , 17-C ) :   1.1534 B( 16-S , 20-C ) :   1.1181
B( 17-C , 18-C ) :   1.6021 B( 17-C , 33-H ) :   0.9642 B( 18-C , 19-C ) :   1.2423
B( 18-C , 21-H ) :   0.9810 B( 19-C , 20-C ) :   1.5552 B( 19-C , 22-C ) :   1.0802
B( 22-C , 23-H ) :   0.9235 B( 22-C , 24-H ) :   0.9304 B( 22-C , 25-C ) :   1.0522
B( 25-C , 26-H ) :   0.9574 B( 25-C , 27-H ) :   0.9594 B( 25-C , 28-C ) :   1.0796
B( 28-C , 29-H ) :   0.9754 B( 28-C , 30-H ) :   0.9719 B( 28-C , 31-H ) :   0.9766

Dispersion correction           -0.013367482
FINAL SINGLE POINT ENERGY     -1339.862100062002

DIPOLE MOMENT
-------------
                                X             Y             Z
Electronic contribution:     -4.48526      25.39528     -10.20382
Nuclear contribution   :      4.83224     -26.01670      10.54770
                        -----------------------------------------
Total Dipole Moment    :      0.34698      -0.62142       0.34388
                        -----------------------------------------
Magnitude (a.u.)       :      0.79045
Magnitude (Debye)      :      2.00916

Rotational constants in cm-1:     0.017770     0.008223     0.006267
Rotational constants in MHz :   532.725428   246.531647   187.876465

                             ****ORCA TERMINATED NORMALLY****
TOTAL RUN TIME: 0 days 0 hours 0 minutes 20 seconds 51 msec
