                         Program Version 4.2.1 -  RELEASE  -
|  1> ! wB97X-D3 SP def2-SVP
|  2> %pal
|  3> nprocs 24
|  4> end
|  5>
|  6> * xyz 0 1
|  7> S 	 -110.559 	 50.4028 	 -86.5164
|  8> C 	 -110.3 	 49.8003 	 -88.1078
|  9> C 	 -109.857 	 50.7923 	 -88.9688
| 10> C 	 -109.674 	 52.1042 	 -88.3198
| 11> C 	 -109.915 	 51.9832 	 -86.9527
| 12> H 	 -109.322 	 53.0007 	 -88.7338
| 13> C 	 -109.594 	 50.742 	 -90.4623
| 14> H 	 -109.524 	 49.6688 	 -90.789
| 15> H 	 -108.602 	 51.1206 	 -90.6127
| 16> C 	 -110.714 	 51.4121 	 -91.2899
| 17> H 	 -111.747 	 51.1326 	 -91.0896
| 18> H 	 -110.695 	 52.5172 	 -91.1119
| 19> C 	 -110.496 	 51.3845 	 -92.7917
| 20> H 	 -109.517 	 51.8143 	 -93.0684
| 21> H 	 -110.437 	 50.3069 	 -93.0547
| 22> H 	 -111.267 	 51.8618 	 -93.3514
| 23> S 	 -111.297 	 53.6858 	 -85.3995
| 24> C 	 -110.481 	 54.7172 	 -84.2715
| 25> C 	 -109.213 	 54.9029 	 -84.7942
| 26> C 	 -108.804 	 54.0034 	 -85.8119
| 27> C 	 -109.854 	 53.1278 	 -86.0436
| 28> H 	 -108.599 	 55.6781 	 -84.3928
| 29> C 	 -107.381 	 53.8996 	 -86.2873
| 30> H 	 -107.025 	 54.9224 	 -86.4479
| 31> H 	 -107.526 	 53.4585 	 -87.3019
| 32> C 	 -106.328 	 53.1037 	 -85.6016
| 33> H 	 -105.512 	 53.1639 	 -86.234
| 34> H 	 -106.625 	 52.0624 	 -85.6273
| 35> C 	 -106.084 	 53.6368 	 -84.1447
| 36> H 	 -106.979 	 53.5855 	 -83.5085
| 37> H 	 -105.811 	 54.7141 	 -84.2219
| 38> H 	 -105.365 	 52.9969 	 -83.6755
| 39> H 	 -110.418 	 48.7679 	 -88.5134
| 40> H 	 -110.883 	 55.2898 	 -83.3991
| 41> *
| 42>
| 43>                          ****END OF INPUT****

CARTESIAN COORDINATES (ANGSTROEM)
---------------------------------
  S    -110.559000   50.402800  -86.516400
  C    -110.300000   49.800300  -88.107800
  C    -109.857000   50.792300  -88.968800
  C    -109.674000   52.104200  -88.319800
  C    -109.915000   51.983200  -86.952700
  H    -109.322000   53.000700  -88.733800
  C    -109.594000   50.742000  -90.462300
  H    -109.524000   49.668800  -90.789000
  H    -108.602000   51.120600  -90.612700
  C    -110.714000   51.412100  -91.289900
  H    -111.747000   51.132600  -91.089600
  H    -110.695000   52.517200  -91.111900
  C    -110.496000   51.384500  -92.791700
  H    -109.517000   51.814300  -93.068400
  H    -110.437000   50.306900  -93.054700
  H    -111.267000   51.861800  -93.351400
  S    -111.297000   53.685800  -85.399500
  C    -110.481000   54.717200  -84.271500
  C    -109.213000   54.902900  -84.794200
  C    -108.804000   54.003400  -85.811900
  C    -109.854000   53.127800  -86.043600
  H    -108.599000   55.678100  -84.392800
  C    -107.381000   53.899600  -86.287300
  H    -107.025000   54.922400  -86.447900
  H    -107.526000   53.458500  -87.301900
  C    -106.328000   53.103700  -85.601600
  H    -105.512000   53.163900  -86.234000
  H    -106.625000   52.062400  -85.627300
  C    -106.084000   53.636800  -84.144700
  H    -106.979000   53.585500  -83.508500
  H    -105.811000   54.714100  -84.221900
  H    -105.365000   52.996900  -83.675500
  H    -110.418000   48.767900  -88.513400
  H    -110.883000   55.289800  -83.399100

 Total Charge           Charge          ....    0
 Multiplicity           Mult            ....    1
 Number of Electrons    NEL             ....  134
 Basis Dimension        Dim             ....  322

ORBITAL ENERGIES
----------------

  NO   OCC          E(Eh)            E(eV)
   0   2.0000     -88.970073     -2420.9988
   1   2.0000     -88.960227     -2420.7308
   2   2.0000     -10.329354      -281.0760
   3   2.0000     -10.317734      -280.7598
   4   2.0000     -10.317310      -280.7483
   5   2.0000     -10.313619      -280.6478
   6   2.0000     -10.304316      -280.3947
   7   2.0000     -10.297665      -280.2137
   8   2.0000     -10.295400      -280.1521
   9   2.0000     -10.295341      -280.1505
  10   2.0000     -10.289261      -279.9850
  11   2.0000     -10.286684      -279.9149
  12   2.0000     -10.286326      -279.9052
  13   2.0000     -10.277892      -279.6757
  14   2.0000     -10.277538      -279.6660
  15   2.0000     -10.277138      -279.6551
  16   2.0000      -8.084698      -219.9958
  17   2.0000      -8.076876      -219.7830
  18   2.0000      -6.043358      -164.4481
  19   2.0000      -6.039176      -164.3343
  20   2.0000      -6.035351      -164.2303
  21   2.0000      -6.035270      -164.2280
  22   2.0000      -6.031185      -164.1169
  23   2.0000      -6.027559      -164.0182
  24   2.0000      -1.014569       -27.6078
  25   2.0000      -0.986803       -26.8523
  26   2.0000      -0.913585       -24.8599
  27   2.0000      -0.910450       -24.7746
  28   2.0000      -0.870742       -23.6941
  29   2.0000      -0.852327       -23.1930
  30   2.0000      -0.845170       -22.9982
  31   2.0000      -0.812060       -22.0973
  32   2.0000      -0.781175       -21.2568
  33   2.0000      -0.771358       -20.9897
  34   2.0000      -0.709485       -19.3061
  35   2.0000      -0.696871       -18.9628
  36   2.0000      -0.690047       -18.7771
  37   2.0000      -0.662304       -18.0222
  38   2.0000      -0.642126       -17.4731
  39   2.0000      -0.615848       -16.7581
  40   2.0000      -0.587676       -15.9915
  41   2.0000      -0.569094       -15.4858
  42   2.0000      -0.560023       -15.2390
  43   2.0000      -0.552654       -15.0385
  44   2.0000      -0.546061       -14.8591
  45   2.0000      -0.532905       -14.5011
  46   2.0000      -0.516197       -14.0464
  47   2.0000      -0.513973       -13.9859
  48   2.0000      -0.506095       -13.7715
  49   2.0000      -0.500663       -13.6237
  50   2.0000      -0.485592       -13.2136
  51   2.0000      -0.479633       -13.0515
  52   2.0000      -0.477070       -12.9817
  53   2.0000      -0.460704       -12.5364
  54   2.0000      -0.457997       -12.4627
  55   2.0000      -0.449962       -12.2441
  56   2.0000      -0.443386       -12.0652
  57   2.0000      -0.440540       -11.9877
  58   2.0000      -0.436410       -11.8753
  59   2.0000      -0.424597       -11.5539
  60   2.0000      -0.416590       -11.3360
  61   2.0000      -0.412335       -11.2202
  62   2.0000      -0.405188       -11.0257
  63   2.0000      -0.341543        -9.2939
  64   2.0000      -0.327448        -8.9103
  65   2.0000      -0.323240        -8.7958
  66   2.0000      -0.295556        -8.0425
  67   0.0000       0.030296         0.8244
  68   0.0000       0.071586         1.9480
  69   0.0000       0.108375         2.9490
  70   0.0000       0.124845         3.3972
  71   0.0000       0.127032         3.4567

MULLIKEN ATOMIC CHARGES
-----------------------
   0 S :    0.129792
   1 C :   -0.112996
   2 C :   -0.106385
   3 C :    0.052823
   4 C :   -0.173580
   5 H :    0.011786
   6 C :    0.072141
   7 H :    0.015057
   8 H :    0.028166
   9 C :   -0.090831
  10 H :    0.037788
  11 H :    0.026196
  12 C :   -0.037661
  13 H :    0.026394
  14 H :    0.021493
  15 H :    0.037551
  16 S :    0.122654
  17 C :   -0.109966
  18 C :   -0.048763
  19 C :   -0.025739
  20 C :   -0.176344
  21 H :    0.002632
  22 C :    0.042927
  23 H :    0.018846
  24 H :    0.006940
  25 C :    0.015361
  26 H :    0.013379
  27 H :    0.023489
  28 C :   -0.063883
  29 H :    0.045524
  30 H :    0.031130
  31 H :    0.033594
  32 H :    0.059022
  33 H :    0.071463
Sum of atomic charges:    0.0000000

LOEWDIN ATOMIC CHARGES
----------------------
   0 S :    0.417169
   1 C :   -0.220358
   2 C :   -0.060503
   3 C :   -0.045682
   4 C :   -0.194343
   5 H :    0.023438
   6 C :   -0.032861
   7 H :    0.029109
   8 H :    0.030060
   9 C :   -0.045039
  10 H :    0.028088
  11 H :    0.025904
  12 C :   -0.064590
  13 H :    0.024602
  14 H :    0.022516
  15 H :    0.023103
  16 S :    0.441229
  17 C :   -0.209121
  18 C :   -0.067035
  19 C :   -0.067763
  20 C :   -0.218007
  21 H :    0.022051
  22 C :   -0.038613
  23 H :    0.029562
  24 H :    0.032488
  25 C :   -0.029055
  26 H :    0.018049
  27 H :    0.026356
  28 C :   -0.064853
  29 H :    0.029649
  30 H :    0.027234
  31 H :    0.022593
  32 H :    0.042429
  33 H :    0.042195

  Mayer bond orders larger than 0.100000
B(  0-S ,  1-C ) :   1.1244 B(  0-S ,  4-C ) :   1.1486 B(  1-C ,  2-C ) :   1.6469
B(  1-C , 32-H ) :   0.9578 B(  2-C ,  3-C ) :   1.2044 B(  2-C ,  6-C ) :   1.0327
B(  3-C ,  4-C ) :   1.5836 B(  3-C ,  5-H ) :   0.9929 B(  4-C , 20-C ) :   1.0218
B(  6-C ,  7-H ) :   0.9406 B(  6-C ,  8-H ) :   0.9380 B(  6-C ,  9-C ) :   1.0531
B(  9-C , 10-H ) :   0.9588 B(  9-C , 11-H ) :   0.9543 B(  9-C , 12-C ) :   1.0865
B( 12-C , 13-H ) :   0.9739 B( 12-C , 14-H ) :   0.9741 B( 12-C , 15-H ) :   0.9744
B( 16-S , 17-C ) :   1.1419 B( 16-S , 20-C ) :   1.2015 B( 17-C , 18-C ) :   1.5844
B( 17-C , 20-C ) :   0.1014 B( 17-C , 33-H ) :   0.9689 B( 18-C , 19-C ) :   1.2525
B( 18-C , 21-H ) :   0.9918 B( 19-C , 20-C ) :   1.5428 B( 19-C , 22-C ) :   1.0523
B( 22-C , 23-H ) :   0.9273 B( 22-C , 24-H ) :   0.9136 B( 22-C , 25-C ) :   1.0951
B( 25-C , 26-H ) :   0.9456 B( 25-C , 27-H ) :   0.9479 B( 25-C , 28-C ) :   1.0730
B( 28-C , 29-H ) :   0.9735 B( 28-C , 30-H ) :   0.9745 B( 28-C , 31-H ) :   0.9745

Dispersion correction           -0.014364398
FINAL SINGLE POINT ENERGY     -1339.862766813029

DIPOLE MOMENT
-------------
                                X             Y             Z
Electronic contribution:    -15.55118      -2.26763      16.05590
Nuclear contribution   :     15.94479       2.42243     -16.48509
                        -----------------------------------------
Total Dipole Moment    :      0.39361       0.15480      -0.42919
                        -----------------------------------------
Magnitude (a.u.)       :      0.60257
Magnitude (Debye)      :      1.53162

Rotational constants in cm-1:     0.020460     0.007642     0.006980
Rotational constants in MHz :   613.374579   229.110770   209.240748

                             ****ORCA TERMINATED NORMALLY****
TOTAL RUN TIME: 0 days 0 hours 0 minutes 21 seconds 659 msec
