                         Program Version 4.2.1 -  RELEASE  -
|  1> ! wB97X-D3 SP def2-SVP
|  2> %pal
|  3> nprocs 24
|  4> end
|  5>
|  6> * xyz 0 1
|  7> S 	 -61.4007 	 13.3759 	 -108.702
|  8> C 	 -63.0269 	 12.8292 	 -109.027
|  9> C 	 -63.3909 	 12.9529 	 -110.416
| 10> C 	 -62.3531 	 13.6348 	 -111.097
| 11> C 	 -61.2876 	 14.0309 	 -110.317
| 12> H 	 -62.2266 	 13.9821 	 -112.107
| 13> C 	 -64.5754 	 12.4319 	 -111.201
| 14> H 	 -64.7661 	 13.3464 	 -111.686
| 15> H 	 -65.4261 	 12.1949 	 -110.566
| 16> C 	 -64.3351 	 11.3814 	 -112.296
| 17> H 	 -63.5204 	 11.6725 	 -112.915
| 18> H 	 -64.2094 	 10.4711 	 -111.79
| 19> C 	 -65.5219 	 11.3193 	 -113.257
| 20> H 	 -65.6824 	 12.1939 	 -113.771
| 21> H 	 -65.3006 	 10.4909 	 -113.963
| 22> H 	 -66.5023 	 11.1627 	 -112.839
| 23> S 	 -58.5787 	 14.3881 	 -110.217
| 24> C 	 -57.8189 	 15.7277 	 -110.941
| 25> C 	 -58.7337 	 16.5877 	 -111.466
| 26> C 	 -60.0742 	 16.0483 	 -111.366
| 27> C 	 -60.1181 	 14.8749 	 -110.697
| 28> H 	 -58.4858 	 17.5184 	 -111.966
| 29> C 	 -61.2511 	 16.7964 	 -111.917
| 30> H 	 -61.4182 	 17.651 	 -111.222
| 31> H 	 -62.1813 	 16.217 	 -111.814
| 32> C 	 -61.1061 	 17.3176 	 -113.353
| 33> H 	 -60.9692 	 16.5231 	 -114.078
| 34> H 	 -60.2491 	 17.9653 	 -113.356
| 35> C 	 -62.2857 	 18.0707 	 -113.947
| 36> H 	 -62.2459 	 18.4115 	 -114.981
| 37> H 	 -62.4848 	 18.9676 	 -113.425
| 38> H 	 -63.2043 	 17.4805 	 -113.819
| 39> H 	 -63.5943 	 12.2741 	 -108.288
| 40> H 	 -56.7465 	 15.9555 	 -110.898
| 41> *
| 42>
| 43>                          ****END OF INPUT****

CARTESIAN COORDINATES (ANGSTROEM)
---------------------------------
  S    -61.400700   13.375900  -108.702000
  C    -63.026900   12.829200  -109.027000
  C    -63.390900   12.952900  -110.416000
  C    -62.353100   13.634800  -111.097000
  C    -61.287600   14.030900  -110.317000
  H    -62.226600   13.982100  -112.107000
  C    -64.575400   12.431900  -111.201000
  H    -64.766100   13.346400  -111.686000
  H    -65.426100   12.194900  -110.566000
  C    -64.335100   11.381400  -112.296000
  H    -63.520400   11.672500  -112.915000
  H    -64.209400   10.471100  -111.790000
  C    -65.521900   11.319300  -113.257000
  H    -65.682400   12.193900  -113.771000
  H    -65.300600   10.490900  -113.963000
  H    -66.502300   11.162700  -112.839000
  S    -58.578700   14.388100  -110.217000
  C    -57.818900   15.727700  -110.941000
  C    -58.733700   16.587700  -111.466000
  C    -60.074200   16.048300  -111.366000
  C    -60.118100   14.874900  -110.697000
  H    -58.485800   17.518400  -111.966000
  C    -61.251100   16.796400  -111.917000
  H    -61.418200   17.651000  -111.222000
  H    -62.181300   16.217000  -111.814000
  C    -61.106100   17.317600  -113.353000
  H    -60.969200   16.523100  -114.078000
  H    -60.249100   17.965300  -113.356000
  C    -62.285700   18.070700  -113.947000
  H    -62.245900   18.411500  -114.981000
  H    -62.484800   18.967600  -113.425000
  H    -63.204300   17.480500  -113.819000
  H    -63.594300   12.274100  -108.288000
  H    -56.746500   15.955500  -110.898000

 Total Charge           Charge          ....    0
 Multiplicity           Mult            ....    1
 Number of Electrons    NEL             ....  134
 Basis Dimension        Dim             ....  322

ORBITAL ENERGIES
----------------

  NO   OCC          E(Eh)            E(eV)
   0   2.0000     -88.966975     -2420.9145
   1   2.0000     -88.961911     -2420.7767
   2   2.0000     -10.327843      -281.0349
   3   2.0000     -10.319131      -280.7978
   4   2.0000     -10.317813      -280.7620
   5   2.0000     -10.313661      -280.6490
   6   2.0000     -10.309363      -280.5320
   7   2.0000     -10.297380      -280.2060
   8   2.0000     -10.292026      -280.0603
   9   2.0000     -10.291729      -280.0522
  10   2.0000     -10.290007      -280.0053
  11   2.0000     -10.288104      -279.9535
  12   2.0000     -10.284731      -279.8617
  13   2.0000     -10.283216      -279.8205
  14   2.0000     -10.274022      -279.5703
  15   2.0000     -10.272832      -279.5380
  16   2.0000      -8.081688      -219.9139
  17   2.0000      -8.079132      -219.8444
  18   2.0000      -6.040060      -164.3584
  19   2.0000      -6.037580      -164.2909
  20   2.0000      -6.036256      -164.2549
  21   2.0000      -6.033212      -164.1720
  22   2.0000      -6.032562      -164.1544
  23   2.0000      -6.029889      -164.0816
  24   2.0000      -1.017630       -27.6911
  25   2.0000      -0.987538       -26.8723
  26   2.0000      -0.917635       -24.9701
  27   2.0000      -0.912060       -24.8184
  28   2.0000      -0.869581       -23.6625
  29   2.0000      -0.858263       -23.3545
  30   2.0000      -0.850814       -23.1518
  31   2.0000      -0.817115       -22.2348
  32   2.0000      -0.783871       -21.3302
  33   2.0000      -0.773639       -21.0518
  34   2.0000      -0.712960       -19.4006
  35   2.0000      -0.704385       -19.1673
  36   2.0000      -0.691382       -18.8135
  37   2.0000      -0.662498       -18.0275
  38   2.0000      -0.645566       -17.5667
  39   2.0000      -0.621889       -16.9225
  40   2.0000      -0.600778       -16.3480
  41   2.0000      -0.574415       -15.6306
  42   2.0000      -0.567051       -15.4303
  43   2.0000      -0.562819       -15.3151
  44   2.0000      -0.530962       -14.4482
  45   2.0000      -0.525872       -14.3097
  46   2.0000      -0.518163       -14.0999
  47   2.0000      -0.515174       -14.0186
  48   2.0000      -0.508124       -13.8268
  49   2.0000      -0.502741       -13.6803
  50   2.0000      -0.488925       -13.3043
  51   2.0000      -0.479170       -13.0389
  52   2.0000      -0.470853       -12.8126
  53   2.0000      -0.466602       -12.6969
  54   2.0000      -0.463037       -12.5999
  55   2.0000      -0.457898       -12.4600
  56   2.0000      -0.445783       -12.1304
  57   2.0000      -0.436959       -11.8903
  58   2.0000      -0.436476       -11.8771
  59   2.0000      -0.429743       -11.6939
  60   2.0000      -0.421359       -11.4658
  61   2.0000      -0.420042       -11.4299
  62   2.0000      -0.416823       -11.3423
  63   2.0000      -0.350766        -9.5448
  64   2.0000      -0.331673        -9.0253
  65   2.0000      -0.326448        -8.8831
  66   2.0000      -0.290083        -7.8935
  67   0.0000       0.036289         0.9875
  68   0.0000       0.073923         2.0116
  69   0.0000       0.113846         3.0979
  70   0.0000       0.122335         3.3289
  71   0.0000       0.127946         3.4816

MULLIKEN ATOMIC CHARGES
-----------------------
   0 S :    0.115578
   1 C :   -0.127297
   2 C :   -0.067439
   3 C :    0.012080
   4 C :   -0.164820
   5 H :    0.006947
   6 C :    0.068440
   7 H :    0.010722
   8 H :    0.021519
   9 C :   -0.012405
  10 H :    0.026697
  11 H :    0.027306
  12 C :   -0.037528
  13 H :    0.007283
  14 H :    0.040514
  15 H :    0.018399
  16 S :    0.110218
  17 C :   -0.086492
  18 C :   -0.036344
  19 C :   -0.046296
  20 C :   -0.140852
  21 H :    0.020910
  22 C :    0.054690
  23 H :    0.038049
  24 H :    0.012853
  25 C :   -0.069171
  26 H :    0.030559
  27 H :    0.022075
  28 C :   -0.032952
  29 H :    0.036635
  30 H :    0.008157
  31 H :    0.021243
  32 H :    0.047398
  33 H :    0.063321
Sum of atomic charges:   -0.0000000

LOEWDIN ATOMIC CHARGES
----------------------
   0 S :    0.410069
   1 C :   -0.207304
   2 C :   -0.053687
   3 C :   -0.071772
   4 C :   -0.187433
   5 H :    0.030327
   6 C :   -0.031700
   7 H :    0.028186
   8 H :    0.029675
   9 C :   -0.021461
  10 H :    0.025613
  11 H :    0.020757
  12 C :   -0.058709
  13 H :    0.012465
  14 H :    0.033894
  15 H :    0.021842
  16 S :    0.443332
  17 C :   -0.199247
  18 C :   -0.070478
  19 C :   -0.062155
  20 C :   -0.222730
  21 H :    0.031111
  22 C :   -0.035463
  23 H :    0.039275
  24 H :    0.026810
  25 C :   -0.039034
  26 H :    0.025706
  27 H :    0.018296
  28 C :   -0.066844
  29 H :    0.029479
  30 H :    0.015971
  31 H :    0.025306
  32 H :    0.023790
  33 H :    0.036114

  Mayer bond orders larger than 0.100000
B(  0-S ,  1-C ) :   1.1519 B(  0-S ,  4-C ) :   1.1610 B(  1-C ,  2-C ) :   1.5738
B(  1-C ,  4-C ) :   0.1093 B(  1-C , 32-H ) :   0.9715 B(  2-C ,  3-C ) :   1.2314
B(  2-C ,  6-C ) :   1.0078 B(  3-C ,  4-C ) :   1.5932 B(  3-C ,  5-H ) :   0.9891
B(  4-C , 20-C ) :   0.9959 B(  6-C ,  7-H ) :   0.9336 B(  6-C ,  8-H ) :   0.9424
B(  6-C ,  9-C ) :   1.0763 B(  9-C , 10-H ) :   0.9499 B(  9-C , 11-H ) :   0.9573
B(  9-C , 12-C ) :   1.0818 B( 12-C , 13-H ) :   0.9746 B( 12-C , 14-H ) :   0.9745
B( 12-C , 15-H ) :   0.9738 B( 16-S , 17-C ) :   1.1668 B( 16-S , 20-C ) :   1.1475
B( 17-C , 18-C ) :   1.6071 B( 17-C , 33-H ) :   0.9653 B( 18-C , 19-C ) :   1.2331
B( 18-C , 21-H ) :   0.9919 B( 19-C , 20-C ) :   1.6254 B( 19-C , 22-C ) :   1.0512
B( 22-C , 23-H ) :   0.9251 B( 22-C , 24-H ) :   0.9345 B( 22-C , 25-C ) :   1.0560
B( 25-C , 26-H ) :   0.9587 B( 25-C , 27-H ) :   0.9522 B( 25-C , 28-C ) :   1.0906
B( 28-C , 29-H ) :   0.9744 B( 28-C , 30-H ) :   0.9708 B( 28-C , 31-H ) :   0.9719

Dispersion correction           -0.013490433
FINAL SINGLE POINT ENERGY     -1339.873253895034

DIPOLE MOMENT
-------------
                                X             Y             Z
Electronic contribution:     21.62603      -4.69861      22.50305
Nuclear contribution   :    -21.99273       4.91647     -23.01869
                        -----------------------------------------
Total Dipole Moment    :     -0.36669       0.21786      -0.51564
                        -----------------------------------------
Magnitude (a.u.)       :      0.66919
Magnitude (Debye)      :      1.70095

Rotational constants in cm-1:     0.016120     0.008963     0.006446
Rotational constants in MHz :   483.268036   268.710443   193.245643

                             ****ORCA TERMINATED NORMALLY****
TOTAL RUN TIME: 0 days 0 hours 0 minutes 21 seconds 166 msec
