                         Program Version 4.2.1 -  RELEASE  -
|  1> ! wB97X-D3 SP def2-SVP
|  2> %pal
|  3> nprocs 24
|  4> end
|  5>
|  6> * xyz 0 1
|  7> S 	 20.3292 	 -6.54058 	 -115.65
|  8> C 	 21.4886 	 -6.18016 	 -114.473
|  9> C 	 22.6475 	 -5.80048 	 -115.082
| 10> C 	 22.6037 	 -5.90148 	 -116.541
| 11> C 	 21.3547 	 -6.22024 	 -116.949
| 12> H 	 23.3772 	 -5.92411 	 -117.252
| 13> C 	 23.85 	 -5.44691 	 -114.273
| 14> H 	 24.72 	 -5.5315 	 -114.99
| 15> H 	 24.036 	 -6.20445 	 -113.493
| 16> C 	 23.7761 	 -4.01302 	 -113.668
| 17> H 	 23.6707 	 -3.28608 	 -114.567
| 18> H 	 22.8748 	 -3.88631 	 -113.181
| 19> C 	 25.0514 	 -3.77121 	 -112.853
| 20> H 	 25.0565 	 -2.67361 	 -112.625
| 21> H 	 25.0014 	 -4.43423 	 -111.976
| 22> H 	 25.9949 	 -3.9544 	 -113.483
| 23> S 	 20.1035 	 -7.88928 	 -118.622
| 24> C 	 19.861 	 -7.43686 	 -120.358
| 25> C 	 20.6757 	 -6.35069 	 -120.668
| 26> C 	 21.2941 	 -5.74239 	 -119.506
| 27> C 	 20.9114 	 -6.33208 	 -118.315
| 28> H 	 20.756 	 -5.98515 	 -121.739
| 29> C 	 22.1699 	 -4.47123 	 -119.68
| 30> H 	 23.1342 	 -4.7316 	 -120.223
| 31> H 	 22.4421 	 -4.12965 	 -118.732
| 32> C 	 21.4474 	 -3.30631 	 -120.395
| 33> H 	 20.4976 	 -3.17498 	 -119.848
| 34> H 	 21.1586 	 -3.54309 	 -121.386
| 35> C 	 22.2481 	 -2.03661 	 -120.559
| 36> H 	 23.1983 	 -2.20855 	 -120.997
| 37> H 	 22.4296 	 -1.43203 	 -119.642
| 38> H 	 21.7988 	 -1.24871 	 -121.214
| 39> H 	 21.3643 	 -6.39762 	 -113.423
| 40> H 	 19.3922 	 -8.05737 	 -121.153
| 41> *
| 42>
| 43>                          ****END OF INPUT****

CARTESIAN COORDINATES (ANGSTROEM)
---------------------------------
  S     20.329200   -6.540580  -115.650000
  C     21.488600   -6.180160  -114.473000
  C     22.647500   -5.800480  -115.082000
  C     22.603700   -5.901480  -116.541000
  C     21.354700   -6.220240  -116.949000
  H     23.377200   -5.924110  -117.252000
  C     23.850000   -5.446910  -114.273000
  H     24.720000   -5.531500  -114.990000
  H     24.036000   -6.204450  -113.493000
  C     23.776100   -4.013020  -113.668000
  H     23.670700   -3.286080  -114.567000
  H     22.874800   -3.886310  -113.181000
  C     25.051400   -3.771210  -112.853000
  H     25.056500   -2.673610  -112.625000
  H     25.001400   -4.434230  -111.976000
  H     25.994900   -3.954400  -113.483000
  S     20.103500   -7.889280  -118.622000
  C     19.861000   -7.436860  -120.358000
  C     20.675700   -6.350690  -120.668000
  C     21.294100   -5.742390  -119.506000
  C     20.911400   -6.332080  -118.315000
  H     20.756000   -5.985150  -121.739000
  C     22.169900   -4.471230  -119.680000
  H     23.134200   -4.731600  -120.223000
  H     22.442100   -4.129650  -118.732000
  C     21.447400   -3.306310  -120.395000
  H     20.497600   -3.174980  -119.848000
  H     21.158600   -3.543090  -121.386000
  C     22.248100   -2.036610  -120.559000
  H     23.198300   -2.208550  -120.997000
  H     22.429600   -1.432030  -119.642000
  H     21.798800   -1.248710  -121.214000
  H     21.364300   -6.397620  -113.423000
  H     19.392200   -8.057370  -121.153000

 Total Charge           Charge          ....    0
 Multiplicity           Mult            ....    1
 Number of Electrons    NEL             ....  134
 Basis Dimension        Dim             ....  322

ORBITAL ENERGIES
----------------

  NO   OCC          E(Eh)            E(eV)
   0   2.0000     -88.962914     -2420.8040
   1   2.0000     -88.960753     -2420.7452
   2   2.0000     -10.329071      -281.0683
   3   2.0000     -10.325823      -280.9799
   4   2.0000     -10.319296      -280.8023
   5   2.0000     -10.310716      -280.5688
   6   2.0000     -10.305922      -280.4384
   7   2.0000     -10.303965      -280.3851
   8   2.0000     -10.298547      -280.2377
   9   2.0000     -10.296260      -280.1755
  10   2.0000     -10.291938      -280.0579
  11   2.0000     -10.289932      -280.0033
  12   2.0000     -10.289570      -279.9934
  13   2.0000     -10.288009      -279.9510
  14   2.0000     -10.284614      -279.8586
  15   2.0000     -10.278809      -279.7006
  16   2.0000      -8.078172      -219.8182
  17   2.0000      -8.076553      -219.7742
  18   2.0000      -6.036573      -164.2635
  19   2.0000      -6.035279      -164.2283
  20   2.0000      -6.032134      -164.1427
  21   2.0000      -6.031429      -164.1235
  22   2.0000      -6.029023      -164.0580
  23   2.0000      -6.026891      -164.0001
  24   2.0000      -1.019048       -27.7297
  25   2.0000      -0.981298       -26.7025
  26   2.0000      -0.912536       -24.8314
  27   2.0000      -0.905528       -24.6407
  28   2.0000      -0.874205       -23.7883
  29   2.0000      -0.852969       -23.2105
  30   2.0000      -0.842391       -22.9226
  31   2.0000      -0.817169       -22.2363
  32   2.0000      -0.777983       -21.1700
  33   2.0000      -0.767062       -20.8728
  34   2.0000      -0.705278       -19.1916
  35   2.0000      -0.700243       -19.0546
  36   2.0000      -0.696775       -18.9602
  37   2.0000      -0.662536       -18.0285
  38   2.0000      -0.647599       -17.6221
  39   2.0000      -0.614676       -16.7262
  40   2.0000      -0.590488       -16.0680
  41   2.0000      -0.567588       -15.4449
  42   2.0000      -0.565605       -15.3909
  43   2.0000      -0.557426       -15.1683
  44   2.0000      -0.524388       -14.2693
  45   2.0000      -0.523518       -14.2456
  46   2.0000      -0.519029       -14.1235
  47   2.0000      -0.513098       -13.9621
  48   2.0000      -0.506257       -13.7760
  49   2.0000      -0.505593       -13.7579
  50   2.0000      -0.491605       -13.3772
  51   2.0000      -0.483719       -13.1627
  52   2.0000      -0.467290       -12.7156
  53   2.0000      -0.461987       -12.5713
  54   2.0000      -0.460416       -12.5286
  55   2.0000      -0.453053       -12.3282
  56   2.0000      -0.447711       -12.1828
  57   2.0000      -0.434332       -11.8188
  58   2.0000      -0.427208       -11.6249
  59   2.0000      -0.420742       -11.4490
  60   2.0000      -0.418326       -11.3832
  61   2.0000      -0.416319       -11.3286
  62   2.0000      -0.410896       -11.1811
  63   2.0000      -0.352560        -9.5936
  64   2.0000      -0.327996        -8.9252
  65   2.0000      -0.325491        -8.8571
  66   2.0000      -0.295009        -8.0276
  67   0.0000       0.026090         0.7100
  68   0.0000       0.079227         2.1559
  69   0.0000       0.095515         2.5991
  70   0.0000       0.126152         3.4328
  71   0.0000       0.129567         3.5257

MULLIKEN ATOMIC CHARGES
-----------------------
   0 S :    0.120118
   1 C :   -0.109029
   2 C :   -0.096468
   3 C :    0.037678
   4 C :   -0.149018
   5 H :    0.003468
   6 C :    0.019423
   7 H :    0.022189
   8 H :    0.031136
   9 C :   -0.076954
  10 H :    0.034232
  11 H :    0.014438
  12 C :   -0.050815
  13 H :    0.045736
  14 H :    0.043826
  15 H :    0.045016
  16 S :    0.073415
  17 C :   -0.094990
  18 C :   -0.064353
  19 C :   -0.053964
  20 C :   -0.115508
  21 H :    0.049734
  22 C :    0.081605
  23 H :    0.040235
  24 H :    0.002147
  25 C :   -0.058226
  26 H :    0.039086
  27 H :    0.016168
  28 C :   -0.059608
  29 H :    0.018820
  30 H :    0.030782
  31 H :    0.034210
  32 H :    0.052054
  33 H :    0.073414
Sum of atomic charges:   -0.0000000

LOEWDIN ATOMIC CHARGES
----------------------
   0 S :    0.452005
   1 C :   -0.215437
   2 C :   -0.062635
   3 C :   -0.061834
   4 C :   -0.219781
   5 H :    0.026512
   6 C :   -0.040168
   7 H :    0.031118
   8 H :    0.028345
   9 C :   -0.039662
  10 H :    0.032676
  11 H :    0.009925
  12 C :   -0.071601
  13 H :    0.031805
  14 H :    0.027916
  15 H :    0.035237
  16 S :    0.364291
  17 C :   -0.175460
  18 C :   -0.074569
  19 C :   -0.055507
  20 C :   -0.179352
  21 H :    0.043521
  22 C :   -0.025720
  23 H :    0.037360
  24 H :    0.017395
  25 C :   -0.041402
  26 H :    0.031941
  27 H :    0.016869
  28 C :   -0.072785
  29 H :    0.018915
  30 H :    0.026582
  31 H :    0.032964
  32 H :    0.031412
  33 H :    0.039125

  Mayer bond orders larger than 0.100000
B(  0-S ,  1-C ) :   1.1408 B(  0-S ,  4-C ) :   1.1782 B(  1-C ,  2-C ) :   1.5997
B(  1-C , 32-H ) :   0.9753 B(  2-C ,  3-C ) :   1.2315 B(  2-C ,  6-C ) :   1.0274
B(  3-C ,  4-C ) :   1.5688 B(  3-C ,  5-H ) :   1.0033 B(  4-C , 20-C ) :   1.0179
B(  6-C ,  7-H ) :   0.9437 B(  6-C ,  8-H ) :   0.9455 B(  6-C ,  9-C ) :   1.0490
B(  9-C , 10-H ) :   0.9523 B(  9-C , 11-H ) :   0.9616 B(  9-C , 12-C ) :   1.0705
B( 12-C , 13-H ) :   0.9739 B( 12-C , 14-H ) :   0.9735 B( 12-C , 15-H ) :   0.9728
B( 16-S , 17-C ) :   1.1218 B( 16-S , 20-C ) :   1.1261 B( 17-C , 18-C ) :   1.6500
B( 17-C , 20-C ) :   0.1010 B( 17-C , 33-H ) :   0.9620 B( 18-C , 19-C ) :   1.2001
B( 18-C , 21-H ) :   0.9763 B( 19-C , 20-C ) :   1.6374 B( 19-C , 22-C ) :   1.0418
B( 22-C , 23-H ) :   0.9323 B( 22-C , 24-H ) :   0.9364 B( 22-C , 25-C ) :   1.0625
B( 25-C , 26-H ) :   0.9544 B( 25-C , 27-H ) :   0.9520 B( 25-C , 28-C ) :   1.0863
B( 28-C , 29-H ) :   0.9711 B( 28-C , 30-H ) :   0.9746 B( 28-C , 31-H ) :   0.9735

Dispersion correction           -0.013413491
FINAL SINGLE POINT ENERGY     -1339.866770355640

DIPOLE MOMENT
-------------
                                X             Y             Z
Electronic contribution:    -19.09934     -23.26167      -1.61718
Nuclear contribution   :     19.64796      23.58888       1.47262
                        -----------------------------------------
Total Dipole Moment    :      0.54862       0.32721      -0.14456
                        -----------------------------------------
Magnitude (a.u.)       :      0.65494
Magnitude (Debye)      :      1.66473

Rotational constants in cm-1:     0.017710     0.008344     0.006063
Rotational constants in MHz :   530.923359   250.140065   181.771834

                             ****ORCA TERMINATED NORMALLY****
TOTAL RUN TIME: 0 days 0 hours 0 minutes 20 seconds 984 msec
