                         Program Version 4.2.1 -  RELEASE  -
|  1> ! wB97X-D3 SP def2-SVP
|  2> %pal
|  3> nprocs 24
|  4> end
|  5>
|  6> * xyz 0 1
|  7> S 	 -86.2897 	 -44.4099 	 -72.7301
|  8> C 	 -86.1492 	 -45.5867 	 -71.4688
|  9> C 	 -87.3813 	 -45.8045 	 -70.8472
| 10> C 	 -88.4263 	 -45.0428 	 -71.4847
| 11> C 	 -88.0106 	 -44.2182 	 -72.4557
| 12> H 	 -89.4427 	 -45.2109 	 -71.105
| 13> C 	 -87.7718 	 -46.8619 	 -69.8039
| 14> H 	 -88.765 	 -47.0685 	 -70.0185
| 15> H 	 -87.7165 	 -46.4218 	 -68.8441
| 16> C 	 -87.0683 	 -48.2458 	 -69.8743
| 17> H 	 -87.732 	 -49.0401 	 -69.4356
| 18> H 	 -86.9704 	 -48.5904 	 -70.9296
| 19> C 	 -85.6603 	 -48.3097 	 -69.2615
| 20> H 	 -84.9802 	 -47.7045 	 -69.8835
| 21> H 	 -85.6914 	 -48.1376 	 -68.2284
| 22> H 	 -85.2927 	 -49.3333 	 -69.3351
| 23> S 	 -88.5041 	 -41.6319 	 -73.1004
| 24> C 	 -90.0225 	 -41.1919 	 -73.7425
| 25> C 	 -90.7639 	 -42.2746 	 -74.0315
| 26> C 	 -90.1654 	 -43.5666 	 -73.7749
| 27> C 	 -88.8857 	 -43.34 	 -73.2765
| 28> H 	 -91.7719 	 -42.1731 	 -74.357
| 29> C 	 -90.8197 	 -44.8974 	 -74.1207
| 30> H 	 -91.6687 	 -44.7387 	 -74.8078
| 31> H 	 -91.2042 	 -45.2542 	 -73.1422
| 32> C 	 -89.9056 	 -46.0639 	 -74.6737
| 33> H 	 -90.4404 	 -46.9767 	 -74.8212
| 34> H 	 -89.0474 	 -46.1055 	 -74.0615
| 35> C 	 -89.3287 	 -45.6969 	 -76.0234
| 36> H 	 -88.5392 	 -46.469 	 -76.2108
| 37> H 	 -88.8545 	 -44.6998 	 -76.0405
| 38> H 	 -90.0112 	 -45.705 	 -76.8177
| 39> H 	 -85.1784 	 -45.9838 	 -71.1698
| 40> H 	 -90.4289 	 -40.2289 	 -73.8838
| 41> *
| 42>
| 43>                          ****END OF INPUT****

CARTESIAN COORDINATES (ANGSTROEM)
---------------------------------
  S    -86.289700  -44.409900  -72.730100
  C    -86.149200  -45.586700  -71.468800
  C    -87.381300  -45.804500  -70.847200
  C    -88.426300  -45.042800  -71.484700
  C    -88.010600  -44.218200  -72.455700
  H    -89.442700  -45.210900  -71.105000
  C    -87.771800  -46.861900  -69.803900
  H    -88.765000  -47.068500  -70.018500
  H    -87.716500  -46.421800  -68.844100
  C    -87.068300  -48.245800  -69.874300
  H    -87.732000  -49.040100  -69.435600
  H    -86.970400  -48.590400  -70.929600
  C    -85.660300  -48.309700  -69.261500
  H    -84.980200  -47.704500  -69.883500
  H    -85.691400  -48.137600  -68.228400
  H    -85.292700  -49.333300  -69.335100
  S    -88.504100  -41.631900  -73.100400
  C    -90.022500  -41.191900  -73.742500
  C    -90.763900  -42.274600  -74.031500
  C    -90.165400  -43.566600  -73.774900
  C    -88.885700  -43.340000  -73.276500
  H    -91.771900  -42.173100  -74.357000
  C    -90.819700  -44.897400  -74.120700
  H    -91.668700  -44.738700  -74.807800
  H    -91.204200  -45.254200  -73.142200
  C    -89.905600  -46.063900  -74.673700
  H    -90.440400  -46.976700  -74.821200
  H    -89.047400  -46.105500  -74.061500
  C    -89.328700  -45.696900  -76.023400
  H    -88.539200  -46.469000  -76.210800
  H    -88.854500  -44.699800  -76.040500
  H    -90.011200  -45.705000  -76.817700
  H    -85.178400  -45.983800  -71.169800
  H    -90.428900  -40.228900  -73.883800

 Total Charge           Charge          ....    0
 Multiplicity           Mult            ....    1
 Number of Electrons    NEL             ....  134
 Basis Dimension        Dim             ....  322

ORBITAL ENERGIES
----------------

  NO   OCC          E(Eh)            E(eV)
   0   2.0000     -88.964149     -2420.8376
   1   2.0000     -88.963048     -2420.8076
   2   2.0000     -10.327121      -281.0152
   3   2.0000     -10.326188      -280.9899
   4   2.0000     -10.315427      -280.6970
   5   2.0000     -10.307959      -280.4938
   6   2.0000     -10.307625      -280.4847
   7   2.0000     -10.301602      -280.3208
   8   2.0000     -10.299713      -280.2694
   9   2.0000     -10.293181      -280.0917
  10   2.0000     -10.290408      -280.0162
  11   2.0000     -10.287139      -279.9273
  12   2.0000     -10.286421      -279.9078
  13   2.0000     -10.278940      -279.7042
  14   2.0000     -10.276906      -279.6488
  15   2.0000     -10.265530      -279.3393
  16   2.0000      -8.079301      -219.8490
  17   2.0000      -8.078675      -219.8319
  18   2.0000      -6.037817      -164.2974
  19   2.0000      -6.037135      -164.2788
  20   2.0000      -6.033696      -164.1852
  21   2.0000      -6.033070      -164.1682
  22   2.0000      -6.030092      -164.0872
  23   2.0000      -6.029410      -164.0686
  24   2.0000      -1.009324       -27.4651
  25   2.0000      -0.987988       -26.8845
  26   2.0000      -0.908617       -24.7247
  27   2.0000      -0.906666       -24.6716
  28   2.0000      -0.867008       -23.5925
  29   2.0000      -0.853536       -23.2259
  30   2.0000      -0.848957       -23.1013
  31   2.0000      -0.814643       -22.1676
  32   2.0000      -0.786010       -21.3884
  33   2.0000      -0.774465       -21.0743
  34   2.0000      -0.705381       -19.1944
  35   2.0000      -0.699898       -19.0452
  36   2.0000      -0.685063       -18.6415
  37   2.0000      -0.662150       -18.0180
  38   2.0000      -0.640179       -17.4201
  39   2.0000      -0.620327       -16.8800
  40   2.0000      -0.594489       -16.1769
  41   2.0000      -0.573222       -15.5982
  42   2.0000      -0.559811       -15.2332
  43   2.0000      -0.548858       -14.9352
  44   2.0000      -0.544065       -14.8048
  45   2.0000      -0.537612       -14.6292
  46   2.0000      -0.520809       -14.1719
  47   2.0000      -0.513121       -13.9627
  48   2.0000      -0.503692       -13.7062
  49   2.0000      -0.494029       -13.4432
  50   2.0000      -0.489193       -13.3116
  51   2.0000      -0.482830       -13.1385
  52   2.0000      -0.477003       -12.9799
  53   2.0000      -0.466893       -12.7048
  54   2.0000      -0.460204       -12.5228
  55   2.0000      -0.442764       -12.0482
  56   2.0000      -0.440076       -11.9751
  57   2.0000      -0.434009       -11.8100
  58   2.0000      -0.430483       -11.7140
  59   2.0000      -0.426032       -11.5929
  60   2.0000      -0.421819       -11.4783
  61   2.0000      -0.413583       -11.2542
  62   2.0000      -0.412370       -11.2212
  63   2.0000      -0.347675        -9.4607
  64   2.0000      -0.329263        -8.9597
  65   2.0000      -0.327359        -8.9079
  66   2.0000      -0.297642        -8.0993
  67   0.0000       0.037777         1.0280
  68   0.0000       0.071531         1.9465
  69   0.0000       0.116422         3.1680
  70   0.0000       0.121679         3.3110
  71   0.0000       0.134945         3.6721

MULLIKEN ATOMIC CHARGES
-----------------------
   0 S :    0.108657
   1 C :   -0.146740
   2 C :   -0.105186
   3 C :   -0.002125
   4 C :   -0.134185
   5 H :    0.017369
   6 C :    0.134375
   7 H :    0.004008
   8 H :    0.032423
   9 C :   -0.129226
  10 H :    0.032753
  11 H :    0.033922
  12 C :   -0.023793
  13 H :    0.030227
  14 H :    0.026967
  15 H :    0.025760
  16 S :    0.109192
  17 C :   -0.042727
  18 C :   -0.048128
  19 C :   -0.050860
  20 C :   -0.152831
  21 H :    0.001285
  22 C :    0.060679
  23 H :    0.027919
  24 H :    0.037640
  25 C :   -0.027847
  26 H :    0.030187
  27 H :    0.037558
  28 C :   -0.069467
  29 H :    0.034879
  30 H :    0.042325
  31 H :    0.011970
  32 H :    0.057316
  33 H :    0.035703
Sum of atomic charges:   -0.0000000

LOEWDIN ATOMIC CHARGES
----------------------
   0 S :    0.406640
   1 C :   -0.207106
   2 C :   -0.058283
   3 C :   -0.066832
   4 C :   -0.201647
   5 H :    0.034407
   6 C :   -0.023263
   7 H :    0.023094
   8 H :    0.029344
   9 C :   -0.044856
  10 H :    0.027497
  11 H :    0.027883
  12 C :   -0.062643
  13 H :    0.025387
  14 H :    0.017677
  15 H :    0.028530
  16 S :    0.420513
  17 C :   -0.190568
  18 C :   -0.071442
  19 C :   -0.050200
  20 C :   -0.198241
  21 H :    0.024002
  22 C :   -0.031853
  23 H :    0.031322
  24 H :    0.035803
  25 C :   -0.029719
  26 H :    0.025162
  27 H :    0.023267
  28 C :   -0.064517
  29 H :    0.030930
  30 H :    0.028277
  31 H :    0.009392
  32 H :    0.025785
  33 H :    0.026259

  Mayer bond orders larger than 0.100000
B(  0-S ,  1-C ) :   1.1433 B(  0-S ,  4-C ) :   1.1454 B(  1-C ,  2-C ) :   1.6071
B(  1-C , 32-H ) :   0.9649 B(  2-C ,  3-C ) :   1.2629 B(  2-C ,  6-C ) :   1.0032
B(  3-C ,  4-C ) :   1.5884 B(  3-C ,  5-H ) :   0.9942 B(  4-C , 20-C ) :   0.9820
B(  6-C ,  7-H ) :   0.9404 B(  6-C ,  8-H ) :   0.9318 B(  6-C ,  9-C ) :   1.0680
B(  9-C , 10-H ) :   0.9588 B(  9-C , 11-H ) :   0.9586 B(  9-C , 12-C ) :   1.0822
B( 12-C , 13-H ) :   0.9752 B( 12-C , 14-H ) :   0.9755 B( 12-C , 15-H ) :   0.9690
B( 16-S , 17-C ) :   1.1465 B( 16-S , 20-C ) :   1.1561 B( 17-C , 18-C ) :   1.6315
B( 17-C , 33-H ) :   0.9696 B( 18-C , 19-C ) :   1.2361 B( 18-C , 21-H ) :   0.9911
B( 19-C , 20-C ) :   1.5989 B( 19-C , 22-C ) :   1.0266 B( 22-C , 23-H ) :   0.9445
B( 22-C , 24-H ) :   0.9227 B( 22-C , 25-C ) :   1.0787 B( 25-C , 26-H ) :   0.9548
B( 25-C , 27-H ) :   0.9521 B( 25-C , 28-C ) :   1.0809 B( 28-C , 29-H ) :   0.9759
B( 28-C , 30-H ) :   0.9740 B( 28-C , 31-H ) :   0.9771

Dispersion correction           -0.015229581
FINAL SINGLE POINT ENERGY     -1339.876333907852

DIPOLE MOMENT
-------------
                                X             Y             Z
Electronic contribution:      3.83213      24.49602      -3.09191
Nuclear contribution   :     -4.36047     -25.02520       3.34441
                        -----------------------------------------
Total Dipole Moment    :     -0.52834      -0.52917       0.25250
                        -----------------------------------------
Magnitude (a.u.)       :      0.78926
Magnitude (Debye)      :      2.00613

Rotational constants in cm-1:     0.022754     0.008143     0.007138
Rotational constants in MHz :   682.133840   244.123486   213.980652

                             ****ORCA TERMINATED NORMALLY****
TOTAL RUN TIME: 0 days 0 hours 0 minutes 22 seconds 275 msec
