                         Program Version 4.2.1 -  RELEASE  -
|  1> ! wB97X-D3 SP def2-SVP
|  2> %pal
|  3> nprocs 24
|  4> end
|  5>
|  6> * xyz 0 1
|  7> S 	 -100.92 	 -4.44676 	 -101.267
|  8> C 	 -99.4854 	 -3.97935 	 -102.019
|  9> C 	 -99.7219 	 -3.37441 	 -103.254
| 10> C 	 -101.094 	 -3.3624 	 -103.632
| 11> C 	 -101.907 	 -3.86833 	 -102.577
| 12> H 	 -101.463 	 -2.97782 	 -104.613
| 13> C 	 -98.6186 	 -2.85334 	 -104.101
| 14> H 	 -98.102 	 -3.77152 	 -104.463
| 15> H 	 -97.9079 	 -2.36509 	 -103.442
| 16> C 	 -99.0009 	 -1.93514 	 -105.27
| 17> H 	 -99.779 	 -2.36242 	 -105.86
| 18> H 	 -99.3979 	 -1.04932 	 -104.873
| 19> C 	 -97.9014 	 -1.51735 	 -106.187
| 20> H 	 -97.1361 	 -1.013 	 -105.696
| 21> H 	 -97.465 	 -2.33342 	 -106.678
| 22> H 	 -98.2863 	 -0.708968 	 -106.85
| 23> S 	 -104.017 	 -2.6411 	 -101.431
| 24> C 	 -105.544 	 -2.6206 	 -102.32
| 25> C 	 -105.571 	 -3.49993 	 -103.294
| 26> C 	 -104.307 	 -4.14496 	 -103.519
| 27> C 	 -103.385 	 -3.8776 	 -102.549
| 28> H 	 -106.498 	 -3.719 	 -103.741
| 29> C 	 -104.059 	 -5.1357 	 -104.641
| 30> H 	 -103.003 	 -5.48628 	 -104.582
| 31> H 	 -104.107 	 -4.5944 	 -105.568
| 32> C 	 -104.949 	 -6.39503 	 -104.619
| 33> H 	 -105.925 	 -5.89956 	 -104.83
| 34> H 	 -104.905 	 -6.9851 	 -103.697
| 35> C 	 -104.599 	 -7.25049 	 -105.838
| 36> H 	 -105.455 	 -7.84596 	 -106.167
| 37> H 	 -103.889 	 -8.05019 	 -105.614
| 38> H 	 -104.223 	 -6.65818 	 -106.638
| 39> H 	 -98.4581 	 -4.17198 	 -101.648
| 40> H 	 -106.404 	 -2.11251 	 -101.999
| 41> *
| 42>
| 43>                          ****END OF INPUT****

CARTESIAN COORDINATES (ANGSTROEM)
---------------------------------
  S    -100.920000   -4.446760  -101.267000
  C    -99.485400   -3.979350  -102.019000
  C    -99.721900   -3.374410  -103.254000
  C    -101.094000   -3.362400  -103.632000
  C    -101.907000   -3.868330  -102.577000
  H    -101.463000   -2.977820  -104.613000
  C    -98.618600   -2.853340  -104.101000
  H    -98.102000   -3.771520  -104.463000
  H    -97.907900   -2.365090  -103.442000
  C    -99.000900   -1.935140  -105.270000
  H    -99.779000   -2.362420  -105.860000
  H    -99.397900   -1.049320  -104.873000
  C    -97.901400   -1.517350  -106.187000
  H    -97.136100   -1.013000  -105.696000
  H    -97.465000   -2.333420  -106.678000
  H    -98.286300   -0.708968  -106.850000
  S    -104.017000   -2.641100  -101.431000
  C    -105.544000   -2.620600  -102.320000
  C    -105.571000   -3.499930  -103.294000
  C    -104.307000   -4.144960  -103.519000
  C    -103.385000   -3.877600  -102.549000
  H    -106.498000   -3.719000  -103.741000
  C    -104.059000   -5.135700  -104.641000
  H    -103.003000   -5.486280  -104.582000
  H    -104.107000   -4.594400  -105.568000
  C    -104.949000   -6.395030  -104.619000
  H    -105.925000   -5.899560  -104.830000
  H    -104.905000   -6.985100  -103.697000
  C    -104.599000   -7.250490  -105.838000
  H    -105.455000   -7.845960  -106.167000
  H    -103.889000   -8.050190  -105.614000
  H    -104.223000   -6.658180  -106.638000
  H    -98.458100   -4.171980  -101.648000
  H    -106.404000   -2.112510  -101.999000

 Total Charge           Charge          ....    0
 Multiplicity           Mult            ....    1
 Number of Electrons    NEL             ....  134
 Basis Dimension        Dim             ....  322

ORBITAL ENERGIES
----------------

  NO   OCC          E(Eh)            E(eV)
   0   2.0000     -88.967978     -2420.9418
   1   2.0000     -88.955087     -2420.5910
   2   2.0000     -10.330785      -281.1149
   3   2.0000     -10.323180      -280.9080
   4   2.0000     -10.308271      -280.5023
   5   2.0000     -10.307228      -280.4739
   6   2.0000     -10.301134      -280.3081
   7   2.0000     -10.298175      -280.2276
   8   2.0000     -10.295183      -280.1462
   9   2.0000     -10.289729      -279.9978
  10   2.0000     -10.288425      -279.9623
  11   2.0000     -10.288386      -279.9612
  12   2.0000     -10.284125      -279.8453
  13   2.0000     -10.276447      -279.6363
  14   2.0000     -10.273909      -279.5673
  15   2.0000     -10.268145      -279.4104
  16   2.0000      -8.083451      -219.9619
  17   2.0000      -8.070010      -219.5961
  18   2.0000      -6.041738      -164.4041
  19   2.0000      -6.037664      -164.2932
  20   2.0000      -6.034620      -164.2104
  21   2.0000      -6.028709      -164.0495
  22   2.0000      -6.024587      -163.9373
  23   2.0000      -6.020429      -163.8242
  24   2.0000      -1.006786       -27.3960
  25   2.0000      -0.987350       -26.8672
  26   2.0000      -0.917042       -24.9540
  27   2.0000      -0.908913       -24.7328
  28   2.0000      -0.874325       -23.7916
  29   2.0000      -0.855858       -23.2891
  30   2.0000      -0.845478       -23.0066
  31   2.0000      -0.817405       -22.2427
  32   2.0000      -0.779669       -21.2159
  33   2.0000      -0.768722       -20.9180
  34   2.0000      -0.716241       -19.4899
  35   2.0000      -0.697997       -18.9935
  36   2.0000      -0.688673       -18.7398
  37   2.0000      -0.658343       -17.9144
  38   2.0000      -0.633275       -17.2323
  39   2.0000      -0.619319       -16.8525
  40   2.0000      -0.599078       -16.3017
  41   2.0000      -0.576989       -15.7007
  42   2.0000      -0.572945       -15.5906
  43   2.0000      -0.566602       -15.4180
  44   2.0000      -0.531732       -14.4692
  45   2.0000      -0.525910       -14.3107
  46   2.0000      -0.514336       -13.9958
  47   2.0000      -0.508289       -13.8313
  48   2.0000      -0.503663       -13.7054
  49   2.0000      -0.499217       -13.5844
  50   2.0000      -0.495927       -13.4948
  51   2.0000      -0.476468       -12.9653
  52   2.0000      -0.472235       -12.8502
  53   2.0000      -0.464398       -12.6369
  54   2.0000      -0.457758       -12.4562
  55   2.0000      -0.454140       -12.3578
  56   2.0000      -0.448315       -12.1993
  57   2.0000      -0.444972       -12.1083
  58   2.0000      -0.429124       -11.6771
  59   2.0000      -0.426992       -11.6190
  60   2.0000      -0.419832       -11.4242
  61   2.0000      -0.415027       -11.2934
  62   2.0000      -0.401740       -10.9319
  63   2.0000      -0.347947        -9.4681
  64   2.0000      -0.328440        -8.9373
  65   2.0000      -0.323220        -8.7953
  66   2.0000      -0.292630        -7.9629
  67   0.0000       0.038162         1.0384
  68   0.0000       0.067782         1.8444
  69   0.0000       0.121816         3.3148
  70   0.0000       0.128021         3.4836
  71   0.0000       0.130235         3.5439

MULLIKEN ATOMIC CHARGES
-----------------------
   0 S :    0.137729
   1 C :   -0.129496
   2 C :   -0.118183
   3 C :    0.022430
   4 C :   -0.167532
   5 H :    0.032137
   6 C :    0.056074
   7 H :    0.037915
   8 H :    0.025065
   9 C :   -0.070887
  10 H :    0.024085
  11 H :    0.015879
  12 C :    0.008197
  13 H :    0.003616
  14 H :    0.020756
  15 H :    0.032290
  16 S :    0.070903
  17 C :   -0.055412
  18 C :   -0.009643
  19 C :   -0.056915
  20 C :   -0.111770
  21 H :    0.002732
  22 C :    0.027647
  23 H :    0.030311
  24 H :    0.026397
  25 C :   -0.073840
  26 H :    0.030256
  27 H :    0.050084
  28 C :   -0.034127
  29 H :    0.028331
  30 H :    0.032343
  31 H :    0.023699
  32 H :    0.054796
  33 H :    0.034134
Sum of atomic charges:   -0.0000000

LOEWDIN ATOMIC CHARGES
----------------------
   0 S :    0.449835
   1 C :   -0.235447
   2 C :   -0.068446
   3 C :   -0.066098
   4 C :   -0.209136
   5 H :    0.039194
   6 C :   -0.036229
   7 H :    0.037504
   8 H :    0.030683
   9 C :   -0.038405
  10 H :    0.019043
  11 H :    0.021049
  12 C :   -0.053005
  13 H :    0.015543
  14 H :    0.017563
  15 H :    0.036233
  16 S :    0.370543
  17 C :   -0.153784
  18 C :   -0.071426
  19 C :   -0.050473
  20 C :   -0.189454
  21 H :    0.026668
  22 C :   -0.036081
  23 H :    0.030750
  24 H :    0.026356
  25 C :   -0.036513
  26 H :    0.025826
  27 H :    0.031845
  28 C :   -0.066029
  29 H :    0.027309
  30 H :    0.027580
  31 H :    0.020308
  32 H :    0.036044
  33 H :    0.020650

  Mayer bond orders larger than 0.100000
B(  0-S ,  1-C ) :   1.1612 B(  0-S ,  4-C ) :   1.1928 B(  1-C ,  2-C ) :   1.5636
B(  1-C ,  4-C ) :   0.1044 B(  1-C , 32-H ) :   0.9683 B(  2-C ,  3-C ) :   1.3115
B(  2-C ,  6-C ) :   1.0132 B(  3-C ,  4-C ) :   1.4971 B(  3-C ,  5-H ) :   0.9834
B(  4-C , 20-C ) :   0.9882 B(  6-C ,  7-H ) :   0.9303 B(  6-C ,  8-H ) :   0.9405
B(  6-C ,  9-C ) :   1.0816 B(  9-C , 10-H ) :   0.9452 B(  9-C , 11-H ) :   0.9508
B(  9-C , 12-C ) :   1.1060 B( 12-C , 13-H ) :   0.9679 B( 12-C , 14-H ) :   0.9732
B( 12-C , 15-H ) :   0.9684 B( 16-S , 17-C ) :   1.1395 B( 16-S , 20-C ) :   1.1099
B( 17-C , 18-C ) :   1.6755 B( 17-C , 33-H ) :   0.9630 B( 18-C , 19-C ) :   1.1765
B( 18-C , 21-H ) :   0.9983 B( 19-C , 20-C ) :   1.6737 B( 19-C , 22-C ) :   1.0357
B( 22-C , 23-H ) :   0.9411 B( 22-C , 24-H ) :   0.9315 B( 22-C , 25-C ) :   1.0597
B( 25-C , 26-H ) :   0.9565 B( 25-C , 27-H ) :   0.9590 B( 25-C , 28-C ) :   1.0831
B( 28-C , 29-H ) :   0.9724 B( 28-C , 30-H ) :   0.9741 B( 28-C , 31-H ) :   0.9730

Dispersion correction           -0.013463828
FINAL SINGLE POINT ENERGY     -1339.868858231502

DIPOLE MOMENT
-------------
                                X             Y             Z
Electronic contribution:     -6.86608       3.81633      25.66543
Nuclear contribution   :      6.90577      -3.84686     -26.35760
                        -----------------------------------------
Total Dipole Moment    :      0.03969      -0.03053      -0.69217
                        -----------------------------------------
Magnitude (a.u.)       :      0.69398
Magnitude (Debye)      :      1.76396

Rotational constants in cm-1:     0.016356     0.008103     0.006949
Rotational constants in MHz :   490.343993   242.923729   208.312253

                             ****ORCA TERMINATED NORMALLY****
TOTAL RUN TIME: 0 days 0 hours 0 minutes 21 seconds 214 msec
