                         Program Version 4.2.1 -  RELEASE  -
|  1> ! wB97X-D3 SP def2-SVP
|  2> %pal
|  3> nprocs 24
|  4> end
|  5>
|  6> * xyz 0 1
|  7> S 	 -104.336 	 56.7595 	 -15.1149
|  8> C 	 -104.144 	 57.504 	 -13.5429
|  9> C 	 -102.854 	 58.0565 	 -13.3453
| 10> C 	 -102.061 	 57.8863 	 -14.5255
| 11> C 	 -102.683 	 57.1481 	 -15.5528
| 12> H 	 -101.04 	 58.2876 	 -14.5578
| 13> C 	 -102.28 	 58.7119 	 -12.1324
| 14> H 	 -101.58 	 59.4291 	 -12.4277
| 15> H 	 -101.816 	 57.8688 	 -11.6016
| 16> C 	 -103.357 	 59.3817 	 -11.2185
| 17> H 	 -104.029 	 58.6692 	 -10.8085
| 18> H 	 -102.703 	 59.8645 	 -10.4733
| 19> C 	 -104.214 	 60.4748 	 -11.8285
| 20> H 	 -105.004 	 60.8487 	 -11.2498
| 21> H 	 -103.556 	 61.2791 	 -12.0834
| 22> H 	 -104.67 	 60.0781 	 -12.7155
| 23> S 	 -102.983 	 56.7849 	 -18.3503
| 24> C 	 -101.672 	 56.2397 	 -19.2771
| 25> C 	 -100.48 	 56.1853 	 -18.51
| 26> C 	 -100.73 	 56.5736 	 -17.1665
| 27> C 	 -102.071 	 56.875 	 -16.8544
| 28> H 	 -99.5288 	 55.8166 	 -18.9888
| 29> C 	 -99.5808 	 56.5414 	 -16.1529
| 30> H 	 -99.6279 	 57.3785 	 -15.4563
| 31> H 	 -98.6457 	 56.6313 	 -16.6514
| 32> C 	 -99.5226 	 55.1603 	 -15.478
| 33> H 	 -98.6082 	 54.6475 	 -15.6832
| 34> H 	 -100.237 	 54.3666 	 -15.8851
| 35> C 	 -99.7718 	 55.2197 	 -13.9883
| 36> H 	 -98.802 	 55.3651 	 -13.419
| 37> H 	 -100.2 	 54.2915 	 -13.5393
| 38> H 	 -100.453 	 55.936 	 -13.5841
| 39> H 	 -104.979 	 57.7126 	 -12.9735
| 40> H 	 -101.558 	 56.104 	 -20.4244
| 41> *
| 42>
| 43>                          ****END OF INPUT****

CARTESIAN COORDINATES (ANGSTROEM)
---------------------------------
  S    -104.336000   56.759500  -15.114900
  C    -104.144000   57.504000  -13.542900
  C    -102.854000   58.056500  -13.345300
  C    -102.061000   57.886300  -14.525500
  C    -102.683000   57.148100  -15.552800
  H    -101.040000   58.287600  -14.557800
  C    -102.280000   58.711900  -12.132400
  H    -101.580000   59.429100  -12.427700
  H    -101.816000   57.868800  -11.601600
  C    -103.357000   59.381700  -11.218500
  H    -104.029000   58.669200  -10.808500
  H    -102.703000   59.864500  -10.473300
  C    -104.214000   60.474800  -11.828500
  H    -105.004000   60.848700  -11.249800
  H    -103.556000   61.279100  -12.083400
  H    -104.670000   60.078100  -12.715500
  S    -102.983000   56.784900  -18.350300
  C    -101.672000   56.239700  -19.277100
  C    -100.480000   56.185300  -18.510000
  C    -100.730000   56.573600  -17.166500
  C    -102.071000   56.875000  -16.854400
  H    -99.528800   55.816600  -18.988800
  C    -99.580800   56.541400  -16.152900
  H    -99.627900   57.378500  -15.456300
  H    -98.645700   56.631300  -16.651400
  C    -99.522600   55.160300  -15.478000
  H    -98.608200   54.647500  -15.683200
  H    -100.237000   54.366600  -15.885100
  C    -99.771800   55.219700  -13.988300
  H    -98.802000   55.365100  -13.419000
  H    -100.200000   54.291500  -13.539300
  H    -100.453000   55.936000  -13.584100
  H    -104.979000   57.712600  -12.973500
  H    -101.558000   56.104000  -20.424400

 Total Charge           Charge          ....    0
 Multiplicity           Mult            ....    1
 Number of Electrons    NEL             ....  134
 Basis Dimension        Dim             ....  322

ORBITAL ENERGIES
----------------

  NO   OCC          E(Eh)            E(eV)
   0   2.0000     -88.970472     -2421.0096
   1   2.0000     -88.970218     -2421.0027
   2   2.0000     -10.336282      -281.2645
   3   2.0000     -10.328830      -281.0617
   4   2.0000     -10.323802      -280.9249
   5   2.0000     -10.310805      -280.5713
   6   2.0000     -10.305784      -280.4346
   7   2.0000     -10.303638      -280.3762
   8   2.0000     -10.299165      -280.2545
   9   2.0000     -10.295420      -280.1526
  10   2.0000     -10.293491      -280.1001
  11   2.0000     -10.288240      -279.9572
  12   2.0000     -10.286052      -279.8977
  13   2.0000     -10.283483      -279.8278
  14   2.0000     -10.272263      -279.5225
  15   2.0000     -10.266643      -279.3696
  16   2.0000      -8.085218      -220.0100
  17   2.0000      -8.084767      -219.9977
  18   2.0000      -6.043686      -164.4571
  19   2.0000      -6.043312      -164.4469
  20   2.0000      -6.039473      -164.3424
  21   2.0000      -6.039284      -164.3373
  22   2.0000      -6.036218      -164.2538
  23   2.0000      -6.035597      -164.2369
  24   2.0000      -1.004849       -27.3433
  25   2.0000      -0.983158       -26.7531
  26   2.0000      -0.916312       -24.9341
  27   2.0000      -0.908201       -24.7134
  28   2.0000      -0.863774       -23.5045
  29   2.0000      -0.854497       -23.2520
  30   2.0000      -0.846506       -23.0346
  31   2.0000      -0.807694       -21.9785
  32   2.0000      -0.786780       -21.4094
  33   2.0000      -0.772853       -21.0304
  34   2.0000      -0.708538       -19.2803
  35   2.0000      -0.702642       -19.1199
  36   2.0000      -0.689128       -18.7521
  37   2.0000      -0.657967       -17.9042
  38   2.0000      -0.636673       -17.3248
  39   2.0000      -0.616354       -16.7719
  40   2.0000      -0.593030       -16.1372
  41   2.0000      -0.582025       -15.8377
  42   2.0000      -0.562009       -15.2930
  43   2.0000      -0.551103       -14.9963
  44   2.0000      -0.540060       -14.6958
  45   2.0000      -0.527037       -14.3414
  46   2.0000      -0.515392       -14.0245
  47   2.0000      -0.513649       -13.9771
  48   2.0000      -0.503732       -13.7073
  49   2.0000      -0.494116       -13.4456
  50   2.0000      -0.491921       -13.3859
  51   2.0000      -0.480787       -13.0829
  52   2.0000      -0.476008       -12.9528
  53   2.0000      -0.467863       -12.7312
  54   2.0000      -0.463330       -12.6078
  55   2.0000      -0.451929       -12.2976
  56   2.0000      -0.442080       -12.0296
  57   2.0000      -0.440625       -11.9900
  58   2.0000      -0.434103       -11.8125
  59   2.0000      -0.423447       -11.5226
  60   2.0000      -0.416619       -11.3368
  61   2.0000      -0.407577       -11.0907
  62   2.0000      -0.399400       -10.8682
  63   2.0000      -0.352683        -9.5970
  64   2.0000      -0.331781        -9.0282
  65   2.0000      -0.328638        -8.9427
  66   2.0000      -0.279074        -7.5940
  67   0.0000       0.019571         0.5325
  68   0.0000       0.078795         2.1441
  69   0.0000       0.108806         2.9608
  70   0.0000       0.117294         3.1917
  71   0.0000       0.135516         3.6876

MULLIKEN ATOMIC CHARGES
-----------------------
   0 S :    0.117500
   1 C :   -0.114921
   2 C :   -0.119550
   3 C :   -0.016405
   4 C :   -0.119041
   5 H :    0.016840
   6 C :    0.104271
   7 H :    0.016381
   8 H :    0.057764
   9 C :   -0.096536
  10 H :    0.028307
  11 H :    0.031197
  12 C :   -0.014786
  13 H :    0.027430
  14 H :    0.020236
  15 H :    0.023005
  16 S :    0.128404
  17 C :   -0.128044
  18 C :   -0.071492
  19 C :   -0.065582
  20 C :   -0.139163
  21 H :    0.042599
  22 C :    0.111061
  23 H :    0.021819
  24 H :    0.006739
  25 C :   -0.051210
  26 H :    0.017526
  27 H :    0.047356
  28 C :   -0.081036
  29 H :    0.028446
  30 H :    0.026175
  31 H :    0.025533
  32 H :    0.027595
  33 H :    0.091581
Sum of atomic charges:   -0.0000000

LOEWDIN ATOMIC CHARGES
----------------------
   0 S :    0.413403
   1 C :   -0.201586
   2 C :   -0.054975
   3 C :   -0.067970
   4 C :   -0.189195
   5 H :    0.030040
   6 C :   -0.023577
   7 H :    0.023294
   8 H :    0.046940
   9 C :   -0.036611
  10 H :    0.017499
  11 H :    0.028288
  12 C :   -0.058990
  13 H :    0.021549
  14 H :    0.023178
  15 H :    0.021909
  16 S :    0.436866
  17 C :   -0.226637
  18 C :   -0.087873
  19 C :   -0.048004
  20 C :   -0.211986
  21 H :    0.042381
  22 C :   -0.023303
  23 H :    0.025405
  24 H :    0.027336
  25 C :   -0.043737
  26 H :    0.020091
  27 H :    0.037498
  28 C :   -0.077938
  29 H :    0.026398
  30 H :    0.028790
  31 H :    0.018812
  32 H :    0.006932
  33 H :    0.055774

  Mayer bond orders larger than 0.100000
B(  0-S ,  1-C ) :   1.1420 B(  0-S ,  4-C ) :   1.1609 B(  1-C ,  2-C ) :   1.5637
B(  1-C ,  4-C ) :   0.1010 B(  1-C , 32-H ) :   0.9723 B(  2-C ,  3-C ) :   1.2941
B(  2-C ,  6-C ) :   1.0147 B(  3-C ,  4-C ) :   1.5158 B(  3-C ,  5-H ) :   0.9835
B(  4-C , 20-C ) :   1.0895 B(  6-C ,  7-H ) :   0.9377 B(  6-C ,  8-H ) :   0.9288
B(  6-C ,  9-C ) :   1.0803 B(  9-C , 10-H ) :   0.9534 B(  9-C , 11-H ) :   0.9593
B(  9-C , 12-C ) :   1.0841 B( 12-C , 13-H ) :   0.9737 B( 12-C , 14-H ) :   0.9737
B( 12-C , 15-H ) :   0.9706 B( 16-S , 17-C ) :   1.1972 B( 16-S , 20-C ) :   1.1369
B( 17-C , 18-C ) :   1.5518 B( 17-C , 20-C ) :   0.1043 B( 17-C , 33-H ) :   0.9519
B( 18-C , 19-C ) :   1.3057 B( 18-C , 21-H ) :   0.9830 B( 19-C , 20-C ) :   1.5327
B( 19-C , 22-C ) :   1.0514 B( 22-C , 23-H ) :   0.9538 B( 22-C , 24-H ) :   0.9279
B( 22-C , 25-C ) :   1.0227 B( 25-C , 26-H ) :   0.9584 B( 25-C , 27-H ) :   0.9663
B( 25-C , 28-C ) :   1.0719 B( 28-C , 29-H ) :   0.9749 B( 28-C , 30-H ) :   0.9735
B( 28-C , 31-H ) :   0.9794

Dispersion correction           -0.015479404
FINAL SINGLE POINT ENERGY     -1339.860072358486

DIPOLE MOMENT
-------------
                                X             Y             Z
Electronic contribution:    -12.41348      -5.09429     -22.14380
Nuclear contribution   :     12.96673       5.26349      22.43462
                        -----------------------------------------
Total Dipole Moment    :      0.55325       0.16920       0.29082
                        -----------------------------------------
Magnitude (a.u.)       :      0.64753
Magnitude (Debye)      :      1.64588

Rotational constants in cm-1:     0.022209     0.008611     0.006983
Rotational constants in MHz :   665.816899   258.156575   209.335649

                             ****ORCA TERMINATED NORMALLY****
TOTAL RUN TIME: 0 days 0 hours 0 minutes 22 seconds 729 msec
