                         Program Version 4.2.1 -  RELEASE  -
|  1> ! wB97X-D3 SP def2-SVP
|  2> %pal
|  3> nprocs 24
|  4> end
|  5>
|  6> * xyz 0 1
|  7> S 	 -137.605 	 7.52109 	 -9.90358
|  8> C 	 -138.547 	 8.84803 	 -10.4588
|  9> C 	 -139.239 	 9.43258 	 -9.47251
| 10> C 	 -139.086 	 8.70984 	 -8.19973
| 11> C 	 -138.241 	 7.6047 	 -8.23484
| 12> H 	 -139.635 	 8.82868 	 -7.23194
| 13> C 	 -140.05 	 10.708 	 -9.5783
| 14> H 	 -140.167 	 10.9073 	 -10.6246
| 15> H 	 -139.44 	 11.5276 	 -9.05613
| 16> C 	 -141.535 	 10.6095 	 -9.20441
| 17> H 	 -142.001 	 9.79833 	 -9.81621
| 18> H 	 -141.616 	 10.2639 	 -8.18894
| 19> C 	 -142.345 	 11.8879 	 -9.32149
| 20> H 	 -143.325 	 11.8489 	 -8.97052
| 21> H 	 -141.882 	 12.604 	 -8.62779
| 22> H 	 -142.446 	 12.2518 	 -10.2877
| 23> S 	 -138.716 	 4.97797 	 -7.75323
| 24> C 	 -138.271 	 4.33919 	 -6.18591
| 25> C 	 -137.8 	 5.30816 	 -5.32187
| 26> C 	 -137.642 	 6.56165 	 -5.94311
| 27> C 	 -138.122 	 6.54657 	 -7.22208
| 28> H 	 -137.448 	 4.94252 	 -4.38638
| 29> C 	 -137.027 	 7.75926 	 -5.17167
| 30> H 	 -137.629 	 7.70982 	 -4.19755
| 31> H 	 -137.15 	 8.74612 	 -5.65437
| 32> C 	 -135.534 	 7.49569 	 -4.81716
| 33> H 	 -134.909 	 7.49866 	 -5.77167
| 34> H 	 -135.416 	 6.4687 	 -4.66579
| 35> C 	 -135.014 	 8.15755 	 -3.55539
| 36> H 	 -135.781 	 7.86559 	 -2.79553
| 37> H 	 -135.086 	 9.23953 	 -3.59515
| 38> H 	 -134.11 	 7.70262 	 -3.23035
| 39> H 	 -138.469 	 9.3571 	 -11.4142
| 40> H 	 -138.604 	 3.33705 	 -5.85281
| 41> *
| 42>
| 43>                          ****END OF INPUT****

CARTESIAN COORDINATES (ANGSTROEM)
---------------------------------
  S    -137.605000    7.521090   -9.903580
  C    -138.547000    8.848030  -10.458800
  C    -139.239000    9.432580   -9.472510
  C    -139.086000    8.709840   -8.199730
  C    -138.241000    7.604700   -8.234840
  H    -139.635000    8.828680   -7.231940
  C    -140.050000   10.708000   -9.578300
  H    -140.167000   10.907300  -10.624600
  H    -139.440000   11.527600   -9.056130
  C    -141.535000   10.609500   -9.204410
  H    -142.001000    9.798330   -9.816210
  H    -141.616000   10.263900   -8.188940
  C    -142.345000   11.887900   -9.321490
  H    -143.325000   11.848900   -8.970520
  H    -141.882000   12.604000   -8.627790
  H    -142.446000   12.251800  -10.287700
  S    -138.716000    4.977970   -7.753230
  C    -138.271000    4.339190   -6.185910
  C    -137.800000    5.308160   -5.321870
  C    -137.642000    6.561650   -5.943110
  C    -138.122000    6.546570   -7.222080
  H    -137.448000    4.942520   -4.386380
  C    -137.027000    7.759260   -5.171670
  H    -137.629000    7.709820   -4.197550
  H    -137.150000    8.746120   -5.654370
  C    -135.534000    7.495690   -4.817160
  H    -134.909000    7.498660   -5.771670
  H    -135.416000    6.468700   -4.665790
  C    -135.014000    8.157550   -3.555390
  H    -135.781000    7.865590   -2.795530
  H    -135.086000    9.239530   -3.595150
  H    -134.110000    7.702620   -3.230350
  H    -138.469000    9.357100  -11.414200
  H    -138.604000    3.337050   -5.852810

 Total Charge           Charge          ....    0
 Multiplicity           Mult            ....    1
 Number of Electrons    NEL             ....  134
 Basis Dimension        Dim             ....  322

ORBITAL ENERGIES
----------------

  NO   OCC          E(Eh)            E(eV)
   0   2.0000     -88.966128     -2420.8914
   1   2.0000     -88.961325     -2420.7607
   2   2.0000     -10.330992      -281.1206
   3   2.0000     -10.327408      -281.0231
   4   2.0000     -10.319439      -280.8062
   5   2.0000     -10.308521      -280.5091
   6   2.0000     -10.306383      -280.4509
   7   2.0000     -10.304167      -280.3907
   8   2.0000     -10.299356      -280.2597
   9   2.0000     -10.298552      -280.2378
  10   2.0000     -10.295156      -280.1454
  11   2.0000     -10.292532      -280.0740
  12   2.0000     -10.285973      -279.8955
  13   2.0000     -10.283912      -279.8395
  14   2.0000     -10.280341      -279.7423
  15   2.0000     -10.268589      -279.4225
  16   2.0000      -8.080999      -219.8952
  17   2.0000      -8.076104      -219.7620
  18   2.0000      -6.039429      -164.3412
  19   2.0000      -6.035554      -164.2358
  20   2.0000      -6.034794      -164.2151
  21   2.0000      -6.031752      -164.1323
  22   2.0000      -6.030561      -164.0999
  23   2.0000      -6.026688      -163.9945
  24   2.0000      -1.006935       -27.4001
  25   2.0000      -0.986036       -26.8314
  26   2.0000      -0.911370       -24.7996
  27   2.0000      -0.907261       -24.6878
  28   2.0000      -0.873311       -23.7640
  29   2.0000      -0.855005       -23.2659
  30   2.0000      -0.844091       -22.9689
  31   2.0000      -0.815269       -22.1846
  32   2.0000      -0.783046       -21.3078
  33   2.0000      -0.774919       -21.0866
  34   2.0000      -0.707874       -19.2622
  35   2.0000      -0.697854       -18.9896
  36   2.0000      -0.691677       -18.8215
  37   2.0000      -0.662965       -18.0402
  38   2.0000      -0.639175       -17.3928
  39   2.0000      -0.614536       -16.7224
  40   2.0000      -0.597278       -16.2528
  41   2.0000      -0.570119       -15.5137
  42   2.0000      -0.568110       -15.4590
  43   2.0000      -0.552563       -15.0360
  44   2.0000      -0.535891       -14.5823
  45   2.0000      -0.521321       -14.1859
  46   2.0000      -0.517925       -14.0934
  47   2.0000      -0.510714       -13.8972
  48   2.0000      -0.502423       -13.6716
  49   2.0000      -0.500436       -13.6176
  50   2.0000      -0.494208       -13.4481
  51   2.0000      -0.475158       -12.9297
  52   2.0000      -0.473739       -12.8911
  53   2.0000      -0.465449       -12.6655
  54   2.0000      -0.460398       -12.5281
  55   2.0000      -0.451713       -12.2917
  56   2.0000      -0.448470       -12.2035
  57   2.0000      -0.438223       -11.9246
  58   2.0000      -0.427273       -11.6267
  59   2.0000      -0.423218       -11.5164
  60   2.0000      -0.415198       -11.2981
  61   2.0000      -0.413352       -11.2479
  62   2.0000      -0.408070       -11.1042
  63   2.0000      -0.347218        -9.4483
  64   2.0000      -0.335638        -9.1332
  65   2.0000      -0.322939        -8.7876
  66   2.0000      -0.300355        -8.1731
  67   0.0000       0.037843         1.0298
  68   0.0000       0.066385         1.8064
  69   0.0000       0.112657         3.0655
  70   0.0000       0.122860         3.3432
  71   0.0000       0.129626         3.5273

MULLIKEN ATOMIC CHARGES
-----------------------
   0 S :    0.097657
   1 C :   -0.102616
   2 C :   -0.103996
   3 C :    0.027336
   4 C :   -0.173741
   5 H :    0.032630
   6 C :    0.070385
   7 H :    0.004283
   8 H :    0.058157
   9 C :   -0.102932
  10 H :    0.035060
  11 H :    0.019927
  12 C :    0.009391
  13 H :    0.015427
  14 H :    0.022373
  15 H :    0.017324
  16 S :    0.117325
  17 C :   -0.108919
  18 C :   -0.037838
  19 C :   -0.010764
  20 C :   -0.188836
  21 H :    0.015618
  22 C :    0.059518
  23 H :    0.036551
  24 H :    0.042788
  25 C :   -0.088527
  26 H :    0.033793
  27 H :    0.000237
  28 C :   -0.007610
  29 H :    0.018276
  30 H :    0.039027
  31 H :    0.037032
  32 H :    0.048016
  33 H :    0.067647
Sum of atomic charges:    0.0000000

LOEWDIN ATOMIC CHARGES
----------------------
   0 S :    0.389575
   1 C :   -0.202333
   2 C :   -0.072303
   3 C :   -0.065965
   4 C :   -0.191244
   5 H :    0.037103
   6 C :   -0.035412
   7 H :    0.025334
   8 H :    0.042902
   9 C :   -0.041834
  10 H :    0.029885
  11 H :    0.016319
  12 C :   -0.057230
  13 H :    0.022108
  14 H :    0.030312
  15 H :    0.015547
  16 S :    0.405545
  17 C :   -0.183456
  18 C :   -0.071070
  19 C :   -0.055440
  20 C :   -0.195363
  21 H :    0.029194
  22 C :   -0.026128
  23 H :    0.038413
  24 H :    0.032013
  25 C :   -0.055196
  26 H :    0.033314
  27 H :    0.014403
  28 C :   -0.058574
  29 H :    0.030382
  30 H :    0.025064
  31 H :    0.026024
  32 H :    0.035012
  33 H :    0.033102

  Mayer bond orders larger than 0.100000
B(  0-S ,  1-C ) :   1.1256 B(  0-S ,  4-C ) :   1.1298 B(  1-C ,  2-C ) :   1.6688
B(  1-C , 32-H ) :   0.9569 B(  2-C ,  3-C ) :   1.1915 B(  2-C ,  6-C ) :   1.0294
B(  3-C ,  4-C ) :   1.6225 B(  3-C ,  5-H ) :   0.9809 B(  4-C , 20-C ) :   1.0213
B(  6-C ,  7-H ) :   0.9389 B(  6-C ,  8-H ) :   0.9369 B(  6-C ,  9-C ) :   1.0519
B(  9-C , 10-H ) :   0.9545 B(  9-C , 11-H ) :   0.9572 B(  9-C , 12-C ) :   1.0936
B( 12-C , 13-H ) :   0.9688 B( 12-C , 14-H ) :   0.9703 B( 12-C , 15-H ) :   0.9745
B( 16-S , 17-C ) :   1.1533 B( 16-S , 20-C ) :   1.1444 B( 17-C , 18-C ) :   1.6382
B( 17-C , 33-H ) :   0.9592 B( 18-C , 19-C ) :   1.2163 B( 18-C , 21-H ) :   0.9882
B( 19-C , 20-C ) :   1.6365 B( 19-C , 22-C ) :   1.0261 B( 22-C , 23-H ) :   0.9393
B( 22-C , 24-H ) :   0.9387 B( 22-C , 25-C ) :   1.0584 B( 25-C , 26-H ) :   0.9425
B( 25-C , 27-H ) :   0.9573 B( 25-C , 28-C ) :   1.0706 B( 28-C , 29-H ) :   0.9701
B( 28-C , 30-H ) :   0.9773 B( 28-C , 31-H ) :   0.9727

Dispersion correction           -0.013373416
FINAL SINGLE POINT ENERGY     -1339.863105222659

DIPOLE MOMENT
-------------
                                X             Y             Z
Electronic contribution:      3.54895     -20.44702     -12.70089
Nuclear contribution   :     -3.76425      20.76414      13.18918
                        -----------------------------------------
Total Dipole Moment    :     -0.21530       0.31712       0.48829
                        -----------------------------------------
Magnitude (a.u.)       :      0.62076
Magnitude (Debye)      :      1.57785

Rotational constants in cm-1:     0.018160     0.007284     0.006378
Rotational constants in MHz :   544.413327   218.382762   191.221237

                             ****ORCA TERMINATED NORMALLY****
TOTAL RUN TIME: 0 days 0 hours 0 minutes 20 seconds 679 msec
