                         Program Version 4.2.1 -  RELEASE  -
|  1> ! wB97X-D3 SP def2-SVP
|  2> %pal
|  3> nprocs 24
|  4> end
|  5>
|  6> * xyz 0 1
|  7> S 	 -102.001 	 -1.63069 	 -119.128
|  8> C 	 -102.872 	 -3.07529 	 -119.547
|  9> C 	 -102.21 	 -3.80817 	 -120.555
| 10> C 	 -100.899 	 -3.22103 	 -120.751
| 11> C 	 -100.645 	 -2.02673 	 -120.089
| 12> H 	 -100.128 	 -3.48903 	 -121.464
| 13> C 	 -102.646 	 -5.10408 	 -121.158
| 14> H 	 -102.718 	 -5.66958 	 -120.226
| 15> H 	 -101.879 	 -5.60984 	 -121.714
| 16> C 	 -104.049 	 -5.07294 	 -121.876
| 17> H 	 -104.927 	 -5.0045 	 -121.188
| 18> H 	 -104.127 	 -4.1695 	 -122.384
| 19> C 	 -104.215 	 -6.33022 	 -122.654
| 20> H 	 -105.26 	 -6.35914 	 -123.028
| 21> H 	 -103.587 	 -6.18607 	 -123.57
| 22> H 	 -103.97 	 -7.19177 	 -122.065
| 23> S 	 -99.4244 	 0.17327 	 -121.195
| 24> C 	 -97.7344 	 0.395716 	 -121.049
| 25> C 	 -97.162 	 -0.545953 	 -120.217
| 26> C 	 -98.1407 	 -1.42945 	 -119.707
| 27> C 	 -99.4022 	 -1.21555 	 -120.194
| 28> H 	 -96.1029 	 -0.528963 	 -120
| 29> C 	 -97.7055 	 -2.60818 	 -118.85
| 30> H 	 -96.7063 	 -2.94664 	 -119.137
| 31> H 	 -98.3927 	 -3.44516 	 -119.07
| 32> C 	 -97.7801 	 -2.37902 	 -117.387
| 33> H 	 -98.7665 	 -2.06781 	 -117.185
| 34> H 	 -97.2234 	 -1.52397 	 -117.261
| 35> C 	 -97.1596 	 -3.57068 	 -116.603
| 36> H 	 -97.4364 	 -4.59757 	 -116.837
| 37> H 	 -97.4667 	 -3.45975 	 -115.57
| 38> H 	 -96.0503 	 -3.51586 	 -116.546
| 39> H 	 -103.861 	 -3.29821 	 -119.218
| 40> H 	 -97.1089 	 1.1919 	 -121.428
| 41> *
| 42>
| 43>                          ****END OF INPUT****

CARTESIAN COORDINATES (ANGSTROEM)
---------------------------------
  S    -102.001000   -1.630690  -119.128000
  C    -102.872000   -3.075290  -119.547000
  C    -102.210000   -3.808170  -120.555000
  C    -100.899000   -3.221030  -120.751000
  C    -100.645000   -2.026730  -120.089000
  H    -100.128000   -3.489030  -121.464000
  C    -102.646000   -5.104080  -121.158000
  H    -102.718000   -5.669580  -120.226000
  H    -101.879000   -5.609840  -121.714000
  C    -104.049000   -5.072940  -121.876000
  H    -104.927000   -5.004500  -121.188000
  H    -104.127000   -4.169500  -122.384000
  C    -104.215000   -6.330220  -122.654000
  H    -105.260000   -6.359140  -123.028000
  H    -103.587000   -6.186070  -123.570000
  H    -103.970000   -7.191770  -122.065000
  S    -99.424400    0.173270  -121.195000
  C    -97.734400    0.395716  -121.049000
  C    -97.162000   -0.545953  -120.217000
  C    -98.140700   -1.429450  -119.707000
  C    -99.402200   -1.215550  -120.194000
  H    -96.102900   -0.528963  -120.000000
  C    -97.705500   -2.608180  -118.850000
  H    -96.706300   -2.946640  -119.137000
  H    -98.392700   -3.445160  -119.070000
  C    -97.780100   -2.379020  -117.387000
  H    -98.766500   -2.067810  -117.185000
  H    -97.223400   -1.523970  -117.261000
  C    -97.159600   -3.570680  -116.603000
  H    -97.436400   -4.597570  -116.837000
  H    -97.466700   -3.459750  -115.570000
  H    -96.050300   -3.515860  -116.546000
  H    -103.861000   -3.298210  -119.218000
  H    -97.108900    1.191900  -121.428000

 Total Charge           Charge          ....    0
 Multiplicity           Mult            ....    1
 Number of Electrons    NEL             ....  134
 Basis Dimension        Dim             ....  322

ORBITAL ENERGIES
----------------

  NO   OCC          E(Eh)            E(eV)
   0   2.0000     -88.966260     -2420.8950
   1   2.0000     -88.965410     -2420.8719
   2   2.0000     -10.325668      -280.9757
   3   2.0000     -10.321964      -280.8749
   4   2.0000     -10.312605      -280.6202
   5   2.0000     -10.312407      -280.6148
   6   2.0000     -10.306529      -280.4549
   7   2.0000     -10.295922      -280.1663
   8   2.0000     -10.292609      -280.0761
   9   2.0000     -10.292120      -280.0628
  10   2.0000     -10.288860      -279.9741
  11   2.0000     -10.284755      -279.8624
  12   2.0000     -10.280384      -279.7435
  13   2.0000     -10.279145      -279.7098
  14   2.0000     -10.278504      -279.6923
  15   2.0000     -10.269287      -279.4415
  16   2.0000      -8.081472      -219.9080
  17   2.0000      -8.081421      -219.9067
  18   2.0000      -6.039871      -164.3533
  19   2.0000      -6.039780      -164.3508
  20   2.0000      -6.035703      -164.2398
  21   2.0000      -6.035605      -164.2372
  22   2.0000      -6.032539      -164.1537
  23   2.0000      -6.032406      -164.1501
  24   2.0000      -1.012415       -27.5492
  25   2.0000      -0.989629       -26.9292
  26   2.0000      -0.916240       -24.9322
  27   2.0000      -0.913995       -24.8711
  28   2.0000      -0.870096       -23.6765
  29   2.0000      -0.851522       -23.1711
  30   2.0000      -0.848816       -23.0975
  31   2.0000      -0.814145       -22.1540
  32   2.0000      -0.780420       -21.2363
  33   2.0000      -0.771027       -20.9807
  34   2.0000      -0.707761       -19.2591
  35   2.0000      -0.704353       -19.1664
  36   2.0000      -0.691049       -18.8044
  37   2.0000      -0.662722       -18.0336
  38   2.0000      -0.646660       -17.5965
  39   2.0000      -0.612845       -16.6764
  40   2.0000      -0.595319       -16.1994
  41   2.0000      -0.575767       -15.6674
  42   2.0000      -0.566779       -15.4228
  43   2.0000      -0.562872       -15.3165
  44   2.0000      -0.532470       -14.4892
  45   2.0000      -0.523237       -14.2380
  46   2.0000      -0.514512       -14.0006
  47   2.0000      -0.510910       -13.9026
  48   2.0000      -0.504790       -13.7360
  49   2.0000      -0.500841       -13.6286
  50   2.0000      -0.497401       -13.5350
  51   2.0000      -0.477819       -13.0021
  52   2.0000      -0.475015       -12.9258
  53   2.0000      -0.466331       -12.6895
  54   2.0000      -0.461384       -12.5549
  55   2.0000      -0.449995       -12.2450
  56   2.0000      -0.446594       -12.1524
  57   2.0000      -0.435951       -11.8628
  58   2.0000      -0.432727       -11.7751
  59   2.0000      -0.423481       -11.5235
  60   2.0000      -0.416702       -11.3390
  61   2.0000      -0.413449       -11.2505
  62   2.0000      -0.410544       -11.1715
  63   2.0000      -0.336502        -9.1567
  64   2.0000      -0.326974        -8.8974
  65   2.0000      -0.324253        -8.8234
  66   2.0000      -0.306799        -8.3484
  67   0.0000       0.047933         1.3043
  68   0.0000       0.059466         1.6181
  69   0.0000       0.123073         3.3490
  70   0.0000       0.130308         3.5458
  71   0.0000       0.131580         3.5805

MULLIKEN ATOMIC CHARGES
-----------------------
   0 S :    0.128292
   1 C :   -0.115550
   2 C :   -0.093236
   3 C :    0.044380
   4 C :   -0.186329
   5 H :    0.010933
   6 C :    0.055897
   7 H :    0.044336
   8 H :    0.021524
   9 C :   -0.070128
  10 H :    0.023662
  11 H :    0.020655
  12 C :   -0.042973
  13 H :    0.035117
  14 H :    0.040020
  15 H :    0.040247
  16 S :    0.132123
  17 C :   -0.084995
  18 C :   -0.051025
  19 C :   -0.023044
  20 C :   -0.183315
  21 H :    0.018736
  22 C :    0.050536
  23 H :    0.012342
  24 H :    0.017999
  25 C :    0.010069
  26 H :    0.010674
  27 H :   -0.008019
  28 C :   -0.043847
  29 H :    0.033930
  30 H :    0.025354
  31 H :    0.034865
  32 H :    0.039532
  33 H :    0.051239
Sum of atomic charges:   -0.0000000

LOEWDIN ATOMIC CHARGES
----------------------
   0 S :    0.434471
   1 C :   -0.205633
   2 C :   -0.056529
   3 C :   -0.066296
   4 C :   -0.220985
   5 H :    0.030402
   6 C :   -0.034841
   7 H :    0.043936
   8 H :    0.028886
   9 C :   -0.038355
  10 H :    0.025156
  11 H :    0.014872
  12 C :   -0.064451
  13 H :    0.030000
  14 H :    0.031999
  15 H :    0.024888
  16 S :    0.445423
  17 C :   -0.198292
  18 C :   -0.074373
  19 C :   -0.055739
  20 C :   -0.220542
  21 H :    0.032430
  22 C :   -0.029995
  23 H :    0.024114
  24 H :    0.027785
  25 C :   -0.030444
  26 H :    0.020023
  27 H :    0.013974
  28 C :   -0.067035
  29 H :    0.025099
  30 H :    0.026939
  31 H :    0.030833
  32 H :    0.020877
  33 H :    0.031403

  Mayer bond orders larger than 0.100000
B(  0-S ,  1-C ) :   1.1622 B(  0-S ,  4-C ) :   1.1721 B(  1-C ,  2-C ) :   1.5671
B(  1-C ,  4-C ) :   0.1034 B(  1-C , 32-H ) :   0.9735 B(  2-C ,  3-C ) :   1.2487
B(  2-C ,  6-C ) :   1.0185 B(  3-C ,  4-C ) :   1.5777 B(  3-C ,  5-H ) :   0.9912
B(  4-C , 20-C ) :   0.9834 B(  6-C ,  7-H ) :   0.9297 B(  6-C ,  8-H ) :   0.9547
B(  6-C ,  9-C ) :   1.0377 B(  9-C , 10-H ) :   0.9502 B(  9-C , 11-H ) :   0.9667
B(  9-C , 12-C ) :   1.0905 B( 12-C , 13-H ) :   0.9724 B( 12-C , 14-H ) :   0.9758
B( 12-C , 15-H ) :   0.9710 B( 16-S , 17-C ) :   1.1797 B( 16-S , 20-C ) :   1.1600
B( 17-C , 18-C ) :   1.5880 B( 17-C , 33-H ) :   0.9651 B( 18-C , 19-C ) :   1.2647
B( 18-C , 21-H ) :   0.9933 B( 19-C , 20-C ) :   1.6048 B( 19-C , 22-C ) :   1.0336
B( 22-C , 23-H ) :   0.9423 B( 22-C , 24-H ) :   0.9286 B( 22-C , 25-C ) :   1.0713
B( 25-C , 26-H ) :   0.9518 B( 25-C , 27-H ) :   0.9468 B( 25-C , 28-C ) :   1.0708
B( 28-C , 29-H ) :   0.9779 B( 28-C , 30-H ) :   0.9735 B( 28-C , 31-H ) :   0.9736

Dispersion correction           -0.013794846
FINAL SINGLE POINT ENERGY     -1339.869355196280

DIPOLE MOMENT
-------------
                                X             Y             Z
Electronic contribution:     -0.13602      23.12885      -3.12666
Nuclear contribution   :      0.25653     -23.61426       3.05521
                        -----------------------------------------
Total Dipole Moment    :      0.12051      -0.48541      -0.07145
                        -----------------------------------------
Magnitude (a.u.)       :      0.50522
Magnitude (Debye)      :      1.28416

Rotational constants in cm-1:     0.019590     0.007373     0.006347
Rotational constants in MHz :   587.292731   221.025292   190.292192

                             ****ORCA TERMINATED NORMALLY****
TOTAL RUN TIME: 0 days 0 hours 0 minutes 20 seconds 929 msec
