                         Program Version 4.2.1 -  RELEASE  -
|  1> ! wB97X-D3 SP def2-SVP
|  2> %pal
|  3> nprocs 24
|  4> end
|  5>
|  6> * xyz 0 1
|  7> S 	 -65.1664 	 21.1157 	 -108.37
|  8> C 	 -64.75 	 19.9159 	 -107.219
|  9> C 	 -64.7386 	 18.6961 	 -107.806
| 10> C 	 -65.2045 	 18.6978 	 -109.163
| 11> C 	 -65.59 	 19.9081 	 -109.566
| 12> H 	 -65.1312 	 17.8624 	 -109.818
| 13> C 	 -64.0146 	 17.466 	 -107.251
| 14> H 	 -63.5482 	 17.7591 	 -106.284
| 15> H 	 -63.1806 	 17.2595 	 -107.889
| 16> C 	 -64.8296 	 16.1643 	 -107.069
| 17> H 	 -65.7623 	 16.4245 	 -106.483
| 18> H 	 -65.2783 	 15.9473 	 -108.063
| 19> C 	 -64.0337 	 14.9433 	 -106.521
| 20> H 	 -64.8204 	 14.1835 	 -106.315
| 21> H 	 -63.4222 	 14.4776 	 -107.288
| 22> H 	 -63.5707 	 15.1534 	 -105.618
| 23> S 	 -65.2537 	 21.8731 	 -111.435
| 24> C 	 -65.3486 	 21.4735 	 -113.099
| 25> C 	 -65.8916 	 20.2167 	 -113.291
| 26> C 	 -66.2053 	 19.5015 	 -112.097
| 27> C 	 -65.7871 	 20.2179 	 -110.982
| 28> H 	 -66.1492 	 19.8875 	 -114.258
| 29> C 	 -66.8074 	 18.1238 	 -112.081
| 30> H 	 -67.8725 	 18.2697 	 -112.169
| 31> H 	 -66.7461 	 17.6654 	 -111.116
| 32> C 	 -66.2061 	 17.086 	 -113.096
| 33> H 	 -66.321 	 17.4622 	 -114.134
| 34> H 	 -66.7491 	 16.1039 	 -113.09
| 35> C 	 -64.7761 	 16.6366 	 -112.758
| 36> H 	 -64.0551 	 17.483 	 -112.751
| 37> H 	 -64.3459 	 15.9905 	 -113.581
| 38> H 	 -64.743 	 16.1453 	 -111.764
| 39> H 	 -64.2088 	 20.0336 	 -106.301
| 40> H 	 -65.2138 	 22.2218 	 -113.789
| 41> *
| 42>
| 43>                          ****END OF INPUT****

CARTESIAN COORDINATES (ANGSTROEM)
---------------------------------
  S    -65.166400   21.115700  -108.370000
  C    -64.750000   19.915900  -107.219000
  C    -64.738600   18.696100  -107.806000
  C    -65.204500   18.697800  -109.163000
  C    -65.590000   19.908100  -109.566000
  H    -65.131200   17.862400  -109.818000
  C    -64.014600   17.466000  -107.251000
  H    -63.548200   17.759100  -106.284000
  H    -63.180600   17.259500  -107.889000
  C    -64.829600   16.164300  -107.069000
  H    -65.762300   16.424500  -106.483000
  H    -65.278300   15.947300  -108.063000
  C    -64.033700   14.943300  -106.521000
  H    -64.820400   14.183500  -106.315000
  H    -63.422200   14.477600  -107.288000
  H    -63.570700   15.153400  -105.618000
  S    -65.253700   21.873100  -111.435000
  C    -65.348600   21.473500  -113.099000
  C    -65.891600   20.216700  -113.291000
  C    -66.205300   19.501500  -112.097000
  C    -65.787100   20.217900  -110.982000
  H    -66.149200   19.887500  -114.258000
  C    -66.807400   18.123800  -112.081000
  H    -67.872500   18.269700  -112.169000
  H    -66.746100   17.665400  -111.116000
  C    -66.206100   17.086000  -113.096000
  H    -66.321000   17.462200  -114.134000
  H    -66.749100   16.103900  -113.090000
  C    -64.776100   16.636600  -112.758000
  H    -64.055100   17.483000  -112.751000
  H    -64.345900   15.990500  -113.581000
  H    -64.743000   16.145300  -111.764000
  H    -64.208800   20.033600  -106.301000
  H    -65.213800   22.221800  -113.789000

 Total Charge           Charge          ....    0
 Multiplicity           Mult            ....    1
 Number of Electrons    NEL             ....  134
 Basis Dimension        Dim             ....  322

ORBITAL ENERGIES
----------------

  NO   OCC          E(Eh)            E(eV)
   0   2.0000     -88.964635     -2420.8508
   1   2.0000     -88.961495     -2420.7654
   2   2.0000     -10.330357      -281.1033
   3   2.0000     -10.325356      -280.9672
   4   2.0000     -10.310003      -280.5494
   5   2.0000     -10.306687      -280.4592
   6   2.0000     -10.305960      -280.4394
   7   2.0000     -10.298904      -280.2474
   8   2.0000     -10.295472      -280.1540
   9   2.0000     -10.294217      -280.1199
  10   2.0000     -10.294198      -280.1194
  11   2.0000     -10.291627      -280.0494
  12   2.0000     -10.290878      -280.0290
  13   2.0000     -10.288695      -279.9696
  14   2.0000     -10.285067      -279.8709
  15   2.0000     -10.280804      -279.7549
  16   2.0000      -8.080193      -219.8732
  17   2.0000      -8.076764      -219.7799
  18   2.0000      -6.038944      -164.3280
  19   2.0000      -6.035175      -164.2255
  20   2.0000      -6.034787      -164.2149
  21   2.0000      -6.031311      -164.1203
  22   2.0000      -6.030420      -164.0961
  23   2.0000      -6.027496      -164.0165
  24   2.0000      -1.014607       -27.6089
  25   2.0000      -0.988356       -26.8945
  26   2.0000      -0.909356       -24.7448
  27   2.0000      -0.905472       -24.6392
  28   2.0000      -0.874978       -23.8094
  29   2.0000      -0.854124       -23.2419
  30   2.0000      -0.845805       -23.0155
  31   2.0000      -0.817498       -22.2452
  32   2.0000      -0.786218       -21.3941
  33   2.0000      -0.775385       -21.0993
  34   2.0000      -0.708973       -19.2921
  35   2.0000      -0.700662       -19.0660
  36   2.0000      -0.695174       -18.9166
  37   2.0000      -0.662272       -18.0213
  38   2.0000      -0.641060       -17.4441
  39   2.0000      -0.627325       -17.0704
  40   2.0000      -0.606404       -16.5011
  41   2.0000      -0.566544       -15.4165
  42   2.0000      -0.558901       -15.2085
  43   2.0000      -0.554355       -15.0848
  44   2.0000      -0.543110       -14.7788
  45   2.0000      -0.524111       -14.2618
  46   2.0000      -0.517095       -14.0709
  47   2.0000      -0.507245       -13.8028
  48   2.0000      -0.505558       -13.7569
  49   2.0000      -0.504574       -13.7302
  50   2.0000      -0.494803       -13.4643
  51   2.0000      -0.482910       -13.1407
  52   2.0000      -0.477291       -12.9877
  53   2.0000      -0.469030       -12.7629
  54   2.0000      -0.463959       -12.6250
  55   2.0000      -0.454316       -12.3626
  56   2.0000      -0.442966       -12.0537
  57   2.0000      -0.436810       -11.8862
  58   2.0000      -0.431330       -11.7371
  59   2.0000      -0.424092       -11.5401
  60   2.0000      -0.419370       -11.4116
  61   2.0000      -0.415552       -11.3077
  62   2.0000      -0.410929       -11.1820
  63   2.0000      -0.365607        -9.9487
  64   2.0000      -0.335336        -9.1249
  65   2.0000      -0.323675        -8.8076
  66   2.0000      -0.284400        -7.7389
  67   0.0000       0.023017         0.6263
  68   0.0000       0.080753         2.1974
  69   0.0000       0.099543         2.7087
  70   0.0000       0.118060         3.2126
  71   0.0000       0.126083         3.4309

MULLIKEN ATOMIC CHARGES
-----------------------
   0 S :    0.087138
   1 C :   -0.085812
   2 C :   -0.095725
   3 C :   -0.011217
   4 C :   -0.043728
   5 H :   -0.004515
   6 C :    0.063953
   7 H :    0.007939
   8 H :    0.027643
   9 C :   -0.127541
  10 H :    0.037625
  11 H :    0.019536
  12 C :   -0.008791
  13 H :    0.033633
  14 H :    0.039763
  15 H :    0.028799
  16 S :    0.078925
  17 C :   -0.051683
  18 C :   -0.018081
  19 C :   -0.047858
  20 C :   -0.162822
  21 H :   -0.001925
  22 C :    0.091839
  23 H :    0.040312
  24 H :    0.004512
  25 C :   -0.097945
  26 H :    0.037667
  27 H :    0.039265
  28 C :   -0.091963
  29 H :    0.042998
  30 H :    0.047421
  31 H :    0.046131
  32 H :    0.043066
  33 H :    0.031440
Sum of atomic charges:   -0.0000000

LOEWDIN ATOMIC CHARGES
----------------------
   0 S :    0.406619
   1 C :   -0.205334
   2 C :   -0.062267
   3 C :   -0.059869
   4 C :   -0.185829
   5 H :    0.024038
   6 C :   -0.034753
   7 H :    0.025213
   8 H :    0.027311
   9 C :   -0.050055
  10 H :    0.029155
  11 H :    0.020387
  12 C :   -0.058453
  13 H :    0.036088
  14 H :    0.028769
  15 H :    0.016232
  16 S :    0.392181
  17 C :   -0.176472
  18 C :   -0.064850
  19 C :   -0.058532
  20 C :   -0.166698
  21 H :    0.021770
  22 C :   -0.031940
  23 H :    0.038972
  24 H :    0.025537
  25 C :   -0.045148
  26 H :    0.023111
  27 H :    0.032045
  28 C :   -0.077981
  29 H :    0.026895
  30 H :    0.035825
  31 H :    0.026007
  32 H :    0.031022
  33 H :    0.011002

  Mayer bond orders larger than 0.100000
B(  0-S ,  1-C ) :   1.1215 B(  0-S ,  4-C ) :   1.1370 B(  1-C ,  2-C ) :   1.6531
B(  1-C , 32-H ) :   0.9608 B(  2-C ,  3-C ) :   1.2281 B(  2-C ,  6-C ) :   1.0280
B(  3-C ,  4-C ) :   1.5790 B(  3-C ,  5-H ) :   0.9966 B(  4-C , 20-C ) :   1.0624
B(  6-C ,  7-H ) :   0.9402 B(  6-C ,  8-H ) :   0.9423 B(  6-C ,  9-C ) :   1.0507
B(  9-C , 10-H ) :   0.9590 B(  9-C , 11-H ) :   0.9556 B(  9-C , 12-C ) :   1.0762
B( 12-C , 13-H ) :   0.9726 B( 12-C , 14-H ) :   0.9743 B( 12-C , 15-H ) :   0.9775
B( 16-S , 17-C ) :   1.1667 B( 16-S , 20-C ) :   1.1358 B( 17-C , 18-C ) :   1.5865
B( 17-C , 33-H ) :   0.9809 B( 18-C , 19-C ) :   1.2414 B( 18-C , 21-H ) :   0.9997
B( 19-C , 20-C ) :   1.5922 B( 19-C , 22-C ) :   1.0350 B( 22-C , 23-H ) :   0.9221
B( 22-C , 24-H ) :   0.9369 B( 22-C , 25-C ) :   1.0638 B( 25-C , 26-H ) :   0.9562
B( 25-C , 27-H ) :   0.9562 B( 25-C , 28-C ) :   1.0732 B( 28-C , 29-H ) :   0.9751
B( 28-C , 30-H ) :   0.9719 B( 28-C , 31-H ) :   0.9683

Dispersion correction           -0.014414851
FINAL SINGLE POINT ENERGY     -1339.872241809086

DIPOLE MOMENT
-------------
                                X             Y             Z
Electronic contribution:     -3.14269      32.10072      -0.80382
Nuclear contribution   :      3.32047     -32.84765       0.56892
                        -----------------------------------------
Total Dipole Moment    :      0.17778      -0.74693      -0.23490
                        -----------------------------------------
Magnitude (a.u.)       :      0.80293
Magnitude (Debye)      :      2.04088

Rotational constants in cm-1:     0.017843     0.009543     0.006564
Rotational constants in MHz :   534.920474   286.080822   196.781605

                             ****ORCA TERMINATED NORMALLY****
TOTAL RUN TIME: 0 days 0 hours 0 minutes 20 seconds 990 msec
