                         Program Version 4.2.1 -  RELEASE  -
|  1> ! wB97X-D3 SP def2-SVP
|  2> %pal
|  3> nprocs 24
|  4> end
|  5>
|  6> * xyz 0 1
|  7> S 	 -102.562 	 3.91139 	 -114.102
|  8> C 	 -103.147 	 3.8552 	 -115.833
|  9> C 	 -103.707 	 2.6378 	 -116.094
| 10> C 	 -103.631 	 1.71702 	 -115.011
| 11> C 	 -102.978 	 2.20643 	 -113.875
| 12> H 	 -104.022 	 0.729841 	 -115.017
| 13> C 	 -104.428 	 2.19694 	 -117.339
| 14> H 	 -104.011 	 1.38155 	 -117.89
| 15> H 	 -104.282 	 3.03138 	 -118.04
| 16> C 	 -105.935 	 2.04098 	 -117.15
| 17> H 	 -106.142 	 1.18495 	 -116.544
| 18> H 	 -106.339 	 2.75856 	 -116.4
| 19> C 	 -106.843 	 2.09755 	 -118.412
| 20> H 	 -106.862 	 2.98799 	 -118.998
| 21> H 	 -106.461 	 1.24493 	 -118.964
| 22> H 	 -107.797 	 1.90828 	 -118.041
| 23> S 	 -103.598 	 2.05826 	 -111.199
| 24> C 	 -103.041 	 0.667759 	 -110.296
| 25> C 	 -102.184 	 -0.112913 	 -111.03
| 26> C 	 -102.185 	 0.283214 	 -112.405
| 27> C 	 -102.765 	 1.49861 	 -112.649
| 28> H 	 -101.889 	 -1.02776 	 -110.58
| 29> C 	 -101.49 	 -0.549437 	 -113.446
| 30> H 	 -101.663 	 -0.0430715 	 -114.435
| 31> H 	 -101.836 	 -1.57443 	 -113.42
| 32> C 	 -99.9372 	 -0.528398 	 -113.254
| 33> H 	 -99.5675 	 -1.06594 	 -112.403
| 34> H 	 -99.4792 	 0.553894 	 -113.1
| 35> C 	 -99.2871 	 -1.18458 	 -114.471
| 36> H 	 -99.5109 	 -0.589517 	 -115.356
| 37> H 	 -99.541 	 -2.21107 	 -114.548
| 38> H 	 -98.2151 	 -1.17642 	 -114.326
| 39> H 	 -103.175 	 4.67584 	 -116.503
| 40> H 	 -103.455 	 0.365548 	 -109.357
| 41> *
| 42>
| 43>                          ****END OF INPUT****

CARTESIAN COORDINATES (ANGSTROEM)
---------------------------------
  S    -102.562000    3.911390  -114.102000
  C    -103.147000    3.855200  -115.833000
  C    -103.707000    2.637800  -116.094000
  C    -103.631000    1.717020  -115.011000
  C    -102.978000    2.206430  -113.875000
  H    -104.022000    0.729841  -115.017000
  C    -104.428000    2.196940  -117.339000
  H    -104.011000    1.381550  -117.890000
  H    -104.282000    3.031380  -118.040000
  C    -105.935000    2.040980  -117.150000
  H    -106.142000    1.184950  -116.544000
  H    -106.339000    2.758560  -116.400000
  C    -106.843000    2.097550  -118.412000
  H    -106.862000    2.987990  -118.998000
  H    -106.461000    1.244930  -118.964000
  H    -107.797000    1.908280  -118.041000
  S    -103.598000    2.058260  -111.199000
  C    -103.041000    0.667759  -110.296000
  C    -102.184000   -0.112913  -111.030000
  C    -102.185000    0.283214  -112.405000
  C    -102.765000    1.498610  -112.649000
  H    -101.889000   -1.027760  -110.580000
  C    -101.490000   -0.549437  -113.446000
  H    -101.663000   -0.043071  -114.435000
  H    -101.836000   -1.574430  -113.420000
  C    -99.937200   -0.528398  -113.254000
  H    -99.567500   -1.065940  -112.403000
  H    -99.479200    0.553894  -113.100000
  C    -99.287100   -1.184580  -114.471000
  H    -99.510900   -0.589517  -115.356000
  H    -99.541000   -2.211070  -114.548000
  H    -98.215100   -1.176420  -114.326000
  H    -103.175000    4.675840  -116.503000
  H    -103.455000    0.365548  -109.357000

 Total Charge           Charge          ....    0
 Multiplicity           Mult            ....    1
 Number of Electrons    NEL             ....  134
 Basis Dimension        Dim             ....  322

ORBITAL ENERGIES
----------------

  NO   OCC          E(Eh)            E(eV)
   0   2.0000     -88.966273     -2420.8954
   1   2.0000     -88.962118     -2420.7823
   2   2.0000     -10.331656      -281.1386
   3   2.0000     -10.321516      -280.8627
   4   2.0000     -10.317030      -280.7407
   5   2.0000     -10.316986      -280.7395
   6   2.0000     -10.301935      -280.3299
   7   2.0000     -10.300128      -280.2807
   8   2.0000     -10.292570      -280.0751
   9   2.0000     -10.291071      -280.0343
  10   2.0000     -10.290442      -280.0172
  11   2.0000     -10.289915      -280.0028
  12   2.0000     -10.289851      -280.0011
  13   2.0000     -10.285007      -279.8693
  14   2.0000     -10.274297      -279.5778
  15   2.0000     -10.269592      -279.4498
  16   2.0000      -8.079528      -219.8551
  17   2.0000      -8.077106      -219.7892
  18   2.0000      -6.038226      -164.3085
  19   2.0000      -6.035676      -164.2391
  20   2.0000      -6.034349      -164.2030
  21   2.0000      -6.031579      -164.1276
  22   2.0000      -6.030062      -164.0863
  23   2.0000      -6.027769      -164.0239
  24   2.0000      -1.005793       -27.3690
  25   2.0000      -0.980198       -26.6725
  26   2.0000      -0.912196       -24.8221
  27   2.0000      -0.905973       -24.6528
  28   2.0000      -0.873353       -23.7652
  29   2.0000      -0.851184       -23.1619
  30   2.0000      -0.844340       -22.9757
  31   2.0000      -0.815306       -22.1856
  32   2.0000      -0.785357       -21.3707
  33   2.0000      -0.770651       -20.9705
  34   2.0000      -0.711838       -19.3701
  35   2.0000      -0.700771       -19.0689
  36   2.0000      -0.692159       -18.8346
  37   2.0000      -0.661990       -18.0137
  38   2.0000      -0.643434       -17.5087
  39   2.0000      -0.621322       -16.9070
  40   2.0000      -0.595255       -16.1977
  41   2.0000      -0.575568       -15.6620
  42   2.0000      -0.567617       -15.4456
  43   2.0000      -0.555452       -15.1146
  44   2.0000      -0.534112       -14.5339
  45   2.0000      -0.521141       -14.1810
  46   2.0000      -0.520734       -14.1699
  47   2.0000      -0.515085       -14.0162
  48   2.0000      -0.507727       -13.8159
  49   2.0000      -0.500762       -13.6264
  50   2.0000      -0.494276       -13.4499
  51   2.0000      -0.481582       -13.1045
  52   2.0000      -0.473684       -12.8896
  53   2.0000      -0.464225       -12.6322
  54   2.0000      -0.457549       -12.4505
  55   2.0000      -0.446206       -12.1419
  56   2.0000      -0.443986       -12.0815
  57   2.0000      -0.433704       -11.8017
  58   2.0000      -0.429790       -11.6952
  59   2.0000      -0.421497       -11.4695
  60   2.0000      -0.419182       -11.4065
  61   2.0000      -0.416304       -11.3282
  62   2.0000      -0.404533       -11.0079
  63   2.0000      -0.344813        -9.3828
  64   2.0000      -0.332131        -9.0377
  65   2.0000      -0.326835        -8.8936
  66   2.0000      -0.294524        -8.0144
  67   0.0000       0.033916         0.9229
  68   0.0000       0.061295         1.6679
  69   0.0000       0.110634         3.0105
  70   0.0000       0.118234         3.2173
  71   0.0000       0.131548         3.5796

MULLIKEN ATOMIC CHARGES
-----------------------
   0 S :    0.094504
   1 C :   -0.108938
   2 C :   -0.079564
   3 C :    0.045859
   4 C :   -0.165751
   5 H :    0.005408
   6 C :    0.103030
   7 H :    0.030042
   8 H :    0.001618
   9 C :   -0.120242
  10 H :    0.015133
  11 H :    0.025304
  12 C :    0.001381
  13 H :    0.038803
  14 H :    0.028548
  15 H :    0.022414
  16 S :    0.099742
  17 C :   -0.090824
  18 C :   -0.005400
  19 C :   -0.044564
  20 C :   -0.133336
  21 H :    0.011703
  22 C :    0.066045
  23 H :    0.036929
  24 H :    0.030191
  25 C :   -0.132609
  26 H :    0.023055
  27 H :    0.050500
  28 C :   -0.018506
  29 H :    0.036598
  30 H :    0.020989
  31 H :    0.024637
  32 H :    0.033034
  33 H :    0.054269
Sum of atomic charges:    0.0000000

LOEWDIN ATOMIC CHARGES
----------------------
   0 S :    0.367294
   1 C :   -0.168371
   2 C :   -0.059059
   3 C :   -0.057646
   4 C :   -0.182256
   5 H :    0.025747
   6 C :   -0.033139
   7 H :    0.027534
   8 H :    0.028930
   9 C :   -0.046125
  10 H :    0.018315
  11 H :    0.027422
  12 C :   -0.051148
  13 H :    0.023049
  14 H :    0.027222
  15 H :    0.022016
  16 S :    0.395147
  17 C :   -0.167768
  18 C :   -0.069840
  19 C :   -0.049051
  20 C :   -0.205988
  21 H :    0.028364
  22 C :   -0.032267
  23 H :    0.037197
  24 H :    0.030422
  25 C :   -0.043730
  26 H :    0.014720
  27 H :    0.037872
  28 C :   -0.062796
  29 H :    0.025719
  30 H :    0.018465
  31 H :    0.024765
  32 H :    0.022665
  33 H :    0.026317

  Mayer bond orders larger than 0.100000
B(  0-S ,  1-C ) :   1.1050 B(  0-S ,  4-C ) :   1.1401 B(  1-C ,  2-C ) :   1.6447
B(  1-C , 32-H ) :   0.9703 B(  2-C ,  3-C ) :   1.2155 B(  2-C ,  6-C ) :   1.0320
B(  3-C ,  4-C ) :   1.5770 B(  3-C ,  5-H ) :   0.9988 B(  4-C , 20-C ) :   1.0438
B(  6-C ,  7-H ) :   0.9384 B(  6-C ,  8-H ) :   0.9351 B(  6-C ,  9-C ) :   1.0469
B(  9-C , 10-H ) :   0.9519 B(  9-C , 11-H ) :   0.9542 B(  9-C , 12-C ) :   1.0789
B( 12-C , 13-H ) :   0.9789 B( 12-C , 14-H ) :   0.9762 B( 12-C , 15-H ) :   0.9725
B( 16-S , 17-C ) :   1.1619 B( 16-S , 20-C ) :   1.1156 B( 17-C , 18-C ) :   1.6259
B( 17-C , 33-H ) :   0.9673 B( 18-C , 19-C ) :   1.2098 B( 18-C , 21-H ) :   0.9917
B( 19-C , 20-C ) :   1.6254 B( 19-C , 22-C ) :   1.0585 B( 22-C , 23-H ) :   0.9357
B( 22-C , 24-H ) :   0.9267 B( 22-C , 25-C ) :   1.0549 B( 25-C , 26-H ) :   0.9538
B( 25-C , 27-H ) :   0.9578 B( 25-C , 28-C ) :   1.0916 B( 28-C , 29-H ) :   0.9764
B( 28-C , 30-H ) :   0.9708 B( 28-C , 31-H ) :   0.9720

Dispersion correction           -0.013823025
FINAL SINGLE POINT ENERGY     -1339.867590744004

DIPOLE MOMENT
-------------
                                X             Y             Z
Electronic contribution:      0.02573      14.49707      20.40158
Nuclear contribution   :     -0.22278     -15.18419     -20.72512
                        -----------------------------------------
Total Dipole Moment    :     -0.19705      -0.68712      -0.32354
                        -----------------------------------------
Magnitude (a.u.)       :      0.78463
Magnitude (Debye)      :      1.99436

Rotational constants in cm-1:     0.017684     0.007974     0.006903
Rotational constants in MHz :   530.151923   239.047333   206.946647

                             ****ORCA TERMINATED NORMALLY****
TOTAL RUN TIME: 0 days 0 hours 0 minutes 21 seconds 343 msec
