                         Program Version 4.2.1 -  RELEASE  -
|  1> ! wB97X-D3 SP def2-SVP
|  2> %pal
|  3> nprocs 24
|  4> end
|  5>
|  6> * xyz 0 1
|  7> S 	 -127.69 	 59.1411 	 -53.6348
|  8> C 	 -128.063 	 57.8437 	 -54.8059
|  9> C 	 -129.174 	 58.1827 	 -55.5379
| 10> C 	 -129.688 	 59.5147 	 -55.2005
| 11> C 	 -128.993 	 60.2024 	 -54.2048
| 12> H 	 -130.49 	 60.0969 	 -55.5604
| 13> C 	 -129.607 	 57.3251 	 -56.6358
| 14> H 	 -129.367 	 56.2861 	 -56.4008
| 15> H 	 -129.099 	 57.7596 	 -57.4711
| 16> C 	 -131.085 	 57.5802 	 -57.0523
| 17> H 	 -131.723 	 57.2374 	 -56.2167
| 18> H 	 -131.31 	 58.6391 	 -57.2646
| 19> C 	 -131.547 	 56.7428 	 -58.2551
| 20> H 	 -131.106 	 55.7471 	 -58.2695
| 21> H 	 -132.587 	 56.6016 	 -58.4223
| 22> H 	 -131.056 	 57.0399 	 -59.1097
| 23> S 	 -129.185 	 62.868 	 -54.8725
| 24> C 	 -129.225 	 64.0441 	 -53.5759
| 25> C 	 -129.21 	 63.4709 	 -52.3139
| 26> C 	 -129.083 	 62.0531 	 -52.4071
| 27> C 	 -129.182 	 61.5663 	 -53.6891
| 28> H 	 -129.299 	 64.1514 	 -51.4582
| 29> C 	 -128.996 	 61.1465 	 -51.1651
| 30> H 	 -128.814 	 60.1369 	 -51.4346
| 31> H 	 -129.983 	 61.0582 	 -50.6685
| 32> C 	 -127.932 	 61.5174 	 -50.0554
| 33> H 	 -128.359 	 62.3933 	 -49.5756
| 34> H 	 -126.986 	 61.6543 	 -50.5553
| 35> C 	 -127.666 	 60.3909 	 -48.9557
| 36> H 	 -127.233 	 60.7496 	 -48.032
| 37> H 	 -126.927 	 59.648 	 -49.2747
| 38> H 	 -128.582 	 59.8386 	 -48.7501
| 39> H 	 -127.581 	 56.8608 	 -54.6958
| 40> H 	 -129.042 	 65.0917 	 -53.7019
| 41> *
| 42>
| 43>                          ****END OF INPUT****

CARTESIAN COORDINATES (ANGSTROEM)
---------------------------------
  S    -127.690000   59.141100  -53.634800
  C    -128.063000   57.843700  -54.805900
  C    -129.174000   58.182700  -55.537900
  C    -129.688000   59.514700  -55.200500
  C    -128.993000   60.202400  -54.204800
  H    -130.490000   60.096900  -55.560400
  C    -129.607000   57.325100  -56.635800
  H    -129.367000   56.286100  -56.400800
  H    -129.099000   57.759600  -57.471100
  C    -131.085000   57.580200  -57.052300
  H    -131.723000   57.237400  -56.216700
  H    -131.310000   58.639100  -57.264600
  C    -131.547000   56.742800  -58.255100
  H    -131.106000   55.747100  -58.269500
  H    -132.587000   56.601600  -58.422300
  H    -131.056000   57.039900  -59.109700
  S    -129.185000   62.868000  -54.872500
  C    -129.225000   64.044100  -53.575900
  C    -129.210000   63.470900  -52.313900
  C    -129.083000   62.053100  -52.407100
  C    -129.182000   61.566300  -53.689100
  H    -129.299000   64.151400  -51.458200
  C    -128.996000   61.146500  -51.165100
  H    -128.814000   60.136900  -51.434600
  H    -129.983000   61.058200  -50.668500
  C    -127.932000   61.517400  -50.055400
  H    -128.359000   62.393300  -49.575600
  H    -126.986000   61.654300  -50.555300
  C    -127.666000   60.390900  -48.955700
  H    -127.233000   60.749600  -48.032000
  H    -126.927000   59.648000  -49.274700
  H    -128.582000   59.838600  -48.750100
  H    -127.581000   56.860800  -54.695800
  H    -129.042000   65.091700  -53.701900

 Total Charge           Charge          ....    0
 Multiplicity           Mult            ....    1
 Number of Electrons    NEL             ....  134
 Basis Dimension        Dim             ....  322

ORBITAL ENERGIES
----------------

  NO   OCC          E(Eh)            E(eV)
   0   2.0000     -88.970048     -2420.9981
   1   2.0000     -88.958568     -2420.6857
   2   2.0000     -10.334081      -281.2047
   3   2.0000     -10.329694      -281.0853
   4   2.0000     -10.319074      -280.7963
   5   2.0000     -10.314894      -280.6825
   6   2.0000     -10.309035      -280.5231
   7   2.0000     -10.304719      -280.4057
   8   2.0000     -10.299717      -280.2695
   9   2.0000     -10.295535      -280.1557
  10   2.0000     -10.290568      -280.0206
  11   2.0000     -10.290293      -280.0131
  12   2.0000     -10.290023      -280.0058
  13   2.0000     -10.288986      -279.9775
  14   2.0000     -10.279102      -279.7086
  15   2.0000     -10.266699      -279.3711
  16   2.0000      -8.084552      -219.9918
  17   2.0000      -8.072318      -219.6590
  18   2.0000      -6.043048      -164.4397
  19   2.0000      -6.039104      -164.3324
  20   2.0000      -6.035336      -164.2298
  21   2.0000      -6.030994      -164.1117
  22   2.0000      -6.026863      -163.9993
  23   2.0000      -6.023047      -163.8954
  24   2.0000      -1.004644       -27.3378
  25   2.0000      -0.980455       -26.6795
  26   2.0000      -0.915469       -24.9112
  27   2.0000      -0.896316       -24.3900
  28   2.0000      -0.871460       -23.7136
  29   2.0000      -0.847885       -23.0721
  30   2.0000      -0.841630       -22.9019
  31   2.0000      -0.819075       -22.2882
  32   2.0000      -0.781578       -21.2678
  33   2.0000      -0.771807       -21.0019
  34   2.0000      -0.714302       -19.4371
  35   2.0000      -0.700040       -19.0491
  36   2.0000      -0.688427       -18.7330
  37   2.0000      -0.663868       -18.0648
  38   2.0000      -0.639125       -17.3915
  39   2.0000      -0.614015       -16.7082
  40   2.0000      -0.595602       -16.2072
  41   2.0000      -0.578937       -15.7537
  42   2.0000      -0.564384       -15.3577
  43   2.0000      -0.562732       -15.3127
  44   2.0000      -0.528900       -14.3921
  45   2.0000      -0.524379       -14.2691
  46   2.0000      -0.517421       -14.0797
  47   2.0000      -0.514565       -14.0020
  48   2.0000      -0.502921       -13.6852
  49   2.0000      -0.499684       -13.5971
  50   2.0000      -0.485012       -13.1979
  51   2.0000      -0.477566       -12.9952
  52   2.0000      -0.471597       -12.8328
  53   2.0000      -0.465660       -12.6712
  54   2.0000      -0.460225       -12.5234
  55   2.0000      -0.453776       -12.3479
  56   2.0000      -0.446024       -12.1369
  57   2.0000      -0.432139       -11.7591
  58   2.0000      -0.428074       -11.6485
  59   2.0000      -0.423657       -11.5283
  60   2.0000      -0.417671       -11.3654
  61   2.0000      -0.415767       -11.3136
  62   2.0000      -0.405581       -11.0364
  63   2.0000      -0.348443        -9.4816
  64   2.0000      -0.334986        -9.1154
  65   2.0000      -0.322114        -8.7652
  66   2.0000      -0.293617        -7.9897
  67   0.0000       0.027813         0.7568
  68   0.0000       0.068509         1.8642
  69   0.0000       0.108497         2.9523
  70   0.0000       0.111750         3.0409
  71   0.0000       0.133697         3.6381

MULLIKEN ATOMIC CHARGES
-----------------------
   0 S :    0.078900
   1 C :   -0.151644
   2 C :   -0.062120
   3 C :    0.027803
   4 C :   -0.147857
   5 H :   -0.010248
   6 C :    0.088281
   7 H :    0.036083
   8 H :    0.042348
   9 C :   -0.134233
  10 H :    0.034842
  11 H :    0.048745
  12 C :    0.014473
  13 H :    0.002689
  14 H :    0.036587
  15 H :   -0.004346
  16 S :    0.113543
  17 C :   -0.095483
  18 C :   -0.038896
  19 C :   -0.024569
  20 C :   -0.133796
  21 H :    0.035034
  22 C :    0.049266
  23 H :    0.002724
  24 H :    0.038614
  25 C :   -0.082452
  26 H :    0.036984
  27 H :    0.039658
  28 C :   -0.061603
  29 H :    0.033525
  30 H :    0.034251
  31 H :    0.029894
  32 H :    0.066960
  33 H :    0.056042
Sum of atomic charges:    0.0000000

LOEWDIN ATOMIC CHARGES
----------------------
   0 S :    0.377737
   1 C :   -0.193574
   2 C :   -0.058867
   3 C :   -0.072014
   4 C :   -0.174249
   5 H :    0.021644
   6 C :   -0.028799
   7 H :    0.035907
   8 H :    0.040097
   9 C :   -0.040561
  10 H :    0.025221
  11 H :    0.027878
  12 C :   -0.067472
  13 H :    0.027135
  14 H :    0.024848
  15 H :    0.013782
  16 S :    0.408938
  17 C :   -0.178044
  18 C :   -0.068454
  19 C :   -0.050405
  20 C :   -0.199471
  21 H :    0.039685
  22 C :   -0.037126
  23 H :    0.008183
  24 H :    0.035659
  25 C :   -0.032616
  26 H :    0.020757
  27 H :    0.024847
  28 C :   -0.069333
  29 H :    0.025549
  30 H :    0.027901
  31 H :    0.023356
  32 H :    0.034932
  33 H :    0.026927

  Mayer bond orders larger than 0.100000
B(  0-S ,  1-C ) :   1.1207 B(  0-S ,  4-C ) :   1.1337 B(  1-C ,  2-C ) :   1.6223
B(  1-C , 32-H ) :   0.9694 B(  2-C ,  3-C ) :   1.1767 B(  2-C ,  6-C ) :   1.0402
B(  3-C ,  4-C ) :   1.6016 B(  3-C ,  5-H ) :   1.0023 B(  4-C , 20-C ) :   1.0385
B(  6-C ,  7-H ) :   0.9411 B(  6-C ,  8-H ) :   0.9263 B(  6-C ,  9-C ) :   1.0692
B(  9-C , 10-H ) :   0.9622 B(  9-C , 11-H ) :   0.9499 B(  9-C , 12-C ) :   1.0837
B( 12-C , 13-H ) :   0.9634 B( 12-C , 14-H ) :   0.9758 B( 12-C , 15-H ) :   0.9658
B( 16-S , 17-C ) :   1.1623 B( 16-S , 20-C ) :   1.1302 B( 17-C , 18-C ) :   1.6214
B( 17-C , 33-H ) :   0.9646 B( 18-C , 19-C ) :   1.2201 B( 18-C , 21-H ) :   0.9904
B( 19-C , 20-C ) :   1.6052 B( 19-C , 22-C ) :   1.0434 B( 22-C , 23-H ) :   0.9325
B( 22-C , 24-H ) :   0.9341 B( 22-C , 25-C ) :   1.0492 B( 25-C , 26-H ) :   0.9607
B( 25-C , 27-H ) :   0.9649 B( 25-C , 28-C ) :   1.0740 B( 28-C , 29-H ) :   0.9776
B( 28-C , 30-H ) :   0.9772 B( 28-C , 31-H ) :   0.9778

Dispersion correction           -0.013555401
FINAL SINGLE POINT ENERGY     -1339.862310696841

DIPOLE MOMENT
-------------
                                X             Y             Z
Electronic contribution:      6.10890      13.39612      -3.80250
Nuclear contribution   :     -6.23740     -13.50513       3.84833
                        -----------------------------------------
Total Dipole Moment    :     -0.12850      -0.10901       0.04583
                        -----------------------------------------
Magnitude (a.u.)       :      0.17463
Magnitude (Debye)      :      0.44387

Rotational constants in cm-1:     0.020709     0.007517     0.005988
Rotational constants in MHz :   620.826939   225.364253   179.517232

                             ****ORCA TERMINATED NORMALLY****
TOTAL RUN TIME: 0 days 0 hours 0 minutes 20 seconds 566 msec
