                         Program Version 4.2.1 -  RELEASE  -
|  1> ! wB97X-D3 SP def2-SVP
|  2> %pal
|  3> nprocs 24
|  4> end
|  5>
|  6> * xyz 0 1
|  7> S 	 41.4727 	 -12.3261 	 -125.245
|  8> C 	 41.8183 	 -12.5751 	 -123.506
|  9> C 	 41.7457 	 -13.8974 	 -123.166
| 10> C 	 41.3476 	 -14.6904 	 -124.254
| 11> C 	 41.3033 	 -14.0791 	 -125.481
| 12> H 	 41.1536 	 -15.7291 	 -124.217
| 13> C 	 41.9608 	 -14.4057 	 -121.721
| 14> H 	 41.7618 	 -15.5078 	 -121.838
| 15> H 	 41.1963 	 -13.9353 	 -121.12
| 16> C 	 43.3519 	 -14.0566 	 -121.122
| 17> H 	 43.3716 	 -12.9517 	 -120.971
| 18> H 	 43.3258 	 -14.4545 	 -120.084
| 19> C 	 44.5201 	 -14.6528 	 -121.879
| 20> H 	 44.7351 	 -15.7928 	 -121.627
| 21> H 	 44.3359 	 -14.7147 	 -122.974
| 22> H 	 45.4515 	 -14.081 	 -121.754
| 23> S 	 39.4387 	 -14.2628 	 -127.512
| 24> C 	 39.8409 	 -15.2048 	 -128.935
| 25> C 	 41.0476 	 -15.8605 	 -128.819
| 26> C 	 41.6362 	 -15.6474 	 -127.522
| 27> C 	 40.9719 	 -14.6579 	 -126.76
| 28> H 	 41.3429 	 -16.5451 	 -129.626
| 29> C 	 42.9891 	 -16.3387 	 -127.091
| 30> H 	 42.7085 	 -17.2889 	 -126.722
| 31> H 	 43.4264 	 -15.8181 	 -126.253
| 32> C 	 44.0428 	 -16.6856 	 -128.23
| 33> H 	 44.426 	 -15.7186 	 -128.729
| 34> H 	 43.697 	 -17.3517 	 -128.953
| 35> C 	 45.2698 	 -17.3304 	 -127.533
| 36> H 	 45.0528 	 -18.3136 	 -127.167
| 37> H 	 45.5999 	 -16.8315 	 -126.553
| 38> H 	 46.114 	 -17.35 	 -128.276
| 39> H 	 42.1529 	 -11.8155 	 -122.84
| 40> H 	 39.2035 	 -15.4226 	 -129.739
| 41> *
| 42>
| 43>                          ****END OF INPUT****

CARTESIAN COORDINATES (ANGSTROEM)
---------------------------------
  S     41.472700  -12.326100  -125.245000
  C     41.818300  -12.575100  -123.506000
  C     41.745700  -13.897400  -123.166000
  C     41.347600  -14.690400  -124.254000
  C     41.303300  -14.079100  -125.481000
  H     41.153600  -15.729100  -124.217000
  C     41.960800  -14.405700  -121.721000
  H     41.761800  -15.507800  -121.838000
  H     41.196300  -13.935300  -121.120000
  C     43.351900  -14.056600  -121.122000
  H     43.371600  -12.951700  -120.971000
  H     43.325800  -14.454500  -120.084000
  C     44.520100  -14.652800  -121.879000
  H     44.735100  -15.792800  -121.627000
  H     44.335900  -14.714700  -122.974000
  H     45.451500  -14.081000  -121.754000
  S     39.438700  -14.262800  -127.512000
  C     39.840900  -15.204800  -128.935000
  C     41.047600  -15.860500  -128.819000
  C     41.636200  -15.647400  -127.522000
  C     40.971900  -14.657900  -126.760000
  H     41.342900  -16.545100  -129.626000
  C     42.989100  -16.338700  -127.091000
  H     42.708500  -17.288900  -126.722000
  H     43.426400  -15.818100  -126.253000
  C     44.042800  -16.685600  -128.230000
  H     44.426000  -15.718600  -128.729000
  H     43.697000  -17.351700  -128.953000
  C     45.269800  -17.330400  -127.533000
  H     45.052800  -18.313600  -127.167000
  H     45.599900  -16.831500  -126.553000
  H     46.114000  -17.350000  -128.276000
  H     42.152900  -11.815500  -122.840000
  H     39.203500  -15.422600  -129.739000

 Total Charge           Charge          ....    0
 Multiplicity           Mult            ....    1
 Number of Electrons    NEL             ....  134
 Basis Dimension        Dim             ....  322

ORBITAL ENERGIES
----------------

  NO   OCC          E(Eh)            E(eV)
   0   2.0000     -88.965939     -2420.8863
   1   2.0000     -88.964051     -2420.8349
   2   2.0000     -10.328256      -281.0461
   3   2.0000     -10.326715      -281.0042
   4   2.0000     -10.313707      -280.6502
   5   2.0000     -10.312042      -280.6049
   6   2.0000     -10.312037      -280.6048
   7   2.0000     -10.299324      -280.2588
   8   2.0000     -10.297283      -280.2033
   9   2.0000     -10.296799      -280.1901
  10   2.0000     -10.296398      -280.1792
  11   2.0000     -10.294782      -280.1353
  12   2.0000     -10.293767      -280.1076
  13   2.0000     -10.289748      -279.9983
  14   2.0000     -10.288771      -279.9717
  15   2.0000     -10.285889      -279.8933
  16   2.0000      -8.080445      -219.8801
  17   2.0000      -8.077858      -219.8097
  18   2.0000      -6.038982      -164.3291
  19   2.0000      -6.036434      -164.2597
  20   2.0000      -6.034954      -164.2194
  21   2.0000      -6.032540      -164.1538
  22   2.0000      -6.031223      -164.1179
  23   2.0000      -6.028542      -164.0450
  24   2.0000      -1.002792       -27.2874
  25   2.0000      -0.980606       -26.6836
  26   2.0000      -0.908802       -24.7298
  27   2.0000      -0.898720       -24.4554
  28   2.0000      -0.868792       -23.6410
  29   2.0000      -0.845964       -23.0199
  30   2.0000      -0.841833       -22.9074
  31   2.0000      -0.814389       -22.1606
  32   2.0000      -0.780257       -21.2319
  33   2.0000      -0.766942       -20.8696
  34   2.0000      -0.706960       -19.2374
  35   2.0000      -0.702681       -19.1209
  36   2.0000      -0.698935       -19.0190
  37   2.0000      -0.652043       -17.7430
  38   2.0000      -0.640864       -17.4388
  39   2.0000      -0.613791       -16.7021
  40   2.0000      -0.590790       -16.0762
  41   2.0000      -0.568959       -15.4822
  42   2.0000      -0.564156       -15.3515
  43   2.0000      -0.555784       -15.1237
  44   2.0000      -0.539693       -14.6858
  45   2.0000      -0.521235       -14.1835
  46   2.0000      -0.515708       -14.0331
  47   2.0000      -0.511080       -13.9072
  48   2.0000      -0.500823       -13.6281
  49   2.0000      -0.495440       -13.4816
  50   2.0000      -0.487025       -13.2526
  51   2.0000      -0.472563       -12.8591
  52   2.0000      -0.468768       -12.7558
  53   2.0000      -0.464434       -12.6379
  54   2.0000      -0.455269       -12.3885
  55   2.0000      -0.447052       -12.1649
  56   2.0000      -0.445606       -12.1255
  57   2.0000      -0.438231       -11.9249
  58   2.0000      -0.432737       -11.7754
  59   2.0000      -0.428647       -11.6641
  60   2.0000      -0.423130       -11.5140
  61   2.0000      -0.413272       -11.2457
  62   2.0000      -0.407727       -11.0948
  63   2.0000      -0.341601        -9.2954
  64   2.0000      -0.331417        -9.0183
  65   2.0000      -0.327269        -8.9054
  66   2.0000      -0.296280        -8.0622
  67   0.0000       0.032999         0.8980
  68   0.0000       0.059827         1.6280
  69   0.0000       0.115811         3.1514
  70   0.0000       0.120496         3.2789
  71   0.0000       0.134592         3.6624

MULLIKEN ATOMIC CHARGES
-----------------------
   0 S :    0.101963
   1 C :   -0.117268
   2 C :   -0.095386
   3 C :    0.052013
   4 C :   -0.178581
   5 H :   -0.006033
   6 C :    0.062042
   7 H :    0.029100
   8 H :    0.042929
   9 C :   -0.072288
  10 H :    0.035298
  11 H :    0.039227
  12 C :   -0.092215
  13 H :    0.044541
  14 H :    0.046998
  15 H :    0.045385
  16 S :    0.117225
  17 C :   -0.069760
  18 C :   -0.053834
  19 C :   -0.010432
  20 C :   -0.171603
  21 H :    0.030945
  22 C :    0.067130
  23 H :    0.016953
  24 H :    0.031486
  25 C :   -0.078484
  26 H :    0.052350
  27 H :    0.029161
  28 C :   -0.079686
  29 H :    0.021093
  30 H :    0.036999
  31 H :    0.047601
  32 H :    0.037214
  33 H :    0.037916
Sum of atomic charges:    0.0000000

LOEWDIN ATOMIC CHARGES
----------------------
   0 S :    0.379436
   1 C :   -0.175374
   2 C :   -0.072144
   3 C :   -0.059229
   4 C :   -0.187692
   5 H :    0.024809
   6 C :   -0.026923
   7 H :    0.032850
   8 H :    0.033367
   9 C :   -0.049268
  10 H :    0.027079
  11 H :    0.031284
  12 C :   -0.082435
  13 H :    0.038749
  14 H :    0.028993
  15 H :    0.029423
  16 S :    0.408034
  17 C :   -0.175585
  18 C :   -0.077065
  19 C :   -0.043406
  20 C :   -0.212780
  21 H :    0.037828
  22 C :   -0.025398
  23 H :    0.025536
  24 H :    0.028307
  25 C :   -0.036386
  26 H :    0.034768
  27 H :    0.014187
  28 C :   -0.072893
  29 H :    0.016685
  30 H :    0.032329
  31 H :    0.031627
  32 H :    0.020986
  33 H :    0.020302

  Mayer bond orders larger than 0.100000
B(  0-S ,  1-C ) :   1.1352 B(  0-S ,  4-C ) :   1.1365 B(  1-C ,  2-C ) :   1.6148
B(  1-C ,  4-C ) :   0.1024 B(  1-C , 32-H ) :   0.9719 B(  2-C ,  3-C ) :   1.2422
B(  2-C ,  6-C ) :   0.9908 B(  3-C ,  4-C ) :   1.5872 B(  3-C ,  5-H ) :   0.9976
B(  4-C , 20-C ) :   1.0476 B(  6-C ,  7-H ) :   0.9470 B(  6-C ,  8-H ) :   0.9409
B(  6-C ,  9-C ) :   1.0773 B(  9-C , 10-H ) :   0.9560 B(  9-C , 11-H ) :   0.9545
B(  9-C , 12-C ) :   1.0600 B( 12-C , 13-H ) :   0.9723 B( 12-C , 14-H ) :   0.9777
B( 12-C , 15-H ) :   0.9745 B( 16-S , 17-C ) :   1.1569 B( 16-S , 20-C ) :   1.1412
B( 17-C , 18-C ) :   1.6203 B( 17-C , 20-C ) :   0.1001 B( 17-C , 33-H ) :   0.9675
B( 18-C , 19-C ) :   1.2414 B( 18-C , 21-H ) :   0.9850 B( 19-C , 20-C ) :   1.5876
B( 19-C , 22-C ) :   1.0224 B( 22-C , 23-H ) :   0.9298 B( 22-C , 24-H ) :   0.9455
B( 22-C , 25-C ) :   1.0670 B( 25-C , 26-H ) :   0.9624 B( 25-C , 27-H ) :   0.9491
B( 25-C , 28-C ) :   1.0744 B( 28-C , 29-H ) :   0.9747 B( 28-C , 30-H ) :   0.9757
B( 28-C , 31-H ) :   0.9745

Dispersion correction           -0.014042160
FINAL SINGLE POINT ENERGY     -1339.871433000938

DIPOLE MOMENT
-------------
                                X             Y             Z
Electronic contribution:    -23.37383      15.15637     -11.09233
Nuclear contribution   :     23.70788     -15.75749      11.36335
                        -----------------------------------------
Total Dipole Moment    :      0.33405      -0.60112       0.27102
                        -----------------------------------------
Magnitude (a.u.)       :      0.73918
Magnitude (Debye)      :      1.87884

Rotational constants in cm-1:     0.016921     0.009049     0.006500
Rotational constants in MHz :   507.279262   271.282436   194.871620

                             ****ORCA TERMINATED NORMALLY****
TOTAL RUN TIME: 0 days 0 hours 0 minutes 22 seconds 442 msec
