                         Program Version 4.2.1 -  RELEASE  -
|  1> ! wB97X-D3 SP def2-SVP
|  2> %pal
|  3> nprocs 24
|  4> end
|  5>
|  6> * xyz 0 1
|  7> S 	 -31.8543 	 -7.06156 	 1.30675
|  8> C 	 -31.8963 	 -6.59213 	 3.07256
|  9> C 	 -33.1218 	 -6.1905 	 3.41129
| 10> C 	 -34.0448 	 -6.21259 	 2.33324
| 11> C 	 -33.5025 	 -6.53938 	 1.12911
| 12> H 	 -35.0909 	 -5.99012 	 2.4874
| 13> C 	 -33.5516 	 -5.7463 	 4.86651
| 14> H 	 -32.5958 	 -5.4293 	 5.27982
| 15> H 	 -33.7552 	 -6.6147 	 5.48906
| 16> C 	 -34.689 	 -4.67261 	 5.14225
| 17> H 	 -35.6193 	 -5.1488 	 4.76283
| 18> H 	 -34.8891 	 -4.55105 	 6.16623
| 19> C 	 -34.3723 	 -3.25078 	 4.60781
| 20> H 	 -34.3082 	 -3.28303 	 3.55297
| 21> H 	 -35.212 	 -2.64317 	 4.9983
| 22> H 	 -33.4859 	 -2.81882 	 4.9952
| 23> S 	 -33.783 	 -7.95647 	 -1.19419
| 24> C 	 -35.1044 	 -7.63723 	 -2.24743
| 25> C 	 -35.7801 	 -6.46529 	 -1.80841
| 26> C 	 -35.3723 	 -5.98919 	 -0.562617
| 27> C 	 -34.2206 	 -6.66775 	 -0.139382
| 28> H 	 -36.5831 	 -6.21695 	 -2.41063
| 29> C 	 -36.0743 	 -4.88355 	 0.248817
| 30> H 	 -35.2992 	 -4.29116 	 0.654294
| 31> H 	 -36.6379 	 -5.47834 	 0.964507
| 32> C 	 -37.0215 	 -3.94767 	 -0.598
| 33> H 	 -37.8752 	 -4.38627 	 -1.05656
| 34> H 	 -36.6278 	 -3.48773 	 -1.48815
| 35> C 	 -37.4588 	 -2.73838 	 0.279401
| 36> H 	 -38.3113 	 -2.15874 	 -0.115608
| 37> H 	 -36.5834 	 -2.03502 	 0.248805
| 38> H 	 -37.5913 	 -2.87173 	 1.37601
| 39> H 	 -31.1002 	 -6.81811 	 3.79495
| 40> H 	 -35.4526 	 -8.05535 	 -3.1838
| 41> *
| 42>
| 43>                          ****END OF INPUT****

CARTESIAN COORDINATES (ANGSTROEM)
---------------------------------
  S    -31.854300   -7.061560    1.306750
  C    -31.896300   -6.592130    3.072560
  C    -33.121800   -6.190500    3.411290
  C    -34.044800   -6.212590    2.333240
  C    -33.502500   -6.539380    1.129110
  H    -35.090900   -5.990120    2.487400
  C    -33.551600   -5.746300    4.866510
  H    -32.595800   -5.429300    5.279820
  H    -33.755200   -6.614700    5.489060
  C    -34.689000   -4.672610    5.142250
  H    -35.619300   -5.148800    4.762830
  H    -34.889100   -4.551050    6.166230
  C    -34.372300   -3.250780    4.607810
  H    -34.308200   -3.283030    3.552970
  H    -35.212000   -2.643170    4.998300
  H    -33.485900   -2.818820    4.995200
  S    -33.783000   -7.956470   -1.194190
  C    -35.104400   -7.637230   -2.247430
  C    -35.780100   -6.465290   -1.808410
  C    -35.372300   -5.989190   -0.562617
  C    -34.220600   -6.667750   -0.139382
  H    -36.583100   -6.216950   -2.410630
  C    -36.074300   -4.883550    0.248817
  H    -35.299200   -4.291160    0.654294
  H    -36.637900   -5.478340    0.964507
  C    -37.021500   -3.947670   -0.598000
  H    -37.875200   -4.386270   -1.056560
  H    -36.627800   -3.487730   -1.488150
  C    -37.458800   -2.738380    0.279401
  H    -38.311300   -2.158740   -0.115608
  H    -36.583400   -2.035020    0.248805
  H    -37.591300   -2.871730    1.376010
  H    -31.100200   -6.818110    3.794950
  H    -35.452600   -8.055350   -3.183800

 Total Charge           Charge          ....    0
 Multiplicity           Mult            ....    1
 Number of Electrons    NEL             ....  134
 Basis Dimension        Dim             ....  322

ORBITAL ENERGIES
----------------

  NO   OCC          E(Eh)            E(eV)
   0   2.0000     -88.971753     -2421.0445
   1   2.0000     -88.963750     -2420.8267
   2   2.0000     -10.328633      -281.0564
   3   2.0000     -10.323612      -280.9198
   4   2.0000     -10.315650      -280.7031
   5   2.0000     -10.313704      -280.6501
   6   2.0000     -10.303342      -280.3682
   7   2.0000     -10.300444      -280.2893
   8   2.0000     -10.300151      -280.2814
   9   2.0000     -10.297811      -280.2177
  10   2.0000     -10.293901      -280.1113
  11   2.0000     -10.290255      -280.0121
  12   2.0000     -10.286890      -279.9205
  13   2.0000     -10.286408      -279.9074
  14   2.0000     -10.285385      -279.8796
  15   2.0000     -10.275869      -279.6206
  16   2.0000      -8.086721      -220.0509
  17   2.0000      -8.077854      -219.8096
  18   2.0000      -6.045065      -164.4946
  19   2.0000      -6.041075      -164.3860
  20   2.0000      -6.037766      -164.2960
  21   2.0000      -6.036571      -164.2635
  22   2.0000      -6.032696      -164.1580
  23   2.0000      -6.028191      -164.0354
  24   2.0000      -1.011005       -27.5108
  25   2.0000      -0.985612       -26.8199
  26   2.0000      -0.907395       -24.6915
  27   2.0000      -0.901786       -24.5388
  28   2.0000      -0.870954       -23.6999
  29   2.0000      -0.855164       -23.2702
  30   2.0000      -0.839550       -22.8453
  31   2.0000      -0.815037       -22.1783
  32   2.0000      -0.785583       -21.3768
  33   2.0000      -0.774051       -21.0630
  34   2.0000      -0.714673       -19.4472
  35   2.0000      -0.708952       -19.2916
  36   2.0000      -0.697443       -18.9784
  37   2.0000      -0.656583       -17.8665
  38   2.0000      -0.633741       -17.2450
  39   2.0000      -0.626403       -17.0453
  40   2.0000      -0.590964       -16.0809
  41   2.0000      -0.570699       -15.5295
  42   2.0000      -0.562775       -15.3139
  43   2.0000      -0.550331       -14.9753
  44   2.0000      -0.538861       -14.6632
  45   2.0000      -0.529654       -14.4126
  46   2.0000      -0.515474       -14.0268
  47   2.0000      -0.511730       -13.9249
  48   2.0000      -0.505260       -13.7488
  49   2.0000      -0.496093       -13.4994
  50   2.0000      -0.487539       -13.2666
  51   2.0000      -0.487156       -13.2562
  52   2.0000      -0.472837       -12.8665
  53   2.0000      -0.467878       -12.7316
  54   2.0000      -0.462741       -12.5918
  55   2.0000      -0.453425       -12.3383
  56   2.0000      -0.445725       -12.1288
  57   2.0000      -0.439486       -11.9590
  58   2.0000      -0.434083       -11.8120
  59   2.0000      -0.423383       -11.5208
  60   2.0000      -0.416766       -11.3408
  61   2.0000      -0.416259       -11.3270
  62   2.0000      -0.410553       -11.1717
  63   2.0000      -0.354007        -9.6330
  64   2.0000      -0.336561        -9.1583
  65   2.0000      -0.331043        -9.0081
  66   2.0000      -0.284209        -7.7337
  67   0.0000       0.024551         0.6681
  68   0.0000       0.080964         2.2031
  69   0.0000       0.099521         2.7081
  70   0.0000       0.125907         3.4261
  71   0.0000       0.133266         3.6263

MULLIKEN ATOMIC CHARGES
-----------------------
   0 S :    0.079789
   1 C :   -0.152520
   2 C :   -0.050438
   3 C :   -0.019474
   4 C :   -0.103119
   5 H :   -0.003243
   6 C :    0.053422
   7 H :    0.009197
   8 H :    0.039334
   9 C :   -0.072609
  10 H :    0.031523
  11 H :    0.019120
  12 C :   -0.027589
  13 H :    0.034612
  14 H :    0.037362
  15 H :    0.027860
  16 S :    0.133662
  17 C :   -0.089236
  18 C :   -0.049312
  19 C :   -0.061578
  20 C :   -0.134906
  21 H :   -0.013162
  22 C :    0.086756
  23 H :    0.041186
  24 H :    0.063613
  25 C :   -0.045158
  26 H :    0.018570
  27 H :    0.024031
  28 C :   -0.092378
  29 H :    0.039577
  30 H :    0.031297
  31 H :    0.037960
  32 H :    0.054172
  33 H :    0.051682
Sum of atomic charges:    0.0000000

LOEWDIN ATOMIC CHARGES
----------------------
   0 S :    0.365843
   1 C :   -0.178490
   2 C :   -0.061418
   3 C :   -0.077054
   4 C :   -0.181582
   5 H :    0.027297
   6 C :   -0.033426
   7 H :    0.025542
   8 H :    0.032786
   9 C :   -0.037636
  10 H :    0.025741
  11 H :    0.020474
  12 C :   -0.056031
  13 H :    0.019594
  14 H :    0.032663
  15 H :    0.022182
  16 S :    0.444928
  17 C :   -0.206365
  18 C :   -0.067438
  19 C :   -0.053979
  20 C :   -0.212205
  21 H :    0.017092
  22 C :   -0.015804
  23 H :    0.030953
  24 H :    0.039904
  25 C :   -0.040821
  26 H :    0.017296
  27 H :    0.026922
  28 C :   -0.077127
  29 H :    0.027405
  30 H :    0.028425
  31 H :    0.026075
  32 H :    0.034546
  33 H :    0.033711

  Mayer bond orders larger than 0.100000
B(  0-S ,  1-C ) :   1.0933 B(  0-S ,  4-C ) :   1.1381 B(  1-C ,  2-C ) :   1.6811
B(  1-C , 32-H ) :   0.9623 B(  2-C ,  3-C ) :   1.2243 B(  2-C ,  6-C ) :   0.9854
B(  3-C ,  4-C ) :   1.5800 B(  3-C ,  5-H ) :   0.9915 B(  4-C , 20-C ) :   1.0563
B(  6-C ,  7-H ) :   0.9438 B(  6-C ,  8-H ) :   0.9418 B(  6-C ,  9-C ) :   1.0706
B(  9-C , 10-H ) :   0.9531 B(  9-C , 11-H ) :   0.9543 B(  9-C , 12-C ) :   1.0703
B( 12-C , 13-H ) :   0.9799 B( 12-C , 14-H ) :   0.9755 B( 12-C , 15-H ) :   0.9750
B( 16-S , 17-C ) :   1.1778 B( 16-S , 20-C ) :   1.1636 B( 17-C , 18-C ) :   1.5665
B( 17-C , 20-C ) :   0.1121 B( 17-C , 33-H ) :   0.9639 B( 18-C , 19-C ) :   1.2953
B( 18-C , 21-H ) :   1.0003 B( 19-C , 20-C ) :   1.5462 B( 19-C , 22-C ) :   1.0122
B( 22-C , 23-H ) :   0.9413 B( 22-C , 24-H ) :   0.9200 B( 22-C , 25-C ) :   1.0651
B( 25-C , 26-H ) :   0.9531 B( 25-C , 27-H ) :   0.9591 B( 25-C , 28-C ) :   1.0680
B( 28-C , 29-H ) :   0.9752 B( 28-C , 30-H ) :   0.9791 B( 28-C , 31-H ) :   0.9775

Dispersion correction           -0.014242244
FINAL SINGLE POINT ENERGY     -1339.857219554574

DIPOLE MOMENT
-------------
                                X             Y             Z
Electronic contribution:     18.05241     -23.40773     -15.24142
Nuclear contribution   :    -18.69419      23.75908      15.60853
                        -----------------------------------------
Total Dipole Moment    :     -0.64178       0.35135       0.36711
                        -----------------------------------------
Magnitude (a.u.)       :      0.81859
Magnitude (Debye)      :      2.08070

Rotational constants in cm-1:     0.015338     0.010735     0.006642
Rotational constants in MHz :   459.818177   321.826635   199.125024

                             ****ORCA TERMINATED NORMALLY****
TOTAL RUN TIME: 0 days 0 hours 0 minutes 20 seconds 664 msec
