                         Program Version 4.2.1 -  RELEASE  -
|  1> ! wB97X-D3 SP def2-SVP
|  2> %pal
|  3> nprocs 24
|  4> end
|  5>
|  6> * xyz 0 1
|  7> S 	 -105.665 	 1.37031 	 -107.554
|  8> C 	 -105.533 	 2.70114 	 -106.498
|  9> C 	 -104.464 	 2.65423 	 -105.619
| 10> C 	 -103.679 	 1.51196 	 -105.822
| 11> C 	 -104.174 	 0.692009 	 -106.819
| 12> H 	 -102.894 	 1.13996 	 -105.168
| 13> C 	 -104.21 	 3.60528 	 -104.466
| 14> H 	 -105.193 	 3.92553 	 -104.127
| 15> H 	 -103.915 	 4.61953 	 -104.745
| 16> C 	 -103.465 	 3.01339 	 -103.271
| 17> H 	 -103.938 	 2.05727 	 -103.047
| 18> H 	 -102.492 	 2.65432 	 -103.587
| 19> C 	 -103.3 	 3.96875 	 -102.038
| 20> H 	 -102.721 	 3.57518 	 -101.234
| 21> H 	 -102.846 	 4.91723 	 -102.286
| 22> H 	 -104.305 	 4.27063 	 -101.664
| 23> S 	 -104.853 	 -1.83808 	 -107.207
| 24> C 	 -103.63 	 -3.02151 	 -107.429
| 25> C 	 -102.376 	 -2.48631 	 -107.402
| 26> C 	 -102.336 	 -1.06213 	 -107.297
| 27> C 	 -103.642 	 -0.590896 	 -107.187
| 28> H 	 -101.515 	 -3.14922 	 -107.301
| 29> C 	 -101.065 	 -0.227947 	 -107.337
| 30> H 	 -101.385 	 0.80183 	 -107.151
| 31> H 	 -100.615 	 -0.328604 	 -108.337
| 32> C 	 -100.079 	 -0.553459 	 -106.235
| 33> H 	 -99.6478 	 -1.56432 	 -106.537
| 34> H 	 -100.686 	 -0.745524 	 -105.357
| 35> C 	 -99.0379 	 0.545658 	 -106.03
| 36> H 	 -99.42 	 1.51509 	 -106.289
| 37> H 	 -98.2298 	 0.405878 	 -106.781
| 38> H 	 -98.6469 	 0.645129 	 -104.998
| 39> H 	 -106.136 	 3.58816 	 -106.46
| 40> H 	 -103.922 	 -4.00684 	 -107.369
| 41> *
| 42>
| 43>                          ****END OF INPUT****

CARTESIAN COORDINATES (ANGSTROEM)
---------------------------------
  S    -105.665000    1.370310  -107.554000
  C    -105.533000    2.701140  -106.498000
  C    -104.464000    2.654230  -105.619000
  C    -103.679000    1.511960  -105.822000
  C    -104.174000    0.692009  -106.819000
  H    -102.894000    1.139960  -105.168000
  C    -104.210000    3.605280  -104.466000
  H    -105.193000    3.925530  -104.127000
  H    -103.915000    4.619530  -104.745000
  C    -103.465000    3.013390  -103.271000
  H    -103.938000    2.057270  -103.047000
  H    -102.492000    2.654320  -103.587000
  C    -103.300000    3.968750  -102.038000
  H    -102.721000    3.575180  -101.234000
  H    -102.846000    4.917230  -102.286000
  H    -104.305000    4.270630  -101.664000
  S    -104.853000   -1.838080  -107.207000
  C    -103.630000   -3.021510  -107.429000
  C    -102.376000   -2.486310  -107.402000
  C    -102.336000   -1.062130  -107.297000
  C    -103.642000   -0.590896  -107.187000
  H    -101.515000   -3.149220  -107.301000
  C    -101.065000   -0.227947  -107.337000
  H    -101.385000    0.801830  -107.151000
  H    -100.615000   -0.328604  -108.337000
  C    -100.079000   -0.553459  -106.235000
  H    -99.647800   -1.564320  -106.537000
  H    -100.686000   -0.745524  -105.357000
  C    -99.037900    0.545658  -106.030000
  H    -99.420000    1.515090  -106.289000
  H    -98.229800    0.405878  -106.781000
  H    -98.646900    0.645129  -104.998000
  H    -106.136000    3.588160  -106.460000
  H    -103.922000   -4.006840  -107.369000

 Total Charge           Charge          ....    0
 Multiplicity           Mult            ....    1
 Number of Electrons    NEL             ....  134
 Basis Dimension        Dim             ....  322

ORBITAL ENERGIES
----------------

  NO   OCC          E(Eh)            E(eV)
   0   2.0000     -88.971167     -2421.0285
   1   2.0000     -88.961244     -2420.7585
   2   2.0000     -10.327029      -281.0127
   3   2.0000     -10.321641      -280.8661
   4   2.0000     -10.306545      -280.4553
   5   2.0000     -10.306104      -280.4434
   6   2.0000     -10.303018      -280.3594
   7   2.0000     -10.296634      -280.1857
   8   2.0000     -10.291901      -280.0569
   9   2.0000     -10.291742      -280.0525
  10   2.0000     -10.291600      -280.0487
  11   2.0000     -10.290591      -280.0212
  12   2.0000     -10.289983      -280.0047
  13   2.0000     -10.289907      -280.0026
  14   2.0000     -10.283733      -279.8346
  15   2.0000     -10.282818      -279.8097
  16   2.0000      -8.085600      -220.0204
  17   2.0000      -8.077476      -219.7993
  18   2.0000      -6.044005      -164.4657
  19   2.0000      -6.040222      -164.3628
  20   2.0000      -6.036421      -164.2594
  21   2.0000      -6.035762      -164.2414
  22   2.0000      -6.031817      -164.1341
  23   2.0000      -6.028346      -164.0396
  24   2.0000      -1.011546       -27.5256
  25   2.0000      -0.988015       -26.8853
  26   2.0000      -0.915204       -24.9040
  27   2.0000      -0.910436       -24.7742
  28   2.0000      -0.872426       -23.7399
  29   2.0000      -0.855188       -23.2709
  30   2.0000      -0.848099       -23.0779
  31   2.0000      -0.814163       -22.1545
  32   2.0000      -0.784777       -21.3549
  33   2.0000      -0.773151       -21.0385
  34   2.0000      -0.718903       -19.5624
  35   2.0000      -0.700875       -19.0718
  36   2.0000      -0.693929       -18.8828
  37   2.0000      -0.661114       -17.9898
  38   2.0000      -0.639223       -17.3942
  39   2.0000      -0.624695       -16.9988
  40   2.0000      -0.603684       -16.4271
  41   2.0000      -0.571979       -15.5644
  42   2.0000      -0.561458       -15.2780
  43   2.0000      -0.555484       -15.1155
  44   2.0000      -0.529191       -14.4000
  45   2.0000      -0.523619       -14.2484
  46   2.0000      -0.516356       -14.0507
  47   2.0000      -0.509129       -13.8541
  48   2.0000      -0.501957       -13.6589
  49   2.0000      -0.499416       -13.5898
  50   2.0000      -0.488517       -13.2932
  51   2.0000      -0.482370       -13.1260
  52   2.0000      -0.476234       -12.9590
  53   2.0000      -0.469796       -12.7838
  54   2.0000      -0.459924       -12.5152
  55   2.0000      -0.450743       -12.2653
  56   2.0000      -0.445817       -12.1313
  57   2.0000      -0.441895       -12.0246
  58   2.0000      -0.436360       -11.8739
  59   2.0000      -0.431147       -11.7321
  60   2.0000      -0.427198       -11.6246
  61   2.0000      -0.414904       -11.2901
  62   2.0000      -0.413093       -11.2408
  63   2.0000      -0.352898        -9.6028
  64   2.0000      -0.332801        -9.0560
  65   2.0000      -0.331696        -9.0259
  66   2.0000      -0.282374        -7.6838
  67   0.0000       0.029544         0.8039
  68   0.0000       0.071707         1.9512
  69   0.0000       0.108586         2.9548
  70   0.0000       0.124357         3.3839
  71   0.0000       0.128334         3.4921

MULLIKEN ATOMIC CHARGES
-----------------------
   0 S :    0.131828
   1 C :   -0.096196
   2 C :   -0.086372
   3 C :    0.001151
   4 C :   -0.155027
   5 H :    0.018257
   6 C :    0.086843
   7 H :    0.001861
   8 H :    0.022082
   9 C :   -0.092806
  10 H :    0.032103
  11 H :    0.026637
  12 C :   -0.021262
  13 H :    0.035245
  14 H :    0.025170
  15 H :    0.028828
  16 S :    0.096072
  17 C :   -0.060459
  18 C :   -0.037073
  19 C :   -0.050736
  20 C :   -0.158642
  21 H :    0.023410
  22 C :    0.080544
  23 H :    0.015789
  24 H :    0.046259
  25 C :   -0.116100
  26 H :    0.038855
  27 H :    0.030568
  28 C :   -0.023774
  29 H :    0.017944
  30 H :    0.034523
  31 H :    0.046990
  32 H :    0.028748
  33 H :    0.028739
Sum of atomic charges:   -0.0000000

LOEWDIN ATOMIC CHARGES
----------------------
   0 S :    0.412049
   1 C :   -0.212568
   2 C :   -0.063417
   3 C :   -0.066256
   4 C :   -0.182203
   5 H :    0.033586
   6 C :   -0.039337
   7 H :    0.030190
   8 H :    0.031160
   9 C :   -0.040879
  10 H :    0.027304
  11 H :    0.017926
  12 C :   -0.060682
  13 H :    0.024808
  14 H :    0.024489
  15 H :    0.028653
  16 S :    0.420105
  17 C :   -0.180433
  18 C :   -0.070654
  19 C :   -0.056198
  20 C :   -0.198056
  21 H :    0.032353
  22 C :   -0.030162
  23 H :    0.027213
  24 H :    0.035304
  25 C :   -0.048064
  26 H :    0.028502
  27 H :    0.021089
  28 C :   -0.068317
  29 H :    0.021520
  30 H :    0.033277
  31 H :    0.032592
  32 H :    0.024954
  33 H :    0.010155

  Mayer bond orders larger than 0.100000
B(  0-S ,  1-C ) :   1.1406 B(  0-S ,  4-C ) :   1.1447 B(  1-C ,  2-C ) :   1.6225
B(  1-C , 32-H ) :   0.9616 B(  2-C ,  3-C ) :   1.2739 B(  2-C ,  6-C ) :   1.0055
B(  3-C ,  4-C ) :   1.5614 B(  3-C ,  5-H ) :   0.9817 B(  4-C , 20-C ) :   1.0469
B(  6-C ,  7-H ) :   0.9310 B(  6-C ,  8-H ) :   0.9269 B(  6-C ,  9-C ) :   1.0711
B(  9-C , 10-H ) :   0.9564 B(  9-C , 11-H ) :   0.9458 B(  9-C , 12-C ) :   1.0740
B( 12-C , 13-H ) :   0.9757 B( 12-C , 14-H ) :   0.9750 B( 12-C , 15-H ) :   0.9756
B( 16-S , 17-C ) :   1.1576 B( 16-S , 20-C ) :   1.1614 B( 17-C , 18-C ) :   1.6053
B( 17-C , 33-H ) :   0.9813 B( 18-C , 19-C ) :   1.2244 B( 18-C , 21-H ) :   0.9893
B( 19-C , 20-C ) :   1.5934 B( 19-C , 22-C ) :   1.0433 B( 22-C , 23-H ) :   0.9295
B( 22-C , 24-H ) :   0.9333 B( 22-C , 25-C ) :   1.0554 B( 25-C , 26-H ) :   0.9528
B( 25-C , 27-H ) :   0.9613 B( 25-C , 28-C ) :   1.0752 B( 28-C , 29-H ) :   0.9746
B( 28-C , 30-H ) :   0.9711 B( 28-C , 31-H ) :   0.9768

Dispersion correction           -0.014031307
FINAL SINGLE POINT ENERGY     -1339.880544529088

DIPOLE MOMENT
-------------
                                X             Y             Z
Electronic contribution:    -22.08149     -13.32313     -18.61516
Nuclear contribution   :     22.53586      13.51393      19.13047
                        -----------------------------------------
Total Dipole Moment    :      0.45437       0.19079       0.51531
                        -----------------------------------------
Magnitude (a.u.)       :      0.71303
Magnitude (Debye)      :      1.81237

Rotational constants in cm-1:     0.015563     0.009841     0.006889
Rotational constants in MHz :   466.560218   295.015807   206.529283

                             ****ORCA TERMINATED NORMALLY****
TOTAL RUN TIME: 0 days 0 hours 0 minutes 20 seconds 713 msec
