                         Program Version 4.2.1 -  RELEASE  -
|  1> ! wB97X-D3 SP def2-SVP
|  2> %pal
|  3> nprocs 24
|  4> end
|  5>
|  6> * xyz 0 1
|  7> S 	 -58.2228 	 13.6297 	 -92.4059
|  8> C 	 -57.7378 	 12.2625 	 -91.4075
|  9> C 	 -56.7367 	 12.6287 	 -90.5559
| 10> C 	 -56.3727 	 14.0075 	 -90.6788
| 11> C 	 -56.9925 	 14.7201 	 -91.7041
| 12> H 	 -55.5867 	 14.5471 	 -90.1057
| 13> C 	 -56.1803 	 11.879 	 -89.355
| 14> H 	 -55.0862 	 11.9567 	 -89.4226
| 15> H 	 -56.3968 	 10.8173 	 -89.5069
| 16> C 	 -56.8369 	 12.3413 	 -88.0469
| 17> H 	 -56.8346 	 13.4422 	 -87.965
| 18> H 	 -57.8976 	 12.1429 	 -88.141
| 19> C 	 -56.3542 	 11.6813 	 -86.8042
| 20> H 	 -55.2944 	 11.8034 	 -86.7502
| 21> H 	 -56.7816 	 12.0867 	 -85.8569
| 22> H 	 -56.3773 	 10.5842 	 -86.7678
| 23> S 	 -58.2967 	 17.0061 	 -92.5425
| 24> C 	 -57.3517 	 18.4445 	 -92.6213
| 25> C 	 -56.0165 	 18.2888 	 -92.5079
| 26> C 	 -55.7117 	 16.9688 	 -92.1586
| 27> C 	 -56.8599 	 16.133 	 -92.0795
| 28> H 	 -55.4003 	 19.1962 	 -92.6133
| 29> C 	 -54.3141 	 16.5175 	 -92.022
| 30> H 	 -54.0529 	 16.0838 	 -92.9587
| 31> H 	 -54.4403 	 15.7338 	 -91.2972
| 32> C 	 -53.2358 	 17.5007 	 -91.4974
| 33> H 	 -53.6892 	 18.0462 	 -90.6573
| 34> H 	 -53.0802 	 18.2207 	 -92.334
| 35> C 	 -51.9806 	 16.7585 	 -91.0363
| 36> H 	 -52.2473 	 16.1962 	 -90.1621
| 37> H 	 -51.1073 	 17.3626 	 -90.7857
| 38> H 	 -51.7744 	 15.9799 	 -91.6982
| 39> H 	 -58.1874 	 11.3147 	 -91.6021
| 40> H 	 -57.823 	 19.4112 	 -92.7414
| 41> *
| 42>
| 43>                          ****END OF INPUT****

CARTESIAN COORDINATES (ANGSTROEM)
---------------------------------
  S    -58.222800   13.629700  -92.405900
  C    -57.737800   12.262500  -91.407500
  C    -56.736700   12.628700  -90.555900
  C    -56.372700   14.007500  -90.678800
  C    -56.992500   14.720100  -91.704100
  H    -55.586700   14.547100  -90.105700
  C    -56.180300   11.879000  -89.355000
  H    -55.086200   11.956700  -89.422600
  H    -56.396800   10.817300  -89.506900
  C    -56.836900   12.341300  -88.046900
  H    -56.834600   13.442200  -87.965000
  H    -57.897600   12.142900  -88.141000
  C    -56.354200   11.681300  -86.804200
  H    -55.294400   11.803400  -86.750200
  H    -56.781600   12.086700  -85.856900
  H    -56.377300   10.584200  -86.767800
  S    -58.296700   17.006100  -92.542500
  C    -57.351700   18.444500  -92.621300
  C    -56.016500   18.288800  -92.507900
  C    -55.711700   16.968800  -92.158600
  C    -56.859900   16.133000  -92.079500
  H    -55.400300   19.196200  -92.613300
  C    -54.314100   16.517500  -92.022000
  H    -54.052900   16.083800  -92.958700
  H    -54.440300   15.733800  -91.297200
  C    -53.235800   17.500700  -91.497400
  H    -53.689200   18.046200  -90.657300
  H    -53.080200   18.220700  -92.334000
  C    -51.980600   16.758500  -91.036300
  H    -52.247300   16.196200  -90.162100
  H    -51.107300   17.362600  -90.785700
  H    -51.774400   15.979900  -91.698200
  H    -58.187400   11.314700  -91.602100
  H    -57.823000   19.411200  -92.741400

 Total Charge           Charge          ....    0
 Multiplicity           Mult            ....    1
 Number of Electrons    NEL             ....  134
 Basis Dimension        Dim             ....  322

ORBITAL ENERGIES
----------------

  NO   OCC          E(Eh)            E(eV)
   0   2.0000     -88.968611     -2420.9590
   1   2.0000     -88.960861     -2420.7481
   2   2.0000     -10.334625      -281.2194
   3   2.0000     -10.329058      -281.0680
   4   2.0000     -10.313911      -280.6558
   5   2.0000     -10.311596      -280.5928
   6   2.0000     -10.304096      -280.3887
   7   2.0000     -10.300875      -280.3011
   8   2.0000     -10.294693      -280.1328
   9   2.0000     -10.294074      -280.1160
  10   2.0000     -10.293265      -280.0940
  11   2.0000     -10.289949      -280.0037
  12   2.0000     -10.284564      -279.8572
  13   2.0000     -10.282897      -279.8118
  14   2.0000     -10.275959      -279.6231
  15   2.0000     -10.274735      -279.5897
  16   2.0000      -8.084028      -219.9776
  17   2.0000      -8.075210      -219.7376
  18   2.0000      -6.042351      -164.4207
  19   2.0000      -6.038584      -164.3182
  20   2.0000      -6.034817      -164.2157
  21   2.0000      -6.033903      -164.1909
  22   2.0000      -6.029731      -164.0773
  23   2.0000      -6.025861      -163.9720
  24   2.0000      -1.009043       -27.4574
  25   2.0000      -0.985425       -26.8148
  26   2.0000      -0.916154       -24.9298
  27   2.0000      -0.912438       -24.8287
  28   2.0000      -0.872619       -23.7452
  29   2.0000      -0.859139       -23.3784
  30   2.0000      -0.845215       -22.9995
  31   2.0000      -0.818011       -22.2592
  32   2.0000      -0.783304       -21.3148
  33   2.0000      -0.770713       -20.9722
  34   2.0000      -0.712343       -19.3838
  35   2.0000      -0.703183       -19.1346
  36   2.0000      -0.699501       -19.0344
  37   2.0000      -0.655352       -17.8330
  38   2.0000      -0.641395       -17.4532
  39   2.0000      -0.621561       -16.9135
  40   2.0000      -0.598612       -16.2891
  41   2.0000      -0.575448       -15.6587
  42   2.0000      -0.564937       -15.3727
  43   2.0000      -0.555526       -15.1166
  44   2.0000      -0.533917       -14.5286
  45   2.0000      -0.529641       -14.4123
  46   2.0000      -0.517332       -14.0773
  47   2.0000      -0.511820       -13.9273
  48   2.0000      -0.509805       -13.8725
  49   2.0000      -0.498764       -13.5720
  50   2.0000      -0.494971       -13.4688
  51   2.0000      -0.481030       -13.0895
  52   2.0000      -0.472053       -12.8452
  53   2.0000      -0.467274       -12.7152
  54   2.0000      -0.460584       -12.5331
  55   2.0000      -0.455752       -12.4016
  56   2.0000      -0.444170       -12.0865
  57   2.0000      -0.439889       -11.9700
  58   2.0000      -0.432809       -11.7773
  59   2.0000      -0.427546       -11.6341
  60   2.0000      -0.420635       -11.4461
  61   2.0000      -0.411545       -11.1987
  62   2.0000      -0.408536       -11.1168
  63   2.0000      -0.358219        -9.7476
  64   2.0000      -0.336763        -9.1638
  65   2.0000      -0.326765        -8.8917
  66   2.0000      -0.281737        -7.6665
  67   0.0000       0.024615         0.6698
  68   0.0000       0.074196         2.0190
  69   0.0000       0.107451         2.9239
  70   0.0000       0.125363         3.4113
  71   0.0000       0.132419         3.6033

MULLIKEN ATOMIC CHARGES
-----------------------
   0 S :    0.073610
   1 C :   -0.131462
   2 C :   -0.057575
   3 C :   -0.018229
   4 C :   -0.146217
   5 H :    0.037490
   6 C :    0.063249
   7 H :    0.031014
   8 H :    0.015152
   9 C :   -0.062795
  10 H :    0.031623
  11 H :    0.022818
  12 C :   -0.019061
  13 H :    0.007134
  14 H :    0.043731
  15 H :    0.023211
  16 S :    0.119228
  17 C :   -0.087674
  18 C :   -0.043773
  19 C :   -0.068144
  20 C :   -0.138272
  21 H :    0.031914
  22 C :    0.105188
  23 H :    0.042011
  24 H :   -0.022378
  25 C :   -0.105250
  26 H :    0.033703
  27 H :    0.039807
  28 C :    0.008897
  29 H :    0.014643
  30 H :    0.044808
  31 H :    0.014956
  32 H :    0.047866
  33 H :    0.048777
Sum of atomic charges:   -0.0000000

LOEWDIN ATOMIC CHARGES
----------------------
   0 S :    0.371026
   1 C :   -0.184817
   2 C :   -0.066191
   3 C :   -0.076452
   4 C :   -0.176366
   5 H :    0.032958
   6 C :   -0.028630
   7 H :    0.029790
   8 H :    0.028209
   9 C :   -0.044521
  10 H :    0.028622
  11 H :    0.026790
  12 C :   -0.071532
  13 H :    0.019621
  14 H :    0.034120
  15 H :    0.026378
  16 S :    0.423552
  17 C :   -0.180879
  18 C :   -0.080492
  19 C :   -0.047637
  20 C :   -0.209460
  21 H :    0.043004
  22 C :   -0.032957
  23 H :    0.034971
  24 H :    0.024213
  25 C :   -0.038940
  26 H :    0.025394
  27 H :    0.023857
  28 C :   -0.059496
  29 H :    0.025908
  30 H :    0.030569
  31 H :    0.019378
  32 H :    0.024943
  33 H :    0.025066

  Mayer bond orders larger than 0.100000
B(  0-S ,  1-C ) :   1.1289 B(  0-S ,  4-C ) :   1.1356 B(  1-C ,  2-C ) :   1.6055
B(  1-C , 32-H ) :   0.9789 B(  2-C ,  3-C ) :   1.2315 B(  2-C ,  6-C ) :   1.0346
B(  3-C ,  4-C ) :   1.5917 B(  3-C ,  5-H ) :   0.9706 B(  4-C , 20-C ) :   1.0684
B(  6-C ,  7-H ) :   0.9368 B(  6-C ,  8-H ) :   0.9391 B(  6-C ,  9-C ) :   1.0565
B(  9-C , 10-H ) :   0.9548 B(  9-C , 11-H ) :   0.9487 B(  9-C , 12-C ) :   1.0890
B( 12-C , 13-H ) :   0.9684 B( 12-C , 14-H ) :   0.9712 B( 12-C , 15-H ) :   0.9703
B( 16-S , 17-C ) :   1.1752 B( 16-S , 20-C ) :   1.1427 B( 17-C , 18-C ) :   1.6045
B( 17-C , 33-H ) :   0.9611 B( 18-C , 19-C ) :   1.2481 B( 18-C , 21-H ) :   0.9914
B( 19-C , 20-C ) :   1.5568 B( 19-C , 22-C ) :   1.0323 B( 22-C , 23-H ) :   0.9110
B( 22-C , 24-H ) :   0.9224 B( 22-C , 25-C ) :   1.0719 B( 25-C , 26-H ) :   0.9627
B( 25-C , 27-H ) :   0.9474 B( 25-C , 28-C ) :   1.0818 B( 28-C , 29-H ) :   0.9678
B( 28-C , 30-H ) :   0.9737 B( 28-C , 31-H ) :   0.9709

Dispersion correction           -0.013533274
FINAL SINGLE POINT ENERGY     -1339.878328419573

DIPOLE MOMENT
-------------
                                X             Y             Z
Electronic contribution:    -22.12864       6.00551     -19.32176
Nuclear contribution   :     22.68100      -5.91176      19.68599
                        -----------------------------------------
Total Dipole Moment    :      0.55237       0.09376       0.36423
                        -----------------------------------------
Magnitude (a.u.)       :      0.66825
Magnitude (Debye)      :      1.69857

Rotational constants in cm-1:     0.016203     0.008725     0.006415
Rotational constants in MHz :   485.756038   261.569459   192.316537

                             ****ORCA TERMINATED NORMALLY****
TOTAL RUN TIME: 0 days 0 hours 0 minutes 21 seconds 353 msec
