                         Program Version 4.2.1 -  RELEASE  -
|  1> ! wB97X-D3 SP def2-SVP
|  2> %pal
|  3> nprocs 24
|  4> end
|  5>
|  6> * xyz 0 1
|  7> S 	 -113.232 	 58.9926 	 -74.7553
|  8> C 	 -112.913 	 60.1174 	 -76.0495
|  9> C 	 -113.72 	 61.223 	 -75.9133
| 10> C 	 -114.542 	 61.1131 	 -74.7166
| 11> C 	 -114.446 	 59.9325 	 -74.0449
| 12> H 	 -115.246 	 61.904 	 -74.3904
| 13> C 	 -113.643 	 62.4492 	 -76.7435
| 14> H 	 -112.716 	 63.0123 	 -76.3758
| 15> H 	 -114.46 	 63.1654 	 -76.5612
| 16> C 	 -113.715 	 62.2259 	 -78.2901
| 17> H 	 -113.471 	 63.1983 	 -78.7518
| 18> H 	 -112.972 	 61.4343 	 -78.5998
| 19> C 	 -115.108 	 61.9031 	 -78.8074
| 20> H 	 -115.66 	 61.1512 	 -78.2025
| 21> H 	 -115.801 	 62.8113 	 -78.6437
| 22> H 	 -115.05 	 61.4662 	 -79.7937
| 23> S 	 -114.549 	 59.0241 	 -71.5028
| 24> C 	 -116.164 	 58.9353 	 -70.722
| 25> C 	 -117.172 	 58.9798 	 -71.6538
| 26> C 	 -116.716 	 59.478 	 -72.9129
| 27> C 	 -115.295 	 59.4877 	 -73.012
| 28> H 	 -118.123 	 58.7093 	 -71.3849
| 29> C 	 -117.685 	 59.7035 	 -74.0733
| 30> H 	 -117.666 	 60.6531 	 -74.6502
| 31> H 	 -118.64 	 59.824 	 -73.5874
| 32> C 	 -117.812 	 58.5145 	 -75.1118
| 33> H 	 -117.995 	 57.6212 	 -74.5296
| 34> H 	 -117.001 	 58.3261 	 -75.7869
| 35> C 	 -118.972 	 58.7919 	 -76.0514
| 36> H 	 -119.911 	 59.0537 	 -75.6188
| 37> H 	 -119.215 	 57.9639 	 -76.7481
| 38> H 	 -118.549 	 59.6478 	 -76.6957
| 39> H 	 -112.139 	 60.0789 	 -76.7797
| 40> H 	 -116.287 	 58.5963 	 -69.7102
| 41> *
| 42>
| 43>                          ****END OF INPUT****

CARTESIAN COORDINATES (ANGSTROEM)
---------------------------------
  S    -113.232000   58.992600  -74.755300
  C    -112.913000   60.117400  -76.049500
  C    -113.720000   61.223000  -75.913300
  C    -114.542000   61.113100  -74.716600
  C    -114.446000   59.932500  -74.044900
  H    -115.246000   61.904000  -74.390400
  C    -113.643000   62.449200  -76.743500
  H    -112.716000   63.012300  -76.375800
  H    -114.460000   63.165400  -76.561200
  C    -113.715000   62.225900  -78.290100
  H    -113.471000   63.198300  -78.751800
  H    -112.972000   61.434300  -78.599800
  C    -115.108000   61.903100  -78.807400
  H    -115.660000   61.151200  -78.202500
  H    -115.801000   62.811300  -78.643700
  H    -115.050000   61.466200  -79.793700
  S    -114.549000   59.024100  -71.502800
  C    -116.164000   58.935300  -70.722000
  C    -117.172000   58.979800  -71.653800
  C    -116.716000   59.478000  -72.912900
  C    -115.295000   59.487700  -73.012000
  H    -118.123000   58.709300  -71.384900
  C    -117.685000   59.703500  -74.073300
  H    -117.666000   60.653100  -74.650200
  H    -118.640000   59.824000  -73.587400
  C    -117.812000   58.514500  -75.111800
  H    -117.995000   57.621200  -74.529600
  H    -117.001000   58.326100  -75.786900
  C    -118.972000   58.791900  -76.051400
  H    -119.911000   59.053700  -75.618800
  H    -119.215000   57.963900  -76.748100
  H    -118.549000   59.647800  -76.695700
  H    -112.139000   60.078900  -76.779700
  H    -116.287000   58.596300  -69.710200

 Total Charge           Charge          ....    0
 Multiplicity           Mult            ....    1
 Number of Electrons    NEL             ....  134
 Basis Dimension        Dim             ....  322

ORBITAL ENERGIES
----------------

  NO   OCC          E(Eh)            E(eV)
   0   2.0000     -88.966429     -2420.8996
   1   2.0000     -88.963078     -2420.8084
   2   2.0000     -10.326898      -281.0092
   3   2.0000     -10.320010      -280.8218
   4   2.0000     -10.318325      -280.7759
   5   2.0000     -10.310569      -280.5648
   6   2.0000     -10.309744      -280.5424
   7   2.0000     -10.299088      -280.2524
   8   2.0000     -10.298258      -280.2299
   9   2.0000     -10.296116      -280.1716
  10   2.0000     -10.296017      -280.1689
  11   2.0000     -10.293440      -280.0987
  12   2.0000     -10.290644      -280.0226
  13   2.0000     -10.285220      -279.8751
  14   2.0000     -10.283641      -279.8321
  15   2.0000     -10.279963      -279.7320
  16   2.0000      -8.080743      -219.8882
  17   2.0000      -8.079030      -219.8416
  18   2.0000      -6.039221      -164.3356
  19   2.0000      -6.037557      -164.2903
  20   2.0000      -6.035389      -164.2313
  21   2.0000      -6.033242      -164.1729
  22   2.0000      -6.031479      -164.1249
  23   2.0000      -6.029801      -164.0792
  24   2.0000      -1.012854       -27.5611
  25   2.0000      -0.983768       -26.7697
  26   2.0000      -0.913899       -24.8685
  27   2.0000      -0.903504       -24.5856
  28   2.0000      -0.875957       -23.8360
  29   2.0000      -0.850568       -23.1451
  30   2.0000      -0.845630       -23.0108
  31   2.0000      -0.815388       -22.1878
  32   2.0000      -0.780052       -21.2263
  33   2.0000      -0.766875       -20.8677
  34   2.0000      -0.709137       -19.2966
  35   2.0000      -0.699692       -19.0396
  36   2.0000      -0.693281       -18.8651
  37   2.0000      -0.668346       -18.1866
  38   2.0000      -0.638168       -17.3654
  39   2.0000      -0.610499       -16.6125
  40   2.0000      -0.597612       -16.2618
  41   2.0000      -0.582926       -15.8622
  42   2.0000      -0.565602       -15.3908
  43   2.0000      -0.551185       -14.9985
  44   2.0000      -0.542929       -14.7739
  45   2.0000      -0.524954       -14.2847
  46   2.0000      -0.514984       -14.0134
  47   2.0000      -0.509926       -13.8758
  48   2.0000      -0.509499       -13.8642
  49   2.0000      -0.496657       -13.5147
  50   2.0000      -0.491397       -13.3716
  51   2.0000      -0.474827       -12.9207
  52   2.0000      -0.471689       -12.8353
  53   2.0000      -0.463493       -12.6123
  54   2.0000      -0.457097       -12.4383
  55   2.0000      -0.449716       -12.2374
  56   2.0000      -0.441914       -12.0251
  57   2.0000      -0.434370       -11.8198
  58   2.0000      -0.430216       -11.7068
  59   2.0000      -0.423669       -11.5286
  60   2.0000      -0.419129       -11.4051
  61   2.0000      -0.412795       -11.2327
  62   2.0000      -0.411718       -11.2034
  63   2.0000      -0.348324        -9.4784
  64   2.0000      -0.328186        -8.9304
  65   2.0000      -0.325911        -8.8685
  66   2.0000      -0.292904        -7.9703
  67   0.0000       0.028273         0.7694
  68   0.0000       0.068359         1.8602
  69   0.0000       0.105254         2.8641
  70   0.0000       0.120648         3.2830
  71   0.0000       0.122277         3.3273

MULLIKEN ATOMIC CHARGES
-----------------------
   0 S :    0.114093
   1 C :   -0.108548
   2 C :   -0.092502
   3 C :    0.010706
   4 C :   -0.124355
   5 H :    0.018855
   6 C :    0.014115
   7 H :    0.061903
   8 H :    0.016358
   9 C :   -0.081002
  10 H :    0.037350
  11 H :    0.037265
  12 C :   -0.072882
  13 H :    0.030711
  14 H :    0.039329
  15 H :    0.045525
  16 S :    0.100138
  17 C :   -0.090250
  18 C :    0.006291
  19 C :   -0.016559
  20 C :   -0.147113
  21 H :   -0.008266
  22 C :    0.043283
  23 H :    0.026306
  24 H :    0.005390
  25 C :   -0.032874
  26 H :    0.021029
  27 H :    0.040052
  28 C :   -0.088513
  29 H :    0.025019
  30 H :    0.039061
  31 H :    0.037331
  32 H :    0.036603
  33 H :    0.056151
Sum of atomic charges:   -0.0000000

LOEWDIN ATOMIC CHARGES
----------------------
   0 S :    0.430590
   1 C :   -0.199285
   2 C :   -0.067164
   3 C :   -0.066947
   4 C :   -0.223378
   5 H :    0.033784
   6 C :   -0.044142
   7 H :    0.046065
   8 H :    0.028460
   9 C :   -0.044445
  10 H :    0.028838
  11 H :    0.025161
  12 C :   -0.076653
  13 H :    0.025188
  14 H :    0.034645
  15 H :    0.028684
  16 S :    0.394208
  17 C :   -0.164429
  18 C :   -0.053108
  19 C :   -0.048510
  20 C :   -0.196750
  21 H :    0.019800
  22 C :   -0.035526
  23 H :    0.031716
  24 H :    0.027332
  25 C :   -0.033500
  26 H :    0.019086
  27 H :    0.026930
  28 C :   -0.071859
  29 H :    0.014542
  30 H :    0.028530
  31 H :    0.033907
  32 H :    0.023520
  33 H :    0.024710

  Mayer bond orders larger than 0.100000
B(  0-S ,  1-C ) :   1.1332 B(  0-S ,  4-C ) :   1.1573 B(  1-C ,  2-C ) :   1.5987
B(  1-C , 32-H ) :   0.9752 B(  2-C ,  3-C ) :   1.2424 B(  2-C ,  6-C ) :   1.0276
B(  3-C ,  4-C ) :   1.5681 B(  3-C ,  5-H ) :   0.9964 B(  4-C , 20-C ) :   1.0430
B(  6-C ,  7-H ) :   0.9372 B(  6-C ,  8-H ) :   0.9450 B(  6-C ,  9-C ) :   1.0636
B(  9-C , 10-H ) :   0.9551 B(  9-C , 11-H ) :   0.9588 B(  9-C , 12-C ) :   1.0719
B( 12-C , 13-H ) :   0.9768 B( 12-C , 14-H ) :   0.9700 B( 12-C , 15-H ) :   0.9723
B( 16-S , 17-C ) :   1.1475 B( 16-S , 20-C ) :   1.1479 B( 17-C , 18-C ) :   1.6145
B( 17-C , 20-C ) :   0.1097 B( 17-C , 33-H ) :   0.9672 B( 18-C , 19-C ) :   1.2359
B( 18-C , 21-H ) :   0.9991 B( 19-C , 20-C ) :   1.5647 B( 19-C , 22-C ) :   1.0489
B( 22-C , 23-H ) :   0.9398 B( 22-C , 24-H ) :   0.9317 B( 22-C , 25-C ) :   1.0519
B( 25-C , 26-H ) :   0.9552 B( 25-C , 27-H ) :   0.9593 B( 25-C , 28-C ) :   1.0754
B( 28-C , 29-H ) :   0.9775 B( 28-C , 30-H ) :   0.9733 B( 28-C , 31-H ) :   0.9757

Dispersion correction           -0.014501078
FINAL SINGLE POINT ENERGY     -1339.866193028219

DIPOLE MOMENT
-------------
                                X             Y             Z
Electronic contribution:     16.17340      -9.27430      24.04069
Nuclear contribution   :    -16.65980       9.52693     -24.33456
                        -----------------------------------------
Total Dipole Moment    :     -0.48641       0.25263      -0.29387
                        -----------------------------------------
Magnitude (a.u.)       :      0.62191
Magnitude (Debye)      :      1.58077

Rotational constants in cm-1:     0.018747     0.009322     0.007047
Rotational constants in MHz :   562.013256   279.471371   211.261417

                             ****ORCA TERMINATED NORMALLY****
TOTAL RUN TIME: 0 days 0 hours 0 minutes 22 seconds 91 msec
