                         Program Version 4.2.1 -  RELEASE  -
|  1> ! wB97X-D3 SP def2-SVP
|  2> %pal
|  3> nprocs 24
|  4> end
|  5>
|  6> * xyz 0 1
|  7> S 	 -48.2079 	 8.56118 	 -20.5757
|  8> C 	 -48.6079 	 7.59699 	 -19.1391
|  9> C 	 -48.1252 	 8.18032 	 -17.9606
| 10> C 	 -47.2277 	 9.19382 	 -18.2512
| 11> C 	 -47.297 	 9.6159 	 -19.5726
| 12> H 	 -46.5751 	 9.71307 	 -17.5183
| 13> C 	 -48.444 	 7.74934 	 -16.5909
| 14> H 	 -49.4708 	 7.81853 	 -16.3472
| 15> H 	 -48.103 	 8.46273 	 -15.9312
| 16> C 	 -47.8974 	 6.39829 	 -16.0367
| 17> H 	 -46.8445 	 6.40077 	 -16.1414
| 18> H 	 -48.0157 	 6.26043 	 -15.0095
| 19> C 	 -48.629 	 5.17426 	 -16.576
| 20> H 	 -49.7299 	 5.33915 	 -16.4844
| 21> H 	 -48.3368 	 5.0735 	 -17.6089
| 22> H 	 -48.4356 	 4.24113 	 -16.12
| 23> S 	 -44.9919 	 10.1821 	 -20.866
| 24> C 	 -44.5343 	 11.7941 	 -21.1201
| 25> C 	 -45.5185 	 12.7008 	 -20.7893
| 26> C 	 -46.5233 	 12.0674 	 -20.0181
| 27> C 	 -46.464 	 10.701 	 -20.1256
| 28> H 	 -45.3516 	 13.7344 	 -21.1034
| 29> C 	 -47.6926 	 12.841 	 -19.4069
| 30> H 	 -47.5854 	 13.8706 	 -19.6805
| 31> H 	 -47.7161 	 12.6819 	 -18.2586
| 32> C 	 -49.0575 	 12.347 	 -19.8468
| 33> H 	 -49.2005 	 11.2767 	 -19.4619
| 34> H 	 -48.9831 	 12.3104 	 -20.9742
| 35> C 	 -50.2832 	 13.2023 	 -19.5175
| 36> H 	 -50.5791 	 12.8922 	 -18.537
| 37> H 	 -51.1043 	 12.9353 	 -20.2414
| 38> H 	 -50.0917 	 14.2884 	 -19.6621
| 39> H 	 -49.4007 	 6.841 	 -19.138
| 40> H 	 -43.642 	 12.2296 	 -21.653
| 41> *
| 42>
| 43>                          ****END OF INPUT****

CARTESIAN COORDINATES (ANGSTROEM)
---------------------------------
  S    -48.207900    8.561180  -20.575700
  C    -48.607900    7.596990  -19.139100
  C    -48.125200    8.180320  -17.960600
  C    -47.227700    9.193820  -18.251200
  C    -47.297000    9.615900  -19.572600
  H    -46.575100    9.713070  -17.518300
  C    -48.444000    7.749340  -16.590900
  H    -49.470800    7.818530  -16.347200
  H    -48.103000    8.462730  -15.931200
  C    -47.897400    6.398290  -16.036700
  H    -46.844500    6.400770  -16.141400
  H    -48.015700    6.260430  -15.009500
  C    -48.629000    5.174260  -16.576000
  H    -49.729900    5.339150  -16.484400
  H    -48.336800    5.073500  -17.608900
  H    -48.435600    4.241130  -16.120000
  S    -44.991900   10.182100  -20.866000
  C    -44.534300   11.794100  -21.120100
  C    -45.518500   12.700800  -20.789300
  C    -46.523300   12.067400  -20.018100
  C    -46.464000   10.701000  -20.125600
  H    -45.351600   13.734400  -21.103400
  C    -47.692600   12.841000  -19.406900
  H    -47.585400   13.870600  -19.680500
  H    -47.716100   12.681900  -18.258600
  C    -49.057500   12.347000  -19.846800
  H    -49.200500   11.276700  -19.461900
  H    -48.983100   12.310400  -20.974200
  C    -50.283200   13.202300  -19.517500
  H    -50.579100   12.892200  -18.537000
  H    -51.104300   12.935300  -20.241400
  H    -50.091700   14.288400  -19.662100
  H    -49.400700    6.841000  -19.138000
  H    -43.642000   12.229600  -21.653000

 Total Charge           Charge          ....    0
 Multiplicity           Mult            ....    1
 Number of Electrons    NEL             ....  134
 Basis Dimension        Dim             ....  322

ORBITAL ENERGIES
----------------

  NO   OCC          E(Eh)            E(eV)
   0   2.0000     -88.971727     -2421.0438
   1   2.0000     -88.964447     -2420.8457
   2   2.0000     -10.326577      -281.0004
   3   2.0000     -10.317873      -280.7636
   4   2.0000     -10.315679      -280.7039
   5   2.0000     -10.311469      -280.5893
   6   2.0000     -10.300668      -280.2954
   7   2.0000     -10.298736      -280.2429
   8   2.0000     -10.292372      -280.0697
   9   2.0000     -10.292210      -280.0653
  10   2.0000     -10.289629      -279.9950
  11   2.0000     -10.283738      -279.8347
  12   2.0000     -10.281366      -279.7702
  13   2.0000     -10.278797      -279.7003
  14   2.0000     -10.278461      -279.6911
  15   2.0000     -10.272546      -279.5302
  16   2.0000      -8.086186      -220.0363
  17   2.0000      -8.080525      -219.8823
  18   2.0000      -6.044494      -164.4790
  19   2.0000      -6.040727      -164.3765
  20   2.0000      -6.038861      -164.3258
  21   2.0000      -6.037184      -164.2801
  22   2.0000      -6.034810      -164.2155
  23   2.0000      -6.031414      -164.1231
  24   2.0000      -1.014357       -27.6021
  25   2.0000      -0.991757       -26.9871
  26   2.0000      -0.917209       -24.9585
  27   2.0000      -0.906248       -24.6603
  28   2.0000      -0.867577       -23.6080
  29   2.0000      -0.854752       -23.2590
  30   2.0000      -0.849336       -23.1116
  31   2.0000      -0.811170       -22.0730
  32   2.0000      -0.789343       -21.4791
  33   2.0000      -0.772203       -21.0127
  34   2.0000      -0.710203       -19.3256
  35   2.0000      -0.699737       -19.0408
  36   2.0000      -0.676611       -18.4115
  37   2.0000      -0.654256       -17.8032
  38   2.0000      -0.640514       -17.4293
  39   2.0000      -0.621713       -16.9177
  40   2.0000      -0.591068       -16.0838
  41   2.0000      -0.576121       -15.6771
  42   2.0000      -0.568133       -15.4597
  43   2.0000      -0.549090       -14.9415
  44   2.0000      -0.548285       -14.9196
  45   2.0000      -0.518931       -14.1208
  46   2.0000      -0.515283       -14.0216
  47   2.0000      -0.506003       -13.7690
  48   2.0000      -0.499985       -13.6053
  49   2.0000      -0.493439       -13.4272
  50   2.0000      -0.487828       -13.2745
  51   2.0000      -0.483008       -13.1433
  52   2.0000      -0.480329       -13.0704
  53   2.0000      -0.464358       -12.6358
  54   2.0000      -0.461982       -12.5712
  55   2.0000      -0.448801       -12.2125
  56   2.0000      -0.443345       -12.0640
  57   2.0000      -0.438512       -11.9325
  58   2.0000      -0.434499       -11.8233
  59   2.0000      -0.428244       -11.6531
  60   2.0000      -0.417642       -11.3646
  61   2.0000      -0.411778       -11.2051
  62   2.0000      -0.399384       -10.8678
  63   2.0000      -0.341076        -9.2812
  64   2.0000      -0.329524        -8.9668
  65   2.0000      -0.321304        -8.7431
  66   2.0000      -0.302346        -8.2272
  67   0.0000       0.040651         1.1062
  68   0.0000       0.056896         1.5482
  69   0.0000       0.112206         3.0533
  70   0.0000       0.129352         3.5199
  71   0.0000       0.130564         3.5528

MULLIKEN ATOMIC CHARGES
-----------------------
   0 S :    0.132752
   1 C :   -0.129674
   2 C :   -0.075574
   3 C :    0.028454
   4 C :   -0.196035
   5 H :    0.030045
   6 C :    0.115651
   7 H :    0.013596
   8 H :   -0.015685
   9 C :   -0.032045
  10 H :    0.017025
  11 H :    0.009382
  12 C :   -0.054289
  13 H :    0.028316
  14 H :    0.030093
  15 H :    0.024978
  16 S :    0.141414
  17 C :   -0.107185
  18 C :   -0.065580
  19 C :   -0.010268
  20 C :   -0.179172
  21 H :    0.026391
  22 C :    0.094748
  23 H :    0.007150
  24 H :    0.040400
  25 C :   -0.170146
  26 H :    0.060831
  27 H :    0.029425
  28 C :   -0.024164
  29 H :    0.030171
  30 H :    0.041365
  31 H :    0.036243
  32 H :    0.056769
  33 H :    0.064616
Sum of atomic charges:   -0.0000000

LOEWDIN ATOMIC CHARGES
----------------------
   0 S :    0.424279
   1 C :   -0.195220
   2 C :   -0.060931
   3 C :   -0.061652
   4 C :   -0.212034
   5 H :    0.039913
   6 C :   -0.027383
   7 H :    0.030349
   8 H :    0.024021
   9 C :   -0.028221
  10 H :    0.019512
  11 H :    0.017925
  12 C :   -0.064780
  13 H :    0.028395
  14 H :    0.021729
  15 H :    0.019243
  16 S :    0.444815
  17 C :   -0.214856
  18 C :   -0.080017
  19 C :   -0.054139
  20 C :   -0.214959
  21 H :    0.035788
  22 C :   -0.034402
  23 H :    0.022183
  24 H :    0.040916
  25 C :   -0.058826
  26 H :    0.032473
  27 H :    0.022000
  28 C :   -0.067997
  29 H :    0.021192
  30 H :    0.035576
  31 H :    0.027436
  32 H :    0.026412
  33 H :    0.041257

  Mayer bond orders larger than 0.100000
B(  0-S ,  1-C ) :   1.1445 B(  0-S ,  4-C ) :   1.1801 B(  1-C ,  2-C ) :   1.5791
B(  1-C ,  4-C ) :   0.1080 B(  1-C , 32-H ) :   0.9595 B(  2-C ,  3-C ) :   1.2695
B(  2-C ,  6-C ) :   1.0325 B(  3-C ,  4-C ) :   1.5606 B(  3-C ,  5-H ) :   0.9848
B(  4-C , 20-C ) :   0.9852 B(  6-C ,  7-H ) :   0.9281 B(  6-C ,  8-H ) :   0.9192
B(  6-C ,  9-C ) :   1.0789 B(  9-C , 10-H ) :   0.9553 B(  9-C , 11-H ) :   0.9530
B(  9-C , 12-C ) :   1.0759 B( 12-C , 13-H ) :   0.9738 B( 12-C , 14-H ) :   0.9746
B( 12-C , 15-H ) :   0.9742 B( 16-S , 17-C ) :   1.1760 B( 16-S , 20-C ) :   1.1603
B( 17-C , 18-C ) :   1.6242 B( 17-C , 33-H ) :   0.9547 B( 18-C , 19-C ) :   1.2323
B( 18-C , 21-H ) :   0.9861 B( 19-C , 20-C ) :   1.6039 B( 19-C , 22-C ) :   1.0501
B( 22-C , 23-H ) :   0.9344 B( 22-C , 24-H ) :   0.9238 B( 22-C , 25-C ) :   1.0715
B( 25-C , 26-H ) :   0.9447 B( 25-C , 27-H ) :   0.9608 B( 25-C , 28-C ) :   1.0819
B( 28-C , 29-H ) :   0.9760 B( 28-C , 30-H ) :   0.9744 B( 28-C , 31-H ) :   0.9723

Dispersion correction           -0.014823440
FINAL SINGLE POINT ENERGY     -1339.856370312096

DIPOLE MOMENT
-------------
                                X             Y             Z
Electronic contribution:     15.02866       0.26206     -16.78215
Nuclear contribution   :    -15.21063      -0.06262      17.22614
                        -----------------------------------------
Total Dipole Moment    :     -0.18197       0.19944       0.44398
                        -----------------------------------------
Magnitude (a.u.)       :      0.51962
Magnitude (Debye)      :      1.32078

Rotational constants in cm-1:     0.020376     0.008357     0.006986
Rotational constants in MHz :   610.862634   250.530427   209.434892

                             ****ORCA TERMINATED NORMALLY****
TOTAL RUN TIME: 0 days 0 hours 0 minutes 22 seconds 135 msec
