                         Program Version 4.2.1 -  RELEASE  -
|  1> ! wB97X-D3 SP def2-SVP
|  2> %pal
|  3> nprocs 24
|  4> end
|  5>
|  6> * xyz 0 1
|  7> S 	 -34.1978 	 10.6932 	 13.3877
|  8> C 	 -34.5304 	 12.2828 	 12.7184
|  9> C 	 -33.7487 	 12.4727 	 11.5738
| 10> C 	 -32.9263 	 11.3502 	 11.2976
| 11> C 	 -32.9303 	 10.3423 	 12.212
| 12> H 	 -32.2515 	 11.271 	 10.5008
| 13> C 	 -33.886 	 13.7054 	 10.6284
| 14> H 	 -33.4023 	 14.5355 	 11.1514
| 15> H 	 -34.9151 	 13.887 	 10.4403
| 16> C 	 -33.1034 	 13.6834 	 9.33847
| 17> H 	 -32.0446 	 13.5079 	 9.48089
| 18> H 	 -33.3677 	 12.8084 	 8.85259
| 19> C 	 -33.2034 	 14.932 	 8.4816
| 20> H 	 -32.7019 	 14.8187 	 7.51117
| 21> H 	 -34.1658 	 15.1315 	 8.16302
| 22> H 	 -32.7886 	 15.7937 	 8.98827
| 23> S 	 -32.4586 	 7.9356 	 10.9375
| 24> C 	 -30.9946 	 7.07296 	 11.3348
| 25> C 	 -30.4011 	 7.61068 	 12.4866
| 26> C 	 -31.1688 	 8.6694 	 13.0251
| 27> C 	 -32.185 	 9.08208 	 12.1908
| 28> H 	 -29.5092 	 7.16938 	 12.8976
| 29> C 	 -30.7219 	 9.30772 	 14.3409
| 30> H 	 -31.5968 	 9.41881 	 14.888
| 31> H 	 -30.2803 	 10.2424 	 14.0187
| 32> C 	 -29.581 	 8.59151 	 15.1324
| 33> H 	 -28.7054 	 8.31089 	 14.4823
| 34> H 	 -29.9681 	 7.58445 	 15.473
| 35> C 	 -28.9806 	 9.41351 	 16.3359
| 36> H 	 -29.7609 	 9.73974 	 17.0267
| 37> H 	 -28.475 	 10.2912 	 15.9656
| 38> H 	 -28.2264 	 8.80278 	 16.95
| 39> H 	 -35.3343 	 12.9744 	 12.9782
| 40> H 	 -30.5405 	 6.13471 	 10.9697
| 41> *
| 42>
| 43>                          ****END OF INPUT****

CARTESIAN COORDINATES (ANGSTROEM)
---------------------------------
  S    -34.197800   10.693200   13.387700
  C    -34.530400   12.282800   12.718400
  C    -33.748700   12.472700   11.573800
  C    -32.926300   11.350200   11.297600
  C    -32.930300   10.342300   12.212000
  H    -32.251500   11.271000   10.500800
  C    -33.886000   13.705400   10.628400
  H    -33.402300   14.535500   11.151400
  H    -34.915100   13.887000   10.440300
  C    -33.103400   13.683400    9.338470
  H    -32.044600   13.507900    9.480890
  H    -33.367700   12.808400    8.852590
  C    -33.203400   14.932000    8.481600
  H    -32.701900   14.818700    7.511170
  H    -34.165800   15.131500    8.163020
  H    -32.788600   15.793700    8.988270
  S    -32.458600    7.935600   10.937500
  C    -30.994600    7.072960   11.334800
  C    -30.401100    7.610680   12.486600
  C    -31.168800    8.669400   13.025100
  C    -32.185000    9.082080   12.190800
  H    -29.509200    7.169380   12.897600
  C    -30.721900    9.307720   14.340900
  H    -31.596800    9.418810   14.888000
  H    -30.280300   10.242400   14.018700
  C    -29.581000    8.591510   15.132400
  H    -28.705400    8.310890   14.482300
  H    -29.968100    7.584450   15.473000
  C    -28.980600    9.413510   16.335900
  H    -29.760900    9.739740   17.026700
  H    -28.475000   10.291200   15.965600
  H    -28.226400    8.802780   16.950000
  H    -35.334300   12.974400   12.978200
  H    -30.540500    6.134710   10.969700

 Total Charge           Charge          ....    0
 Multiplicity           Mult            ....    1
 Number of Electrons    NEL             ....  134
 Basis Dimension        Dim             ....  322

ORBITAL ENERGIES
----------------

  NO   OCC          E(Eh)            E(eV)
   0   2.0000     -88.970436     -2421.0087
   1   2.0000     -88.964811     -2420.8556
   2   2.0000     -10.327884      -281.0360
   3   2.0000     -10.322290      -280.8838
   4   2.0000     -10.318320      -280.7758
   5   2.0000     -10.316057      -280.7142
   6   2.0000     -10.303218      -280.3648
   7   2.0000     -10.300800      -280.2990
   8   2.0000     -10.300001      -280.2773
   9   2.0000     -10.290316      -280.0137
  10   2.0000     -10.289449      -279.9901
  11   2.0000     -10.287369      -279.9335
  12   2.0000     -10.287268      -279.9308
  13   2.0000     -10.286874      -279.9201
  14   2.0000     -10.275974      -279.6235
  15   2.0000     -10.272792      -279.5369
  16   2.0000      -8.085062      -220.0057
  17   2.0000      -8.078880      -219.8375
  18   2.0000      -6.043562      -164.4537
  19   2.0000      -6.039508      -164.3434
  20   2.0000      -6.037416      -164.2864
  21   2.0000      -6.035907      -164.2454
  22   2.0000      -6.033370      -164.1763
  23   2.0000      -6.029758      -164.0780
  24   2.0000      -1.008572       -27.4447
  25   2.0000      -0.985240       -26.8098
  26   2.0000      -0.914525       -24.8855
  27   2.0000      -0.903124       -24.5752
  28   2.0000      -0.870012       -23.6742
  29   2.0000      -0.847347       -23.0575
  30   2.0000      -0.843922       -22.9643
  31   2.0000      -0.817932       -22.2571
  32   2.0000      -0.784624       -21.3507
  33   2.0000      -0.772243       -21.0138
  34   2.0000      -0.713513       -19.4157
  35   2.0000      -0.702633       -19.1196
  36   2.0000      -0.690392       -18.7865
  37   2.0000      -0.656080       -17.8528
  38   2.0000      -0.638341       -17.3701
  39   2.0000      -0.619923       -16.8690
  40   2.0000      -0.591110       -16.0849
  41   2.0000      -0.579870       -15.7791
  42   2.0000      -0.570208       -15.5161
  43   2.0000      -0.567955       -15.4548
  44   2.0000      -0.522459       -14.2168
  45   2.0000      -0.521175       -14.1819
  46   2.0000      -0.518422       -14.1070
  47   2.0000      -0.510674       -13.8962
  48   2.0000      -0.506660       -13.7869
  49   2.0000      -0.502393       -13.6708
  50   2.0000      -0.492685       -13.4067
  51   2.0000      -0.478720       -13.0266
  52   2.0000      -0.470777       -12.8105
  53   2.0000      -0.467449       -12.7199
  54   2.0000      -0.463819       -12.6212
  55   2.0000      -0.448990       -12.2176
  56   2.0000      -0.448353       -12.2003
  57   2.0000      -0.433209       -11.7882
  58   2.0000      -0.428687       -11.6652
  59   2.0000      -0.420816       -11.4510
  60   2.0000      -0.419441       -11.4136
  61   2.0000      -0.416477       -11.3329
  62   2.0000      -0.416208       -11.3256
  63   2.0000      -0.337220        -9.1762
  64   2.0000      -0.334379        -9.0989
  65   2.0000      -0.325671        -8.8620
  66   2.0000      -0.298621        -8.1259
  67   0.0000       0.036054         0.9811
  68   0.0000       0.060131         1.6362
  69   0.0000       0.116248         3.1633
  70   0.0000       0.129073         3.5122
  71   0.0000       0.133000         3.6191

MULLIKEN ATOMIC CHARGES
-----------------------
   0 S :    0.104195
   1 C :   -0.127378
   2 C :   -0.099760
   3 C :    0.036518
   4 C :   -0.154092
   5 H :   -0.012702
   6 C :    0.088374
   7 H :    0.033076
   8 H :    0.030694
   9 C :   -0.090592
  10 H :    0.023933
  11 H :    0.006378
  12 C :    0.006591
  13 H :    0.027384
  14 H :    0.006870
  15 H :    0.030948
  16 S :    0.144516
  17 C :   -0.086908
  18 C :   -0.069951
  19 C :   -0.048774
  20 C :   -0.185514
  21 H :    0.016286
  22 C :    0.157045
  23 H :    0.018371
  24 H :    0.036095
  25 C :   -0.153149
  26 H :    0.044037
  27 H :    0.037841
  28 C :   -0.052501
  29 H :    0.037727
  30 H :    0.035183
  31 H :    0.046829
  32 H :    0.052874
  33 H :    0.059555
Sum of atomic charges:   -0.0000000

LOEWDIN ATOMIC CHARGES
----------------------
   0 S :    0.399503
   1 C :   -0.199813
   2 C :   -0.061533
   3 C :   -0.063027
   4 C :   -0.189394
   5 H :    0.021920
   6 C :   -0.025003
   7 H :    0.036100
   8 H :    0.026694
   9 C :   -0.045707
  10 H :    0.024836
  11 H :    0.012062
  12 C :   -0.053788
  13 H :    0.033367
  14 H :    0.013336
  15 H :    0.026158
  16 S :    0.436101
  17 C :   -0.199601
  18 C :   -0.075387
  19 C :   -0.047516
  20 C :   -0.225954
  21 H :    0.028611
  22 C :   -0.023276
  23 H :    0.021529
  24 H :    0.038519
  25 C :   -0.049866
  26 H :    0.026385
  27 H :    0.025564
  28 C :   -0.068491
  29 H :    0.025115
  30 H :    0.022372
  31 H :    0.036676
  32 H :    0.034317
  33 H :    0.039191

  Mayer bond orders larger than 0.100000
B(  0-S ,  1-C ) :   1.1490 B(  0-S ,  4-C ) :   1.1448 B(  1-C ,  2-C ) :   1.6010
B(  1-C ,  4-C ) :   0.1041 B(  1-C , 32-H ) :   0.9718 B(  2-C ,  3-C ) :   1.2646
B(  2-C ,  6-C ) :   0.9945 B(  3-C ,  4-C ) :   1.5795 B(  3-C ,  5-H ) :   1.0034
B(  4-C , 20-C ) :   1.0184 B(  6-C ,  7-H ) :   0.9349 B(  6-C ,  8-H ) :   0.9461
B(  6-C ,  9-C ) :   1.0950 B(  9-C , 10-H ) :   0.9456 B(  9-C , 11-H ) :   0.9433
B(  9-C , 12-C ) :   1.0911 B( 12-C , 13-H ) :   0.9676 B( 12-C , 14-H ) :   0.9721
B( 12-C , 15-H ) :   0.9737 B( 16-S , 17-C ) :   1.1671 B( 16-S , 20-C ) :   1.1522
B( 17-C , 18-C ) :   1.5848 B( 17-C , 20-C ) :   0.1006 B( 17-C , 33-H ) :   0.9581
B( 18-C , 19-C ) :   1.2883 B( 18-C , 21-H ) :   0.9827 B( 19-C , 20-C ) :   1.5693
B( 19-C , 22-C ) :   1.0138 B( 22-C , 23-H ) :   0.9278 B( 22-C , 24-H ) :   0.9224
B( 22-C , 25-C ) :   1.0798 B( 25-C , 26-H ) :   0.9472 B( 25-C , 27-H ) :   0.9570
B( 25-C , 28-C ) :   1.0723 B( 28-C , 29-H ) :   0.9767 B( 28-C , 30-H ) :   0.9761
B( 28-C , 31-H ) :   0.9748

Dispersion correction           -0.013407142
FINAL SINGLE POINT ENERGY     -1339.865409755079

DIPOLE MOMENT
-------------
                                X             Y             Z
Electronic contribution:    -12.65992     -15.36041      -1.01300
Nuclear contribution   :     13.02567      15.63672       0.91454
                        -----------------------------------------
Total Dipole Moment    :      0.36575       0.27631      -0.09846
                        -----------------------------------------
Magnitude (a.u.)       :      0.46884
Magnitude (Debye)      :      1.19170

Rotational constants in cm-1:     0.018840     0.007088     0.006348
Rotational constants in MHz :   564.813501   212.480630   190.313978

                             ****ORCA TERMINATED NORMALLY****
TOTAL RUN TIME: 0 days 0 hours 0 minutes 19 seconds 507 msec
