                         Program Version 4.2.1 -  RELEASE  -
|  1> ! wB97X-D3 SP def2-SVP
|  2> %pal
|  3> nprocs 24
|  4> end
|  5>
|  6> * xyz 0 1
|  7> S 	 22.7095 	 0.291318 	 -110.637
|  8> C 	 22.1516 	 0.343261 	 -112.329
|  9> C 	 22.3817 	 1.57811 	 -112.887
| 10> C 	 23.0785 	 2.43963 	 -112.027
| 11> C 	 23.3778 	 1.91086 	 -110.746
| 12> H 	 23.3373 	 3.46774 	 -112.318
| 13> C 	 22.0065 	 1.88777 	 -114.326
| 14> H 	 21.9839 	 0.958022 	 -114.77
| 15> H 	 22.8357 	 2.50296 	 -114.725
| 16> C 	 20.7218 	 2.54029 	 -114.469
| 17> H 	 19.7811 	 1.94007 	 -114.297
| 18> H 	 20.6689 	 3.33781 	 -113.726
| 19> C 	 20.6811 	 3.22574 	 -115.812
| 20> H 	 19.7502 	 3.89979 	 -115.882
| 21> H 	 21.4009 	 4.09616 	 -115.851
| 22> H 	 20.6229 	 2.55973 	 -116.715
| 23> S 	 25.2298 	 1.67752 	 -108.795
| 24> C 	 25.7974 	 3.04404 	 -107.824
| 25> C 	 25.0273 	 4.10954 	 -108.191
| 26> C 	 24.0247 	 3.91191 	 -109.146
| 27> C 	 24.0076 	 2.589 	 -109.607
| 28> H 	 25.1226 	 4.91318 	 -107.562
| 29> C 	 23.2772 	 5.07198 	 -109.708
| 30> H 	 22.6218 	 5.55657 	 -108.899
| 31> H 	 22.6067 	 4.64091 	 -110.488
| 32> C 	 24.2394 	 6.0365 	 -110.44
| 33> H 	 24.6971 	 5.46071 	 -111.254
| 34> H 	 24.943 	 6.45956 	 -109.739
| 35> C 	 23.4279 	 7.25308 	 -110.995
| 36> H 	 22.602 	 6.86223 	 -111.562
| 37> H 	 24.1417 	 7.91931 	 -111.541
| 38> H 	 22.9775 	 7.84333 	 -110.197
| 39> H 	 21.8284 	 -0.540374 	 -112.869
| 40> H 	 26.5343 	 3.03455 	 -107.028
| 41> *
| 42>
| 43>                          ****END OF INPUT****

CARTESIAN COORDINATES (ANGSTROEM)
---------------------------------
  S     22.709500    0.291318  -110.637000
  C     22.151600    0.343261  -112.329000
  C     22.381700    1.578110  -112.887000
  C     23.078500    2.439630  -112.027000
  C     23.377800    1.910860  -110.746000
  H     23.337300    3.467740  -112.318000
  C     22.006500    1.887770  -114.326000
  H     21.983900    0.958022  -114.770000
  H     22.835700    2.502960  -114.725000
  C     20.721800    2.540290  -114.469000
  H     19.781100    1.940070  -114.297000
  H     20.668900    3.337810  -113.726000
  C     20.681100    3.225740  -115.812000
  H     19.750200    3.899790  -115.882000
  H     21.400900    4.096160  -115.851000
  H     20.622900    2.559730  -116.715000
  S     25.229800    1.677520  -108.795000
  C     25.797400    3.044040  -107.824000
  C     25.027300    4.109540  -108.191000
  C     24.024700    3.911910  -109.146000
  C     24.007600    2.589000  -109.607000
  H     25.122600    4.913180  -107.562000
  C     23.277200    5.071980  -109.708000
  H     22.621800    5.556570  -108.899000
  H     22.606700    4.640910  -110.488000
  C     24.239400    6.036500  -110.440000
  H     24.697100    5.460710  -111.254000
  H     24.943000    6.459560  -109.739000
  C     23.427900    7.253080  -110.995000
  H     22.602000    6.862230  -111.562000
  H     24.141700    7.919310  -111.541000
  H     22.977500    7.843330  -110.197000
  H     21.828400   -0.540374  -112.869000
  H     26.534300    3.034550  -107.028000

 Total Charge           Charge          ....    0
 Multiplicity           Mult            ....    1
 Number of Electrons    NEL             ....  134
 Basis Dimension        Dim             ....  322

ORBITAL ENERGIES
----------------

  NO   OCC          E(Eh)            E(eV)
   0   2.0000     -88.967700     -2420.9342
   1   2.0000     -88.961969     -2420.7783
   2   2.0000     -10.337417      -281.2954
   3   2.0000     -10.329218      -281.0723
   4   2.0000     -10.318343      -280.7764
   5   2.0000     -10.314756      -280.6788
   6   2.0000     -10.300227      -280.2834
   7   2.0000     -10.298502      -280.2365
   8   2.0000     -10.296988      -280.1953
   9   2.0000     -10.296944      -280.1941
  10   2.0000     -10.290587      -280.0211
  11   2.0000     -10.290086      -280.0075
  12   2.0000     -10.285510      -279.8829
  13   2.0000     -10.283469      -279.8274
  14   2.0000     -10.282334      -279.7965
  15   2.0000     -10.281646      -279.7778
  16   2.0000      -8.081701      -219.9143
  17   2.0000      -8.076940      -219.7847
  18   2.0000      -6.040224      -164.3628
  19   2.0000      -6.036270      -164.2553
  20   2.0000      -6.035439      -164.2326
  21   2.0000      -6.032531      -164.1535
  22   2.0000      -6.031190      -164.1170
  23   2.0000      -6.027890      -164.0272
  24   2.0000      -1.008209       -27.4348
  25   2.0000      -0.986203       -26.8359
  26   2.0000      -0.928192       -25.2574
  27   2.0000      -0.910476       -24.7753
  28   2.0000      -0.874101       -23.7855
  29   2.0000      -0.849512       -23.1164
  30   2.0000      -0.845638       -23.0110
  31   2.0000      -0.816527       -22.2188
  32   2.0000      -0.780385       -21.2354
  33   2.0000      -0.768004       -20.8985
  34   2.0000      -0.708080       -19.2678
  35   2.0000      -0.697952       -18.9922
  36   2.0000      -0.695471       -18.9247
  37   2.0000      -0.663714       -18.0606
  38   2.0000      -0.639388       -17.3986
  39   2.0000      -0.627081       -17.0637
  40   2.0000      -0.596147       -16.2220
  41   2.0000      -0.577302       -15.7092
  42   2.0000      -0.571007       -15.5379
  43   2.0000      -0.567806       -15.4508
  44   2.0000      -0.533559       -14.5189
  45   2.0000      -0.525520       -14.3001
  46   2.0000      -0.522615       -14.2211
  47   2.0000      -0.519846       -14.1457
  48   2.0000      -0.504795       -13.7362
  49   2.0000      -0.500869       -13.6293
  50   2.0000      -0.496347       -13.5063
  51   2.0000      -0.478896       -13.0314
  52   2.0000      -0.470240       -12.7959
  53   2.0000      -0.464146       -12.6300
  54   2.0000      -0.457362       -12.4455
  55   2.0000      -0.445636       -12.1264
  56   2.0000      -0.439691       -11.9646
  57   2.0000      -0.436824       -11.8866
  58   2.0000      -0.429989       -11.7006
  59   2.0000      -0.425504       -11.5785
  60   2.0000      -0.421588       -11.4720
  61   2.0000      -0.413646       -11.2559
  62   2.0000      -0.409673       -11.1478
  63   2.0000      -0.351441        -9.5632
  64   2.0000      -0.334615        -9.1053
  65   2.0000      -0.326735        -8.8909
  66   2.0000      -0.291078        -7.9206
  67   0.0000       0.022299         0.6068
  68   0.0000       0.076568         2.0835
  69   0.0000       0.112027         3.0484
  70   0.0000       0.123834         3.3697
  71   0.0000       0.126644         3.4461

MULLIKEN ATOMIC CHARGES
-----------------------
   0 S :    0.108126
   1 C :   -0.138221
   2 C :   -0.104335
   3 C :    0.017245
   4 C :   -0.132464
   5 H :    0.006206
   6 C :    0.131142
   7 H :   -0.002721
   8 H :    0.029910
   9 C :   -0.053517
  10 H :    0.043786
  11 H :    0.016075
  12 C :   -0.101716
  13 H :    0.026699
  14 H :    0.037743
  15 H :    0.053119
  16 S :    0.088579
  17 C :   -0.091015
  18 C :   -0.019121
  19 C :   -0.019012
  20 C :   -0.135013
  21 H :   -0.008883
  22 C :    0.011518
  23 H :    0.047609
  24 H :    0.023469
  25 C :   -0.089070
  26 H :    0.042534
  27 H :    0.035617
  28 C :   -0.034868
  29 H :    0.022945
  30 H :    0.046549
  31 H :    0.027377
  32 H :    0.053054
  33 H :    0.060652
Sum of atomic charges:   -0.0000000

LOEWDIN ATOMIC CHARGES
----------------------
   0 S :    0.397187
   1 C :   -0.190589
   2 C :   -0.062780
   3 C :   -0.071482
   4 C :   -0.190470
   5 H :    0.028886
   6 C :   -0.023833
   7 H :    0.021581
   8 H :    0.037733
   9 C :   -0.050183
  10 H :    0.034617
  11 H :    0.024895
  12 C :   -0.081373
  13 H :    0.030004
  14 H :    0.030973
  15 H :    0.030387
  16 S :    0.408961
  17 C :   -0.174383
  18 C :   -0.067449
  19 C :   -0.062710
  20 C :   -0.204494
  21 H :    0.017465
  22 C :   -0.041200
  23 H :    0.039331
  24 H :    0.029712
  25 C :   -0.032572
  26 H :    0.027323
  27 H :    0.021661
  28 C :   -0.065480
  29 H :    0.019578
  30 H :    0.031279
  31 H :    0.024146
  32 H :    0.028771
  33 H :    0.034508

  Mayer bond orders larger than 0.100000
B(  0-S ,  1-C ) :   1.1352 B(  0-S ,  4-C ) :   1.1695 B(  1-C ,  2-C ) :   1.5930
B(  1-C ,  4-C ) :   0.1096 B(  1-C , 32-H ) :   0.9658 B(  2-C ,  3-C ) :   1.2900
B(  2-C ,  6-C ) :   1.0129 B(  3-C ,  4-C ) :   1.5227 B(  3-C ,  5-H ) :   0.9870
B(  4-C , 20-C ) :   1.0234 B(  6-C ,  7-H ) :   0.9216 B(  6-C ,  8-H ) :   0.9434
B(  6-C ,  9-C ) :   1.0740 B(  9-C , 10-H ) :   0.9467 B(  9-C , 11-H ) :   0.9512
B(  9-C , 12-C ) :   1.0909 B( 12-C , 13-H ) :   0.9704 B( 12-C , 14-H ) :   0.9714
B( 12-C , 15-H ) :   0.9718 B( 16-S , 17-C ) :   1.1491 B( 16-S , 20-C ) :   1.1614
B( 17-C , 18-C ) :   1.5973 B( 17-C , 20-C ) :   0.1029 B( 17-C , 33-H ) :   0.9707
B( 18-C , 19-C ) :   1.2527 B( 18-C , 21-H ) :   0.9959 B( 19-C , 20-C ) :   1.5579
B( 19-C , 22-C ) :   1.0586 B( 22-C , 23-H ) :   0.9304 B( 22-C , 24-H ) :   0.9329
B( 22-C , 25-C ) :   1.0616 B( 25-C , 26-H ) :   0.9536 B( 25-C , 27-H ) :   0.9553
B( 25-C , 28-C ) :   1.0805 B( 28-C , 29-H ) :   0.9740 B( 28-C , 30-H ) :   0.9750
B( 28-C , 31-H ) :   0.9745

Dispersion correction           -0.013825061
FINAL SINGLE POINT ENERGY     -1339.867712355940

DIPOLE MOMENT
-------------
                                X             Y             Z
Electronic contribution:     10.71464     -23.21142      20.31322
Nuclear contribution   :    -10.83645      23.82318     -20.61659
                        -----------------------------------------
Total Dipole Moment    :     -0.12181       0.61177      -0.30337
                        -----------------------------------------
Magnitude (a.u.)       :      0.69364
Magnitude (Debye)      :      1.76308

Rotational constants in cm-1:     0.017497     0.009129     0.006269
Rotational constants in MHz :   524.543453   273.673595   187.943355

                             ****ORCA TERMINATED NORMALLY****
TOTAL RUN TIME: 0 days 0 hours 0 minutes 21 seconds 513 msec
