                         Program Version 4.2.1 -  RELEASE  -
|  1> ! wB97X-D3 SP def2-SVP
|  2> %pal
|  3> nprocs 24
|  4> end
|  5>
|  6> * xyz 0 1
|  7> S 	 -57.2876 	 19.2922 	 18.876
|  8> C 	 -57.3151 	 17.8961 	 19.9689
|  9> C 	 -58.5374 	 17.7594 	 20.6099
| 10> C 	 -59.4508 	 18.73 	 20.1855
| 11> C 	 -58.9189 	 19.6426 	 19.2894
| 12> H 	 -60.4485 	 18.8136 	 20.5197
| 13> C 	 -59.0157 	 16.5722 	 21.5606
| 14> H 	 -58.1964 	 15.9258 	 21.8837
| 15> H 	 -59.6005 	 15.8654 	 20.9461
| 16> C 	 -59.9189 	 16.9734 	 22.6956
| 17> H 	 -59.3536 	 17.6257 	 23.3491
| 18> H 	 -60.8237 	 17.522 	 22.4431
| 19> C 	 -60.4643 	 15.7728 	 23.5267
| 20> H 	 -59.9584 	 14.7742 	 23.2928
| 21> H 	 -60.6194 	 15.9991 	 24.5601
| 22> H 	 -61.3834 	 15.6004 	 23.0131
| 23> S 	 -59.1419 	 20.9346 	 16.8898
| 24> C 	 -60.0871 	 22.3898 	 16.751
| 25> C 	 -60.6923 	 22.7519 	 17.9257
| 26> C 	 -60.5202 	 21.737 	 18.9535
| 27> C 	 -59.5707 	 20.7281 	 18.5988
| 28> H 	 -61.2677 	 23.6373 	 18.0745
| 29> C 	 -61.1766 	 21.7654 	 20.2999
| 30> H 	 -61.6203 	 20.808 	 20.3974
| 31> H 	 -61.9231 	 22.5265 	 20.3858
| 32> C 	 -60.2188 	 22.0943 	 21.5038
| 33> H 	 -60.1025 	 23.1302 	 21.4884
| 34> H 	 -59.2104 	 21.7784 	 21.2188
| 35> C 	 -60.6576 	 21.6111 	 22.9056
| 36> H 	 -61.7417 	 21.6809 	 23.091
| 37> H 	 -60.0104 	 22.0233 	 23.7291
| 38> H 	 -60.5028 	 20.487 	 22.9177
| 39> H 	 -56.5438 	 17.1809 	 20.194
| 40> H 	 -60.0776 	 22.947 	 15.8339
| 41> *
| 42>
| 43>                          ****END OF INPUT****

CARTESIAN COORDINATES (ANGSTROEM)
---------------------------------
  S    -57.287600   19.292200   18.876000
  C    -57.315100   17.896100   19.968900
  C    -58.537400   17.759400   20.609900
  C    -59.450800   18.730000   20.185500
  C    -58.918900   19.642600   19.289400
  H    -60.448500   18.813600   20.519700
  C    -59.015700   16.572200   21.560600
  H    -58.196400   15.925800   21.883700
  H    -59.600500   15.865400   20.946100
  C    -59.918900   16.973400   22.695600
  H    -59.353600   17.625700   23.349100
  H    -60.823700   17.522000   22.443100
  C    -60.464300   15.772800   23.526700
  H    -59.958400   14.774200   23.292800
  H    -60.619400   15.999100   24.560100
  H    -61.383400   15.600400   23.013100
  S    -59.141900   20.934600   16.889800
  C    -60.087100   22.389800   16.751000
  C    -60.692300   22.751900   17.925700
  C    -60.520200   21.737000   18.953500
  C    -59.570700   20.728100   18.598800
  H    -61.267700   23.637300   18.074500
  C    -61.176600   21.765400   20.299900
  H    -61.620300   20.808000   20.397400
  H    -61.923100   22.526500   20.385800
  C    -60.218800   22.094300   21.503800
  H    -60.102500   23.130200   21.488400
  H    -59.210400   21.778400   21.218800
  C    -60.657600   21.611100   22.905600
  H    -61.741700   21.680900   23.091000
  H    -60.010400   22.023300   23.729100
  H    -60.502800   20.487000   22.917700
  H    -56.543800   17.180900   20.194000
  H    -60.077600   22.947000   15.833900

 Total Charge           Charge          ....    0
 Multiplicity           Mult            ....    1
 Number of Electrons    NEL             ....  134
 Basis Dimension        Dim             ....  322

ORBITAL ENERGIES
----------------

  NO   OCC          E(Eh)            E(eV)
   0   2.0000     -88.971820     -2421.0463
   1   2.0000     -88.964143     -2420.8374
   2   2.0000     -10.329401      -281.0773
   3   2.0000     -10.328630      -281.0563
   4   2.0000     -10.316328      -280.7215
   5   2.0000     -10.313685      -280.6496
   6   2.0000     -10.309101      -280.5249
   7   2.0000     -10.303878      -280.3828
   8   2.0000     -10.301791      -280.3260
   9   2.0000     -10.296805      -280.1903
  10   2.0000     -10.288163      -279.9551
  11   2.0000     -10.288151      -279.9548
  12   2.0000     -10.287381      -279.9339
  13   2.0000     -10.286801      -279.9181
  14   2.0000     -10.281871      -279.7839
  15   2.0000     -10.280189      -279.7382
  16   2.0000      -8.086343      -220.0406
  17   2.0000      -8.078829      -219.8361
  18   2.0000      -6.044825      -164.4881
  19   2.0000      -6.040890      -164.3810
  20   2.0000      -6.037326      -164.2840
  21   2.0000      -6.037120      -164.2784
  22   2.0000      -6.033279      -164.1739
  23   2.0000      -6.029668      -164.0756
  24   2.0000      -1.008832       -27.4517
  25   2.0000      -0.981321       -26.7031
  26   2.0000      -0.912676       -24.8352
  27   2.0000      -0.905252       -24.6332
  28   2.0000      -0.872585       -23.7442
  29   2.0000      -0.850055       -23.1312
  30   2.0000      -0.843667       -22.9574
  31   2.0000      -0.813306       -22.1312
  32   2.0000      -0.785365       -21.3709
  33   2.0000      -0.770284       -20.9605
  34   2.0000      -0.712051       -19.3759
  35   2.0000      -0.698725       -19.0133
  36   2.0000      -0.692373       -18.8404
  37   2.0000      -0.665635       -18.1129
  38   2.0000      -0.640474       -17.4282
  39   2.0000      -0.626703       -17.0535
  40   2.0000      -0.597224       -16.2513
  41   2.0000      -0.571152       -15.5418
  42   2.0000      -0.566634       -15.4189
  43   2.0000      -0.556658       -15.1474
  44   2.0000      -0.530038       -14.4231
  45   2.0000      -0.524493       -14.2722
  46   2.0000      -0.507508       -13.8100
  47   2.0000      -0.506911       -13.7938
  48   2.0000      -0.505359       -13.7515
  49   2.0000      -0.498204       -13.5568
  50   2.0000      -0.495357       -13.4794
  51   2.0000      -0.487747       -13.2723
  52   2.0000      -0.470877       -12.8132
  53   2.0000      -0.469464       -12.7748
  54   2.0000      -0.459801       -12.5118
  55   2.0000      -0.455235       -12.3876
  56   2.0000      -0.443178       -12.0595
  57   2.0000      -0.442422       -12.0389
  58   2.0000      -0.431360       -11.7379
  59   2.0000      -0.424086       -11.5400
  60   2.0000      -0.421620       -11.4729
  61   2.0000      -0.412347       -11.2205
  62   2.0000      -0.409353       -11.1391
  63   2.0000      -0.351573        -9.5668
  64   2.0000      -0.337637        -9.1876
  65   2.0000      -0.328250        -8.9321
  66   2.0000      -0.282442        -7.6856
  67   0.0000       0.021930         0.5968
  68   0.0000       0.072614         1.9759
  69   0.0000       0.108813         2.9609
  70   0.0000       0.118402         3.2219
  71   0.0000       0.129007         3.5105

MULLIKEN ATOMIC CHARGES
-----------------------
   0 S :    0.123246
   1 C :   -0.121186
   2 C :   -0.050979
   3 C :    0.026722
   4 C :   -0.128387
   5 H :   -0.017992
   6 C :    0.065728
   7 H :    0.022248
   8 H :    0.033220
   9 C :   -0.111885
  10 H :    0.033534
  11 H :    0.037984
  12 C :   -0.051528
  13 H :    0.036764
  14 H :    0.048084
  15 H :    0.019599
  16 S :    0.090723
  17 C :   -0.084476
  18 C :    0.000908
  19 C :   -0.076503
  20 C :   -0.148113
  21 H :    0.011600
  22 C :    0.080094
  23 H :    0.023465
  24 H :    0.009399
  25 C :   -0.053169
  26 H :    0.005945
  27 H :    0.036637
  28 C :   -0.073508
  29 H :    0.037163
  30 H :    0.053690
  31 H :    0.029846
  32 H :    0.033697
  33 H :    0.057428
Sum of atomic charges:    0.0000000

LOEWDIN ATOMIC CHARGES
----------------------
   0 S :    0.420181
   1 C :   -0.198351
   2 C :   -0.055106
   3 C :   -0.062893
   4 C :   -0.198846
   5 H :    0.020595
   6 C :   -0.028006
   7 H :    0.029810
   8 H :    0.032660
   9 C :   -0.045938
  10 H :    0.020500
  11 H :    0.022385
  12 C :   -0.066765
  13 H :    0.033584
  14 H :    0.026555
  15 H :    0.023436
  16 S :    0.396802
  17 C :   -0.182435
  18 C :   -0.066968
  19 C :   -0.048425
  20 C :   -0.194331
  21 H :    0.029847
  22 C :   -0.029029
  23 H :    0.023710
  24 H :    0.026504
  25 C :   -0.037465
  26 H :    0.013041
  27 H :    0.026735
  28 C :   -0.075783
  29 H :    0.025742
  30 H :    0.036393
  31 H :    0.029448
  32 H :    0.026452
  33 H :    0.025960

  Mayer bond orders larger than 0.100000
B(  0-S ,  1-C ) :   1.1288 B(  0-S ,  4-C ) :   1.1569 B(  1-C ,  2-C ) :   1.6223
B(  1-C , 32-H ) :   0.9651 B(  2-C ,  3-C ) :   1.2587 B(  2-C ,  6-C ) :   1.0025
B(  3-C ,  4-C ) :   1.5452 B(  3-C ,  5-H ) :   1.0002 B(  4-C , 20-C ) :   1.0711
B(  6-C ,  7-H ) :   0.9432 B(  6-C ,  8-H ) :   0.9448 B(  6-C ,  9-C ) :   1.0609
B(  9-C , 10-H ) :   0.9633 B(  9-C , 11-H ) :   0.9594 B(  9-C , 12-C ) :   1.0558
B( 12-C , 13-H ) :   0.9760 B( 12-C , 14-H ) :   0.9764 B( 12-C , 15-H ) :   0.9798
B( 16-S , 17-C ) :   1.1598 B( 16-S , 20-C ) :   1.1370 B( 17-C , 18-C ) :   1.5864
B( 17-C , 33-H ) :   0.9700 B( 18-C , 19-C ) :   1.2566 B( 18-C , 21-H ) :   0.9951
B( 19-C , 20-C ) :   1.5537 B( 19-C , 22-C ) :   1.0549 B( 22-C , 23-H ) :   0.9407
B( 22-C , 24-H ) :   0.9283 B( 22-C , 25-C ) :   1.0420 B( 25-C , 26-H ) :   0.9543
B( 25-C , 27-H ) :   0.9640 B( 25-C , 28-C ) :   1.0679 B( 28-C , 29-H ) :   0.9747
B( 28-C , 30-H ) :   0.9718 B( 28-C , 31-H ) :   0.9752

Dispersion correction           -0.014925223
FINAL SINGLE POINT ENERGY     -1339.869331676076

DIPOLE MOMENT
-------------
                                X             Y             Z
Electronic contribution:     13.10410       7.71322     -28.70332
Nuclear contribution   :    -13.53138      -7.77048      29.18742
                        -----------------------------------------
Total Dipole Moment    :     -0.42727      -0.05726       0.48410
                        -----------------------------------------
Magnitude (a.u.)       :      0.64823
Magnitude (Debye)      :      1.64766

Rotational constants in cm-1:     0.019281     0.009113     0.006894
Rotational constants in MHz :   578.016621   273.190949   206.668718

                             ****ORCA TERMINATED NORMALLY****
TOTAL RUN TIME: 0 days 0 hours 0 minutes 22 seconds 222 msec
