                         Program Version 4.2.1 -  RELEASE  -
|  1> ! wB97X-D3 SP def2-SVP
|  2> %pal
|  3> nprocs 24
|  4> end
|  5>
|  6> * xyz 0 1
|  7> S 	 -45.3289 	 26.7289 	 31.7803
|  8> C 	 -46.3722 	 27.5727 	 32.9326
|  9> C 	 -47.1046 	 26.6979 	 33.7543
| 10> C 	 -46.9733 	 25.332 	 33.2778
| 11> C 	 -45.8989 	 25.1349 	 32.3959
| 12> H 	 -47.4141 	 24.5176 	 33.7267
| 13> C 	 -48.0863 	 27.1002 	 34.8106
| 14> H 	 -48.9981 	 26.5235 	 34.7872
| 15> H 	 -48.4314 	 28.1331 	 34.5997
| 16> C 	 -47.4518 	 26.9744 	 36.2633
| 17> H 	 -48.2566 	 27.3099 	 37.003
| 18> H 	 -47.2558 	 25.9729 	 36.5724
| 19> C 	 -46.1294 	 27.6951 	 36.5603
| 20> H 	 -46.1136 	 28.7308 	 36.3317
| 21> H 	 -45.8615 	 27.6606 	 37.6563
| 22> H 	 -45.3343 	 27.2213 	 36.0118
| 23> S 	 -45.9684 	 23.5546 	 30.1862
| 24> C 	 -45.1473 	 22.0271 	 30.2385
| 25> C 	 -44.7306 	 21.6861 	 31.5287
| 26> C 	 -45.0062 	 22.7379 	 32.4797
| 27> C 	 -45.5557 	 23.8612 	 31.831
| 28> H 	 -44.4075 	 20.6626 	 31.7163
| 29> C 	 -44.8996 	 22.6525 	 33.966
| 30> H 	 -45.9209 	 22.6567 	 34.4105
| 31> H 	 -44.4182 	 23.5944 	 34.2389
| 32> C 	 -43.9954 	 21.5811 	 34.5657
| 33> H 	 -43.0372 	 21.9628 	 34.35
| 34> H 	 -44.1062 	 20.5913 	 34.0657
| 35> C 	 -43.9826 	 21.3565 	 36.0735
| 36> H 	 -43.0189 	 21.6249 	 36.5602
| 37> H 	 -44.0965 	 20.2808 	 36.4244
| 38> H 	 -44.6988 	 21.9857 	 36.6407
| 39> H 	 -46.4298 	 28.6425 	 32.9598
| 40> H 	 -45.0456 	 21.4218 	 29.3742
| 41> *
| 42>
| 43>                          ****END OF INPUT****

CARTESIAN COORDINATES (ANGSTROEM)
---------------------------------
  S    -45.328900   26.728900   31.780300
  C    -46.372200   27.572700   32.932600
  C    -47.104600   26.697900   33.754300
  C    -46.973300   25.332000   33.277800
  C    -45.898900   25.134900   32.395900
  H    -47.414100   24.517600   33.726700
  C    -48.086300   27.100200   34.810600
  H    -48.998100   26.523500   34.787200
  H    -48.431400   28.133100   34.599700
  C    -47.451800   26.974400   36.263300
  H    -48.256600   27.309900   37.003000
  H    -47.255800   25.972900   36.572400
  C    -46.129400   27.695100   36.560300
  H    -46.113600   28.730800   36.331700
  H    -45.861500   27.660600   37.656300
  H    -45.334300   27.221300   36.011800
  S    -45.968400   23.554600   30.186200
  C    -45.147300   22.027100   30.238500
  C    -44.730600   21.686100   31.528700
  C    -45.006200   22.737900   32.479700
  C    -45.555700   23.861200   31.831000
  H    -44.407500   20.662600   31.716300
  C    -44.899600   22.652500   33.966000
  H    -45.920900   22.656700   34.410500
  H    -44.418200   23.594400   34.238900
  C    -43.995400   21.581100   34.565700
  H    -43.037200   21.962800   34.350000
  H    -44.106200   20.591300   34.065700
  C    -43.982600   21.356500   36.073500
  H    -43.018900   21.624900   36.560200
  H    -44.096500   20.280800   36.424400
  H    -44.698800   21.985700   36.640700
  H    -46.429800   28.642500   32.959800
  H    -45.045600   21.421800   29.374200

 Total Charge           Charge          ....    0
 Multiplicity           Mult            ....    1
 Number of Electrons    NEL             ....  134
 Basis Dimension        Dim             ....  322

ORBITAL ENERGIES
----------------

  NO   OCC          E(Eh)            E(eV)
   0   2.0000     -88.967337     -2420.9243
   1   2.0000     -88.965686     -2420.8794
   2   2.0000     -10.330129      -281.0971
   3   2.0000     -10.319325      -280.8031
   4   2.0000     -10.318884      -280.7911
   5   2.0000     -10.314814      -280.6804
   6   2.0000     -10.306376      -280.4508
   7   2.0000     -10.305411      -280.4245
   8   2.0000     -10.298875      -280.2466
   9   2.0000     -10.297518      -280.2097
  10   2.0000     -10.293259      -280.0938
  11   2.0000     -10.292944      -280.0852
  12   2.0000     -10.292890      -280.0838
  13   2.0000     -10.286313      -279.9048
  14   2.0000     -10.285090      -279.8715
  15   2.0000     -10.274732      -279.5897
  16   2.0000      -8.081197      -219.9006
  17   2.0000      -8.080865      -219.8915
  18   2.0000      -6.039468      -164.3423
  19   2.0000      -6.039424      -164.3411
  20   2.0000      -6.035637      -164.2380
  21   2.0000      -6.035552      -164.2357
  22   2.0000      -6.032126      -164.1425
  23   2.0000      -6.031627      -164.1289
  24   2.0000      -1.003635       -27.3103
  25   2.0000      -0.976039       -26.5594
  26   2.0000      -0.912372       -24.8269
  27   2.0000      -0.904223       -24.6052
  28   2.0000      -0.867518       -23.6064
  29   2.0000      -0.851912       -23.1817
  30   2.0000      -0.844345       -22.9758
  31   2.0000      -0.812235       -22.1020
  32   2.0000      -0.784044       -21.3349
  33   2.0000      -0.770496       -20.9663
  34   2.0000      -0.707062       -19.2401
  35   2.0000      -0.700328       -19.0569
  36   2.0000      -0.694745       -18.9050
  37   2.0000      -0.650997       -17.7145
  38   2.0000      -0.645157       -17.5556
  39   2.0000      -0.617176       -16.7942
  40   2.0000      -0.597727       -16.2650
  41   2.0000      -0.570788       -15.5319
  42   2.0000      -0.565731       -15.3943
  43   2.0000      -0.544537       -14.8176
  44   2.0000      -0.539422       -14.6784
  45   2.0000      -0.523479       -14.2446
  46   2.0000      -0.518067       -14.0973
  47   2.0000      -0.511151       -13.9091
  48   2.0000      -0.502305       -13.6684
  49   2.0000      -0.497537       -13.5387
  50   2.0000      -0.490485       -13.3468
  51   2.0000      -0.473156       -12.8752
  52   2.0000      -0.471630       -12.8337
  53   2.0000      -0.467301       -12.7159
  54   2.0000      -0.457518       -12.4497
  55   2.0000      -0.453722       -12.3464
  56   2.0000      -0.444004       -12.0820
  57   2.0000      -0.437562       -11.9067
  58   2.0000      -0.430301       -11.7091
  59   2.0000      -0.424921       -11.5627
  60   2.0000      -0.419888       -11.4257
  61   2.0000      -0.414027       -11.2662
  62   2.0000      -0.412958       -11.2372
  63   2.0000      -0.338572        -9.2130
  64   2.0000      -0.327257        -8.9051
  65   2.0000      -0.321540        -8.7495
  66   2.0000      -0.295518        -8.0415
  67   0.0000       0.026990         0.7344
  68   0.0000       0.061766         1.6807
  69   0.0000       0.111934         3.0459
  70   0.0000       0.116411         3.1677
  71   0.0000       0.123030         3.3478

MULLIKEN ATOMIC CHARGES
-----------------------
   0 S :    0.109700
   1 C :   -0.119160
   2 C :   -0.089396
   3 C :    0.075457
   4 C :   -0.179877
   5 H :   -0.011334
   6 C :    0.080368
   7 H :    0.029592
   8 H :    0.027483
   9 C :   -0.098519
  10 H :    0.035386
  11 H :    0.023600
  12 C :   -0.052203
  13 H :    0.018977
  14 H :    0.037951
  15 H :    0.041304
  16 S :    0.130716
  17 C :   -0.089930
  18 C :   -0.047380
  19 C :   -0.037964
  20 C :   -0.178647
  21 H :    0.027443
  22 C :    0.072105
  23 H :    0.046274
  24 H :    0.037617
  25 C :   -0.072695
  26 H :    0.023681
  27 H :    0.039232
  28 C :   -0.075730
  29 H :    0.031001
  30 H :    0.042769
  31 H :    0.029049
  32 H :    0.047112
  33 H :    0.046019
Sum of atomic charges:    0.0000000

LOEWDIN ATOMIC CHARGES
----------------------
   0 S :    0.379192
   1 C :   -0.184482
   2 C :   -0.062137
   3 C :   -0.038984
   4 C :   -0.187696
   5 H :    0.015260
   6 C :   -0.031159
   7 H :    0.032501
   8 H :    0.033762
   9 C :   -0.042909
  10 H :    0.028621
  11 H :    0.019011
  12 C :   -0.068365
  13 H :    0.015681
  14 H :    0.035303
  15 H :    0.025071
  16 S :    0.433194
  17 C :   -0.184138
  18 C :   -0.075250
  19 C :   -0.048109
  20 C :   -0.220472
  21 H :    0.033646
  22 C :   -0.037059
  23 H :    0.033366
  24 H :    0.040085
  25 C :   -0.049002
  26 H :    0.025250
  27 H :    0.027008
  28 C :   -0.079246
  29 H :    0.029157
  30 H :    0.034496
  31 H :    0.025929
  32 H :    0.022611
  33 H :    0.019866

  Mayer bond orders larger than 0.100000
B(  0-S ,  1-C ) :   1.1438 B(  0-S ,  4-C ) :   1.1264 B(  1-C ,  2-C ) :   1.5949
B(  1-C , 32-H ) :   0.9686 B(  2-C ,  3-C ) :   1.2360 B(  2-C ,  6-C ) :   1.0374
B(  3-C ,  4-C ) :   1.5776 B(  3-C ,  5-H ) :   0.9896 B(  4-C , 20-C ) :   1.0682
B(  6-C ,  7-H ) :   0.9437 B(  6-C ,  8-H ) :   0.9453 B(  6-C ,  9-C ) :   1.0479
B(  9-C , 10-H ) :   0.9586 B(  9-C , 11-H ) :   0.9601 B(  9-C , 12-C ) :   1.0777
B( 12-C , 13-H ) :   0.9776 B( 12-C , 14-H ) :   0.9724 B( 12-C , 15-H ) :   0.9722
B( 16-S , 17-C ) :   1.1736 B( 16-S , 20-C ) :   1.1673 B( 17-C , 18-C ) :   1.5801
B( 17-C , 20-C ) :   0.1022 B( 17-C , 33-H ) :   0.9714 B( 18-C , 19-C ) :   1.2577
B( 18-C , 21-H ) :   0.9887 B( 19-C , 20-C ) :   1.5578 B( 19-C , 22-C ) :   1.0474
B( 22-C , 23-H ) :   0.9275 B( 22-C , 24-H ) :   0.9219 B( 22-C , 25-C ) :   1.0712
B( 25-C , 26-H ) :   0.9625 B( 25-C , 27-H ) :   0.9582 B( 25-C , 28-C ) :   1.0647
B( 28-C , 29-H ) :   0.9784 B( 28-C , 30-H ) :   0.9781 B( 28-C , 31-H ) :   0.9769

Dispersion correction           -0.014282309
FINAL SINGLE POINT ENERGY     -1339.868145839383

DIPOLE MOMENT
-------------
                                X             Y             Z
Electronic contribution:     -0.98248       3.41492     -30.32654
Nuclear contribution   :      0.80065      -3.63757      30.90069
                        -----------------------------------------
Total Dipole Moment    :     -0.18183      -0.22265       0.57415
                        -----------------------------------------
Magnitude (a.u.)       :      0.64209
Magnitude (Debye)      :      1.63207

Rotational constants in cm-1:     0.016382     0.009555     0.006670
Rotational constants in MHz :   491.106137   286.445203   199.962555

                             ****ORCA TERMINATED NORMALLY****
TOTAL RUN TIME: 0 days 0 hours 0 minutes 21 seconds 605 msec
