                         Program Version 4.2.1 -  RELEASE  -
|  1> ! wB97X-D3 SP def2-SVP
|  2> %pal
|  3> nprocs 24
|  4> end
|  5>
|  6> * xyz 0 1
|  7> S 	 -59.3436 	 6.59742 	 -10.1869
|  8> C 	 -59.1728 	 4.91289 	 -10.8728
|  9> C 	 -59.7276 	 4.86434 	 -12.1246
| 10> C 	 -60.1719 	 6.09573 	 -12.5889
| 11> C 	 -60.1072 	 7.1042 	 -11.6219
| 12> H 	 -60.462 	 6.19993 	 -13.6464
| 13> C 	 -59.7064 	 3.66483 	 -13.0541
| 14> H 	 -60.6879 	 3.61106 	 -13.6411
| 15> H 	 -59.816 	 2.75618 	 -12.4616
| 16> C 	 -58.5028 	 3.65498 	 -14.0179
| 17> H 	 -58.3417 	 4.66331 	 -14.4348
| 18> H 	 -57.6508 	 3.2859 	 -13.4087
| 19> C 	 -58.4782 	 2.58939 	 -15.1392
| 20> H 	 -57.4861 	 2.62361 	 -15.6414
| 21> H 	 -58.5127 	 1.55459 	 -14.8218
| 22> H 	 -59.2711 	 2.83496 	 -15.8623
| 23> S 	 -61.9996 	 8.84392 	 -10.8896
| 24> C 	 -62.1089 	 10.3711 	 -11.7442
| 25> C 	 -61.2678 	 10.419 	 -12.7917
| 26> C 	 -60.4004 	 9.29396 	 -12.9316
| 27> C 	 -60.6064 	 8.42962 	 -11.8819
| 28> H 	 -61.5276 	 11.0779 	 -13.6131
| 29> C 	 -59.294 	 9.03789 	 -13.9694
| 30> H 	 -58.884 	 7.98726 	 -13.8393
| 31> H 	 -58.4217 	 9.75557 	 -13.9368
| 32> C 	 -59.6553 	 9.32011 	 -15.5421
| 33> H 	 -58.6946 	 9.33175 	 -15.9889
| 34> H 	 -60.0566 	 10.2882 	 -15.6562
| 35> C 	 -60.7189 	 8.3914 	 -16.1404
| 36> H 	 -61.6185 	 8.30645 	 -15.5358
| 37> H 	 -60.3182 	 7.42446 	 -16.3553
| 38> H 	 -61.0463 	 8.86389 	 -17.0863
| 39> H 	 -58.6753 	 4.00471 	 -10.5504
| 40> H 	 -62.9124 	 11.0724 	 -11.6516
| 41> *
| 42>
| 43>                          ****END OF INPUT****

CARTESIAN COORDINATES (ANGSTROEM)
---------------------------------
  S    -59.343600    6.597420  -10.186900
  C    -59.172800    4.912890  -10.872800
  C    -59.727600    4.864340  -12.124600
  C    -60.171900    6.095730  -12.588900
  C    -60.107200    7.104200  -11.621900
  H    -60.462000    6.199930  -13.646400
  C    -59.706400    3.664830  -13.054100
  H    -60.687900    3.611060  -13.641100
  H    -59.816000    2.756180  -12.461600
  C    -58.502800    3.654980  -14.017900
  H    -58.341700    4.663310  -14.434800
  H    -57.650800    3.285900  -13.408700
  C    -58.478200    2.589390  -15.139200
  H    -57.486100    2.623610  -15.641400
  H    -58.512700    1.554590  -14.821800
  H    -59.271100    2.834960  -15.862300
  S    -61.999600    8.843920  -10.889600
  C    -62.108900   10.371100  -11.744200
  C    -61.267800   10.419000  -12.791700
  C    -60.400400    9.293960  -12.931600
  C    -60.606400    8.429620  -11.881900
  H    -61.527600   11.077900  -13.613100
  C    -59.294000    9.037890  -13.969400
  H    -58.884000    7.987260  -13.839300
  H    -58.421700    9.755570  -13.936800
  C    -59.655300    9.320110  -15.542100
  H    -58.694600    9.331750  -15.988900
  H    -60.056600   10.288200  -15.656200
  C    -60.718900    8.391400  -16.140400
  H    -61.618500    8.306450  -15.535800
  H    -60.318200    7.424460  -16.355300
  H    -61.046300    8.863890  -17.086300
  H    -58.675300    4.004710  -10.550400
  H    -62.912400   11.072400  -11.651600

 Total Charge           Charge          ....    0
 Multiplicity           Mult            ....    1
 Number of Electrons    NEL             ....  134
 Basis Dimension        Dim             ....  322

ORBITAL ENERGIES
----------------

  NO   OCC          E(Eh)            E(eV)
   0   2.0000     -88.974130     -2421.1092
   1   2.0000     -88.963098     -2420.8090
   2   2.0000     -10.326010      -280.9850
   3   2.0000     -10.322616      -280.8927
   4   2.0000     -10.315309      -280.6938
   5   2.0000     -10.311677      -280.5950
   6   2.0000     -10.304777      -280.4072
   7   2.0000     -10.304703      -280.4052
   8   2.0000     -10.298331      -280.2318
   9   2.0000     -10.295030      -280.1420
  10   2.0000     -10.293276      -280.0943
  11   2.0000     -10.289542      -279.9927
  12   2.0000     -10.289296      -279.9860
  13   2.0000     -10.287304      -279.9318
  14   2.0000     -10.284193      -279.8471
  15   2.0000     -10.277437      -279.6633
  16   2.0000      -8.087912      -220.0833
  17   2.0000      -8.078145      -219.8175
  18   2.0000      -6.046527      -164.5344
  19   2.0000      -6.042564      -164.4265
  20   2.0000      -6.038586      -164.3183
  21   2.0000      -6.036660      -164.2659
  22   2.0000      -6.032796      -164.1607
  23   2.0000      -6.028676      -164.0486
  24   2.0000      -1.011116       -27.5139
  25   2.0000      -0.985758       -26.8239
  26   2.0000      -0.912046       -24.8180
  27   2.0000      -0.897211       -24.4143
  28   2.0000      -0.872224       -23.7344
  29   2.0000      -0.852829       -23.2067
  30   2.0000      -0.847011       -23.0483
  31   2.0000      -0.811367       -22.0784
  32   2.0000      -0.784170       -21.3384
  33   2.0000      -0.774303       -21.0699
  34   2.0000      -0.711948       -19.3731
  35   2.0000      -0.699291       -19.0287
  36   2.0000      -0.696173       -18.9438
  37   2.0000      -0.654839       -17.8191
  38   2.0000      -0.630199       -17.1486
  39   2.0000      -0.621931       -16.9236
  40   2.0000      -0.597682       -16.2637
  41   2.0000      -0.568392       -15.4667
  42   2.0000      -0.563886       -15.3441
  43   2.0000      -0.545899       -14.8547
  44   2.0000      -0.535445       -14.5702
  45   2.0000      -0.525493       -14.2994
  46   2.0000      -0.520466       -14.1626
  47   2.0000      -0.510330       -13.8868
  48   2.0000      -0.498893       -13.5756
  49   2.0000      -0.495734       -13.4896
  50   2.0000      -0.491948       -13.3866
  51   2.0000      -0.481859       -13.1121
  52   2.0000      -0.474138       -12.9020
  53   2.0000      -0.466476       -12.6934
  54   2.0000      -0.462551       -12.5867
  55   2.0000      -0.451472       -12.2852
  56   2.0000      -0.445660       -12.1270
  57   2.0000      -0.435478       -11.8500
  58   2.0000      -0.431441       -11.7401
  59   2.0000      -0.430030       -11.7017
  60   2.0000      -0.425998       -11.5920
  61   2.0000      -0.409121       -11.1327
  62   2.0000      -0.407073       -11.0770
  63   2.0000      -0.340124        -9.2552
  64   2.0000      -0.338247        -9.2042
  65   2.0000      -0.327021        -8.8987
  66   2.0000      -0.294399        -8.0110
  67   0.0000       0.033875         0.9218
  68   0.0000       0.064074         1.7435
  69   0.0000       0.104514         2.8440
  70   0.0000       0.107178         2.9165
  71   0.0000       0.121371         3.3027

MULLIKEN ATOMIC CHARGES
-----------------------
   0 S :    0.134909
   1 C :   -0.115405
   2 C :   -0.083282
   3 C :    0.020430
   4 C :   -0.165790
   5 H :    0.017008
   6 C :    0.038235
   7 H :    0.029962
   8 H :    0.017528
   9 C :   -0.080017
  10 H :    0.040966
  11 H :    0.031822
  12 C :   -0.056618
  13 H :    0.037992
  14 H :    0.032904
  15 H :    0.036949
  16 S :    0.101207
  17 C :   -0.070217
  18 C :   -0.037685
  19 C :    0.005336
  20 C :   -0.160806
  21 H :    0.025633
  22 C :   -0.011117
  23 H :    0.048571
  24 H :    0.048070
  25 C :   -0.072489
  26 H :    0.025873
  27 H :    0.018536
  28 C :   -0.040862
  29 H :    0.042408
  30 H :    0.026786
  31 H :    0.030442
  32 H :    0.035351
  33 H :    0.047371
Sum of atomic charges:   -0.0000000

LOEWDIN ATOMIC CHARGES
----------------------
   0 S :    0.414964
   1 C :   -0.187672
   2 C :   -0.066534
   3 C :   -0.065553
   4 C :   -0.216577
   5 H :    0.034597
   6 C :   -0.039775
   7 H :    0.033934
   8 H :    0.027284
   9 C :   -0.043558
  10 H :    0.027540
  11 H :    0.030584
  12 C :   -0.070568
  13 H :    0.032768
  14 H :    0.023894
  15 H :    0.023438
  16 S :    0.397624
  17 C :   -0.176922
  18 C :   -0.076047
  19 C :   -0.060523
  20 C :   -0.185547
  21 H :    0.033275
  22 C :   -0.037216
  23 H :    0.036491
  24 H :    0.038818
  25 C :   -0.032906
  26 H :    0.021014
  27 H :    0.015714
  28 C :   -0.066584
  29 H :    0.027868
  30 H :    0.017602
  31 H :    0.029943
  32 H :    0.032249
  33 H :    0.026383

  Mayer bond orders larger than 0.100000
B(  0-S ,  1-C ) :   1.1114 B(  0-S ,  4-C ) :   1.1746 B(  1-C ,  2-C ) :   1.6250
B(  1-C ,  4-C ) :   0.1008 B(  1-C , 32-H ) :   0.9627 B(  2-C ,  3-C ) :   1.2793
B(  2-C ,  6-C ) :   1.0272 B(  3-C ,  4-C ) :   1.5210 B(  3-C ,  5-H ) :   0.9904
B(  4-C , 20-C ) :   1.0194 B(  6-C ,  7-H ) :   0.9428 B(  6-C ,  8-H ) :   0.9367
B(  6-C ,  9-C ) :   1.0515 B(  9-C , 10-H ) :   0.9594 B(  9-C , 11-H ) :   0.9555
B(  9-C , 12-C ) :   1.0810 B( 12-C , 13-H ) :   0.9736 B( 12-C , 14-H ) :   0.9754
B( 12-C , 15-H ) :   0.9756 B( 16-S , 17-C ) :   1.1320 B( 16-S , 20-C ) :   1.1509
B( 17-C , 18-C ) :   1.6666 B( 17-C , 33-H ) :   0.9642 B( 18-C , 19-C ) :   1.2156
B( 18-C , 21-H ) :   0.9750 B( 19-C , 20-C ) :   1.6182 B( 19-C , 22-C ) :   1.0378
B( 22-C , 23-H ) :   0.9396 B( 22-C , 24-H ) :   0.9436 B( 22-C , 25-C ) :   1.0537
B( 25-C , 26-H ) :   0.9612 B( 25-C , 27-H ) :   0.9606 B( 25-C , 28-C ) :   1.0734
B( 28-C , 29-H ) :   0.9736 B( 28-C , 30-H ) :   0.9762 B( 28-C , 31-H ) :   0.9739

Dispersion correction           -0.014758682
FINAL SINGLE POINT ENERGY     -1339.858698719485

DIPOLE MOMENT
-------------
                                X             Y             Z
Electronic contribution:     -7.65273      12.05279      28.97049
Nuclear contribution   :      7.75601     -12.28368     -29.80179
                        -----------------------------------------
Total Dipole Moment    :      0.10327      -0.23089      -0.83129
                        -----------------------------------------
Magnitude (a.u.)       :      0.86892
Magnitude (Debye)      :      2.20862

Rotational constants in cm-1:     0.017668     0.009571     0.006855
Rotational constants in MHz :   529.682959   286.917457   205.499400

                             ****ORCA TERMINATED NORMALLY****
TOTAL RUN TIME: 0 days 0 hours 0 minutes 22 seconds 121 msec
