                         Program Version 4.2.1 -  RELEASE  -
|  1> ! wB97X-D3 SP def2-SVP
|  2> %pal
|  3> nprocs 24
|  4> end
|  5>
|  6> * xyz 0 1
|  7> S 	 -38.5836 	 -7.50019 	 8.40256
|  8> C 	 -39.8962 	 -8.56978 	 8.69708
|  9> C 	 -40.0314 	 -9.43282 	 7.60512
| 10> C 	 -38.9964 	 -9.3173 	 6.59706
| 11> C 	 -37.9945 	 -8.43435 	 7.00895
| 12> H 	 -38.9015 	 -9.97765 	 5.706
| 13> C 	 -41.082 	 -10.5264 	 7.47444
| 14> H 	 -41.1692 	 -11.1387 	 8.39273
| 15> H 	 -40.8019 	 -11.2386 	 6.6661
| 16> C 	 -42.4837 	 -9.95421 	 7.24644
| 17> H 	 -42.8206 	 -9.4637 	 8.16015
| 18> H 	 -42.4162 	 -9.23044 	 6.46467
| 19> C 	 -43.6266 	 -10.9678 	 6.98909
| 20> H 	 -43.2934 	 -11.7301 	 6.21617
| 21> H 	 -43.9786 	 -11.4963 	 7.94651
| 22> H 	 -44.5387 	 -10.4615 	 6.58542
| 23> S 	 -35.5726 	 -7.41107 	 7.47524
| 24> C 	 -34.3684 	 -7.45123 	 6.20451
| 25> C 	 -34.7944 	 -8.06087 	 5.04422
| 26> C 	 -36.1726 	 -8.45483 	 5.13001
| 27> C 	 -36.7502 	 -8.12447 	 6.3622
| 28> H 	 -34.1446 	 -8.11963 	 4.18822
| 29> C 	 -36.9133 	 -9.19766 	 3.99973
| 30> H 	 -37.256 	 -10.1247 	 4.53519
| 31> H 	 -36.0216 	 -9.5326 	 3.36817
| 32> C 	 -38.0126 	 -8.44092 	 3.23719
| 33> H 	 -37.7234 	 -7.35346 	 3.12181
| 34> H 	 -38.9156 	 -8.48297 	 3.89342
| 35> C 	 -38.3533 	 -8.91771 	 1.82613
| 36> H 	 -38.9774 	 -8.25209 	 1.27071
| 37> H 	 -38.7973 	 -9.88764 	 1.76081
| 38> H 	 -37.4132 	 -9.01934 	 1.36519
| 39> H 	 -40.476 	 -8.47958 	 9.68933
| 40> H 	 -33.3747 	 -7.12386 	 6.25496
| 41> *
| 42>
| 43>                          ****END OF INPUT****

CARTESIAN COORDINATES (ANGSTROEM)
---------------------------------
  S    -38.583600   -7.500190    8.402560
  C    -39.896200   -8.569780    8.697080
  C    -40.031400   -9.432820    7.605120
  C    -38.996400   -9.317300    6.597060
  C    -37.994500   -8.434350    7.008950
  H    -38.901500   -9.977650    5.706000
  C    -41.082000  -10.526400    7.474440
  H    -41.169200  -11.138700    8.392730
  H    -40.801900  -11.238600    6.666100
  C    -42.483700   -9.954210    7.246440
  H    -42.820600   -9.463700    8.160150
  H    -42.416200   -9.230440    6.464670
  C    -43.626600  -10.967800    6.989090
  H    -43.293400  -11.730100    6.216170
  H    -43.978600  -11.496300    7.946510
  H    -44.538700  -10.461500    6.585420
  S    -35.572600   -7.411070    7.475240
  C    -34.368400   -7.451230    6.204510
  C    -34.794400   -8.060870    5.044220
  C    -36.172600   -8.454830    5.130010
  C    -36.750200   -8.124470    6.362200
  H    -34.144600   -8.119630    4.188220
  C    -36.913300   -9.197660    3.999730
  H    -37.256000  -10.124700    4.535190
  H    -36.021600   -9.532600    3.368170
  C    -38.012600   -8.440920    3.237190
  H    -37.723400   -7.353460    3.121810
  H    -38.915600   -8.482970    3.893420
  C    -38.353300   -8.917710    1.826130
  H    -38.977400   -8.252090    1.270710
  H    -38.797300   -9.887640    1.760810
  H    -37.413200   -9.019340    1.365190
  H    -40.476000   -8.479580    9.689330
  H    -33.374700   -7.123860    6.254960

 Total Charge           Charge          ....    0
 Multiplicity           Mult            ....    1
 Number of Electrons    NEL             ....  134
 Basis Dimension        Dim             ....  322

ORBITAL ENERGIES
----------------

  NO   OCC          E(Eh)            E(eV)
   0   2.0000     -88.968111     -2420.9454
   1   2.0000     -88.964859     -2420.8569
   2   2.0000     -10.334074      -281.2044
   3   2.0000     -10.327995      -281.0390
   4   2.0000     -10.320807      -280.8434
   5   2.0000     -10.314205      -280.6638
   6   2.0000     -10.309812      -280.5442
   7   2.0000     -10.307035      -280.4687
   8   2.0000     -10.306154      -280.4447
   9   2.0000     -10.300969      -280.3036
  10   2.0000     -10.296120      -280.1717
  11   2.0000     -10.295106      -280.1441
  12   2.0000     -10.293449      -280.0990
  13   2.0000     -10.290810      -280.0272
  14   2.0000     -10.282100      -279.7902
  15   2.0000     -10.271319      -279.4968
  16   2.0000      -8.082474      -219.9353
  17   2.0000      -8.079824      -219.8632
  18   2.0000      -6.041027      -164.3847
  19   2.0000      -6.038429      -164.3140
  20   2.0000      -6.037048      -164.2764
  21   2.0000      -6.034282      -164.2012
  22   2.0000      -6.033190      -164.1714
  23   2.0000      -6.030484      -164.0978
  24   2.0000      -1.006696       -27.3936
  25   2.0000      -0.981749       -26.7148
  26   2.0000      -0.908069       -24.7098
  27   2.0000      -0.906117       -24.6567
  28   2.0000      -0.871479       -23.7141
  29   2.0000      -0.856514       -23.3069
  30   2.0000      -0.843671       -22.9575
  31   2.0000      -0.813338       -22.1321
  32   2.0000      -0.782090       -21.2817
  33   2.0000      -0.765396       -20.8275
  34   2.0000      -0.708027       -19.2664
  35   2.0000      -0.693572       -18.8731
  36   2.0000      -0.689764       -18.7694
  37   2.0000      -0.669372       -18.2145
  38   2.0000      -0.637056       -17.3352
  39   2.0000      -0.619282       -16.8515
  40   2.0000      -0.587831       -15.9957
  41   2.0000      -0.567630       -15.4460
  42   2.0000      -0.562780       -15.3140
  43   2.0000      -0.557492       -15.1701
  44   2.0000      -0.532079       -14.4786
  45   2.0000      -0.519841       -14.1456
  46   2.0000      -0.516007       -14.0413
  47   2.0000      -0.511726       -13.9248
  48   2.0000      -0.502103       -13.6629
  49   2.0000      -0.501240       -13.6394
  50   2.0000      -0.491646       -13.3784
  51   2.0000      -0.484867       -13.1939
  52   2.0000      -0.474528       -12.9126
  53   2.0000      -0.461728       -12.5643
  54   2.0000      -0.456536       -12.4230
  55   2.0000      -0.454498       -12.3675
  56   2.0000      -0.446844       -12.1592
  57   2.0000      -0.435249       -11.8437
  58   2.0000      -0.425729       -11.5847
  59   2.0000      -0.422569       -11.4987
  60   2.0000      -0.416503       -11.3336
  61   2.0000      -0.415773       -11.3138
  62   2.0000      -0.410832       -11.1793
  63   2.0000      -0.361599        -9.8396
  64   2.0000      -0.336003        -9.1431
  65   2.0000      -0.326949        -8.8967
  66   2.0000      -0.279188        -7.5971
  67   0.0000       0.014190         0.3861
  68   0.0000       0.079865         2.1732
  69   0.0000       0.097019         2.6400
  70   0.0000       0.113095         3.0775
  71   0.0000       0.130692         3.5563

MULLIKEN ATOMIC CHARGES
-----------------------
   0 S :    0.094792
   1 C :   -0.153730
   2 C :   -0.075632
   3 C :   -0.019713
   4 C :   -0.108231
   5 H :    0.028046
   6 C :    0.050637
   7 H :    0.032242
   8 H :    0.022138
   9 C :   -0.074754
  10 H :    0.027233
  11 H :    0.026512
  12 C :   -0.093763
  13 H :    0.037161
  14 H :    0.045015
  15 H :    0.044628
  16 S :    0.100669
  17 C :   -0.050694
  18 C :   -0.040602
  19 C :   -0.084910
  20 C :   -0.110548
  21 H :    0.016962
  22 C :    0.014448
  23 H :    0.049081
  24 H :    0.024476
  25 C :   -0.073320
  26 H :    0.046168
  27 H :    0.038442
  28 C :   -0.004252
  29 H :    0.034995
  30 H :    0.019901
  31 H :    0.012485
  32 H :    0.091870
  33 H :    0.032248
Sum of atomic charges:    0.0000000

LOEWDIN ATOMIC CHARGES
----------------------
   0 S :    0.399802
   1 C :   -0.223891
   2 C :   -0.061216
   3 C :   -0.076102
   4 C :   -0.178763
   5 H :    0.036284
   6 C :   -0.036702
   7 H :    0.033445
   8 H :    0.027985
   9 C :   -0.044537
  10 H :    0.024478
  11 H :    0.019001
  12 C :   -0.080075
  13 H :    0.026223
  14 H :    0.031575
  15 H :    0.031177
  16 S :    0.401608
  17 C :   -0.173079
  18 C :   -0.070332
  19 C :   -0.053410
  20 C :   -0.190129
  21 H :    0.032273
  22 C :   -0.041715
  23 H :    0.035124
  24 H :    0.034844
  25 C :   -0.046851
  26 H :    0.036611
  27 H :    0.027577
  28 C :   -0.058743
  29 H :    0.026626
  30 H :    0.021271
  31 H :    0.019663
  32 H :    0.050652
  33 H :    0.019327

  Mayer bond orders larger than 0.100000
B(  0-S ,  1-C ) :   1.1336 B(  0-S ,  4-C ) :   1.1495 B(  1-C ,  2-C ) :   1.5805
B(  1-C , 32-H ) :   0.9619 B(  2-C ,  3-C ) :   1.2554 B(  2-C ,  6-C ) :   1.0299
B(  3-C ,  4-C ) :   1.5486 B(  3-C ,  5-H ) :   0.9765 B(  4-C , 20-C ) :   1.0985
B(  6-C ,  7-H ) :   0.9428 B(  6-C ,  8-H ) :   0.9451 B(  6-C ,  9-C ) :   1.0568
B(  9-C , 10-H ) :   0.9565 B(  9-C , 11-H ) :   0.9598 B(  9-C , 12-C ) :   1.0777
B( 12-C , 13-H ) :   0.9747 B( 12-C , 14-H ) :   0.9748 B( 12-C , 15-H ) :   0.9745
B( 16-S , 17-C ) :   1.1508 B( 16-S , 20-C ) :   1.1250 B( 17-C , 18-C ) :   1.6243
B( 17-C , 33-H ) :   0.9669 B( 18-C , 19-C ) :   1.2490 B( 18-C , 21-H ) :   0.9884
B( 19-C , 20-C ) :   1.5801 B( 19-C , 22-C ) :   1.0234 B( 22-C , 23-H ) :   0.9283
B( 22-C , 24-H ) :   0.9349 B( 22-C , 25-C ) :   1.0488 B( 25-C , 26-H ) :   0.9568
B( 25-C , 27-H ) :   0.9472 B( 25-C , 28-C ) :   1.0852 B( 28-C , 29-H ) :   0.9754
B( 28-C , 30-H ) :   0.9735 B( 28-C , 31-H ) :   0.9734

Dispersion correction           -0.013711740
FINAL SINGLE POINT ENERGY     -1339.874475129966

DIPOLE MOMENT
-------------
                                X             Y             Z
Electronic contribution:     21.38681      14.44706      18.35968
Nuclear contribution   :    -21.51076     -14.79731     -18.80683
                        -----------------------------------------
Total Dipole Moment    :     -0.12396      -0.35025      -0.44716
                        -----------------------------------------
Magnitude (a.u.)       :      0.58137
Magnitude (Debye)      :      1.47771

Rotational constants in cm-1:     0.018303     0.008636     0.006176
Rotational constants in MHz :   548.701334   258.892026   185.163494

                             ****ORCA TERMINATED NORMALLY****
TOTAL RUN TIME: 0 days 0 hours 0 minutes 20 seconds 59 msec
