                         Program Version 4.2.1 -  RELEASE  -
|  1> ! wB97X-D3 SP def2-SVP
|  2> %pal
|  3> nprocs 24
|  4> end
|  5>
|  6> * xyz 0 1
|  7> S 	 -48.7523 	 21.9305 	 20.3055
|  8> C 	 -50.4702 	 22.1104 	 20.4096
|  9> C 	 -51.0503 	 21.3401 	 21.3963
| 10> C 	 -50.0094 	 20.7169 	 22.2354
| 11> C 	 -48.7342 	 21.0475 	 21.8625
| 12> H 	 -50.0829 	 20.0458 	 23.139
| 13> C 	 -52.5483 	 21.0221 	 21.5066
| 14> H 	 -52.728 	 20.0203 	 21.7627
| 15> H 	 -53.109 	 21.1345 	 20.566
| 16> C 	 -53.3057 	 21.7648 	 22.6808
| 17> H 	 -53.1154 	 22.738 	 22.6449
| 18> H 	 -54.3541 	 21.6707 	 22.4029
| 19> C 	 -53.0424 	 21.2268 	 24.1004
| 20> H 	 -53.6712 	 21.7203 	 24.8259
| 21> H 	 -53.3015 	 20.1797 	 23.9919
| 22> H 	 -52.0203 	 21.3512 	 24.39
| 23> S 	 -47.3254 	 21.2495 	 24.2191
| 24> C 	 -45.9111 	 20.2823 	 24.4105
| 25> C 	 -45.5369 	 19.6262 	 23.2279
| 26> C 	 -46.5516 	 19.7433 	 22.1912
| 27> C 	 -47.4785 	 20.7214 	 22.5518
| 28> H 	 -44.6157 	 19.0528 	 23.2541
| 29> C 	 -46.496 	 19.0265 	 20.8389
| 30> H 	 -45.4614 	 18.8958 	 20.6083
| 31> H 	 -47.0778 	 19.6034 	 20.0819
| 32> C 	 -47.0076 	 17.6371 	 20.753
| 33> H 	 -48.1339 	 17.7997 	 20.6694
| 34> H 	 -46.8636 	 17.0433 	 21.7011
| 35> C 	 -46.5137 	 16.8589 	 19.5418
| 36> H 	 -46.7239 	 17.2814 	 18.5753
| 37> H 	 -47.1249 	 15.9369 	 19.5346
| 38> H 	 -45.5068 	 16.5387 	 19.709
| 39> H 	 -51.153 	 22.3407 	 19.5758
| 40> H 	 -45.2504 	 20.1073 	 25.323
| 41> *
| 42>
| 43>                          ****END OF INPUT****

CARTESIAN COORDINATES (ANGSTROEM)
---------------------------------
  S    -48.752300   21.930500   20.305500
  C    -50.470200   22.110400   20.409600
  C    -51.050300   21.340100   21.396300
  C    -50.009400   20.716900   22.235400
  C    -48.734200   21.047500   21.862500
  H    -50.082900   20.045800   23.139000
  C    -52.548300   21.022100   21.506600
  H    -52.728000   20.020300   21.762700
  H    -53.109000   21.134500   20.566000
  C    -53.305700   21.764800   22.680800
  H    -53.115400   22.738000   22.644900
  H    -54.354100   21.670700   22.402900
  C    -53.042400   21.226800   24.100400
  H    -53.671200   21.720300   24.825900
  H    -53.301500   20.179700   23.991900
  H    -52.020300   21.351200   24.390000
  S    -47.325400   21.249500   24.219100
  C    -45.911100   20.282300   24.410500
  C    -45.536900   19.626200   23.227900
  C    -46.551600   19.743300   22.191200
  C    -47.478500   20.721400   22.551800
  H    -44.615700   19.052800   23.254100
  C    -46.496000   19.026500   20.838900
  H    -45.461400   18.895800   20.608300
  H    -47.077800   19.603400   20.081900
  C    -47.007600   17.637100   20.753000
  H    -48.133900   17.799700   20.669400
  H    -46.863600   17.043300   21.701100
  C    -46.513700   16.858900   19.541800
  H    -46.723900   17.281400   18.575300
  H    -47.124900   15.936900   19.534600
  H    -45.506800   16.538700   19.709000
  H    -51.153000   22.340700   19.575800
  H    -45.250400   20.107300   25.323000

 Total Charge           Charge          ....    0
 Multiplicity           Mult            ....    1
 Number of Electrons    NEL             ....  134
 Basis Dimension        Dim             ....  322

ORBITAL ENERGIES
----------------

  NO   OCC          E(Eh)            E(eV)
   0   2.0000     -88.971936     -2421.0495
   1   2.0000     -88.965108     -2420.8637
   2   2.0000     -10.330185      -281.0986
   3   2.0000     -10.325884      -280.9816
   4   2.0000     -10.323217      -280.9090
   5   2.0000     -10.311919      -280.6016
   6   2.0000     -10.310636      -280.5667
   7   2.0000     -10.308429      -280.5066
   8   2.0000     -10.301988      -280.3313
   9   2.0000     -10.298619      -280.2397
  10   2.0000     -10.293793      -280.1083
  11   2.0000     -10.287545      -279.9383
  12   2.0000     -10.286996      -279.9234
  13   2.0000     -10.276230      -279.6304
  14   2.0000     -10.275078      -279.5991
  15   2.0000     -10.273681      -279.5611
  16   2.0000      -8.086487      -220.0445
  17   2.0000      -8.079327      -219.8497
  18   2.0000      -6.044962      -164.4918
  19   2.0000      -6.041017      -164.3844
  20   2.0000      -6.037956      -164.3011
  21   2.0000      -6.037289      -164.2830
  22   2.0000      -6.034060      -164.1951
  23   2.0000      -6.029825      -164.0799
  24   2.0000      -1.003732       -27.3129
  25   2.0000      -0.981063       -26.6961
  26   2.0000      -0.915523       -24.9126
  27   2.0000      -0.906444       -24.6656
  28   2.0000      -0.868342       -23.6288
  29   2.0000      -0.852537       -23.1987
  30   2.0000      -0.842051       -22.9134
  31   2.0000      -0.813390       -22.1335
  32   2.0000      -0.787064       -21.4171
  33   2.0000      -0.773545       -21.0492
  34   2.0000      -0.704337       -19.1660
  35   2.0000      -0.699147       -19.0248
  36   2.0000      -0.681410       -18.5421
  37   2.0000      -0.658121       -17.9084
  38   2.0000      -0.637559       -17.3489
  39   2.0000      -0.611823       -16.6486
  40   2.0000      -0.594143       -16.1674
  41   2.0000      -0.576214       -15.6796
  42   2.0000      -0.573881       -15.6161
  43   2.0000      -0.543185       -14.7808
  44   2.0000      -0.538346       -14.6491
  45   2.0000      -0.519755       -14.1432
  46   2.0000      -0.512761       -13.9529
  47   2.0000      -0.511451       -13.9173
  48   2.0000      -0.506137       -13.7727
  49   2.0000      -0.492886       -13.4121
  50   2.0000      -0.486522       -13.2389
  51   2.0000      -0.480307       -13.0698
  52   2.0000      -0.474899       -12.9227
  53   2.0000      -0.466378       -12.6908
  54   2.0000      -0.458905       -12.4874
  55   2.0000      -0.449256       -12.2249
  56   2.0000      -0.441281       -12.0079
  57   2.0000      -0.438202       -11.9241
  58   2.0000      -0.429141       -11.6775
  59   2.0000      -0.424791       -11.5591
  60   2.0000      -0.422620       -11.5001
  61   2.0000      -0.420621       -11.4457
  62   2.0000      -0.408397       -11.1130
  63   2.0000      -0.341085        -9.2814
  64   2.0000      -0.330413        -8.9910
  65   2.0000      -0.325267        -8.8510
  66   2.0000      -0.300598        -8.1797
  67   0.0000       0.034195         0.9305
  68   0.0000       0.063964         1.7405
  69   0.0000       0.099474         2.7068
  70   0.0000       0.113557         3.0900
  71   0.0000       0.127821         3.4782

MULLIKEN ATOMIC CHARGES
-----------------------
   0 S :    0.102469
   1 C :   -0.097212
   2 C :   -0.101314
   3 C :    0.023748
   4 C :   -0.192013
   5 H :    0.040718
   6 C :    0.052697
   7 H :    0.007935
   8 H :    0.025777
   9 C :   -0.040949
  10 H :   -0.003441
  11 H :    0.021546
  12 C :   -0.035104
  13 H :    0.037730
  14 H :    0.023101
  15 H :    0.037542
  16 S :    0.132824
  17 C :   -0.126270
  18 C :   -0.036518
  19 C :   -0.022722
  20 C :   -0.161897
  21 H :    0.021280
  22 C :    0.112979
  23 H :    0.007048
  24 H :    0.027366
  25 C :   -0.140868
  26 H :    0.032728
  27 H :    0.037761
  28 C :   -0.021413
  29 H :    0.034620
  30 H :    0.029607
  31 H :    0.033622
  32 H :    0.057118
  33 H :    0.079505
Sum of atomic charges:    0.0000000

LOEWDIN ATOMIC CHARGES
----------------------
   0 S :    0.392232
   1 C :   -0.212340
   2 C :   -0.058742
   3 C :   -0.069308
   4 C :   -0.184470
   5 H :    0.042095
   6 C :   -0.027735
   7 H :    0.022551
   8 H :    0.032355
   9 C :   -0.024603
  10 H :    0.000192
  11 H :    0.024415
  12 C :   -0.056736
  13 H :    0.027858
  14 H :    0.023621
  15 H :    0.022807
  16 S :    0.426078
  17 C :   -0.210140
  18 C :   -0.075608
  19 C :   -0.040191
  20 C :   -0.210258
  21 H :    0.031064
  22 C :   -0.036921
  23 H :    0.025824
  24 H :    0.029888
  25 C :   -0.052366
  26 H :    0.028659
  27 H :    0.027662
  28 C :   -0.063602
  29 H :    0.025530
  30 H :    0.034251
  31 H :    0.022631
  32 H :    0.035356
  33 H :    0.047952

  Mayer bond orders larger than 0.100000
B(  0-S ,  1-C ) :   1.1311 B(  0-S ,  4-C ) :   1.1235 B(  1-C ,  2-C ) :   1.6650
B(  1-C , 32-H ) :   0.9516 B(  2-C ,  3-C ) :   1.1842 B(  2-C ,  6-C ) :   1.0286
B(  3-C ,  4-C ) :   1.6433 B(  3-C ,  5-H ) :   0.9785 B(  4-C , 20-C ) :   1.0051
B(  6-C ,  7-H ) :   0.9441 B(  6-C ,  8-H ) :   0.9463 B(  6-C ,  9-C ) :   1.0578
B(  9-C , 10-H ) :   0.9562 B(  9-C , 11-H ) :   0.9563 B(  9-C , 12-C ) :   1.0773
B( 12-C , 13-H ) :   0.9724 B( 12-C , 14-H ) :   0.9776 B( 12-C , 15-H ) :   0.9752
B( 16-S , 17-C ) :   1.1646 B( 16-S , 20-C ) :   1.1346 B( 17-C , 18-C ) :   1.6242
B( 17-C , 33-H ) :   0.9547 B( 18-C , 19-C ) :   1.2281 B( 18-C , 21-H ) :   0.9858
B( 19-C , 20-C ) :   1.5993 B( 19-C , 22-C ) :   1.0428 B( 22-C , 23-H ) :   0.9317
B( 22-C , 24-H ) :   0.9289 B( 22-C , 25-C ) :   1.0621 B( 25-C , 26-H ) :   0.9529
B( 25-C , 27-H ) :   0.9559 B( 25-C , 28-C ) :   1.0903 B( 28-C , 29-H ) :   0.9723
B( 28-C , 30-H ) :   0.9697 B( 28-C , 31-H ) :   0.9718

Dispersion correction           -0.014258732
FINAL SINGLE POINT ENERGY     -1339.856430227411

DIPOLE MOMENT
-------------
                                X             Y             Z
Electronic contribution:     12.27830      14.51793       3.74557
Nuclear contribution   :    -12.50156     -15.15776      -3.73259
                        -----------------------------------------
Total Dipole Moment    :     -0.22326      -0.63983       0.01298
                        -----------------------------------------
Magnitude (a.u.)       :      0.67779
Magnitude (Debye)      :      1.72280

Rotational constants in cm-1:     0.017732     0.008511     0.007077
Rotational constants in MHz :   531.604335   255.160619   212.157644

                             ****ORCA TERMINATED NORMALLY****
TOTAL RUN TIME: 0 days 0 hours 0 minutes 20 seconds 210 msec
