                         Program Version 4.2.1 -  RELEASE  -
|  1> ! wB97X-D3 SP def2-SVP
|  2> %pal
|  3> nprocs 24
|  4> end
|  5>
|  6> * xyz 0 1
|  7> S 	 -122.391 	 56.0308 	 -58.9697
|  8> C 	 -122.541 	 56.2058 	 -60.7106
|  9> C 	 -123.646 	 55.5851 	 -61.2528
| 10> C 	 -124.637 	 55.4171 	 -60.2378
| 11> C 	 -124.152 	 55.8116 	 -58.9945
| 12> H 	 -125.64 	 55.1007 	 -60.4692
| 13> C 	 -123.942 	 55.1618 	 -62.6647
| 14> H 	 -124.333 	 55.8748 	 -63.3408
| 15> H 	 -124.899 	 54.5834 	 -62.6533
| 16> C 	 -122.861 	 54.5288 	 -63.5148
| 17> H 	 -122.241 	 53.8705 	 -62.8894
| 18> H 	 -123.254 	 53.968 	 -64.3868
| 19> C 	 -121.975 	 55.4312 	 -64.3877
| 20> H 	 -121.543 	 54.8292 	 -65.2349
| 21> H 	 -122.5 	 56.2851 	 -64.7937
| 22> H 	 -121.333 	 55.8651 	 -63.6988
| 23> S 	 -124.052 	 57.0811 	 -56.5605
| 24> C 	 -125.372 	 56.9365 	 -55.4414
| 25> C 	 -126.349 	 56.0758 	 -55.875
| 26> C 	 -126.02 	 55.4756 	 -57.1344
| 27> C 	 -124.809 	 55.9414 	 -57.6594
| 28> H 	 -127.19 	 55.9432 	 -55.1717
| 29> C 	 -126.802 	 54.309 	 -57.6189
| 30> H 	 -126.879 	 54.3591 	 -58.7181
| 31> H 	 -127.836 	 54.3671 	 -57.2184
| 32> C 	 -126.247 	 52.8819 	 -57.5139
| 33> H 	 -125.225 	 52.9056 	 -57.8622
| 34> H 	 -126.751 	 52.2191 	 -58.24
| 35> C 	 -126.367 	 52.2904 	 -56.0621
| 36> H 	 -125.805 	 51.3597 	 -55.9758
| 37> H 	 -127.367 	 52.0561 	 -55.7996
| 38> H 	 -125.961 	 52.9366 	 -55.2552
| 39> H 	 -121.741 	 56.5962 	 -61.3706
| 40> H 	 -125.53 	 57.5831 	 -54.5703
| 41> *
| 42>
| 43>                          ****END OF INPUT****

CARTESIAN COORDINATES (ANGSTROEM)
---------------------------------
  S    -122.391000   56.030800  -58.969700
  C    -122.541000   56.205800  -60.710600
  C    -123.646000   55.585100  -61.252800
  C    -124.637000   55.417100  -60.237800
  C    -124.152000   55.811600  -58.994500
  H    -125.640000   55.100700  -60.469200
  C    -123.942000   55.161800  -62.664700
  H    -124.333000   55.874800  -63.340800
  H    -124.899000   54.583400  -62.653300
  C    -122.861000   54.528800  -63.514800
  H    -122.241000   53.870500  -62.889400
  H    -123.254000   53.968000  -64.386800
  C    -121.975000   55.431200  -64.387700
  H    -121.543000   54.829200  -65.234900
  H    -122.500000   56.285100  -64.793700
  H    -121.333000   55.865100  -63.698800
  S    -124.052000   57.081100  -56.560500
  C    -125.372000   56.936500  -55.441400
  C    -126.349000   56.075800  -55.875000
  C    -126.020000   55.475600  -57.134400
  C    -124.809000   55.941400  -57.659400
  H    -127.190000   55.943200  -55.171700
  C    -126.802000   54.309000  -57.618900
  H    -126.879000   54.359100  -58.718100
  H    -127.836000   54.367100  -57.218400
  C    -126.247000   52.881900  -57.513900
  H    -125.225000   52.905600  -57.862200
  H    -126.751000   52.219100  -58.240000
  C    -126.367000   52.290400  -56.062100
  H    -125.805000   51.359700  -55.975800
  H    -127.367000   52.056100  -55.799600
  H    -125.961000   52.936600  -55.255200
  H    -121.741000   56.596200  -61.370600
  H    -125.530000   57.583100  -54.570300

 Total Charge           Charge          ....    0
 Multiplicity           Mult            ....    1
 Number of Electrons    NEL             ....  134
 Basis Dimension        Dim             ....  322

ORBITAL ENERGIES
----------------

  NO   OCC          E(Eh)            E(eV)
   0   2.0000     -88.969188     -2420.9747
   1   2.0000     -88.966046     -2420.8892
   2   2.0000     -10.337513      -281.2980
   3   2.0000     -10.330045      -281.0948
   4   2.0000     -10.314631      -280.6754
   5   2.0000     -10.314242      -280.6648
   6   2.0000     -10.304586      -280.4020
   7   2.0000     -10.303524      -280.3732
   8   2.0000     -10.297532      -280.2101
   9   2.0000     -10.294872      -280.1377
  10   2.0000     -10.293390      -280.0974
  11   2.0000     -10.290214      -280.0110
  12   2.0000     -10.288391      -279.9614
  13   2.0000     -10.286491      -279.9097
  14   2.0000     -10.275943      -279.6226
  15   2.0000     -10.273266      -279.5498
  16   2.0000      -8.083704      -219.9688
  17   2.0000      -8.080883      -219.8920
  18   2.0000      -6.042189      -164.4163
  19   2.0000      -6.039338      -164.3388
  20   2.0000      -6.038915      -164.3272
  21   2.0000      -6.035265      -164.2279
  22   2.0000      -6.033820      -164.1886
  23   2.0000      -6.031784      -164.1332
  24   2.0000      -1.007299       -27.4100
  25   2.0000      -0.985492       -26.8166
  26   2.0000      -0.916199       -24.9310
  27   2.0000      -0.906199       -24.6589
  28   2.0000      -0.868562       -23.6348
  29   2.0000      -0.852345       -23.1935
  30   2.0000      -0.844294       -22.9744
  31   2.0000      -0.813535       -22.1374
  32   2.0000      -0.788445       -21.4547
  33   2.0000      -0.774474       -21.0745
  34   2.0000      -0.709691       -19.3117
  35   2.0000      -0.699450       -19.0330
  36   2.0000      -0.685943       -18.6655
  37   2.0000      -0.661824       -18.0091
  38   2.0000      -0.633957       -17.2509
  39   2.0000      -0.626653       -17.0521
  40   2.0000      -0.592574       -16.1248
  41   2.0000      -0.581713       -15.8292
  42   2.0000      -0.555060       -15.1039
  43   2.0000      -0.543174       -14.7805
  44   2.0000      -0.539674       -14.6853
  45   2.0000      -0.535023       -14.5587
  46   2.0000      -0.518748       -14.1158
  47   2.0000      -0.507609       -13.8127
  48   2.0000      -0.500618       -13.6225
  49   2.0000      -0.488901       -13.3037
  50   2.0000      -0.488155       -13.2834
  51   2.0000      -0.485125       -13.2009
  52   2.0000      -0.476979       -12.9793
  53   2.0000      -0.466267       -12.6878
  54   2.0000      -0.462016       -12.5721
  55   2.0000      -0.454217       -12.3599
  56   2.0000      -0.440092       -11.9755
  57   2.0000      -0.437105       -11.8942
  58   2.0000      -0.435260       -11.8440
  59   2.0000      -0.428177       -11.6513
  60   2.0000      -0.419829       -11.4241
  61   2.0000      -0.412585       -11.2270
  62   2.0000      -0.396563       -10.7910
  63   2.0000      -0.351571        -9.5667
  64   2.0000      -0.332996        -9.0613
  65   2.0000      -0.327922        -8.9232
  66   2.0000      -0.279719        -7.6115
  67   0.0000       0.014379         0.3913
  68   0.0000       0.074920         2.0387
  69   0.0000       0.079287         2.1575
  70   0.0000       0.120285         3.2731
  71   0.0000       0.129791         3.5318

MULLIKEN ATOMIC CHARGES
-----------------------
   0 S :    0.101329
   1 C :   -0.138943
   2 C :   -0.045773
   3 C :   -0.010143
   4 C :   -0.096285
   5 H :    0.012371
   6 C :    0.083280
   7 H :    0.013586
   8 H :    0.018926
   9 C :   -0.108730
  10 H :    0.037280
  11 H :    0.026927
  12 C :   -0.034859
  13 H :    0.053701
  14 H :    0.019744
  15 H :    0.007217
  16 S :    0.103284
  17 C :   -0.101045
  18 C :   -0.051153
  19 C :   -0.029993
  20 C :   -0.123185
  21 H :    0.031255
  22 C :    0.036204
  23 H :    0.013084
  24 H :    0.023254
  25 C :   -0.048556
  26 H :    0.029364
  27 H :    0.030280
  28 C :   -0.053667
  29 H :    0.028750
  30 H :    0.018914
  31 H :    0.040415
  32 H :    0.051021
  33 H :    0.062144
Sum of atomic charges:   -0.0000000

LOEWDIN ATOMIC CHARGES
----------------------
   0 S :    0.383558
   1 C :   -0.196989
   2 C :   -0.056276
   3 C :   -0.061490
   4 C :   -0.164159
   5 H :    0.028270
   6 C :   -0.045905
   7 H :    0.032022
   8 H :    0.041923
   9 C :   -0.047801
  10 H :    0.023876
  11 H :    0.031522
  12 C :   -0.062122
  13 H :    0.037142
  14 H :    0.022249
  15 H :    0.009663
  16 S :    0.409688
  17 C :   -0.194099
  18 C :   -0.075656
  19 C :   -0.060572
  20 C :   -0.199951
  21 H :    0.040036
  22 C :   -0.040798
  23 H :    0.031452
  24 H :    0.031612
  25 C :   -0.032165
  26 H :    0.024849
  27 H :    0.027432
  28 C :   -0.070718
  29 H :    0.025727
  30 H :    0.016466
  31 H :    0.030247
  32 H :    0.027272
  33 H :    0.033698

  Mayer bond orders larger than 0.100000
B(  0-S ,  1-C ) :   1.1149 B(  0-S ,  4-C ) :   1.1365 B(  1-C ,  2-C ) :   1.6368
B(  1-C , 32-H ) :   0.9633 B(  2-C ,  3-C ) :   1.2110 B(  2-C ,  6-C ) :   1.0239
B(  3-C ,  4-C ) :   1.5943 B(  3-C ,  5-H ) :   0.9954 B(  4-C , 20-C ) :   1.0463
B(  6-C ,  7-H ) :   0.9199 B(  6-C ,  8-H ) :   0.9312 B(  6-C ,  9-C ) :   1.0658
B(  9-C , 10-H ) :   0.9644 B(  9-C , 11-H ) :   0.9588 B(  9-C , 12-C ) :   1.0615
B( 12-C , 13-H ) :   0.9785 B( 12-C , 14-H ) :   0.9691 B( 12-C , 15-H ) :   0.9777
B( 16-S , 17-C ) :   1.1564 B( 16-S , 20-C ) :   1.1401 B( 17-C , 18-C ) :   1.6231
B( 17-C , 33-H ) :   0.9605 B( 18-C , 19-C ) :   1.2318 B( 18-C , 21-H ) :   0.9882
B( 19-C , 20-C ) :   1.5704 B( 19-C , 22-C ) :   1.0714 B( 22-C , 23-H ) :   0.9246
B( 22-C , 24-H ) :   0.9333 B( 22-C , 25-C ) :   1.0708 B( 25-C , 26-H ) :   0.9525
B( 25-C , 27-H ) :   0.9560 B( 25-C , 28-C ) :   1.0709 B( 28-C , 29-H ) :   0.9750
B( 28-C , 30-H ) :   0.9770 B( 28-C , 31-H ) :   0.9781

Dispersion correction           -0.014144531
FINAL SINGLE POINT ENERGY     -1339.840374459736

DIPOLE MOMENT
-------------
                                X             Y             Z
Electronic contribution:      7.30592      16.27994      16.18203
Nuclear contribution   :     -7.76426     -16.54408     -16.53766
                        -----------------------------------------
Total Dipole Moment    :     -0.45834      -0.26414      -0.35563
                        -----------------------------------------
Magnitude (a.u.)       :      0.63743
Magnitude (Debye)      :      1.62022

Rotational constants in cm-1:     0.023264     0.007520     0.006200
Rotational constants in MHz :   697.438806   225.456429   185.883254

                             ****ORCA TERMINATED NORMALLY****
TOTAL RUN TIME: 0 days 0 hours 0 minutes 22 seconds 533 msec
