                         Program Version 4.2.1 -  RELEASE  -
|  1> ! wB97X-D3 SP def2-SVP
|  2> %pal
|  3> nprocs 24
|  4> end
|  5>
|  6> * xyz 0 1
|  7> S 	 -44.8614 	 18.7897 	 23.0345
|  8> C 	 -45.4258 	 17.6006 	 21.8668
|  9> C 	 -45.9078 	 16.4508 	 22.4288
| 10> C 	 -45.9197 	 16.5562 	 23.8302
| 11> C 	 -45.3448 	 17.7006 	 24.336
| 12> H 	 -46.3084 	 15.7235 	 24.4096
| 13> C 	 -46.4065 	 15.2298 	 21.7042
| 14> H 	 -46.4167 	 15.3791 	 20.64
| 15> H 	 -47.4233 	 15.0309 	 22.0209
| 16> C 	 -45.596 	 13.9304 	 21.9346
| 17> H 	 -45.346 	 13.6213 	 22.9128
| 18> H 	 -46.197 	 13.134 	 21.5428
| 19> C 	 -44.1942 	 13.8567 	 21.2887
| 20> H 	 -44.1617 	 13.5127 	 20.2431
| 21> H 	 -43.6588 	 14.7378 	 21.4268
| 22> H 	 -43.6425 	 13.207 	 21.9299
| 23> S 	 -45.6443 	 19.7195 	 26.1976
| 24> C 	 -45.4861 	 19.3253 	 27.9587
| 25> C 	 -44.9117 	 18.0636 	 28.1475
| 26> C 	 -44.7003 	 17.3898 	 26.8522
| 27> C 	 -45.2343 	 18.1201 	 25.7449
| 28> H 	 -44.662 	 17.6537 	 29.1263
| 29> C 	 -44.2723 	 15.8918 	 26.8103
| 30> H 	 -43.266 	 15.7216 	 27.2941
| 31> H 	 -44.3303 	 15.5958 	 25.7402
| 32> C 	 -45.2505 	 14.9827 	 27.5381
| 33> H 	 -45.3076 	 15.3319 	 28.6208
| 34> H 	 -44.8068 	 13.9476 	 27.599
| 35> C 	 -46.5803 	 14.8863 	 26.9004
| 36> H 	 -47.3507 	 14.5636 	 27.5313
| 37> H 	 -46.43 	 14.1679 	 26.1314
| 38> H 	 -46.9471 	 15.859 	 26.5027
| 39> H 	 -45.2706 	 17.6772 	 20.8581
| 40> H 	 -45.8317 	 19.946 	 28.7579
| 41> *
| 42>
| 43>                          ****END OF INPUT****

CARTESIAN COORDINATES (ANGSTROEM)
---------------------------------
  S    -44.861400   18.789700   23.034500
  C    -45.425800   17.600600   21.866800
  C    -45.907800   16.450800   22.428800
  C    -45.919700   16.556200   23.830200
  C    -45.344800   17.700600   24.336000
  H    -46.308400   15.723500   24.409600
  C    -46.406500   15.229800   21.704200
  H    -46.416700   15.379100   20.640000
  H    -47.423300   15.030900   22.020900
  C    -45.596000   13.930400   21.934600
  H    -45.346000   13.621300   22.912800
  H    -46.197000   13.134000   21.542800
  C    -44.194200   13.856700   21.288700
  H    -44.161700   13.512700   20.243100
  H    -43.658800   14.737800   21.426800
  H    -43.642500   13.207000   21.929900
  S    -45.644300   19.719500   26.197600
  C    -45.486100   19.325300   27.958700
  C    -44.911700   18.063600   28.147500
  C    -44.700300   17.389800   26.852200
  C    -45.234300   18.120100   25.744900
  H    -44.662000   17.653700   29.126300
  C    -44.272300   15.891800   26.810300
  H    -43.266000   15.721600   27.294100
  H    -44.330300   15.595800   25.740200
  C    -45.250500   14.982700   27.538100
  H    -45.307600   15.331900   28.620800
  H    -44.806800   13.947600   27.599000
  C    -46.580300   14.886300   26.900400
  H    -47.350700   14.563600   27.531300
  H    -46.430000   14.167900   26.131400
  H    -46.947100   15.859000   26.502700
  H    -45.270600   17.677200   20.858100
  H    -45.831700   19.946000   28.757900

 Total Charge           Charge          ....    0
 Multiplicity           Mult            ....    1
 Number of Electrons    NEL             ....  134
 Basis Dimension        Dim             ....  322

ORBITAL ENERGIES
----------------

  NO   OCC          E(Eh)            E(eV)
   0   2.0000     -88.968362     -2420.9522
   1   2.0000     -88.968117     -2420.9455
   2   2.0000     -10.333597      -281.1915
   3   2.0000     -10.332069      -281.1499
   4   2.0000     -10.324577      -280.9460
   5   2.0000     -10.311627      -280.5936
   6   2.0000     -10.306586      -280.4565
   7   2.0000     -10.305335      -280.4224
   8   2.0000     -10.296896      -280.1928
   9   2.0000     -10.295402      -280.1521
  10   2.0000     -10.294122      -280.1173
  11   2.0000     -10.290694      -280.0240
  12   2.0000     -10.288424      -279.9622
  13   2.0000     -10.283275      -279.8221
  14   2.0000     -10.268910      -279.4313
  15   2.0000     -10.268114      -279.4096
  16   2.0000      -8.082803      -219.9442
  17   2.0000      -8.082478      -219.9354
  18   2.0000      -6.041380      -164.3943
  19   2.0000      -6.041118      -164.3872
  20   2.0000      -6.037459      -164.2876
  21   2.0000      -6.037072      -164.2771
  22   2.0000      -6.033410      -164.1774
  23   2.0000      -6.033083      -164.1685
  24   2.0000      -1.004899       -27.3447
  25   2.0000      -0.979510       -26.6538
  26   2.0000      -0.914516       -24.8852
  27   2.0000      -0.911760       -24.8102
  28   2.0000      -0.869094       -23.6493
  29   2.0000      -0.850926       -23.1549
  30   2.0000      -0.843761       -22.9599
  31   2.0000      -0.817498       -22.2453
  32   2.0000      -0.788381       -21.4529
  33   2.0000      -0.773113       -21.0375
  34   2.0000      -0.709747       -19.3132
  35   2.0000      -0.699743       -19.0410
  36   2.0000      -0.688893       -18.7457
  37   2.0000      -0.653812       -17.7911
  38   2.0000      -0.641145       -17.4465
  39   2.0000      -0.629867       -17.1395
  40   2.0000      -0.592665       -16.1272
  41   2.0000      -0.571316       -15.5463
  42   2.0000      -0.558188       -15.1891
  43   2.0000      -0.551337       -15.0026
  44   2.0000      -0.550277       -14.9738
  45   2.0000      -0.543110       -14.7788
  46   2.0000      -0.520025       -14.1506
  47   2.0000      -0.519535       -14.1373
  48   2.0000      -0.500697       -13.6247
  49   2.0000      -0.494410       -13.4536
  50   2.0000      -0.492710       -13.4073
  51   2.0000      -0.476328       -12.9616
  52   2.0000      -0.467472       -12.7206
  53   2.0000      -0.463882       -12.6229
  54   2.0000      -0.457783       -12.4569
  55   2.0000      -0.450834       -12.2678
  56   2.0000      -0.448082       -12.1929
  57   2.0000      -0.436556       -11.8793
  58   2.0000      -0.433836       -11.8053
  59   2.0000      -0.425070       -11.5667
  60   2.0000      -0.424057       -11.5392
  61   2.0000      -0.416641       -11.3374
  62   2.0000      -0.406127       -11.0513
  63   2.0000      -0.350568        -9.5394
  64   2.0000      -0.334901        -9.1131
  65   2.0000      -0.327428        -8.9098
  66   2.0000      -0.288827        -7.8594
  67   0.0000       0.027769         0.7556
  68   0.0000       0.067576         1.8388
  69   0.0000       0.098707         2.6860
  70   0.0000       0.118825         3.2334
  71   0.0000       0.123691         3.3658

MULLIKEN ATOMIC CHARGES
-----------------------
   0 S :    0.106580
   1 C :   -0.088295
   2 C :   -0.087520
   3 C :    0.029206
   4 C :   -0.122089
   5 H :   -0.020168
   6 C :    0.108202
   7 H :    0.014443
   8 H :    0.033182
   9 C :   -0.078707
  10 H :    0.013748
  11 H :    0.021658
  12 C :   -0.029406
  13 H :    0.041728
  14 H :    0.017549
  15 H :    0.011621
  16 S :    0.104174
  17 C :   -0.097137
  18 C :   -0.022300
  19 C :   -0.058452
  20 C :   -0.144951
  21 H :    0.035512
  22 C :    0.044538
  23 H :    0.045702
  24 H :    0.027618
  25 C :   -0.115001
  26 H :    0.025615
  27 H :    0.033460
  28 C :   -0.017072
  29 H :    0.020338
  30 H :    0.028436
  31 H :    0.054796
  32 H :    0.006135
  33 H :    0.056859
Sum of atomic charges:   -0.0000000

LOEWDIN ATOMIC CHARGES
----------------------
   0 S :    0.393511
   1 C :   -0.176596
   2 C :   -0.063384
   3 C :   -0.063362
   4 C :   -0.180921
   5 H :    0.029320
   6 C :   -0.023429
   7 H :    0.029918
   8 H :    0.034868
   9 C :   -0.036945
  10 H :    0.016916
  11 H :    0.023749
  12 C :   -0.061324
  13 H :    0.026746
  14 H :    0.018147
  15 H :    0.024801
  16 S :    0.397331
  17 C :   -0.167087
  18 C :   -0.062162
  19 C :   -0.056315
  20 C :   -0.214420
  21 H :    0.034978
  22 C :   -0.037259
  23 H :    0.039025
  24 H :    0.030663
  25 C :   -0.050616
  26 H :    0.020245
  27 H :    0.027559
  28 C :   -0.064514
  29 H :    0.022145
  30 H :    0.021995
  31 H :    0.033079
  32 H :    0.007425
  33 H :    0.025913

  Mayer bond orders larger than 0.100000
B(  0-S ,  1-C ) :   1.1303 B(  0-S ,  4-C ) :   1.1422 B(  1-C ,  2-C ) :   1.6232
B(  1-C , 32-H ) :   0.9681 B(  2-C ,  3-C ) :   1.2521 B(  2-C ,  6-C ) :   1.0365
B(  3-C ,  4-C ) :   1.5690 B(  3-C ,  5-H ) :   0.9823 B(  4-C , 20-C ) :   1.0404
B(  6-C ,  7-H ) :   0.9391 B(  6-C ,  8-H ) :   0.9331 B(  6-C ,  9-C ) :   1.0643
B(  9-C , 10-H ) :   0.9692 B(  9-C , 11-H ) :   0.9550 B(  9-C , 12-C ) :   1.0708
B( 12-C , 13-H ) :   0.9768 B( 12-C , 14-H ) :   0.9735 B( 12-C , 15-H ) :   0.9768
B( 16-S , 17-C ) :   1.1347 B( 16-S , 20-C ) :   1.1459 B( 17-C , 18-C ) :   1.6240
B( 17-C , 33-H ) :   0.9726 B( 18-C , 19-C ) :   1.2160 B( 18-C , 21-H ) :   0.9845
B( 19-C , 20-C ) :   1.5668 B( 19-C , 22-C ) :   1.0514 B( 22-C , 23-H ) :   0.9337
B( 22-C , 24-H ) :   0.9374 B( 22-C , 25-C ) :   1.0697 B( 25-C , 26-H ) :   0.9517
B( 25-C , 27-H ) :   0.9559 B( 25-C , 28-C ) :   1.0781 B( 28-C , 29-H ) :   0.9625
B( 28-C , 30-H ) :   0.9634 B( 28-C , 31-H ) :   0.9650

Dispersion correction           -0.015578412
FINAL SINGLE POINT ENERGY     -1339.867852755628

DIPOLE MOMENT
-------------
                                X             Y             Z
Electronic contribution:      0.95594      29.75204       2.17156
Nuclear contribution   :     -1.07787     -30.52438      -2.01987
                        -----------------------------------------
Total Dipole Moment    :     -0.12193      -0.77234       0.15169
                        -----------------------------------------
Magnitude (a.u.)       :      0.79649
Magnitude (Debye)      :      2.02451

Rotational constants in cm-1:     0.019881     0.009809     0.007225
Rotational constants in MHz :   596.023984   294.055114   216.587803

                             ****ORCA TERMINATED NORMALLY****
TOTAL RUN TIME: 0 days 0 hours 0 minutes 23 seconds 133 msec
