                         Program Version 4.2.1 -  RELEASE  -
|  1> ! wB97X-D3 SP def2-SVP
|  2> %pal
|  3> nprocs 24
|  4> end
|  5>
|  6> * xyz 0 1
|  7> S 	 -132.969 	 57.2915 	 -64.1793
|  8> C 	 -131.543 	 57.5025 	 -65.1732
|  9> C 	 -130.616 	 58.3528 	 -64.5927
| 10> C 	 -131.056 	 58.8566 	 -63.3575
| 11> C 	 -132.303 	 58.3363 	 -62.9353
| 12> H 	 -130.489 	 59.5297 	 -62.6602
| 13> C 	 -129.192 	 58.6879 	 -65.091
| 14> H 	 -128.96 	 59.6007 	 -64.6456
| 15> H 	 -129.296 	 58.7693 	 -66.1899
| 16> C 	 -128.196 	 57.5586 	 -64.7945
| 17> H 	 -128.554 	 56.6694 	 -65.2653
| 18> H 	 -127.281 	 57.8076 	 -65.3879
| 19> C 	 -127.755 	 57.3132 	 -63.3207
| 20> H 	 -127.201 	 58.1849 	 -63.0858
| 21> H 	 -128.597 	 57.2165 	 -62.5986
| 22> H 	 -127.119 	 56.4165 	 -63.2207
| 23> S 	 -134.012 	 59.8488 	 -61.4848
| 24> C 	 -134.297 	 59.6238 	 -59.7643
| 25> C 	 -133.497 	 58.5616 	 -59.3223
| 26> C 	 -132.803 	 57.9335 	 -60.4125
| 27> C 	 -132.968 	 58.5102 	 -61.6542
| 28> H 	 -133.547 	 58.3628 	 -58.2659
| 29> C 	 -132.007 	 56.6811 	 -60.1873
| 30> H 	 -131.98 	 56.4523 	 -59.1113
| 31> H 	 -130.955 	 56.9284 	 -60.4957
| 32> C 	 -132.556 	 55.4273 	 -60.8956
| 33> H 	 -132.058 	 54.5979 	 -60.4097
| 34> H 	 -132.206 	 55.3621 	 -61.9094
| 35> C 	 -134.034 	 55.1121 	 -60.7537
| 36> H 	 -134.332 	 54.2089 	 -61.1221
| 37> H 	 -134.54 	 55.7647 	 -61.5
| 38> H 	 -134.476 	 55.306 	 -59.7883
| 39> H 	 -131.36 	 56.9129 	 -66.0222
| 40> H 	 -135.052 	 60.1961 	 -59.2294
| 41> *
| 42>
| 43>                          ****END OF INPUT****

CARTESIAN COORDINATES (ANGSTROEM)
---------------------------------
  S    -132.969000   57.291500  -64.179300
  C    -131.543000   57.502500  -65.173200
  C    -130.616000   58.352800  -64.592700
  C    -131.056000   58.856600  -63.357500
  C    -132.303000   58.336300  -62.935300
  H    -130.489000   59.529700  -62.660200
  C    -129.192000   58.687900  -65.091000
  H    -128.960000   59.600700  -64.645600
  H    -129.296000   58.769300  -66.189900
  C    -128.196000   57.558600  -64.794500
  H    -128.554000   56.669400  -65.265300
  H    -127.281000   57.807600  -65.387900
  C    -127.755000   57.313200  -63.320700
  H    -127.201000   58.184900  -63.085800
  H    -128.597000   57.216500  -62.598600
  H    -127.119000   56.416500  -63.220700
  S    -134.012000   59.848800  -61.484800
  C    -134.297000   59.623800  -59.764300
  C    -133.497000   58.561600  -59.322300
  C    -132.803000   57.933500  -60.412500
  C    -132.968000   58.510200  -61.654200
  H    -133.547000   58.362800  -58.265900
  C    -132.007000   56.681100  -60.187300
  H    -131.980000   56.452300  -59.111300
  H    -130.955000   56.928400  -60.495700
  C    -132.556000   55.427300  -60.895600
  H    -132.058000   54.597900  -60.409700
  H    -132.206000   55.362100  -61.909400
  C    -134.034000   55.112100  -60.753700
  H    -134.332000   54.208900  -61.122100
  H    -134.540000   55.764700  -61.500000
  H    -134.476000   55.306000  -59.788300
  H    -131.360000   56.912900  -66.022200
  H    -135.052000   60.196100  -59.229400

 Total Charge           Charge          ....    0
 Multiplicity           Mult            ....    1
 Number of Electrons    NEL             ....  134
 Basis Dimension        Dim             ....  322

ORBITAL ENERGIES
----------------

  NO   OCC          E(Eh)            E(eV)
   0   2.0000     -88.970670     -2421.0150
   1   2.0000     -88.958120     -2420.6735
   2   2.0000     -10.332436      -281.1599
   3   2.0000     -10.319805      -280.8162
   4   2.0000     -10.318850      -280.7902
   5   2.0000     -10.312578      -280.6195
   6   2.0000     -10.300956      -280.3033
   7   2.0000     -10.300564      -280.2926
   8   2.0000     -10.300550      -280.2922
   9   2.0000     -10.296342      -280.1777
  10   2.0000     -10.294181      -280.1189
  11   2.0000     -10.290151      -280.0093
  12   2.0000     -10.289180      -279.9828
  13   2.0000     -10.281542      -279.7750
  14   2.0000     -10.275787      -279.6184
  15   2.0000     -10.263556      -279.2856
  16   2.0000      -8.084617      -219.9936
  17   2.0000      -8.073812      -219.6996
  18   2.0000      -6.042970      -164.4376
  19   2.0000      -6.039111      -164.3326
  20   2.0000      -6.035719      -164.2403
  21   2.0000      -6.032189      -164.1442
  22   2.0000      -6.027868      -164.0266
  23   2.0000      -6.024950      -163.9472
  24   2.0000      -1.007258       -27.4089
  25   2.0000      -0.984808       -26.7980
  26   2.0000      -0.910564       -24.7777
  27   2.0000      -0.904565       -24.6145
  28   2.0000      -0.868322       -23.6282
  29   2.0000      -0.847607       -23.0646
  30   2.0000      -0.844181       -22.9713
  31   2.0000      -0.813097       -22.1255
  32   2.0000      -0.786277       -21.3957
  33   2.0000      -0.773326       -21.0433
  34   2.0000      -0.708135       -19.2693
  35   2.0000      -0.703405       -19.1406
  36   2.0000      -0.687634       -18.7115
  37   2.0000      -0.664618       -18.0852
  38   2.0000      -0.643939       -17.5225
  39   2.0000      -0.610576       -16.6146
  40   2.0000      -0.581795       -15.8314
  41   2.0000      -0.574727       -15.6391
  42   2.0000      -0.560699       -15.2574
  43   2.0000      -0.550618       -14.9831
  44   2.0000      -0.541985       -14.7482
  45   2.0000      -0.539749       -14.6873
  46   2.0000      -0.518333       -14.1046
  47   2.0000      -0.514111       -13.9897
  48   2.0000      -0.506233       -13.7753
  49   2.0000      -0.490306       -13.3419
  50   2.0000      -0.483908       -13.1678
  51   2.0000      -0.480424       -13.0730
  52   2.0000      -0.478097       -13.0097
  53   2.0000      -0.468140       -12.7387
  54   2.0000      -0.461974       -12.5709
  55   2.0000      -0.446594       -12.1524
  56   2.0000      -0.441859       -12.0236
  57   2.0000      -0.440121       -11.9763
  58   2.0000      -0.430364       -11.7108
  59   2.0000      -0.424906       -11.5623
  60   2.0000      -0.417970       -11.3736
  61   2.0000      -0.412584       -11.2270
  62   2.0000      -0.395251       -10.7553
  63   2.0000      -0.337424        -9.1818
  64   2.0000      -0.329850        -8.9757
  65   2.0000      -0.313076        -8.5192
  66   2.0000      -0.312544        -8.5048
  67   0.0000       0.041507         1.1295
  68   0.0000       0.049835         1.3561
  69   0.0000       0.114252         3.1089
  70   0.0000       0.123269         3.3543
  71   0.0000       0.128789         3.5045

MULLIKEN ATOMIC CHARGES
-----------------------
   0 S :    0.122601
   1 C :   -0.110767
   2 C :   -0.110858
   3 C :    0.042543
   4 C :   -0.197226
   5 H :    0.033274
   6 C :    0.112476
   7 H :    0.007979
   8 H :    0.033424
   9 C :   -0.072827
  10 H :    0.015307
  11 H :    0.031702
  12 C :   -0.052783
  13 H :    0.024616
  14 H :    0.047067
  15 H :    0.044180
  16 S :    0.102474
  17 C :   -0.116339
  18 C :   -0.037008
  19 C :   -0.042608
  20 C :   -0.155074
  21 H :    0.021451
  22 C :    0.078392
  23 H :    0.013684
  24 H :    0.041513
  25 C :   -0.072541
  26 H :    0.016025
  27 H :    0.024170
  28 C :    0.007365
  29 H :    0.007027
  30 H :    0.015808
  31 H :    0.027358
  32 H :    0.030129
  33 H :    0.067471
Sum of atomic charges:    0.0000000

LOEWDIN ATOMIC CHARGES
----------------------
   0 S :    0.422689
   1 C :   -0.192630
   2 C :   -0.065632
   3 C :   -0.061349
   4 C :   -0.201675
   5 H :    0.041087
   6 C :   -0.017598
   7 H :    0.019125
   8 H :    0.038602
   9 C :   -0.039279
  10 H :    0.016145
  11 H :    0.028055
  12 C :   -0.065873
  13 H :    0.020171
  14 H :    0.028537
  15 H :    0.032173
  16 S :    0.426438
  17 C :   -0.182335
  18 C :   -0.075655
  19 C :   -0.058155
  20 C :   -0.231253
  21 H :    0.032636
  22 C :   -0.033666
  23 H :    0.028207
  24 H :    0.039367
  25 C :   -0.042021
  26 H :    0.021508
  27 H :    0.016881
  28 C :   -0.059880
  29 H :    0.014255
  30 H :    0.028782
  31 H :    0.024568
  32 H :    0.016531
  33 H :    0.031246

  Mayer bond orders larger than 0.100000
B(  0-S ,  1-C ) :   1.1558 B(  0-S ,  4-C ) :   1.1738 B(  1-C ,  2-C ) :   1.5896
B(  1-C ,  4-C ) :   0.1125 B(  1-C , 32-H ) :   0.9739 B(  2-C ,  3-C ) :   1.2702
B(  2-C ,  6-C ) :   1.0084 B(  3-C ,  4-C ) :   1.5609 B(  3-C ,  5-H ) :   0.9852
B(  4-C , 20-C ) :   1.0069 B(  6-C ,  7-H ) :   0.9425 B(  6-C ,  8-H ) :   0.9354
B(  6-C ,  9-C ) :   1.0760 B(  9-C , 10-H ) :   0.9563 B(  9-C , 11-H ) :   0.9565
B(  9-C , 12-C ) :   1.0648 B( 12-C , 13-H ) :   0.9766 B( 12-C , 14-H ) :   0.9768
B( 12-C , 15-H ) :   0.9741 B( 16-S , 17-C ) :   1.1873 B( 16-S , 20-C ) :   1.1583
B( 17-C , 18-C ) :   1.5603 B( 17-C , 20-C ) :   0.1047 B( 17-C , 33-H ) :   0.9698
B( 18-C , 19-C ) :   1.2540 B( 18-C , 21-H ) :   1.0007 B( 19-C , 20-C ) :   1.5722
B( 19-C , 22-C ) :   1.0505 B( 22-C , 23-H ) :   0.9349 B( 22-C , 24-H ) :   0.9276
B( 22-C , 25-C ) :   1.0760 B( 25-C , 26-H ) :   0.9559 B( 25-C , 27-H ) :   0.9518
B( 25-C , 28-C ) :   1.0823 B( 28-C , 29-H ) :   0.9689 B( 28-C , 30-H ) :   0.9629
B( 28-C , 31-H ) :   0.9755

Dispersion correction           -0.016213132
FINAL SINGLE POINT ENERGY     -1339.878728314060

DIPOLE MOMENT
-------------
                                X             Y             Z
Electronic contribution:    -17.45967      13.08334      -2.65454
Nuclear contribution   :     17.99546     -13.30778       2.79599
                        -----------------------------------------
Total Dipole Moment    :      0.53579      -0.22444       0.14144
                        -----------------------------------------
Magnitude (a.u.)       :      0.59787
Magnitude (Debye)      :      1.51967

Rotational constants in cm-1:     0.020618     0.008866     0.008258
Rotational constants in MHz :   618.123745   265.795371   247.568640

                             ****ORCA TERMINATED NORMALLY****
TOTAL RUN TIME: 0 days 0 hours 0 minutes 22 seconds 814 msec
