                         Program Version 4.2.1 -  RELEASE  -
|  1> ! wB97X-D3 SP def2-SVP
|  2> %pal
|  3> nprocs 24
|  4> end
|  5>
|  6> * xyz 0 1
|  7> S 	 -41.5952 	 -6.68422 	 8.60558
|  8> C 	 -40.5037 	 -7.57351 	 7.60272
|  9> C 	 -39.6306 	 -6.72074 	 6.89443
| 10> C 	 -39.811 	 -5.34451 	 7.26425
| 11> C 	 -40.8052 	 -5.16592 	 8.24378
| 12> H 	 -39.3051 	 -4.46943 	 6.85184
| 13> C 	 -38.6862 	 -7.19517 	 5.8945
| 14> H 	 -37.7531 	 -7.50847 	 6.25028
| 15> H 	 -38.5246 	 -6.38729 	 5.1912
| 16> C 	 -39.1944 	 -8.31027 	 4.97779
| 17> H 	 -38.4802 	 -8.632 	 4.17901
| 18> H 	 -39.4802 	 -9.16241 	 5.56448
| 19> C 	 -40.4614 	 -7.84119 	 4.25006
| 20> H 	 -40.2148 	 -7.0051 	 3.54747
| 21> H 	 -40.9662 	 -8.61084 	 3.73654
| 22> H 	 -41.262 	 -7.44007 	 4.93131
| 23> S 	 -40.9158 	 -3.41406 	 10.482
| 24> C 	 -41.3861 	 -1.78513 	 10.2896
| 25> C 	 -41.6885 	 -1.51449 	 8.99281
| 26> C 	 -41.5759 	 -2.68753 	 8.15037
| 27> C 	 -41.1846 	 -3.82408 	 8.76578
| 28> H 	 -41.928 	 -0.549135 	 8.74844
| 29> C 	 -41.8495 	 -2.5114 	 6.63924
| 30> H 	 -42.9103 	 -2.6675 	 6.44612
| 31> H 	 -41.2809 	 -3.23635 	 6.08468
| 32> C 	 -41.3913 	 -1.18015 	 6.11243
| 33> H 	 -40.4037 	 -0.967614 	 6.65698
| 34> H 	 -42.1972 	 -0.396804 	 6.31378
| 35> C 	 -41.3018 	 -1.19353 	 4.59367
| 36> H 	 -40.9762 	 -0.173736 	 4.3032
| 37> H 	 -42.281 	 -1.25626 	 4.1393
| 38> H 	 -40.5879 	 -1.92484 	 4.14871
| 39> H 	 -40.4223 	 -8.66422 	 7.56931
| 40> H 	 -41.4862 	 -1.01878 	 11.0481
| 41> *
| 42>
| 43>                          ****END OF INPUT****

CARTESIAN COORDINATES (ANGSTROEM)
---------------------------------
  S    -41.595200   -6.684220    8.605580
  C    -40.503700   -7.573510    7.602720
  C    -39.630600   -6.720740    6.894430
  C    -39.811000   -5.344510    7.264250
  C    -40.805200   -5.165920    8.243780
  H    -39.305100   -4.469430    6.851840
  C    -38.686200   -7.195170    5.894500
  H    -37.753100   -7.508470    6.250280
  H    -38.524600   -6.387290    5.191200
  C    -39.194400   -8.310270    4.977790
  H    -38.480200   -8.632000    4.179010
  H    -39.480200   -9.162410    5.564480
  C    -40.461400   -7.841190    4.250060
  H    -40.214800   -7.005100    3.547470
  H    -40.966200   -8.610840    3.736540
  H    -41.262000   -7.440070    4.931310
  S    -40.915800   -3.414060   10.482000
  C    -41.386100   -1.785130   10.289600
  C    -41.688500   -1.514490    8.992810
  C    -41.575900   -2.687530    8.150370
  C    -41.184600   -3.824080    8.765780
  H    -41.928000   -0.549135    8.748440
  C    -41.849500   -2.511400    6.639240
  H    -42.910300   -2.667500    6.446120
  H    -41.280900   -3.236350    6.084680
  C    -41.391300   -1.180150    6.112430
  H    -40.403700   -0.967614    6.656980
  H    -42.197200   -0.396804    6.313780
  C    -41.301800   -1.193530    4.593670
  H    -40.976200   -0.173736    4.303200
  H    -42.281000   -1.256260    4.139300
  H    -40.587900   -1.924840    4.148710
  H    -40.422300   -8.664220    7.569310
  H    -41.486200   -1.018780   11.048100

 Total Charge           Charge          ....    0
 Multiplicity           Mult            ....    1
 Number of Electrons    NEL             ....  134
 Basis Dimension        Dim             ....  322

ORBITAL ENERGIES
----------------

  NO   OCC          E(Eh)            E(eV)
   0   2.0000     -88.971916     -2421.0489
   1   2.0000     -88.958590     -2420.6863
   2   2.0000     -10.334323      -281.2112
   3   2.0000     -10.326355      -280.9944
   4   2.0000     -10.317138      -280.7436
   5   2.0000     -10.312522      -280.6180
   6   2.0000     -10.302675      -280.3500
   7   2.0000     -10.301311      -280.3129
   8   2.0000     -10.299968      -280.2764
   9   2.0000     -10.293804      -280.1087
  10   2.0000     -10.287539      -279.9382
  11   2.0000     -10.283756      -279.8352
  12   2.0000     -10.283001      -279.8147
  13   2.0000     -10.282636      -279.8048
  14   2.0000     -10.282008      -279.7877
  15   2.0000     -10.272715      -279.5348
  16   2.0000      -8.086408      -220.0423
  17   2.0000      -8.074005      -219.7048
  18   2.0000      -6.044819      -164.4879
  19   2.0000      -6.040808      -164.3787
  20   2.0000      -6.037433      -164.2869
  21   2.0000      -6.032621      -164.1560
  22   2.0000      -6.028318      -164.0389
  23   2.0000      -6.024685      -163.9400
  24   2.0000      -1.005664       -27.3655
  25   2.0000      -0.987768       -26.8785
  26   2.0000      -0.920744       -25.0547
  27   2.0000      -0.913292       -24.8519
  28   2.0000      -0.868745       -23.6398
  29   2.0000      -0.849766       -23.1233
  30   2.0000      -0.843941       -22.9648
  31   2.0000      -0.814299       -22.1582
  32   2.0000      -0.782595       -21.2955
  33   2.0000      -0.773706       -21.0536
  34   2.0000      -0.705865       -19.2076
  35   2.0000      -0.697063       -18.9680
  36   2.0000      -0.691508       -18.8169
  37   2.0000      -0.652734       -17.7618
  38   2.0000      -0.640860       -17.4387
  39   2.0000      -0.612970       -16.6798
  40   2.0000      -0.596792       -16.2395
  41   2.0000      -0.585168       -15.9232
  42   2.0000      -0.577979       -15.7276
  43   2.0000      -0.565343       -15.3838
  44   2.0000      -0.544574       -14.8186
  45   2.0000      -0.519279       -14.1303
  46   2.0000      -0.513639       -13.9768
  47   2.0000      -0.510260       -13.8849
  48   2.0000      -0.507687       -13.8149
  49   2.0000      -0.498597       -13.5675
  50   2.0000      -0.490311       -13.3420
  51   2.0000      -0.478378       -13.0173
  52   2.0000      -0.473638       -12.8883
  53   2.0000      -0.465427       -12.6649
  54   2.0000      -0.462520       -12.5858
  55   2.0000      -0.445868       -12.1327
  56   2.0000      -0.440428       -11.9847
  57   2.0000      -0.434316       -11.8183
  58   2.0000      -0.428395       -11.6572
  59   2.0000      -0.424250       -11.5444
  60   2.0000      -0.419782       -11.4228
  61   2.0000      -0.416849       -11.3430
  62   2.0000      -0.407602       -11.0914
  63   2.0000      -0.340201        -9.2573
  64   2.0000      -0.330669        -8.9980
  65   2.0000      -0.326304        -8.8792
  66   2.0000      -0.302686        -8.2365
  67   0.0000       0.034871         0.9489
  68   0.0000       0.068767         1.8713
  69   0.0000       0.111998         3.0476
  70   0.0000       0.126934         3.4540
  71   0.0000       0.132267         3.5992

MULLIKEN ATOMIC CHARGES
-----------------------
   0 S :    0.137833
   1 C :   -0.129996
   2 C :   -0.115540
   3 C :    0.041997
   4 C :   -0.171607
   5 H :    0.023906
   6 C :    0.133906
   7 H :    0.030678
   8 H :    0.009581
   9 C :   -0.098457
  10 H :    0.043425
  11 H :    0.018792
  12 C :   -0.082484
  13 H :    0.029439
  14 H :    0.022811
  15 H :    0.048367
  16 S :    0.093719
  17 C :   -0.066037
  18 C :   -0.017555
  19 C :   -0.055346
  20 C :   -0.155581
  21 H :   -0.017138
  22 C :    0.131258
  23 H :    0.035475
  24 H :    0.000259
  25 C :   -0.168962
  26 H :    0.054164
  27 H :    0.042243
  28 C :   -0.032169
  29 H :    0.028067
  30 H :    0.029848
  31 H :    0.042254
  32 H :    0.059611
  33 H :    0.053241
Sum of atomic charges:   -0.0000000

LOEWDIN ATOMIC CHARGES
----------------------
   0 S :    0.430674
   1 C :   -0.207763
   2 C :   -0.062201
   3 C :   -0.053346
   4 C :   -0.200606
   5 H :    0.034793
   6 C :   -0.031224
   7 H :    0.027608
   8 H :    0.031450
   9 C :   -0.038576
  10 H :    0.032687
  11 H :    0.014338
  12 C :   -0.073273
  13 H :    0.025320
  14 H :    0.016117
  15 H :    0.031534
  16 S :    0.399977
  17 C :   -0.185105
  18 C :   -0.072085
  19 C :   -0.052135
  20 C :   -0.196869
  21 H :    0.016208
  22 C :   -0.031172
  23 H :    0.033436
  24 H :    0.021436
  25 C :   -0.055205
  26 H :    0.034304
  27 H :    0.031249
  28 C :   -0.069088
  29 H :    0.029250
  30 H :    0.025658
  31 H :    0.026714
  32 H :    0.031762
  33 H :    0.034134

  Mayer bond orders larger than 0.100000
B(  0-S ,  1-C ) :   1.1561 B(  0-S ,  4-C ) :   1.1731 B(  1-C ,  2-C ) :   1.5622
B(  1-C ,  4-C ) :   0.1008 B(  1-C , 32-H ) :   0.9670 B(  2-C ,  3-C ) :   1.2746
B(  2-C ,  6-C ) :   1.0288 B(  3-C ,  4-C ) :   1.5437 B(  3-C ,  5-H ) :   0.9889
B(  4-C , 20-C ) :   1.0172 B(  6-C ,  7-H ) :   0.9256 B(  6-C ,  8-H ) :   0.9398
B(  6-C ,  9-C ) :   1.0760 B(  9-C , 10-H ) :   0.9568 B(  9-C , 11-H ) :   0.9510
B(  9-C , 12-C ) :   1.0784 B( 12-C , 13-H ) :   0.9749 B( 12-C , 14-H ) :   0.9746
B( 12-C , 15-H ) :   0.9709 B( 16-S , 17-C ) :   1.1681 B( 16-S , 20-C ) :   1.1116
B( 17-C , 18-C ) :   1.6188 B( 17-C , 33-H ) :   0.9611 B( 18-C , 19-C ) :   1.2111
B( 18-C , 21-H ) :   1.0089 B( 19-C , 20-C ) :   1.6555 B( 19-C , 22-C ) :   1.0264
B( 22-C , 23-H ) :   0.9210 B( 22-C , 24-H ) :   0.9390 B( 22-C , 25-C ) :   1.0736
B( 25-C , 26-H ) :   0.9593 B( 25-C , 27-H ) :   0.9385 B( 25-C , 28-C ) :   1.0928
B( 28-C , 29-H ) :   0.9712 B( 28-C , 30-H ) :   0.9690 B( 28-C , 31-H ) :   0.9722

Dispersion correction           -0.014340366
FINAL SINGLE POINT ENERGY     -1339.877878905684

DIPOLE MOMENT
-------------
                                X             Y             Z
Electronic contribution:     -3.88993      -2.85994      28.67371
Nuclear contribution   :      4.02251       3.08390     -29.31133
                        -----------------------------------------
Total Dipole Moment    :      0.13258       0.22396      -0.63762
                        -----------------------------------------
Magnitude (a.u.)       :      0.68869
Magnitude (Debye)      :      1.75050

Rotational constants in cm-1:     0.018578     0.008860     0.006547
Rotational constants in MHz :   556.955257   265.612371   196.279061

                             ****ORCA TERMINATED NORMALLY****
TOTAL RUN TIME: 0 days 0 hours 0 minutes 21 seconds 867 msec
