                         Program Version 4.2.1 -  RELEASE  -
|  1> ! wB97X-D3 SP def2-SVP
|  2> %pal
|  3> nprocs 24
|  4> end
|  5>
|  6> * xyz 0 1
|  7> S 	 -116.342 	 44.3214 	 -111.837
|  8> C 	 -117.732 	 43.7883 	 -112.765
|  9> C 	 -117.437 	 42.6375 	 -113.553
| 10> C 	 -116.024 	 42.3685 	 -113.598
| 11> C 	 -115.324 	 43.1533 	 -112.758
| 12> H 	 -115.474 	 41.6709 	 -114.143
| 13> C 	 -118.397 	 41.8401 	 -114.323
| 14> H 	 -118.764 	 42.5306 	 -115.066
| 15> H 	 -119.28 	 41.5983 	 -113.756
| 16> C 	 -117.896 	 40.5287 	 -114.926
| 17> H 	 -116.993 	 40.6972 	 -115.559
| 18> H 	 -117.505 	 39.8714 	 -114.134
| 19> C 	 -118.967 	 39.7693 	 -115.729
| 20> H 	 -118.54 	 38.7938 	 -116.056
| 21> H 	 -119.723 	 39.5269 	 -115.059
| 22> H 	 -119.305 	 40.1562 	 -116.635
| 23> S 	 -112.97 	 43.5222 	 -113.976
| 24> C 	 -111.394 	 43.2491 	 -113.156
| 25> C 	 -111.641 	 43.1341 	 -111.79
| 26> C 	 -112.981 	 43.0666 	 -111.476
| 27> C 	 -113.849 	 43.207 	 -112.548
| 28> H 	 -110.727 	 42.9605 	 -111.134
| 29> C 	 -113.399 	 42.7832 	 -110.036
| 30> H 	 -114.328 	 43.2784 	 -109.926
| 31> H 	 -112.683 	 43.3298 	 -109.332
| 32> C 	 -113.566 	 41.3561 	 -109.517
| 33> H 	 -113.742 	 41.3555 	 -108.442
| 34> H 	 -112.582 	 40.8894 	 -109.593
| 35> C 	 -114.556 	 40.5414 	 -110.394
| 36> H 	 -114.211 	 40.237 	 -111.36
| 37> H 	 -115.473 	 41.0645 	 -110.487
| 38> H 	 -114.907 	 39.5713 	 -109.901
| 39> H 	 -118.772 	 44.189 	 -112.588
| 40> H 	 -110.401 	 43.4817 	 -113.552
| 41> *
| 42>
| 43>                          ****END OF INPUT****

CARTESIAN COORDINATES (ANGSTROEM)
---------------------------------
  S    -116.342000   44.321400  -111.837000
  C    -117.732000   43.788300  -112.765000
  C    -117.437000   42.637500  -113.553000
  C    -116.024000   42.368500  -113.598000
  C    -115.324000   43.153300  -112.758000
  H    -115.474000   41.670900  -114.143000
  C    -118.397000   41.840100  -114.323000
  H    -118.764000   42.530600  -115.066000
  H    -119.280000   41.598300  -113.756000
  C    -117.896000   40.528700  -114.926000
  H    -116.993000   40.697200  -115.559000
  H    -117.505000   39.871400  -114.134000
  C    -118.967000   39.769300  -115.729000
  H    -118.540000   38.793800  -116.056000
  H    -119.723000   39.526900  -115.059000
  H    -119.305000   40.156200  -116.635000
  S    -112.970000   43.522200  -113.976000
  C    -111.394000   43.249100  -113.156000
  C    -111.641000   43.134100  -111.790000
  C    -112.981000   43.066600  -111.476000
  C    -113.849000   43.207000  -112.548000
  H    -110.727000   42.960500  -111.134000
  C    -113.399000   42.783200  -110.036000
  H    -114.328000   43.278400  -109.926000
  H    -112.683000   43.329800  -109.332000
  C    -113.566000   41.356100  -109.517000
  H    -113.742000   41.355500  -108.442000
  H    -112.582000   40.889400  -109.593000
  C    -114.556000   40.541400  -110.394000
  H    -114.211000   40.237000  -111.360000
  H    -115.473000   41.064500  -110.487000
  H    -114.907000   39.571300  -109.901000
  H    -118.772000   44.189000  -112.588000
  H    -110.401000   43.481700  -113.552000

 Total Charge           Charge          ....    0
 Multiplicity           Mult            ....    1
 Number of Electrons    NEL             ....  134
 Basis Dimension        Dim             ....  322

ORBITAL ENERGIES
----------------

  NO   OCC          E(Eh)            E(eV)
   0   2.0000     -88.967829     -2420.9377
   1   2.0000     -88.965994     -2420.8878
   2   2.0000     -10.332748      -281.1684
   3   2.0000     -10.326517      -280.9988
   4   2.0000     -10.321825      -280.8711
   5   2.0000     -10.318291      -280.7750
   6   2.0000     -10.307468      -280.4805
   7   2.0000     -10.298041      -280.2239
   8   2.0000     -10.295538      -280.1558
   9   2.0000     -10.293050      -280.0881
  10   2.0000     -10.291658      -280.0503
  11   2.0000     -10.286469      -279.9090
  12   2.0000     -10.286210      -279.9020
  13   2.0000     -10.284522      -279.8561
  14   2.0000     -10.273864      -279.5661
  15   2.0000     -10.271559      -279.5033
  16   2.0000      -8.081332      -219.9042
  17   2.0000      -8.080503      -219.8817
  18   2.0000      -6.039887      -164.3537
  19   2.0000      -6.038961      -164.3285
  20   2.0000      -6.036100      -164.2506
  21   2.0000      -6.034859      -164.2169
  22   2.0000      -6.032033      -164.1400
  23   2.0000      -6.031500      -164.1255
  24   2.0000      -1.007514       -27.4159
  25   2.0000      -0.983056       -26.7503
  26   2.0000      -0.915940       -24.9240
  27   2.0000      -0.902701       -24.5637
  28   2.0000      -0.870286       -23.6817
  29   2.0000      -0.853531       -23.2258
  30   2.0000      -0.840442       -22.8696
  31   2.0000      -0.820692       -22.3322
  32   2.0000      -0.780011       -21.2252
  33   2.0000      -0.768661       -20.9163
  34   2.0000      -0.715136       -19.4598
  35   2.0000      -0.698397       -19.0044
  36   2.0000      -0.683954       -18.6113
  37   2.0000      -0.665640       -18.1130
  38   2.0000      -0.641575       -17.4581
  39   2.0000      -0.623817       -16.9749
  40   2.0000      -0.589064       -16.0292
  41   2.0000      -0.573526       -15.6064
  42   2.0000      -0.563150       -15.3241
  43   2.0000      -0.542793       -14.7701
  44   2.0000      -0.538430       -14.6514
  45   2.0000      -0.524446       -14.2709
  46   2.0000      -0.519009       -14.1229
  47   2.0000      -0.512005       -13.9324
  48   2.0000      -0.506453       -13.7813
  49   2.0000      -0.498568       -13.5667
  50   2.0000      -0.488048       -13.2805
  51   2.0000      -0.474516       -12.9122
  52   2.0000      -0.472591       -12.8599
  53   2.0000      -0.464793       -12.6477
  54   2.0000      -0.460282       -12.5249
  55   2.0000      -0.449015       -12.2183
  56   2.0000      -0.441783       -12.0215
  57   2.0000      -0.435115       -11.8401
  58   2.0000      -0.426266       -11.5993
  59   2.0000      -0.424921       -11.5627
  60   2.0000      -0.422607       -11.4997
  61   2.0000      -0.416179       -11.3248
  62   2.0000      -0.408791       -11.1238
  63   2.0000      -0.345901        -9.4124
  64   2.0000      -0.338584        -9.2133
  65   2.0000      -0.324409        -8.8276
  66   2.0000      -0.290375        -7.9015
  67   0.0000       0.030755         0.8369
  68   0.0000       0.061481         1.6730
  69   0.0000       0.105159         2.8615
  70   0.0000       0.114223         3.1082
  71   0.0000       0.130501         3.5511

MULLIKEN ATOMIC CHARGES
-----------------------
   0 S :    0.109121
   1 C :   -0.145748
   2 C :   -0.079637
   3 C :    0.038052
   4 C :   -0.126684
   5 H :   -0.009415
   6 C :    0.088339
   7 H :    0.035635
   8 H :    0.019951
   9 C :   -0.134264
  10 H :    0.037992
  11 H :    0.035941
  12 C :    0.015486
  13 H :    0.023271
  14 H :    0.017276
  15 H :    0.025060
  16 S :    0.106786
  17 C :   -0.113719
  18 C :   -0.075103
  19 C :   -0.022423
  20 C :   -0.168048
  21 H :    0.049933
  22 C :    0.051087
  23 H :   -0.000503
  24 H :    0.029615
  25 C :   -0.024972
  26 H :    0.033119
  27 H :    0.015177
  28 C :   -0.052656
  29 H :    0.036372
  30 H :    0.025709
  31 H :    0.027154
  32 H :    0.067986
  33 H :    0.064110
Sum of atomic charges:    0.0000000

LOEWDIN ATOMIC CHARGES
----------------------
   0 S :    0.385179
   1 C :   -0.209725
   2 C :   -0.052814
   3 C :   -0.057547
   4 C :   -0.168664
   5 H :    0.025067
   6 C :   -0.042262
   7 H :    0.039138
   8 H :    0.031111
   9 C :   -0.042721
  10 H :    0.024463
  11 H :    0.028394
  12 C :   -0.053378
  13 H :    0.033952
  14 H :    0.017426
  15 H :    0.017787
  16 S :    0.421143
  17 C :   -0.188599
  18 C :   -0.074937
  19 C :   -0.074133
  20 C :   -0.208310
  21 H :    0.047356
  22 C :   -0.034885
  23 H :    0.012334
  24 H :    0.037083
  25 C :   -0.038522
  26 H :    0.027753
  27 H :    0.021031
  28 C :   -0.066918
  29 H :    0.023156
  30 H :    0.018727
  31 H :    0.032118
  32 H :    0.037700
  33 H :    0.032496

  Mayer bond orders larger than 0.100000
B(  0-S ,  1-C ) :   1.1356 B(  0-S ,  4-C ) :   1.1300 B(  1-C ,  2-C ) :   1.6132
B(  1-C , 32-H ) :   0.9649 B(  2-C ,  3-C ) :   1.1986 B(  2-C ,  6-C ) :   1.0233
B(  3-C ,  4-C ) :   1.6212 B(  3-C ,  5-H ) :   1.0002 B(  4-C , 20-C ) :   0.9871
B(  6-C ,  7-H ) :   0.9225 B(  6-C ,  8-H ) :   0.9311 B(  6-C ,  9-C ) :   1.0877
B(  9-C , 10-H ) :   0.9435 B(  9-C , 11-H ) :   0.9539 B(  9-C , 12-C ) :   1.0878
B( 12-C , 13-H ) :   0.9688 B( 12-C , 14-H ) :   0.9724 B( 12-C , 15-H ) :   0.9768
B( 16-S , 17-C ) :   1.1542 B( 16-S , 20-C ) :   1.1785 B( 17-C , 18-C ) :   1.5866
B( 17-C , 20-C ) :   0.1138 B( 17-C , 33-H ) :   0.9633 B( 18-C , 19-C ) :   1.2851
B( 18-C , 21-H ) :   0.9773 B( 19-C , 20-C ) :   1.5560 B( 19-C , 22-C ) :   1.0322
B( 22-C , 23-H ) :   0.9293 B( 22-C , 24-H ) :   0.9359 B( 22-C , 25-C ) :   1.0797
B( 25-C , 26-H ) :   0.9544 B( 25-C , 27-H ) :   0.9526 B( 25-C , 28-C ) :   1.0682
B( 28-C , 29-H ) :   0.9751 B( 28-C , 30-H ) :   0.9773 B( 28-C , 31-H ) :   0.9728

Dispersion correction           -0.015237679
FINAL SINGLE POINT ENERGY     -1339.866519698792

DIPOLE MOMENT
-------------
                                X             Y             Z
Electronic contribution:     10.41629      20.13094      -1.55015
Nuclear contribution   :    -10.62163     -20.55442       1.54195
                        -----------------------------------------
Total Dipole Moment    :     -0.20534      -0.42348      -0.00820
                        -----------------------------------------
Magnitude (a.u.)       :      0.47071
Magnitude (Debye)      :      1.19646

Rotational constants in cm-1:     0.019696     0.008196     0.007802
Rotational constants in MHz :   590.465726   245.715507   233.899918

                             ****ORCA TERMINATED NORMALLY****
TOTAL RUN TIME: 0 days 0 hours 0 minutes 23 seconds 77 msec
