                         Program Version 4.2.1 -  RELEASE  -
|  1> ! wB97X-D3 SP def2-SVP
|  2> %pal
|  3> nprocs 24
|  4> end
|  5>
|  6> * xyz 0 1
|  7> S 	 -44.9992 	 22.5304 	 28.7039
|  8> C 	 -46.4182 	 22.8786 	 27.6721
|  9> C 	 -47.441 	 23.5071 	 28.4185
| 10> C 	 -46.98 	 23.7814 	 29.7184
| 11> C 	 -45.7271 	 23.2651 	 30.114
| 12> H 	 -47.5649 	 24.4609 	 30.3743
| 13> C 	 -48.8006 	 23.8829 	 27.9657
| 14> H 	 -49.0443 	 24.761 	 28.51
| 15> H 	 -49.4732 	 23.0682 	 28.1915
| 16> C 	 -49.0708 	 24.3588 	 26.4914
| 17> H 	 -48.436 	 25.2207 	 26.3513
| 18> H 	 -48.7 	 23.6457 	 25.8298
| 19> C 	 -50.6477 	 24.5305 	 26.369
| 20> H 	 -51.2556 	 23.6657 	 26.4084
| 21> H 	 -51.0972 	 25.2359 	 27.0654
| 22> H 	 -50.8876 	 24.8725 	 25.3444
| 23> S 	 -43.2451 	 23.7042 	 31.2733
| 24> C 	 -43.1216 	 23.783 	 33.0216
| 25> C 	 -44.377 	 23.691 	 33.5912
| 26> C 	 -45.4978 	 23.5284 	 32.6684
| 27> C 	 -45.0145 	 23.5166 	 31.3794
| 28> H 	 -44.5233 	 23.6914 	 34.6315
| 29> C 	 -46.8897 	 23.089 	 33.1178
| 30> H 	 -47.5438 	 23.928 	 32.8914
| 31> H 	 -46.983 	 23.1403 	 34.167
| 32> C 	 -47.4214 	 21.7137 	 32.6583
| 33> H 	 -46.7194 	 21.0745 	 33.1346
| 34> H 	 -47.3471 	 21.6509 	 31.5616
| 35> C 	 -48.8716 	 21.3707 	 33.067
| 36> H 	 -49.6859 	 22.0256 	 32.8123
| 37> H 	 -48.8823 	 21.1111 	 34.1222
| 38> H 	 -49.1477 	 20.4415 	 32.6248
| 39> H 	 -46.6078 	 22.5987 	 26.6434
| 40> H 	 -42.1714 	 23.841 	 33.6056
| 41> *
| 42>
| 43>                          ****END OF INPUT****

CARTESIAN COORDINATES (ANGSTROEM)
---------------------------------
  S    -44.999200   22.530400   28.703900
  C    -46.418200   22.878600   27.672100
  C    -47.441000   23.507100   28.418500
  C    -46.980000   23.781400   29.718400
  C    -45.727100   23.265100   30.114000
  H    -47.564900   24.460900   30.374300
  C    -48.800600   23.882900   27.965700
  H    -49.044300   24.761000   28.510000
  H    -49.473200   23.068200   28.191500
  C    -49.070800   24.358800   26.491400
  H    -48.436000   25.220700   26.351300
  H    -48.700000   23.645700   25.829800
  C    -50.647700   24.530500   26.369000
  H    -51.255600   23.665700   26.408400
  H    -51.097200   25.235900   27.065400
  H    -50.887600   24.872500   25.344400
  S    -43.245100   23.704200   31.273300
  C    -43.121600   23.783000   33.021600
  C    -44.377000   23.691000   33.591200
  C    -45.497800   23.528400   32.668400
  C    -45.014500   23.516600   31.379400
  H    -44.523300   23.691400   34.631500
  C    -46.889700   23.089000   33.117800
  H    -47.543800   23.928000   32.891400
  H    -46.983000   23.140300   34.167000
  C    -47.421400   21.713700   32.658300
  H    -46.719400   21.074500   33.134600
  H    -47.347100   21.650900   31.561600
  C    -48.871600   21.370700   33.067000
  H    -49.685900   22.025600   32.812300
  H    -48.882300   21.111100   34.122200
  H    -49.147700   20.441500   32.624800
  H    -46.607800   22.598700   26.643400
  H    -42.171400   23.841000   33.605600

 Total Charge           Charge          ....    0
 Multiplicity           Mult            ....    1
 Number of Electrons    NEL             ....  134
 Basis Dimension        Dim             ....  322

ORBITAL ENERGIES
----------------

  NO   OCC          E(Eh)            E(eV)
   0   2.0000     -88.970885     -2421.0209
   1   2.0000     -88.966238     -2420.8944
   2   2.0000     -10.333729      -281.1951
   3   2.0000     -10.331592      -281.1369
   4   2.0000     -10.321902      -280.8732
   5   2.0000     -10.317893      -280.7641
   6   2.0000     -10.306311      -280.4490
   7   2.0000     -10.299634      -280.2673
   8   2.0000     -10.294237      -280.1204
   9   2.0000     -10.293685      -280.1054
  10   2.0000     -10.292372      -280.0697
  11   2.0000     -10.288352      -279.9603
  12   2.0000     -10.287708      -279.9428
  13   2.0000     -10.284941      -279.8675
  14   2.0000     -10.283802      -279.8365
  15   2.0000     -10.274052      -279.5712
  16   2.0000      -8.084281      -219.9845
  17   2.0000      -8.080443      -219.8800
  18   2.0000      -6.042903      -164.4358
  19   2.0000      -6.039129      -164.3331
  20   2.0000      -6.038883      -164.3264
  21   2.0000      -6.035098      -164.2234
  22   2.0000      -6.035083      -164.2229
  23   2.0000      -6.030979      -164.1113
  24   2.0000      -1.000845       -27.2344
  25   2.0000      -0.978337       -26.6219
  26   2.0000      -0.911790       -24.8111
  27   2.0000      -0.905557       -24.6415
  28   2.0000      -0.863591       -23.4995
  29   2.0000      -0.851691       -23.1757
  30   2.0000      -0.843238       -22.9457
  31   2.0000      -0.807934       -21.9850
  32   2.0000      -0.785820       -21.3832
  33   2.0000      -0.775351       -21.0984
  34   2.0000      -0.721996       -19.6465
  35   2.0000      -0.708913       -19.2905
  36   2.0000      -0.689990       -18.7756
  37   2.0000      -0.663858       -18.0645
  38   2.0000      -0.630164       -17.1476
  39   2.0000      -0.614093       -16.7103
  40   2.0000      -0.593560       -16.1516
  41   2.0000      -0.576924       -15.6989
  42   2.0000      -0.566872       -15.4254
  43   2.0000      -0.562002       -15.2929
  44   2.0000      -0.522487       -14.2176
  45   2.0000      -0.517424       -14.0798
  46   2.0000      -0.512953       -13.9582
  47   2.0000      -0.508515       -13.8374
  48   2.0000      -0.505343       -13.7511
  49   2.0000      -0.496452       -13.5092
  50   2.0000      -0.491668       -13.3790
  51   2.0000      -0.487324       -13.2608
  52   2.0000      -0.473577       -12.8867
  53   2.0000      -0.467735       -12.7277
  54   2.0000      -0.458497       -12.4763
  55   2.0000      -0.448787       -12.2121
  56   2.0000      -0.446063       -12.1380
  57   2.0000      -0.437768       -11.9123
  58   2.0000      -0.430422       -11.7124
  59   2.0000      -0.427368       -11.6293
  60   2.0000      -0.422986       -11.5100
  61   2.0000      -0.415511       -11.3066
  62   2.0000      -0.413564       -11.2537
  63   2.0000      -0.350678        -9.5424
  64   2.0000      -0.330867        -9.0033
  65   2.0000      -0.330112        -8.9828
  66   2.0000      -0.284454        -7.7404
  67   0.0000       0.019982         0.5437
  68   0.0000       0.078521         2.1367
  69   0.0000       0.101462         2.7609
  70   0.0000       0.122722         3.3394
  71   0.0000       0.135848         3.6966

MULLIKEN ATOMIC CHARGES
-----------------------
   0 S :    0.109820
   1 C :   -0.123676
   2 C :   -0.078996
   3 C :   -0.010924
   4 C :   -0.134765
   5 H :    0.020362
   6 C :    0.040647
   7 H :    0.020795
   8 H :    0.045317
   9 C :   -0.049623
  10 H :    0.036165
  11 H :    0.016145
  12 C :   -0.050213
  13 H :    0.025395
  14 H :    0.034966
  15 H :    0.029219
  16 S :    0.099048
  17 C :   -0.101925
  18 C :   -0.012313
  19 C :   -0.049394
  20 C :   -0.149471
  21 H :   -0.002454
  22 C :    0.088672
  23 H :    0.015106
  24 H :   -0.009935
  25 C :   -0.058637
  26 H :    0.028148
  27 H :    0.054074
  28 C :   -0.027085
  29 H :    0.034142
  30 H :    0.023157
  31 H :    0.018671
  32 H :    0.042421
  33 H :    0.077144
Sum of atomic charges:    0.0000000

LOEWDIN ATOMIC CHARGES
----------------------
   0 S :    0.401466
   1 C :   -0.196694
   2 C :   -0.065897
   3 C :   -0.069232
   4 C :   -0.198279
   5 H :    0.032170
   6 C :   -0.032909
   7 H :    0.028325
   8 H :    0.035166
   9 C :   -0.023414
  10 H :    0.027455
  11 H :    0.011188
  12 C :   -0.064868
  13 H :    0.022512
  14 H :    0.026658
  15 H :    0.029949
  16 S :    0.384967
  17 C :   -0.191960
  18 C :   -0.063197
  19 C :   -0.054766
  20 C :   -0.178902
  21 H :    0.020323
  22 C :   -0.035279
  23 H :    0.028769
  24 H :    0.021871
  25 C :   -0.030963
  26 H :    0.024974
  27 H :    0.028602
  28 C :   -0.064467
  29 H :    0.024635
  30 H :    0.025505
  31 H :    0.026163
  32 H :    0.027083
  33 H :    0.043045

  Mayer bond orders larger than 0.100000
B(  0-S ,  1-C ) :   1.1385 B(  0-S ,  4-C ) :   1.1523 B(  1-C ,  2-C ) :   1.5676
B(  1-C ,  4-C ) :   0.1061 B(  1-C , 32-H ) :   0.9676 B(  2-C ,  3-C ) :   1.3065
B(  2-C ,  6-C ) :   1.0129 B(  3-C ,  4-C ) :   1.5193 B(  3-C ,  5-H ) :   0.9822
B(  4-C , 20-C ) :   1.0697 B(  6-C ,  7-H ) :   0.9475 B(  6-C ,  8-H ) :   0.9359
B(  6-C ,  9-C ) :   1.0641 B(  9-C , 10-H ) :   0.9641 B(  9-C , 11-H ) :   0.9553
B(  9-C , 12-C ) :   1.0673 B( 12-C , 13-H ) :   0.9763 B( 12-C , 14-H ) :   0.9791
B( 12-C , 15-H ) :   0.9740 B( 16-S , 17-C ) :   1.1299 B( 16-S , 20-C ) :   1.1286
B( 17-C , 18-C ) :   1.6289 B( 17-C , 33-H ) :   0.9627 B( 18-C , 19-C ) :   1.2298
B( 18-C , 21-H ) :   0.9913 B( 19-C , 20-C ) :   1.6095 B( 19-C , 22-C ) :   1.0465
B( 22-C , 23-H ) :   0.9172 B( 22-C , 24-H ) :   0.9289 B( 22-C , 25-C ) :   1.0473
B( 25-C , 26-H ) :   0.9557 B( 25-C , 27-H ) :   0.9550 B( 25-C , 28-C ) :   1.0887
B( 28-C , 29-H ) :   0.9766 B( 28-C , 30-H ) :   0.9731 B( 28-C , 31-H ) :   0.9703

Dispersion correction           -0.014059878
FINAL SINGLE POINT ENERGY     -1339.865821783369

DIPOLE MOMENT
-------------
                                X             Y             Z
Electronic contribution:     30.67767       0.59222       1.45898
Nuclear contribution   :    -31.42699      -0.60578      -1.28113
                        -----------------------------------------
Total Dipole Moment    :     -0.74932      -0.01356       0.17785
                        -----------------------------------------
Magnitude (a.u.)       :      0.77026
Magnitude (Debye)      :      1.95784

Rotational constants in cm-1:     0.019702     0.008003     0.006316
Rotational constants in MHz :   590.641191   239.916963   189.351201

                             ****ORCA TERMINATED NORMALLY****
TOTAL RUN TIME: 0 days 0 hours 0 minutes 20 seconds 392 msec
