                         Program Version 4.2.1 -  RELEASE  -
|  1> ! wB97X-D3 SP def2-SVP
|  2> %pal
|  3> nprocs 24
|  4> end
|  5>
|  6> * xyz 0 1
|  7> S 	 -93.1849 	 14.3634 	 -119.869
|  8> C 	 -91.4338 	 14.6655 	 -119.803
|  9> C 	 -90.7877 	 13.4741 	 -119.566
| 10> C 	 -91.6553 	 12.3326 	 -119.828
| 11> C 	 -92.9826 	 12.6304 	 -119.974
| 12> H 	 -91.4037 	 11.2398 	 -119.908
| 13> C 	 -89.2479 	 13.3158 	 -119.421
| 14> H 	 -88.8091 	 14.0421 	 -120.082
| 15> H 	 -88.8271 	 12.3064 	 -119.587
| 16> C 	 -88.7648 	 13.6352 	 -118.019
| 17> H 	 -87.7106 	 13.765 	 -117.993
| 18> H 	 -89.236 	 14.6154 	 -117.735
| 19> C 	 -89.0311 	 12.5138 	 -116.984
| 20> H 	 -88.5841 	 11.6615 	 -117.443
| 21> H 	 -88.5623 	 12.6107 	 -116.029
| 22> H 	 -90.0604 	 12.2998 	 -116.86
| 23> S 	 -95.2942 	 11.4883 	 -119.028
| 24> C 	 -96.3495 	 10.5313 	 -120.022
| 25> C 	 -95.7442 	 10.3 	 -121.25
| 26> C 	 -94.5021 	 11.0272 	 -121.464
| 27> C 	 -94.1521 	 11.7814 	 -120.314
| 28> H 	 -96.18 	 9.68868 	 -122.033
| 29> C 	 -93.6393 	 10.9185 	 -122.75
| 30> H 	 -92.6471 	 11.3745 	 -122.559
| 31> H 	 -94.1317 	 11.5515 	 -123.484
| 32> C 	 -93.4197 	 9.5654 	 -123.396
| 33> H 	 -94.3804 	 9.03568 	 -123.604
| 34> H 	 -92.8633 	 9.05404 	 -122.651
| 35> C 	 -92.5918 	 9.70347 	 -124.719
| 36> H 	 -93.1955 	 10.0535 	 -125.526
| 37> H 	 -92.2664 	 8.69229 	 -125.005
| 38> H 	 -91.6685 	 10.325 	 -124.717
| 39> H 	 -91.0168 	 15.653 	 -119.844
| 40> H 	 -97.2481 	 10.0513 	 -119.785
| 41> *
| 42>
| 43>                          ****END OF INPUT****

CARTESIAN COORDINATES (ANGSTROEM)
---------------------------------
  S    -93.184900   14.363400  -119.869000
  C    -91.433800   14.665500  -119.803000
  C    -90.787700   13.474100  -119.566000
  C    -91.655300   12.332600  -119.828000
  C    -92.982600   12.630400  -119.974000
  H    -91.403700   11.239800  -119.908000
  C    -89.247900   13.315800  -119.421000
  H    -88.809100   14.042100  -120.082000
  H    -88.827100   12.306400  -119.587000
  C    -88.764800   13.635200  -118.019000
  H    -87.710600   13.765000  -117.993000
  H    -89.236000   14.615400  -117.735000
  C    -89.031100   12.513800  -116.984000
  H    -88.584100   11.661500  -117.443000
  H    -88.562300   12.610700  -116.029000
  H    -90.060400   12.299800  -116.860000
  S    -95.294200   11.488300  -119.028000
  C    -96.349500   10.531300  -120.022000
  C    -95.744200   10.300000  -121.250000
  C    -94.502100   11.027200  -121.464000
  C    -94.152100   11.781400  -120.314000
  H    -96.180000    9.688680  -122.033000
  C    -93.639300   10.918500  -122.750000
  H    -92.647100   11.374500  -122.559000
  H    -94.131700   11.551500  -123.484000
  C    -93.419700    9.565400  -123.396000
  H    -94.380400    9.035680  -123.604000
  H    -92.863300    9.054040  -122.651000
  C    -92.591800    9.703470  -124.719000
  H    -93.195500   10.053500  -125.526000
  H    -92.266400    8.692290  -125.005000
  H    -91.668500   10.325000  -124.717000
  H    -91.016800   15.653000  -119.844000
  H    -97.248100   10.051300  -119.785000

 Total Charge           Charge          ....    0
 Multiplicity           Mult            ....    1
 Number of Electrons    NEL             ....  134
 Basis Dimension        Dim             ....  322

ORBITAL ENERGIES
----------------

  NO   OCC          E(Eh)            E(eV)
   0   2.0000     -88.965980     -2420.8874
   1   2.0000     -88.961387     -2420.7624
   2   2.0000     -10.331339      -281.1300
   3   2.0000     -10.329981      -281.0931
   4   2.0000     -10.320221      -280.8275
   5   2.0000     -10.315857      -280.7087
   6   2.0000     -10.311490      -280.5899
   7   2.0000     -10.310692      -280.5682
   8   2.0000     -10.301444      -280.3165
   9   2.0000     -10.296645      -280.1860
  10   2.0000     -10.295335      -280.1503
  11   2.0000     -10.291621      -280.0492
  12   2.0000     -10.290492      -280.0185
  13   2.0000     -10.283621      -279.8315
  14   2.0000     -10.282863      -279.8109
  15   2.0000     -10.267338      -279.3885
  16   2.0000      -8.080819      -219.8903
  17   2.0000      -8.076144      -219.7630
  18   2.0000      -6.039365      -164.3395
  19   2.0000      -6.035149      -164.2248
  20   2.0000      -6.034749      -164.2139
  21   2.0000      -6.031686      -164.1305
  22   2.0000      -6.030620      -164.1015
  23   2.0000      -6.026789      -163.9973
  24   2.0000      -1.002955       -27.2918
  25   2.0000      -0.981961       -26.7205
  26   2.0000      -0.912545       -24.8316
  27   2.0000      -0.907272       -24.6881
  28   2.0000      -0.867947       -23.6180
  29   2.0000      -0.844536       -22.9810
  30   2.0000      -0.838487       -22.8164
  31   2.0000      -0.816686       -22.2232
  32   2.0000      -0.784484       -21.3469
  33   2.0000      -0.773820       -21.0567
  34   2.0000      -0.703767       -19.1505
  35   2.0000      -0.698052       -18.9950
  36   2.0000      -0.695804       -18.9338
  37   2.0000      -0.654106       -17.7991
  38   2.0000      -0.646796       -17.6002
  39   2.0000      -0.609167       -16.5763
  40   2.0000      -0.594247       -16.1703
  41   2.0000      -0.579885       -15.7795
  42   2.0000      -0.570382       -15.5209
  43   2.0000      -0.555266       -15.1096
  44   2.0000      -0.545805       -14.8521
  45   2.0000      -0.519750       -14.1431
  46   2.0000      -0.515233       -14.0202
  47   2.0000      -0.509922       -13.8757
  48   2.0000      -0.502823       -13.6825
  49   2.0000      -0.496652       -13.5146
  50   2.0000      -0.486855       -13.2480
  51   2.0000      -0.475466       -12.9381
  52   2.0000      -0.471884       -12.8406
  53   2.0000      -0.470606       -12.8058
  54   2.0000      -0.460460       -12.5298
  55   2.0000      -0.448438       -12.2026
  56   2.0000      -0.446133       -12.1399
  57   2.0000      -0.431261       -11.7352
  58   2.0000      -0.428932       -11.6718
  59   2.0000      -0.427034       -11.6202
  60   2.0000      -0.418551       -11.3893
  61   2.0000      -0.416423       -11.3315
  62   2.0000      -0.413841       -11.2612
  63   2.0000      -0.336491        -9.1564
  64   2.0000      -0.329926        -8.9778
  65   2.0000      -0.325903        -8.8683
  66   2.0000      -0.305700        -8.3185
  67   0.0000       0.041242         1.1223
  68   0.0000       0.053982         1.4689
  69   0.0000       0.118690         3.2297
  70   0.0000       0.119637         3.2555
  71   0.0000       0.123297         3.3551

MULLIKEN ATOMIC CHARGES
-----------------------
   0 S :    0.101858
   1 C :   -0.126944
   2 C :   -0.068075
   3 C :    0.029637
   4 C :   -0.168747
   5 H :    0.031591
   6 C :    0.062879
   7 H :    0.030712
   8 H :    0.026043
   9 C :   -0.087062
  10 H :    0.021415
  11 H :    0.025409
  12 C :   -0.015543
  13 H :    0.002623
  14 H :    0.032962
  15 H :    0.030639
  16 S :    0.116983
  17 C :   -0.055592
  18 C :   -0.054553
  19 C :   -0.012397
  20 C :   -0.184999
  21 H :    0.019380
  22 C :    0.052524
  23 H :    0.030383
  24 H :    0.029684
  25 C :   -0.075742
  26 H :    0.040963
  27 H :    0.027191
  28 C :   -0.056912
  29 H :    0.029236
  30 H :    0.031868
  31 H :    0.039767
  32 H :    0.053980
  33 H :    0.038839
Sum of atomic charges:    0.0000000

LOEWDIN ATOMIC CHARGES
----------------------
   0 S :    0.393125
   1 C :   -0.176098
   2 C :   -0.061378
   3 C :   -0.068507
   4 C :   -0.203418
   5 H :    0.041807
   6 C :   -0.027674
   7 H :    0.031502
   8 H :    0.030408
   9 C :   -0.039848
  10 H :    0.017676
  11 H :    0.021475
  12 C :   -0.057963
  13 H :    0.019229
  14 H :    0.024602
  15 H :    0.021093
  16 S :    0.422371
  17 C :   -0.184866
  18 C :   -0.073121
  19 C :   -0.049927
  20 C :   -0.212372
  21 H :    0.028537
  22 C :   -0.036769
  23 H :    0.033512
  24 H :    0.030020
  25 C :   -0.037316
  26 H :    0.028414
  27 H :    0.020101
  28 C :   -0.065740
  29 H :    0.021469
  30 H :    0.028508
  31 H :    0.030414
  32 H :    0.027524
  33 H :    0.023211

  Mayer bond orders larger than 0.100000
B(  0-S ,  1-C ) :   1.1415 B(  0-S ,  4-C ) :   1.1440 B(  1-C ,  2-C ) :   1.6184
B(  1-C , 32-H ) :   0.9751 B(  2-C ,  3-C ) :   1.1924 B(  2-C ,  6-C ) :   1.0138
B(  3-C ,  4-C ) :   1.6322 B(  3-C ,  5-H ) :   0.9894 B(  4-C , 20-C ) :   0.9862
B(  6-C ,  7-H ) :   0.9426 B(  6-C ,  8-H ) :   0.9524 B(  6-C ,  9-C ) :   1.0731
B(  9-C , 10-H ) :   0.9572 B(  9-C , 11-H ) :   0.9561 B(  9-C , 12-C ) :   1.0687
B( 12-C , 13-H ) :   0.9698 B( 12-C , 14-H ) :   0.9765 B( 12-C , 15-H ) :   0.9786
B( 16-S , 17-C ) :   1.1581 B( 16-S , 20-C ) :   1.1638 B( 17-C , 18-C ) :   1.5946
B( 17-C , 20-C ) :   0.1008 B( 17-C , 33-H ) :   0.9746 B( 18-C , 19-C ) :   1.2579
B( 18-C , 21-H ) :   0.9842 B( 19-C , 20-C ) :   1.5816 B( 19-C , 22-C ) :   1.0294
B( 22-C , 23-H ) :   0.9415 B( 22-C , 24-H ) :   0.9315 B( 22-C , 25-C ) :   1.0641
B( 25-C , 26-H ) :   0.9499 B( 25-C , 27-H ) :   0.9601 B( 25-C , 28-C ) :   1.0787
B( 28-C , 29-H ) :   0.9759 B( 28-C , 30-H ) :   0.9750 B( 28-C , 31-H ) :   0.9761

Dispersion correction           -0.013700799
FINAL SINGLE POINT ENERGY     -1339.875135507132

DIPOLE MOMENT
-------------
                                X             Y             Z
Electronic contribution:    -20.65143       9.34603       8.85614
Nuclear contribution   :     21.14201      -9.69333      -9.26799
                        -----------------------------------------
Total Dipole Moment    :      0.49058      -0.34730      -0.41184
                        -----------------------------------------
Magnitude (a.u.)       :      0.72863
Magnitude (Debye)      :      1.85203

Rotational constants in cm-1:     0.017664     0.007930     0.006561
Rotational constants in MHz :   529.560730   237.743840   196.700260

                             ****ORCA TERMINATED NORMALLY****
TOTAL RUN TIME: 0 days 0 hours 0 minutes 20 seconds 784 msec
