                         Program Version 4.2.1 -  RELEASE  -
|  1> ! wB97X-D3 SP def2-SVP
|  2> %pal
|  3> nprocs 24
|  4> end
|  5>
|  6> * xyz 0 1
|  7> S 	 -51.6992 	 16.3125 	 28.9236
|  8> C 	 -53.0818 	 15.3714 	 28.5221
|  9> C 	 -52.7246 	 14.0992 	 28.1652
| 10> C 	 -51.3227 	 13.8362 	 28.2012
| 11> C 	 -50.624 	 14.9316 	 28.6334
| 12> H 	 -50.8348 	 12.8702 	 28.0852
| 13> C 	 -53.707 	 13.058 	 27.6358
| 14> H 	 -53.0502 	 12.5419 	 26.9413
| 15> H 	 -54.4617 	 13.6778 	 27.2322
| 16> C 	 -54.3794 	 12.1038 	 28.6767
| 17> H 	 -53.6135 	 11.4014 	 28.8271
| 18> H 	 -54.4463 	 12.5311 	 29.6547
| 19> C 	 -55.6473 	 11.4144 	 28.2443
| 20> H 	 -55.697 	 11.4246 	 27.1584
| 21> H 	 -55.8711 	 10.4935 	 28.7744
| 22> H 	 -56.5086 	 12.1079 	 28.476
| 23> S 	 -48.4147 	 14.7115 	 30.2162
| 24> C 	 -46.7963 	 14.7628 	 29.521
| 25> C 	 -46.8784 	 14.9922 	 28.1879
| 26> C 	 -48.2319 	 15.1431 	 27.722
| 27> C 	 -49.154 	 15.09 	 28.7272
| 28> H 	 -45.9413 	 15.1299 	 27.5266
| 29> C 	 -48.4544 	 15.6323 	 26.3109
| 30> H 	 -49.4499 	 15.2048 	 25.9595
| 31> H 	 -47.6997 	 15.2286 	 25.6206
| 32> C 	 -48.5 	 17.1476 	 26.1312
| 33> H 	 -49.0809 	 17.6315 	 26.9045
| 34> H 	 -48.9371 	 17.3432 	 25.1544
| 35> C 	 -47.2334 	 17.847 	 26.268
| 36> H 	 -47.2511 	 18.9366 	 25.9973
| 37> H 	 -46.4957 	 17.3753 	 25.5988
| 38> H 	 -46.9173 	 17.7792 	 27.3215
| 39> H 	 -54.0773 	 15.7958 	 28.4923
| 40> H 	 -45.9262 	 14.6156 	 30.1056
| 41> *
| 42>
| 43>                          ****END OF INPUT****

CARTESIAN COORDINATES (ANGSTROEM)
---------------------------------
  S    -51.699200   16.312500   28.923600
  C    -53.081800   15.371400   28.522100
  C    -52.724600   14.099200   28.165200
  C    -51.322700   13.836200   28.201200
  C    -50.624000   14.931600   28.633400
  H    -50.834800   12.870200   28.085200
  C    -53.707000   13.058000   27.635800
  H    -53.050200   12.541900   26.941300
  H    -54.461700   13.677800   27.232200
  C    -54.379400   12.103800   28.676700
  H    -53.613500   11.401400   28.827100
  H    -54.446300   12.531100   29.654700
  C    -55.647300   11.414400   28.244300
  H    -55.697000   11.424600   27.158400
  H    -55.871100   10.493500   28.774400
  H    -56.508600   12.107900   28.476000
  S    -48.414700   14.711500   30.216200
  C    -46.796300   14.762800   29.521000
  C    -46.878400   14.992200   28.187900
  C    -48.231900   15.143100   27.722000
  C    -49.154000   15.090000   28.727200
  H    -45.941300   15.129900   27.526600
  C    -48.454400   15.632300   26.310900
  H    -49.449900   15.204800   25.959500
  H    -47.699700   15.228600   25.620600
  C    -48.500000   17.147600   26.131200
  H    -49.080900   17.631500   26.904500
  H    -48.937100   17.343200   25.154400
  C    -47.233400   17.847000   26.268000
  H    -47.251100   18.936600   25.997300
  H    -46.495700   17.375300   25.598800
  H    -46.917300   17.779200   27.321500
  H    -54.077300   15.795800   28.492300
  H    -45.926200   14.615600   30.105600

 Total Charge           Charge          ....    0
 Multiplicity           Mult            ....    1
 Number of Electrons    NEL             ....  134
 Basis Dimension        Dim             ....  322

ORBITAL ENERGIES
----------------

  NO   OCC          E(Eh)            E(eV)
   0   2.0000     -88.964578     -2420.8492
   1   2.0000     -88.962001     -2420.7791
   2   2.0000     -10.330426      -281.1052
   3   2.0000     -10.321211      -280.8544
   4   2.0000     -10.314974      -280.6847
   5   2.0000     -10.310486      -280.5626
   6   2.0000     -10.299177      -280.2548
   7   2.0000     -10.298477      -280.2358
   8   2.0000     -10.297286      -280.2034
   9   2.0000     -10.295185      -280.1462
  10   2.0000     -10.292012      -280.0599
  11   2.0000     -10.288572      -279.9663
  12   2.0000     -10.280703      -279.7521
  13   2.0000     -10.276850      -279.6473
  14   2.0000     -10.273352      -279.5521
  15   2.0000     -10.272003      -279.5154
  16   2.0000      -8.079532      -219.8552
  17   2.0000      -8.077758      -219.8070
  18   2.0000      -6.037944      -164.3008
  19   2.0000      -6.036294      -164.2559
  20   2.0000      -6.033983      -164.1930
  21   2.0000      -6.031984      -164.1386
  22   2.0000      -6.030414      -164.0959
  23   2.0000      -6.028562      -164.0455
  24   2.0000      -1.011310       -27.5191
  25   2.0000      -0.990057       -26.9408
  26   2.0000      -0.915050       -24.8998
  27   2.0000      -0.909828       -24.7577
  28   2.0000      -0.871972       -23.7276
  29   2.0000      -0.853330       -23.2203
  30   2.0000      -0.850186       -23.1347
  31   2.0000      -0.820511       -22.3272
  32   2.0000      -0.779305       -21.2060
  33   2.0000      -0.769066       -20.9273
  34   2.0000      -0.707177       -19.2433
  35   2.0000      -0.699786       -19.0421
  36   2.0000      -0.683048       -18.5867
  37   2.0000      -0.662242       -18.0205
  38   2.0000      -0.647253       -17.6127
  39   2.0000      -0.618361       -16.8265
  40   2.0000      -0.598005       -16.2726
  41   2.0000      -0.568925       -15.4812
  42   2.0000      -0.558154       -15.1881
  43   2.0000      -0.555540       -15.1170
  44   2.0000      -0.546418       -14.8688
  45   2.0000      -0.530857       -14.4453
  46   2.0000      -0.519254       -14.1296
  47   2.0000      -0.513192       -13.9647
  48   2.0000      -0.503911       -13.7121
  49   2.0000      -0.502174       -13.6648
  50   2.0000      -0.488761       -13.2999
  51   2.0000      -0.480037       -13.0625
  52   2.0000      -0.474604       -12.9146
  53   2.0000      -0.465683       -12.6719
  54   2.0000      -0.464606       -12.6426
  55   2.0000      -0.449326       -12.2268
  56   2.0000      -0.436347       -11.8736
  57   2.0000      -0.434755       -11.8303
  58   2.0000      -0.431966       -11.7544
  59   2.0000      -0.420319       -11.4375
  60   2.0000      -0.412042       -11.2122
  61   2.0000      -0.409450       -11.1417
  62   2.0000      -0.406330       -11.0568
  63   2.0000      -0.341701        -9.2982
  64   2.0000      -0.332623        -9.0511
  65   2.0000      -0.319971        -8.7068
  66   2.0000      -0.311932        -8.4881
  67   0.0000       0.048550         1.3211
  68   0.0000       0.055972         1.5231
  69   0.0000       0.116934         3.1819
  70   0.0000       0.124738         3.3943
  71   0.0000       0.130671         3.5557

MULLIKEN ATOMIC CHARGES
-----------------------
   0 S :    0.108393
   1 C :   -0.120573
   2 C :   -0.124244
   3 C :    0.053931
   4 C :   -0.179006
   5 H :    0.026664
   6 C :    0.080871
   7 H :    0.031083
   8 H :    0.008781
   9 C :   -0.034708
  10 H :    0.003033
  11 H :    0.022722
  12 C :   -0.042669
  13 H :    0.030750
  14 H :    0.047192
  15 H :    0.025431
  16 S :    0.103638
  17 C :   -0.088121
  18 C :   -0.044662
  19 C :   -0.040666
  20 C :   -0.157931
  21 H :    0.052801
  22 C :    0.040019
  23 H :    0.037880
  24 H :    0.019590
  25 C :   -0.020286
  26 H :    0.017983
  27 H :    0.025896
  28 C :   -0.075595
  29 H :    0.042145
  30 H :    0.013233
  31 H :    0.040766
  32 H :    0.049395
  33 H :    0.046265
Sum of atomic charges:    0.0000000

LOEWDIN ATOMIC CHARGES
----------------------
   0 S :    0.407723
   1 C :   -0.205538
   2 C :   -0.065758
   3 C :   -0.060893
   4 C :   -0.185608
   5 H :    0.039349
   6 C :   -0.021910
   7 H :    0.032969
   8 H :    0.021917
   9 C :   -0.043987
  10 H :    0.016421
  11 H :    0.022203
  12 C :   -0.068032
  13 H :    0.027007
  14 H :    0.030150
  15 H :    0.030442
  16 S :    0.419782
  17 C :   -0.174185
  18 C :   -0.080560
  19 C :   -0.062742
  20 C :   -0.222047
  21 H :    0.047709
  22 C :   -0.033685
  23 H :    0.038716
  24 H :    0.027947
  25 C :   -0.044596
  26 H :    0.024395
  27 H :    0.024299
  28 C :   -0.070815
  29 H :    0.032575
  30 H :    0.016965
  31 H :    0.027767
  32 H :    0.029137
  33 H :    0.022886

  Mayer bond orders larger than 0.100000
B(  0-S ,  1-C ) :   1.1428 B(  0-S ,  4-C ) :   1.1633 B(  1-C ,  2-C ) :   1.6189
B(  1-C , 32-H ) :   0.9706 B(  2-C ,  3-C ) :   1.2367 B(  2-C ,  6-C ) :   1.0038
B(  3-C ,  4-C ) :   1.6049 B(  3-C ,  5-H ) :   0.9931 B(  4-C , 20-C ) :   0.9676
B(  6-C ,  7-H ) :   0.9418 B(  6-C ,  8-H ) :   0.9435 B(  6-C ,  9-C ) :   1.0537
B(  9-C , 10-H ) :   0.9500 B(  9-C , 11-H ) :   0.9600 B(  9-C , 12-C ) :   1.0801
B( 12-C , 13-H ) :   0.9746 B( 12-C , 14-H ) :   0.9738 B( 12-C , 15-H ) :   0.9728
B( 16-S , 17-C ) :   1.1572 B( 16-S , 20-C ) :   1.1584 B( 17-C , 18-C ) :   1.6035
B( 17-C , 33-H ) :   0.9765 B( 18-C , 19-C ) :   1.2423 B( 18-C , 21-H ) :   0.9738
B( 19-C , 20-C ) :   1.6144 B( 19-C , 22-C ) :   1.0565 B( 22-C , 23-H ) :   0.9273
B( 22-C , 24-H ) :   0.9344 B( 22-C , 25-C ) :   1.0767 B( 25-C , 26-H ) :   0.9488
B( 25-C , 27-H ) :   0.9510 B( 25-C , 28-C ) :   1.0916 B( 28-C , 29-H ) :   0.9684
B( 28-C , 30-H ) :   0.9699 B( 28-C , 31-H ) :   0.9705

Dispersion correction           -0.014542926
FINAL SINGLE POINT ENERGY     -1339.875166353485

DIPOLE MOMENT
-------------
                                X             Y             Z
Electronic contribution:      8.41563       5.19424      14.48467
Nuclear contribution   :     -8.46766      -5.43282     -14.85777
                        -----------------------------------------
Total Dipole Moment    :     -0.05204      -0.23858      -0.37310
                        -----------------------------------------
Magnitude (a.u.)       :      0.44590
Magnitude (Debye)      :      1.13339

Rotational constants in cm-1:     0.024260     0.007046     0.006413
Rotational constants in MHz :   727.308894   211.227815   192.263164

                             ****ORCA TERMINATED NORMALLY****
TOTAL RUN TIME: 0 days 0 hours 0 minutes 21 seconds 555 msec
