                         Program Version 4.2.1 -  RELEASE  -
|  1> ! wB97X-D3 SP def2-SVP
|  2> %pal
|  3> nprocs 24
|  4> end
|  5>
|  6> * xyz 0 1
|  7> S 	 -132.901 	 21.6621 	 -17.3286
|  8> C 	 -132.772 	 20.2666 	 -16.2477
|  9> C 	 -132.899 	 19.0867 	 -16.8767
| 10> C 	 -132.982 	 19.304 	 -18.2846
| 11> C 	 -133.13 	 20.5576 	 -18.6838
| 12> H 	 -133.089 	 18.493 	 -19.0065
| 13> C 	 -132.996 	 17.7147 	 -16.2419
| 14> H 	 -133.286 	 17.665 	 -15.2358
| 15> H 	 -131.925 	 17.3674 	 -16.2356
| 16> C 	 -133.824 	 16.5681 	 -17.0434
| 17> H 	 -133.425 	 16.3198 	 -18.0415
| 18> H 	 -133.61 	 15.596 	 -16.525
| 19> C 	 -135.361 	 16.8782 	 -17.3196
| 20> H 	 -136.087 	 16.7991 	 -16.4411
| 21> H 	 -135.403 	 17.9735 	 -17.6117
| 22> H 	 -135.809 	 16.3818 	 -18.1288
| 23> S 	 -132.162 	 22.3269 	 -20.5645
| 24> C 	 -132.925 	 22.2229 	 -22.203
| 25> C 	 -134.055 	 21.4501 	 -22.2209
| 26> C 	 -134.242 	 20.7449 	 -20.9927
| 27> C 	 -133.267 	 21.0395 	 -20.0204
| 28> H 	 -134.668 	 21.4259 	 -23.0393
| 29> C 	 -135.374 	 19.7576 	 -20.8094
| 30> H 	 -136.231 	 20.1732 	 -21.272
| 31> H 	 -135.601 	 19.5068 	 -19.8039
| 32> C 	 -135.131 	 18.4162 	 -21.5363
| 33> H 	 -134.278 	 17.8855 	 -21.1935
| 34> H 	 -135.014 	 18.5755 	 -22.6496
| 35> C 	 -136.302 	 17.4601 	 -21.2332
| 36> H 	 -136.2 	 17.0921 	 -20.1959
| 37> H 	 -136.266 	 16.549 	 -21.7613
| 38> H 	 -137.378 	 17.7823 	 -21.4299
| 39> H 	 -132.586 	 20.3386 	 -15.1745
| 40> H 	 -132.674 	 22.9228 	 -23.0062
| 41> *
| 42>
| 43>                          ****END OF INPUT****

CARTESIAN COORDINATES (ANGSTROEM)
---------------------------------
  S    -132.901000   21.662100  -17.328600
  C    -132.772000   20.266600  -16.247700
  C    -132.899000   19.086700  -16.876700
  C    -132.982000   19.304000  -18.284600
  C    -133.130000   20.557600  -18.683800
  H    -133.089000   18.493000  -19.006500
  C    -132.996000   17.714700  -16.241900
  H    -133.286000   17.665000  -15.235800
  H    -131.925000   17.367400  -16.235600
  C    -133.824000   16.568100  -17.043400
  H    -133.425000   16.319800  -18.041500
  H    -133.610000   15.596000  -16.525000
  C    -135.361000   16.878200  -17.319600
  H    -136.087000   16.799100  -16.441100
  H    -135.403000   17.973500  -17.611700
  H    -135.809000   16.381800  -18.128800
  S    -132.162000   22.326900  -20.564500
  C    -132.925000   22.222900  -22.203000
  C    -134.055000   21.450100  -22.220900
  C    -134.242000   20.744900  -20.992700
  C    -133.267000   21.039500  -20.020400
  H    -134.668000   21.425900  -23.039300
  C    -135.374000   19.757600  -20.809400
  H    -136.231000   20.173200  -21.272000
  H    -135.601000   19.506800  -19.803900
  C    -135.131000   18.416200  -21.536300
  H    -134.278000   17.885500  -21.193500
  H    -135.014000   18.575500  -22.649600
  C    -136.302000   17.460100  -21.233200
  H    -136.200000   17.092100  -20.195900
  H    -136.266000   16.549000  -21.761300
  H    -137.378000   17.782300  -21.429900
  H    -132.586000   20.338600  -15.174500
  H    -132.674000   22.922800  -23.006200

 Total Charge           Charge          ....    0
 Multiplicity           Mult            ....    1
 Number of Electrons    NEL             ....  134
 Basis Dimension        Dim             ....  322

ORBITAL ENERGIES
----------------

  NO   OCC          E(Eh)            E(eV)
   0   2.0000     -88.965748     -2420.8811
   1   2.0000     -88.961991     -2420.7788
   2   2.0000     -10.326638      -281.0021
   3   2.0000     -10.322069      -280.8778
   4   2.0000     -10.320893      -280.8458
   5   2.0000     -10.310757      -280.5700
   6   2.0000     -10.307767      -280.4886
   7   2.0000     -10.305776      -280.4344
   8   2.0000     -10.303787      -280.3803
   9   2.0000     -10.298746      -280.2431
  10   2.0000     -10.291374      -280.0425
  11   2.0000     -10.291205      -280.0379
  12   2.0000     -10.289280      -279.9855
  13   2.0000     -10.286972      -279.9227
  14   2.0000     -10.286374      -279.9065
  15   2.0000     -10.281090      -279.7627
  16   2.0000      -8.079203      -219.8463
  17   2.0000      -8.076710      -219.7785
  18   2.0000      -6.037847      -164.2982
  19   2.0000      -6.035401      -164.2316
  20   2.0000      -6.034084      -164.1958
  21   2.0000      -6.031427      -164.1235
  22   2.0000      -6.029698      -164.0764
  23   2.0000      -6.027069      -164.0049
  24   2.0000      -1.008667       -27.4472
  25   2.0000      -0.980441       -26.6792
  26   2.0000      -0.910280       -24.7700
  27   2.0000      -0.901915       -24.5424
  28   2.0000      -0.871000       -23.7011
  29   2.0000      -0.849429       -23.1141
  30   2.0000      -0.839758       -22.8510
  31   2.0000      -0.820262       -22.3205
  32   2.0000      -0.785493       -21.3744
  33   2.0000      -0.771933       -21.0054
  34   2.0000      -0.711757       -19.3679
  35   2.0000      -0.702215       -19.1082
  36   2.0000      -0.694975       -18.9112
  37   2.0000      -0.666543       -18.1376
  38   2.0000      -0.643163       -17.5014
  39   2.0000      -0.625977       -17.0337
  40   2.0000      -0.599282       -16.3073
  41   2.0000      -0.574413       -15.6306
  42   2.0000      -0.561954       -15.2915
  43   2.0000      -0.549039       -14.9401
  44   2.0000      -0.526416       -14.3245
  45   2.0000      -0.517018       -14.0688
  46   2.0000      -0.515307       -14.0222
  47   2.0000      -0.512784       -13.9536
  48   2.0000      -0.507521       -13.8103
  49   2.0000      -0.496058       -13.4984
  50   2.0000      -0.490755       -13.3541
  51   2.0000      -0.484604       -13.1868
  52   2.0000      -0.468117       -12.7381
  53   2.0000      -0.463098       -12.6015
  54   2.0000      -0.457269       -12.4429
  55   2.0000      -0.453723       -12.3464
  56   2.0000      -0.442658       -12.0453
  57   2.0000      -0.436076       -11.8662
  58   2.0000      -0.434235       -11.8161
  59   2.0000      -0.430072       -11.7029
  60   2.0000      -0.425003       -11.5649
  61   2.0000      -0.422103       -11.4860
  62   2.0000      -0.415528       -11.3071
  63   2.0000      -0.349235        -9.5032
  64   2.0000      -0.331379        -9.0173
  65   2.0000      -0.327877        -8.9220
  66   2.0000      -0.292761        -7.9664
  67   0.0000       0.030320         0.8250
  68   0.0000       0.069305         1.8859
  69   0.0000       0.100995         2.7482
  70   0.0000       0.117229         3.1900
  71   0.0000       0.130849         3.5606

MULLIKEN ATOMIC CHARGES
-----------------------
   0 S :    0.096496
   1 C :   -0.139641
   2 C :   -0.054081
   3 C :    0.013492
   4 C :   -0.129482
   5 H :   -0.003962
   6 C :    0.071197
   7 H :    0.023675
   8 H :    0.051522
   9 C :   -0.099683
  10 H :    0.029187
  11 H :    0.037894
  12 C :   -0.091055
  13 H :    0.045005
  14 H :    0.049745
  15 H :    0.043809
  16 S :    0.090865
  17 C :   -0.090006
  18 C :    0.006509
  19 C :   -0.020084
  20 C :   -0.155862
  21 H :   -0.013144
  22 C :    0.118328
  23 H :    0.010605
  24 H :    0.011314
  25 C :   -0.082398
  26 H :    0.024181
  27 H :    0.037507
  28 C :   -0.053135
  29 H :    0.008758
  30 H :    0.016470
  31 H :    0.039263
  32 H :    0.043841
  33 H :    0.062870
Sum of atomic charges:   -0.0000000

LOEWDIN ATOMIC CHARGES
----------------------
   0 S :    0.375841
   1 C :   -0.183923
   2 C :   -0.069191
   3 C :   -0.061374
   4 C :   -0.185947
   5 H :    0.029218
   6 C :   -0.026080
   7 H :    0.024048
   8 H :    0.047393
   9 C :   -0.045020
  10 H :    0.023546
  11 H :    0.030126
  12 C :   -0.080068
  13 H :    0.033337
  14 H :    0.034649
  15 H :    0.013694
  16 S :    0.365169
  17 C :   -0.159710
  18 C :   -0.056203
  19 C :   -0.043760
  20 C :   -0.187329
  21 H :    0.019225
  22 C :   -0.022009
  23 H :    0.028371
  24 H :    0.024119
  25 C :   -0.032831
  26 H :    0.017926
  27 H :    0.027216
  28 C :   -0.076271
  29 H :    0.025853
  30 H :    0.018450
  31 H :    0.031459
  32 H :    0.029330
  33 H :    0.030747

  Mayer bond orders larger than 0.100000
B(  0-S ,  1-C ) :   1.1151 B(  0-S ,  4-C ) :   1.1091 B(  1-C ,  2-C ) :   1.6714
B(  1-C , 32-H ) :   0.9626 B(  2-C ,  3-C ) :   1.1950 B(  2-C ,  6-C ) :   1.0068
B(  3-C ,  4-C ) :   1.6409 B(  3-C ,  5-H ) :   0.9903 B(  4-C , 20-C ) :   1.0624
B(  6-C ,  7-H ) :   0.9524 B(  6-C ,  8-H ) :   0.9324 B(  6-C ,  9-C ) :   1.0687
B(  9-C , 10-H ) :   0.9551 B(  9-C , 11-H ) :   0.9579 B(  9-C , 12-C ) :   1.0494
B( 12-C , 13-H ) :   0.9713 B( 12-C , 14-H ) :   0.9738 B( 12-C , 15-H ) :   0.9726
B( 16-S , 17-C ) :   1.1315 B( 16-S , 20-C ) :   1.1168 B( 17-C , 18-C ) :   1.6339
B( 17-C , 33-H ) :   0.9628 B( 18-C , 19-C ) :   1.2149 B( 18-C , 21-H ) :   1.0034
B( 19-C , 20-C ) :   1.6004 B( 19-C , 22-C ) :   1.0601 B( 22-C , 23-H ) :   0.9241
B( 22-C , 24-H ) :   0.9338 B( 22-C , 25-C ) :   1.0610 B( 25-C , 26-H ) :   0.9519
B( 25-C , 27-H ) :   0.9561 B( 25-C , 28-C ) :   1.0821 B( 28-C , 29-H ) :   0.9702
B( 28-C , 30-H ) :   0.9691 B( 28-C , 31-H ) :   0.9727

Dispersion correction           -0.016054437
FINAL SINGLE POINT ENERGY     -1339.865690875339

DIPOLE MOMENT
-------------
                                X             Y             Z
Electronic contribution:     16.67560      28.25714       1.23933
Nuclear contribution   :    -17.04647     -28.93884      -1.37221
                        -----------------------------------------
Total Dipole Moment    :     -0.37087      -0.68170      -0.13287
                        -----------------------------------------
Magnitude (a.u.)       :      0.78734
Magnitude (Debye)      :      2.00127

Rotational constants in cm-1:     0.016482     0.011501     0.007271
Rotational constants in MHz :   494.116657   344.805455   217.969734

                             ****ORCA TERMINATED NORMALLY****
TOTAL RUN TIME: 0 days 0 hours 0 minutes 23 seconds 229 msec
