                         Program Version 4.2.1 -  RELEASE  -
|  1> ! wB97X-D3 SP def2-SVP
|  2> %pal
|  3> nprocs 24
|  4> end
|  5>
|  6> * xyz 0 1
|  7> S 	 -30.7293 	 15.1397 	 11.4683
|  8> C 	 -31.4237 	 13.5408 	 11.7265
|  9> C 	 -30.4416 	 12.5432 	 11.8084
| 10> C 	 -29.1838 	 13.0819 	 11.4627
| 11> C 	 -29.134 	 14.4396 	 11.1465
| 12> H 	 -28.2282 	 12.529 	 11.3266
| 13> C 	 -30.672 	 11.0091 	 11.9779
| 14> H 	 -29.7812 	 10.4417 	 11.6705
| 15> H 	 -31.4469 	 10.7947 	 11.2896
| 16> C 	 -31.0888 	 10.6023 	 13.4442
| 17> H 	 -30.2472 	 10.895 	 14.1256
| 18> H 	 -31.9905 	 11.0529 	 13.6719
| 19> C 	 -31.3102 	 9.098 	 13.6145
| 20> H 	 -31.3323 	 8.83886 	 14.6887
| 21> H 	 -32.3182 	 8.76623 	 13.2336
| 22> H 	 -30.5692 	 8.55477 	 13.1064
| 23> S 	 -27.5006 	 16.0612 	 9.75364
| 24> C 	 -25.9328 	 16.5618 	 10.469
| 25> C 	 -25.9852 	 16.349 	 11.8234
| 26> C 	 -27.0924 	 15.5323 	 12.229
| 27> C 	 -27.9563 	 15.2844 	 11.1906
| 28> H 	 -25.1932 	 16.751 	 12.4628
| 29> C 	 -27.2878 	 15.1903 	 13.689
| 30> H 	 -26.4027 	 15.0151 	 14.2617
| 31> H 	 -27.6831 	 14.1701 	 13.6766
| 32> C 	 -28.2468 	 16.0944 	 14.4671
| 33> H 	 -29.1691 	 16.1033 	 13.8444
| 34> H 	 -27.8413 	 17.1631 	 14.4445
| 35> C 	 -28.5942 	 15.5993 	 15.8316
| 36> H 	 -29.347 	 16.2046 	 16.3779
| 37> H 	 -27.7178 	 15.7588 	 16.4826
| 38> H 	 -28.8161 	 14.4734 	 15.8525
| 39> H 	 -32.4888 	 13.2243 	 11.9764
| 40> H 	 -25.0603 	 17.0847 	 9.98013
| 41> *
| 42>
| 43>                          ****END OF INPUT****

CARTESIAN COORDINATES (ANGSTROEM)
---------------------------------
  S    -30.729300   15.139700   11.468300
  C    -31.423700   13.540800   11.726500
  C    -30.441600   12.543200   11.808400
  C    -29.183800   13.081900   11.462700
  C    -29.134000   14.439600   11.146500
  H    -28.228200   12.529000   11.326600
  C    -30.672000   11.009100   11.977900
  H    -29.781200   10.441700   11.670500
  H    -31.446900   10.794700   11.289600
  C    -31.088800   10.602300   13.444200
  H    -30.247200   10.895000   14.125600
  H    -31.990500   11.052900   13.671900
  C    -31.310200    9.098000   13.614500
  H    -31.332300    8.838860   14.688700
  H    -32.318200    8.766230   13.233600
  H    -30.569200    8.554770   13.106400
  S    -27.500600   16.061200    9.753640
  C    -25.932800   16.561800   10.469000
  C    -25.985200   16.349000   11.823400
  C    -27.092400   15.532300   12.229000
  C    -27.956300   15.284400   11.190600
  H    -25.193200   16.751000   12.462800
  C    -27.287800   15.190300   13.689000
  H    -26.402700   15.015100   14.261700
  H    -27.683100   14.170100   13.676600
  C    -28.246800   16.094400   14.467100
  H    -29.169100   16.103300   13.844400
  H    -27.841300   17.163100   14.444500
  C    -28.594200   15.599300   15.831600
  H    -29.347000   16.204600   16.377900
  H    -27.717800   15.758800   16.482600
  H    -28.816100   14.473400   15.852500
  H    -32.488800   13.224300   11.976400
  H    -25.060300   17.084700    9.980130

 Total Charge           Charge          ....    0
 Multiplicity           Mult            ....    1
 Number of Electrons    NEL             ....  134
 Basis Dimension        Dim             ....  322

ORBITAL ENERGIES
----------------

  NO   OCC          E(Eh)            E(eV)
   0   2.0000     -88.971362     -2421.0338
   1   2.0000     -88.964073     -2420.8355
   2   2.0000     -10.327230      -281.0182
   3   2.0000     -10.324868      -280.9540
   4   2.0000     -10.321868      -280.8723
   5   2.0000     -10.320754      -280.8420
   6   2.0000     -10.305465      -280.4260
   7   2.0000     -10.300918      -280.3022
   8   2.0000     -10.298743      -280.2430
   9   2.0000     -10.298145      -280.2268
  10   2.0000     -10.293281      -280.0944
  11   2.0000     -10.289096      -279.9805
  12   2.0000     -10.285285      -279.8768
  13   2.0000     -10.283638      -279.8320
  14   2.0000     -10.282167      -279.7920
  15   2.0000     -10.280332      -279.7421
  16   2.0000      -8.084662      -219.9948
  17   2.0000      -8.079208      -219.8464
  18   2.0000      -6.043209      -164.4441
  19   2.0000      -6.039294      -164.3375
  20   2.0000      -6.037732      -164.2950
  21   2.0000      -6.035512      -164.2346
  22   2.0000      -6.033667      -164.1844
  23   2.0000      -6.029900      -164.0819
  24   2.0000      -1.008990       -27.4560
  25   2.0000      -0.982606       -26.7381
  26   2.0000      -0.907677       -24.6991
  27   2.0000      -0.907488       -24.6940
  28   2.0000      -0.870927       -23.6991
  29   2.0000      -0.848580       -23.0910
  30   2.0000      -0.847787       -23.0695
  31   2.0000      -0.813029       -22.1236
  32   2.0000      -0.781271       -21.2595
  33   2.0000      -0.767124       -20.8745
  34   2.0000      -0.702706       -19.1216
  35   2.0000      -0.699670       -19.0390
  36   2.0000      -0.686497       -18.6805
  37   2.0000      -0.660391       -17.9702
  38   2.0000      -0.636968       -17.3328
  39   2.0000      -0.614071       -16.7097
  40   2.0000      -0.593512       -16.1503
  41   2.0000      -0.577225       -15.7071
  42   2.0000      -0.561615       -15.2823
  43   2.0000      -0.555974       -15.1288
  44   2.0000      -0.523205       -14.2371
  45   2.0000      -0.519251       -14.1295
  46   2.0000      -0.516195       -14.0464
  47   2.0000      -0.512504       -13.9459
  48   2.0000      -0.505089       -13.7442
  49   2.0000      -0.497403       -13.5350
  50   2.0000      -0.494007       -13.4426
  51   2.0000      -0.477673       -12.9981
  52   2.0000      -0.467912       -12.7325
  53   2.0000      -0.463140       -12.6027
  54   2.0000      -0.460887       -12.5414
  55   2.0000      -0.442974       -12.0539
  56   2.0000      -0.440734       -11.9930
  57   2.0000      -0.434300       -11.8179
  58   2.0000      -0.427556       -11.6344
  59   2.0000      -0.427386       -11.6298
  60   2.0000      -0.425480       -11.5779
  61   2.0000      -0.420713       -11.4482
  62   2.0000      -0.402361       -10.9488
  63   2.0000      -0.338269        -9.2048
  64   2.0000      -0.334916        -9.1135
  65   2.0000      -0.321270        -8.7422
  66   2.0000      -0.304100        -8.2750
  67   0.0000       0.034496         0.9387
  68   0.0000       0.052246         1.4217
  69   0.0000       0.109884         2.9901
  70   0.0000       0.114852         3.1253
  71   0.0000       0.127784         3.4772

MULLIKEN ATOMIC CHARGES
-----------------------
   0 S :    0.114983
   1 C :   -0.123466
   2 C :   -0.093058
   3 C :    0.008957
   4 C :   -0.138825
   5 H :    0.031423
   6 C :    0.055351
   7 H :    0.028460
   8 H :    0.028595
   9 C :   -0.070003
  10 H :    0.044031
  11 H :    0.015871
  12 C :   -0.043980
  13 H :    0.039544
  14 H :    0.030636
  15 H :    0.020781
  16 S :    0.112788
  17 C :   -0.122219
  18 C :   -0.036868
  19 C :   -0.026385
  20 C :   -0.188748
  21 H :    0.027455
  22 C :    0.092087
  23 H :    0.003411
  24 H :    0.003995
  25 C :   -0.074748
  26 H :    0.027339
  27 H :    0.034491
  28 C :   -0.054236
  29 H :    0.041732
  30 H :    0.020399
  31 H :    0.046378
  32 H :    0.067076
  33 H :    0.076751
Sum of atomic charges:    0.0000000

LOEWDIN ATOMIC CHARGES
----------------------
   0 S :    0.410306
   1 C :   -0.204458
   2 C :   -0.068855
   3 C :   -0.059265
   4 C :   -0.202938
   5 H :    0.038432
   6 C :   -0.022880
   7 H :    0.030945
   8 H :    0.026793
   9 C :   -0.033288
  10 H :    0.032012
  11 H :    0.012262
  12 C :   -0.065220
  13 H :    0.030689
  14 H :    0.028440
  15 H :    0.014564
  16 S :    0.415929
  17 C :   -0.186400
  18 C :   -0.070348
  19 C :   -0.053524
  20 C :   -0.225536
  21 H :    0.035337
  22 C :   -0.036539
  23 H :    0.021436
  24 H :    0.030897
  25 C :   -0.050001
  26 H :    0.019279
  27 H :    0.029973
  28 C :   -0.076958
  29 H :    0.031691
  30 H :    0.023501
  31 H :    0.035835
  32 H :    0.043525
  33 H :    0.044367

  Mayer bond orders larger than 0.100000
B(  0-S ,  1-C ) :   1.1600 B(  0-S ,  4-C ) :   1.1465 B(  1-C ,  2-C ) :   1.5895
B(  1-C ,  4-C ) :   0.1096 B(  1-C , 32-H ) :   0.9553 B(  2-C ,  3-C ) :   1.2740
B(  2-C ,  6-C ) :   1.0034 B(  3-C ,  4-C ) :   1.5747 B(  3-C ,  5-H ) :   0.9887
B(  4-C , 20-C ) :   0.9978 B(  6-C ,  7-H ) :   0.9497 B(  6-C ,  8-H ) :   0.9452
B(  6-C ,  9-C ) :   1.0614 B(  9-C , 10-H ) :   0.9593 B(  9-C , 11-H ) :   0.9588
B(  9-C , 12-C ) :   1.0863 B( 12-C , 13-H ) :   0.9752 B( 12-C , 14-H ) :   0.9749
B( 12-C , 15-H ) :   0.9754 B( 16-S , 17-C ) :   1.1438 B( 16-S , 20-C ) :   1.1468
B( 17-C , 18-C ) :   1.6208 B( 17-C , 33-H ) :   0.9616 B( 18-C , 19-C ) :   1.2370
B( 18-C , 21-H ) :   0.9862 B( 19-C , 20-C ) :   1.5998 B( 19-C , 22-C ) :   1.0507
B( 22-C , 23-H ) :   0.9311 B( 22-C , 24-H ) :   0.9147 B( 22-C , 25-C ) :   1.0628
B( 25-C , 26-H ) :   0.9483 B( 25-C , 27-H ) :   0.9507 B( 25-C , 28-C ) :   1.0850
B( 28-C , 29-H ) :   0.9706 B( 28-C , 30-H ) :   0.9699 B( 28-C , 31-H ) :   0.9704

Dispersion correction           -0.014686332
FINAL SINGLE POINT ENERGY     -1339.867655745807

DIPOLE MOMENT
-------------
                                X             Y             Z
Electronic contribution:      4.12414      17.99981     -23.00433
Nuclear contribution   :     -3.99258     -18.46406      23.55466
                        -----------------------------------------
Total Dipole Moment    :      0.13156      -0.46425       0.55033
                        -----------------------------------------
Magnitude (a.u.)       :      0.73192
Magnitude (Debye)      :      1.86039

Rotational constants in cm-1:     0.019811     0.008098     0.006966
Rotational constants in MHz :   593.913637   242.760699   208.842458

                             ****ORCA TERMINATED NORMALLY****
TOTAL RUN TIME: 0 days 0 hours 0 minutes 21 seconds 859 msec
