                         Program Version 4.2.1 -  RELEASE  -
|  1> ! wB97X-D3 SP def2-SVP
|  2> %pal
|  3> nprocs 24
|  4> end
|  5>
|  6> * xyz 0 1
|  7> S 	 -56.546 	 1.00247 	 -19.3176
|  8> C 	 -57.8249 	 1.36181 	 -20.3787
|  9> C 	 -58.1391 	 2.71914 	 -20.4441
| 10> C 	 -57.4021 	 3.42622 	 -19.4193
| 11> C 	 -56.411 	 2.62246 	 -18.7734
| 12> H 	 -57.5091 	 4.47658 	 -19.0996
| 13> C 	 -59.4029 	 3.36443 	 -21.0281
| 14> H 	 -59.4981 	 3.08365 	 -22.0967
| 15> H 	 -59.2103 	 4.45603 	 -20.9641
| 16> C 	 -60.6963 	 2.90123 	 -20.4118
| 17> H 	 -60.9005 	 1.77043 	 -20.6297
| 18> H 	 -60.7489 	 3.10357 	 -19.2673
| 19> C 	 -61.841 	 3.73028 	 -20.9198
| 20> H 	 -62.7549 	 3.29847 	 -20.4939
| 21> H 	 -61.8308 	 4.82555 	 -20.78
| 22> H 	 -61.9486 	 3.5844 	 -21.9463
| 23> S 	 -55.6227 	 2.2002 	 -16.1893
| 24> C 	 -54.0993 	 2.8235 	 -15.6978
| 25> C 	 -53.6885 	 3.86004 	 -16.5073
| 26> C 	 -54.5478 	 3.97698 	 -17.6267
| 27> C 	 -55.4604 	 2.95244 	 -17.7403
| 28> H 	 -52.8316 	 4.40099 	 -16.1929
| 29> C 	 -54.2662 	 4.99574 	 -18.7208
| 30> H 	 -54.3951 	 4.59932 	 -19.7134
| 31> H 	 -53.1557 	 5.12087 	 -18.65
| 32> C 	 -55.0155 	 6.35027 	 -18.5886
| 33> H 	 -54.6472 	 6.81826 	 -17.6847
| 34> H 	 -56.1273 	 6.17545 	 -18.4835
| 35> C 	 -54.8153 	 7.29583 	 -19.7674
| 36> H 	 -54.2158 	 6.75553 	 -20.4992
| 37> H 	 -54.1145 	 8.10911 	 -19.5584
| 38> H 	 -55.7813 	 7.59559 	 -20.2486
| 39> H 	 -58.2895 	 0.606303 	 -20.8644
| 40> H 	 -53.5623 	 2.52338 	 -14.8286
| 41> *
| 42>
| 43>                          ****END OF INPUT****

CARTESIAN COORDINATES (ANGSTROEM)
---------------------------------
  S    -56.546000    1.002470  -19.317600
  C    -57.824900    1.361810  -20.378700
  C    -58.139100    2.719140  -20.444100
  C    -57.402100    3.426220  -19.419300
  C    -56.411000    2.622460  -18.773400
  H    -57.509100    4.476580  -19.099600
  C    -59.402900    3.364430  -21.028100
  H    -59.498100    3.083650  -22.096700
  H    -59.210300    4.456030  -20.964100
  C    -60.696300    2.901230  -20.411800
  H    -60.900500    1.770430  -20.629700
  H    -60.748900    3.103570  -19.267300
  C    -61.841000    3.730280  -20.919800
  H    -62.754900    3.298470  -20.493900
  H    -61.830800    4.825550  -20.780000
  H    -61.948600    3.584400  -21.946300
  S    -55.622700    2.200200  -16.189300
  C    -54.099300    2.823500  -15.697800
  C    -53.688500    3.860040  -16.507300
  C    -54.547800    3.976980  -17.626700
  C    -55.460400    2.952440  -17.740300
  H    -52.831600    4.400990  -16.192900
  C    -54.266200    4.995740  -18.720800
  H    -54.395100    4.599320  -19.713400
  H    -53.155700    5.120870  -18.650000
  C    -55.015500    6.350270  -18.588600
  H    -54.647200    6.818260  -17.684700
  H    -56.127300    6.175450  -18.483500
  C    -54.815300    7.295830  -19.767400
  H    -54.215800    6.755530  -20.499200
  H    -54.114500    8.109110  -19.558400
  H    -55.781300    7.595590  -20.248600
  H    -58.289500    0.606303  -20.864400
  H    -53.562300    2.523380  -14.828600

 Total Charge           Charge          ....    0
 Multiplicity           Mult            ....    1
 Number of Electrons    NEL             ....  134
 Basis Dimension        Dim             ....  322

ORBITAL ENERGIES
----------------

  NO   OCC          E(Eh)            E(eV)
   0   2.0000     -88.966548     -2420.9028
   1   2.0000     -88.960292     -2420.7326
   2   2.0000     -10.325508      -280.9713
   3   2.0000     -10.318318      -280.7757
   4   2.0000     -10.309353      -280.5318
   5   2.0000     -10.306069      -280.4424
   6   2.0000     -10.304109      -280.3891
   7   2.0000     -10.301036      -280.3054
   8   2.0000     -10.299441      -280.2620
   9   2.0000     -10.299223      -280.2561
  10   2.0000     -10.297436      -280.2075
  11   2.0000     -10.288504      -279.9644
  12   2.0000     -10.288259      -279.9578
  13   2.0000     -10.288120      -279.9540
  14   2.0000     -10.278429      -279.6903
  15   2.0000     -10.272590      -279.5314
  16   2.0000      -8.082661      -219.9404
  17   2.0000      -8.076305      -219.7674
  18   2.0000      -6.040788      -164.3782
  19   2.0000      -6.036791      -164.2694
  20   2.0000      -6.034642      -164.2110
  21   2.0000      -6.033928      -164.1915
  22   2.0000      -6.030865      -164.1082
  23   2.0000      -6.026937      -164.0013
  24   2.0000      -1.012780       -27.5592
  25   2.0000      -0.990172       -26.9439
  26   2.0000      -0.916793       -24.9472
  27   2.0000      -0.904574       -24.6147
  28   2.0000      -0.872796       -23.7500
  29   2.0000      -0.852605       -23.2006
  30   2.0000      -0.849686       -23.1211
  31   2.0000      -0.812074       -22.0976
  32   2.0000      -0.781858       -21.2754
  33   2.0000      -0.769498       -20.9391
  34   2.0000      -0.703384       -19.1401
  35   2.0000      -0.693564       -18.8728
  36   2.0000      -0.691317       -18.8117
  37   2.0000      -0.664119       -18.0716
  38   2.0000      -0.648991       -17.6600
  39   2.0000      -0.616114       -16.7653
  40   2.0000      -0.594212       -16.1693
  41   2.0000      -0.573249       -15.5989
  42   2.0000      -0.567384       -15.4393
  43   2.0000      -0.559829       -15.2337
  44   2.0000      -0.529021       -14.3954
  45   2.0000      -0.523914       -14.2564
  46   2.0000      -0.515390       -14.0245
  47   2.0000      -0.508985       -13.8502
  48   2.0000      -0.508352       -13.8330
  49   2.0000      -0.503473       -13.7002
  50   2.0000      -0.495299       -13.4778
  51   2.0000      -0.477500       -12.9934
  52   2.0000      -0.471265       -12.8238
  53   2.0000      -0.465687       -12.6720
  54   2.0000      -0.458196       -12.4681
  55   2.0000      -0.447838       -12.1863
  56   2.0000      -0.442795       -12.0491
  57   2.0000      -0.438425       -11.9301
  58   2.0000      -0.427296       -11.6273
  59   2.0000      -0.425397       -11.5757
  60   2.0000      -0.422259       -11.4903
  61   2.0000      -0.410981       -11.1834
  62   2.0000      -0.408089       -11.1047
  63   2.0000      -0.338028        -9.1982
  64   2.0000      -0.331612        -9.0236
  65   2.0000      -0.324847        -8.8395
  66   2.0000      -0.293926        -7.9981
  67   0.0000       0.027471         0.7475
  68   0.0000       0.071709         1.9513
  69   0.0000       0.113810         3.0969
  70   0.0000       0.123329         3.3560
  71   0.0000       0.125822         3.4238

MULLIKEN ATOMIC CHARGES
-----------------------
   0 S :    0.136384
   1 C :   -0.090575
   2 C :   -0.042979
   3 C :    0.018351
   4 C :   -0.191728
   5 H :    0.017996
   6 C :    0.035075
   7 H :    0.030627
   8 H :    0.033788
   9 C :   -0.121123
  10 H :    0.050439
  11 H :    0.046456
  12 C :   -0.019417
  13 H :    0.029032
  14 H :    0.039150
  15 H :    0.003260
  16 S :    0.113506
  17 C :   -0.079895
  18 C :   -0.033480
  19 C :    0.001477
  20 C :   -0.157986
  21 H :    0.008500
  22 C :    0.026962
  23 H :    0.028618
  24 H :    0.023217
  25 C :   -0.080067
  26 H :    0.024714
  27 H :    0.034509
  28 C :   -0.034496
  29 H :    0.014534
  30 H :    0.033830
  31 H :    0.049689
  32 H :    0.009039
  33 H :    0.042594
Sum of atomic charges:   -0.0000000

LOEWDIN ATOMIC CHARGES
----------------------
   0 S :    0.459340
   1 C :   -0.191870
   2 C :   -0.064816
   3 C :   -0.059940
   4 C :   -0.219690
   5 H :    0.030952
   6 C :   -0.039383
   7 H :    0.033862
   8 H :    0.034200
   9 C :   -0.051475
  10 H :    0.037760
  11 H :    0.034008
  12 C :   -0.068367
  13 H :    0.029654
  14 H :    0.029034
  15 H :    0.011912
  16 S :    0.420511
  17 C :   -0.183393
  18 C :   -0.070538
  19 C :   -0.053300
  20 C :   -0.213219
  21 H :    0.029645
  22 C :   -0.036605
  23 H :    0.025476
  24 H :    0.032227
  25 C :   -0.043997
  26 H :    0.022326
  27 H :    0.026231
  28 C :   -0.074075
  29 H :    0.024748
  30 H :    0.029179
  31 H :    0.034628
  32 H :    0.002530
  33 H :    0.022448

  Mayer bond orders larger than 0.100000
B(  0-S ,  1-C ) :   1.1874 B(  0-S ,  4-C ) :   1.1862 B(  1-C ,  2-C ) :   1.5400
B(  1-C ,  4-C ) :   0.1047 B(  1-C , 32-H ) :   0.9873 B(  2-C ,  3-C ) :   1.2711
B(  2-C ,  6-C ) :   1.0363 B(  3-C ,  4-C ) :   1.5306 B(  3-C ,  5-H ) :   0.9864
B(  4-C , 20-C ) :   1.0469 B(  6-C ,  7-H ) :   0.9314 B(  6-C ,  8-H ) :   0.9465
B(  6-C ,  9-C ) :   1.0703 B(  9-C , 10-H ) :   0.9471 B(  9-C , 11-H ) :   0.9561
B(  9-C , 12-C ) :   1.0808 B( 12-C , 13-H ) :   0.9701 B( 12-C , 14-H ) :   0.9746
B( 12-C , 15-H ) :   0.9686 B( 16-S , 17-C ) :   1.1663 B( 16-S , 20-C ) :   1.1516
B( 17-C , 18-C ) :   1.5989 B( 17-C , 20-C ) :   0.1022 B( 17-C , 33-H ) :   0.9715
B( 18-C , 19-C ) :   1.2312 B( 18-C , 21-H ) :   1.0042 B( 19-C , 20-C ) :   1.5786
B( 19-C , 22-C ) :   1.0434 B( 22-C , 23-H ) :   0.9363 B( 22-C , 24-H ) :   0.9412
B( 22-C , 25-C ) :   1.0628 B( 25-C , 26-H ) :   0.9552 B( 25-C , 27-H ) :   0.9607
B( 25-C , 28-C ) :   1.0701 B( 28-C , 29-H ) :   0.9740 B( 28-C , 30-H ) :   0.9729
B( 28-C , 31-H ) :   0.9771

Dispersion correction           -0.013979403
FINAL SINGLE POINT ENERGY     -1339.860191598154

DIPOLE MOMENT
-------------
                                X             Y             Z
Electronic contribution:     12.19158     -21.09795      13.93683
Nuclear contribution   :    -12.34815      21.49495     -14.12979
                        -----------------------------------------
Total Dipole Moment    :     -0.15658       0.39700      -0.19296
                        -----------------------------------------
Magnitude (a.u.)       :      0.46836
Magnitude (Debye)      :      1.19047

Rotational constants in cm-1:     0.018059     0.008483     0.006595
Rotational constants in MHz :   541.408837   254.321153   197.713777

                             ****ORCA TERMINATED NORMALLY****
TOTAL RUN TIME: 0 days 0 hours 0 minutes 21 seconds 475 msec
