                         Program Version 4.2.1 -  RELEASE  -
|  1> ! wB97X-D3 SP def2-SVP
|  2> %pal
|  3> nprocs 24
|  4> end
|  5>
|  6> * xyz 0 1
|  7> S 	 34.7265 	 -31.2256 	 -113.393
|  8> C 	 34.6735 	 -32.8982 	 -112.941
|  9> C 	 35.7688 	 -33.556 	 -113.407
| 10> C 	 36.8364 	 -32.7238 	 -113.933
| 11> C 	 36.4735 	 -31.3593 	 -113.768
| 12> H 	 37.7405 	 -33.0486 	 -114.325
| 13> C 	 36.0277 	 -35.0297 	 -113.273
| 14> H 	 36.9871 	 -35.3346 	 -112.803
| 15> H 	 36.2453 	 -35.5082 	 -114.257
| 16> C 	 35.0269 	 -35.8621 	 -112.561
| 17> H 	 34.7063 	 -35.4287 	 -111.605
| 18> H 	 34.1893 	 -35.9682 	 -113.237
| 19> C 	 35.4241 	 -37.3675 	 -112.453
| 20> H 	 36.4775 	 -37.4136 	 -112.224
| 21> H 	 34.8135 	 -37.9093 	 -111.785
| 22> H 	 35.1413 	 -37.9568 	 -113.366
| 23> S 	 37.0457 	 -29.0819 	 -115.444
| 24> C 	 38.4409 	 -28.0916 	 -114.94
| 25> C 	 39.1769 	 -28.737 	 -113.969
| 26> C 	 38.4347 	 -29.8213 	 -113.341
| 27> C 	 37.2886 	 -30.1882 	 -114.017
| 28> H 	 40.0876 	 -28.3494 	 -113.51
| 29> C 	 38.9396 	 -30.5892 	 -112.071
| 30> H 	 38.2447 	 -31.4706 	 -111.981
| 31> H 	 38.6993 	 -30.0693 	 -111.124
| 32> C 	 40.3538 	 -31.1323 	 -111.969
| 33> H 	 40.6061 	 -31.3702 	 -110.97
| 34> H 	 40.9094 	 -30.2378 	 -112.228
| 35> C 	 40.8211 	 -32.2024 	 -113.059
| 36> H 	 40.5125 	 -32.0154 	 -114.116
| 37> H 	 40.5177 	 -33.2006 	 -112.801
| 38> H 	 41.925 	 -32.2843 	 -113.098
| 39> H 	 33.9148 	 -33.4539 	 -112.424
| 40> H 	 38.7074 	 -27.2602 	 -115.548
| 41> *
| 42>
| 43>                          ****END OF INPUT****

CARTESIAN COORDINATES (ANGSTROEM)
---------------------------------
  S     34.726500  -31.225600  -113.393000
  C     34.673500  -32.898200  -112.941000
  C     35.768800  -33.556000  -113.407000
  C     36.836400  -32.723800  -113.933000
  C     36.473500  -31.359300  -113.768000
  H     37.740500  -33.048600  -114.325000
  C     36.027700  -35.029700  -113.273000
  H     36.987100  -35.334600  -112.803000
  H     36.245300  -35.508200  -114.257000
  C     35.026900  -35.862100  -112.561000
  H     34.706300  -35.428700  -111.605000
  H     34.189300  -35.968200  -113.237000
  C     35.424100  -37.367500  -112.453000
  H     36.477500  -37.413600  -112.224000
  H     34.813500  -37.909300  -111.785000
  H     35.141300  -37.956800  -113.366000
  S     37.045700  -29.081900  -115.444000
  C     38.440900  -28.091600  -114.940000
  C     39.176900  -28.737000  -113.969000
  C     38.434700  -29.821300  -113.341000
  C     37.288600  -30.188200  -114.017000
  H     40.087600  -28.349400  -113.510000
  C     38.939600  -30.589200  -112.071000
  H     38.244700  -31.470600  -111.981000
  H     38.699300  -30.069300  -111.124000
  C     40.353800  -31.132300  -111.969000
  H     40.606100  -31.370200  -110.970000
  H     40.909400  -30.237800  -112.228000
  C     40.821100  -32.202400  -113.059000
  H     40.512500  -32.015400  -114.116000
  H     40.517700  -33.200600  -112.801000
  H     41.925000  -32.284300  -113.098000
  H     33.914800  -33.453900  -112.424000
  H     38.707400  -27.260200  -115.548000

 Total Charge           Charge          ....    0
 Multiplicity           Mult            ....    1
 Number of Electrons    NEL             ....  134
 Basis Dimension        Dim             ....  322

ORBITAL ENERGIES
----------------

  NO   OCC          E(Eh)            E(eV)
   0   2.0000     -88.965682     -2420.8793
   1   2.0000     -88.963867     -2420.8299
   2   2.0000     -10.336578      -281.2726
   3   2.0000     -10.330081      -281.0958
   4   2.0000     -10.324222      -280.9364
   5   2.0000     -10.310782      -280.5707
   6   2.0000     -10.309889      -280.5463
   7   2.0000     -10.301085      -280.3068
   8   2.0000     -10.300951      -280.3031
   9   2.0000     -10.300117      -280.2804
  10   2.0000     -10.293685      -280.1054
  11   2.0000     -10.291599      -280.0487
  12   2.0000     -10.288695      -279.9696
  13   2.0000     -10.284759      -279.8625
  14   2.0000     -10.284585      -279.8578
  15   2.0000     -10.280888      -279.7572
  16   2.0000      -8.080100      -219.8707
  17   2.0000      -8.077401      -219.7972
  18   2.0000      -6.038742      -164.3225
  19   2.0000      -6.036071      -164.2498
  20   2.0000      -6.034866      -164.2171
  21   2.0000      -6.032223      -164.1451
  22   2.0000      -6.030509      -164.0985
  23   2.0000      -6.027908      -164.0277
  24   2.0000      -0.999271       -27.1915
  25   2.0000      -0.977637       -26.6028
  26   2.0000      -0.917235       -24.9592
  27   2.0000      -0.899292       -24.4710
  28   2.0000      -0.869920       -23.6717
  29   2.0000      -0.850146       -23.1336
  30   2.0000      -0.837219       -22.7819
  31   2.0000      -0.812493       -22.1091
  32   2.0000      -0.783376       -21.3167
  33   2.0000      -0.774185       -21.0666
  34   2.0000      -0.714259       -19.4360
  35   2.0000      -0.702045       -19.1036
  36   2.0000      -0.694729       -18.9045
  37   2.0000      -0.656387       -17.8612
  38   2.0000      -0.642305       -17.4780
  39   2.0000      -0.614703       -16.7269
  40   2.0000      -0.599484       -16.3128
  41   2.0000      -0.574179       -15.6242
  42   2.0000      -0.570403       -15.5215
  43   2.0000      -0.546960       -14.8835
  44   2.0000      -0.537090       -14.6150
  45   2.0000      -0.527289       -14.3483
  46   2.0000      -0.514859       -14.0100
  47   2.0000      -0.513630       -13.9766
  48   2.0000      -0.503179       -13.6922
  49   2.0000      -0.497503       -13.5377
  50   2.0000      -0.489394       -13.3171
  51   2.0000      -0.481140       -13.0925
  52   2.0000      -0.471797       -12.8383
  53   2.0000      -0.463235       -12.6053
  54   2.0000      -0.454646       -12.3716
  55   2.0000      -0.451467       -12.2850
  56   2.0000      -0.447155       -12.1677
  57   2.0000      -0.435317       -11.8456
  58   2.0000      -0.432789       -11.7768
  59   2.0000      -0.424687       -11.5563
  60   2.0000      -0.420561       -11.4440
  61   2.0000      -0.409378       -11.1397
  62   2.0000      -0.399718       -10.8769
  63   2.0000      -0.337556        -9.1854
  64   2.0000      -0.330317        -8.9884
  65   2.0000      -0.324641        -8.8339
  66   2.0000      -0.299215        -8.1420
  67   0.0000       0.027902         0.7593
  68   0.0000       0.054360         1.4792
  69   0.0000       0.104795         2.8516
  70   0.0000       0.113762         3.0956
  71   0.0000       0.127699         3.4749

MULLIKEN ATOMIC CHARGES
-----------------------
   0 S :    0.117203
   1 C :   -0.101611
   2 C :   -0.058971
   3 C :    0.088443
   4 C :   -0.194847
   5 H :   -0.008790
   6 C :    0.026332
   7 H :    0.017080
   8 H :    0.026647
   9 C :   -0.107103
  10 H :    0.042389
  11 H :    0.026909
  12 C :   -0.031241
  13 H :    0.030423
  14 H :    0.018759
  15 H :    0.033613
  16 S :    0.083648
  17 C :   -0.084490
  18 C :   -0.010699
  19 C :   -0.049354
  20 C :   -0.136087
  21 H :    0.033909
  22 C :    0.025395
  23 H :    0.031995
  24 H :    0.041308
  25 C :   -0.031688
  26 H :    0.026172
  27 H :    0.014231
  28 C :   -0.077657
  29 H :    0.048943
  30 H :    0.025230
  31 H :    0.032880
  32 H :    0.041038
  33 H :    0.059988
Sum of atomic charges:    0.0000000

LOEWDIN ATOMIC CHARGES
----------------------
   0 S :    0.395309
   1 C :   -0.200671
   2 C :   -0.063200
   3 C :   -0.028584
   4 C :   -0.173371
   5 H :    0.021835
   6 C :   -0.048105
   7 H :    0.028251
   8 H :    0.038194
   9 C :   -0.049527
  10 H :    0.022895
  11 H :    0.025232
  12 C :   -0.060386
  13 H :    0.019588
  14 H :    0.021924
  15 H :    0.033505
  16 S :    0.353790
  17 C :   -0.155532
  18 C :   -0.071486
  19 C :   -0.048615
  20 C :   -0.187729
  21 H :    0.033230
  22 C :   -0.042348
  23 H :    0.032202
  24 H :    0.037209
  25 C :   -0.036524
  26 H :    0.023664
  27 H :    0.020642
  28 C :   -0.072685
  29 H :    0.031661
  30 H :    0.017406
  31 H :    0.029186
  32 H :    0.029468
  33 H :    0.023571

  Mayer bond orders larger than 0.100000
B(  0-S ,  1-C ) :   1.1162 B(  0-S ,  4-C ) :   1.1350 B(  1-C ,  2-C ) :   1.6599
B(  1-C , 32-H ) :   0.9560 B(  2-C ,  3-C ) :   1.1982 B(  2-C ,  6-C ) :   1.0182
B(  3-C ,  4-C ) :   1.5633 B(  3-C ,  5-H ) :   1.0129 B(  4-C , 20-C ) :   1.0609
B(  6-C ,  7-H ) :   0.9395 B(  6-C ,  8-H ) :   0.9276 B(  6-C ,  9-C ) :   1.0867
B(  9-C , 10-H ) :   0.9516 B(  9-C , 11-H ) :   0.9508 B(  9-C , 12-C ) :   1.0788
B( 12-C , 13-H ) :   0.9768 B( 12-C , 14-H ) :   0.9696 B( 12-C , 15-H ) :   0.9755
B( 16-S , 17-C ) :   1.1411 B( 16-S , 20-C ) :   1.1064 B( 17-C , 18-C ) :   1.6289
B( 17-C , 33-H ) :   0.9711 B( 18-C , 19-C ) :   1.2149 B( 18-C , 21-H ) :   0.9805
B( 19-C , 20-C ) :   1.6408 B( 19-C , 22-C ) :   1.0257 B( 22-C , 23-H ) :   0.9333
B( 22-C , 24-H ) :   0.9369 B( 22-C , 25-C ) :   1.0743 B( 25-C , 26-H ) :   0.9538
B( 25-C , 27-H ) :   0.9570 B( 25-C , 28-C ) :   1.0602 B( 28-C , 29-H ) :   0.9757
B( 28-C , 30-H ) :   0.9783 B( 28-C , 31-H ) :   0.9762

Dispersion correction           -0.014424417
FINAL SINGLE POINT ENERGY     -1339.848718455797

DIPOLE MOMENT
-------------
                                X             Y             Z
Electronic contribution:    -12.34717      25.65146     -11.17302
Nuclear contribution   :     12.83063     -26.19761      11.44431
                        -----------------------------------------
Total Dipole Moment    :      0.48346      -0.54615       0.27129
                        -----------------------------------------
Magnitude (a.u.)       :      0.77821
Magnitude (Debye)      :      1.97805

Rotational constants in cm-1:     0.020428     0.008027     0.006315
Rotational constants in MHz :   612.416239   240.629876   189.319888

                             ****ORCA TERMINATED NORMALLY****
TOTAL RUN TIME: 0 days 0 hours 0 minutes 21 seconds 540 msec
