                         Program Version 4.2.1 -  RELEASE  -
|  1> ! wB97X-D3 SP def2-SVP
|  2> %pal
|  3> nprocs 24
|  4> end
|  5>
|  6> * xyz 0 1
|  7> S 	 -53.3219 	 13.0645 	 21.8565
|  8> C 	 -53.7403 	 11.97 	 20.5601
|  9> C 	 -54.7837 	 11.0999 	 20.8851
| 10> C 	 -55.249 	 11.2677 	 22.1718
| 11> C 	 -54.481 	 12.1884 	 22.9155
| 12> H 	 -56.0362 	 10.6826 	 22.6367
| 13> C 	 -55.5256 	 10.1858 	 19.9501
| 14> H 	 -55.7442 	 9.2114 	 20.4173
| 15> H 	 -54.7063 	 9.90549 	 19.2096
| 16> C 	 -56.6704 	 10.731 	 19.1756
| 17> H 	 -57.381 	 11.2404 	 19.899
| 18> H 	 -56.2037 	 11.5122 	 18.549
| 19> C 	 -57.5546 	 9.79562 	 18.3162
| 20> H 	 -58.1289 	 9.1437 	 18.9486
| 21> H 	 -58.2703 	 10.4084 	 17.765
| 22> H 	 -57.0389 	 9.20378 	 17.5265
| 23> S 	 -55.6871 	 13.853 	 24.881
| 24> C 	 -55.4464 	 13.4708 	 26.5437
| 25> C 	 -54.6067 	 12.357 	 26.682
| 26> C 	 -54.1628 	 11.8394 	 25.4169
| 27> C 	 -54.6795 	 12.5188 	 24.3054
| 28> H 	 -54.3158 	 12.0547 	 27.6522
| 29> C 	 -53.1263 	 10.7514 	 25.3713
| 30> H 	 -52.5711 	 10.7716 	 26.3008
| 31> H 	 -52.3991 	 11.1209 	 24.7227
| 32> C 	 -53.6606 	 9.34078 	 25.1371
| 33> H 	 -52.9124 	 8.54678 	 25.0318
| 34> H 	 -54.0408 	 9.32124 	 24.1461
| 35> C 	 -54.6592 	 8.79579 	 26.143
| 36> H 	 -55.4252 	 9.63687 	 26.32
| 37> H 	 -54.2501 	 8.46589 	 27.1248
| 38> H 	 -55.2016 	 7.87756 	 25.7965
| 39> H 	 -53.4387 	 12.1162 	 19.5542
| 40> H 	 -56.0642 	 13.7992 	 27.3459
| 41> *
| 42>
| 43>                          ****END OF INPUT****

CARTESIAN COORDINATES (ANGSTROEM)
---------------------------------
  S    -53.321900   13.064500   21.856500
  C    -53.740300   11.970000   20.560100
  C    -54.783700   11.099900   20.885100
  C    -55.249000   11.267700   22.171800
  C    -54.481000   12.188400   22.915500
  H    -56.036200   10.682600   22.636700
  C    -55.525600   10.185800   19.950100
  H    -55.744200    9.211400   20.417300
  H    -54.706300    9.905490   19.209600
  C    -56.670400   10.731000   19.175600
  H    -57.381000   11.240400   19.899000
  H    -56.203700   11.512200   18.549000
  C    -57.554600    9.795620   18.316200
  H    -58.128900    9.143700   18.948600
  H    -58.270300   10.408400   17.765000
  H    -57.038900    9.203780   17.526500
  S    -55.687100   13.853000   24.881000
  C    -55.446400   13.470800   26.543700
  C    -54.606700   12.357000   26.682000
  C    -54.162800   11.839400   25.416900
  C    -54.679500   12.518800   24.305400
  H    -54.315800   12.054700   27.652200
  C    -53.126300   10.751400   25.371300
  H    -52.571100   10.771600   26.300800
  H    -52.399100   11.120900   24.722700
  C    -53.660600    9.340780   25.137100
  H    -52.912400    8.546780   25.031800
  H    -54.040800    9.321240   24.146100
  C    -54.659200    8.795790   26.143000
  H    -55.425200    9.636870   26.320000
  H    -54.250100    8.465890   27.124800
  H    -55.201600    7.877560   25.796500
  H    -53.438700   12.116200   19.554200
  H    -56.064200   13.799200   27.345900

 Total Charge           Charge          ....    0
 Multiplicity           Mult            ....    1
 Number of Electrons    NEL             ....  134
 Basis Dimension        Dim             ....  322

ORBITAL ENERGIES
----------------

  NO   OCC          E(Eh)            E(eV)
   0   2.0000     -88.974023     -2421.1063
   1   2.0000     -88.965726     -2420.8805
   2   2.0000     -10.333524      -281.1895
   3   2.0000     -10.324637      -280.9477
   4   2.0000     -10.316222      -280.7187
   5   2.0000     -10.315409      -280.6965
   6   2.0000     -10.302555      -280.3468
   7   2.0000     -10.298508      -280.2367
   8   2.0000     -10.295442      -280.1532
   9   2.0000     -10.293306      -280.0951
  10   2.0000     -10.292634      -280.0768
  11   2.0000     -10.291662      -280.0504
  12   2.0000     -10.283779      -279.8358
  13   2.0000     -10.283766      -279.8355
  14   2.0000     -10.281078      -279.7623
  15   2.0000     -10.278908      -279.7033
  16   2.0000      -8.087655      -220.0763
  17   2.0000      -8.080450      -219.8802
  18   2.0000      -6.046023      -164.5206
  19   2.0000      -6.042322      -164.4200
  20   2.0000      -6.038921      -164.3274
  21   2.0000      -6.038623      -164.3193
  22   2.0000      -6.034748      -164.2138
  23   2.0000      -6.031465      -164.1245
  24   2.0000      -1.003476       -27.3060
  25   2.0000      -0.983729       -26.7686
  26   2.0000      -0.913931       -24.8693
  27   2.0000      -0.908918       -24.7329
  28   2.0000      -0.868134       -23.6231
  29   2.0000      -0.855195       -23.2711
  30   2.0000      -0.845266       -23.0009
  31   2.0000      -0.813164       -22.1273
  32   2.0000      -0.785656       -21.3788
  33   2.0000      -0.771473       -20.9928
  34   2.0000      -0.710657       -19.3380
  35   2.0000      -0.697341       -18.9756
  36   2.0000      -0.692206       -18.8359
  37   2.0000      -0.661167       -17.9913
  38   2.0000      -0.643238       -17.5034
  39   2.0000      -0.620435       -16.8829
  40   2.0000      -0.590091       -16.0572
  41   2.0000      -0.573431       -15.6038
  42   2.0000      -0.560684       -15.2570
  43   2.0000      -0.555908       -15.1270
  44   2.0000      -0.543108       -14.7787
  45   2.0000      -0.523376       -14.2418
  46   2.0000      -0.516272       -14.0485
  47   2.0000      -0.510003       -13.8779
  48   2.0000      -0.506545       -13.7838
  49   2.0000      -0.498127       -13.5547
  50   2.0000      -0.486405       -13.2358
  51   2.0000      -0.477834       -13.0025
  52   2.0000      -0.472325       -12.8526
  53   2.0000      -0.464403       -12.6370
  54   2.0000      -0.462237       -12.5781
  55   2.0000      -0.451264       -12.2795
  56   2.0000      -0.449537       -12.2325
  57   2.0000      -0.438688       -11.9373
  58   2.0000      -0.429331       -11.6827
  59   2.0000      -0.425133       -11.5685
  60   2.0000      -0.413963       -11.2645
  61   2.0000      -0.407536       -11.0896
  62   2.0000      -0.402729       -10.9588
  63   2.0000      -0.342470        -9.3191
  64   2.0000      -0.329571        -8.9681
  65   2.0000      -0.319201        -8.6859
  66   2.0000      -0.306640        -8.3441
  67   0.0000       0.033722         0.9176
  68   0.0000       0.044569         1.2128
  69   0.0000       0.110447         3.0054
  70   0.0000       0.122025         3.3205
  71   0.0000       0.124972         3.4007

MULLIKEN ATOMIC CHARGES
-----------------------
   0 S :    0.125228
   1 C :   -0.097740
   2 C :   -0.089677
   3 C :    0.060799
   4 C :   -0.202306
   5 H :    0.022991
   6 C :    0.046430
   7 H :    0.023090
   8 H :    0.020262
   9 C :   -0.081002
  10 H :    0.032681
  11 H :    0.025867
  12 C :   -0.029689
  13 H :    0.029173
  14 H :    0.033624
  15 H :    0.036021
  16 S :    0.118467
  17 C :   -0.088846
  18 C :   -0.028770
  19 C :   -0.074250
  20 C :   -0.171029
  21 H :    0.007623
  22 C :    0.148033
  23 H :    0.005672
  24 H :    0.012179
  25 C :   -0.028515
  26 H :    0.019078
  27 H :    0.013022
  28 C :   -0.103620
  29 H :    0.048003
  30 H :    0.033906
  31 H :    0.039328
  32 H :    0.035048
  33 H :    0.058919
Sum of atomic charges:    0.0000000

LOEWDIN ATOMIC CHARGES
----------------------
   0 S :    0.403887
   1 C :   -0.189520
   2 C :   -0.069753
   3 C :   -0.043194
   4 C :   -0.185517
   5 H :    0.036574
   6 C :   -0.044320
   7 H :    0.027818
   8 H :    0.034923
   9 C :   -0.048435
  10 H :    0.030064
  11 H :    0.026375
  12 C :   -0.064265
  13 H :    0.022069
  14 H :    0.030582
  15 H :    0.027650
  16 S :    0.415891
  17 C :   -0.192888
  18 C :   -0.068809
  19 C :   -0.047042
  20 C :   -0.214918
  21 H :    0.024152
  22 C :   -0.026369
  23 H :    0.029276
  24 H :    0.027818
  25 C :   -0.044887
  26 H :    0.025757
  27 H :    0.019957
  28 C :   -0.078718
  29 H :    0.032671
  30 H :    0.024230
  31 H :    0.031146
  32 H :    0.019718
  33 H :    0.028076

  Mayer bond orders larger than 0.100000
B(  0-S ,  1-C ) :   1.1563 B(  0-S ,  4-C ) :   1.1509 B(  1-C ,  2-C ) :   1.5786
B(  1-C ,  4-C ) :   0.1134 B(  1-C , 32-H ) :   0.9667 B(  2-C ,  3-C ) :   1.2856
B(  2-C ,  6-C ) :   1.0288 B(  3-C ,  4-C ) :   1.5437 B(  3-C ,  5-H ) :   0.9900
B(  4-C , 20-C ) :   1.0558 B(  6-C ,  7-H ) :   0.9383 B(  6-C ,  8-H ) :   0.9308
B(  6-C ,  9-C ) :   1.0658 B(  9-C , 10-H ) :   0.9538 B(  9-C , 11-H ) :   0.9517
B(  9-C , 12-C ) :   1.0816 B( 12-C , 13-H ) :   0.9741 B( 12-C , 14-H ) :   0.9728
B( 12-C , 15-H ) :   0.9758 B( 16-S , 17-C ) :   1.1810 B( 16-S , 20-C ) :   1.1400
B( 17-C , 18-C ) :   1.5804 B( 17-C , 20-C ) :   0.1003 B( 17-C , 33-H ) :   0.9647
B( 18-C , 19-C ) :   1.2642 B( 18-C , 21-H ) :   0.9958 B( 19-C , 20-C ) :   1.5713
B( 19-C , 22-C ) :   1.0274 B( 22-C , 23-H ) :   0.9353 B( 22-C , 24-H ) :   0.9234
B( 22-C , 25-C ) :   1.0621 B( 25-C , 26-H ) :   0.9502 B( 25-C , 27-H ) :   0.9533
B( 25-C , 28-C ) :   1.0750 B( 28-C , 29-H ) :   0.9723 B( 28-C , 30-H ) :   0.9741
B( 28-C , 31-H ) :   0.9724

Dispersion correction           -0.014930670
FINAL SINGLE POINT ENERGY     -1339.873003215001

DIPOLE MOMENT
-------------
                                X             Y             Z
Electronic contribution:      6.91626      23.42408       7.16603
Nuclear contribution   :     -7.09249     -23.90326      -7.27929
                        -----------------------------------------
Total Dipole Moment    :     -0.17623      -0.47918      -0.11325
                        -----------------------------------------
Magnitude (a.u.)       :      0.52297
Magnitude (Debye)      :      1.32929

Rotational constants in cm-1:     0.019316     0.007907     0.007086
Rotational constants in MHz :   579.089072   237.052146   212.421191

                             ****ORCA TERMINATED NORMALLY****
TOTAL RUN TIME: 0 days 0 hours 0 minutes 21 seconds 757 msec
