                         Program Version 4.2.1 -  RELEASE  -
|  1> ! wB97X-D3 SP def2-SVP
|  2> %pal
|  3> nprocs 24
|  4> end
|  5>
|  6> * xyz 0 1
|  7> S 	 -116.706 	 32.9231 	 -115.377
|  8> C 	 -117.162 	 32.2808 	 -117.005
|  9> C 	 -117.73 	 33.3041 	 -117.819
| 10> C 	 -117.776 	 34.5609 	 -117.103
| 11> C 	 -117.348 	 34.5209 	 -115.776
| 12> H 	 -118.15 	 35.459 	 -117.599
| 13> C 	 -118.133 	 33.0362 	 -119.297
| 14> H 	 -119.048 	 33.6051 	 -119.576
| 15> H 	 -118.276 	 31.946 	 -119.406
| 16> C 	 -117.15 	 33.4593 	 -120.41
| 17> H 	 -117.107 	 34.5385 	 -120.396
| 18> H 	 -116.159 	 33.0601 	 -120.008
| 19> C 	 -117.538 	 33.0165 	 -121.825
| 20> H 	 -118.328 	 33.6158 	 -122.236
| 21> H 	 -116.736 	 33.2387 	 -122.414
| 22> H 	 -117.711 	 31.9046 	 -121.932
| 23> S 	 -115.438 	 36.0865 	 -114.81
| 24> C 	 -115.801 	 37.4205 	 -113.834
| 25> C 	 -117.183 	 37.7405 	 -113.923
| 26> C 	 -117.869 	 36.7076 	 -114.641
| 27> C 	 -117.101 	 35.6348 	 -114.98
| 28> H 	 -117.761 	 38.6022 	 -113.55
| 29> C 	 -119.384 	 36.7964 	 -114.822
| 30> H 	 -119.717 	 36.1131 	 -115.599
| 31> H 	 -119.499 	 37.7718 	 -115.216
| 32> C 	 -120.124 	 36.4519 	 -113.512
| 33> H 	 -119.752 	 36.875 	 -112.542
| 34> H 	 -120.1 	 35.334 	 -113.447
| 35> C 	 -121.56 	 36.8584 	 -113.655
| 36> H 	 -121.88 	 36.3204 	 -114.499
| 37> H 	 -121.7 	 37.8847 	 -113.853
| 38> H 	 -122.209 	 36.7335 	 -112.823
| 39> H 	 -116.972 	 31.26 	 -117.295
| 40> H 	 -115.167 	 38.1295 	 -113.257
| 41> *
| 42>
| 43>                          ****END OF INPUT****

CARTESIAN COORDINATES (ANGSTROEM)
---------------------------------
  S    -116.706000   32.923100  -115.377000
  C    -117.162000   32.280800  -117.005000
  C    -117.730000   33.304100  -117.819000
  C    -117.776000   34.560900  -117.103000
  C    -117.348000   34.520900  -115.776000
  H    -118.150000   35.459000  -117.599000
  C    -118.133000   33.036200  -119.297000
  H    -119.048000   33.605100  -119.576000
  H    -118.276000   31.946000  -119.406000
  C    -117.150000   33.459300  -120.410000
  H    -117.107000   34.538500  -120.396000
  H    -116.159000   33.060100  -120.008000
  C    -117.538000   33.016500  -121.825000
  H    -118.328000   33.615800  -122.236000
  H    -116.736000   33.238700  -122.414000
  H    -117.711000   31.904600  -121.932000
  S    -115.438000   36.086500  -114.810000
  C    -115.801000   37.420500  -113.834000
  C    -117.183000   37.740500  -113.923000
  C    -117.869000   36.707600  -114.641000
  C    -117.101000   35.634800  -114.980000
  H    -117.761000   38.602200  -113.550000
  C    -119.384000   36.796400  -114.822000
  H    -119.717000   36.113100  -115.599000
  H    -119.499000   37.771800  -115.216000
  C    -120.124000   36.451900  -113.512000
  H    -119.752000   36.875000  -112.542000
  H    -120.100000   35.334000  -113.447000
  C    -121.560000   36.858400  -113.655000
  H    -121.880000   36.320400  -114.499000
  H    -121.700000   37.884700  -113.853000
  H    -122.209000   36.733500  -112.823000
  H    -116.972000   31.260000  -117.295000
  H    -115.167000   38.129500  -113.257000

 Total Charge           Charge          ....    0
 Multiplicity           Mult            ....    1
 Number of Electrons    NEL             ....  134
 Basis Dimension        Dim             ....  322

ORBITAL ENERGIES
----------------

  NO   OCC          E(Eh)            E(eV)
   0   2.0000     -88.968772     -2420.9634
   1   2.0000     -88.962982     -2420.8058
   2   2.0000     -10.328023      -281.0398
   3   2.0000     -10.325212      -280.9633
   4   2.0000     -10.319569      -280.8097
   5   2.0000     -10.313085      -280.6333
   6   2.0000     -10.311475      -280.5895
   7   2.0000     -10.301388      -280.3150
   8   2.0000     -10.299529      -280.2644
   9   2.0000     -10.295186      -280.1463
  10   2.0000     -10.294910      -280.1387
  11   2.0000     -10.291526      -280.0467
  12   2.0000     -10.288054      -279.9522
  13   2.0000     -10.287079      -279.9256
  14   2.0000     -10.278275      -279.6861
  15   2.0000     -10.260146      -279.1928
  16   2.0000      -8.082193      -219.9277
  17   2.0000      -8.079044      -219.8420
  18   2.0000      -6.040770      -164.3777
  19   2.0000      -6.037498      -164.2887
  20   2.0000      -6.036814      -164.2701
  21   2.0000      -6.033423      -164.1778
  22   2.0000      -6.033026      -164.1670
  23   2.0000      -6.029675      -164.0758
  24   2.0000      -1.012602       -27.5543
  25   2.0000      -0.976154       -26.5625
  26   2.0000      -0.913082       -24.8462
  27   2.0000      -0.908944       -24.7336
  28   2.0000      -0.872949       -23.7542
  29   2.0000      -0.855235       -23.2721
  30   2.0000      -0.843775       -22.9603
  31   2.0000      -0.808936       -22.0123
  32   2.0000      -0.783833       -21.3292
  33   2.0000      -0.771394       -20.9907
  34   2.0000      -0.705921       -19.2091
  35   2.0000      -0.695419       -18.9233
  36   2.0000      -0.691981       -18.8297
  37   2.0000      -0.665218       -18.1015
  38   2.0000      -0.640037       -17.4163
  39   2.0000      -0.617781       -16.8107
  40   2.0000      -0.595236       -16.1972
  41   2.0000      -0.572746       -15.5852
  42   2.0000      -0.562834       -15.3155
  43   2.0000      -0.559004       -15.2113
  44   2.0000      -0.529979       -14.4215
  45   2.0000      -0.524695       -14.2777
  46   2.0000      -0.516699       -14.0601
  47   2.0000      -0.511957       -13.9311
  48   2.0000      -0.507355       -13.8058
  49   2.0000      -0.504846       -13.7376
  50   2.0000      -0.497903       -13.5486
  51   2.0000      -0.477263       -12.9870
  52   2.0000      -0.469592       -12.7783
  53   2.0000      -0.462070       -12.5736
  54   2.0000      -0.453861       -12.3502
  55   2.0000      -0.451304       -12.2806
  56   2.0000      -0.447092       -12.1660
  57   2.0000      -0.434281       -11.8174
  58   2.0000      -0.429029       -11.6745
  59   2.0000      -0.426218       -11.5980
  60   2.0000      -0.418844       -11.3973
  61   2.0000      -0.414861       -11.2889
  62   2.0000      -0.412029       -11.2119
  63   2.0000      -0.340269        -9.2592
  64   2.0000      -0.330021        -8.9803
  65   2.0000      -0.322533        -8.7766
  66   2.0000      -0.294174        -8.0049
  67   0.0000       0.025857         0.7036
  68   0.0000       0.064040         1.7426
  69   0.0000       0.110510         3.0071
  70   0.0000       0.111763         3.0412
  71   0.0000       0.123075         3.3491

MULLIKEN ATOMIC CHARGES
-----------------------
   0 S :    0.104485
   1 C :   -0.129269
   2 C :   -0.082270
   3 C :    0.043236
   4 C :   -0.175924
   5 H :    0.020428
   6 C :    0.044193
   7 H :    0.026834
   8 H :    0.025861
   9 C :   -0.105760
  10 H :    0.024604
  11 H :    0.034856
  12 C :   -0.003124
  13 H :    0.029842
  14 H :    0.015430
  15 H :    0.041220
  16 S :    0.126907
  17 C :   -0.083443
  18 C :   -0.052446
  19 C :   -0.074116
  20 C :   -0.133268
  21 H :    0.024772
  22 C :    0.072850
  23 H :    0.018988
  24 H :    0.016613
  25 C :   -0.086082
  26 H :    0.038818
  27 H :    0.041540
  28 C :    0.013419
  29 H :    0.009214
  30 H :    0.007335
  31 H :    0.021311
  32 H :    0.053081
  33 H :    0.069865
Sum of atomic charges:    0.0000000

LOEWDIN ATOMIC CHARGES
----------------------
   0 S :    0.384310
   1 C :   -0.177887
   2 C :   -0.059108
   3 C :   -0.053872
   4 C :   -0.200675
   5 H :    0.032348
   6 C :   -0.036738
   7 H :    0.030051
   8 H :    0.030135
   9 C :   -0.043783
  10 H :    0.020256
  11 H :    0.027985
  12 C :   -0.060155
  13 H :    0.026776
  14 H :    0.018657
  15 H :    0.033995
  16 S :    0.444684
  17 C :   -0.210075
  18 C :   -0.077773
  19 C :   -0.052623
  20 C :   -0.222789
  21 H :    0.034462
  22 C :   -0.025707
  23 H :    0.028821
  24 H :    0.023737
  25 C :   -0.036618
  26 H :    0.026036
  27 H :    0.033943
  28 C :   -0.061896
  29 H :    0.019672
  30 H :    0.017182
  31 H :    0.021105
  32 H :    0.024742
  33 H :    0.040802

  Mayer bond orders larger than 0.100000
B(  0-S ,  1-C ) :   1.1404 B(  0-S ,  4-C ) :   1.1366 B(  1-C ,  2-C ) :   1.5850
B(  1-C ,  4-C ) :   0.1019 B(  1-C , 32-H ) :   0.9706 B(  2-C ,  3-C ) :   1.2567
B(  2-C ,  6-C ) :   1.0282 B(  3-C ,  4-C ) :   1.5550 B(  3-C ,  5-H ) :   0.9867
B(  4-C , 20-C ) :   1.0607 B(  6-C ,  7-H ) :   0.9416 B(  6-C ,  8-H ) :   0.9448
B(  6-C ,  9-C ) :   1.0565 B(  9-C , 10-H ) :   0.9544 B(  9-C , 11-H ) :   0.9571
B(  9-C , 12-C ) :   1.0836 B( 12-C , 13-H ) :   0.9703 B( 12-C , 14-H ) :   0.9685
B( 12-C , 15-H ) :   0.9735 B( 16-S , 17-C ) :   1.1856 B( 16-S , 20-C ) :   1.1361
B( 17-C , 18-C ) :   1.5535 B( 17-C , 20-C ) :   0.1012 B( 17-C , 33-H ) :   0.9641
B( 18-C , 19-C ) :   1.2747 B( 18-C , 21-H ) :   0.9856 B( 19-C , 20-C ) :   1.5870
B( 19-C , 22-C ) :   1.0448 B( 22-C , 23-H ) :   0.9292 B( 22-C , 24-H ) :   0.9380
B( 22-C , 25-C ) :   1.0531 B( 25-C , 26-H ) :   0.9651 B( 25-C , 27-H ) :   0.9545
B( 25-C , 28-C ) :   1.0791 B( 28-C , 29-H ) :   0.9688 B( 28-C , 30-H ) :   0.9738
B( 28-C , 31-H ) :   0.9712

Dispersion correction           -0.013580181
FINAL SINGLE POINT ENERGY     -1339.852600916535

DIPOLE MOMENT
-------------
                                X             Y             Z
Electronic contribution:     18.84286      -2.50122      15.06361
Nuclear contribution   :    -19.21549       2.80074     -15.60545
                        -----------------------------------------
Total Dipole Moment    :     -0.37263       0.29952      -0.54184
                        -----------------------------------------
Magnitude (a.u.)       :      0.72260
Magnitude (Debye)      :      1.83671

Rotational constants in cm-1:     0.018677     0.007455     0.006528
Rotational constants in MHz :   559.922752   223.495070   195.698084

                             ****ORCA TERMINATED NORMALLY****
TOTAL RUN TIME: 0 days 0 hours 0 minutes 20 seconds 967 msec
