                         Program Version 4.2.1 -  RELEASE  -
|  1> ! wB97X-D3 SP def2-SVP
|  2> %pal
|  3> nprocs 24
|  4> end
|  5>
|  6> * xyz 0 1
|  7> S 	 -50.2607 	 -3.23714 	 -17.0878
|  8> C 	 -51.3577 	 -2.90325 	 -18.413
|  9> C 	 -52.6014 	 -2.68238 	 -17.9635
| 10> C 	 -52.6409 	 -2.47434 	 -16.5567
| 11> C 	 -51.4555 	 -2.65648 	 -15.9204
| 12> H 	 -53.4766 	 -2.20545 	 -15.9517
| 13> C 	 -53.8292 	 -2.73047 	 -18.8687
| 14> H 	 -54.6692 	 -2.93396 	 -18.1318
| 15> H 	 -53.8916 	 -3.65755 	 -19.4566
| 16> C 	 -53.9043 	 -1.55763 	 -19.7227
| 17> H 	 -53.7594 	 -0.716561 	 -19.0179
| 18> H 	 -53.0609 	 -1.48569 	 -20.4486
| 19> C 	 -55.185 	 -1.31292 	 -20.5145
| 20> H 	 -56.0672 	 -1.30924 	 -19.9555
| 21> H 	 -55.049 	 -0.377928 	 -21.0354
| 22> H 	 -55.2292 	 -2.10468 	 -21.2612
| 23> S 	 -51.2444 	 -4.2196 	 -13.5759
| 24> C 	 -51.183 	 -3.46987 	 -12.0125
| 25> C 	 -51.0116 	 -2.12031 	 -12.1334
| 26> C 	 -51.1236 	 -1.63138 	 -13.4855
| 27> C 	 -51.2774 	 -2.67979 	 -14.4195
| 28> H 	 -51.0406 	 -1.44864 	 -11.2733
| 29> C 	 -51.0605 	 -0.195689 	 -13.9507
| 30> H 	 -51.385 	 -0.0925685 	 -14.958
| 31> H 	 -50.0243 	 0.0584341 	 -13.9533
| 32> C 	 -51.7494 	 0.905065 	 -13.0344
| 33> H 	 -51.6844 	 1.79003 	 -13.5824
| 34> H 	 -51.1649 	 1.03353 	 -12.1309
| 35> C 	 -53.1636 	 0.580034 	 -12.5724
| 36> H 	 -53.6727 	 0.633119 	 -13.5278
| 37> H 	 -53.7354 	 1.26608 	 -11.9204
| 38> H 	 -53.3109 	 -0.333212 	 -12.0005
| 39> H 	 -51.1782 	 -2.79983 	 -19.4152
| 40> H 	 -51.1372 	 -3.97809 	 -11.1085
| 41> *
| 42>
| 43>                          ****END OF INPUT****

CARTESIAN COORDINATES (ANGSTROEM)
---------------------------------
  S    -50.260700   -3.237140  -17.087800
  C    -51.357700   -2.903250  -18.413000
  C    -52.601400   -2.682380  -17.963500
  C    -52.640900   -2.474340  -16.556700
  C    -51.455500   -2.656480  -15.920400
  H    -53.476600   -2.205450  -15.951700
  C    -53.829200   -2.730470  -18.868700
  H    -54.669200   -2.933960  -18.131800
  H    -53.891600   -3.657550  -19.456600
  C    -53.904300   -1.557630  -19.722700
  H    -53.759400   -0.716561  -19.017900
  H    -53.060900   -1.485690  -20.448600
  C    -55.185000   -1.312920  -20.514500
  H    -56.067200   -1.309240  -19.955500
  H    -55.049000   -0.377928  -21.035400
  H    -55.229200   -2.104680  -21.261200
  S    -51.244400   -4.219600  -13.575900
  C    -51.183000   -3.469870  -12.012500
  C    -51.011600   -2.120310  -12.133400
  C    -51.123600   -1.631380  -13.485500
  C    -51.277400   -2.679790  -14.419500
  H    -51.040600   -1.448640  -11.273300
  C    -51.060500   -0.195689  -13.950700
  H    -51.385000   -0.092568  -14.958000
  H    -50.024300    0.058434  -13.953300
  C    -51.749400    0.905065  -13.034400
  H    -51.684400    1.790030  -13.582400
  H    -51.164900    1.033530  -12.130900
  C    -53.163600    0.580034  -12.572400
  H    -53.672700    0.633119  -13.527800
  H    -53.735400    1.266080  -11.920400
  H    -53.310900   -0.333212  -12.000500
  H    -51.178200   -2.799830  -19.415200
  H    -51.137200   -3.978090  -11.108500

 Total Charge           Charge          ....    0
 Multiplicity           Mult            ....    1
 Number of Electrons    NEL             ....  134
 Basis Dimension        Dim             ....  322

ORBITAL ENERGIES
----------------

  NO   OCC          E(Eh)            E(eV)
   0   2.0000     -88.964369     -2420.8436
   1   2.0000     -88.963044     -2420.8075
   2   2.0000     -10.330241      -281.1001
   3   2.0000     -10.329509      -281.0802
   4   2.0000     -10.313009      -280.6312
   5   2.0000     -10.306126      -280.4439
   6   2.0000     -10.303702      -280.3780
   7   2.0000     -10.294503      -280.1277
   8   2.0000     -10.293714      -280.1062
   9   2.0000     -10.292555      -280.0747
  10   2.0000     -10.289898      -280.0024
  11   2.0000     -10.287374      -279.9337
  12   2.0000     -10.286134      -279.8999
  13   2.0000     -10.284290      -279.8498
  14   2.0000     -10.274312      -279.5782
  15   2.0000     -10.272997      -279.5425
  16   2.0000      -8.078842      -219.8365
  17   2.0000      -8.078024      -219.8142
  18   2.0000      -6.037545      -164.2900
  19   2.0000      -6.036566      -164.2633
  20   2.0000      -6.033460      -164.1788
  21   2.0000      -6.032408      -164.1502
  22   2.0000      -6.029321      -164.0662
  23   2.0000      -6.028814      -164.0524
  24   2.0000      -1.005809       -27.3695
  25   2.0000      -0.987320       -26.8664
  26   2.0000      -0.921097       -25.0643
  27   2.0000      -0.905635       -24.6436
  28   2.0000      -0.869996       -23.6738
  29   2.0000      -0.848664       -23.0933
  30   2.0000      -0.844929       -22.9917
  31   2.0000      -0.821927       -22.3658
  32   2.0000      -0.786733       -21.4081
  33   2.0000      -0.776646       -21.1336
  34   2.0000      -0.707771       -19.2594
  35   2.0000      -0.702480       -19.1155
  36   2.0000      -0.695944       -18.9376
  37   2.0000      -0.653500       -17.7826
  38   2.0000      -0.645690       -17.5701
  39   2.0000      -0.617886       -16.8135
  40   2.0000      -0.600283       -16.3345
  41   2.0000      -0.574286       -15.6271
  42   2.0000      -0.568382       -15.4664
  43   2.0000      -0.560615       -15.2551
  44   2.0000      -0.536689       -14.6040
  45   2.0000      -0.533735       -14.5237
  46   2.0000      -0.521322       -14.1859
  47   2.0000      -0.518212       -14.1013
  48   2.0000      -0.508042       -13.8245
  49   2.0000      -0.495000       -13.4696
  50   2.0000      -0.493809       -13.4372
  51   2.0000      -0.483639       -13.1605
  52   2.0000      -0.469842       -12.7851
  53   2.0000      -0.465989       -12.6802
  54   2.0000      -0.464484       -12.6392
  55   2.0000      -0.452623       -12.3165
  56   2.0000      -0.445313       -12.1176
  57   2.0000      -0.441436       -12.0121
  58   2.0000      -0.430901       -11.7254
  59   2.0000      -0.420885       -11.4529
  60   2.0000      -0.416689       -11.3387
  61   2.0000      -0.407796       -11.0967
  62   2.0000      -0.404096       -10.9960
  63   2.0000      -0.339118        -9.2279
  64   2.0000      -0.328798        -8.9470
  65   2.0000      -0.325584        -8.8596
  66   2.0000      -0.304066        -8.2741
  67   0.0000       0.046601         1.2681
  68   0.0000       0.052606         1.4315
  69   0.0000       0.113122         3.0782
  70   0.0000       0.126155         3.4328
  71   0.0000       0.135052         3.6750

MULLIKEN ATOMIC CHARGES
-----------------------
   0 S :    0.108730
   1 C :   -0.073777
   2 C :   -0.092945
   3 C :    0.053270
   4 C :   -0.170859
   5 H :    0.003015
   6 C :    0.074701
   7 H :    0.026551
   8 H :    0.027340
   9 C :   -0.121475
  10 H :    0.026625
  11 H :    0.033434
  12 C :    0.014984
  13 H :    0.023068
  14 H :    0.031584
  15 H :    0.020346
  16 S :    0.107727
  17 C :   -0.067134
  18 C :   -0.024443
  19 C :   -0.057574
  20 C :   -0.179450
  21 H :    0.024160
  22 C :    0.092194
  23 H :    0.023999
  24 H :    0.034943
  25 C :   -0.054422
  26 H :    0.020839
  27 H :    0.019900
  28 C :   -0.063998
  29 H :    0.025653
  30 H :    0.029144
  31 H :    0.038360
  32 H :    0.008644
  33 H :    0.036870
Sum of atomic charges:   -0.0000000

LOEWDIN ATOMIC CHARGES
----------------------
   0 S :    0.392023
   1 C :   -0.173229
   2 C :   -0.063332
   3 C :   -0.056091
   4 C :   -0.191818
   5 H :    0.029901
   6 C :   -0.038358
   7 H :    0.037240
   8 H :    0.028695
   9 C :   -0.051490
  10 H :    0.026193
  11 H :    0.028273
  12 C :   -0.053676
  13 H :    0.016356
  14 H :    0.028815
  15 H :    0.024222
  16 S :    0.409136
  17 C :   -0.175335
  18 C :   -0.076123
  19 C :   -0.049979
  20 C :   -0.203352
  21 H :    0.031884
  22 C :   -0.023130
  23 H :    0.026632
  24 H :    0.037071
  25 C :   -0.032783
  26 H :    0.019542
  27 H :    0.016932
  28 C :   -0.077590
  29 H :    0.026333
  30 H :    0.028137
  31 H :    0.026401
  32 H :    0.013449
  33 H :    0.019052

  Mayer bond orders larger than 0.100000
B(  0-S ,  1-C ) :   1.1314 B(  0-S ,  4-C ) :   1.1357 B(  1-C ,  2-C ) :   1.6409
B(  1-C , 32-H ) :   0.9759 B(  2-C ,  3-C ) :   1.2242 B(  2-C ,  6-C ) :   0.9999
B(  3-C ,  4-C ) :   1.6075 B(  3-C ,  5-H ) :   0.9999 B(  4-C , 20-C ) :   0.9984
B(  6-C ,  7-H ) :   0.9422 B(  6-C ,  8-H ) :   0.9375 B(  6-C ,  9-C ) :   1.0655
B(  9-C , 10-H ) :   0.9530 B(  9-C , 11-H ) :   0.9515 B(  9-C , 12-C ) :   1.0907
B( 12-C , 13-H ) :   0.9759 B( 12-C , 14-H ) :   0.9723 B( 12-C , 15-H ) :   0.9704
B( 16-S , 17-C ) :   1.1653 B( 16-S , 20-C ) :   1.1489 B( 17-C , 18-C ) :   1.6017
B( 17-C , 33-H ) :   0.9746 B( 18-C , 19-C ) :   1.2500 B( 18-C , 21-H ) :   0.9815
B( 19-C , 20-C ) :   1.5975 B( 19-C , 22-C ) :   1.0453 B( 22-C , 23-H ) :   0.9327
B( 22-C , 24-H ) :   0.9277 B( 22-C , 25-C ) :   1.0685 B( 25-C , 26-H ) :   0.9588
B( 25-C , 27-H ) :   0.9538 B( 25-C , 28-C ) :   1.0718 B( 28-C , 29-H ) :   0.9791
B( 28-C , 30-H ) :   0.9747 B( 28-C , 31-H ) :   0.9705

Dispersion correction           -0.014158998
FINAL SINGLE POINT ENERGY     -1339.857185889947

DIPOLE MOMENT
-------------
                                X             Y             Z
Electronic contribution:     17.41424     -19.68212       7.40448
Nuclear contribution   :    -17.85226      20.16074      -7.47815
                        -----------------------------------------
Total Dipole Moment    :     -0.43803       0.47862      -0.07367
                        -----------------------------------------
Magnitude (a.u.)       :      0.65297
Magnitude (Debye)      :      1.65972

Rotational constants in cm-1:     0.019611     0.007708     0.006337
Rotational constants in MHz :   587.908835   231.092102   189.982722

                             ****ORCA TERMINATED NORMALLY****
TOTAL RUN TIME: 0 days 0 hours 0 minutes 21 seconds 296 msec
