                         Program Version 4.2.1 -  RELEASE  -
|  1> ! wB97X-D3 SP def2-SVP
|  2> %pal
|  3> nprocs 24
|  4> end
|  5>
|  6> * xyz 0 1
|  7> S 	 -34.344 	 2.22323 	 -1.96063
|  8> C 	 -34.7044 	 0.858823 	 -3.00959
|  9> C 	 -36.0673 	 0.46985 	 -2.85082
| 10> C 	 -36.6439 	 0.97905 	 -1.65999
| 11> C 	 -35.6915 	 1.77434 	 -0.930174
| 12> H 	 -37.6803 	 0.79061 	 -1.34616
| 13> C 	 -36.7475 	 -0.463523 	 -3.72851
| 14> H 	 -36.2678 	 -0.442992 	 -4.70344
| 15> H 	 -37.7952 	 -0.244997 	 -3.82965
| 16> C 	 -36.7211 	 -1.87895 	 -3.24764
| 17> H 	 -35.7927 	 -2.26504 	 -3.56743
| 18> H 	 -36.7349 	 -1.97211 	 -2.09703
| 19> C 	 -37.8006 	 -2.81146 	 -3.95285
| 20> H 	 -37.7551 	 -3.91152 	 -3.82777
| 21> H 	 -38.8132 	 -2.36414 	 -3.70426
| 22> H 	 -37.7571 	 -2.70047 	 -5.08267
| 23> S 	 -36.7156 	 4.1506 	 0.170787
| 24> C 	 -36.9488 	 4.19165 	 1.94319
| 25> C 	 -36.7145 	 2.92751 	 2.56047
| 26> C 	 -36.2454 	 1.93814 	 1.61119
| 27> C 	 -36.0408 	 2.48744 	 0.335874
| 28> H 	 -36.8254 	 2.84816 	 3.6469
| 29> C 	 -36.018 	 0.524309 	 2.03044
| 30> H 	 -36.2848 	 -0.108998 	 1.18945
| 31> H 	 -36.7771 	 0.292703 	 2.8146
| 32> C 	 -34.6038 	 0.0842397 	 2.61503
| 33> H 	 -34.4394 	 -0.953057 	 2.47507
| 34> H 	 -34.5006 	 0.322046 	 3.70921
| 35> C 	 -33.3389 	 0.951008 	 2.18429
| 36> H 	 -33.3375 	 0.726469 	 1.12486
| 37> H 	 -32.5358 	 0.552282 	 2.86921
| 38> H 	 -33.5169 	 2.00647 	 2.3375
| 39> H 	 -34.0691 	 0.472104 	 -3.71056
| 40> H 	 -37.2469 	 5.00453 	 2.53156
| 41> *
| 42>
| 43>                          ****END OF INPUT****

CARTESIAN COORDINATES (ANGSTROEM)
---------------------------------
  S    -34.344000    2.223230   -1.960630
  C    -34.704400    0.858823   -3.009590
  C    -36.067300    0.469850   -2.850820
  C    -36.643900    0.979050   -1.659990
  C    -35.691500    1.774340   -0.930174
  H    -37.680300    0.790610   -1.346160
  C    -36.747500   -0.463523   -3.728510
  H    -36.267800   -0.442992   -4.703440
  H    -37.795200   -0.244997   -3.829650
  C    -36.721100   -1.878950   -3.247640
  H    -35.792700   -2.265040   -3.567430
  H    -36.734900   -1.972110   -2.097030
  C    -37.800600   -2.811460   -3.952850
  H    -37.755100   -3.911520   -3.827770
  H    -38.813200   -2.364140   -3.704260
  H    -37.757100   -2.700470   -5.082670
  S    -36.715600    4.150600    0.170787
  C    -36.948800    4.191650    1.943190
  C    -36.714500    2.927510    2.560470
  C    -36.245400    1.938140    1.611190
  C    -36.040800    2.487440    0.335874
  H    -36.825400    2.848160    3.646900
  C    -36.018000    0.524309    2.030440
  H    -36.284800   -0.108998    1.189450
  H    -36.777100    0.292703    2.814600
  C    -34.603800    0.084240    2.615030
  H    -34.439400   -0.953057    2.475070
  H    -34.500600    0.322046    3.709210
  C    -33.338900    0.951008    2.184290
  H    -33.337500    0.726469    1.124860
  H    -32.535800    0.552282    2.869210
  H    -33.516900    2.006470    2.337500
  H    -34.069100    0.472104   -3.710560
  H    -37.246900    5.004530    2.531560

 Total Charge           Charge          ....    0
 Multiplicity           Mult            ....    1
 Number of Electrons    NEL             ....  134
 Basis Dimension        Dim             ....  322

ORBITAL ENERGIES
----------------

  NO   OCC          E(Eh)            E(eV)
   0   2.0000     -88.973031     -2421.0793
   1   2.0000     -88.969118     -2420.9728
   2   2.0000     -10.336658      -281.2748
   3   2.0000     -10.331918      -281.1458
   4   2.0000     -10.320716      -280.8410
   5   2.0000     -10.314088      -280.6606
   6   2.0000     -10.308583      -280.5108
   7   2.0000     -10.303815      -280.3811
   8   2.0000     -10.303078      -280.3610
   9   2.0000     -10.301122      -280.3078
  10   2.0000     -10.294732      -280.1339
  11   2.0000     -10.293267      -280.0940
  12   2.0000     -10.291538      -280.0470
  13   2.0000     -10.286931      -279.9216
  14   2.0000     -10.285480      -279.8821
  15   2.0000     -10.274293      -279.5777
  16   2.0000      -8.086965      -220.0575
  17   2.0000      -8.082164      -219.9269
  18   2.0000      -6.045309      -164.5012
  19   2.0000      -6.041847      -164.4070
  20   2.0000      -6.040784      -164.3781
  21   2.0000      -6.037690      -164.2939
  22   2.0000      -6.037088      -164.2775
  23   2.0000      -6.032740      -164.1592
  24   2.0000      -0.997680       -27.1483
  25   2.0000      -0.973848       -26.4998
  26   2.0000      -0.921108       -25.0646
  27   2.0000      -0.895225       -24.3603
  28   2.0000      -0.857769       -23.3411
  29   2.0000      -0.847775       -23.0691
  30   2.0000      -0.841871       -22.9085
  31   2.0000      -0.807271       -21.9670
  32   2.0000      -0.780088       -21.2273
  33   2.0000      -0.767527       -20.8855
  34   2.0000      -0.703595       -19.1458
  35   2.0000      -0.701544       -19.0900
  36   2.0000      -0.685263       -18.6469
  37   2.0000      -0.658205       -17.9107
  38   2.0000      -0.644062       -17.5258
  39   2.0000      -0.617829       -16.8120
  40   2.0000      -0.583512       -15.8782
  41   2.0000      -0.576260       -15.6808
  42   2.0000      -0.561899       -15.2900
  43   2.0000      -0.550659       -14.9842
  44   2.0000      -0.538795       -14.6614
  45   2.0000      -0.519500       -14.1363
  46   2.0000      -0.516334       -14.0502
  47   2.0000      -0.509743       -13.8708
  48   2.0000      -0.504524       -13.7288
  49   2.0000      -0.493354       -13.4248
  50   2.0000      -0.487772       -13.2730
  51   2.0000      -0.475711       -12.9447
  52   2.0000      -0.468816       -12.7571
  53   2.0000      -0.462899       -12.5961
  54   2.0000      -0.456223       -12.4145
  55   2.0000      -0.445120       -12.1123
  56   2.0000      -0.443133       -12.0583
  57   2.0000      -0.438380       -11.9289
  58   2.0000      -0.432296       -11.7634
  59   2.0000      -0.429216       -11.6796
  60   2.0000      -0.427426       -11.6308
  61   2.0000      -0.414122       -11.2688
  62   2.0000      -0.384604       -10.4656
  63   2.0000      -0.334818        -9.1109
  64   2.0000      -0.327783        -8.9194
  65   2.0000      -0.320736        -8.7277
  66   2.0000      -0.295812        -8.0495
  67   0.0000       0.024780         0.6743
  68   0.0000       0.044277         1.2048
  69   0.0000       0.095587         2.6011
  70   0.0000       0.102247         2.7823
  71   0.0000       0.127821         3.4782

MULLIKEN ATOMIC CHARGES
-----------------------
   0 S :    0.129462
   1 C :   -0.080970
   2 C :   -0.095188
   3 C :    0.039739
   4 C :   -0.184239
   5 H :    0.032449
   6 C :    0.091248
   7 H :    0.021671
   8 H :    0.015965
   9 C :   -0.074013
  10 H :    0.010686
  11 H :    0.049663
  12 C :   -0.099845
  13 H :    0.053904
  14 H :    0.037631
  15 H :    0.031431
  16 S :    0.105139
  17 C :   -0.078323
  18 C :   -0.046202
  19 C :   -0.059138
  20 C :   -0.151834
  21 H :    0.032184
  22 C :    0.084779
  23 H :    0.025980
  24 H :    0.033931
  25 C :   -0.111885
  26 H :    0.034900
  27 H :    0.026129
  28 C :   -0.062256
  29 H :    0.038629
  30 H :    0.049023
  31 H :    0.048953
  32 H :    0.012422
  33 H :    0.037976
Sum of atomic charges:    0.0000000

LOEWDIN ATOMIC CHARGES
----------------------
   0 S :    0.417265
   1 C :   -0.181852
   2 C :   -0.054984
   3 C :   -0.051104
   4 C :   -0.202029
   5 H :    0.038173
   6 C :   -0.037953
   7 H :    0.033823
   8 H :    0.029759
   9 C :   -0.039828
  10 H :    0.014670
  11 H :    0.032614
  12 C :   -0.081802
  13 H :    0.030631
  14 H :    0.026775
  15 H :    0.028956
  16 S :    0.372544
  17 C :   -0.167840
  18 C :   -0.067839
  19 C :   -0.053650
  20 C :   -0.191451
  21 H :    0.035729
  22 C :   -0.040342
  23 H :    0.030109
  24 H :    0.039421
  25 C :   -0.040635
  26 H :    0.017822
  27 H :    0.023859
  28 C :   -0.065688
  29 H :    0.022142
  30 H :    0.034830
  31 H :    0.024145
  32 H :    0.006666
  33 H :    0.017062

  Mayer bond orders larger than 0.100000
B(  0-S ,  1-C ) :   1.1536 B(  0-S ,  4-C ) :   1.1700 B(  1-C ,  2-C ) :   1.5416
B(  1-C ,  4-C ) :   0.1160 B(  1-C , 32-H ) :   0.9863 B(  2-C ,  3-C ) :   1.2702
B(  2-C ,  6-C ) :   1.0646 B(  3-C ,  4-C ) :   1.5089 B(  3-C ,  5-H ) :   0.9930
B(  4-C , 20-C ) :   1.0188 B(  6-C ,  7-H ) :   0.9264 B(  6-C ,  8-H ) :   0.9380
B(  6-C ,  9-C ) :   1.0480 B(  9-C , 10-H ) :   0.9532 B(  9-C , 11-H ) :   0.9625
B(  9-C , 12-C ) :   1.0604 B( 12-C , 13-H ) :   0.9770 B( 12-C , 14-H ) :   0.9769
B( 12-C , 15-H ) :   0.9731 B( 16-S , 17-C ) :   1.1403 B( 16-S , 20-C ) :   1.1272
B( 17-C , 18-C ) :   1.6346 B( 17-C , 20-C ) :   0.1003 B( 17-C , 33-H ) :   0.9713
B( 18-C , 19-C ) :   1.2122 B( 18-C , 21-H ) :   0.9851 B( 19-C , 20-C ) :   1.6148
B( 19-C , 22-C ) :   1.0606 B( 22-C , 23-H ) :   0.9272 B( 22-C , 24-H ) :   0.9377
B( 22-C , 25-C ) :   1.0396 B( 25-C , 26-H ) :   0.9643 B( 25-C , 27-H ) :   0.9657
B( 25-C , 28-C ) :   1.0697 B( 28-C , 29-H ) :   0.9811 B( 28-C , 30-H ) :   0.9774
B( 28-C , 31-H ) :   0.9690

Dispersion correction           -0.014863379
FINAL SINGLE POINT ENERGY     -1339.830123780805

DIPOLE MOMENT
-------------
                                X             Y             Z
Electronic contribution:      1.65557      24.79352      -0.85862
Nuclear contribution   :     -1.93512     -25.32556       0.84893
                        -----------------------------------------
Total Dipole Moment    :     -0.27954      -0.53204      -0.00968
                        -----------------------------------------
Magnitude (a.u.)       :      0.60108
Magnitude (Debye)      :      1.52783

Rotational constants in cm-1:     0.019071     0.008062     0.007362
Rotational constants in MHz :   571.739346   241.706574   220.696523

                             ****ORCA TERMINATED NORMALLY****
TOTAL RUN TIME: 0 days 0 hours 0 minutes 21 seconds 725 msec
