                         Program Version 4.2.1 -  RELEASE  -
|  1> ! wB97X-D3 SP def2-SVP
|  2> %pal
|  3> nprocs 24
|  4> end
|  5>
|  6> * xyz 0 1
|  7> S 	 -119.761 	 28.3021 	 -22.4685
|  8> C 	 -119.883 	 27.6688 	 -24.027
|  9> C 	 -121.068 	 28.026 	 -24.6313
| 10> C 	 -121.933 	 28.6755 	 -23.7418
| 11> C 	 -121.421 	 28.7707 	 -22.4491
| 12> H 	 -122.882 	 29.1804 	 -23.8737
| 13> C 	 -121.549 	 27.8615 	 -26.0517
| 14> H 	 -122.574 	 27.4027 	 -26.0881
| 15> H 	 -120.926 	 27.141 	 -26.5557
| 16> C 	 -121.508 	 29.2253 	 -26.7899
| 17> H 	 -121.866 	 29.0351 	 -27.7899
| 18> H 	 -122.227 	 29.8408 	 -26.3261
| 19> C 	 -120.162 	 29.9693 	 -26.7937
| 20> H 	 -120.147 	 30.8987 	 -27.3642
| 21> H 	 -119.753 	 30.1959 	 -25.8598
| 22> H 	 -119.398 	 29.3939 	 -27.265
| 23> S 	 -121.228 	 31.3472 	 -21.2507
| 24> C 	 -122.49 	 31.7852 	 -20.1465
| 25> C 	 -123.323 	 30.7236 	 -19.8516
| 26> C 	 -123.027 	 29.5107 	 -20.5663
| 27> C 	 -121.864 	 29.6552 	 -21.386
| 28> H 	 -124.157 	 31.0539 	 -19.2695
| 29> C 	 -123.99 	 28.3225 	 -20.5806
| 30> H 	 -124.143 	 27.8711 	 -21.578
| 31> H 	 -125.041 	 28.6733 	 -20.2625
| 32> C 	 -123.63 	 27.1936 	 -19.5908
| 33> H 	 -124.504 	 26.6918 	 -19.1809
| 34> H 	 -123.286 	 27.5642 	 -18.6264
| 35> C 	 -122.628 	 26.1863 	 -20.089
| 36> H 	 -121.868 	 26.1595 	 -19.2426
| 37> H 	 -122.152 	 26.5473 	 -20.9729
| 38> H 	 -123.004 	 25.2526 	 -20.3839
| 39> H 	 -119.15 	 27.1425 	 -24.621
| 40> H 	 -122.598 	 32.81 	 -19.7805
| 41> *
| 42>
| 43>                          ****END OF INPUT****

CARTESIAN COORDINATES (ANGSTROEM)
---------------------------------
  S    -119.761000   28.302100  -22.468500
  C    -119.883000   27.668800  -24.027000
  C    -121.068000   28.026000  -24.631300
  C    -121.933000   28.675500  -23.741800
  C    -121.421000   28.770700  -22.449100
  H    -122.882000   29.180400  -23.873700
  C    -121.549000   27.861500  -26.051700
  H    -122.574000   27.402700  -26.088100
  H    -120.926000   27.141000  -26.555700
  C    -121.508000   29.225300  -26.789900
  H    -121.866000   29.035100  -27.789900
  H    -122.227000   29.840800  -26.326100
  C    -120.162000   29.969300  -26.793700
  H    -120.147000   30.898700  -27.364200
  H    -119.753000   30.195900  -25.859800
  H    -119.398000   29.393900  -27.265000
  S    -121.228000   31.347200  -21.250700
  C    -122.490000   31.785200  -20.146500
  C    -123.323000   30.723600  -19.851600
  C    -123.027000   29.510700  -20.566300
  C    -121.864000   29.655200  -21.386000
  H    -124.157000   31.053900  -19.269500
  C    -123.990000   28.322500  -20.580600
  H    -124.143000   27.871100  -21.578000
  H    -125.041000   28.673300  -20.262500
  C    -123.630000   27.193600  -19.590800
  H    -124.504000   26.691800  -19.180900
  H    -123.286000   27.564200  -18.626400
  C    -122.628000   26.186300  -20.089000
  H    -121.868000   26.159500  -19.242600
  H    -122.152000   26.547300  -20.972900
  H    -123.004000   25.252600  -20.383900
  H    -119.150000   27.142500  -24.621000
  H    -122.598000   32.810000  -19.780500

 Total Charge           Charge          ....    0
 Multiplicity           Mult            ....    1
 Number of Electrons    NEL             ....  134
 Basis Dimension        Dim             ....  322

ORBITAL ENERGIES
----------------

  NO   OCC          E(Eh)            E(eV)
   0   2.0000     -88.966660     -2420.9059
   1   2.0000     -88.965163     -2420.8652
   2   2.0000     -10.331470      -281.1336
   3   2.0000     -10.322650      -280.8936
   4   2.0000     -10.318129      -280.7706
   5   2.0000     -10.313410      -280.6422
   6   2.0000     -10.310273      -280.5568
   7   2.0000     -10.300256      -280.2842
   8   2.0000     -10.295908      -280.1659
   9   2.0000     -10.294386      -280.1245
  10   2.0000     -10.293302      -280.0950
  11   2.0000     -10.291218      -280.0383
  12   2.0000     -10.284411      -279.8531
  13   2.0000     -10.275706      -279.6162
  14   2.0000     -10.268113      -279.4096
  15   2.0000     -10.262337      -279.2524
  16   2.0000      -8.082675      -219.9408
  17   2.0000      -8.079327      -219.8497
  18   2.0000      -6.040942      -164.3824
  19   2.0000      -6.037842      -164.2980
  20   2.0000      -6.036962      -164.2741
  21   2.0000      -6.033876      -164.1901
  22   2.0000      -6.033633      -164.1835
  23   2.0000      -6.030151      -164.0888
  24   2.0000      -1.012899       -27.5624
  25   2.0000      -0.981300       -26.7025
  26   2.0000      -0.913211       -24.8497
  27   2.0000      -0.903531       -24.5863
  28   2.0000      -0.868911       -23.6443
  29   2.0000      -0.850825       -23.1521
  30   2.0000      -0.845422       -23.0051
  31   2.0000      -0.810987       -22.0681
  32   2.0000      -0.786973       -21.4146
  33   2.0000      -0.771523       -20.9942
  34   2.0000      -0.711554       -19.3624
  35   2.0000      -0.699117       -19.0239
  36   2.0000      -0.691674       -18.8214
  37   2.0000      -0.651201       -17.7201
  38   2.0000      -0.645780       -17.5726
  39   2.0000      -0.622467       -16.9382
  40   2.0000      -0.596231       -16.2243
  41   2.0000      -0.570409       -15.5216
  42   2.0000      -0.548512       -14.9258
  43   2.0000      -0.547138       -14.8884
  44   2.0000      -0.541608       -14.7379
  45   2.0000      -0.526124       -14.3166
  46   2.0000      -0.517813       -14.0904
  47   2.0000      -0.508684       -13.8420
  48   2.0000      -0.499372       -13.5886
  49   2.0000      -0.498894       -13.5756
  50   2.0000      -0.489593       -13.3225
  51   2.0000      -0.482907       -13.1406
  52   2.0000      -0.469429       -12.7738
  53   2.0000      -0.464156       -12.6303
  54   2.0000      -0.461358       -12.5542
  55   2.0000      -0.446170       -12.1409
  56   2.0000      -0.443216       -12.0605
  57   2.0000      -0.439244       -11.9524
  58   2.0000      -0.425873       -11.5886
  59   2.0000      -0.422779       -11.5044
  60   2.0000      -0.421379       -11.4663
  61   2.0000      -0.418608       -11.3909
  62   2.0000      -0.397304       -10.8112
  63   2.0000      -0.341338        -9.2883
  64   2.0000      -0.329523        -8.9668
  65   2.0000      -0.325625        -8.8607
  66   2.0000      -0.298316        -8.1176
  67   0.0000       0.037714         1.0262
  68   0.0000       0.049039         1.3344
  69   0.0000       0.114937         3.1276
  70   0.0000       0.119967         3.2645
  71   0.0000       0.129024         3.5109

MULLIKEN ATOMIC CHARGES
-----------------------
   0 S :    0.127568
   1 C :   -0.087028
   2 C :   -0.110939
   3 C :    0.034434
   4 C :   -0.203096
   5 H :    0.019697
   6 C :    0.067999
   7 H :    0.042660
   8 H :    0.006626
   9 C :   -0.044233
  10 H :    0.026311
  11 H :    0.019391
  12 C :   -0.023522
  13 H :    0.030447
  14 H :    0.027956
  15 H :    0.009274
  16 S :    0.107297
  17 C :   -0.123992
  18 C :   -0.022013
  19 C :   -0.000367
  20 C :   -0.149184
  21 H :    0.016008
  22 C :    0.025681
  23 H :    0.039941
  24 H :    0.032272
  25 C :   -0.067062
  26 H :    0.013420
  27 H :    0.012399
  28 C :   -0.015093
  29 H :    0.041061
  30 H :    0.017701
  31 H :    0.023081
  32 H :    0.037299
  33 H :    0.068008
Sum of atomic charges:   -0.0000000

LOEWDIN ATOMIC CHARGES
----------------------
   0 S :    0.453324
   1 C :   -0.215166
   2 C :   -0.071518
   3 C :   -0.051045
   4 C :   -0.216542
   5 H :    0.033945
   6 C :   -0.029230
   7 H :    0.038897
   8 H :    0.020669
   9 C :   -0.029322
  10 H :    0.023752
  11 H :    0.016634
  12 C :   -0.061504
  13 H :    0.030816
  14 H :    0.019401
  15 H :    0.020209
  16 S :    0.386604
  17 C :   -0.187931
  18 C :   -0.077898
  19 C :   -0.044909
  20 C :   -0.197897
  21 H :    0.031397
  22 C :   -0.035011
  23 H :    0.032729
  24 H :    0.039431
  25 C :   -0.051388
  26 H :    0.022010
  27 H :    0.022872
  28 C :   -0.064381
  29 H :    0.040070
  30 H :    0.020379
  31 H :    0.017299
  32 H :    0.030036
  33 H :    0.033266

  Mayer bond orders larger than 0.100000
B(  0-S ,  1-C ) :   1.1683 B(  0-S ,  4-C ) :   1.1645 B(  1-C ,  2-C ) :   1.5770
B(  1-C , 32-H ) :   0.9655 B(  2-C ,  3-C ) :   1.2611 B(  2-C ,  6-C ) :   1.0278
B(  3-C ,  4-C ) :   1.5493 B(  3-C ,  5-H ) :   0.9971 B(  4-C , 20-C ) :   1.0286
B(  6-C ,  7-H ) :   0.9450 B(  6-C ,  8-H ) :   0.9374 B(  6-C ,  9-C ) :   1.0667
B(  9-C , 10-H ) :   0.9560 B(  9-C , 11-H ) :   0.9578 B(  9-C , 12-C ) :   1.0728
B( 12-C , 13-H ) :   0.9722 B( 12-C , 14-H ) :   0.9727 B( 12-C , 15-H ) :   0.9738
B( 16-S , 17-C ) :   1.1637 B( 16-S , 20-C ) :   1.1286 B( 17-C , 18-C ) :   1.6242
B( 17-C , 33-H ) :   0.9622 B( 18-C , 19-C ) :   1.2300 B( 18-C , 21-H ) :   0.9935
B( 19-C , 20-C ) :   1.5836 B( 19-C , 22-C ) :   1.0349 B( 22-C , 23-H ) :   0.9468
B( 22-C , 24-H ) :   0.9418 B( 22-C , 25-C ) :   1.0676 B( 25-C , 26-H ) :   0.9531
B( 25-C , 27-H ) :   0.9633 B( 25-C , 28-C ) :   1.0592 B( 28-C , 29-H ) :   0.9803
B( 28-C , 30-H ) :   0.9790 B( 28-C , 31-H ) :   0.9742

Dispersion correction           -0.015537405
FINAL SINGLE POINT ENERGY     -1339.862955652256

DIPOLE MOMENT
-------------
                                X             Y             Z
Electronic contribution:      8.91641       9.66553       9.77959
Nuclear contribution   :     -9.39011      -9.60359     -10.16800
                        -----------------------------------------
Total Dipole Moment    :     -0.47370       0.06194      -0.38841
                        -----------------------------------------
Magnitude (a.u.)       :      0.61570
Magnitude (Debye)      :      1.56498

Rotational constants in cm-1:     0.019700     0.009269     0.007809
Rotational constants in MHz :   590.594045   277.892508   234.112181

                             ****ORCA TERMINATED NORMALLY****
TOTAL RUN TIME: 0 days 0 hours 0 minutes 22 seconds 317 msec
