                         Program Version 4.2.1 -  RELEASE  -
|  1> ! wB97X-D3 SP def2-SVP
|  2> %pal
|  3> nprocs 24
|  4> end
|  5>
|  6> * xyz 0 1
|  7> S 	 -111.683 	 59.9314 	 -23.333
|  8> C 	 -111.249 	 61.6044 	 -23.553
|  9> C 	 -112.346 	 62.4329 	 -23.6739
| 10> C 	 -113.562 	 61.7056 	 -23.4107
| 11> C 	 -113.358 	 60.343 	 -23.2918
| 12> H 	 -114.566 	 62.1405 	 -23.3337
| 13> C 	 -112.319 	 63.9507 	 -23.8297
| 14> H 	 -113.025 	 64.275 	 -24.525
| 15> H 	 -111.337 	 64.129 	 -24.3143
| 16> C 	 -112.346 	 64.808 	 -22.5041
| 17> H 	 -113.318 	 64.6153 	 -22.0329
| 18> H 	 -111.604 	 64.3746 	 -21.7946
| 19> C 	 -112.027 	 66.2968 	 -22.7708
| 20> H 	 -112.223 	 66.8016 	 -21.8408
| 21> H 	 -110.963 	 66.5298 	 -23.0692
| 22> H 	 -112.66 	 66.6465 	 -23.5785
| 23> S 	 -114.402 	 58.2672 	 -21.8079
| 24> C 	 -115.891 	 57.5569 	 -22.2551
| 25> C 	 -116.315 	 58.1123 	 -23.4136
| 26> C 	 -115.564 	 59.1805 	 -23.9379
| 27> C 	 -114.458 	 59.4106 	 -23.1294
| 28> H 	 -117.089 	 57.6061 	 -23.8689
| 29> C 	 -115.784 	 59.6975 	 -25.2967
| 30> H 	 -115.587 	 60.7967 	 -25.1998
| 31> H 	 -116.8 	 59.5252 	 -25.5347
| 32> C 	 -114.956 	 59.0428 	 -26.3523
| 33> H 	 -114.748 	 57.9977 	 -26.1105
| 34> H 	 -113.931 	 59.4471 	 -26.3379
| 35> C 	 -115.551 	 59.1108 	 -27.7604
| 36> H 	 -115.069 	 58.3555 	 -28.3628
| 37> H 	 -115.346 	 60.0184 	 -28.3022
| 38> H 	 -116.613 	 58.9729 	 -27.7565
| 39> H 	 -110.225 	 61.931 	 -23.5428
| 40> H 	 -116.51 	 56.8434 	 -21.757
| 41> *
| 42>
| 43>                          ****END OF INPUT****

CARTESIAN COORDINATES (ANGSTROEM)
---------------------------------
  S    -111.683000   59.931400  -23.333000
  C    -111.249000   61.604400  -23.553000
  C    -112.346000   62.432900  -23.673900
  C    -113.562000   61.705600  -23.410700
  C    -113.358000   60.343000  -23.291800
  H    -114.566000   62.140500  -23.333700
  C    -112.319000   63.950700  -23.829700
  H    -113.025000   64.275000  -24.525000
  H    -111.337000   64.129000  -24.314300
  C    -112.346000   64.808000  -22.504100
  H    -113.318000   64.615300  -22.032900
  H    -111.604000   64.374600  -21.794600
  C    -112.027000   66.296800  -22.770800
  H    -112.223000   66.801600  -21.840800
  H    -110.963000   66.529800  -23.069200
  H    -112.660000   66.646500  -23.578500
  S    -114.402000   58.267200  -21.807900
  C    -115.891000   57.556900  -22.255100
  C    -116.315000   58.112300  -23.413600
  C    -115.564000   59.180500  -23.937900
  C    -114.458000   59.410600  -23.129400
  H    -117.089000   57.606100  -23.868900
  C    -115.784000   59.697500  -25.296700
  H    -115.587000   60.796700  -25.199800
  H    -116.800000   59.525200  -25.534700
  C    -114.956000   59.042800  -26.352300
  H    -114.748000   57.997700  -26.110500
  H    -113.931000   59.447100  -26.337900
  C    -115.551000   59.110800  -27.760400
  H    -115.069000   58.355500  -28.362800
  H    -115.346000   60.018400  -28.302200
  H    -116.613000   58.972900  -27.756500
  H    -110.225000   61.931000  -23.542800
  H    -116.510000   56.843400  -21.757000

 Total Charge           Charge          ....    0
 Multiplicity           Mult            ....    1
 Number of Electrons    NEL             ....  134
 Basis Dimension        Dim             ....  322

ORBITAL ENERGIES
----------------

  NO   OCC          E(Eh)            E(eV)
   0   2.0000     -88.968250     -2420.9492
   1   2.0000     -88.962576     -2420.7948
   2   2.0000     -10.324653      -280.9481
   3   2.0000     -10.321936      -280.8742
   4   2.0000     -10.312118      -280.6070
   5   2.0000     -10.307007      -280.4679
   6   2.0000     -10.301578      -280.3202
   7   2.0000     -10.294904      -280.1386
   8   2.0000     -10.293855      -280.1100
   9   2.0000     -10.292530      -280.0740
  10   2.0000     -10.290614      -280.0218
  11   2.0000     -10.283933      -279.8400
  12   2.0000     -10.282083      -279.7897
  13   2.0000     -10.279155      -279.7100
  14   2.0000     -10.277086      -279.6537
  15   2.0000     -10.270693      -279.4798
  16   2.0000      -8.083403      -219.9606
  17   2.0000      -8.078100      -219.8163
  18   2.0000      -6.041876      -164.4078
  19   2.0000      -6.037881      -164.2991
  20   2.0000      -6.036518      -164.2620
  21   2.0000      -6.034153      -164.1977
  22   2.0000      -6.032355      -164.1487
  23   2.0000      -6.029061      -164.0591
  24   2.0000      -1.012231       -27.5442
  25   2.0000      -0.989529       -26.9265
  26   2.0000      -0.917161       -24.9572
  27   2.0000      -0.905593       -24.6424
  28   2.0000      -0.871098       -23.7038
  29   2.0000      -0.854074       -23.2405
  30   2.0000      -0.847490       -23.0614
  31   2.0000      -0.815507       -22.1911
  32   2.0000      -0.783422       -21.3180
  33   2.0000      -0.772823       -21.0296
  34   2.0000      -0.709486       -19.3061
  35   2.0000      -0.700510       -19.0618
  36   2.0000      -0.694675       -18.9031
  37   2.0000      -0.663805       -18.0630
  38   2.0000      -0.642012       -17.4700
  39   2.0000      -0.618484       -16.8298
  40   2.0000      -0.596068       -16.2198
  41   2.0000      -0.573129       -15.5956
  42   2.0000      -0.565427       -15.3861
  43   2.0000      -0.551780       -15.0147
  44   2.0000      -0.529362       -14.4047
  45   2.0000      -0.527417       -14.3517
  46   2.0000      -0.521619       -14.1940
  47   2.0000      -0.510086       -13.8801
  48   2.0000      -0.504639       -13.7319
  49   2.0000      -0.500494       -13.6191
  50   2.0000      -0.495714       -13.4891
  51   2.0000      -0.481477       -13.1017
  52   2.0000      -0.472001       -12.8438
  53   2.0000      -0.469331       -12.7711
  54   2.0000      -0.455153       -12.3853
  55   2.0000      -0.446227       -12.1425
  56   2.0000      -0.444825       -12.1043
  57   2.0000      -0.441127       -12.0037
  58   2.0000      -0.437450       -11.9036
  59   2.0000      -0.426391       -11.6027
  60   2.0000      -0.422774       -11.5043
  61   2.0000      -0.416546       -11.3348
  62   2.0000      -0.406686       -11.0665
  63   2.0000      -0.344511        -9.3746
  64   2.0000      -0.331268        -9.0143
  65   2.0000      -0.329217        -8.9585
  66   2.0000      -0.291882        -7.9425
  67   0.0000       0.034140         0.9290
  68   0.0000       0.074143         2.0175
  69   0.0000       0.116688         3.1752
  70   0.0000       0.128091         3.4855
  71   0.0000       0.137966         3.7542

MULLIKEN ATOMIC CHARGES
-----------------------
   0 S :    0.126178
   1 C :   -0.127936
   2 C :   -0.079495
   3 C :    0.009106
   4 C :   -0.149085
   5 H :    0.026807
   6 C :    0.068343
   7 H :    0.015086
   8 H :    0.014150
   9 C :   -0.084183
  10 H :    0.032975
  11 H :    0.034202
  12 C :   -0.044001
  13 H :    0.039467
  14 H :    0.043205
  15 H :    0.032167
  16 S :    0.114014
  17 C :   -0.069094
  18 C :   -0.038618
  19 C :   -0.033829
  20 C :   -0.190901
  21 H :   -0.017471
  22 C :    0.129410
  23 H :    0.027498
  24 H :   -0.001453
  25 C :   -0.072512
  26 H :    0.025763
  27 H :    0.031187
  28 C :   -0.025208
  29 H :    0.026492
  30 H :    0.027194
  31 H :    0.023311
  32 H :    0.043230
  33 H :    0.044004
Sum of atomic charges:   -0.0000000

LOEWDIN ATOMIC CHARGES
----------------------
   0 S :    0.419019
   1 C :   -0.197923
   2 C :   -0.061329
   3 C :   -0.064867
   4 C :   -0.207361
   5 H :    0.034342
   6 C :   -0.031788
   7 H :    0.019216
   8 H :    0.031173
   9 C :   -0.038587
  10 H :    0.023879
  11 H :    0.027930
  12 C :   -0.066435
  13 H :    0.027332
  14 H :    0.032799
  15 H :    0.023914
  16 S :    0.422203
  17 C :   -0.194903
  18 C :   -0.070024
  19 C :   -0.055505
  20 C :   -0.199346
  21 H :    0.017038
  22 C :   -0.032718
  23 H :    0.038453
  24 H :    0.022513
  25 C :   -0.041614
  26 H :    0.025807
  27 H :    0.030645
  28 C :   -0.060962
  29 H :    0.028012
  30 H :    0.023840
  31 H :    0.019883
  32 H :    0.024375
  33 H :    0.030990

  Mayer bond orders larger than 0.100000
B(  0-S ,  1-C ) :   1.1364 B(  0-S ,  4-C ) :   1.1548 B(  1-C ,  2-C ) :   1.6093
B(  1-C , 32-H ) :   0.9704 B(  2-C ,  3-C ) :   1.2345 B(  2-C ,  6-C ) :   1.0336
B(  3-C ,  4-C ) :   1.5768 B(  3-C ,  5-H ) :   0.9885 B(  4-C , 20-C ) :   1.0409
B(  6-C ,  7-H ) :   0.9375 B(  6-C ,  8-H ) :   0.9406 B(  6-C ,  9-C ) :   1.0522
B(  9-C , 10-H ) :   0.9581 B(  9-C , 11-H ) :   0.9572 B(  9-C , 12-C ) :   1.0723
B( 12-C , 13-H ) :   0.9740 B( 12-C , 14-H ) :   0.9755 B( 12-C , 15-H ) :   0.9760
B( 16-S , 17-C ) :   1.1551 B( 16-S , 20-C ) :   1.1574 B( 17-C , 18-C ) :   1.6095
B( 17-C , 33-H ) :   0.9675 B( 18-C , 19-C ) :   1.2552 B( 18-C , 21-H ) :   0.9993
B( 19-C , 20-C ) :   1.5509 B( 19-C , 22-C ) :   1.0668 B( 22-C , 23-H ) :   0.9090
B( 22-C , 24-H ) :   0.9233 B( 22-C , 25-C ) :   1.0706 B( 25-C , 26-H ) :   0.9598
B( 25-C , 27-H ) :   0.9431 B( 25-C , 28-C ) :   1.0853 B( 28-C , 29-H ) :   0.9733
B( 28-C , 30-H ) :   0.9745 B( 28-C , 31-H ) :   0.9767

Dispersion correction           -0.014169505
FINAL SINGLE POINT ENERGY     -1339.885057437355

DIPOLE MOMENT
-------------
                                X             Y             Z
Electronic contribution:      3.85039     -19.87104      14.65032
Nuclear contribution   :     -4.06665      20.22475     -14.96737
                        -----------------------------------------
Total Dipole Moment    :     -0.21626       0.35371      -0.31706
                        -----------------------------------------
Magnitude (a.u.)       :      0.52192
Magnitude (Debye)      :      1.32662

Rotational constants in cm-1:     0.019254     0.007729     0.006697
Rotational constants in MHz :   577.205864   231.707680   200.779259

                             ****ORCA TERMINATED NORMALLY****
TOTAL RUN TIME: 0 days 0 hours 0 minutes 21 seconds 407 msec
