                         Program Version 4.2.1 -  RELEASE  -
|  1> ! wB97X-D3 SP def2-SVP
|  2> %pal
|  3> nprocs 24
|  4> end
|  5>
|  6> * xyz 0 1
|  7> S 	 -57.5329 	 17.2637 	 -100.678
|  8> C 	 -57.1045 	 18.9472 	 -100.747
|  9> C 	 -57.3886 	 19.6336 	 -99.6506
| 10> C 	 -57.9561 	 18.8251 	 -98.6665
| 11> C 	 -58.1678 	 17.5039 	 -99.0562
| 12> H 	 -58.3929 	 19.2788 	 -97.787
| 13> C 	 -57.4221 	 21.1796 	 -99.521
| 14> H 	 -56.8429 	 21.3528 	 -98.6098
| 15> H 	 -58.4774 	 21.5189 	 -99.3432
| 16> C 	 -56.6366 	 22.0953 	 -100.531
| 17> H 	 -55.5554 	 21.9083 	 -100.438
| 18> H 	 -56.9963 	 21.9272 	 -101.538
| 19> C 	 -56.891 	 23.5562 	 -100.23
| 20> H 	 -56.2642 	 24.1829 	 -100.934
| 21> H 	 -57.9363 	 23.7643 	 -100.317
| 22> H 	 -56.6416 	 23.7119 	 -99.1427
| 23> S 	 -59.7465 	 15.3356 	 -99.4578
| 24> C 	 -60.5351 	 14.5749 	 -98.1561
| 25> C 	 -60.2859 	 15.1609 	 -96.9522
| 26> C 	 -59.3931 	 16.2481 	 -97.0674
| 27> C 	 -59.0127 	 16.4965 	 -98.4034
| 28> H 	 -60.5885 	 14.7009 	 -95.9909
| 29> C 	 -58.7573 	 16.9254 	 -95.8487
| 30> H 	 -57.9115 	 17.5266 	 -96.2149
| 31> H 	 -58.3643 	 16.2108 	 -95.1973
| 32> C 	 -59.6976 	 17.864 	 -95.1582
| 33> H 	 -60.4356 	 17.2838 	 -94.6685
| 34> H 	 -60.2149 	 18.5061 	 -95.9073
| 35> C 	 -59.1241 	 18.9523 	 -94.2216
| 36> H 	 -58.4534 	 19.6403 	 -94.7673
| 37> H 	 -58.5484 	 18.5466 	 -93.3241
| 38> H 	 -59.9985 	 19.5884 	 -93.8267
| 39> H 	 -56.7519 	 19.4399 	 -101.701
| 40> H 	 -61.0819 	 13.6932 	 -98.2493
| 41> *
| 42>
| 43>                          ****END OF INPUT****

CARTESIAN COORDINATES (ANGSTROEM)
---------------------------------
  S    -57.532900   17.263700  -100.678000
  C    -57.104500   18.947200  -100.747000
  C    -57.388600   19.633600  -99.650600
  C    -57.956100   18.825100  -98.666500
  C    -58.167800   17.503900  -99.056200
  H    -58.392900   19.278800  -97.787000
  C    -57.422100   21.179600  -99.521000
  H    -56.842900   21.352800  -98.609800
  H    -58.477400   21.518900  -99.343200
  C    -56.636600   22.095300  -100.531000
  H    -55.555400   21.908300  -100.438000
  H    -56.996300   21.927200  -101.538000
  C    -56.891000   23.556200  -100.230000
  H    -56.264200   24.182900  -100.934000
  H    -57.936300   23.764300  -100.317000
  H    -56.641600   23.711900  -99.142700
  S    -59.746500   15.335600  -99.457800
  C    -60.535100   14.574900  -98.156100
  C    -60.285900   15.160900  -96.952200
  C    -59.393100   16.248100  -97.067400
  C    -59.012700   16.496500  -98.403400
  H    -60.588500   14.700900  -95.990900
  C    -58.757300   16.925400  -95.848700
  H    -57.911500   17.526600  -96.214900
  H    -58.364300   16.210800  -95.197300
  C    -59.697600   17.864000  -95.158200
  H    -60.435600   17.283800  -94.668500
  H    -60.214900   18.506100  -95.907300
  C    -59.124100   18.952300  -94.221600
  H    -58.453400   19.640300  -94.767300
  H    -58.548400   18.546600  -93.324100
  H    -59.998500   19.588400  -93.826700
  H    -56.751900   19.439900  -101.701000
  H    -61.081900   13.693200  -98.249300

 Total Charge           Charge          ....    0
 Multiplicity           Mult            ....    1
 Number of Electrons    NEL             ....  134
 Basis Dimension        Dim             ....  322

ORBITAL ENERGIES
----------------

  NO   OCC          E(Eh)            E(eV)
   0   2.0000     -88.966916     -2420.9128
   1   2.0000     -88.966270     -2420.8953
   2   2.0000     -10.333755      -281.1958
   3   2.0000     -10.327997      -281.0391
   4   2.0000     -10.308807      -280.5169
   5   2.0000     -10.307816      -280.4899
   6   2.0000     -10.302962      -280.3578
   7   2.0000     -10.301971      -280.3309
   8   2.0000     -10.292814      -280.0817
   9   2.0000     -10.292448      -280.0718
  10   2.0000     -10.291920      -280.0574
  11   2.0000     -10.291283      -280.0401
  12   2.0000     -10.290561      -280.0204
  13   2.0000     -10.285305      -279.8774
  14   2.0000     -10.284578      -279.8576
  15   2.0000     -10.282941      -279.8130
  16   2.0000      -8.082337      -219.9316
  17   2.0000      -8.081902      -219.9197
  18   2.0000      -6.040651      -164.3745
  19   2.0000      -6.040458      -164.3692
  20   2.0000      -6.036630      -164.2650
  21   2.0000      -6.036541      -164.2626
  22   2.0000      -6.033259      -164.1733
  23   2.0000      -6.032441      -164.1511
  24   2.0000      -1.014204       -27.5979
  25   2.0000      -0.993534       -27.0354
  26   2.0000      -0.913341       -24.8533
  27   2.0000      -0.910457       -24.7748
  28   2.0000      -0.874531       -23.7972
  29   2.0000      -0.854259       -23.2456
  30   2.0000      -0.848856       -23.0985
  31   2.0000      -0.813085       -22.1252
  32   2.0000      -0.781961       -21.2782
  33   2.0000      -0.771811       -21.0021
  34   2.0000      -0.707940       -19.2640
  35   2.0000      -0.696420       -18.9506
  36   2.0000      -0.691003       -18.8031
  37   2.0000      -0.664620       -18.0852
  38   2.0000      -0.630082       -17.1454
  39   2.0000      -0.621378       -16.9086
  40   2.0000      -0.600641       -16.3443
  41   2.0000      -0.578088       -15.7306
  42   2.0000      -0.570754       -15.5310
  43   2.0000      -0.565003       -15.3745
  44   2.0000      -0.526107       -14.3161
  45   2.0000      -0.522876       -14.2282
  46   2.0000      -0.516910       -14.0658
  47   2.0000      -0.507084       -13.7985
  48   2.0000      -0.504267       -13.7218
  49   2.0000      -0.498069       -13.5531
  50   2.0000      -0.492104       -13.3908
  51   2.0000      -0.481935       -13.1141
  52   2.0000      -0.477629       -12.9969
  53   2.0000      -0.467603       -12.7241
  54   2.0000      -0.457700       -12.4546
  55   2.0000      -0.455647       -12.3988
  56   2.0000      -0.443989       -12.0816
  57   2.0000      -0.437435       -11.9032
  58   2.0000      -0.429510       -11.6875
  59   2.0000      -0.426412       -11.6033
  60   2.0000      -0.422717       -11.5027
  61   2.0000      -0.418116       -11.3775
  62   2.0000      -0.411643       -11.2014
  63   2.0000      -0.361350        -9.8328
  64   2.0000      -0.338205        -9.2030
  65   2.0000      -0.332202        -9.0397
  66   2.0000      -0.282310        -7.6820
  67   0.0000       0.022879         0.6226
  68   0.0000       0.083093         2.2611
  69   0.0000       0.108962         2.9650
  70   0.0000       0.125239         3.4079
  71   0.0000       0.132460         3.6044

MULLIKEN ATOMIC CHARGES
-----------------------
   0 S :    0.101839
   1 C :   -0.165657
   2 C :   -0.023986
   3 C :   -0.010768
   4 C :   -0.104963
   5 H :   -0.000242
   6 C :   -0.002819
   7 H :    0.029577
   8 H :    0.053402
   9 C :   -0.080302
  10 H :    0.042832
  11 H :    0.029909
  12 C :   -0.051252
  13 H :    0.051461
  14 H :    0.026704
  15 H :    0.029041
  16 S :    0.106942
  17 C :   -0.062575
  18 C :   -0.031549
  19 C :   -0.071605
  20 C :   -0.139221
  21 H :    0.028782
  22 C :    0.117297
  23 H :    0.010239
  24 H :    0.017580
  25 C :   -0.084210
  26 H :    0.018400
  27 H :    0.032691
  28 C :   -0.090147
  29 H :    0.034711
  30 H :    0.041391
  31 H :    0.048815
  32 H :    0.064487
  33 H :    0.033196
Sum of atomic charges:    0.0000000

LOEWDIN ATOMIC CHARGES
----------------------
   0 S :    0.397576
   1 C :   -0.205191
   2 C :   -0.076953
   3 C :   -0.066680
   4 C :   -0.181454
   5 H :    0.028067
   6 C :   -0.032947
   7 H :    0.032547
   8 H :    0.037472
   9 C :   -0.044017
  10 H :    0.029015
  11 H :    0.017691
  12 C :   -0.063918
  13 H :    0.035536
  14 H :    0.019350
  15 H :    0.027847
  16 S :    0.434151
  17 C :   -0.189192
  18 C :   -0.074901
  19 C :   -0.053110
  20 C :   -0.201391
  21 H :    0.038638
  22 C :   -0.025458
  23 H :    0.029843
  24 H :    0.022905
  25 C :   -0.046324
  26 H :    0.016077
  27 H :    0.029943
  28 C :   -0.076307
  29 H :    0.021930
  30 H :    0.026673
  31 H :    0.036865
  32 H :    0.038446
  33 H :    0.017271

  Mayer bond orders larger than 0.100000
B(  0-S ,  1-C ) :   1.1195 B(  0-S ,  4-C ) :   1.1481 B(  1-C ,  2-C ) :   1.6611
B(  1-C , 32-H ) :   0.9488 B(  2-C ,  3-C ) :   1.2712 B(  2-C ,  6-C ) :   0.9862
B(  3-C ,  4-C ) :   1.5484 B(  3-C ,  5-H ) :   0.9938 B(  4-C , 20-C ) :   1.0698
B(  6-C ,  7-H ) :   0.9388 B(  6-C ,  8-H ) :   0.9520 B(  6-C ,  9-C ) :   1.0662
B(  9-C , 10-H ) :   0.9578 B(  9-C , 11-H ) :   0.9494 B(  9-C , 12-C ) :   1.0873
B( 12-C , 13-H ) :   0.9714 B( 12-C , 14-H ) :   0.9760 B( 12-C , 15-H ) :   0.9731
B( 16-S , 17-C ) :   1.1749 B( 16-S , 20-C ) :   1.1541 B( 17-C , 18-C ) :   1.5850
B( 17-C , 33-H ) :   0.9737 B( 18-C , 19-C ) :   1.2772 B( 18-C , 21-H ) :   0.9851
B( 19-C , 20-C ) :   1.5610 B( 19-C , 22-C ) :   1.0406 B( 22-C , 23-H ) :   0.9322
B( 22-C , 24-H ) :   0.9341 B( 22-C , 25-C ) :   1.0594 B( 25-C , 26-H ) :   0.9557
B( 25-C , 27-H ) :   0.9542 B( 25-C , 28-C ) :   1.0821 B( 28-C , 29-H ) :   0.9742
B( 28-C , 30-H ) :   0.9729 B( 28-C , 31-H ) :   0.9744

Dispersion correction           -0.013557780
FINAL SINGLE POINT ENERGY     -1339.881220968712

DIPOLE MOMENT
-------------
                                X             Y             Z
Electronic contribution:     -3.30008     -27.24780     -15.72144
Nuclear contribution   :      3.18847      27.66480      16.07451
                        -----------------------------------------
Total Dipole Moment    :     -0.11161       0.41700       0.35308
                        -----------------------------------------
Magnitude (a.u.)       :      0.55768
Magnitude (Debye)      :      1.41751

Rotational constants in cm-1:     0.018474     0.008253     0.005953
Rotational constants in MHz :   553.822348   247.427924   178.480464

                             ****ORCA TERMINATED NORMALLY****
TOTAL RUN TIME: 0 days 0 hours 0 minutes 22 seconds 478 msec
