                         Program Version 4.2.1 -  RELEASE  -
|  1> ! wB97X-D3 SP def2-SVP
|  2> %pal
|  3> nprocs 24
|  4> end
|  5>
|  6> * xyz 0 1
|  7> S 	 -129.189 	 70.8558 	 -65.2646
|  8> C 	 -127.74 	 70.7045 	 -64.317
|  9> C 	 -127.978 	 71.2293 	 -63.0349
| 10> C 	 -129.377 	 71.4567 	 -62.7346
| 11> C 	 -130.159 	 71.1989 	 -63.8332
| 12> H 	 -129.784 	 71.7577 	 -61.8118
| 13> C 	 -126.923 	 71.4905 	 -62.0102
| 14> H 	 -126.054 	 70.9508 	 -62.5096
| 15> H 	 -127.169 	 70.9335 	 -61.1417
| 16> C 	 -126.576 	 72.8997 	 -61.5725
| 17> H 	 -127.198 	 73.1365 	 -60.7213
| 18> H 	 -125.511 	 72.8797 	 -61.1625
| 19> C 	 -126.728 	 73.9619 	 -62.6113
| 20> H 	 -126.284 	 74.807 	 -62.1346
| 21> H 	 -126.015 	 73.7827 	 -63.4031
| 22> H 	 -127.712 	 74.2364 	 -62.9645
| 23> S 	 -132.374 	 69.7343 	 -64.3584
| 24> C 	 -133.963 	 70.3738 	 -64.0654
| 25> C 	 -133.873 	 71.6214 	 -63.5786
| 26> C 	 -132.565 	 72.1077 	 -63.3416
| 27> C 	 -131.623 	 71.2363 	 -63.8905
| 28> H 	 -134.831 	 72.1741 	 -63.4711
| 29> C 	 -132.337 	 73.4857 	 -62.7767
| 30> H 	 -131.589 	 73.9163 	 -63.3859
| 31> H 	 -132.018 	 73.5358 	 -61.7598
| 32> C 	 -133.532 	 74.4218 	 -62.728
| 33> H 	 -134.155 	 74.0795 	 -61.9603
| 34> H 	 -134.077 	 74.3559 	 -63.68
| 35> C 	 -133.28 	 75.909 	 -62.5216
| 36> H 	 -134.266 	 76.3951 	 -62.4014
| 37> H 	 -132.85 	 76.2891 	 -63.4158
| 38> H 	 -132.507 	 76.1628 	 -61.7314
| 39> H 	 -126.756 	 70.5064 	 -64.7172
| 40> H 	 -134.857 	 69.8408 	 -64.3271
| 41> *
| 42>
| 43>                          ****END OF INPUT****

CARTESIAN COORDINATES (ANGSTROEM)
---------------------------------
  S    -129.189000   70.855800  -65.264600
  C    -127.740000   70.704500  -64.317000
  C    -127.978000   71.229300  -63.034900
  C    -129.377000   71.456700  -62.734600
  C    -130.159000   71.198900  -63.833200
  H    -129.784000   71.757700  -61.811800
  C    -126.923000   71.490500  -62.010200
  H    -126.054000   70.950800  -62.509600
  H    -127.169000   70.933500  -61.141700
  C    -126.576000   72.899700  -61.572500
  H    -127.198000   73.136500  -60.721300
  H    -125.511000   72.879700  -61.162500
  C    -126.728000   73.961900  -62.611300
  H    -126.284000   74.807000  -62.134600
  H    -126.015000   73.782700  -63.403100
  H    -127.712000   74.236400  -62.964500
  S    -132.374000   69.734300  -64.358400
  C    -133.963000   70.373800  -64.065400
  C    -133.873000   71.621400  -63.578600
  C    -132.565000   72.107700  -63.341600
  C    -131.623000   71.236300  -63.890500
  H    -134.831000   72.174100  -63.471100
  C    -132.337000   73.485700  -62.776700
  H    -131.589000   73.916300  -63.385900
  H    -132.018000   73.535800  -61.759800
  C    -133.532000   74.421800  -62.728000
  H    -134.155000   74.079500  -61.960300
  H    -134.077000   74.355900  -63.680000
  C    -133.280000   75.909000  -62.521600
  H    -134.266000   76.395100  -62.401400
  H    -132.850000   76.289100  -63.415800
  H    -132.507000   76.162800  -61.731400
  H    -126.756000   70.506400  -64.717200
  H    -134.857000   69.840800  -64.327100

 Total Charge           Charge          ....    0
 Multiplicity           Mult            ....    1
 Number of Electrons    NEL             ....  134
 Basis Dimension        Dim             ....  322

ORBITAL ENERGIES
----------------

  NO   OCC          E(Eh)            E(eV)
   0   2.0000     -88.964670     -2420.8517
   1   2.0000     -88.960727     -2420.7444
   2   2.0000     -10.328757      -281.0598
   3   2.0000     -10.325626      -280.9746
   4   2.0000     -10.314158      -280.6625
   5   2.0000     -10.309471      -280.5350
   6   2.0000     -10.304669      -280.4043
   7   2.0000     -10.301325      -280.3133
   8   2.0000     -10.290600      -280.0215
   9   2.0000     -10.288791      -279.9722
  10   2.0000     -10.287950      -279.9494
  11   2.0000     -10.284771      -279.8629
  12   2.0000     -10.283977      -279.8412
  13   2.0000     -10.282706      -279.8066
  14   2.0000     -10.280116      -279.7362
  15   2.0000     -10.268458      -279.4189
  16   2.0000      -8.079379      -219.8511
  17   2.0000      -8.076129      -219.7627
  18   2.0000      -6.037942      -164.3007
  19   2.0000      -6.034604      -164.2099
  20   2.0000      -6.034007      -164.1937
  21   2.0000      -6.030446      -164.0968
  22   2.0000      -6.029970      -164.0838
  23   2.0000      -6.026979      -164.0024
  24   2.0000      -1.008700       -27.4481
  25   2.0000      -0.985616       -26.8200
  26   2.0000      -0.917618       -24.9697
  27   2.0000      -0.914614       -24.8879
  28   2.0000      -0.871359       -23.7109
  29   2.0000      -0.853905       -23.2359
  30   2.0000      -0.847627       -23.0651
  31   2.0000      -0.818940       -22.2845
  32   2.0000      -0.786030       -21.3890
  33   2.0000      -0.775075       -21.0909
  34   2.0000      -0.707776       -19.2596
  35   2.0000      -0.701055       -19.0767
  36   2.0000      -0.692721       -18.8499
  37   2.0000      -0.649183       -17.6652
  38   2.0000      -0.638220       -17.3668
  39   2.0000      -0.619964       -16.8701
  40   2.0000      -0.604832       -16.4583
  41   2.0000      -0.579377       -15.7657
  42   2.0000      -0.562802       -15.3146
  43   2.0000      -0.559829       -15.2337
  44   2.0000      -0.548445       -14.9240
  45   2.0000      -0.531867       -14.4728
  46   2.0000      -0.516174       -14.0458
  47   2.0000      -0.515123       -14.0172
  48   2.0000      -0.502797       -13.6818
  49   2.0000      -0.498888       -13.5754
  50   2.0000      -0.490102       -13.3363
  51   2.0000      -0.483139       -13.1469
  52   2.0000      -0.474925       -12.9234
  53   2.0000      -0.467431       -12.7194
  54   2.0000      -0.459379       -12.5004
  55   2.0000      -0.451788       -12.2938
  56   2.0000      -0.446154       -12.1405
  57   2.0000      -0.430405       -11.7119
  58   2.0000      -0.426825       -11.6145
  59   2.0000      -0.424938       -11.5631
  60   2.0000      -0.419986       -11.4284
  61   2.0000      -0.416605       -11.3364
  62   2.0000      -0.405986       -11.0475
  63   2.0000      -0.348887        -9.4937
  64   2.0000      -0.328104        -8.9282
  65   2.0000      -0.323615        -8.8060
  66   2.0000      -0.295125        -8.0308
  67   0.0000       0.029690         0.8079
  68   0.0000       0.074129         2.0171
  69   0.0000       0.112416         3.0590
  70   0.0000       0.127835         3.4786
  71   0.0000       0.129396         3.5210

MULLIKEN ATOMIC CHARGES
-----------------------
   0 S :    0.112236
   1 C :   -0.106996
   2 C :   -0.139723
   3 C :    0.056633
   4 C :   -0.150844
   5 H :   -0.005844
   6 C :    0.078709
   7 H :    0.015287
   8 H :    0.022464
   9 C :   -0.094203
  10 H :    0.018602
  11 H :    0.040642
  12 C :    0.007148
  13 H :    0.012987
  14 H :    0.017696
  15 H :    0.043876
  16 S :    0.102985
  17 C :   -0.077972
  18 C :   -0.058707
  19 C :   -0.030187
  20 C :   -0.155749
  21 H :    0.032069
  22 C :    0.118374
  23 H :    0.017715
  24 H :    0.023529
  25 C :   -0.126465
  26 H :    0.022846
  27 H :    0.030069
  28 C :   -0.028791
  29 H :    0.043783
  30 H :    0.020756
  31 H :    0.036903
  32 H :    0.050254
  33 H :    0.049920
Sum of atomic charges:   -0.0000000

LOEWDIN ATOMIC CHARGES
----------------------
   0 S :    0.402973
   1 C :   -0.206675
   2 C :   -0.057989
   3 C :   -0.054621
   4 C :   -0.188825
   5 H :    0.025294
   6 C :   -0.044225
   7 H :    0.034007
   8 H :    0.027163
   9 C :   -0.044549
  10 H :    0.019663
  11 H :    0.038063
  12 C :   -0.063526
  13 H :    0.026163
  14 H :    0.025324
  15 H :    0.027481
  16 S :    0.416228
  17 C :   -0.184725
  18 C :   -0.082134
  19 C :   -0.054283
  20 C :   -0.201069
  21 H :    0.039276
  22 C :   -0.028948
  23 H :    0.027996
  24 H :    0.029846
  25 C :   -0.042937
  26 H :    0.014129
  27 H :    0.024795
  28 C :   -0.063216
  29 H :    0.034756
  30 H :    0.019211
  31 H :    0.029852
  32 H :    0.027839
  33 H :    0.027662

  Mayer bond orders larger than 0.100000
B(  0-S ,  1-C ) :   1.1284 B(  0-S ,  4-C ) :   1.1588 B(  1-C ,  2-C ) :   1.6081
B(  1-C , 32-H ) :   0.9646 B(  2-C ,  3-C ) :   1.2098 B(  2-C ,  6-C ) :   1.0416
B(  3-C ,  4-C ) :   1.5790 B(  3-C ,  5-H ) :   1.0087 B(  4-C , 20-C ) :   1.0131
B(  6-C ,  7-H ) :   0.9349 B(  6-C ,  8-H ) :   0.9374 B(  6-C ,  9-C ) :   1.0638
B(  9-C , 10-H ) :   0.9495 B(  9-C , 11-H ) :   0.9533 B(  9-C , 12-C ) :   1.1036
B( 12-C , 13-H ) :   0.9650 B( 12-C , 14-H ) :   0.9710 B( 12-C , 15-H ) :   0.9666
B( 16-S , 17-C ) :   1.1536 B( 16-S , 20-C ) :   1.1642 B( 17-C , 18-C ) :   1.6081
B( 17-C , 20-C ) :   0.1002 B( 17-C , 33-H ) :   0.9660 B( 18-C , 19-C ) :   1.2473
B( 18-C , 21-H ) :   0.9798 B( 19-C , 20-C ) :   1.5873 B( 19-C , 22-C ) :   1.0312
B( 22-C , 23-H ) :   0.9351 B( 22-C , 24-H ) :   0.9142 B( 22-C , 25-C ) :   1.0952
B( 25-C , 26-H ) :   0.9479 B( 25-C , 27-H ) :   0.9500 B( 25-C , 28-C ) :   1.0858
B( 28-C , 29-H ) :   0.9701 B( 28-C , 30-H ) :   0.9739 B( 28-C , 31-H ) :   0.9727

Dispersion correction           -0.014019219
FINAL SINGLE POINT ENERGY     -1339.870463976110

DIPOLE MOMENT
-------------
                                X             Y             Z
Electronic contribution:     -5.62845     -24.22978     -14.61842
Nuclear contribution   :      5.62166      24.80258      15.08608
                        -----------------------------------------
Total Dipole Moment    :     -0.00679       0.57280       0.46767
                        -----------------------------------------
Magnitude (a.u.)       :      0.73950
Magnitude (Debye)      :      1.87966

Rotational constants in cm-1:     0.016967     0.009288     0.006596
Rotational constants in MHz :   508.671834   278.439038   197.745299

                             ****ORCA TERMINATED NORMALLY****
TOTAL RUN TIME: 0 days 0 hours 0 minutes 21 seconds 623 msec
