                         Program Version 4.2.1 -  RELEASE  -
|  1> ! wB97X-D3 SP def2-SVP
|  2> %pal
|  3> nprocs 24
|  4> end
|  5>
|  6> * xyz 0 1
|  7> S 	 -34.3905 	 10.6557 	 12.3269
|  8> C 	 -34.5302 	 11.7252 	 10.9592
|  9> C 	 -33.2529 	 12.2143 	 10.5516
| 10> C 	 -32.232 	 11.519 	 11.3325
| 11> C 	 -32.6786 	 10.6625 	 12.2846
| 12> H 	 -31.1455 	 11.6194 	 11.2946
| 13> C 	 -32.9651 	 13.4453 	 9.66239
| 14> H 	 -33.5081 	 13.3209 	 8.76549
| 15> H 	 -31.8768 	 13.3731 	 9.3571
| 16> C 	 -33.3359 	 14.7851 	 10.3584
| 17> H 	 -34.4074 	 14.79 	 10.7185
| 18> H 	 -32.7463 	 14.9594 	 11.3098
| 19> C 	 -33.0562 	 15.9306 	 9.35413
| 20> H 	 -33.5328 	 15.515 	 8.3867
| 21> H 	 -33.5616 	 16.8871 	 9.66381
| 22> H 	 -32.0139 	 16.1929 	 9.05127
| 23> S 	 -30.9846 	 8.54131 	 12.2455
| 24> C 	 -30.1573 	 8.08704 	 13.7007
| 25> C 	 -30.5264 	 8.74316 	 14.7995
| 26> C 	 -31.5222 	 9.72785 	 14.495
| 27> C 	 -31.898 	 9.73049 	 13.1591
| 28> H 	 -30.0457 	 8.5471 	 15.6958
| 29> C 	 -32.2201 	 10.594 	 15.4958
| 30> H 	 -32.1594 	 10.0824 	 16.4477
| 31> H 	 -33.2376 	 10.5913 	 15.0677
| 32> C 	 -31.6548 	 12.0482 	 15.7263
| 33> H 	 -31.4248 	 12.586 	 14.7734
| 34> H 	 -30.7609 	 12.0436 	 16.2713
| 35> C 	 -32.5622 	 12.833 	 16.583
| 36> H 	 -32.6896 	 12.2251 	 17.4262
| 37> H 	 -33.5113 	 13.0013 	 16.1171
| 38> H 	 -32.2362 	 13.7842 	 16.9818
| 39> H 	 -35.4379 	 12.1912 	 10.6236
| 40> H 	 -29.4467 	 7.30745 	 13.7953
| 41> *
| 42>
| 43>                          ****END OF INPUT****

CARTESIAN COORDINATES (ANGSTROEM)
---------------------------------
  S    -34.390500   10.655700   12.326900
  C    -34.530200   11.725200   10.959200
  C    -33.252900   12.214300   10.551600
  C    -32.232000   11.519000   11.332500
  C    -32.678600   10.662500   12.284600
  H    -31.145500   11.619400   11.294600
  C    -32.965100   13.445300    9.662390
  H    -33.508100   13.320900    8.765490
  H    -31.876800   13.373100    9.357100
  C    -33.335900   14.785100   10.358400
  H    -34.407400   14.790000   10.718500
  H    -32.746300   14.959400   11.309800
  C    -33.056200   15.930600    9.354130
  H    -33.532800   15.515000    8.386700
  H    -33.561600   16.887100    9.663810
  H    -32.013900   16.192900    9.051270
  S    -30.984600    8.541310   12.245500
  C    -30.157300    8.087040   13.700700
  C    -30.526400    8.743160   14.799500
  C    -31.522200    9.727850   14.495000
  C    -31.898000    9.730490   13.159100
  H    -30.045700    8.547100   15.695800
  C    -32.220100   10.594000   15.495800
  H    -32.159400   10.082400   16.447700
  H    -33.237600   10.591300   15.067700
  C    -31.654800   12.048200   15.726300
  H    -31.424800   12.586000   14.773400
  H    -30.760900   12.043600   16.271300
  C    -32.562200   12.833000   16.583000
  H    -32.689600   12.225100   17.426200
  H    -33.511300   13.001300   16.117100
  H    -32.236200   13.784200   16.981800
  H    -35.437900   12.191200   10.623600
  H    -29.446700    7.307450   13.795300

 Total Charge           Charge          ....    0
 Multiplicity           Mult            ....    1
 Number of Electrons    NEL             ....  134
 Basis Dimension        Dim             ....  322

ORBITAL ENERGIES
----------------

  NO   OCC          E(Eh)            E(eV)
   0   2.0000     -88.965300     -2420.8689
   1   2.0000     -88.963309     -2420.8147
   2   2.0000     -10.325476      -280.9705
   3   2.0000     -10.324935      -280.9558
   4   2.0000     -10.316389      -280.7232
   5   2.0000     -10.310857      -280.5727
   6   2.0000     -10.307242      -280.4743
   7   2.0000     -10.302342      -280.3410
   8   2.0000     -10.301795      -280.3261
   9   2.0000     -10.300912      -280.3021
  10   2.0000     -10.293256      -280.0937
  11   2.0000     -10.293021      -280.0873
  12   2.0000     -10.291329      -280.0413
  13   2.0000     -10.284008      -279.8421
  14   2.0000     -10.279762      -279.7265
  15   2.0000     -10.261909      -279.2407
  16   2.0000      -8.080480      -219.8810
  17   2.0000      -8.078363      -219.8234
  18   2.0000      -6.038937      -164.3278
  19   2.0000      -6.036807      -164.2699
  20   2.0000      -6.034800      -164.2153
  21   2.0000      -6.032837      -164.1618
  22   2.0000      -6.031416      -164.1232
  23   2.0000      -6.029160      -164.0618
  24   2.0000      -1.008501       -27.4427
  25   2.0000      -0.986673       -26.8487
  26   2.0000      -0.911834       -24.8123
  27   2.0000      -0.907174       -24.6855
  28   2.0000      -0.869125       -23.6501
  29   2.0000      -0.858646       -23.3649
  30   2.0000      -0.843463       -22.9518
  31   2.0000      -0.819501       -22.2998
  32   2.0000      -0.777884       -21.1673
  33   2.0000      -0.765373       -20.8268
  34   2.0000      -0.703121       -19.1329
  35   2.0000      -0.698965       -19.0198
  36   2.0000      -0.690822       -18.7982
  37   2.0000      -0.666219       -18.1287
  38   2.0000      -0.644786       -17.5455
  39   2.0000      -0.614410       -16.7189
  40   2.0000      -0.592834       -16.1318
  41   2.0000      -0.574947       -15.6451
  42   2.0000      -0.567666       -15.4470
  43   2.0000      -0.554181       -15.0800
  44   2.0000      -0.527735       -14.3604
  45   2.0000      -0.525901       -14.3105
  46   2.0000      -0.521044       -14.1783
  47   2.0000      -0.514887       -14.0108
  48   2.0000      -0.505013       -13.7421
  49   2.0000      -0.496250       -13.5036
  50   2.0000      -0.486400       -13.2356
  51   2.0000      -0.479232       -13.0406
  52   2.0000      -0.466675       -12.6989
  53   2.0000      -0.463711       -12.6182
  54   2.0000      -0.454827       -12.3765
  55   2.0000      -0.448742       -12.2109
  56   2.0000      -0.446367       -12.1463
  57   2.0000      -0.439572       -11.9614
  58   2.0000      -0.429014       -11.6741
  59   2.0000      -0.423877       -11.5343
  60   2.0000      -0.421453       -11.4683
  61   2.0000      -0.418608       -11.3909
  62   2.0000      -0.414424       -11.2771
  63   2.0000      -0.337804        -9.1921
  64   2.0000      -0.334419        -9.1000
  65   2.0000      -0.325212        -8.8495
  66   2.0000      -0.301890        -8.2148
  67   0.0000       0.042161         1.1473
  68   0.0000       0.065122         1.7721
  69   0.0000       0.107058         2.9132
  70   0.0000       0.120444         3.2774
  71   0.0000       0.129833         3.5329

MULLIKEN ATOMIC CHARGES
-----------------------
   0 S :    0.113604
   1 C :   -0.109096
   2 C :   -0.110542
   3 C :    0.031972
   4 C :   -0.170804
   5 H :    0.012724
   6 C :    0.057867
   7 H :    0.023821
   8 H :    0.040733
   9 C :   -0.085263
  10 H :    0.043475
  11 H :    0.044539
  12 C :   -0.088103
  13 H :    0.030457
  14 H :    0.047544
  15 H :    0.048719
  16 S :    0.113539
  17 C :   -0.055949
  18 C :   -0.010165
  19 C :   -0.021704
  20 C :   -0.170355
  21 H :   -0.011993
  22 C :    0.054123
  23 H :    0.018616
  24 H :    0.029878
  25 C :   -0.046422
  26 H :    0.035095
  27 H :    0.009106
  28 C :    0.001402
  29 H :    0.000154
  30 H :    0.022598
  31 H :    0.023977
  32 H :    0.044825
  33 H :    0.031625
Sum of atomic charges:   -0.0000000

LOEWDIN ATOMIC CHARGES
----------------------
   0 S :    0.427254
   1 C :   -0.204397
   2 C :   -0.056646
   3 C :   -0.071922
   4 C :   -0.216520
   5 H :    0.032284
   6 C :   -0.032714
   7 H :    0.024027
   8 H :    0.040465
   9 C :   -0.046033
  10 H :    0.032380
  11 H :    0.030536
  12 C :   -0.082255
  13 H :    0.030976
  14 H :    0.030380
  15 H :    0.029235
  16 S :    0.412221
  17 C :   -0.173207
  18 C :   -0.067566
  19 C :   -0.048806
  20 C :   -0.203323
  21 H :    0.023610
  22 C :   -0.029115
  23 H :    0.029749
  24 H :    0.032645
  25 C :   -0.035088
  26 H :    0.026540
  27 H :    0.016912
  28 C :   -0.059094
  29 H :    0.017390
  30 H :    0.021193
  31 H :    0.024439
  32 H :    0.022965
  33 H :    0.021486

  Mayer bond orders larger than 0.100000
B(  0-S ,  1-C ) :   1.1596 B(  0-S ,  4-C ) :   1.1614 B(  1-C ,  2-C ) :   1.5893
B(  1-C , 32-H ) :   0.9709 B(  2-C ,  3-C ) :   1.2327 B(  2-C ,  6-C ) :   1.0260
B(  3-C ,  4-C ) :   1.6164 B(  3-C ,  5-H ) :   0.9921 B(  4-C , 20-C ) :   0.9676
B(  6-C ,  7-H ) :   0.9349 B(  6-C ,  8-H ) :   0.9461 B(  6-C ,  9-C ) :   1.0533
B(  9-C , 10-H ) :   0.9560 B(  9-C , 11-H ) :   0.9567 B(  9-C , 12-C ) :   1.0599
B( 12-C , 13-H ) :   0.9735 B( 12-C , 14-H ) :   0.9744 B( 12-C , 15-H ) :   0.9770
B( 16-S , 17-C ) :   1.1536 B( 16-S , 20-C ) :   1.1354 B( 17-C , 18-C ) :   1.6469
B( 17-C , 33-H ) :   0.9611 B( 18-C , 19-C ) :   1.2150 B( 18-C , 21-H ) :   1.0063
B( 19-C , 20-C ) :   1.6274 B( 19-C , 22-C ) :   1.0326 B( 22-C , 23-H ) :   0.9285
B( 22-C , 24-H ) :   0.9410 B( 22-C , 25-C ) :   1.0586 B( 25-C , 26-H ) :   0.9581
B( 25-C , 27-H ) :   0.9507 B( 25-C , 28-C ) :   1.0898 B( 28-C , 29-H ) :   0.9652
B( 28-C , 30-H ) :   0.9745 B( 28-C , 31-H ) :   0.9714

Dispersion correction           -0.014070619
FINAL SINGLE POINT ENERGY     -1339.866739072988

DIPOLE MOMENT
-------------
                                X             Y             Z
Electronic contribution:      0.29270     -26.12611      -3.78117
Nuclear contribution   :     -0.03019      26.62458       4.01195
                        -----------------------------------------
Total Dipole Moment    :      0.26250       0.49847       0.23078
                        -----------------------------------------
Magnitude (a.u.)       :      0.60880
Magnitude (Debye)      :      1.54745

Rotational constants in cm-1:     0.018587     0.008143     0.006824
Rotational constants in MHz :   557.211065   244.128696   204.566753

                             ****ORCA TERMINATED NORMALLY****
TOTAL RUN TIME: 0 days 0 hours 0 minutes 21 seconds 185 msec
