                         Program Version 4.2.1 -  RELEASE  -
|  1> ! wB97X-D3 SP def2-SVP
|  2> %pal
|  3> nprocs 24
|  4> end
|  5>
|  6> * xyz 0 1
|  7> S 	 -45.0912 	 12.5357 	 26.8382
|  8> C 	 -44.4624 	 13.1224 	 25.324
|  9> C 	 -45.4526 	 13.2474 	 24.3294
| 10> C 	 -46.7591 	 12.9204 	 24.861
| 11> C 	 -46.7642 	 12.6315 	 26.2106
| 12> H 	 -47.6869 	 12.9697 	 24.3036
| 13> C 	 -45.1792 	 13.6239 	 22.863
| 14> H 	 -44.0788 	 13.5382 	 22.6953
| 15> H 	 -45.4857 	 14.6711 	 22.6429
| 16> C 	 -45.9097 	 12.7224 	 21.7626
| 17> H 	 -45.7028 	 11.6525 	 21.9503
| 18> H 	 -46.9476 	 13.06 	 21.8359
| 19> C 	 -45.438 	 13.0582 	 20.3493
| 20> H 	 -44.326 	 12.936 	 20.2738
| 21> H 	 -46.0725 	 12.4741 	 19.6907
| 22> H 	 -45.7313 	 14.155 	 20.1076
| 23> S 	 -48.202 	 13.4192 	 28.3877
| 24> C 	 -49.5674 	 12.4538 	 28.9494
| 25> C 	 -49.9028 	 11.4156 	 28.1197
| 26> C 	 -48.9239 	 11.3954 	 27.08
| 27> C 	 -47.9248 	 12.3427 	 27.0708
| 28> H 	 -50.7555 	 10.7611 	 28.3752
| 29> C 	 -48.9744 	 10.1576 	 26.1752
| 30> H 	 -49.3045 	 9.33909 	 26.7718
| 31> H 	 -47.9262 	 9.85902 	 25.9804
| 32> C 	 -49.7793 	 10.2093 	 24.8871
| 33> H 	 -49.5479 	 11.1043 	 24.3589
| 34> H 	 -50.8412 	 10.2016 	 25.0182
| 35> C 	 -49.4769 	 9.10453 	 23.8921
| 36> H 	 -49.5623 	 8.17805 	 24.4231
| 37> H 	 -48.4642 	 9.11439 	 23.5039
| 38> H 	 -50.1585 	 9.12131 	 22.9887
| 39> H 	 -43.4357 	 13.3699 	 25.226
| 40> H 	 -49.9858 	 12.5911 	 29.8932
| 41> *
| 42>
| 43>                          ****END OF INPUT****

CARTESIAN COORDINATES (ANGSTROEM)
---------------------------------
  S    -45.091200   12.535700   26.838200
  C    -44.462400   13.122400   25.324000
  C    -45.452600   13.247400   24.329400
  C    -46.759100   12.920400   24.861000
  C    -46.764200   12.631500   26.210600
  H    -47.686900   12.969700   24.303600
  C    -45.179200   13.623900   22.863000
  H    -44.078800   13.538200   22.695300
  H    -45.485700   14.671100   22.642900
  C    -45.909700   12.722400   21.762600
  H    -45.702800   11.652500   21.950300
  H    -46.947600   13.060000   21.835900
  C    -45.438000   13.058200   20.349300
  H    -44.326000   12.936000   20.273800
  H    -46.072500   12.474100   19.690700
  H    -45.731300   14.155000   20.107600
  S    -48.202000   13.419200   28.387700
  C    -49.567400   12.453800   28.949400
  C    -49.902800   11.415600   28.119700
  C    -48.923900   11.395400   27.080000
  C    -47.924800   12.342700   27.070800
  H    -50.755500   10.761100   28.375200
  C    -48.974400   10.157600   26.175200
  H    -49.304500    9.339090   26.771800
  H    -47.926200    9.859020   25.980400
  C    -49.779300   10.209300   24.887100
  H    -49.547900   11.104300   24.358900
  H    -50.841200   10.201600   25.018200
  C    -49.476900    9.104530   23.892100
  H    -49.562300    8.178050   24.423100
  H    -48.464200    9.114390   23.503900
  H    -50.158500    9.121310   22.988700
  H    -43.435700   13.369900   25.226000
  H    -49.985800   12.591100   29.893200

 Total Charge           Charge          ....    0
 Multiplicity           Mult            ....    1
 Number of Electrons    NEL             ....  134
 Basis Dimension        Dim             ....  322

ORBITAL ENERGIES
----------------

  NO   OCC          E(Eh)            E(eV)
   0   2.0000     -88.967235     -2420.9215
   1   2.0000     -88.961811     -2420.7739
   2   2.0000     -10.334067      -281.2043
   3   2.0000     -10.324062      -280.9320
   4   2.0000     -10.316855      -280.7359
   5   2.0000     -10.312361      -280.6136
   6   2.0000     -10.309130      -280.5257
   7   2.0000     -10.303042      -280.3600
   8   2.0000     -10.302618      -280.3485
   9   2.0000     -10.299063      -280.2518
  10   2.0000     -10.296520      -280.1825
  11   2.0000     -10.294571      -280.1295
  12   2.0000     -10.290782      -280.0264
  13   2.0000     -10.283426      -279.8263
  14   2.0000     -10.275858      -279.6203
  15   2.0000     -10.274538      -279.5844
  16   2.0000      -8.081532      -219.9097
  17   2.0000      -8.077197      -219.7917
  18   2.0000      -6.040054      -164.3582
  19   2.0000      -6.036115      -164.2510
  20   2.0000      -6.035644      -164.2382
  21   2.0000      -6.032295      -164.1471
  22   2.0000      -6.031577      -164.1276
  23   2.0000      -6.028008      -164.0304
  24   2.0000      -1.005745       -27.3677
  25   2.0000      -0.981803       -26.7162
  26   2.0000      -0.907283       -24.6884
  27   2.0000      -0.903621       -24.5888
  28   2.0000      -0.871480       -23.7142
  29   2.0000      -0.850103       -23.1325
  30   2.0000      -0.847068       -23.0499
  31   2.0000      -0.818389       -22.2695
  32   2.0000      -0.775445       -21.1009
  33   2.0000      -0.765085       -20.8190
  34   2.0000      -0.705418       -19.1954
  35   2.0000      -0.695479       -18.9249
  36   2.0000      -0.685171       -18.6444
  37   2.0000      -0.665025       -18.0963
  38   2.0000      -0.645519       -17.5655
  39   2.0000      -0.619651       -16.8616
  40   2.0000      -0.593110       -16.1393
  41   2.0000      -0.575930       -15.6718
  42   2.0000      -0.569008       -15.4835
  43   2.0000      -0.561906       -15.2902
  44   2.0000      -0.530241       -14.4286
  45   2.0000      -0.523562       -14.2469
  46   2.0000      -0.515746       -14.0342
  47   2.0000      -0.508696       -13.8423
  48   2.0000      -0.503163       -13.6918
  49   2.0000      -0.493675       -13.4336
  50   2.0000      -0.489582       -13.3222
  51   2.0000      -0.479836       -13.0570
  52   2.0000      -0.474996       -12.9253
  53   2.0000      -0.466527       -12.6948
  54   2.0000      -0.454932       -12.3793
  55   2.0000      -0.450947       -12.2709
  56   2.0000      -0.440789       -11.9945
  57   2.0000      -0.432591       -11.7714
  58   2.0000      -0.430938       -11.7264
  59   2.0000      -0.424967       -11.5639
  60   2.0000      -0.416076       -11.3220
  61   2.0000      -0.415124       -11.2961
  62   2.0000      -0.409423       -11.1410
  63   2.0000      -0.344365        -9.3706
  64   2.0000      -0.330371        -8.9899
  65   2.0000      -0.325686        -8.8624
  66   2.0000      -0.300616        -8.1802
  67   0.0000       0.033160         0.9023
  68   0.0000       0.066825         1.8184
  69   0.0000       0.111426         3.0321
  70   0.0000       0.121714         3.3120
  71   0.0000       0.125201         3.4069

MULLIKEN ATOMIC CHARGES
-----------------------
   0 S :    0.114030
   1 C :   -0.114521
   2 C :   -0.068286
   3 C :    0.044496
   4 C :   -0.155393
   5 H :    0.018547
   6 C :    0.027240
   7 H :    0.023435
   8 H :    0.043882
   9 C :   -0.114969
  10 H :    0.050951
  11 H :    0.039295
  12 C :   -0.064229
  13 H :    0.050106
  14 H :    0.041548
  15 H :    0.033556
  16 S :    0.101651
  17 C :   -0.075609
  18 C :   -0.031647
  19 C :   -0.037822
  20 C :   -0.154318
  21 H :    0.042418
  22 C :    0.047513
  23 H :    0.005595
  24 H :    0.023508
  25 C :   -0.014192
  26 H :    0.007369
  27 H :    0.018570
  28 C :   -0.065379
  29 H :    0.017736
  30 H :    0.027978
  31 H :    0.041472
  32 H :    0.041853
  33 H :    0.033617
Sum of atomic charges:   -0.0000000

LOEWDIN ATOMIC CHARGES
----------------------
   0 S :    0.395438
   1 C :   -0.189627
   2 C :   -0.064085
   3 C :   -0.053494
   4 C :   -0.187083
   5 H :    0.032382
   6 C :   -0.037264
   7 H :    0.028304
   8 H :    0.033576
   9 C :   -0.043940
  10 H :    0.028850
  11 H :    0.024719
  12 C :   -0.071502
  13 H :    0.030335
  14 H :    0.027246
  15 H :    0.031754
  16 S :    0.410820
  17 C :   -0.161732
  18 C :   -0.072000
  19 C :   -0.053538
  20 C :   -0.217229
  21 H :    0.045906
  22 C :   -0.032941
  23 H :    0.022885
  24 H :    0.033180
  25 C :   -0.039938
  26 H :    0.016779
  27 H :    0.021066
  28 C :   -0.064530
  29 H :    0.017836
  30 H :    0.021706
  31 H :    0.032619
  32 H :    0.020401
  33 H :    0.013102

  Mayer bond orders larger than 0.100000
B(  0-S ,  1-C ) :   1.1484 B(  0-S ,  4-C ) :   1.1421 B(  1-C ,  2-C ) :   1.6055
B(  1-C , 32-H ) :   0.9721 B(  2-C ,  3-C ) :   1.2261 B(  2-C ,  6-C ) :   1.0226
B(  3-C ,  4-C ) :   1.6011 B(  3-C ,  5-H ) :   0.9936 B(  4-C , 20-C ) :   1.0131
B(  6-C ,  7-H ) :   0.9497 B(  6-C ,  8-H ) :   0.9387 B(  6-C ,  9-C ) :   1.0555
B(  9-C , 10-H ) :   0.9601 B(  9-C , 11-H ) :   0.9503 B(  9-C , 12-C ) :   1.0907
B( 12-C , 13-H ) :   0.9740 B( 12-C , 14-H ) :   0.9725 B( 12-C , 15-H ) :   0.9720
B( 16-S , 17-C ) :   1.1695 B( 16-S , 20-C ) :   1.1327 B( 17-C , 18-C ) :   1.6090
B( 17-C , 33-H ) :   0.9707 B( 18-C , 19-C ) :   1.2264 B( 18-C , 21-H ) :   0.9923
B( 19-C , 20-C ) :   1.6246 B( 19-C , 22-C ) :   1.0371 B( 22-C , 23-H ) :   0.9345
B( 22-C , 24-H ) :   0.9416 B( 22-C , 25-C ) :   1.0637 B( 25-C , 26-H ) :   0.9533
B( 25-C , 27-H ) :   0.9499 B( 25-C , 28-C ) :   1.0887 B( 28-C , 29-H ) :   0.9742
B( 28-C , 30-H ) :   0.9749 B( 28-C , 31-H ) :   0.9738

Dispersion correction           -0.013848605
FINAL SINGLE POINT ENERGY     -1339.876682763176

DIPOLE MOMENT
-------------
                                X             Y             Z
Electronic contribution:      4.80371      10.36665      29.81525
Nuclear contribution   :     -5.00068     -10.60468     -30.29807
                        -----------------------------------------
Total Dipole Moment    :     -0.19698      -0.23803      -0.48282
                        -----------------------------------------
Magnitude (a.u.)       :      0.57322
Magnitude (Debye)      :      1.45700

Rotational constants in cm-1:     0.017264     0.008885     0.006524
Rotational constants in MHz :   517.553790   266.371184   195.596813

                             ****ORCA TERMINATED NORMALLY****
TOTAL RUN TIME: 0 days 0 hours 0 minutes 21 seconds 371 msec
