                         Program Version 4.2.1 -  RELEASE  -
|  1> ! wB97X-D3 SP def2-SVP
|  2> %pal
|  3> nprocs 24
|  4> end
|  5>
|  6> * xyz 0 1
|  7> S 	 -116.858 	 46.5992 	 -115.984
|  8> C 	 -118.298 	 45.6879 	 -115.45
|  9> C 	 -118.314 	 45.5239 	 -114.098
| 10> C 	 -117.066 	 45.8588 	 -113.44
| 11> C 	 -116.18 	 46.3574 	 -114.403
| 12> H 	 -116.789 	 45.77 	 -112.395
| 13> C 	 -119.477 	 44.9572 	 -113.253
| 14> H 	 -120.359 	 44.8496 	 -113.977
| 15> H 	 -119.817 	 45.7203 	 -112.615
| 16> C 	 -119.098 	 43.7762 	 -112.344
| 17> H 	 -118.75 	 43.0083 	 -112.972
| 18> H 	 -118.184 	 44.0182 	 -111.894
| 19> C 	 -120.129 	 43.3969 	 -111.285
| 20> H 	 -119.868 	 42.4169 	 -111.004
| 21> H 	 -120.232 	 43.9766 	 -110.37
| 22> H 	 -121.035 	 43.4029 	 -111.738
| 23> S 	 -114.678 	 47.8247 	 -112.709
| 24> C 	 -113.039 	 48.0265 	 -112.924
| 25> C 	 -112.511 	 47.106 	 -113.805
| 26> C 	 -113.474 	 46.4642 	 -114.588
| 27> C 	 -114.771 	 46.6656 	 -114.081
| 28> H 	 -111.478 	 47.0388 	 -113.919
| 29> C 	 -113.166 	 45.6115 	 -115.759
| 30> H 	 -114.228 	 45.3442 	 -116.065
| 31> H 	 -112.835 	 44.6561 	 -115.246
| 32> C 	 -112.16 	 45.9156 	 -116.922
| 33> H 	 -112.313 	 45.0258 	 -117.619
| 34> H 	 -111.129 	 45.8031 	 -116.551
| 35> C 	 -112.305 	 47.1889 	 -117.694
| 36> H 	 -111.524 	 47.3884 	 -118.49
| 37> H 	 -112.442 	 48.1177 	 -117.201
| 38> H 	 -113.234 	 47.0824 	 -118.324
| 39> H 	 -119.161 	 45.5499 	 -116.121
| 40> H 	 -112.404 	 48.6477 	 -112.333
| 41> *
| 42>
| 43>                          ****END OF INPUT****

CARTESIAN COORDINATES (ANGSTROEM)
---------------------------------
  S    -116.858000   46.599200  -115.984000
  C    -118.298000   45.687900  -115.450000
  C    -118.314000   45.523900  -114.098000
  C    -117.066000   45.858800  -113.440000
  C    -116.180000   46.357400  -114.403000
  H    -116.789000   45.770000  -112.395000
  C    -119.477000   44.957200  -113.253000
  H    -120.359000   44.849600  -113.977000
  H    -119.817000   45.720300  -112.615000
  C    -119.098000   43.776200  -112.344000
  H    -118.750000   43.008300  -112.972000
  H    -118.184000   44.018200  -111.894000
  C    -120.129000   43.396900  -111.285000
  H    -119.868000   42.416900  -111.004000
  H    -120.232000   43.976600  -110.370000
  H    -121.035000   43.402900  -111.738000
  S    -114.678000   47.824700  -112.709000
  C    -113.039000   48.026500  -112.924000
  C    -112.511000   47.106000  -113.805000
  C    -113.474000   46.464200  -114.588000
  C    -114.771000   46.665600  -114.081000
  H    -111.478000   47.038800  -113.919000
  C    -113.166000   45.611500  -115.759000
  H    -114.228000   45.344200  -116.065000
  H    -112.835000   44.656100  -115.246000
  C    -112.160000   45.915600  -116.922000
  H    -112.313000   45.025800  -117.619000
  H    -111.129000   45.803100  -116.551000
  C    -112.305000   47.188900  -117.694000
  H    -111.524000   47.388400  -118.490000
  H    -112.442000   48.117700  -117.201000
  H    -113.234000   47.082400  -118.324000
  H    -119.161000   45.549900  -116.121000
  H    -112.404000   48.647700  -112.333000

 Total Charge           Charge          ....    0
 Multiplicity           Mult            ....    1
 Number of Electrons    NEL             ....  134
 Basis Dimension        Dim             ....  322

ORBITAL ENERGIES
----------------

  NO   OCC          E(Eh)            E(eV)
   0   2.0000     -88.968020     -2420.9429
   1   2.0000     -88.960980     -2420.7513
   2   2.0000     -10.333028      -281.1760
   3   2.0000     -10.325320      -280.9662
   4   2.0000     -10.313382      -280.6414
   5   2.0000     -10.308227      -280.5011
   6   2.0000     -10.303076      -280.3609
   7   2.0000     -10.302991      -280.3586
   8   2.0000     -10.299306      -280.2584
   9   2.0000     -10.297200      -280.2011
  10   2.0000     -10.295220      -280.1472
  11   2.0000     -10.291626      -280.0494
  12   2.0000     -10.281391      -279.7709
  13   2.0000     -10.278845      -279.7016
  14   2.0000     -10.276953      -279.6501
  15   2.0000     -10.267005      -279.3794
  16   2.0000      -8.082187      -219.9275
  17   2.0000      -8.076749      -219.7795
  18   2.0000      -6.040718      -164.3763
  19   2.0000      -6.037003      -164.2752
  20   2.0000      -6.034988      -164.2204
  21   2.0000      -6.032733      -164.1590
  22   2.0000      -6.031048      -164.1132
  23   2.0000      -6.027786      -164.0244
  24   2.0000      -1.006847       -27.3977
  25   2.0000      -0.984754       -26.7965
  26   2.0000      -0.911176       -24.7944
  27   2.0000      -0.906649       -24.6712
  28   2.0000      -0.868046       -23.6207
  29   2.0000      -0.857560       -23.3354
  30   2.0000      -0.848357       -23.0850
  31   2.0000      -0.809177       -22.0188
  32   2.0000      -0.786094       -21.3907
  33   2.0000      -0.774024       -21.0623
  34   2.0000      -0.715060       -19.4578
  35   2.0000      -0.705626       -19.2011
  36   2.0000      -0.690975       -18.8024
  37   2.0000      -0.661525       -18.0010
  38   2.0000      -0.637171       -17.3383
  39   2.0000      -0.612427       -16.6650
  40   2.0000      -0.587875       -15.9969
  41   2.0000      -0.567371       -15.4390
  42   2.0000      -0.555742       -15.1225
  43   2.0000      -0.547066       -14.8864
  44   2.0000      -0.540980       -14.7208
  45   2.0000      -0.531672       -14.4675
  46   2.0000      -0.518728       -14.1153
  47   2.0000      -0.511817       -13.9272
  48   2.0000      -0.509070       -13.8525
  49   2.0000      -0.499165       -13.5830
  50   2.0000      -0.495258       -13.4767
  51   2.0000      -0.482070       -13.1178
  52   2.0000      -0.466957       -12.7065
  53   2.0000      -0.462507       -12.5855
  54   2.0000      -0.458952       -12.4887
  55   2.0000      -0.447001       -12.1635
  56   2.0000      -0.444398       -12.0927
  57   2.0000      -0.441636       -12.0175
  58   2.0000      -0.437355       -11.9010
  59   2.0000      -0.427319       -11.6279
  60   2.0000      -0.417462       -11.3597
  61   2.0000      -0.409606       -11.1460
  62   2.0000      -0.405078       -11.0227
  63   2.0000      -0.341953        -9.3050
  64   2.0000      -0.329757        -8.9731
  65   2.0000      -0.327329        -8.9071
  66   2.0000      -0.287296        -7.8177
  67   0.0000       0.033044         0.8992
  68   0.0000       0.068750         1.8708
  69   0.0000       0.102769         2.7965
  70   0.0000       0.117384         3.1942
  71   0.0000       0.129406         3.5213

MULLIKEN ATOMIC CHARGES
-----------------------
   0 S :    0.116523
   1 C :   -0.154998
   2 C :   -0.063137
   3 C :   -0.015108
   4 C :   -0.115063
   5 H :    0.031498
   6 C :    0.076504
   7 H :    0.021062
   8 H :    0.016540
   9 C :   -0.060168
  10 H :    0.016912
  11 H :    0.003391
  12 C :    0.025285
  13 H :    0.019070
  14 H :    0.034910
  15 H :    0.007794
  16 S :    0.103432
  17 C :   -0.065560
  18 C :   -0.027953
  19 C :   -0.033367
  20 C :   -0.184550
  21 H :   -0.009569
  22 C :    0.007210
  23 H :    0.023385
  24 H :    0.049270
  25 C :   -0.039418
  26 H :    0.045728
  27 H :    0.030637
  28 C :   -0.063622
  29 H :    0.039099
  30 H :    0.037334
  31 H :    0.027467
  32 H :    0.054651
  33 H :    0.044809
Sum of atomic charges:   -0.0000000

LOEWDIN ATOMIC CHARGES
----------------------
   0 S :    0.396067
   1 C :   -0.199419
   2 C :   -0.054043
   3 C :   -0.073416
   4 C :   -0.191012
   5 H :    0.031148
   6 C :   -0.030784
   7 H :    0.031845
   8 H :    0.023706
   9 C :   -0.034460
  10 H :    0.022785
  11 H :    0.017500
  12 C :   -0.049263
  13 H :    0.026462
  14 H :    0.029896
  15 H :    0.012703
  16 S :    0.429061
  17 C :   -0.198252
  18 C :   -0.074237
  19 C :   -0.058204
  20 C :   -0.192503
  21 H :    0.019695
  22 C :   -0.049597
  23 H :    0.031302
  24 H :    0.049050
  25 C :   -0.045307
  26 H :    0.041833
  27 H :    0.023399
  28 C :   -0.079733
  29 H :    0.034979
  30 H :    0.021345
  31 H :    0.032630
  32 H :    0.030690
  33 H :    0.024135

  Mayer bond orders larger than 0.100000
B(  0-S ,  1-C ) :   1.1000 B(  0-S ,  4-C ) :   1.1542 B(  1-C ,  2-C ) :   1.6597
B(  1-C , 32-H ) :   0.9625 B(  2-C ,  3-C ) :   1.1917 B(  2-C ,  6-C ) :   1.0262
B(  3-C ,  4-C ) :   1.5713 B(  3-C ,  5-H ) :   0.9902 B(  4-C , 20-C ) :   1.0165
B(  6-C ,  7-H ) :   0.9408 B(  6-C ,  8-H ) :   0.9345 B(  6-C ,  9-C ) :   1.0528
B(  9-C , 10-H ) :   0.9548 B(  9-C , 11-H ) :   0.9486 B(  9-C , 12-C ) :   1.0754
B( 12-C , 13-H ) :   0.9699 B( 12-C , 14-H ) :   0.9739 B( 12-C , 15-H ) :   0.9754
B( 16-S , 17-C ) :   1.1962 B( 16-S , 20-C ) :   1.1411 B( 17-C , 18-C ) :   1.5736
B( 17-C , 20-C ) :   0.1020 B( 17-C , 33-H ) :   0.9659 B( 18-C , 19-C ) :   1.2489
B( 18-C , 21-H ) :   1.0020 B( 19-C , 20-C ) :   1.5618 B( 19-C , 22-C ) :   1.0442
B( 22-C , 23-H ) :   0.9316 B( 22-C , 24-H ) :   0.9258 B( 22-C , 25-C ) :   1.0583
B( 25-C , 26-H ) :   0.9515 B( 25-C , 27-H ) :   0.9523 B( 25-C , 28-C ) :   1.0749
B( 28-C , 29-H ) :   0.9720 B( 28-C , 30-H ) :   0.9780 B( 28-C , 31-H ) :   0.9721

Dispersion correction           -0.013755159
FINAL SINGLE POINT ENERGY     -1339.845334335060

DIPOLE MOMENT
-------------
                                X             Y             Z
Electronic contribution:      2.43080      12.72773       1.29047
Nuclear contribution   :     -2.32101     -12.97513      -1.16944
                        -----------------------------------------
Total Dipole Moment    :      0.10979      -0.24741       0.12102
                        -----------------------------------------
Magnitude (a.u.)       :      0.29650
Magnitude (Debye)      :      0.75364

Rotational constants in cm-1:     0.022589     0.007314     0.006281
Rotational constants in MHz :   677.200636   219.269122   188.291948

                             ****ORCA TERMINATED NORMALLY****
TOTAL RUN TIME: 0 days 0 hours 0 minutes 20 seconds 962 msec
