                         Program Version 4.2.1 -  RELEASE  -
|  1> ! wB97X-D3 SP def2-SVP
|  2> %pal
|  3> nprocs 24
|  4> end
|  5>
|  6> * xyz 0 1
|  7> S 	 -51.8153 	 12.4315 	 27.8562
|  8> C 	 -52.8085 	 13.7859 	 28.1925
|  9> C 	 -53.5724 	 14.1494 	 27.1267
| 10> C 	 -53.1079 	 13.5782 	 25.8883
| 11> C 	 -52.1255 	 12.6262 	 26.1532
| 12> H 	 -53.3351 	 13.7046 	 24.8733
| 13> C 	 -54.7496 	 15.0763 	 27.1692
| 14> H 	 -55.1157 	 14.9401 	 28.1765
| 15> H 	 -55.5159 	 14.5725 	 26.5752
| 16> C 	 -54.4869 	 16.5264 	 26.8747
| 17> H 	 -54.4772 	 16.6999 	 25.7935
| 18> H 	 -55.3409 	 17.0416 	 27.1981
| 19> C 	 -53.3564 	 17.3367 	 27.5819
| 20> H 	 -53.4565 	 18.4116 	 27.3454
| 21> H 	 -53.329 	 17.3993 	 28.6733
| 22> H 	 -52.3821 	 17.033 	 27.2882
| 23> S 	 -51.4383 	 10.0655 	 25.698
| 24> C 	 -50.7631 	 9.65023 	 24.1918
| 25> C 	 -50.6749 	 10.7019 	 23.3146
| 26> C 	 -51.1506 	 11.9207 	 23.8519
| 27> C 	 -51.5919 	 11.7427 	 25.1659
| 28> H 	 -50.3715 	 10.5901 	 22.2519
| 29> C 	 -51.089 	 13.2415 	 23.0207
| 30> H 	 -52.102 	 13.4819 	 23.0246
| 31> H 	 -50.6898 	 13.0183 	 22.0514
| 32> C 	 -50.3068 	 14.5198 	 23.3703
| 33> H 	 -51.0326 	 15.012 	 24.0329
| 34> H 	 -50.2468 	 15.3192 	 22.5845
| 35> C 	 -48.8506 	 14.3337 	 23.9759
| 36> H 	 -48.1247 	 13.7241 	 23.2618
| 37> H 	 -48.7834 	 13.8892 	 24.9703
| 38> H 	 -48.2307 	 15.2188 	 23.9897
| 39> H 	 -52.8949 	 14.1873 	 29.1677
| 40> H 	 -50.6051 	 8.70088 	 23.7743
| 41> *
| 42>
| 43>                          ****END OF INPUT****

CARTESIAN COORDINATES (ANGSTROEM)
---------------------------------
  S    -51.815300   12.431500   27.856200
  C    -52.808500   13.785900   28.192500
  C    -53.572400   14.149400   27.126700
  C    -53.107900   13.578200   25.888300
  C    -52.125500   12.626200   26.153200
  H    -53.335100   13.704600   24.873300
  C    -54.749600   15.076300   27.169200
  H    -55.115700   14.940100   28.176500
  H    -55.515900   14.572500   26.575200
  C    -54.486900   16.526400   26.874700
  H    -54.477200   16.699900   25.793500
  H    -55.340900   17.041600   27.198100
  C    -53.356400   17.336700   27.581900
  H    -53.456500   18.411600   27.345400
  H    -53.329000   17.399300   28.673300
  H    -52.382100   17.033000   27.288200
  S    -51.438300   10.065500   25.698000
  C    -50.763100    9.650230   24.191800
  C    -50.674900   10.701900   23.314600
  C    -51.150600   11.920700   23.851900
  C    -51.591900   11.742700   25.165900
  H    -50.371500   10.590100   22.251900
  C    -51.089000   13.241500   23.020700
  H    -52.102000   13.481900   23.024600
  H    -50.689800   13.018300   22.051400
  C    -50.306800   14.519800   23.370300
  H    -51.032600   15.012000   24.032900
  H    -50.246800   15.319200   22.584500
  C    -48.850600   14.333700   23.975900
  H    -48.124700   13.724100   23.261800
  H    -48.783400   13.889200   24.970300
  H    -48.230700   15.218800   23.989700
  H    -52.894900   14.187300   29.167700
  H    -50.605100    8.700880   23.774300

 Total Charge           Charge          ....    0
 Multiplicity           Mult            ....    1
 Number of Electrons    NEL             ....  134
 Basis Dimension        Dim             ....  322

ORBITAL ENERGIES
----------------

  NO   OCC          E(Eh)            E(eV)
   0   2.0000     -88.967585     -2420.9311
   1   2.0000     -88.965166     -2420.8652
   2   2.0000     -10.324431      -280.9421
   3   2.0000     -10.323949      -280.9289
   4   2.0000     -10.305509      -280.4271
   5   2.0000     -10.304950      -280.4119
   6   2.0000     -10.304250      -280.3929
   7   2.0000     -10.297930      -280.2209
   8   2.0000     -10.295578      -280.1569
   9   2.0000     -10.290718      -280.0247
  10   2.0000     -10.290306      -280.0135
  11   2.0000     -10.289759      -279.9986
  12   2.0000     -10.287369      -279.9335
  13   2.0000     -10.285386      -279.8796
  14   2.0000     -10.285329      -279.8780
  15   2.0000     -10.279236      -279.7122
  16   2.0000      -8.082836      -219.9451
  17   2.0000      -8.080865      -219.8915
  18   2.0000      -6.041232      -164.3903
  19   2.0000      -6.039320      -164.3383
  20   2.0000      -6.037353      -164.2847
  21   2.0000      -6.035412      -164.2319
  22   2.0000      -6.033614      -164.1830
  23   2.0000      -6.031462      -164.1244
  24   2.0000      -1.012934       -27.5633
  25   2.0000      -0.988736       -26.9049
  26   2.0000      -0.914452       -24.8835
  27   2.0000      -0.902214       -24.5505
  28   2.0000      -0.872806       -23.7502
  29   2.0000      -0.852442       -23.1961
  30   2.0000      -0.843898       -22.9636
  31   2.0000      -0.812996       -22.1228
  32   2.0000      -0.787963       -21.4416
  33   2.0000      -0.778321       -21.1792
  34   2.0000      -0.714656       -19.4468
  35   2.0000      -0.706175       -19.2160
  36   2.0000      -0.690513       -18.7898
  37   2.0000      -0.665827       -18.1181
  38   2.0000      -0.645478       -17.5643
  39   2.0000      -0.613545       -16.6954
  40   2.0000      -0.582498       -15.8506
  41   2.0000      -0.566783       -15.4229
  42   2.0000      -0.563750       -15.3404
  43   2.0000      -0.550705       -14.9854
  44   2.0000      -0.542123       -14.7519
  45   2.0000      -0.540399       -14.7050
  46   2.0000      -0.518328       -14.1044
  47   2.0000      -0.506126       -13.7724
  48   2.0000      -0.499204       -13.5840
  49   2.0000      -0.497085       -13.5264
  50   2.0000      -0.486883       -13.2488
  51   2.0000      -0.482199       -13.1213
  52   2.0000      -0.470894       -12.8137
  53   2.0000      -0.463878       -12.6228
  54   2.0000      -0.461173       -12.5492
  55   2.0000      -0.452583       -12.3154
  56   2.0000      -0.445937       -12.1346
  57   2.0000      -0.442913       -12.0523
  58   2.0000      -0.433700       -11.8016
  59   2.0000      -0.423581       -11.5262
  60   2.0000      -0.419099       -11.4043
  61   2.0000      -0.410435       -11.1685
  62   2.0000      -0.394307       -10.7296
  63   2.0000      -0.356873        -9.7110
  64   2.0000      -0.334905        -9.1132
  65   2.0000      -0.329271        -8.9599
  66   2.0000      -0.279171        -7.5966
  67   0.0000       0.028045         0.7631
  68   0.0000       0.071672         1.9503
  69   0.0000       0.107045         2.9128
  70   0.0000       0.124431         3.3860
  71   0.0000       0.127937         3.4814

MULLIKEN ATOMIC CHARGES
-----------------------
   0 S :    0.113049
   1 C :   -0.104159
   2 C :   -0.101046
   3 C :    0.035287
   4 C :   -0.136441
   5 H :   -0.019256
   6 C :    0.104244
   7 H :    0.003363
   8 H :    0.031492
   9 C :   -0.028521
  10 H :    0.027877
  11 H :    0.014507
  12 C :   -0.055933
  13 H :    0.030339
  14 H :    0.024069
  15 H :    0.034105
  16 S :    0.113988
  17 C :   -0.044721
  18 C :   -0.073400
  19 C :   -0.046938
  20 C :   -0.172665
  21 H :    0.028849
  22 C :    0.104564
  23 H :    0.019307
  24 H :    0.015090
  25 C :   -0.063739
  26 H :    0.017306
  27 H :    0.035088
  28 C :   -0.078660
  29 H :    0.029486
  30 H :    0.055463
  31 H :    0.025573
  32 H :    0.030337
  33 H :    0.032097
Sum of atomic charges:    0.0000000

LOEWDIN ATOMIC CHARGES
----------------------
   0 S :    0.414665
   1 C :   -0.204147
   2 C :   -0.057100
   3 C :   -0.057565
   4 C :   -0.192155
   5 H :    0.021698
   6 C :   -0.034886
   7 H :    0.028053
   8 H :    0.038872
   9 C :   -0.038278
  10 H :    0.027368
  11 H :    0.021750
  12 C :   -0.066162
  13 H :    0.033047
  14 H :    0.024788
  15 H :    0.018789
  16 S :    0.420463
  17 C :   -0.200677
  18 C :   -0.073088
  19 C :   -0.056356
  20 C :   -0.188977
  21 H :    0.037112
  22 C :   -0.024071
  23 H :    0.022831
  24 H :    0.027584
  25 C :   -0.047378
  26 H :    0.022283
  27 H :    0.033785
  28 C :   -0.080392
  29 H :    0.034760
  30 H :    0.029354
  31 H :    0.022560
  32 H :    0.019918
  33 H :    0.021554

  Mayer bond orders larger than 0.100000
B(  0-S ,  1-C ) :   1.1282 B(  0-S ,  4-C ) :   1.1499 B(  1-C ,  2-C ) :   1.6217
B(  1-C , 32-H ) :   0.9756 B(  2-C ,  3-C ) :   1.2000 B(  2-C ,  6-C ) :   1.0217
B(  3-C ,  4-C ) :   1.5618 B(  3-C ,  5-H ) :   1.0074 B(  4-C , 20-C ) :   1.0838
B(  6-C ,  7-H ) :   0.9289 B(  6-C ,  8-H ) :   0.9367 B(  6-C ,  9-C ) :   1.0764
B(  9-C , 10-H ) :   0.9546 B(  9-C , 11-H ) :   0.9507 B(  9-C , 12-C ) :   1.0752
B( 12-C , 13-H ) :   0.9726 B( 12-C , 14-H ) :   0.9746 B( 12-C , 15-H ) :   0.9755
B( 16-S , 17-C ) :   1.1524 B( 16-S , 20-C ) :   1.1411 B( 17-C , 18-C ) :   1.6114
B( 17-C , 33-H ) :   0.9652 B( 18-C , 19-C ) :   1.2761 B( 18-C , 21-H ) :   0.9776
B( 19-C , 20-C ) :   1.5736 B( 19-C , 22-C ) :   1.0118 B( 22-C , 23-H ) :   0.9376
B( 22-C , 24-H ) :   0.9374 B( 22-C , 25-C ) :   1.0638 B( 25-C , 26-H ) :   0.9540
B( 25-C , 27-H ) :   0.9569 B( 25-C , 28-C ) :   1.0620 B( 28-C , 29-H ) :   0.9750
B( 28-C , 30-H ) :   0.9764 B( 28-C , 31-H ) :   0.9760

Dispersion correction           -0.014925946
FINAL SINGLE POINT ENERGY     -1339.844419133150

DIPOLE MOMENT
-------------
                                X             Y             Z
Electronic contribution:      0.84156     -26.52858       7.80493
Nuclear contribution   :     -1.14745      27.03965      -8.12454
                        -----------------------------------------
Total Dipole Moment    :     -0.30589       0.51107      -0.31961
                        -----------------------------------------
Magnitude (a.u.)       :      0.67595
Magnitude (Debye)      :      1.71813

Rotational constants in cm-1:     0.019924     0.009242     0.007329
Rotational constants in MHz :   597.293377   277.077589   219.727164

                             ****ORCA TERMINATED NORMALLY****
TOTAL RUN TIME: 0 days 0 hours 0 minutes 22 seconds 269 msec
