                         Program Version 4.2.1 -  RELEASE  -
|  1> ! wB97X-D3 SP def2-SVP
|  2> %pal
|  3> nprocs 24
|  4> end
|  5>
|  6> * xyz 0 1
|  7> S 	 -85.0323 	 -42.4799 	 -74.2738
|  8> C 	 -84.6171 	 -44.1204 	 -74.0871
|  9> C 	 -85.7375 	 -44.7829 	 -73.5545
| 10> C 	 -86.8469 	 -43.9644 	 -73.13
| 11> C 	 -86.6019 	 -42.6358 	 -73.5045
| 12> H 	 -87.829 	 -44.1817 	 -72.7108
| 13> C 	 -85.7033 	 -46.2822 	 -73.5463
| 14> H 	 -85.853 	 -46.4915 	 -72.4916
| 15> H 	 -84.7195 	 -46.6627 	 -73.7918
| 16> C 	 -86.74 	 -47.1286 	 -74.3287
| 17> H 	 -86.3325 	 -48.141 	 -74.3774
| 18> H 	 -87.718 	 -47.056 	 -73.8091
| 19> C 	 -86.7996 	 -46.6781 	 -75.8187
| 20> H 	 -86.8822 	 -45.5918 	 -75.9523
| 21> H 	 -85.8681 	 -47.0132 	 -76.3547
| 22> H 	 -87.5651 	 -46.996 	 -76.4099
| 23> S 	 -88.4267 	 -40.8002 	 -74.7346
| 24> C 	 -89.2019 	 -39.6622 	 -73.6747
| 25> C 	 -89.0108 	 -40.0264 	 -72.3269
| 26> C 	 -88.0475 	 -41.0181 	 -72.114
| 27> C 	 -87.5534 	 -41.5097 	 -73.36
| 28> H 	 -89.5215 	 -39.4313 	 -71.5953
| 29> C 	 -87.4891 	 -41.3086 	 -70.7248
| 30> H 	 -86.4314 	 -41.3434 	 -70.9224
| 31> H 	 -87.8445 	 -42.2718 	 -70.3394
| 32> C 	 -87.787 	 -40.1905 	 -69.6075
| 33> H 	 -88.853 	 -40.1432 	 -69.482
| 34> H 	 -87.3994 	 -39.2582 	 -70.046
| 35> C 	 -87.1242 	 -40.3103 	 -68.2402
| 36> H 	 -87.3136 	 -41.3085 	 -67.7403
| 37> H 	 -87.5141 	 -39.4738 	 -67.6917
| 38> H 	 -85.9916 	 -40.2868 	 -68.3481
| 39> H 	 -83.6888 	 -44.4801 	 -74.4736
| 40> H 	 -89.838 	 -38.9062 	 -73.9758
| 41> *
| 42>
| 43>                          ****END OF INPUT****

CARTESIAN COORDINATES (ANGSTROEM)
---------------------------------
  S    -85.032300  -42.479900  -74.273800
  C    -84.617100  -44.120400  -74.087100
  C    -85.737500  -44.782900  -73.554500
  C    -86.846900  -43.964400  -73.130000
  C    -86.601900  -42.635800  -73.504500
  H    -87.829000  -44.181700  -72.710800
  C    -85.703300  -46.282200  -73.546300
  H    -85.853000  -46.491500  -72.491600
  H    -84.719500  -46.662700  -73.791800
  C    -86.740000  -47.128600  -74.328700
  H    -86.332500  -48.141000  -74.377400
  H    -87.718000  -47.056000  -73.809100
  C    -86.799600  -46.678100  -75.818700
  H    -86.882200  -45.591800  -75.952300
  H    -85.868100  -47.013200  -76.354700
  H    -87.565100  -46.996000  -76.409900
  S    -88.426700  -40.800200  -74.734600
  C    -89.201900  -39.662200  -73.674700
  C    -89.010800  -40.026400  -72.326900
  C    -88.047500  -41.018100  -72.114000
  C    -87.553400  -41.509700  -73.360000
  H    -89.521500  -39.431300  -71.595300
  C    -87.489100  -41.308600  -70.724800
  H    -86.431400  -41.343400  -70.922400
  H    -87.844500  -42.271800  -70.339400
  C    -87.787000  -40.190500  -69.607500
  H    -88.853000  -40.143200  -69.482000
  H    -87.399400  -39.258200  -70.046000
  C    -87.124200  -40.310300  -68.240200
  H    -87.313600  -41.308500  -67.740300
  H    -87.514100  -39.473800  -67.691700
  H    -85.991600  -40.286800  -68.348100
  H    -83.688800  -44.480100  -74.473600
  H    -89.838000  -38.906200  -73.975800

 Total Charge           Charge          ....    0
 Multiplicity           Mult            ....    1
 Number of Electrons    NEL             ....  134
 Basis Dimension        Dim             ....  322

ORBITAL ENERGIES
----------------

  NO   OCC          E(Eh)            E(eV)
   0   2.0000     -88.970265     -2421.0040
   1   2.0000     -88.962296     -2420.7871
   2   2.0000     -10.330912      -281.1184
   3   2.0000     -10.329656      -281.0842
   4   2.0000     -10.313040      -280.6321
   5   2.0000     -10.312138      -280.6075
   6   2.0000     -10.305571      -280.4288
   7   2.0000     -10.305322      -280.4221
   8   2.0000     -10.301288      -280.3123
   9   2.0000     -10.294723      -280.1337
  10   2.0000     -10.291708      -280.0516
  11   2.0000     -10.290636      -280.0224
  12   2.0000     -10.289690      -279.9967
  13   2.0000     -10.287455      -279.9359
  14   2.0000     -10.283974      -279.8412
  15   2.0000     -10.269039      -279.4347
  16   2.0000      -8.084262      -219.9840
  17   2.0000      -8.077867      -219.8099
  18   2.0000      -6.042607      -164.4277
  19   2.0000      -6.038862      -164.3258
  20   2.0000      -6.036165      -164.2524
  21   2.0000      -6.035271      -164.2281
  22   2.0000      -6.032008      -164.1393
  23   2.0000      -6.029049      -164.0588
  24   2.0000      -1.002325       -27.2747
  25   2.0000      -0.982780       -26.7428
  26   2.0000      -0.905490       -24.6396
  27   2.0000      -0.901998       -24.5446
  28   2.0000      -0.866280       -23.5727
  29   2.0000      -0.852233       -23.1904
  30   2.0000      -0.843560       -22.9544
  31   2.0000      -0.813020       -22.1234
  32   2.0000      -0.781480       -21.2651
  33   2.0000      -0.768088       -20.9007
  34   2.0000      -0.705526       -19.1983
  35   2.0000      -0.699424       -19.0323
  36   2.0000      -0.691170       -18.8077
  37   2.0000      -0.647742       -17.6260
  38   2.0000      -0.645887       -17.5755
  39   2.0000      -0.613705       -16.6998
  40   2.0000      -0.593616       -16.1531
  41   2.0000      -0.569773       -15.5043
  42   2.0000      -0.563032       -15.3209
  43   2.0000      -0.553858       -15.0712
  44   2.0000      -0.538941       -14.6653
  45   2.0000      -0.533088       -14.5061
  46   2.0000      -0.524310       -14.2672
  47   2.0000      -0.510280       -13.8854
  48   2.0000      -0.502651       -13.6778
  49   2.0000      -0.495764       -13.4904
  50   2.0000      -0.480938       -13.0870
  51   2.0000      -0.475465       -12.9381
  52   2.0000      -0.471535       -12.8311
  53   2.0000      -0.465062       -12.6550
  54   2.0000      -0.458855       -12.4861
  55   2.0000      -0.449305       -12.2262
  56   2.0000      -0.437795       -11.9130
  57   2.0000      -0.433974       -11.8090
  58   2.0000      -0.428529       -11.6609
  59   2.0000      -0.425763       -11.5856
  60   2.0000      -0.423798       -11.5321
  61   2.0000      -0.413825       -11.2608
  62   2.0000      -0.405836       -11.0434
  63   2.0000      -0.339637        -9.2420
  64   2.0000      -0.332381        -9.0445
  65   2.0000      -0.319201        -8.6859
  66   2.0000      -0.294615        -8.0169
  67   0.0000       0.030223         0.8224
  68   0.0000       0.061892         1.6842
  69   0.0000       0.120067         3.2672
  70   0.0000       0.120577         3.2811
  71   0.0000       0.136973         3.7272

MULLIKEN ATOMIC CHARGES
-----------------------
   0 S :    0.111292
   1 C :   -0.115063
   2 C :   -0.101026
   3 C :    0.057432
   4 C :   -0.200433
   5 H :    0.025939
   6 C :    0.063747
   7 H :    0.026387
   8 H :    0.007656
   9 C :   -0.058183
  10 H :    0.039242
  11 H :    0.039098
  12 C :   -0.054058
  13 H :    0.037915
  14 H :    0.025591
  15 H :    0.010231
  16 S :    0.127796
  17 C :   -0.071666
  18 C :   -0.046673
  19 C :   -0.032822
  20 C :   -0.175102
  21 H :    0.012723
  22 C :    0.094659
  23 H :    0.037709
  24 H :    0.033197
  25 C :   -0.130464
  26 H :    0.037710
  27 H :    0.037750
  28 C :   -0.047135
  29 H :    0.038727
  30 H :    0.044466
  31 H :    0.041884
  32 H :    0.051618
  33 H :    0.029857
Sum of atomic charges:    0.0000000

LOEWDIN ATOMIC CHARGES
----------------------
   0 S :    0.425899
   1 C :   -0.211464
   2 C :   -0.061654
   3 C :   -0.060150
   4 C :   -0.197604
   5 H :    0.039449
   6 C :   -0.037780
   7 H :    0.031437
   8 H :    0.024820
   9 C :   -0.035619
  10 H :    0.030708
  11 H :    0.025378
  12 C :   -0.070536
  13 H :    0.028422
  14 H :    0.029940
  15 H :    0.009667
  16 S :    0.413658
  17 C :   -0.180083
  18 C :   -0.070819
  19 C :   -0.051822
  20 C :   -0.209132
  21 H :    0.027193
  22 C :   -0.028307
  23 H :    0.034143
  24 H :    0.030073
  25 C :   -0.042947
  26 H :    0.018049
  27 H :    0.027900
  28 C :   -0.068703
  29 H :    0.029003
  30 H :    0.028775
  31 H :    0.032521
  32 H :    0.026321
  33 H :    0.013265

  Mayer bond orders larger than 0.100000
B(  0-S ,  1-C ) :   1.1567 B(  0-S ,  4-C ) :   1.1808 B(  1-C ,  2-C ) :   1.5534
B(  1-C , 32-H ) :   0.9816 B(  2-C ,  3-C ) :   1.2361 B(  2-C ,  6-C ) :   1.0319
B(  3-C ,  4-C ) :   1.5450 B(  3-C ,  5-H ) :   0.9959 B(  4-C , 20-C ) :   1.0333
B(  6-C ,  7-H ) :   0.9328 B(  6-C ,  8-H ) :   0.9466 B(  6-C ,  9-C ) :   1.0730
B(  9-C , 10-H ) :   0.9587 B(  9-C , 11-H ) :   0.9566 B(  9-C , 12-C ) :   1.0658
B( 12-C , 13-H ) :   0.9752 B( 12-C , 14-H ) :   0.9764 B( 12-C , 15-H ) :   0.9772
B( 16-S , 17-C ) :   1.1721 B( 16-S , 20-C ) :   1.1624 B( 17-C , 18-C ) :   1.5650
B( 17-C , 20-C ) :   0.1159 B( 17-C , 33-H ) :   0.9749 B( 18-C , 19-C ) :   1.2965
B( 18-C , 21-H ) :   0.9843 B( 19-C , 20-C ) :   1.5397 B( 19-C , 22-C ) :   1.0207
B( 22-C , 23-H ) :   0.9359 B( 22-C , 24-H ) :   0.9252 B( 22-C , 25-C ) :   1.0792
B( 25-C , 26-H ) :   0.9497 B( 25-C , 27-H ) :   0.9562 B( 25-C , 28-C ) :   1.0855
B( 28-C , 29-H ) :   0.9732 B( 28-C , 30-H ) :   0.9712 B( 28-C , 31-H ) :   0.9741

Dispersion correction           -0.014185629
FINAL SINGLE POINT ENERGY     -1339.863731208549

DIPOLE MOMENT
-------------
                                X             Y             Z
Electronic contribution:      1.00157      12.03576     -14.70956
Nuclear contribution   :     -1.17664     -12.24612      15.09485
                        -----------------------------------------
Total Dipole Moment    :     -0.17507      -0.21036       0.38529
                        -----------------------------------------
Magnitude (a.u.)       :      0.47260
Magnitude (Debye)      :      1.20125

Rotational constants in cm-1:     0.019160     0.007744     0.006606
Rotational constants in MHz :   574.392832   232.173182   198.046530

                             ****ORCA TERMINATED NORMALLY****
TOTAL RUN TIME: 0 days 0 hours 0 minutes 21 seconds 21 msec
