                         Program Version 4.2.1 -  RELEASE  -
|  1> ! wB97X-D3 SP def2-SVP
|  2> %pal
|  3> nprocs 24
|  4> end
|  5>
|  6> * xyz 0 1
|  7> S 	 -82.2464 	 -39.0232 	 -76.9155
|  8> C 	 -83.2474 	 -39.849 	 -78.083
|  9> C 	 -83.9288 	 -40.907 	 -77.504
| 10> C 	 -83.6372 	 -41.0704 	 -76.0777
| 11> C 	 -82.8166 	 -40.0711 	 -75.618
| 12> H 	 -84.1411 	 -41.7176 	 -75.403
| 13> C 	 -84.9362 	 -41.8223 	 -78.1925
| 14> H 	 -84.8421 	 -42.7102 	 -77.6152
| 15> H 	 -84.4865 	 -42.0779 	 -79.1438
| 16> C 	 -86.3981 	 -41.5117 	 -78.2617
| 17> H 	 -86.7227 	 -42.3807 	 -78.8281
| 18> H 	 -86.9367 	 -41.5511 	 -77.2968
| 19> C 	 -86.6726 	 -40.2001 	 -78.9826
| 20> H 	 -86.0969 	 -40.006 	 -79.9189
| 21> H 	 -87.7105 	 -40.0697 	 -79.2002
| 22> H 	 -86.3644 	 -39.3104 	 -78.3883
| 23> S 	 -82.2527 	 -38.2915 	 -73.5957
| 24> C 	 -81.9385 	 -38.8374 	 -71.9852
| 25> C 	 -81.858 	 -40.2301 	 -71.9824
| 26> C 	 -82.0899 	 -40.8268 	 -73.2795
| 27> C 	 -82.4111 	 -39.8886 	 -74.2532
| 28> H 	 -81.8038 	 -40.9142 	 -71.1721
| 29> C 	 -82.0689 	 -42.3506 	 -73.4387
| 30> H 	 -82.3307 	 -42.681 	 -74.4505
| 31> H 	 -82.8488 	 -42.7853 	 -72.8418
| 32> C 	 -80.7437 	 -42.9915 	 -73.0327
| 33> H 	 -80.9283 	 -44.0535 	 -72.8225
| 34> H 	 -80.4467 	 -42.5876 	 -72.0846
| 35> C 	 -79.6101 	 -42.6963 	 -74.0987
| 36> H 	 -79.7213 	 -41.7525 	 -74.656
| 37> H 	 -79.7366 	 -43.4031 	 -74.8354
| 38> H 	 -78.6525 	 -42.8082 	 -73.6411
| 39> H 	 -83.2607 	 -39.5225 	 -79.1274
| 40> H 	 -81.9381 	 -38.1674 	 -71.1488
| 41> *
| 42>
| 43>                          ****END OF INPUT****

CARTESIAN COORDINATES (ANGSTROEM)
---------------------------------
  S    -82.246400  -39.023200  -76.915500
  C    -83.247400  -39.849000  -78.083000
  C    -83.928800  -40.907000  -77.504000
  C    -83.637200  -41.070400  -76.077700
  C    -82.816600  -40.071100  -75.618000
  H    -84.141100  -41.717600  -75.403000
  C    -84.936200  -41.822300  -78.192500
  H    -84.842100  -42.710200  -77.615200
  H    -84.486500  -42.077900  -79.143800
  C    -86.398100  -41.511700  -78.261700
  H    -86.722700  -42.380700  -78.828100
  H    -86.936700  -41.551100  -77.296800
  C    -86.672600  -40.200100  -78.982600
  H    -86.096900  -40.006000  -79.918900
  H    -87.710500  -40.069700  -79.200200
  H    -86.364400  -39.310400  -78.388300
  S    -82.252700  -38.291500  -73.595700
  C    -81.938500  -38.837400  -71.985200
  C    -81.858000  -40.230100  -71.982400
  C    -82.089900  -40.826800  -73.279500
  C    -82.411100  -39.888600  -74.253200
  H    -81.803800  -40.914200  -71.172100
  C    -82.068900  -42.350600  -73.438700
  H    -82.330700  -42.681000  -74.450500
  H    -82.848800  -42.785300  -72.841800
  C    -80.743700  -42.991500  -73.032700
  H    -80.928300  -44.053500  -72.822500
  H    -80.446700  -42.587600  -72.084600
  C    -79.610100  -42.696300  -74.098700
  H    -79.721300  -41.752500  -74.656000
  H    -79.736600  -43.403100  -74.835400
  H    -78.652500  -42.808200  -73.641100
  H    -83.260700  -39.522500  -79.127400
  H    -81.938100  -38.167400  -71.148800

 Total Charge           Charge          ....    0
 Multiplicity           Mult            ....    1
 Number of Electrons    NEL             ....  134
 Basis Dimension        Dim             ....  322

ORBITAL ENERGIES
----------------

  NO   OCC          E(Eh)            E(eV)
   0   2.0000     -88.964918     -2420.8585
   1   2.0000     -88.964088     -2420.8359
   2   2.0000     -10.328827      -281.0617
   3   2.0000     -10.323666      -280.9212
   4   2.0000     -10.320674      -280.8398
   5   2.0000     -10.314841      -280.6811
   6   2.0000     -10.303416      -280.3702
   7   2.0000     -10.302453      -280.3440
   8   2.0000     -10.295519      -280.1553
   9   2.0000     -10.293030      -280.0876
  10   2.0000     -10.289183      -279.9829
  11   2.0000     -10.288202      -279.9562
  12   2.0000     -10.284811      -279.8639
  13   2.0000     -10.284674      -279.8602
  14   2.0000     -10.276394      -279.6349
  15   2.0000     -10.266736      -279.3721
  16   2.0000      -8.079728      -219.8606
  17   2.0000      -8.079578      -219.8565
  18   2.0000      -6.038384      -164.3128
  19   2.0000      -6.038089      -164.3048
  20   2.0000      -6.034190      -164.1987
  21   2.0000      -6.033854      -164.1895
  22   2.0000      -6.030428      -164.0963
  23   2.0000      -6.030383      -164.0951
  24   2.0000      -1.008011       -27.4294
  25   2.0000      -0.982681       -26.7401
  26   2.0000      -0.915859       -24.9218
  27   2.0000      -0.907334       -24.6898
  28   2.0000      -0.871834       -23.7238
  29   2.0000      -0.849291       -23.1104
  30   2.0000      -0.840294       -22.8656
  31   2.0000      -0.811388       -22.0790
  32   2.0000      -0.785040       -21.3620
  33   2.0000      -0.777595       -21.1594
  34   2.0000      -0.709496       -19.3064
  35   2.0000      -0.699717       -19.0403
  36   2.0000      -0.697822       -18.9887
  37   2.0000      -0.662177       -18.0187
  38   2.0000      -0.642800       -17.4915
  39   2.0000      -0.618707       -16.8359
  40   2.0000      -0.603665       -16.4266
  41   2.0000      -0.563186       -15.3251
  42   2.0000      -0.553304       -15.0562
  43   2.0000      -0.551480       -15.0065
  44   2.0000      -0.541381       -14.7317
  45   2.0000      -0.535092       -14.5606
  46   2.0000      -0.521782       -14.1984
  47   2.0000      -0.510126       -13.8812
  48   2.0000      -0.506168       -13.7735
  49   2.0000      -0.496773       -13.5179
  50   2.0000      -0.492691       -13.4068
  51   2.0000      -0.479987       -13.0611
  52   2.0000      -0.469369       -12.7722
  53   2.0000      -0.468323       -12.7437
  54   2.0000      -0.454739       -12.3741
  55   2.0000      -0.450637       -12.2625
  56   2.0000      -0.444715       -12.1013
  57   2.0000      -0.440548       -11.9879
  58   2.0000      -0.431931       -11.7534
  59   2.0000      -0.423408       -11.5215
  60   2.0000      -0.419507       -11.4154
  61   2.0000      -0.411285       -11.1916
  62   2.0000      -0.407151       -11.0791
  63   2.0000      -0.357276        -9.7220
  64   2.0000      -0.329140        -8.9564
  65   2.0000      -0.328174        -8.9301
  66   2.0000      -0.287946        -7.8354
  67   0.0000       0.028036         0.7629
  68   0.0000       0.076036         2.0690
  69   0.0000       0.109523         2.9803
  70   0.0000       0.116100         3.1592
  71   0.0000       0.138871         3.7789

MULLIKEN ATOMIC CHARGES
-----------------------
   0 S :    0.102043
   1 C :   -0.137216
   2 C :   -0.100554
   3 C :    0.010019
   4 C :   -0.124763
   5 H :    0.014195
   6 C :    0.069965
   7 H :    0.002236
   8 H :    0.024142
   9 C :   -0.017873
  10 H :    0.029996
  11 H :    0.035552
  12 C :   -0.070562
  13 H :    0.023957
  14 H :    0.030307
  15 H :    0.043215
  16 S :    0.103233
  17 C :   -0.080885
  18 C :   -0.003576
  19 C :   -0.070176
  20 C :   -0.147726
  21 H :    0.009995
  22 C :    0.056563
  23 H :    0.014368
  24 H :    0.023737
  25 C :   -0.075768
  26 H :    0.028461
  27 H :    0.013158
  28 C :   -0.011331
  29 H :    0.046355
  30 H :    0.007966
  31 H :    0.032307
  32 H :    0.056990
  33 H :    0.061671
Sum of atomic charges:   -0.0000000

LOEWDIN ATOMIC CHARGES
----------------------
   0 S :    0.393631
   1 C :   -0.203037
   2 C :   -0.058725
   3 C :   -0.062974
   4 C :   -0.180112
   5 H :    0.027496
   6 C :   -0.035732
   7 H :    0.026997
   8 H :    0.031359
   9 C :   -0.038516
  10 H :    0.030261
  11 H :    0.030622
  12 C :   -0.074145
  13 H :    0.026395
  14 H :    0.021185
  15 H :    0.032519
  16 S :    0.419732
  17 C :   -0.185865
  18 C :   -0.064226
  19 C :   -0.054535
  20 C :   -0.208471
  21 H :    0.024087
  22 C :   -0.034203
  23 H :    0.027014
  24 H :    0.027674
  25 C :   -0.034605
  26 H :    0.025258
  27 H :    0.013686
  28 C :   -0.055098
  29 H :    0.035149
  30 H :    0.014329
  31 H :    0.023433
  32 H :    0.031058
  33 H :    0.028358

  Mayer bond orders larger than 0.100000
B(  0-S ,  1-C ) :   1.1191 B(  0-S ,  4-C ) :   1.1427 B(  1-C ,  2-C ) :   1.6234
B(  1-C , 32-H ) :   0.9726 B(  2-C ,  3-C ) :   1.2152 B(  2-C ,  6-C ) :   1.0142
B(  3-C ,  4-C ) :   1.5915 B(  3-C ,  5-H ) :   0.9926 B(  4-C , 20-C ) :   1.0670
B(  6-C ,  7-H ) :   0.9295 B(  6-C ,  8-H ) :   0.9388 B(  6-C ,  9-C ) :   1.0822
B(  9-C , 10-H ) :   0.9471 B(  9-C , 11-H ) :   0.9510 B(  9-C , 12-C ) :   1.0791
B( 12-C , 13-H ) :   0.9744 B( 12-C , 14-H ) :   0.9744 B( 12-C , 15-H ) :   0.9708
B( 16-S , 17-C ) :   1.1662 B( 16-S , 20-C ) :   1.1422 B( 17-C , 18-C ) :   1.5547
B( 17-C , 33-H ) :   0.9765 B( 18-C , 19-C ) :   1.2710 B( 18-C , 21-H ) :   0.9876
B( 19-C , 20-C ) :   1.5698 B( 19-C , 22-C ) :   1.0441 B( 22-C , 23-H ) :   0.9346
B( 22-C , 24-H ) :   0.9306 B( 22-C , 25-C ) :   1.0781 B( 25-C , 26-H ) :   0.9561
B( 25-C , 27-H ) :   0.9613 B( 25-C , 28-C ) :   1.0526 B( 28-C , 29-H ) :   0.9792
B( 28-C , 30-H ) :   0.9747 B( 28-C , 31-H ) :   0.9778

Dispersion correction           -0.014622490
FINAL SINGLE POINT ENERGY     -1339.885262152911

DIPOLE MOMENT
-------------
                                X             Y             Z
Electronic contribution:      6.93638      19.35426       6.02703
Nuclear contribution   :     -7.31368     -19.97216      -5.96266
                        -----------------------------------------
Total Dipole Moment    :     -0.37730      -0.61790       0.06437
                        -----------------------------------------
Magnitude (a.u.)       :      0.72685
Magnitude (Debye)      :      1.84750

Rotational constants in cm-1:     0.021112     0.008080     0.007033
Rotational constants in MHz :   632.914327   242.221483   210.834365

                             ****ORCA TERMINATED NORMALLY****
TOTAL RUN TIME: 0 days 0 hours 0 minutes 20 seconds 833 msec
