                         Program Version 4.2.1 -  RELEASE  -
|  1> ! wB97X-D3 SP def2-SVP
|  2> %pal
|  3> nprocs 24
|  4> end
|  5>
|  6> * xyz 0 1
|  7> S 	 -60.9692 	 16.1755 	 -106.849
|  8> C 	 -62.4586 	 16.5165 	 -106.079
|  9> C 	 -62.4818 	 16.1599 	 -104.707
| 10> C 	 -61.2161 	 15.8607 	 -104.298
| 11> C 	 -60.3051 	 15.5167 	 -105.34
| 12> H 	 -60.9011 	 15.5112 	 -103.366
| 13> C 	 -63.7382 	 16.1306 	 -103.866
| 14> H 	 -64.5265 	 15.5436 	 -104.4
| 15> H 	 -64.1713 	 17.1219 	 -104.108
| 16> C 	 -63.7172 	 15.6807 	 -102.423
| 17> H 	 -62.7903 	 15.1763 	 -102.271
| 18> H 	 -63.5537 	 16.532 	 -101.815
| 19> C 	 -64.9558 	 14.9541 	 -102.06
| 20> H 	 -65.0209 	 13.9212 	 -102.358
| 21> H 	 -65.0099 	 14.8746 	 -100.971
| 22> H 	 -65.8524 	 15.5947 	 -102.344
| 23> S 	 -57.7646 	 15.5919 	 -106.476
| 24> C 	 -56.5245 	 14.7303 	 -105.673
| 25> C 	 -56.973 	 13.9822 	 -104.634
| 26> C 	 -58.3605 	 14.1609 	 -104.368
| 27> C 	 -58.9513 	 15.0617 	 -105.255
| 28> H 	 -56.2793 	 13.361 	 -104.05
| 29> C 	 -59.0938 	 13.4951 	 -103.184
| 30> H 	 -58.7075 	 12.4944 	 -103.046
| 31> H 	 -60.139 	 13.2982 	 -103.445
| 32> C 	 -59.0598 	 14.2442 	 -101.822
| 33> H 	 -59.02 	 15.319 	 -102.018
| 34> H 	 -58.117 	 14.1241 	 -101.337
| 35> C 	 -60.2151 	 13.8734 	 -100.812
| 36> H 	 -61.2193 	 14.1168 	 -101.182
| 37> H 	 -59.9364 	 14.5151 	 -99.9721
| 38> H 	 -60.2952 	 12.7764 	 -100.561
| 39> H 	 -63.2887 	 16.9579 	 -106.555
| 40> H 	 -55.4572 	 14.6546 	 -105.912
| 41> *
| 42>
| 43>                          ****END OF INPUT****

CARTESIAN COORDINATES (ANGSTROEM)
---------------------------------
  S    -60.969200   16.175500  -106.849000
  C    -62.458600   16.516500  -106.079000
  C    -62.481800   16.159900  -104.707000
  C    -61.216100   15.860700  -104.298000
  C    -60.305100   15.516700  -105.340000
  H    -60.901100   15.511200  -103.366000
  C    -63.738200   16.130600  -103.866000
  H    -64.526500   15.543600  -104.400000
  H    -64.171300   17.121900  -104.108000
  C    -63.717200   15.680700  -102.423000
  H    -62.790300   15.176300  -102.271000
  H    -63.553700   16.532000  -101.815000
  C    -64.955800   14.954100  -102.060000
  H    -65.020900   13.921200  -102.358000
  H    -65.009900   14.874600  -100.971000
  H    -65.852400   15.594700  -102.344000
  S    -57.764600   15.591900  -106.476000
  C    -56.524500   14.730300  -105.673000
  C    -56.973000   13.982200  -104.634000
  C    -58.360500   14.160900  -104.368000
  C    -58.951300   15.061700  -105.255000
  H    -56.279300   13.361000  -104.050000
  C    -59.093800   13.495100  -103.184000
  H    -58.707500   12.494400  -103.046000
  H    -60.139000   13.298200  -103.445000
  C    -59.059800   14.244200  -101.822000
  H    -59.020000   15.319000  -102.018000
  H    -58.117000   14.124100  -101.337000
  C    -60.215100   13.873400  -100.812000
  H    -61.219300   14.116800  -101.182000
  H    -59.936400   14.515100  -99.972100
  H    -60.295200   12.776400  -100.561000
  H    -63.288700   16.957900  -106.555000
  H    -55.457200   14.654600  -105.912000

 Total Charge           Charge          ....    0
 Multiplicity           Mult            ....    1
 Number of Electrons    NEL             ....  134
 Basis Dimension        Dim             ....  322

ORBITAL ENERGIES
----------------

  NO   OCC          E(Eh)            E(eV)
   0   2.0000     -88.968644     -2420.9599
   1   2.0000     -88.967192     -2420.9204
   2   2.0000     -10.329113      -281.0695
   3   2.0000     -10.327627      -281.0290
   4   2.0000     -10.312248      -280.6105
   5   2.0000     -10.305870      -280.4370
   6   2.0000     -10.304389      -280.3967
   7   2.0000     -10.298763      -280.2436
   8   2.0000     -10.293277      -280.0943
   9   2.0000     -10.292755      -280.0801
  10   2.0000     -10.291477      -280.0453
  11   2.0000     -10.290615      -280.0219
  12   2.0000     -10.290571      -280.0207
  13   2.0000     -10.285957      -279.8951
  14   2.0000     -10.283407      -279.8257
  15   2.0000     -10.280981      -279.7597
  16   2.0000      -8.083165      -219.9541
  17   2.0000      -8.082090      -219.9248
  18   2.0000      -6.041412      -164.3952
  19   2.0000      -6.040685      -164.3754
  20   2.0000      -6.037653      -164.2929
  21   2.0000      -6.036676      -164.2663
  22   2.0000      -6.034302      -164.2017
  23   2.0000      -6.032654      -164.1569
  24   2.0000      -1.007941       -27.4275
  25   2.0000      -0.986758       -26.8510
  26   2.0000      -0.920449       -25.0467
  27   2.0000      -0.903242       -24.5785
  28   2.0000      -0.873740       -23.7757
  29   2.0000      -0.856884       -23.3170
  30   2.0000      -0.847767       -23.0689
  31   2.0000      -0.815089       -22.1797
  32   2.0000      -0.785211       -21.3667
  33   2.0000      -0.770096       -20.9554
  34   2.0000      -0.721294       -19.6274
  35   2.0000      -0.703340       -19.1389
  36   2.0000      -0.694288       -18.8925
  37   2.0000      -0.660033       -17.9604
  38   2.0000      -0.640999       -17.4425
  39   2.0000      -0.624827       -17.0024
  40   2.0000      -0.596033       -16.2189
  41   2.0000      -0.570925       -15.5357
  42   2.0000      -0.566685       -15.4203
  43   2.0000      -0.556079       -15.1317
  44   2.0000      -0.530857       -14.4453
  45   2.0000      -0.528191       -14.3728
  46   2.0000      -0.515402       -14.0248
  47   2.0000      -0.509987       -13.8775
  48   2.0000      -0.503037       -13.6883
  49   2.0000      -0.493670       -13.4334
  50   2.0000      -0.490212       -13.3393
  51   2.0000      -0.486973       -13.2512
  52   2.0000      -0.480217       -13.0674
  53   2.0000      -0.467696       -12.7266
  54   2.0000      -0.459817       -12.5123
  55   2.0000      -0.450362       -12.2550
  56   2.0000      -0.446473       -12.1491
  57   2.0000      -0.444511       -12.0958
  58   2.0000      -0.433057       -11.7841
  59   2.0000      -0.429329       -11.6826
  60   2.0000      -0.423773       -11.5315
  61   2.0000      -0.413662       -11.2563
  62   2.0000      -0.411679       -11.2023
  63   2.0000      -0.355464        -9.6727
  64   2.0000      -0.335236        -9.1222
  65   2.0000      -0.329555        -8.9677
  66   2.0000      -0.271325        -7.3831
  67   0.0000       0.017014         0.4630
  68   0.0000       0.078427         2.1341
  69   0.0000       0.102022         2.7762
  70   0.0000       0.125687         3.4201
  71   0.0000       0.131318         3.5733

MULLIKEN ATOMIC CHARGES
-----------------------
   0 S :    0.118518
   1 C :   -0.106351
   2 C :   -0.073499
   3 C :    0.054297
   4 C :   -0.171049
   5 H :   -0.050839
   6 C :    0.026545
   7 H :    0.033057
   8 H :    0.026558
   9 C :    0.018507
  10 H :   -0.000460
  11 H :    0.019394
  12 C :   -0.061150
  13 H :    0.042553
  14 H :    0.022659
  15 H :    0.047820
  16 S :    0.111057
  17 C :   -0.079329
  18 C :   -0.043977
  19 C :   -0.051835
  20 C :   -0.131448
  21 H :    0.020451
  22 C :    0.062981
  23 H :    0.017356
  24 H :    0.025676
  25 C :   -0.075993
  26 H :    0.036694
  27 H :    0.017166
  28 C :   -0.062510
  29 H :    0.029883
  30 H :    0.047796
  31 H :    0.046385
  32 H :    0.025412
  33 H :    0.057676
Sum of atomic charges:   -0.0000000

LOEWDIN ATOMIC CHARGES
----------------------
   0 S :    0.423061
   1 C :   -0.209963
   2 C :   -0.058548
   3 C :   -0.062173
   4 C :   -0.183135
   5 H :    0.015018
   6 C :   -0.042277
   7 H :    0.039469
   8 H :    0.037765
   9 C :   -0.044503
  10 H :    0.019150
  11 H :    0.026385
  12 C :   -0.064673
  13 H :    0.027433
  14 H :    0.027521
  15 H :    0.037602
  16 S :    0.403626
  17 C :   -0.200030
  18 C :   -0.077909
  19 C :   -0.054484
  20 C :   -0.188405
  21 H :    0.034674
  22 C :   -0.036087
  23 H :    0.028333
  24 H :    0.028936
  25 C :   -0.044131
  26 H :    0.025302
  27 H :    0.020333
  28 C :   -0.067562
  29 H :    0.019099
  30 H :    0.033523
  31 H :    0.033223
  32 H :    0.015651
  33 H :    0.037778

  Mayer bond orders larger than 0.100000
B(  0-S ,  1-C ) :   1.1803 B(  0-S ,  4-C ) :   1.1584 B(  1-C ,  2-C ) :   1.5169
B(  1-C ,  4-C ) :   0.1257 B(  1-C , 32-H ) :   0.9738 B(  2-C ,  3-C ) :   1.3364
B(  2-C ,  6-C ) :   1.0053 B(  3-C ,  4-C ) :   1.4914 B(  3-C ,  5-H ) :   0.9753
B(  4-C , 20-C ) :   1.1236 B(  6-C ,  7-H ) :   0.9455 B(  6-C ,  8-H ) :   0.9207
B(  6-C ,  9-C ) :   1.0485 B(  9-C , 10-H ) :   0.9484 B(  9-C , 11-H ) :   0.9333
B(  9-C , 12-C ) :   1.1006 B( 12-C , 13-H ) :   0.9725 B( 12-C , 14-H ) :   0.9675
B( 12-C , 15-H ) :   0.9718 B( 16-S , 17-C ) :   1.1487 B( 16-S , 20-C ) :   1.1193
B( 17-C , 18-C ) :   1.6301 B( 17-C , 33-H ) :   0.9591 B( 18-C , 19-C ) :   1.2478
B( 18-C , 21-H ) :   0.9871 B( 19-C , 20-C ) :   1.5760 B( 19-C , 22-C ) :   1.0527
B( 22-C , 23-H ) :   0.9295 B( 22-C , 24-H ) :   0.9397 B( 22-C , 25-C ) :   1.0424
B( 25-C , 26-H ) :   0.9573 B( 25-C , 27-H ) :   0.9515 B( 25-C , 28-C ) :   1.0668
B( 28-C , 29-H ) :   0.9769 B( 28-C , 30-H ) :   0.9730 B( 28-C , 31-H ) :   0.9706

Dispersion correction           -0.014914706
FINAL SINGLE POINT ENERGY     -1339.860257518962

DIPOLE MOMENT
-------------
                                X             Y             Z
Electronic contribution:     17.18911       7.48935     -29.09999
Nuclear contribution   :    -17.40531      -7.73029      29.83449
                        -----------------------------------------
Total Dipole Moment    :     -0.21621      -0.24094       0.73450
                        -----------------------------------------
Magnitude (a.u.)       :      0.80267
Magnitude (Debye)      :      2.04023

Rotational constants in cm-1:     0.018490     0.009920     0.006646
Rotational constants in MHz :   554.317977   297.399486   199.251510

                             ****ORCA TERMINATED NORMALLY****
TOTAL RUN TIME: 0 days 0 hours 0 minutes 21 seconds 387 msec
