                         Program Version 4.2.1 -  RELEASE  -
|  1> ! wB97X-D3 SP def2-SVP
|  2> %pal
|  3> nprocs 24
|  4> end
|  5>
|  6> * xyz 0 1
|  7> S 	 -44.5354 	 18.5755 	 24.8676
|  8> C 	 -44.386 	 20.3524 	 25.1542
|  9> C 	 -45.1041 	 21.1163 	 24.205
| 10> C 	 -45.8351 	 20.218 	 23.2714
| 11> C 	 -45.6233 	 18.8686 	 23.5099
| 12> H 	 -46.5135 	 20.5373 	 22.5036
| 13> C 	 -45.2275 	 22.6437 	 24.1049
| 14> H 	 -44.4212 	 22.9472 	 24.8019
| 15> H 	 -46.1845 	 22.9121 	 24.6817
| 16> C 	 -45.0574 	 23.2686 	 22.6927
| 17> H 	 -45.7763 	 22.8416 	 21.9497
| 18> H 	 -45.2934 	 24.3599 	 22.7168
| 19> C 	 -43.5812 	 23.0606 	 22.063
| 20> H 	 -43.4063 	 23.3834 	 21.0527
| 21> H 	 -42.7955 	 23.3999 	 22.7204
| 22> H 	 -43.4113 	 21.9845 	 21.9874
| 23> S 	 -47.0254 	 16.5444 	 24.0869
| 24> C 	 -47.667 	 15.6336 	 22.8196
| 25> C 	 -47.4978 	 16.2067 	 21.5815
| 26> C 	 -46.6706 	 17.4074 	 21.6376
| 27> C 	 -46.2876 	 17.7181 	 22.955
| 28> H 	 -47.9855 	 15.7038 	 20.7131
| 29> C 	 -46.4781 	 18.2163 	 20.4269
| 30> H 	 -46.6201 	 19.2229 	 20.7241
| 31> H 	 -47.1474 	 17.9802 	 19.6604
| 32> C 	 -45.0821 	 18.1408 	 19.9096
| 33> H 	 -44.7891 	 17.1618 	 19.6997
| 34> H 	 -44.3114 	 18.6588 	 20.5584
| 35> C 	 -44.9607 	 18.9372 	 18.6261
| 36> H 	 -45.1984 	 20.0196 	 18.8136
| 37> H 	 -45.5327 	 18.4961 	 17.8575
| 38> H 	 -43.872 	 19.0112 	 18.4019
| 39> H 	 -43.8258 	 20.859 	 25.9692
| 40> H 	 -48.2952 	 14.8224 	 22.9743
| 41> *
| 42>
| 43>                          ****END OF INPUT****

CARTESIAN COORDINATES (ANGSTROEM)
---------------------------------
  S    -44.535400   18.575500   24.867600
  C    -44.386000   20.352400   25.154200
  C    -45.104100   21.116300   24.205000
  C    -45.835100   20.218000   23.271400
  C    -45.623300   18.868600   23.509900
  H    -46.513500   20.537300   22.503600
  C    -45.227500   22.643700   24.104900
  H    -44.421200   22.947200   24.801900
  H    -46.184500   22.912100   24.681700
  C    -45.057400   23.268600   22.692700
  H    -45.776300   22.841600   21.949700
  H    -45.293400   24.359900   22.716800
  C    -43.581200   23.060600   22.063000
  H    -43.406300   23.383400   21.052700
  H    -42.795500   23.399900   22.720400
  H    -43.411300   21.984500   21.987400
  S    -47.025400   16.544400   24.086900
  C    -47.667000   15.633600   22.819600
  C    -47.497800   16.206700   21.581500
  C    -46.670600   17.407400   21.637600
  C    -46.287600   17.718100   22.955000
  H    -47.985500   15.703800   20.713100
  C    -46.478100   18.216300   20.426900
  H    -46.620100   19.222900   20.724100
  H    -47.147400   17.980200   19.660400
  C    -45.082100   18.140800   19.909600
  H    -44.789100   17.161800   19.699700
  H    -44.311400   18.658800   20.558400
  C    -44.960700   18.937200   18.626100
  H    -45.198400   20.019600   18.813600
  H    -45.532700   18.496100   17.857500
  H    -43.872000   19.011200   18.401900
  H    -43.825800   20.859000   25.969200
  H    -48.295200   14.822400   22.974300

 Total Charge           Charge          ....    0
 Multiplicity           Mult            ....    1
 Number of Electrons    NEL             ....  134
 Basis Dimension        Dim             ....  322

ORBITAL ENERGIES
----------------

  NO   OCC          E(Eh)            E(eV)
   0   2.0000     -88.967430     -2420.9269
   1   2.0000     -88.964638     -2420.8509
   2   2.0000     -10.331908      -281.1455
   3   2.0000     -10.326722      -281.0044
   4   2.0000     -10.323836      -280.9259
   5   2.0000     -10.313235      -280.6374
   6   2.0000     -10.309403      -280.5331
   7   2.0000     -10.307525      -280.4820
   8   2.0000     -10.307325      -280.4766
   9   2.0000     -10.305424      -280.4248
  10   2.0000     -10.298640      -280.2402
  11   2.0000     -10.295702      -280.1603
  12   2.0000     -10.281037      -279.7612
  13   2.0000     -10.278073      -279.6806
  14   2.0000     -10.276202      -279.6297
  15   2.0000     -10.275037      -279.5980
  16   2.0000      -8.080956      -219.8940
  17   2.0000      -8.079964      -219.8670
  18   2.0000      -6.039661      -164.3475
  19   2.0000      -6.038383      -164.3128
  20   2.0000      -6.035729      -164.2405
  21   2.0000      -6.034354      -164.2031
  22   2.0000      -6.031462      -164.1244
  23   2.0000      -6.030796      -164.1063
  24   2.0000      -1.002980       -27.2925
  25   2.0000      -0.973944       -26.5024
  26   2.0000      -0.925376       -25.1808
  27   2.0000      -0.902931       -24.5700
  28   2.0000      -0.864696       -23.5296
  29   2.0000      -0.854212       -23.2443
  30   2.0000      -0.835253       -22.7284
  31   2.0000      -0.811711       -22.0878
  32   2.0000      -0.784984       -21.3605
  33   2.0000      -0.771945       -21.0057
  34   2.0000      -0.712771       -19.3955
  35   2.0000      -0.698003       -18.9936
  36   2.0000      -0.689601       -18.7650
  37   2.0000      -0.660461       -17.9720
  38   2.0000      -0.633841       -17.2477
  39   2.0000      -0.620598       -16.8873
  40   2.0000      -0.600094       -16.3294
  41   2.0000      -0.582719       -15.8566
  42   2.0000      -0.557247       -15.1635
  43   2.0000      -0.547750       -14.9050
  44   2.0000      -0.531818       -14.4715
  45   2.0000      -0.527495       -14.3539
  46   2.0000      -0.517436       -14.0801
  47   2.0000      -0.513764       -13.9802
  48   2.0000      -0.500739       -13.6258
  49   2.0000      -0.494986       -13.4693
  50   2.0000      -0.492610       -13.4046
  51   2.0000      -0.484345       -13.1797
  52   2.0000      -0.471071       -12.8185
  53   2.0000      -0.460318       -12.5259
  54   2.0000      -0.453856       -12.3501
  55   2.0000      -0.447415       -12.1748
  56   2.0000      -0.446361       -12.1461
  57   2.0000      -0.435755       -11.8575
  58   2.0000      -0.430982       -11.7276
  59   2.0000      -0.425643       -11.5823
  60   2.0000      -0.424402       -11.5486
  61   2.0000      -0.417581       -11.3630
  62   2.0000      -0.416098       -11.3226
  63   2.0000      -0.348019        -9.4701
  64   2.0000      -0.328650        -8.9430
  65   2.0000      -0.326001        -8.8709
  66   2.0000      -0.287738        -7.8297
  67   0.0000       0.026744         0.7277
  68   0.0000       0.070843         1.9277
  69   0.0000       0.104490         2.8433
  70   0.0000       0.111811         3.0425
  71   0.0000       0.122849         3.3429

MULLIKEN ATOMIC CHARGES
-----------------------
   0 S :    0.100604
   1 C :   -0.129344
   2 C :   -0.126934
   3 C :    0.024174
   4 C :   -0.151582
   5 H :    0.016162
   6 C :    0.045218
   7 H :    0.022602
   8 H :    0.068646
   9 C :   -0.088309
  10 H :    0.041676
  11 H :    0.046932
  12 C :   -0.062634
  13 H :    0.036305
  14 H :    0.033366
  15 H :    0.033549
  16 S :    0.114642
  17 C :   -0.059761
  18 C :   -0.065507
  19 C :   -0.035935
  20 C :   -0.139199
  21 H :    0.034001
  22 C :    0.154985
  23 H :   -0.012622
  24 H :    0.000545
  25 C :   -0.098367
  26 H :    0.015912
  27 H :    0.045088
  28 C :   -0.040769
  29 H :    0.024712
  30 H :    0.027217
  31 H :    0.032828
  32 H :    0.059125
  33 H :    0.032676
Sum of atomic charges:    0.0000000

LOEWDIN ATOMIC CHARGES
----------------------
   0 S :    0.377930
   1 C :   -0.199243
   2 C :   -0.057358
   3 C :   -0.066310
   4 C :   -0.182855
   5 H :    0.025236
   6 C :   -0.043697
   7 H :    0.032859
   8 H :    0.049025
   9 C :   -0.042204
  10 H :    0.027065
  11 H :    0.030274
  12 C :   -0.068630
  13 H :    0.024901
  14 H :    0.023628
  15 H :    0.028140
  16 S :    0.419707
  17 C :   -0.192692
  18 C :   -0.081051
  19 C :   -0.039328
  20 C :   -0.201495
  21 H :    0.039211
  22 C :   -0.027601
  23 H :    0.026416
  24 H :    0.024765
  25 C :   -0.034061
  26 H :    0.014162
  27 H :    0.035044
  28 C :   -0.063448
  29 H :    0.026352
  30 H :    0.013901
  31 H :    0.030057
  32 H :    0.034937
  33 H :    0.016360

  Mayer bond orders larger than 0.100000
B(  0-S ,  1-C ) :   1.1094 B(  0-S ,  4-C ) :   1.1308 B(  1-C ,  2-C ) :   1.6563
B(  1-C , 32-H ) :   0.9577 B(  2-C ,  3-C ) :   1.1893 B(  2-C ,  6-C ) :   1.0117
B(  3-C ,  4-C ) :   1.6129 B(  3-C ,  5-H ) :   0.9837 B(  4-C , 20-C ) :   1.0586
B(  6-C ,  7-H ) :   0.9419 B(  6-C ,  8-H ) :   0.9397 B(  6-C ,  9-C ) :   1.0522
B(  9-C , 10-H ) :   0.9584 B(  9-C , 11-H ) :   0.9597 B(  9-C , 12-C ) :   1.0547
B( 12-C , 13-H ) :   0.9786 B( 12-C , 14-H ) :   0.9788 B( 12-C , 15-H ) :   0.9759
B( 16-S , 17-C ) :   1.1756 B( 16-S , 20-C ) :   1.1295 B( 17-C , 18-C ) :   1.6067
B( 17-C , 33-H ) :   0.9705 B( 18-C , 19-C ) :   1.2323 B( 18-C , 21-H ) :   0.9862
B( 19-C , 20-C ) :   1.5783 B( 19-C , 22-C ) :   1.0626 B( 22-C , 23-H ) :   0.9106
B( 22-C , 24-H ) :   0.9289 B( 22-C , 25-C ) :   1.0760 B( 25-C , 26-H ) :   0.9542
B( 25-C , 27-H ) :   0.9533 B( 25-C , 28-C ) :   1.0950 B( 28-C , 29-H ) :   0.9706
B( 28-C , 30-H ) :   0.9731 B( 28-C , 31-H ) :   0.9744

Dispersion correction           -0.014585130
FINAL SINGLE POINT ENERGY     -1339.867015934232

DIPOLE MOMENT
-------------
                                X             Y             Z
Electronic contribution:     -6.58892     -20.59669      21.48485
Nuclear contribution   :      6.36034      21.02866     -21.96931
                        -----------------------------------------
Total Dipole Moment    :     -0.22858       0.43197      -0.48445
                        -----------------------------------------
Magnitude (a.u.)       :      0.68814
Magnitude (Debye)      :      1.74913

Rotational constants in cm-1:     0.017476     0.009919     0.007068
Rotational constants in MHz :   523.930257   297.370152   211.891282

                             ****ORCA TERMINATED NORMALLY****
TOTAL RUN TIME: 0 days 0 hours 0 minutes 22 seconds 125 msec
