                         Program Version 4.2.1 -  RELEASE  -
|  1> ! wB97X-D3 SP def2-SVP
|  2> %pal
|  3> nprocs 24
|  4> end
|  5>
|  6> * xyz 0 1
|  7> S 	 -62.3873 	 -56.8509 	 -77.817
|  8> C 	 -64.0366 	 -57.3781 	 -77.3631
|  9> C 	 -64.7272 	 -57.8891 	 -78.4691
| 10> C 	 -63.8583 	 -57.9774 	 -79.6107
| 11> C 	 -62.5846 	 -57.5104 	 -79.4466
| 12> H 	 -64.3079 	 -58.4457 	 -80.4412
| 13> C 	 -66.2154 	 -58.0976 	 -78.4538
| 14> H 	 -66.4618 	 -58.4585 	 -77.4441
| 15> H 	 -66.5388 	 -58.8298 	 -79.2103
| 16> C 	 -67.0765 	 -56.8803 	 -78.8584
| 17> H 	 -66.8683 	 -56.368 	 -79.8054
| 18> H 	 -68.1654 	 -57.1416 	 -78.8834
| 19> C 	 -67.099 	 -55.6111 	 -77.9391
| 20> H 	 -66.0822 	 -55.2266 	 -77.8332
| 21> H 	 -67.6766 	 -54.7485 	 -78.2484
| 22> H 	 -67.528 	 -55.8536 	 -76.9597
| 23> S 	 -60.0194 	 -58.359 	 -80.0389
| 24> C 	 -59.0669 	 -57.3368 	 -81.0911
| 25> C 	 -59.8587 	 -56.5095 	 -81.8349
| 26> C 	 -61.2481 	 -56.5019 	 -81.4437
| 27> C 	 -61.4444 	 -57.3904 	 -80.3878
| 28> H 	 -59.3388 	 -55.902 	 -82.5782
| 29> C 	 -62.1877 	 -55.4355 	 -81.8797
| 30> H 	 -63.1509 	 -55.9396 	 -81.9147
| 31> H 	 -61.9832 	 -55.1517 	 -82.8393
| 32> C 	 -62.1644 	 -54.2848 	 -80.8988
| 33> H 	 -61.208 	 -53.7069 	 -80.8958
| 34> H 	 -62.4084 	 -54.5165 	 -79.8573
| 35> C 	 -63.1963 	 -53.1839 	 -81.1545
| 36> H 	 -63.0757 	 -52.6298 	 -82.0684
| 37> H 	 -63.2213 	 -52.4098 	 -80.4037
| 38> H 	 -64.209 	 -53.6112 	 -81.1083
| 39> H 	 -64.6047 	 -57.1948 	 -76.446
| 40> H 	 -58.0323 	 -57.3261 	 -81.3317
| 41> *
| 42>
| 43>                          ****END OF INPUT****

CARTESIAN COORDINATES (ANGSTROEM)
---------------------------------
  S    -62.387300  -56.850900  -77.817000
  C    -64.036600  -57.378100  -77.363100
  C    -64.727200  -57.889100  -78.469100
  C    -63.858300  -57.977400  -79.610700
  C    -62.584600  -57.510400  -79.446600
  H    -64.307900  -58.445700  -80.441200
  C    -66.215400  -58.097600  -78.453800
  H    -66.461800  -58.458500  -77.444100
  H    -66.538800  -58.829800  -79.210300
  C    -67.076500  -56.880300  -78.858400
  H    -66.868300  -56.368000  -79.805400
  H    -68.165400  -57.141600  -78.883400
  C    -67.099000  -55.611100  -77.939100
  H    -66.082200  -55.226600  -77.833200
  H    -67.676600  -54.748500  -78.248400
  H    -67.528000  -55.853600  -76.959700
  S    -60.019400  -58.359000  -80.038900
  C    -59.066900  -57.336800  -81.091100
  C    -59.858700  -56.509500  -81.834900
  C    -61.248100  -56.501900  -81.443700
  C    -61.444400  -57.390400  -80.387800
  H    -59.338800  -55.902000  -82.578200
  C    -62.187700  -55.435500  -81.879700
  H    -63.150900  -55.939600  -81.914700
  H    -61.983200  -55.151700  -82.839300
  C    -62.164400  -54.284800  -80.898800
  H    -61.208000  -53.706900  -80.895800
  H    -62.408400  -54.516500  -79.857300
  C    -63.196300  -53.183900  -81.154500
  H    -63.075700  -52.629800  -82.068400
  H    -63.221300  -52.409800  -80.403700
  H    -64.209000  -53.611200  -81.108300
  H    -64.604700  -57.194800  -76.446000
  H    -58.032300  -57.326100  -81.331700

 Total Charge           Charge          ....    0
 Multiplicity           Mult            ....    1
 Number of Electrons    NEL             ....  134
 Basis Dimension        Dim             ....  322

ORBITAL ENERGIES
----------------

  NO   OCC          E(Eh)            E(eV)
   0   2.0000     -88.969619     -2420.9864
   1   2.0000     -88.965665     -2420.8788
   2   2.0000     -10.334461      -281.2150
   3   2.0000     -10.326935      -281.0102
   4   2.0000     -10.319234      -280.8006
   5   2.0000     -10.311923      -280.6017
   6   2.0000     -10.304484      -280.3993
   7   2.0000     -10.303540      -280.3736
   8   2.0000     -10.301421      -280.3159
   9   2.0000     -10.295354      -280.1508
  10   2.0000     -10.293645      -280.1043
  11   2.0000     -10.291075      -280.0344
  12   2.0000     -10.284432      -279.8536
  13   2.0000     -10.283515      -279.8287
  14   2.0000     -10.275642      -279.6144
  15   2.0000     -10.269986      -279.4605
  16   2.0000      -8.082776      -219.9435
  17   2.0000      -8.080216      -219.8738
  18   2.0000      -6.041475      -164.3969
  19   2.0000      -6.038810      -164.3244
  20   2.0000      -6.037456      -164.2875
  21   2.0000      -6.034803      -164.2153
  22   2.0000      -6.033441      -164.1783
  23   2.0000      -6.030829      -164.1072
  24   2.0000      -1.003545       -27.3078
  25   2.0000      -0.981304       -26.7026
  26   2.0000      -0.914449       -24.8834
  27   2.0000      -0.909451       -24.7474
  28   2.0000      -0.863778       -23.5046
  29   2.0000      -0.850920       -23.1547
  30   2.0000      -0.844160       -22.9708
  31   2.0000      -0.818502       -22.2726
  32   2.0000      -0.787574       -21.4310
  33   2.0000      -0.774245       -21.0683
  34   2.0000      -0.709300       -19.3010
  35   2.0000      -0.695582       -18.9277
  36   2.0000      -0.692628       -18.8474
  37   2.0000      -0.658096       -17.9077
  38   2.0000      -0.635410       -17.2904
  39   2.0000      -0.627345       -17.0709
  40   2.0000      -0.593095       -16.1389
  41   2.0000      -0.572324       -15.5737
  42   2.0000      -0.567290       -15.4367
  43   2.0000      -0.549697       -14.9580
  44   2.0000      -0.541132       -14.7249
  45   2.0000      -0.529205       -14.4004
  46   2.0000      -0.522073       -14.2063
  47   2.0000      -0.513901       -13.9839
  48   2.0000      -0.507518       -13.8103
  49   2.0000      -0.495179       -13.4745
  50   2.0000      -0.488054       -13.2806
  51   2.0000      -0.481910       -13.1134
  52   2.0000      -0.469001       -12.7622
  53   2.0000      -0.459454       -12.5024
  54   2.0000      -0.457083       -12.4379
  55   2.0000      -0.443214       -12.0605
  56   2.0000      -0.441386       -12.0107
  57   2.0000      -0.440205       -11.9786
  58   2.0000      -0.434111       -11.8128
  59   2.0000      -0.422083       -11.4855
  60   2.0000      -0.419293       -11.4096
  61   2.0000      -0.414496       -11.2790
  62   2.0000      -0.408770       -11.1232
  63   2.0000      -0.337879        -9.1942
  64   2.0000      -0.330452        -8.9920
  65   2.0000      -0.325008        -8.8439
  66   2.0000      -0.304284        -8.2800
  67   0.0000       0.033583         0.9138
  68   0.0000       0.058295         1.5863
  69   0.0000       0.111052         3.0219
  70   0.0000       0.114415         3.1134
  71   0.0000       0.124696         3.3932

MULLIKEN ATOMIC CHARGES
-----------------------
   0 S :    0.115044
   1 C :   -0.112156
   2 C :   -0.140702
   3 C :    0.086035
   4 C :   -0.148838
   5 H :   -0.011639
   6 C :    0.089777
   7 H :    0.034653
   8 H :    0.032969
   9 C :   -0.093240
  10 H :    0.035358
  11 H :    0.038753
  12 C :   -0.087344
  13 H :    0.036619
  14 H :    0.032523
  15 H :    0.019952
  16 S :    0.123123
  17 C :   -0.070489
  18 C :   -0.068244
  19 C :   -0.011540
  20 C :   -0.200653
  21 H :    0.020078
  22 C :    0.187250
  23 H :    0.014222
  24 H :   -0.008703
  25 C :   -0.088697
  26 H :    0.032510
  27 H :    0.034454
  28 C :   -0.046078
  29 H :    0.020341
  30 H :    0.022330
  31 H :    0.021758
  32 H :    0.051139
  33 H :    0.039435
Sum of atomic charges:    0.0000000

LOEWDIN ATOMIC CHARGES
----------------------
   0 S :    0.394477
   1 C :   -0.187928
   2 C :   -0.067428
   3 C :   -0.055593
   4 C :   -0.187758
   5 H :    0.024924
   6 C :   -0.030872
   7 H :    0.037048
   8 H :    0.037679
   9 C :   -0.046242
  10 H :    0.027991
  11 H :    0.029910
  12 C :   -0.077119
  13 H :    0.022369
  14 H :    0.025864
  15 H :    0.017774
  16 S :    0.403913
  17 C :   -0.181636
  18 C :   -0.074005
  19 C :   -0.042312
  20 C :   -0.205251
  21 H :    0.032451
  22 C :   -0.021974
  23 H :    0.035507
  24 H :    0.019160
  25 C :   -0.039397
  26 H :    0.029931
  27 H :    0.025868
  28 C :   -0.068088
  29 H :    0.016250
  30 H :    0.023339
  31 H :    0.022468
  32 H :    0.031524
  33 H :    0.027158

  Mayer bond orders larger than 0.100000
B(  0-S ,  1-C ) :   1.1310 B(  0-S ,  4-C ) :   1.1383 B(  1-C ,  2-C ) :   1.6204
B(  1-C , 32-H ) :   0.9597 B(  2-C ,  3-C ) :   1.2463 B(  2-C ,  6-C ) :   1.0377
B(  3-C ,  4-C ) :   1.5824 B(  3-C ,  5-H ) :   1.0048 B(  4-C , 20-C ) :   1.0036
B(  6-C ,  7-H ) :   0.9393 B(  6-C ,  8-H ) :   0.9352 B(  6-C ,  9-C ) :   1.0523
B(  9-C , 10-H ) :   0.9613 B(  9-C , 11-H ) :   0.9598 B(  9-C , 12-C ) :   1.0690
B( 12-C , 13-H ) :   0.9746 B( 12-C , 14-H ) :   0.9758 B( 12-C , 15-H ) :   0.9769
B( 16-S , 17-C ) :   1.1342 B( 16-S , 20-C ) :   1.1479 B( 17-C , 18-C ) :   1.6645
B( 17-C , 33-H ) :   0.9650 B( 18-C , 19-C ) :   1.2075 B( 18-C , 21-H ) :   0.9854
B( 19-C , 20-C ) :   1.5970 B( 19-C , 22-C ) :   1.0632 B( 22-C , 23-H ) :   0.9149
B( 22-C , 24-H ) :   0.9168 B( 22-C , 25-C ) :   1.0662 B( 25-C , 26-H ) :   0.9552
B( 25-C , 27-H ) :   0.9549 B( 25-C , 28-C ) :   1.0873 B( 28-C , 29-H ) :   0.9742
B( 28-C , 30-H ) :   0.9738 B( 28-C , 31-H ) :   0.9743

Dispersion correction           -0.015277251
FINAL SINGLE POINT ENERGY     -1339.866298169508

DIPOLE MOMENT
-------------
                                X             Y             Z
Electronic contribution:     23.31903     -17.03429       3.79443
Nuclear contribution   :    -23.77330      17.40700      -4.11845
                        -----------------------------------------
Total Dipole Moment    :     -0.45427       0.37271      -0.32402
                        -----------------------------------------
Magnitude (a.u.)       :      0.67102
Magnitude (Debye)      :      1.70559

Rotational constants in cm-1:     0.020669     0.009146     0.007326
Rotational constants in MHz :   619.642533   274.201817   219.637004

                             ****ORCA TERMINATED NORMALLY****
TOTAL RUN TIME: 0 days 0 hours 0 minutes 22 seconds 242 msec
