                         Program Version 4.2.1 -  RELEASE  -
|  1> ! wB97X-D3 SP def2-SVP
|  2> %pal
|  3> nprocs 24
|  4> end
|  5>
|  6> * xyz 0 1
|  7> S 	 -39.3923 	 -11.2376 	 8.81031
|  8> C 	 -40.6568 	 -12.0806 	 7.89771
|  9> C 	 -40.3733 	 -12.0983 	 6.5607
| 10> C 	 -39.1463 	 -11.4953 	 6.23225
| 11> C 	 -38.5251 	 -10.8888 	 7.33368
| 12> H 	 -38.6023 	 -11.454 	 5.31648
| 13> C 	 -41.2151 	 -12.7339 	 5.44833
| 14> H 	 -41.47 	 -13.6857 	 5.85484
| 15> H 	 -40.6346 	 -13.0962 	 4.57062
| 16> C 	 -42.5915 	 -12.0994 	 5.0938
| 17> H 	 -42.9524 	 -12.5757 	 4.17514
| 18> H 	 -43.304 	 -12.3501 	 5.81359
| 19> C 	 -42.5233 	 -10.6484 	 4.87208
| 20> H 	 -41.972 	 -10.2013 	 5.62602
| 21> H 	 -41.9515 	 -10.3919 	 3.94142
| 22> H 	 -43.4975 	 -10.1567 	 4.85895
| 23> S 	 -35.9212 	 -10.9603 	 8.05753
| 24> C 	 -34.9201 	 -9.59361 	 7.79407
| 25> C 	 -35.4562 	 -8.78248 	 6.85625
| 26> C 	 -36.819 	 -9.07749 	 6.61625
| 27> C 	 -37.2614 	 -10.2021 	 7.30371
| 28> H 	 -34.8913 	 -7.97944 	 6.51921
| 29> C 	 -37.6962 	 -8.20495 	 5.82962
| 30> H 	 -37.8784 	 -8.80279 	 4.96388
| 31> H 	 -37.1376 	 -7.32826 	 5.59103
| 32> C 	 -39.0118 	 -7.6758 	 6.56784
| 33> H 	 -38.7171 	 -7.16064 	 7.49877
| 34> H 	 -39.5987 	 -8.49539 	 6.8235
| 35> C 	 -39.6733 	 -6.5852 	 5.74128
| 36> H 	 -40.3471 	 -6.08337 	 6.46344
| 37> H 	 -40.2206 	 -7.11633 	 5.00553
| 38> H 	 -39.0095 	 -5.79587 	 5.34446
| 39> H 	 -41.5769 	 -12.494 	 8.27496
| 40> H 	 -33.9816 	 -9.3882 	 8.2468
| 41> *
| 42>
| 43>                          ****END OF INPUT****

CARTESIAN COORDINATES (ANGSTROEM)
---------------------------------
  S    -39.392300  -11.237600    8.810310
  C    -40.656800  -12.080600    7.897710
  C    -40.373300  -12.098300    6.560700
  C    -39.146300  -11.495300    6.232250
  C    -38.525100  -10.888800    7.333680
  H    -38.602300  -11.454000    5.316480
  C    -41.215100  -12.733900    5.448330
  H    -41.470000  -13.685700    5.854840
  H    -40.634600  -13.096200    4.570620
  C    -42.591500  -12.099400    5.093800
  H    -42.952400  -12.575700    4.175140
  H    -43.304000  -12.350100    5.813590
  C    -42.523300  -10.648400    4.872080
  H    -41.972000  -10.201300    5.626020
  H    -41.951500  -10.391900    3.941420
  H    -43.497500  -10.156700    4.858950
  S    -35.921200  -10.960300    8.057530
  C    -34.920100   -9.593610    7.794070
  C    -35.456200   -8.782480    6.856250
  C    -36.819000   -9.077490    6.616250
  C    -37.261400  -10.202100    7.303710
  H    -34.891300   -7.979440    6.519210
  C    -37.696200   -8.204950    5.829620
  H    -37.878400   -8.802790    4.963880
  H    -37.137600   -7.328260    5.591030
  C    -39.011800   -7.675800    6.567840
  H    -38.717100   -7.160640    7.498770
  H    -39.598700   -8.495390    6.823500
  C    -39.673300   -6.585200    5.741280
  H    -40.347100   -6.083370    6.463440
  H    -40.220600   -7.116330    5.005530
  H    -39.009500   -5.795870    5.344460
  H    -41.576900  -12.494000    8.274960
  H    -33.981600   -9.388200    8.246800

 Total Charge           Charge          ....    0
 Multiplicity           Mult            ....    1
 Number of Electrons    NEL             ....  134
 Basis Dimension        Dim             ....  322

ORBITAL ENERGIES
----------------

  NO   OCC          E(Eh)            E(eV)
   0   2.0000     -88.970847     -2421.0198
   1   2.0000     -88.957920     -2420.6681
   2   2.0000     -10.327605      -281.0284
   3   2.0000     -10.315524      -280.6997
   4   2.0000     -10.313618      -280.6478
   5   2.0000     -10.305729      -280.4331
   6   2.0000     -10.301185      -280.3095
   7   2.0000     -10.294233      -280.1203
   8   2.0000     -10.291428      -280.0440
   9   2.0000     -10.291127      -280.0358
  10   2.0000     -10.281098      -279.7629
  11   2.0000     -10.280532      -279.7475
  12   2.0000     -10.279503      -279.7195
  13   2.0000     -10.279025      -279.7065
  14   2.0000     -10.273670      -279.5608
  15   2.0000     -10.266330      -279.3610
  16   2.0000      -8.084788      -219.9983
  17   2.0000      -8.074293      -219.7127
  18   2.0000      -6.043281      -164.4460
  19   2.0000      -6.039328      -164.3385
  20   2.0000      -6.035681      -164.2392
  21   2.0000      -6.032627      -164.1561
  22   2.0000      -6.028665      -164.0483
  23   2.0000      -6.025043      -163.9498
  24   2.0000      -1.013355       -27.5748
  25   2.0000      -0.989195       -26.9174
  26   2.0000      -0.914890       -24.8954
  27   2.0000      -0.907615       -24.6975
  28   2.0000      -0.875256       -23.8169
  29   2.0000      -0.854417       -23.2499
  30   2.0000      -0.850755       -23.1502
  31   2.0000      -0.817304       -22.2400
  32   2.0000      -0.785943       -21.3866
  33   2.0000      -0.768283       -20.9060
  34   2.0000      -0.710567       -19.3355
  35   2.0000      -0.704409       -19.1680
  36   2.0000      -0.692275       -18.8378
  37   2.0000      -0.664252       -18.0752
  38   2.0000      -0.643229       -17.5031
  39   2.0000      -0.612139       -16.6571
  40   2.0000      -0.589527       -16.0418
  41   2.0000      -0.578699       -15.7472
  42   2.0000      -0.573824       -15.6146
  43   2.0000      -0.556434       -15.1413
  44   2.0000      -0.549336       -14.9482
  45   2.0000      -0.528026       -14.3683
  46   2.0000      -0.518573       -14.1111
  47   2.0000      -0.512280       -13.9398
  48   2.0000      -0.502467       -13.6728
  49   2.0000      -0.501180       -13.6378
  50   2.0000      -0.489448       -13.3186
  51   2.0000      -0.479406       -13.0453
  52   2.0000      -0.478184       -13.0120
  53   2.0000      -0.470946       -12.8151
  54   2.0000      -0.463070       -12.6008
  55   2.0000      -0.453211       -12.3325
  56   2.0000      -0.439944       -11.9715
  57   2.0000      -0.435539       -11.8516
  58   2.0000      -0.427800       -11.6410
  59   2.0000      -0.426006       -11.5922
  60   2.0000      -0.415492       -11.3061
  61   2.0000      -0.414754       -11.2860
  62   2.0000      -0.407263       -11.0822
  63   2.0000      -0.339451        -9.2369
  64   2.0000      -0.331379        -9.0173
  65   2.0000      -0.323061        -8.7909
  66   2.0000      -0.296552        -8.0696
  67   0.0000       0.029242         0.7957
  68   0.0000       0.068544         1.8652
  69   0.0000       0.115977         3.1559
  70   0.0000       0.120624         3.2824
  71   0.0000       0.134546         3.6612

MULLIKEN ATOMIC CHARGES
-----------------------
   0 S :    0.129659
   1 C :   -0.112377
   2 C :   -0.074649
   3 C :    0.045531
   4 C :   -0.205412
   5 H :    0.005584
   6 C :    0.056643
   7 H :    0.011857
   8 H :    0.032759
   9 C :   -0.033314
  10 H :    0.024509
  11 H :    0.010591
  12 C :   -0.028661
  13 H :    0.018214
  14 H :    0.025446
  15 H :    0.031554
  16 S :    0.115820
  17 C :   -0.075010
  18 C :   -0.018833
  19 C :   -0.039743
  20 C :   -0.167606
  21 H :   -0.010934
  22 C :    0.106138
  23 H :    0.024889
  24 H :   -0.003423
  25 C :   -0.085410
  26 H :    0.028014
  27 H :    0.038860
  28 C :   -0.028377
  29 H :    0.032842
  30 H :    0.028357
  31 H :    0.037692
  32 H :    0.038333
  33 H :    0.040457
Sum of atomic charges:    0.0000000

LOEWDIN ATOMIC CHARGES
----------------------
   0 S :    0.410562
   1 C :   -0.191155
   2 C :   -0.065528
   3 C :   -0.056208
   4 C :   -0.199700
   5 H :    0.029398
   6 C :   -0.035754
   7 H :    0.029823
   8 H :    0.036203
   9 C :   -0.035543
  10 H :    0.028668
  11 H :    0.014806
  12 C :   -0.065067
  13 H :    0.013785
  14 H :    0.029973
  15 H :    0.027586
  16 S :    0.429340
  17 C :   -0.182384
  18 C :   -0.068700
  19 C :   -0.053719
  20 C :   -0.225295
  21 H :    0.021526
  22 C :   -0.029362
  23 H :    0.029900
  24 H :    0.022985
  25 C :   -0.025414
  26 H :    0.026207
  27 H :    0.014182
  28 C :   -0.062209
  29 H :    0.030400
  30 H :    0.020105
  31 H :    0.028066
  32 H :    0.028174
  33 H :    0.024350

  Mayer bond orders larger than 0.100000
B(  0-S ,  1-C ) :   1.1334 B(  0-S ,  4-C ) :   1.1576 B(  1-C ,  2-C ) :   1.6127
B(  1-C ,  4-C ) :   0.1045 B(  1-C , 32-H ) :   0.9691 B(  2-C ,  3-C ) :   1.2295
B(  2-C ,  6-C ) :   1.0031 B(  3-C ,  4-C ) :   1.5609 B(  3-C ,  5-H ) :   1.0036
B(  4-C , 20-C ) :   1.0422 B(  6-C ,  7-H ) :   0.9319 B(  6-C ,  8-H ) :   0.9506
B(  6-C ,  9-C ) :   1.0731 B(  9-C , 10-H ) :   0.9510 B(  9-C , 11-H ) :   0.9541
B(  9-C , 12-C ) :   1.0948 B( 12-C , 13-H ) :   0.9698 B( 12-C , 14-H ) :   0.9712
B( 12-C , 15-H ) :   0.9698 B( 16-S , 17-C ) :   1.1703 B( 16-S , 20-C ) :   1.1554
B( 17-C , 18-C ) :   1.5948 B( 17-C , 33-H ) :   0.9706 B( 18-C , 19-C ) :   1.2503
B( 18-C , 21-H ) :   1.0057 B( 19-C , 20-C ) :   1.5635 B( 19-C , 22-C ) :   1.0523
B( 22-C , 23-H ) :   0.9141 B( 22-C , 24-H ) :   0.9318 B( 22-C , 25-C ) :   1.0618
B( 25-C , 26-H ) :   0.9602 B( 25-C , 27-H ) :   0.9555 B( 25-C , 28-C ) :   1.0867
B( 28-C , 29-H ) :   0.9759 B( 28-C , 30-H ) :   0.9775 B( 28-C , 31-H ) :   0.9727

Dispersion correction           -0.015515014
FINAL SINGLE POINT ENERGY     -1339.859077425303

DIPOLE MOMENT
-------------
                                X             Y             Z
Electronic contribution:     19.42904     -11.11806      17.85901
Nuclear contribution   :    -19.67481      11.28658     -18.29962
                        -----------------------------------------
Total Dipole Moment    :     -0.24578       0.16852      -0.44061
                        -----------------------------------------
Magnitude (a.u.)       :      0.53192
Magnitude (Debye)      :      1.35203

Rotational constants in cm-1:     0.019483     0.009698     0.007510
Rotational constants in MHz :   584.086231   290.745870   225.134738

                             ****ORCA TERMINATED NORMALLY****
TOTAL RUN TIME: 0 days 0 hours 0 minutes 23 seconds 18 msec
