                         Program Version 4.2.1 -  RELEASE  -
|  1> ! wB97X-D3 SP def2-SVP
|  2> %pal
|  3> nprocs 24
|  4> end
|  5>
|  6> * xyz 0 1
|  7> S 	 -106.601 	 33.7672 	 -16.1149
|  8> C 	 -105.516 	 35.1488 	 -15.828
|  9> C 	 -105.467 	 36.0042 	 -16.9094
| 10> C 	 -106.209 	 35.4744 	 -18.0176
| 11> C 	 -106.863 	 34.2679 	 -17.786
| 12> H 	 -106.276 	 35.8976 	 -19.0219
| 13> C 	 -104.621 	 37.2655 	 -16.8656
| 14> H 	 -104.87 	 37.7357 	 -15.9486
| 15> H 	 -104.949 	 37.8522 	 -17.7265
| 16> C 	 -103.164 	 37.0639 	 -16.8189
| 17> H 	 -102.723 	 36.4585 	 -16.0378
| 18> H 	 -102.92 	 36.6832 	 -17.8337
| 19> C 	 -102.37 	 38.4312 	 -16.7659
| 20> H 	 -101.352 	 38.4184 	 -16.93
| 21> H 	 -102.747 	 39.1422 	 -17.4671
| 22> H 	 -102.643 	 38.778 	 -15.7856
| 23> S 	 -108.646 	 34.6131 	 -19.8497
| 24> C 	 -109.39 	 33.1911 	 -20.6743
| 25> C 	 -109.031 	 32.0436 	 -20.0394
| 26> C 	 -108.108 	 32.2106 	 -18.9153
| 27> C 	 -107.67 	 33.5551 	 -18.7895
| 28> H 	 -109.454 	 31.1104 	 -20.42
| 29> C 	 -107.56 	 31.0438 	 -18.101
| 30> H 	 -106.736 	 31.332 	 -17.4332
| 31> H 	 -107.092 	 30.3718 	 -18.8101
| 32> C 	 -108.709 	 30.4578 	 -17.134
| 33> H 	 -109.525 	 29.8312 	 -17.5857
| 34> H 	 -109.281 	 31.2592 	 -16.6368
| 35> C 	 -108.024 	 29.639 	 -15.9872
| 36> H 	 -107.614 	 28.6467 	 -16.3505
| 37> H 	 -108.714 	 29.3302 	 -15.2104
| 38> H 	 -107.242 	 30.1823 	 -15.4074
| 39> H 	 -105.057 	 35.5175 	 -14.8525
| 40> H 	 -110.091 	 33.1541 	 -21.4576
| 41> *
| 42>
| 43>                          ****END OF INPUT****

CARTESIAN COORDINATES (ANGSTROEM)
---------------------------------
  S    -106.601000   33.767200  -16.114900
  C    -105.516000   35.148800  -15.828000
  C    -105.467000   36.004200  -16.909400
  C    -106.209000   35.474400  -18.017600
  C    -106.863000   34.267900  -17.786000
  H    -106.276000   35.897600  -19.021900
  C    -104.621000   37.265500  -16.865600
  H    -104.870000   37.735700  -15.948600
  H    -104.949000   37.852200  -17.726500
  C    -103.164000   37.063900  -16.818900
  H    -102.723000   36.458500  -16.037800
  H    -102.920000   36.683200  -17.833700
  C    -102.370000   38.431200  -16.765900
  H    -101.352000   38.418400  -16.930000
  H    -102.747000   39.142200  -17.467100
  H    -102.643000   38.778000  -15.785600
  S    -108.646000   34.613100  -19.849700
  C    -109.390000   33.191100  -20.674300
  C    -109.031000   32.043600  -20.039400
  C    -108.108000   32.210600  -18.915300
  C    -107.670000   33.555100  -18.789500
  H    -109.454000   31.110400  -20.420000
  C    -107.560000   31.043800  -18.101000
  H    -106.736000   31.332000  -17.433200
  H    -107.092000   30.371800  -18.810100
  C    -108.709000   30.457800  -17.134000
  H    -109.525000   29.831200  -17.585700
  H    -109.281000   31.259200  -16.636800
  C    -108.024000   29.639000  -15.987200
  H    -107.614000   28.646700  -16.350500
  H    -108.714000   29.330200  -15.210400
  H    -107.242000   30.182300  -15.407400
  H    -105.057000   35.517500  -14.852500
  H    -110.091000   33.154100  -21.457600

 Total Charge           Charge          ....    0
 Multiplicity           Mult            ....    1
 Number of Electrons    NEL             ....  134
 Basis Dimension        Dim             ....  322

ORBITAL ENERGIES
----------------

  NO   OCC          E(Eh)            E(eV)
   0   2.0000     -88.972767     -2421.0721
   1   2.0000     -88.965066     -2420.8625
   2   2.0000     -10.336295      -281.2649
   3   2.0000     -10.335985      -281.2565
   4   2.0000     -10.319703      -280.8134
   5   2.0000     -10.317955      -280.7658
   6   2.0000     -10.312702      -280.6229
   7   2.0000     -10.302221      -280.3377
   8   2.0000     -10.299820      -280.2724
   9   2.0000     -10.299218      -280.2560
  10   2.0000     -10.298046      -280.2241
  11   2.0000     -10.297101      -280.1984
  12   2.0000     -10.290043      -280.0063
  13   2.0000     -10.286937      -279.9218
  14   2.0000     -10.282428      -279.7991
  15   2.0000     -10.270097      -279.4635
  16   2.0000      -8.085877      -220.0279
  17   2.0000      -8.078246      -219.8203
  18   2.0000      -6.044546      -164.4805
  19   2.0000      -6.040624      -164.3737
  20   2.0000      -6.037074      -164.2771
  21   2.0000      -6.036548      -164.2628
  22   2.0000      -6.033062      -164.1680
  23   2.0000      -6.028645      -164.0478
  24   2.0000      -0.999310       -27.1926
  25   2.0000      -0.975839       -26.5539
  26   2.0000      -0.920531       -25.0489
  27   2.0000      -0.894701       -24.3460
  28   2.0000      -0.870355       -23.6836
  29   2.0000      -0.849037       -23.1035
  30   2.0000      -0.837750       -22.7963
  31   2.0000      -0.815018       -22.1778
  32   2.0000      -0.784613       -21.3504
  33   2.0000      -0.765355       -20.8264
  34   2.0000      -0.705381       -19.1944
  35   2.0000      -0.702858       -19.1257
  36   2.0000      -0.697717       -18.9858
  37   2.0000      -0.661385       -17.9972
  38   2.0000      -0.628375       -17.0989
  39   2.0000      -0.616016       -16.7626
  40   2.0000      -0.591620       -16.0988
  41   2.0000      -0.581293       -15.8178
  42   2.0000      -0.567692       -15.4477
  43   2.0000      -0.553711       -15.0672
  44   2.0000      -0.527083       -14.3427
  45   2.0000      -0.520415       -14.1612
  46   2.0000      -0.517025       -14.0690
  47   2.0000      -0.512836       -13.9550
  48   2.0000      -0.503685       -13.7060
  49   2.0000      -0.496961       -13.5230
  50   2.0000      -0.491526       -13.3751
  51   2.0000      -0.473458       -12.8834
  52   2.0000      -0.466636       -12.6978
  53   2.0000      -0.464131       -12.6296
  54   2.0000      -0.457287       -12.4434
  55   2.0000      -0.452203       -12.3051
  56   2.0000      -0.447860       -12.1869
  57   2.0000      -0.437680       -11.9099
  58   2.0000      -0.435859       -11.8603
  59   2.0000      -0.424393       -11.5483
  60   2.0000      -0.423245       -11.5171
  61   2.0000      -0.408255       -11.1092
  62   2.0000      -0.404037       -10.9944
  63   2.0000      -0.358045        -9.7429
  64   2.0000      -0.333401        -9.0723
  65   2.0000      -0.327007        -8.8983
  66   2.0000      -0.286082        -7.7847
  67   0.0000       0.019100         0.5197
  68   0.0000       0.077569         2.1108
  69   0.0000       0.105003         2.8573
  70   0.0000       0.110654         3.0110
  71   0.0000       0.122627         3.3369

MULLIKEN ATOMIC CHARGES
-----------------------
   0 S :    0.111642
   1 C :   -0.147884
   2 C :   -0.078789
   3 C :   -0.016632
   4 C :   -0.112287
   5 H :    0.020220
   6 C :    0.100899
   7 H :    0.011155
   8 H :    0.026790
   9 C :   -0.087590
  10 H :    0.040161
  11 H :    0.026799
  12 C :   -0.013163
  13 H :    0.027224
  14 H :    0.014892
  15 H :    0.014160
  16 S :    0.071207
  17 C :   -0.058961
  18 C :   -0.029050
  19 C :   -0.067422
  20 C :   -0.120339
  21 H :    0.023996
  22 C :    0.057322
  23 H :    0.023497
  24 H :    0.043638
  25 C :   -0.088665
  26 H :    0.044166
  27 H :    0.042934
  28 C :   -0.091134
  29 H :    0.037167
  30 H :    0.027240
  31 H :    0.042456
  32 H :    0.066761
  33 H :    0.037588
Sum of atomic charges:    0.0000000

LOEWDIN ATOMIC CHARGES
----------------------
   0 S :    0.398889
   1 C :   -0.203302
   2 C :   -0.059701
   3 C :   -0.073198
   4 C :   -0.187684
   5 H :    0.028153
   6 C :   -0.029045
   7 H :    0.025141
   8 H :    0.035942
   9 C :   -0.036375
  10 H :    0.024913
  11 H :    0.026265
  12 C :   -0.054233
  13 H :    0.016042
  14 H :    0.020535
  15 H :    0.020140
  16 S :    0.367662
  17 C :   -0.161741
  18 C :   -0.067670
  19 C :   -0.055498
  20 C :   -0.178833
  21 H :    0.034655
  22 C :   -0.032239
  23 H :    0.023674
  24 H :    0.034600
  25 C :   -0.041223
  26 H :    0.029547
  27 H :    0.029076
  28 C :   -0.080954
  29 H :    0.028609
  30 H :    0.022109
  31 H :    0.027347
  32 H :    0.044112
  33 H :    0.024284

  Mayer bond orders larger than 0.100000
B(  0-S ,  1-C ) :   1.1284 B(  0-S ,  4-C ) :   1.1293 B(  1-C ,  2-C ) :   1.6198
B(  1-C , 32-H ) :   0.9547 B(  2-C ,  3-C ) :   1.2465 B(  2-C ,  6-C ) :   1.0172
B(  3-C ,  4-C ) :   1.5511 B(  3-C ,  5-H ) :   0.9886 B(  4-C , 20-C ) :   1.0779
B(  6-C ,  7-H ) :   0.9287 B(  6-C ,  8-H ) :   0.9375 B(  6-C ,  9-C ) :   1.0819
B(  9-C , 10-H ) :   0.9600 B(  9-C , 11-H ) :   0.9538 B(  9-C , 12-C ) :   1.0690
B( 12-C , 13-H ) :   0.9779 B( 12-C , 14-H ) :   0.9744 B( 12-C , 15-H ) :   0.9778
B( 16-S , 17-C ) :   1.1137 B( 16-S , 20-C ) :   1.1160 B( 17-C , 18-C ) :   1.6717
B( 17-C , 33-H ) :   0.9705 B( 18-C , 19-C ) :   1.1960 B( 18-C , 21-H ) :   0.9851
B( 19-C , 20-C ) :   1.5937 B( 19-C , 22-C ) :   1.0503 B( 22-C , 23-H ) :   0.9448
B( 22-C , 24-H ) :   0.9401 B( 22-C , 25-C ) :   1.0191 B( 25-C , 26-H ) :   0.9590
B( 25-C , 27-H ) :   0.9620 B( 25-C , 28-C ) :   1.0797 B( 28-C , 29-H ) :   0.9752
B( 28-C , 30-H ) :   0.9754 B( 28-C , 31-H ) :   0.9753

Dispersion correction           -0.013681637
FINAL SINGLE POINT ENERGY     -1339.862283198913

DIPOLE MOMENT
-------------
                                X             Y             Z
Electronic contribution:    -12.86548       0.87388      -8.56096
Nuclear contribution   :     12.99478      -0.92654       8.59343
                        -----------------------------------------
Total Dipole Moment    :      0.12930      -0.05266       0.03247
                        -----------------------------------------
Magnitude (a.u.)       :      0.14334
Magnitude (Debye)      :      0.36434

Rotational constants in cm-1:     0.021867     0.007331     0.005773
Rotational constants in MHz :   655.553312   219.790529   173.070714

                             ****ORCA TERMINATED NORMALLY****
TOTAL RUN TIME: 0 days 0 hours 0 minutes 20 seconds 664 msec
