                         Program Version 4.2.1 -  RELEASE  -
|  1> ! wB97X-D3 SP def2-SVP
|  2> %pal
|  3> nprocs 24
|  4> end
|  5>
|  6> * xyz 0 1
|  7> S 	 -19.1232 	 -34.9292 	 -93.6843
|  8> C 	 -17.7001 	 -35.9428 	 -93.7869
|  9> C 	 -16.6808 	 -35.3478 	 -94.454
| 10> C 	 -17.031 	 -34.0635 	 -94.9235
| 11> C 	 -18.2978 	 -33.5985 	 -94.4892
| 12> H 	 -16.4181 	 -33.4712 	 -95.5725
| 13> C 	 -15.2724 	 -35.9939 	 -94.5257
| 14> H 	 -15.2557 	 -36.9012 	 -93.9061
| 15> H 	 -14.5352 	 -35.4167 	 -93.9454
| 16> C 	 -14.841 	 -36.3514 	 -95.977
| 17> H 	 -15.6008 	 -36.9007 	 -96.5029
| 18> H 	 -14.8951 	 -35.3914 	 -96.5077
| 19> C 	 -13.4303 	 -36.9553 	 -96.0324
| 20> H 	 -13.4471 	 -38.0417 	 -95.7924
| 21> H 	 -12.986 	 -37.0625 	 -97.0511
| 22> H 	 -12.7999 	 -36.4112 	 -95.3254
| 23> S 	 -20.5216 	 -32.5271 	 -95.7985
| 24> C 	 -20.5893 	 -30.7567 	 -96.0818
| 25> C 	 -19.6659 	 -30.0771 	 -95.3012
| 26> C 	 -18.7145 	 -31.021 	 -94.671
| 27> C 	 -18.9923 	 -32.3445 	 -94.975
| 28> H 	 -19.788 	 -29.0151 	 -95.2642
| 29> C 	 -17.4058 	 -30.5218 	 -93.8693
| 30> H 	 -17.0973 	 -31.3638 	 -93.2163
| 31> H 	 -17.7021 	 -29.7227 	 -93.2487
| 32> C 	 -16.2005 	 -30.1801 	 -94.7824
| 33> H 	 -16.1384 	 -29.1077 	 -95.018
| 34> H 	 -16.3493 	 -30.7018 	 -95.7548
| 35> C 	 -14.8501 	 -30.5854 	 -94.144
| 36> H 	 -14.872 	 -31.5575 	 -93.7083
| 37> H 	 -14.4351 	 -29.8661 	 -93.433
| 38> H 	 -13.9801 	 -30.5178 	 -94.8891
| 39> H 	 -17.7033 	 -36.9264 	 -93.4802
| 40> H 	 -21.4758 	 -30.3147 	 -96.5738
| 41> *
| 42>
| 43>                          ****END OF INPUT****

CARTESIAN COORDINATES (ANGSTROEM)
---------------------------------
  S    -19.123200  -34.929200  -93.684300
  C    -17.700100  -35.942800  -93.786900
  C    -16.680800  -35.347800  -94.454000
  C    -17.031000  -34.063500  -94.923500
  C    -18.297800  -33.598500  -94.489200
  H    -16.418100  -33.471200  -95.572500
  C    -15.272400  -35.993900  -94.525700
  H    -15.255700  -36.901200  -93.906100
  H    -14.535200  -35.416700  -93.945400
  C    -14.841000  -36.351400  -95.977000
  H    -15.600800  -36.900700  -96.502900
  H    -14.895100  -35.391400  -96.507700
  C    -13.430300  -36.955300  -96.032400
  H    -13.447100  -38.041700  -95.792400
  H    -12.986000  -37.062500  -97.051100
  H    -12.799900  -36.411200  -95.325400
  S    -20.521600  -32.527100  -95.798500
  C    -20.589300  -30.756700  -96.081800
  C    -19.665900  -30.077100  -95.301200
  C    -18.714500  -31.021000  -94.671000
  C    -18.992300  -32.344500  -94.975000
  H    -19.788000  -29.015100  -95.264200
  C    -17.405800  -30.521800  -93.869300
  H    -17.097300  -31.363800  -93.216300
  H    -17.702100  -29.722700  -93.248700
  C    -16.200500  -30.180100  -94.782400
  H    -16.138400  -29.107700  -95.018000
  H    -16.349300  -30.701800  -95.754800
  C    -14.850100  -30.585400  -94.144000
  H    -14.872000  -31.557500  -93.708300
  H    -14.435100  -29.866100  -93.433000
  H    -13.980100  -30.517800  -94.889100
  H    -17.703300  -36.926400  -93.480200
  H    -21.475800  -30.314700  -96.573800

 Total Charge           Charge          ....    0
 Multiplicity           Mult            ....    1
 Number of Electrons    NEL             ....  134
 Basis Dimension        Dim             ....  322

ORBITAL ENERGIES
----------------

  NO   OCC          E(Eh)            E(eV)
   0   2.0000     -88.968211     -2420.9481
   1   2.0000     -88.963584     -2420.8222
   2   2.0000     -10.337453      -281.2964
   3   2.0000     -10.332251      -281.1549
   4   2.0000     -10.323697      -280.9221
   5   2.0000     -10.315070      -280.6873
   6   2.0000     -10.308135      -280.4986
   7   2.0000     -10.302758      -280.3523
   8   2.0000     -10.299907      -280.2747
   9   2.0000     -10.299044      -280.2512
  10   2.0000     -10.296881      -280.1924
  11   2.0000     -10.295668      -280.1594
  12   2.0000     -10.290940      -280.0307
  13   2.0000     -10.288651      -279.9684
  14   2.0000     -10.286103      -279.8991
  15   2.0000     -10.281196      -279.7656
  16   2.0000      -8.082657      -219.9403
  17   2.0000      -8.078049      -219.8149
  18   2.0000      -6.041107      -164.3869
  19   2.0000      -6.037178      -164.2800
  20   2.0000      -6.036597      -164.2641
  21   2.0000      -6.033527      -164.1806
  22   2.0000      -6.032844      -164.1620
  23   2.0000      -6.028521      -164.0444
  24   2.0000      -1.001175       -27.2434
  25   2.0000      -0.979710       -26.6593
  26   2.0000      -0.906146       -24.6575
  27   2.0000      -0.896886       -24.4055
  28   2.0000      -0.865349       -23.5473
  29   2.0000      -0.846129       -23.0243
  30   2.0000      -0.839118       -22.8336
  31   2.0000      -0.815730       -22.1971
  32   2.0000      -0.779005       -21.1978
  33   2.0000      -0.770048       -20.9541
  34   2.0000      -0.707909       -19.2632
  35   2.0000      -0.697992       -18.9933
  36   2.0000      -0.691351       -18.8126
  37   2.0000      -0.658929       -17.9304
  38   2.0000      -0.645557       -17.5665
  39   2.0000      -0.619954       -16.8698
  40   2.0000      -0.585841       -15.9415
  41   2.0000      -0.573121       -15.5954
  42   2.0000      -0.565550       -15.3894
  43   2.0000      -0.551947       -15.0192
  44   2.0000      -0.527380       -14.3507
  45   2.0000      -0.516619       -14.0579
  46   2.0000      -0.509230       -13.8569
  47   2.0000      -0.507389       -13.8068
  48   2.0000      -0.505876       -13.7656
  49   2.0000      -0.494324       -13.4512
  50   2.0000      -0.489637       -13.3237
  51   2.0000      -0.481170       -13.0933
  52   2.0000      -0.469094       -12.7647
  53   2.0000      -0.463937       -12.6244
  54   2.0000      -0.459133       -12.4936
  55   2.0000      -0.449437       -12.2298
  56   2.0000      -0.446953       -12.1622
  57   2.0000      -0.441242       -12.0068
  58   2.0000      -0.432511       -11.7692
  59   2.0000      -0.424466       -11.5503
  60   2.0000      -0.417839       -11.3700
  61   2.0000      -0.412774       -11.2321
  62   2.0000      -0.404822       -11.0158
  63   2.0000      -0.343543        -9.3483
  64   2.0000      -0.333382        -9.0718
  65   2.0000      -0.327157        -8.9024
  66   2.0000      -0.300196        -8.1688
  67   0.0000       0.032130         0.8743
  68   0.0000       0.061690         1.6787
  69   0.0000       0.106801         2.9062
  70   0.0000       0.122128         3.3233
  71   0.0000       0.127425         3.4674

MULLIKEN ATOMIC CHARGES
-----------------------
   0 S :    0.106698
   1 C :   -0.103452
   2 C :   -0.057097
   3 C :    0.028033
   4 C :   -0.151437
   5 H :    0.009307
   6 C :    0.045955
   7 H :    0.008473
   8 H :    0.038225
   9 C :   -0.069469
  10 H :    0.027681
  11 H :    0.025049
  12 C :   -0.051471
  13 H :    0.032871
  14 H :    0.040555
  15 H :    0.038195
  16 S :    0.091720
  17 C :   -0.119483
  18 C :   -0.014729
  19 C :   -0.068699
  20 C :   -0.145805
  21 H :    0.022906
  22 C :    0.085887
  23 H :    0.037277
  24 H :    0.022650
  25 C :   -0.067306
  26 H :    0.032747
  27 H :    0.045998
  28 C :   -0.085487
  29 H :    0.035995
  30 H :    0.032338
  31 H :    0.031698
  32 H :    0.021715
  33 H :    0.072462
Sum of atomic charges:   -0.0000000

LOEWDIN ATOMIC CHARGES
----------------------
   0 S :    0.403090
   1 C :   -0.176813
   2 C :   -0.066651
   3 C :   -0.056833
   4 C :   -0.192373
   5 H :    0.026209
   6 C :   -0.028935
   7 H :    0.026125
   8 H :    0.032455
   9 C :   -0.044275
  10 H :    0.023991
  11 H :    0.023509
  12 C :   -0.073472
  13 H :    0.029449
  14 H :    0.032555
  15 H :    0.026805
  16 S :    0.380462
  17 C :   -0.173310
  18 C :   -0.067362
  19 C :   -0.049674
  20 C :   -0.201516
  21 H :    0.032516
  22 C :   -0.021750
  23 H :    0.033854
  24 H :    0.022751
  25 C :   -0.044971
  26 H :    0.026741
  27 H :    0.028720
  28 C :   -0.074934
  29 H :    0.017779
  30 H :    0.025677
  31 H :    0.033621
  32 H :    0.013311
  33 H :    0.033250

  Mayer bond orders larger than 0.100000
B(  0-S ,  1-C ) :   1.1484 B(  0-S ,  4-C ) :   1.1576 B(  1-C ,  2-C ) :   1.6082
B(  1-C , 32-H ) :   0.9736 B(  2-C ,  3-C ) :   1.2618 B(  2-C ,  6-C ) :   1.0117
B(  3-C ,  4-C ) :   1.5589 B(  3-C ,  5-H ) :   0.9944 B(  4-C , 20-C ) :   1.0145
B(  6-C ,  7-H ) :   0.9450 B(  6-C ,  8-H ) :   0.9451 B(  6-C ,  9-C ) :   1.0418
B(  9-C , 10-H ) :   0.9578 B(  9-C , 11-H ) :   0.9594 B(  9-C , 12-C ) :   1.0747
B( 12-C , 13-H ) :   0.9739 B( 12-C , 14-H ) :   0.9729 B( 12-C , 15-H ) :   0.9742
B( 16-S , 17-C ) :   1.1366 B( 16-S , 20-C ) :   1.1324 B( 17-C , 18-C ) :   1.6489
B( 17-C , 33-H ) :   0.9621 B( 18-C , 19-C ) :   1.1900 B( 18-C , 21-H ) :   0.9962
B( 19-C , 20-C ) :   1.6403 B( 19-C , 22-C ) :   1.0381 B( 22-C , 23-H ) :   0.9439
B( 22-C , 24-H ) :   0.9398 B( 22-C , 25-C ) :   1.0410 B( 25-C , 26-H ) :   0.9535
B( 25-C , 27-H ) :   0.9633 B( 25-C , 28-C ) :   1.0795 B( 28-C , 29-H ) :   0.9773
B( 28-C , 30-H ) :   0.9758 B( 28-C , 31-H ) :   0.9729

Dispersion correction           -0.014189708
FINAL SINGLE POINT ENERGY     -1339.868563950247

DIPOLE MOMENT
-------------
                                X             Y             Z
Electronic contribution:    -31.00447      -0.33754       1.99481
Nuclear contribution   :     31.53699       0.50173      -2.02776
                        -----------------------------------------
Total Dipole Moment    :      0.53252       0.16419      -0.03295
                        -----------------------------------------
Magnitude (a.u.)       :      0.55824
Magnitude (Debye)      :      1.41892

Rotational constants in cm-1:     0.017764     0.008502     0.006603
Rotational constants in MHz :   532.556142   254.886984   197.957336

                             ****ORCA TERMINATED NORMALLY****
TOTAL RUN TIME: 0 days 0 hours 0 minutes 21 seconds 189 msec
