                         Program Version 4.2.1 -  RELEASE  -
|  1> ! wB97X-D3 SP def2-SVP
|  2> %pal
|  3> nprocs 24
|  4> end
|  5>
|  6> * xyz 0 1
|  7> S 	 33.276 	 -27.8812 	 -112.006
|  8> C 	 32.3334 	 -28.5732 	 -110.694
|  9> C 	 33.0572 	 -29.5862 	 -110.13
| 10> C 	 34.2207 	 -30.0425 	 -110.776
| 11> C 	 34.5565 	 -29.1638 	 -111.8
| 12> H 	 34.8344 	 -30.8801 	 -110.432
| 13> C 	 32.6632 	 -30.1643 	 -108.809
| 14> H 	 32.6465 	 -31.2162 	 -109.055
| 15> H 	 31.7586 	 -29.6892 	 -108.61
| 16> C 	 33.6902 	 -29.9319 	 -107.741
| 17> H 	 34.7355 	 -30.1892 	 -107.973
| 18> H 	 33.7165 	 -28.916 	 -107.503
| 19> C 	 33.2727 	 -30.6853 	 -106.467
| 20> H 	 32.3464 	 -30.3104 	 -106.134
| 21> H 	 33.3233 	 -31.8075 	 -106.582
| 22> H 	 33.9702 	 -30.58 	 -105.553
| 23> S 	 35.4985 	 -28.7265 	 -114.363
| 24> C 	 37.1024 	 -29.2863 	 -114.792
| 25> C 	 37.7873 	 -29.714 	 -113.683
| 26> C 	 36.9829 	 -29.7663 	 -112.471
| 27> C 	 35.68 	 -29.2962 	 -112.678
| 28> H 	 38.7922 	 -30.0251 	 -113.659
| 29> C 	 37.6453 	 -30.2166 	 -111.137
| 30> H 	 38.6793 	 -30.5668 	 -111.401
| 31> H 	 37.2472 	 -31.1627 	 -110.708
| 32> C 	 37.7858 	 -29.1294 	 -109.993
| 33> H 	 36.8316 	 -28.8257 	 -109.524
| 34> H 	 38.1847 	 -28.1632 	 -110.384
| 35> C 	 38.6105 	 -29.6417 	 -108.735
| 36> H 	 39.5319 	 -30.0609 	 -109.076
| 37> H 	 38.0544 	 -30.4634 	 -108.266
| 38> H 	 38.8454 	 -28.926 	 -107.926
| 39> H 	 31.4078 	 -28.1322 	 -110.324
| 40> H 	 37.4607 	 -29.4572 	 -115.826
| 41> *
| 42>
| 43>                          ****END OF INPUT****

CARTESIAN COORDINATES (ANGSTROEM)
---------------------------------
  S     33.276000  -27.881200  -112.006000
  C     32.333400  -28.573200  -110.694000
  C     33.057200  -29.586200  -110.130000
  C     34.220700  -30.042500  -110.776000
  C     34.556500  -29.163800  -111.800000
  H     34.834400  -30.880100  -110.432000
  C     32.663200  -30.164300  -108.809000
  H     32.646500  -31.216200  -109.055000
  H     31.758600  -29.689200  -108.610000
  C     33.690200  -29.931900  -107.741000
  H     34.735500  -30.189200  -107.973000
  H     33.716500  -28.916000  -107.503000
  C     33.272700  -30.685300  -106.467000
  H     32.346400  -30.310400  -106.134000
  H     33.323300  -31.807500  -106.582000
  H     33.970200  -30.580000  -105.553000
  S     35.498500  -28.726500  -114.363000
  C     37.102400  -29.286300  -114.792000
  C     37.787300  -29.714000  -113.683000
  C     36.982900  -29.766300  -112.471000
  C     35.680000  -29.296200  -112.678000
  H     38.792200  -30.025100  -113.659000
  C     37.645300  -30.216600  -111.137000
  H     38.679300  -30.566800  -111.401000
  H     37.247200  -31.162700  -110.708000
  C     37.785800  -29.129400  -109.993000
  H     36.831600  -28.825700  -109.524000
  H     38.184700  -28.163200  -110.384000
  C     38.610500  -29.641700  -108.735000
  H     39.531900  -30.060900  -109.076000
  H     38.054400  -30.463400  -108.266000
  H     38.845400  -28.926000  -107.926000
  H     31.407800  -28.132200  -110.324000
  H     37.460700  -29.457200  -115.826000

 Total Charge           Charge          ....    0
 Multiplicity           Mult            ....    1
 Number of Electrons    NEL             ....  134
 Basis Dimension        Dim             ....  322

ORBITAL ENERGIES
----------------

  NO   OCC          E(Eh)            E(eV)
   0   2.0000     -88.966663     -2420.9060
   1   2.0000     -88.965466     -2420.8734
   2   2.0000     -10.337748      -281.3044
   3   2.0000     -10.332799      -281.1697
   4   2.0000     -10.322353      -280.8855
   5   2.0000     -10.313122      -280.6343
   6   2.0000     -10.311998      -280.6037
   7   2.0000     -10.310645      -280.5669
   8   2.0000     -10.297724      -280.2153
   9   2.0000     -10.295274      -280.1486
  10   2.0000     -10.295127      -280.1446
  11   2.0000     -10.292464      -280.0722
  12   2.0000     -10.283731      -279.8345
  13   2.0000     -10.282721      -279.8071
  14   2.0000     -10.282557      -279.8026
  15   2.0000     -10.280325      -279.7419
  16   2.0000      -8.080906      -219.8926
  17   2.0000      -8.078988      -219.8404
  18   2.0000      -6.039569      -164.3450
  19   2.0000      -6.037774      -164.2962
  20   2.0000      -6.035469      -164.2335
  21   2.0000      -6.033721      -164.1859
  22   2.0000      -6.031533      -164.1263
  23   2.0000      -6.029472      -164.0703
  24   2.0000      -1.003041       -27.2941
  25   2.0000      -0.981690       -26.7131
  26   2.0000      -0.919599       -25.0236
  27   2.0000      -0.895340       -24.3634
  28   2.0000      -0.873072       -23.7575
  29   2.0000      -0.850789       -23.1511
  30   2.0000      -0.843415       -22.9505
  31   2.0000      -0.816534       -22.2190
  32   2.0000      -0.779491       -21.2110
  33   2.0000      -0.765436       -20.8286
  34   2.0000      -0.714469       -19.4417
  35   2.0000      -0.702520       -19.1165
  36   2.0000      -0.694066       -18.8865
  37   2.0000      -0.666171       -18.1274
  38   2.0000      -0.637897       -17.3581
  39   2.0000      -0.625382       -17.0175
  40   2.0000      -0.595514       -16.2048
  41   2.0000      -0.577015       -15.7014
  42   2.0000      -0.560316       -15.2470
  43   2.0000      -0.552619       -15.0375
  44   2.0000      -0.526780       -14.3344
  45   2.0000      -0.522626       -14.2214
  46   2.0000      -0.517967       -14.0946
  47   2.0000      -0.510545       -13.8926
  48   2.0000      -0.508368       -13.8334
  49   2.0000      -0.505461       -13.7543
  50   2.0000      -0.488614       -13.2959
  51   2.0000      -0.484889       -13.1945
  52   2.0000      -0.472036       -12.8448
  53   2.0000      -0.464010       -12.6263
  54   2.0000      -0.455265       -12.3884
  55   2.0000      -0.451128       -12.2758
  56   2.0000      -0.441500       -12.0138
  57   2.0000      -0.437554       -11.9065
  58   2.0000      -0.433826       -11.8050
  59   2.0000      -0.426425       -11.6036
  60   2.0000      -0.424257       -11.5446
  61   2.0000      -0.413105       -11.2411
  62   2.0000      -0.406475       -11.0607
  63   2.0000      -0.360703        -9.8152
  64   2.0000      -0.333344        -9.0707
  65   2.0000      -0.326628        -8.8880
  66   2.0000      -0.282357        -7.6833
  67   0.0000       0.015886         0.4323
  68   0.0000       0.073602         2.0028
  69   0.0000       0.099541         2.7087
  70   0.0000       0.117936         3.2092
  71   0.0000       0.126480         3.4417

MULLIKEN ATOMIC CHARGES
-----------------------
   0 S :    0.087719
   1 C :   -0.129728
   2 C :   -0.111783
   3 C :    0.010753
   4 C :   -0.116387
   5 H :    0.023348
   6 C :    0.138061
   7 H :    0.024285
   8 H :   -0.006321
   9 C :   -0.052456
  10 H :    0.030075
  11 H :    0.013254
  12 C :   -0.073841
  13 H :    0.024443
  14 H :    0.037162
  15 H :    0.033245
  16 S :    0.100212
  17 C :   -0.091808
  18 C :   -0.007647
  19 C :   -0.040630
  20 C :   -0.141476
  21 H :    0.003231
  22 C :    0.029530
  23 H :    0.016785
  24 H :    0.036774
  25 C :   -0.081298
  26 H :    0.042958
  27 H :    0.041012
  28 C :   -0.066304
  29 H :    0.019678
  30 H :    0.026918
  31 H :    0.048035
  32 H :    0.054785
  33 H :    0.077412
Sum of atomic charges:   -0.0000000

LOEWDIN ATOMIC CHARGES
----------------------
   0 S :    0.363754
   1 C :   -0.205166
   2 C :   -0.062588
   3 C :   -0.061345
   4 C :   -0.155967
   5 H :    0.037676
   6 C :   -0.019848
   7 H :    0.032872
   8 H :    0.021676
   9 C :   -0.036775
  10 H :    0.024785
  11 H :    0.018918
  12 C :   -0.070492
  13 H :    0.015691
  14 H :    0.028532
  15 H :    0.030992
  16 S :    0.390067
  17 C :   -0.187183
  18 C :   -0.064623
  19 C :   -0.054642
  20 C :   -0.181834
  21 H :    0.023369
  22 C :   -0.037080
  23 H :    0.032544
  24 H :    0.030385
  25 C :   -0.042919
  26 H :    0.025364
  27 H :    0.028443
  28 C :   -0.070068
  29 H :    0.015710
  30 H :    0.023561
  31 H :    0.032248
  32 H :    0.032339
  33 H :    0.041602

  Mayer bond orders larger than 0.100000
B(  0-S ,  1-C ) :   1.1008 B(  0-S ,  4-C ) :   1.1342 B(  1-C ,  2-C ) :   1.6304
B(  1-C , 32-H ) :   0.9665 B(  2-C ,  3-C ) :   1.2278 B(  2-C ,  6-C ) :   1.0246
B(  3-C ,  4-C ) :   1.5581 B(  3-C ,  5-H ) :   0.9876 B(  4-C , 20-C ) :   1.1166
B(  6-C ,  7-H ) :   0.9299 B(  6-C ,  8-H ) :   0.9322 B(  6-C ,  9-C ) :   1.0776
B(  9-C , 10-H ) :   0.9533 B(  9-C , 11-H ) :   0.9495 B(  9-C , 12-C ) :   1.0827
B( 12-C , 13-H ) :   0.9747 B( 12-C , 14-H ) :   0.9761 B( 12-C , 15-H ) :   0.9743
B( 16-S , 17-C ) :   1.1455 B( 16-S , 20-C ) :   1.1240 B( 17-C , 18-C ) :   1.6036
B( 17-C , 33-H ) :   0.9617 B( 18-C , 19-C ) :   1.2579 B( 18-C , 21-H ) :   0.9898
B( 19-C , 20-C ) :   1.5757 B( 19-C , 22-C ) :   1.0351 B( 22-C , 23-H ) :   0.9364
B( 22-C , 24-H ) :   0.9386 B( 22-C , 25-C ) :   1.0418 B( 25-C , 26-H ) :   0.9584
B( 25-C , 27-H ) :   0.9599 B( 25-C , 28-C ) :   1.0638 B( 28-C , 29-H ) :   0.9787
B( 28-C , 30-H ) :   0.9766 B( 28-C , 31-H ) :   0.9769

Dispersion correction           -0.014595953
FINAL SINGLE POINT ENERGY     -1339.865651870938

DIPOLE MOMENT
-------------
                                X             Y             Z
Electronic contribution:     -8.72808      10.36667     -30.96396
Nuclear contribution   :      9.09098     -10.73679      31.53349
                        -----------------------------------------
Total Dipole Moment    :      0.36290      -0.37012       0.56953
                        -----------------------------------------
Magnitude (a.u.)       :      0.77009
Magnitude (Debye)      :      1.95742

Rotational constants in cm-1:     0.017713     0.009763     0.006765
Rotational constants in MHz :   531.012350   292.696713   202.799151

                             ****ORCA TERMINATED NORMALLY****
TOTAL RUN TIME: 0 days 0 hours 0 minutes 21 seconds 42 msec
