                         Program Version 4.2.1 -  RELEASE  -
|  1> ! wB97X-D3 SP def2-SVP
|  2> %pal
|  3> nprocs 24
|  4> end
|  5>
|  6> * xyz 0 1
|  7> S 	 -57.0847 	 15.9259 	 -89.5671
|  8> C 	 -55.3273 	 16.0601 	 -89.4983
|  9> C 	 -54.7697 	 15.2997 	 -90.5249
| 10> C 	 -55.683 	 14.4681 	 -91.2359
| 11> C 	 -56.9646 	 14.5488 	 -90.6634
| 12> H 	 -55.4794 	 13.905 	 -92.1209
| 13> C 	 -53.3755 	 15.4939 	 -91.0431
| 14> H 	 -53.0876 	 14.8579 	 -91.8408
| 15> H 	 -52.7716 	 15.1059 	 -90.2269
| 16> C 	 -53.0683 	 16.9394 	 -91.4784
| 17> H 	 -53.3496 	 17.5936 	 -90.6077
| 18> H 	 -52.0185 	 17.0519 	 -91.7992
| 19> C 	 -53.8028 	 17.4953 	 -92.6596
| 20> H 	 -54.9357 	 17.5284 	 -92.6218
| 21> H 	 -53.5746 	 18.5303 	 -92.8546
| 22> H 	 -53.5014 	 17.0292 	 -93.6107
| 23> S 	 -59.564 	 15.1024 	 -91.5609
| 24> C 	 -60.4026 	 13.8072 	 -92.355
| 25> C 	 -59.8443 	 12.5315 	 -92.1142
| 26> C 	 -58.5266 	 12.6287 	 -91.5565
| 27> C 	 -58.2005 	 14.0062 	 -91.1914
| 28> H 	 -60.3431 	 11.6983 	 -92.508
| 29> C 	 -57.6116 	 11.4122 	 -91.2606
| 30> H 	 -58.2128 	 10.5341 	 -90.9329
| 31> H 	 -57.0628 	 11.5473 	 -90.3955
| 32> C 	 -56.7199 	 11.1103 	 -92.4864
| 33> H 	 -56.4892 	 12.0379 	 -92.98
| 34> H 	 -57.2286 	 10.5613 	 -93.2559
| 35> C 	 -55.3236 	 10.507 	 -92.04
| 36> H 	 -54.7371 	 10.6261 	 -92.9466
| 37> H 	 -55.5061 	 9.50661 	 -91.6233
| 38> H 	 -54.8678 	 11.1181 	 -91.2123
| 39> H 	 -54.7608 	 16.8108 	 -89.019
| 40> H 	 -61.3199 	 13.9994 	 -92.9297
| 41> *
| 42>
| 43>                          ****END OF INPUT****

CARTESIAN COORDINATES (ANGSTROEM)
---------------------------------
  S    -57.084700   15.925900  -89.567100
  C    -55.327300   16.060100  -89.498300
  C    -54.769700   15.299700  -90.524900
  C    -55.683000   14.468100  -91.235900
  C    -56.964600   14.548800  -90.663400
  H    -55.479400   13.905000  -92.120900
  C    -53.375500   15.493900  -91.043100
  H    -53.087600   14.857900  -91.840800
  H    -52.771600   15.105900  -90.226900
  C    -53.068300   16.939400  -91.478400
  H    -53.349600   17.593600  -90.607700
  H    -52.018500   17.051900  -91.799200
  C    -53.802800   17.495300  -92.659600
  H    -54.935700   17.528400  -92.621800
  H    -53.574600   18.530300  -92.854600
  H    -53.501400   17.029200  -93.610700
  S    -59.564000   15.102400  -91.560900
  C    -60.402600   13.807200  -92.355000
  C    -59.844300   12.531500  -92.114200
  C    -58.526600   12.628700  -91.556500
  C    -58.200500   14.006200  -91.191400
  H    -60.343100   11.698300  -92.508000
  C    -57.611600   11.412200  -91.260600
  H    -58.212800   10.534100  -90.932900
  H    -57.062800   11.547300  -90.395500
  C    -56.719900   11.110300  -92.486400
  H    -56.489200   12.037900  -92.980000
  H    -57.228600   10.561300  -93.255900
  C    -55.323600   10.507000  -92.040000
  H    -54.737100   10.626100  -92.946600
  H    -55.506100    9.506610  -91.623300
  H    -54.867800   11.118100  -91.212300
  H    -54.760800   16.810800  -89.019000
  H    -61.319900   13.999400  -92.929700

 Total Charge           Charge          ....    0
 Multiplicity           Mult            ....    1
 Number of Electrons    NEL             ....  134
 Basis Dimension        Dim             ....  322

ORBITAL ENERGIES
----------------

  NO   OCC          E(Eh)            E(eV)
   0   2.0000     -88.970206     -2421.0024
   1   2.0000     -88.967416     -2420.9265
   2   2.0000     -10.332877      -281.1719
   3   2.0000     -10.332540      -281.1627
   4   2.0000     -10.321526      -280.8630
   5   2.0000     -10.314917      -280.6832
   6   2.0000     -10.310914      -280.5742
   7   2.0000     -10.300262      -280.2844
   8   2.0000     -10.296429      -280.1801
   9   2.0000     -10.295201      -280.1467
  10   2.0000     -10.291883      -280.0564
  11   2.0000     -10.289933      -280.0033
  12   2.0000     -10.286474      -279.9092
  13   2.0000     -10.285556      -279.8842
  14   2.0000     -10.285466      -279.8818
  15   2.0000     -10.276629      -279.6413
  16   2.0000      -8.084381      -219.9872
  17   2.0000      -8.081556      -219.9103
  18   2.0000      -6.042804      -164.4331
  19   2.0000      -6.040128      -164.3603
  20   2.0000      -6.038996      -164.3294
  21   2.0000      -6.036367      -164.2579
  22   2.0000      -6.035245      -164.2274
  23   2.0000      -6.032079      -164.1412
  24   2.0000      -1.000361       -27.2212
  25   2.0000      -0.976062       -26.5600
  26   2.0000      -0.913385       -24.8545
  27   2.0000      -0.903845       -24.5949
  28   2.0000      -0.864645       -23.5282
  29   2.0000      -0.849116       -23.1056
  30   2.0000      -0.844845       -22.9894
  31   2.0000      -0.811210       -22.0741
  32   2.0000      -0.784251       -21.3406
  33   2.0000      -0.766972       -20.8704
  34   2.0000      -0.706597       -19.2275
  35   2.0000      -0.701358       -19.0849
  36   2.0000      -0.693512       -18.8714
  37   2.0000      -0.659263       -17.9394
  38   2.0000      -0.637770       -17.3546
  39   2.0000      -0.613587       -16.6965
  40   2.0000      -0.595965       -16.2170
  41   2.0000      -0.578461       -15.7407
  42   2.0000      -0.557824       -15.1792
  43   2.0000      -0.549019       -14.9396
  44   2.0000      -0.540928       -14.7194
  45   2.0000      -0.532227       -14.4826
  46   2.0000      -0.514760       -14.0073
  47   2.0000      -0.511501       -13.9186
  48   2.0000      -0.498431       -13.5630
  49   2.0000      -0.492506       -13.4018
  50   2.0000      -0.488429       -13.2908
  51   2.0000      -0.477640       -12.9973
  52   2.0000      -0.473380       -12.8813
  53   2.0000      -0.463363       -12.6088
  54   2.0000      -0.459700       -12.5091
  55   2.0000      -0.452568       -12.3150
  56   2.0000      -0.448050       -12.1921
  57   2.0000      -0.443980       -12.0813
  58   2.0000      -0.431916       -11.7530
  59   2.0000      -0.421446       -11.4681
  60   2.0000      -0.418892       -11.3986
  61   2.0000      -0.410668       -11.1748
  62   2.0000      -0.402305       -10.9473
  63   2.0000      -0.347920        -9.4674
  64   2.0000      -0.333481        -9.0745
  65   2.0000      -0.327191        -8.9033
  66   2.0000      -0.277159        -7.5419
  67   0.0000       0.017595         0.4788
  68   0.0000       0.058091         1.5807
  69   0.0000       0.097834         2.6622
  70   0.0000       0.120961         3.2915
  71   0.0000       0.132624         3.6089

MULLIKEN ATOMIC CHARGES
-----------------------
   0 S :    0.090330
   1 C :   -0.091951
   2 C :   -0.116141
   3 C :    0.035914
   4 C :   -0.130535
   5 H :    0.008234
   6 C :    0.100521
   7 H :    0.002349
   8 H :    0.035390
   9 C :   -0.077245
  10 H :    0.030703
  11 H :    0.037508
  12 C :   -0.069450
  13 H :    0.045223
  14 H :    0.024278
  15 H :    0.021180
  16 S :    0.115809
  17 C :   -0.123715
  18 C :    0.000604
  19 C :   -0.057176
  20 C :   -0.156905
  21 H :    0.005573
  22 C :    0.099538
  23 H :    0.028949
  24 H :    0.007182
  25 C :   -0.082071
  26 H :    0.021909
  27 H :    0.028383
  28 C :   -0.072758
  29 H :    0.042931
  30 H :    0.045495
  31 H :    0.045408
  32 H :    0.034997
  33 H :    0.069537
Sum of atomic charges:   -0.0000000

LOEWDIN ATOMIC CHARGES
----------------------
   0 S :    0.396095
   1 C :   -0.198908
   2 C :   -0.055504
   3 C :   -0.057994
   4 C :   -0.179718
   5 H :    0.028931
   6 C :   -0.035584
   7 H :    0.021949
   8 H :    0.038342
   9 C :   -0.043016
  10 H :    0.026406
  11 H :    0.030771
  12 C :   -0.076547
  13 H :    0.031656
  14 H :    0.025704
  15 H :    0.022499
  16 S :    0.401596
  17 C :   -0.190984
  18 C :   -0.066855
  19 C :   -0.040209
  20 C :   -0.200659
  21 H :    0.024244
  22 C :   -0.028311
  23 H :    0.036529
  24 H :    0.019335
  25 C :   -0.036698
  26 H :    0.016370
  27 H :    0.021595
  28 C :   -0.066161
  29 H :    0.027606
  30 H :    0.026746
  31 H :    0.030358
  32 H :    0.018996
  33 H :    0.031422

  Mayer bond orders larger than 0.100000
B(  0-S ,  1-C ) :   1.1230 B(  0-S ,  4-C ) :   1.1577 B(  1-C ,  2-C ) :   1.5940
B(  1-C , 32-H ) :   0.9741 B(  2-C ,  3-C ) :   1.2623 B(  2-C ,  6-C ) :   1.0158
B(  3-C ,  4-C ) :   1.5211 B(  3-C ,  5-H ) :   0.9962 B(  4-C , 20-C ) :   1.0843
B(  6-C ,  7-H ) :   0.9448 B(  6-C ,  8-H ) :   0.9305 B(  6-C ,  9-C ) :   1.0702
B(  9-C , 10-H ) :   0.9554 B(  9-C , 11-H ) :   0.9536 B(  9-C , 12-C ) :   1.0833
B( 12-C , 13-H ) :   0.9719 B( 12-C , 14-H ) :   0.9697 B( 12-C , 15-H ) :   0.9718
B( 16-S , 17-C ) :   1.1752 B( 16-S , 20-C ) :   1.1406 B( 17-C , 18-C ) :   1.5729
B( 17-C , 20-C ) :   0.1092 B( 17-C , 33-H ) :   0.9647 B( 18-C , 19-C ) :   1.2644
B( 18-C , 21-H ) :   0.9975 B( 19-C , 20-C ) :   1.5363 B( 19-C , 22-C ) :   1.0463
B( 22-C , 23-H ) :   0.9390 B( 22-C , 24-H ) :   0.9415 B( 22-C , 25-C ) :   1.0327
B( 25-C , 26-H ) :   0.9652 B( 25-C , 27-H ) :   0.9533 B( 25-C , 28-C ) :   1.0683
B( 28-C , 29-H ) :   0.9779 B( 28-C , 30-H ) :   0.9769 B( 28-C , 31-H ) :   0.9764

Dispersion correction           -0.015065688
FINAL SINGLE POINT ENERGY     -1339.852481641420

DIPOLE MOMENT
-------------
                                X             Y             Z
Electronic contribution:    -21.95371       8.31893       9.95257
Nuclear contribution   :     22.30653      -8.56555     -10.45330
                        -----------------------------------------
Total Dipole Moment    :      0.35283      -0.24662      -0.50072
                        -----------------------------------------
Magnitude (a.u.)       :      0.66033
Magnitude (Debye)      :      1.67841

Rotational constants in cm-1:     0.017951     0.009495     0.007306
Rotational constants in MHz :   538.157178   284.640973   219.017260

                             ****ORCA TERMINATED NORMALLY****
TOTAL RUN TIME: 0 days 0 hours 0 minutes 22 seconds 226 msec
