                         Program Version 4.2.1 -  RELEASE  -
|  1> ! wB97X-D3 SP def2-SVP
|  2> %pal
|  3> nprocs 24
|  4> end
|  5>
|  6> * xyz 0 1
|  7> S 	 -109.398 	 51.2121 	 -108.258
|  8> C 	 -107.847 	 51.0462 	 -109.194
|  9> C 	 -108.108 	 51.2282 	 -110.553
| 10> C 	 -109.553 	 51.1723 	 -110.849
| 11> C 	 -110.344 	 51.0627 	 -109.731
| 12> H 	 -109.945 	 51.1484 	 -111.845
| 13> C 	 -107.025 	 51.6136 	 -111.565
| 14> H 	 -107.496 	 51.9204 	 -112.476
| 15> H 	 -106.455 	 50.6827 	 -111.801
| 16> C 	 -106.227 	 52.8503 	 -111.137
| 17> H 	 -105.562 	 52.4845 	 -110.353
| 18> H 	 -105.642 	 53.2146 	 -112.074
| 19> C 	 -107.163 	 53.9484 	 -110.554
| 20> H 	 -106.503 	 54.7848 	 -110.399
| 21> H 	 -108.006 	 54.2757 	 -111.154
| 22> H 	 -107.613 	 53.5906 	 -109.662
| 23> S 	 -112.78 	 51.8139 	 -108.585
| 24> C 	 -114.259 	 51.0081 	 -109.009
| 25> C 	 -114.072 	 50.1266 	 -110.04
| 26> C 	 -112.692 	 50.07 	 -110.401
| 27> C 	 -111.793 	 50.8349 	 -109.683
| 28> H 	 -114.915 	 49.601 	 -110.454
| 29> C 	 -112.28 	 49.1699 	 -111.552
| 30> H 	 -112.722 	 48.1773 	 -111.363
| 31> H 	 -111.224 	 48.9278 	 -111.469
| 32> C 	 -112.533 	 49.6738 	 -113.019
| 33> H 	 -112.216 	 48.8817 	 -113.682
| 34> H 	 -111.962 	 50.5791 	 -113.33
| 35> C 	 -114.038 	 50.0147 	 -113.388
| 36> H 	 -114.792 	 49.2412 	 -113.173
| 37> H 	 -114.181 	 50.0997 	 -114.457
| 38> H 	 -114.324 	 50.8909 	 -112.954
| 39> H 	 -106.916 	 51.1679 	 -108.683
| 40> H 	 -115.219 	 51.1794 	 -108.587
| 41> *
| 42>
| 43>                          ****END OF INPUT****

CARTESIAN COORDINATES (ANGSTROEM)
---------------------------------
  S    -109.398000   51.212100  -108.258000
  C    -107.847000   51.046200  -109.194000
  C    -108.108000   51.228200  -110.553000
  C    -109.553000   51.172300  -110.849000
  C    -110.344000   51.062700  -109.731000
  H    -109.945000   51.148400  -111.845000
  C    -107.025000   51.613600  -111.565000
  H    -107.496000   51.920400  -112.476000
  H    -106.455000   50.682700  -111.801000
  C    -106.227000   52.850300  -111.137000
  H    -105.562000   52.484500  -110.353000
  H    -105.642000   53.214600  -112.074000
  C    -107.163000   53.948400  -110.554000
  H    -106.503000   54.784800  -110.399000
  H    -108.006000   54.275700  -111.154000
  H    -107.613000   53.590600  -109.662000
  S    -112.780000   51.813900  -108.585000
  C    -114.259000   51.008100  -109.009000
  C    -114.072000   50.126600  -110.040000
  C    -112.692000   50.070000  -110.401000
  C    -111.793000   50.834900  -109.683000
  H    -114.915000   49.601000  -110.454000
  C    -112.280000   49.169900  -111.552000
  H    -112.722000   48.177300  -111.363000
  H    -111.224000   48.927800  -111.469000
  C    -112.533000   49.673800  -113.019000
  H    -112.216000   48.881700  -113.682000
  H    -111.962000   50.579100  -113.330000
  C    -114.038000   50.014700  -113.388000
  H    -114.792000   49.241200  -113.173000
  H    -114.181000   50.099700  -114.457000
  H    -114.324000   50.890900  -112.954000
  H    -106.916000   51.167900  -108.683000
  H    -115.219000   51.179400  -108.587000

 Total Charge           Charge          ....    0
 Multiplicity           Mult            ....    1
 Number of Electrons    NEL             ....  134
 Basis Dimension        Dim             ....  322

ORBITAL ENERGIES
----------------

  NO   OCC          E(Eh)            E(eV)
   0   2.0000     -88.966007     -2420.8881
   1   2.0000     -88.962523     -2420.7933
   2   2.0000     -10.336946      -281.2826
   3   2.0000     -10.330147      -281.0976
   4   2.0000     -10.320527      -280.8358
   5   2.0000     -10.315495      -280.6989
   6   2.0000     -10.311725      -280.5963
   7   2.0000     -10.303634      -280.3761
   8   2.0000     -10.300301      -280.2854
   9   2.0000     -10.297431      -280.2074
  10   2.0000     -10.296431      -280.1801
  11   2.0000     -10.293252      -280.0936
  12   2.0000     -10.292057      -280.0611
  13   2.0000     -10.291083      -280.0346
  14   2.0000     -10.272100      -279.5181
  15   2.0000     -10.270774      -279.4820
  16   2.0000      -8.079700      -219.8598
  17   2.0000      -8.077405      -219.7974
  18   2.0000      -6.038464      -164.3150
  19   2.0000      -6.035985      -164.2475
  20   2.0000      -6.034521      -164.2077
  21   2.0000      -6.031814      -164.1340
  22   2.0000      -6.030060      -164.0863
  23   2.0000      -6.028152      -164.0344
  24   2.0000      -1.004692       -27.3391
  25   2.0000      -0.980547       -26.6820
  26   2.0000      -0.913057       -24.8455
  27   2.0000      -0.898330       -24.4448
  28   2.0000      -0.866912       -23.5899
  29   2.0000      -0.845208       -22.9993
  30   2.0000      -0.837795       -22.7976
  31   2.0000      -0.816916       -22.2294
  32   2.0000      -0.785812       -21.3830
  33   2.0000      -0.777094       -21.1458
  34   2.0000      -0.710033       -19.3210
  35   2.0000      -0.700833       -19.0706
  36   2.0000      -0.693648       -18.8751
  37   2.0000      -0.663459       -18.0536
  38   2.0000      -0.640691       -17.4341
  39   2.0000      -0.613272       -16.6880
  40   2.0000      -0.590832       -16.0773
  41   2.0000      -0.578321       -15.7369
  42   2.0000      -0.554758       -15.0957
  43   2.0000      -0.551423       -15.0050
  44   2.0000      -0.548660       -14.9298
  45   2.0000      -0.533893       -14.5280
  46   2.0000      -0.516224       -14.0472
  47   2.0000      -0.511433       -13.9168
  48   2.0000      -0.501217       -13.6388
  49   2.0000      -0.498034       -13.5522
  50   2.0000      -0.492249       -13.3948
  51   2.0000      -0.479828       -13.0568
  52   2.0000      -0.474055       -12.8997
  53   2.0000      -0.464791       -12.6476
  54   2.0000      -0.458937       -12.4883
  55   2.0000      -0.446120       -12.1396
  56   2.0000      -0.440670       -11.9912
  57   2.0000      -0.435364       -11.8469
  58   2.0000      -0.431067       -11.7299
  59   2.0000      -0.420899       -11.4533
  60   2.0000      -0.418503       -11.3881
  61   2.0000      -0.415205       -11.2983
  62   2.0000      -0.408046       -11.1035
  63   2.0000      -0.351970        -9.5776
  64   2.0000      -0.329723        -8.9722
  65   2.0000      -0.327900        -8.9226
  66   2.0000      -0.294316        -8.0087
  67   0.0000       0.023204         0.6314
  68   0.0000       0.067150         1.8272
  69   0.0000       0.100233         2.7275
  70   0.0000       0.125776         3.4225
  71   0.0000       0.127695         3.4748

MULLIKEN ATOMIC CHARGES
-----------------------
   0 S :    0.089838
   1 C :   -0.125350
   2 C :   -0.135315
   3 C :    0.039058
   4 C :   -0.115754
   5 H :    0.000346
   6 C :    0.086754
   7 H :    0.008463
   8 H :    0.053836
   9 C :   -0.129555
  10 H :    0.035709
  11 H :    0.052918
  12 C :   -0.013242
  13 H :    0.034792
  14 H :    0.028789
  15 H :    0.030278
  16 S :    0.085694
  17 C :   -0.069063
  18 C :   -0.024184
  19 C :   -0.056892
  20 C :   -0.114325
  21 H :    0.019017
  22 C :    0.044781
  23 H :    0.028732
  24 H :    0.021413
  25 C :   -0.074213
  26 H :    0.032014
  27 H :    0.041892
  28 C :   -0.046800
  29 H :    0.022903
  30 H :    0.023546
  31 H :    0.026293
  32 H :    0.052704
  33 H :    0.044925
Sum of atomic charges:   -0.0000000

LOEWDIN ATOMIC CHARGES
----------------------
   0 S :    0.370659
   1 C :   -0.173288
   2 C :   -0.052050
   3 C :   -0.058998
   4 C :   -0.181901
   5 H :    0.027857
   6 C :   -0.040216
   7 H :    0.022825
   8 H :    0.039067
   9 C :   -0.041524
  10 H :    0.021107
  11 H :    0.035960
  12 C :   -0.060674
  13 H :    0.026145
  14 H :    0.026342
  15 H :    0.021380
  16 S :    0.394502
  17 C :   -0.174196
  18 C :   -0.071673
  19 C :   -0.058437
  20 C :   -0.192031
  21 H :    0.034668
  22 C :   -0.038572
  23 H :    0.033938
  24 H :    0.028860
  25 C :   -0.033522
  26 H :    0.023845
  27 H :    0.027526
  28 C :   -0.065932
  29 H :    0.024232
  30 H :    0.026814
  31 H :    0.010474
  32 H :    0.021052
  33 H :    0.025762

  Mayer bond orders larger than 0.100000
B(  0-S ,  1-C ) :   1.1063 B(  0-S ,  4-C ) :   1.1364 B(  1-C ,  2-C ) :   1.6242
B(  1-C , 32-H ) :   0.9754 B(  2-C ,  3-C ) :   1.2070 B(  2-C ,  6-C ) :   1.0058
B(  3-C ,  4-C ) :   1.5866 B(  3-C ,  5-H ) :   1.0022 B(  4-C , 20-C ) :   1.0332
B(  6-C ,  7-H ) :   0.9440 B(  6-C ,  8-H ) :   0.9402 B(  6-C ,  9-C ) :   1.0590
B(  9-C , 10-H ) :   0.9548 B(  9-C , 11-H ) :   0.9610 B(  9-C , 12-C ) :   1.0726
B( 12-C , 13-H ) :   0.9734 B( 12-C , 14-H ) :   0.9766 B( 12-C , 15-H ) :   0.9637
B( 16-S , 17-C ) :   1.1659 B( 16-S , 20-C ) :   1.1152 B( 17-C , 18-C ) :   1.6002
B( 17-C , 33-H ) :   0.9685 B( 18-C , 19-C ) :   1.2352 B( 18-C , 21-H ) :   0.9974
B( 19-C , 20-C ) :   1.6151 B( 19-C , 22-C ) :   1.0420 B( 22-C , 23-H ) :   0.9385
B( 22-C , 24-H ) :   0.9351 B( 22-C , 25-C ) :   1.0657 B( 25-C , 26-H ) :   0.9576
B( 25-C , 27-H ) :   0.9553 B( 25-C , 28-C ) :   1.0764 B( 28-C , 29-H ) :   0.9749
B( 28-C , 30-H ) :   0.9722 B( 28-C , 31-H ) :   0.9766

Dispersion correction           -0.015197745
FINAL SINGLE POINT ENERGY     -1339.868943501959

DIPOLE MOMENT
-------------
                                X             Y             Z
Electronic contribution:     -6.17184      -0.46390      21.87551
Nuclear contribution   :      6.20465       0.38397     -22.57563
                        -----------------------------------------
Total Dipole Moment    :      0.03281      -0.07993      -0.70012
                        -----------------------------------------
Magnitude (a.u.)       :      0.70543
Magnitude (Debye)      :      1.79307

Rotational constants in cm-1:     0.021547     0.008372     0.006772
Rotational constants in MHz :   645.977568   250.993565   203.027826

                             ****ORCA TERMINATED NORMALLY****
TOTAL RUN TIME: 0 days 0 hours 0 minutes 22 seconds 34 msec
