                         Program Version 4.2.1 -  RELEASE  -
|  1> ! wB97X-D3 SP def2-SVP
|  2> %pal
|  3> nprocs 24
|  4> end
|  5>
|  6> * xyz 0 1
|  7> S 	 -125.154 	 65.4678 	 -51.7243
|  8> C 	 -124.106 	 65.0856 	 -53.0929
|  9> C 	 -122.747 	 65.1349 	 -52.7251
| 10> C 	 -122.601 	 65.4139 	 -51.2778
| 11> C 	 -123.785 	 65.5866 	 -50.6187
| 12> H 	 -121.66 	 65.5987 	 -50.7423
| 13> C 	 -121.55 	 64.8202 	 -53.6072
| 14> H 	 -121.727 	 63.7463 	 -53.5869
| 15> H 	 -120.634 	 65.1051 	 -52.9919
| 16> C 	 -121.524 	 65.3983 	 -55.0654
| 17> H 	 -120.757 	 64.8946 	 -55.666
| 18> H 	 -122.413 	 65.0842 	 -55.5157
| 19> C 	 -121.311 	 66.9549 	 -55.137
| 20> H 	 -121.143 	 67.3182 	 -56.1988
| 21> H 	 -122.074 	 67.4977 	 -54.655
| 22> H 	 -120.412 	 67.2328 	 -54.5859
| 23> S 	 -124.736 	 67.5682 	 -48.8533
| 24> C 	 -124.724 	 67.1268 	 -47.1226
| 25> C 	 -124.219 	 65.8847 	 -46.8746
| 26> C 	 -123.832 	 65.1997 	 -48.0579
| 27> C 	 -124.055 	 65.9581 	 -49.216
| 28> H 	 -124.196 	 65.5666 	 -45.8462
| 29> C 	 -123.222 	 63.7577 	 -48.1034
| 30> H 	 -122.609 	 63.7 	 -47.2519
| 31> H 	 -122.76 	 63.5358 	 -49.0693
| 32> C 	 -124.2 	 62.6176 	 -47.7964
| 33> H 	 -125.009 	 62.6089 	 -48.5392
| 34> H 	 -124.698 	 62.7818 	 -46.8138
| 35> C 	 -123.505 	 61.2563 	 -47.5948
| 36> H 	 -124.032 	 60.4372 	 -47.16
| 37> H 	 -122.664 	 61.4238 	 -46.8922
| 38> H 	 -123.054 	 60.902 	 -48.5353
| 39> H 	 -124.524 	 64.8474 	 -54.0806
| 40> H 	 -124.895 	 67.8864 	 -46.3154
| 41> *
| 42>
| 43>                          ****END OF INPUT****

CARTESIAN COORDINATES (ANGSTROEM)
---------------------------------
  S    -125.154000   65.467800  -51.724300
  C    -124.106000   65.085600  -53.092900
  C    -122.747000   65.134900  -52.725100
  C    -122.601000   65.413900  -51.277800
  C    -123.785000   65.586600  -50.618700
  H    -121.660000   65.598700  -50.742300
  C    -121.550000   64.820200  -53.607200
  H    -121.727000   63.746300  -53.586900
  H    -120.634000   65.105100  -52.991900
  C    -121.524000   65.398300  -55.065400
  H    -120.757000   64.894600  -55.666000
  H    -122.413000   65.084200  -55.515700
  C    -121.311000   66.954900  -55.137000
  H    -121.143000   67.318200  -56.198800
  H    -122.074000   67.497700  -54.655000
  H    -120.412000   67.232800  -54.585900
  S    -124.736000   67.568200  -48.853300
  C    -124.724000   67.126800  -47.122600
  C    -124.219000   65.884700  -46.874600
  C    -123.832000   65.199700  -48.057900
  C    -124.055000   65.958100  -49.216000
  H    -124.196000   65.566600  -45.846200
  C    -123.222000   63.757700  -48.103400
  H    -122.609000   63.700000  -47.251900
  H    -122.760000   63.535800  -49.069300
  C    -124.200000   62.617600  -47.796400
  H    -125.009000   62.608900  -48.539200
  H    -124.698000   62.781800  -46.813800
  C    -123.505000   61.256300  -47.594800
  H    -124.032000   60.437200  -47.160000
  H    -122.664000   61.423800  -46.892200
  H    -123.054000   60.902000  -48.535300
  H    -124.524000   64.847400  -54.080600
  H    -124.895000   67.886400  -46.315400

 Total Charge           Charge          ....    0
 Multiplicity           Mult            ....    1
 Number of Electrons    NEL             ....  134
 Basis Dimension        Dim             ....  322

ORBITAL ENERGIES
----------------

  NO   OCC          E(Eh)            E(eV)
   0   2.0000     -88.967731     -2420.9350
   1   2.0000     -88.961953     -2420.7778
   2   2.0000     -10.330592      -281.1097
   3   2.0000     -10.329882      -281.0904
   4   2.0000     -10.322488      -280.8892
   5   2.0000     -10.318260      -280.7741
   6   2.0000     -10.311623      -280.5935
   7   2.0000     -10.310062      -280.5510
   8   2.0000     -10.301745      -280.3247
   9   2.0000     -10.299453      -280.2624
  10   2.0000     -10.295463      -280.1538
  11   2.0000     -10.292383      -280.0700
  12   2.0000     -10.291216      -280.0382
  13   2.0000     -10.286412      -279.9075
  14   2.0000     -10.280824      -279.7555
  15   2.0000     -10.277956      -279.6774
  16   2.0000      -8.081378      -219.9055
  17   2.0000      -8.076403      -219.7701
  18   2.0000      -6.039878      -164.3534
  19   2.0000      -6.036199      -164.2533
  20   2.0000      -6.035051      -164.2221
  21   2.0000      -6.032043      -164.1402
  22   2.0000      -6.030901      -164.1091
  23   2.0000      -6.027084      -164.0053
  24   2.0000      -0.998341       -27.1662
  25   2.0000      -0.976107       -26.5612
  26   2.0000      -0.905624       -24.6433
  27   2.0000      -0.905181       -24.6312
  28   2.0000      -0.863535       -23.4980
  29   2.0000      -0.846939       -23.0464
  30   2.0000      -0.842159       -22.9163
  31   2.0000      -0.814006       -22.1502
  32   2.0000      -0.781564       -21.2674
  33   2.0000      -0.768138       -20.9021
  34   2.0000      -0.713736       -19.4218
  35   2.0000      -0.698138       -18.9973
  36   2.0000      -0.688311       -18.7299
  37   2.0000      -0.656194       -17.8559
  38   2.0000      -0.638658       -17.3788
  39   2.0000      -0.607434       -16.5291
  40   2.0000      -0.590628       -16.0718
  41   2.0000      -0.573198       -15.5975
  42   2.0000      -0.566961       -15.4278
  43   2.0000      -0.550352       -14.9758
  44   2.0000      -0.539027       -14.6677
  45   2.0000      -0.518913       -14.1203
  46   2.0000      -0.512421       -13.9437
  47   2.0000      -0.508377       -13.8337
  48   2.0000      -0.500729       -13.6255
  49   2.0000      -0.488761       -13.2999
  50   2.0000      -0.484198       -13.1757
  51   2.0000      -0.477654       -12.9976
  52   2.0000      -0.469115       -12.7653
  53   2.0000      -0.465304       -12.6616
  54   2.0000      -0.458512       -12.4767
  55   2.0000      -0.452257       -12.3065
  56   2.0000      -0.444032       -12.0827
  57   2.0000      -0.437210       -11.8971
  58   2.0000      -0.430968       -11.7272
  59   2.0000      -0.428248       -11.6532
  60   2.0000      -0.420877       -11.4526
  61   2.0000      -0.415232       -11.2990
  62   2.0000      -0.414043       -11.2667
  63   2.0000      -0.343118        -9.3367
  64   2.0000      -0.332446        -9.0463
  65   2.0000      -0.322805        -8.7840
  66   2.0000      -0.297521        -8.0960
  67   0.0000       0.037997         1.0340
  68   0.0000       0.058714         1.5977
  69   0.0000       0.110953         3.0192
  70   0.0000       0.119840         3.2610
  71   0.0000       0.124222         3.3803

MULLIKEN ATOMIC CHARGES
-----------------------
   0 S :    0.099518
   1 C :   -0.146038
   2 C :   -0.111230
   3 C :    0.042915
   4 C :   -0.178622
   5 H :    0.025325
   6 C :    0.014821
   7 H :    0.056784
   8 H :    0.039943
   9 C :   -0.028643
  10 H :    0.030817
  11 H :    0.009758
  12 C :   -0.054594
  13 H :    0.046093
  14 H :    0.037057
  15 H :    0.023695
  16 S :    0.108555
  17 C :   -0.117913
  18 C :   -0.028531
  19 C :   -0.008288
  20 C :   -0.176489
  21 H :    0.019692
  22 C :    0.121080
  23 H :    0.002834
  24 H :    0.036384
  25 C :   -0.101883
  26 H :    0.035023
  27 H :    0.024786
  28 C :   -0.043131
  29 H :    0.035405
  30 H :    0.017538
  31 H :    0.029319
  32 H :    0.062419
  33 H :    0.075601
Sum of atomic charges:   -0.0000000

LOEWDIN ATOMIC CHARGES
----------------------
   0 S :    0.389418
   1 C :   -0.207732
   2 C :   -0.059380
   3 C :   -0.069553
   4 C :   -0.189698
   5 H :    0.037061
   6 C :   -0.039502
   7 H :    0.044397
   8 H :    0.036124
   9 C :   -0.033647
  10 H :    0.028268
  11 H :    0.013295
  12 C :   -0.064200
  13 H :    0.034900
  14 H :    0.020554
  15 H :    0.024960
  16 S :    0.377168
  17 C :   -0.176348
  18 C :   -0.073084
  19 C :   -0.045138
  20 C :   -0.195944
  21 H :    0.034760
  22 C :   -0.020489
  23 H :    0.023109
  24 H :    0.033382
  25 C :   -0.042759
  26 H :    0.021925
  27 H :    0.023833
  28 C :   -0.068495
  29 H :    0.023458
  30 H :    0.025782
  31 H :    0.024333
  32 H :    0.030051
  33 H :    0.039194

  Mayer bond orders larger than 0.100000
B(  0-S ,  1-C ) :   1.1274 B(  0-S ,  4-C ) :   1.1476 B(  1-C ,  2-C ) :   1.6165
B(  1-C , 32-H ) :   0.9701 B(  2-C ,  3-C ) :   1.2086 B(  2-C ,  6-C ) :   0.9864
B(  3-C ,  4-C ) :   1.6239 B(  3-C ,  5-H ) :   0.9863 B(  4-C , 20-C ) :   1.0104
B(  6-C ,  7-H ) :   0.9377 B(  6-C ,  8-H ) :   0.9494 B(  6-C ,  9-C ) :   1.0716
B(  9-C , 10-H ) :   0.9568 B(  9-C , 11-H ) :   0.9544 B(  9-C , 12-C ) :   1.0640
B( 12-C , 13-H ) :   0.9768 B( 12-C , 14-H ) :   0.9794 B( 12-C , 15-H ) :   0.9757
B( 16-S , 17-C ) :   1.1393 B( 16-S , 20-C ) :   1.1369 B( 17-C , 18-C ) :   1.6461
B( 17-C , 33-H ) :   0.9560 B( 18-C , 19-C ) :   1.2179 B( 18-C , 21-H ) :   0.9909
B( 19-C , 20-C ) :   1.6132 B( 19-C , 22-C ) :   1.0412 B( 22-C , 23-H ) :   0.9255
B( 22-C , 24-H ) :   0.9347 B( 22-C , 25-C ) :   1.0654 B( 25-C , 26-H ) :   0.9563
B( 25-C , 27-H ) :   0.9574 B( 25-C , 28-C ) :   1.0715 B( 28-C , 29-H ) :   0.9768
B( 28-C , 30-H ) :   0.9712 B( 28-C , 31-H ) :   0.9757

Dispersion correction           -0.013852132
FINAL SINGLE POINT ENERGY     -1339.877432132498

DIPOLE MOMENT
-------------
                                X             Y             Z
Electronic contribution:    -14.83668      15.01897       6.30506
Nuclear contribution   :     15.34806     -15.34540      -6.23633
                        -----------------------------------------
Total Dipole Moment    :      0.51138      -0.32643       0.06874
                        -----------------------------------------
Magnitude (a.u.)       :      0.61056
Magnitude (Debye)      :      1.55193

Rotational constants in cm-1:     0.019221     0.007763     0.006352
Rotational constants in MHz :   576.229126   232.716398   190.440161

                             ****ORCA TERMINATED NORMALLY****
TOTAL RUN TIME: 0 days 0 hours 0 minutes 20 seconds 853 msec
