                         Program Version 4.2.1 -  RELEASE  -
|  1> ! wB97X-D3 SP def2-SVP
|  2> %pal
|  3> nprocs 24
|  4> end
|  5>
|  6> * xyz 0 1
|  7> S 	 -53.5299 	 14.808 	 30.4193
|  8> C 	 -54.9993 	 14.2526 	 29.6107
|  9> C 	 -54.6912 	 13.6099 	 28.3933
| 10> C 	 -53.3287 	 13.6303 	 28.0666
| 11> C 	 -52.5476 	 14.3032 	 29.0431
| 12> H 	 -52.8678 	 13.146 	 27.2226
| 13> C 	 -55.7755 	 13.0809 	 27.4709
| 14> H 	 -55.3259 	 13.1415 	 26.4369
| 15> H 	 -56.4279 	 13.9206 	 27.3923
| 16> C 	 -56.4549 	 11.7337 	 27.9113
| 17> H 	 -55.6605 	 10.908 	 28.0077
| 18> H 	 -56.7139 	 11.9171 	 28.9852
| 19> C 	 -57.7135 	 11.3135 	 27.1366
| 20> H 	 -57.9727 	 10.2704 	 27.1693
| 21> H 	 -58.62 	 11.8281 	 27.3467
| 22> H 	 -57.6576 	 11.5038 	 26.0882
| 23> S 	 -50.3436 	 13.6638 	 30.5771
| 24> C 	 -48.7183 	 13.9704 	 29.9159
| 25> C 	 -48.7213 	 14.5372 	 28.6715
| 26> C 	 -50.0607 	 14.6023 	 28.2073
| 27> C 	 -51.1079 	 14.2978 	 29.1114
| 28> H 	 -47.9098 	 14.9669 	 28.2478
| 29> C 	 -50.3402 	 15.2114 	 26.8481
| 30> H 	 -51.0923 	 14.59 	 26.4011
| 31> H 	 -49.4981 	 15.3275 	 26.2163
| 32> C 	 -50.956 	 16.6441 	 26.9178
| 33> H 	 -51.8792 	 16.5203 	 27.5032
| 34> H 	 -51.2617 	 17.0928 	 25.9351
| 35> C 	 -50.1652 	 17.7387 	 27.5412
| 36> H 	 -50.5712 	 18.7324 	 27.5806
| 37> H 	 -49.1461 	 17.8921 	 26.9975
| 38> H 	 -49.9411 	 17.5145 	 28.5518
| 39> H 	 -56.0072 	 14.3082 	 30.0566
| 40> H 	 -47.7544 	 14.1039 	 30.3982
| 41> *
| 42>
| 43>                          ****END OF INPUT****

CARTESIAN COORDINATES (ANGSTROEM)
---------------------------------
  S    -53.529900   14.808000   30.419300
  C    -54.999300   14.252600   29.610700
  C    -54.691200   13.609900   28.393300
  C    -53.328700   13.630300   28.066600
  C    -52.547600   14.303200   29.043100
  H    -52.867800   13.146000   27.222600
  C    -55.775500   13.080900   27.470900
  H    -55.325900   13.141500   26.436900
  H    -56.427900   13.920600   27.392300
  C    -56.454900   11.733700   27.911300
  H    -55.660500   10.908000   28.007700
  H    -56.713900   11.917100   28.985200
  C    -57.713500   11.313500   27.136600
  H    -57.972700   10.270400   27.169300
  H    -58.620000   11.828100   27.346700
  H    -57.657600   11.503800   26.088200
  S    -50.343600   13.663800   30.577100
  C    -48.718300   13.970400   29.915900
  C    -48.721300   14.537200   28.671500
  C    -50.060700   14.602300   28.207300
  C    -51.107900   14.297800   29.111400
  H    -47.909800   14.966900   28.247800
  C    -50.340200   15.211400   26.848100
  H    -51.092300   14.590000   26.401100
  H    -49.498100   15.327500   26.216300
  C    -50.956000   16.644100   26.917800
  H    -51.879200   16.520300   27.503200
  H    -51.261700   17.092800   25.935100
  C    -50.165200   17.738700   27.541200
  H    -50.571200   18.732400   27.580600
  H    -49.146100   17.892100   26.997500
  H    -49.941100   17.514500   28.551800
  H    -56.007200   14.308200   30.056600
  H    -47.754400   14.103900   30.398200

 Total Charge           Charge          ....    0
 Multiplicity           Mult            ....    1
 Number of Electrons    NEL             ....  134
 Basis Dimension        Dim             ....  322

ORBITAL ENERGIES
----------------

  NO   OCC          E(Eh)            E(eV)
   0   2.0000     -88.976030     -2421.1609
   1   2.0000     -88.968125     -2420.9458
   2   2.0000     -10.337385      -281.2946
   3   2.0000     -10.330661      -281.1116
   4   2.0000     -10.323023      -280.9037
   5   2.0000     -10.315358      -280.6952
   6   2.0000     -10.305463      -280.4259
   7   2.0000     -10.305369      -280.4234
   8   2.0000     -10.303867      -280.3825
   9   2.0000     -10.300091      -280.2797
  10   2.0000     -10.297236      -280.2020
  11   2.0000     -10.285935      -279.8945
  12   2.0000     -10.284025      -279.8426
  13   2.0000     -10.280670      -279.7512
  14   2.0000     -10.275459      -279.6095
  15   2.0000     -10.269572      -279.4493
  16   2.0000      -8.089713      -220.1323
  17   2.0000      -8.081728      -219.9150
  18   2.0000      -6.048149      -164.5785
  19   2.0000      -6.044300      -164.4738
  20   2.0000      -6.040678      -164.3752
  21   2.0000      -6.040531      -164.3712
  22   2.0000      -6.036314      -164.2564
  23   2.0000      -6.032301      -164.1473
  24   2.0000      -1.004390       -27.3309
  25   2.0000      -0.981270       -26.7017
  26   2.0000      -0.907726       -24.7005
  27   2.0000      -0.904262       -24.6062
  28   2.0000      -0.872250       -23.7351
  29   2.0000      -0.854524       -23.2528
  30   2.0000      -0.844785       -22.9878
  31   2.0000      -0.818493       -22.2723
  32   2.0000      -0.785984       -21.3877
  33   2.0000      -0.767826       -20.8936
  34   2.0000      -0.712045       -19.3757
  35   2.0000      -0.710191       -19.3253
  36   2.0000      -0.680765       -18.5246
  37   2.0000      -0.667656       -18.1678
  38   2.0000      -0.641692       -17.4613
  39   2.0000      -0.620836       -16.8938
  40   2.0000      -0.590020       -16.0553
  41   2.0000      -0.572530       -15.5793
  42   2.0000      -0.554631       -15.0923
  43   2.0000      -0.546924       -14.8826
  44   2.0000      -0.543547       -14.7907
  45   2.0000      -0.527385       -14.3509
  46   2.0000      -0.519333       -14.1318
  47   2.0000      -0.509420       -13.8620
  48   2.0000      -0.508171       -13.8280
  49   2.0000      -0.502102       -13.6629
  50   2.0000      -0.487183       -13.2569
  51   2.0000      -0.478851       -13.0302
  52   2.0000      -0.468763       -12.7557
  53   2.0000      -0.466175       -12.6853
  54   2.0000      -0.458117       -12.4660
  55   2.0000      -0.451925       -12.2975
  56   2.0000      -0.444325       -12.0907
  57   2.0000      -0.441507       -12.0140
  58   2.0000      -0.434565       -11.8251
  59   2.0000      -0.428276       -11.6540
  60   2.0000      -0.411290       -11.1918
  61   2.0000      -0.405136       -11.0243
  62   2.0000      -0.403675       -10.9845
  63   2.0000      -0.350099        -9.5267
  64   2.0000      -0.337902        -9.1948
  65   2.0000      -0.329737        -8.9726
  66   2.0000      -0.285261        -7.7623
  67   0.0000       0.015881         0.4321
  68   0.0000       0.062140         1.6909
  69   0.0000       0.107279         2.9192
  70   0.0000       0.120545         3.2802
  71   0.0000       0.129145         3.5142

MULLIKEN ATOMIC CHARGES
-----------------------
   0 S :    0.120962
   1 C :   -0.132946
   2 C :   -0.098690
   3 C :    0.037272
   4 C :   -0.164075
   5 H :    0.022703
   6 C :    0.054309
   7 H :    0.021983
   8 H :    0.023712
   9 C :   -0.081295
  10 H :    0.049517
  11 H :    0.032426
  12 C :   -0.005469
  13 H :    0.030601
  14 H :    0.019572
  15 H :    0.013779
  16 S :    0.102513
  17 C :   -0.065674
  18 C :   -0.009687
  19 C :   -0.063788
  20 C :   -0.143689
  21 H :   -0.012954
  22 C :    0.116254
  23 H :    0.015870
  24 H :    0.008624
  25 C :   -0.092062
  26 H :    0.035082
  27 H :    0.029326
  28 C :   -0.056830
  29 H :    0.031651
  30 H :    0.018906
  31 H :    0.022557
  32 H :    0.066382
  33 H :    0.053160
Sum of atomic charges:   -0.0000000

LOEWDIN ATOMIC CHARGES
----------------------
   0 S :    0.411316
   1 C :   -0.199976
   2 C :   -0.063103
   3 C :   -0.053886
   4 C :   -0.196237
   5 H :    0.033443
   6 C :   -0.039156
   7 H :    0.033373
   8 H :    0.029009
   9 C :   -0.043754
  10 H :    0.037140
  11 H :    0.028835
  12 C :   -0.071606
  13 H :    0.029154
  14 H :    0.024233
  15 H :    0.023964
  16 S :    0.390714
  17 C :   -0.179560
  18 C :   -0.054739
  19 C :   -0.052236
  20 C :   -0.198936
  21 H :    0.018085
  22 C :   -0.025249
  23 H :    0.028865
  24 H :    0.021190
  25 C :   -0.046361
  26 H :    0.024618
  27 H :    0.026443
  28 C :   -0.073085
  29 H :    0.025440
  30 H :    0.026255
  31 H :    0.016754
  32 H :    0.034728
  33 H :    0.034325

  Mayer bond orders larger than 0.100000
B(  0-S ,  1-C ) :   1.1487 B(  0-S ,  4-C ) :   1.1626 B(  1-C ,  2-C ) :   1.5595
B(  1-C ,  4-C ) :   0.1125 B(  1-C , 32-H ) :   0.9654 B(  2-C ,  3-C ) :   1.3047
B(  2-C ,  6-C ) :   1.0039 B(  3-C ,  4-C ) :   1.5026 B(  3-C ,  5-H ) :   0.9895
B(  4-C , 20-C ) :   1.0775 B(  6-C ,  7-H ) :   0.9425 B(  6-C ,  8-H ) :   0.9451
B(  6-C ,  9-C ) :   1.0371 B(  9-C , 10-H ) :   0.9595 B(  9-C , 11-H ) :   0.9600
B(  9-C , 12-C ) :   1.0655 B( 12-C , 13-H ) :   0.9753 B( 12-C , 14-H ) :   0.9731
B( 12-C , 15-H ) :   0.9729 B( 16-S , 17-C ) :   1.1475 B( 16-S , 20-C ) :   1.1183
B( 17-C , 18-C ) :   1.6212 B( 17-C , 33-H ) :   0.9529 B( 18-C , 19-C ) :   1.2474
B( 18-C , 21-H ) :   1.0040 B( 19-C , 20-C ) :   1.5680 B( 19-C , 22-C ) :   1.0530
B( 22-C , 23-H ) :   0.9257 B( 22-C , 24-H ) :   0.9415 B( 22-C , 25-C ) :   1.0652
B( 25-C , 26-H ) :   0.9517 B( 25-C , 27-H ) :   0.9575 B( 25-C , 28-C ) :   1.0861
B( 28-C , 29-H ) :   0.9721 B( 28-C , 30-H ) :   0.9694 B( 28-C , 31-H ) :   0.9716

Dispersion correction           -0.014625451
FINAL SINGLE POINT ENERGY     -1339.851489516493

DIPOLE MOMENT
-------------
                                X             Y             Z
Electronic contribution:     11.52719      -1.51534      19.22445
Nuclear contribution   :    -11.83368       1.55559     -19.70281
                        -----------------------------------------
Total Dipole Moment    :     -0.30649       0.04025      -0.47835
                        -----------------------------------------
Magnitude (a.u.)       :      0.56954
Magnitude (Debye)      :      1.44767

Rotational constants in cm-1:     0.022680     0.007286     0.006607
Rotational constants in MHz :   679.944104   218.433477   198.058450

                             ****ORCA TERMINATED NORMALLY****
TOTAL RUN TIME: 0 days 0 hours 0 minutes 21 seconds 731 msec
