                         Program Version 4.2.1 -  RELEASE  -
|  1> ! wB97X-D3 SP def2-SVP
|  2> %pal
|  3> nprocs 24
|  4> end
|  5>
|  6> * xyz 0 1
|  7> S 	 -89.5974 	 -31.2861 	 -58.2636
|  8> C 	 -88.222 	 -32.3309 	 -58.3811
|  9> C 	 -87.1711 	 -31.9232 	 -57.5841
| 10> C 	 -87.6197 	 -30.9013 	 -56.7386
| 11> C 	 -88.9369 	 -30.4722 	 -56.8624
| 12> H 	 -87.0291 	 -30.4151 	 -55.9999
| 13> C 	 -85.7511 	 -32.5273 	 -57.5566
| 14> H 	 -85.1522 	 -31.7163 	 -57.0613
| 15> H 	 -85.3349 	 -32.5561 	 -58.6034
| 16> C 	 -85.4617 	 -33.9214 	 -56.8936
| 17> H 	 -85.9945 	 -34.6947 	 -57.5207
| 18> H 	 -84.4139 	 -34.16 	 -57.027
| 19> C 	 -85.7415 	 -33.9557 	 -55.4094
| 20> H 	 -86.8375 	 -33.5524 	 -55.1892
| 21> H 	 -85.5841 	 -34.9162 	 -54.8797
| 22> H 	 -85.0287 	 -33.3146 	 -54.8943
| 23> S 	 -90.3381 	 -28.1441 	 -57.4678
| 24> C 	 -90.9685 	 -27.169 	 -56.1163
| 25> C 	 -90.5459 	 -27.6408 	 -54.9458
| 26> C 	 -89.7703 	 -28.8791 	 -55.0417
| 27> C 	 -89.5839 	 -29.3008 	 -56.354
| 28> H 	 -90.876 	 -27.1953 	 -54.074
| 29> C 	 -89.2844 	 -29.5607 	 -53.7556
| 30> H 	 -88.9442 	 -28.846 	 -53.0811
| 31> H 	 -88.4946 	 -30.2181 	 -54.0342
| 32> C 	 -90.3054 	 -30.3952 	 -53.0177
| 33> H 	 -90.5488 	 -31.2195 	 -53.7075
| 34> H 	 -91.2592 	 -29.8409 	 -52.9853
| 35> C 	 -89.9529 	 -30.758 	 -51.6196
| 36> H 	 -89.7469 	 -29.9069 	 -51.0132
| 37> H 	 -89.0616 	 -31.4172 	 -51.6423
| 38> H 	 -90.8502 	 -31.2082 	 -51.147
| 39> H 	 -88.1529 	 -33.1471 	 -59.0111
| 40> H 	 -91.6166 	 -26.2462 	 -56.2613
| 41> *
| 42>
| 43>                          ****END OF INPUT****

CARTESIAN COORDINATES (ANGSTROEM)
---------------------------------
  S    -89.597400  -31.286100  -58.263600
  C    -88.222000  -32.330900  -58.381100
  C    -87.171100  -31.923200  -57.584100
  C    -87.619700  -30.901300  -56.738600
  C    -88.936900  -30.472200  -56.862400
  H    -87.029100  -30.415100  -55.999900
  C    -85.751100  -32.527300  -57.556600
  H    -85.152200  -31.716300  -57.061300
  H    -85.334900  -32.556100  -58.603400
  C    -85.461700  -33.921400  -56.893600
  H    -85.994500  -34.694700  -57.520700
  H    -84.413900  -34.160000  -57.027000
  C    -85.741500  -33.955700  -55.409400
  H    -86.837500  -33.552400  -55.189200
  H    -85.584100  -34.916200  -54.879700
  H    -85.028700  -33.314600  -54.894300
  S    -90.338100  -28.144100  -57.467800
  C    -90.968500  -27.169000  -56.116300
  C    -90.545900  -27.640800  -54.945800
  C    -89.770300  -28.879100  -55.041700
  C    -89.583900  -29.300800  -56.354000
  H    -90.876000  -27.195300  -54.074000
  C    -89.284400  -29.560700  -53.755600
  H    -88.944200  -28.846000  -53.081100
  H    -88.494600  -30.218100  -54.034200
  C    -90.305400  -30.395200  -53.017700
  H    -90.548800  -31.219500  -53.707500
  H    -91.259200  -29.840900  -52.985300
  C    -89.952900  -30.758000  -51.619600
  H    -89.746900  -29.906900  -51.013200
  H    -89.061600  -31.417200  -51.642300
  H    -90.850200  -31.208200  -51.147000
  H    -88.152900  -33.147100  -59.011100
  H    -91.616600  -26.246200  -56.261300

 Total Charge           Charge          ....    0
 Multiplicity           Mult            ....    1
 Number of Electrons    NEL             ....  134
 Basis Dimension        Dim             ....  322

ORBITAL ENERGIES
----------------

  NO   OCC          E(Eh)            E(eV)
   0   2.0000     -88.966945     -2420.9136
   1   2.0000     -88.961940     -2420.7774
   2   2.0000     -10.328964      -281.0654
   3   2.0000     -10.327623      -281.0289
   4   2.0000     -10.319643      -280.8118
   5   2.0000     -10.310127      -280.5528
   6   2.0000     -10.306111      -280.4435
   7   2.0000     -10.305193      -280.4186
   8   2.0000     -10.302373      -280.3418
   9   2.0000     -10.296756      -280.1890
  10   2.0000     -10.292735      -280.0796
  11   2.0000     -10.288317      -279.9593
  12   2.0000     -10.286562      -279.9116
  13   2.0000     -10.280178      -279.7379
  14   2.0000     -10.278162      -279.6830
  15   2.0000     -10.277451      -279.6637
  16   2.0000      -8.082027      -219.9231
  17   2.0000      -8.076122      -219.7624
  18   2.0000      -6.040418      -164.3681
  19   2.0000      -6.036392      -164.2586
  20   2.0000      -6.034897      -164.2179
  21   2.0000      -6.032970      -164.1655
  22   2.0000      -6.030786      -164.1060
  23   2.0000      -6.026541      -163.9905
  24   2.0000      -1.009529       -27.4707
  25   2.0000      -0.983515       -26.7628
  26   2.0000      -0.914154       -24.8754
  27   2.0000      -0.907265       -24.6879
  28   2.0000      -0.875716       -23.8294
  29   2.0000      -0.852320       -23.1928
  30   2.0000      -0.844383       -22.9768
  31   2.0000      -0.818461       -22.2715
  32   2.0000      -0.783484       -21.3197
  33   2.0000      -0.772718       -21.0267
  34   2.0000      -0.707709       -19.2577
  35   2.0000      -0.702262       -19.1095
  36   2.0000      -0.690150       -18.7799
  37   2.0000      -0.662261       -18.0210
  38   2.0000      -0.644642       -17.5416
  39   2.0000      -0.616912       -16.7870
  40   2.0000      -0.595748       -16.2111
  41   2.0000      -0.573902       -15.6167
  42   2.0000      -0.568478       -15.4691
  43   2.0000      -0.547964       -14.9109
  44   2.0000      -0.544766       -14.8238
  45   2.0000      -0.527943       -14.3660
  46   2.0000      -0.518083       -14.0978
  47   2.0000      -0.507504       -13.8099
  48   2.0000      -0.505646       -13.7593
  49   2.0000      -0.502100       -13.6628
  50   2.0000      -0.497708       -13.5433
  51   2.0000      -0.475334       -12.9345
  52   2.0000      -0.471219       -12.8225
  53   2.0000      -0.464185       -12.6311
  54   2.0000      -0.459804       -12.5119
  55   2.0000      -0.451492       -12.2857
  56   2.0000      -0.439380       -11.9561
  57   2.0000      -0.435995       -11.8640
  58   2.0000      -0.429611       -11.6903
  59   2.0000      -0.427975       -11.6458
  60   2.0000      -0.421811       -11.4781
  61   2.0000      -0.412076       -11.2132
  62   2.0000      -0.406366       -11.0578
  63   2.0000      -0.355534        -9.6746
  64   2.0000      -0.334441        -9.1006
  65   2.0000      -0.328136        -8.9290
  66   2.0000      -0.289290        -7.8720
  67   0.0000       0.026865         0.7310
  68   0.0000       0.068391         1.8610
  69   0.0000       0.110496         3.0067
  70   0.0000       0.123602         3.3634
  71   0.0000       0.128421         3.4945

MULLIKEN ATOMIC CHARGES
-----------------------
   0 S :    0.109808
   1 C :   -0.084547
   2 C :   -0.069742
   3 C :    0.031824
   4 C :   -0.168154
   5 H :   -0.000145
   6 C :    0.016053
   7 H :    0.027964
   8 H :    0.045971
   9 C :   -0.040259
  10 H :    0.035080
  11 H :    0.028826
  12 C :   -0.089751
  13 H :    0.058508
  14 H :    0.042729
  15 H :    0.025503
  16 S :    0.085381
  17 C :   -0.115074
  18 C :    0.018792
  19 C :   -0.074545
  20 C :   -0.135414
  21 H :   -0.009615
  22 C :    0.141572
  23 H :   -0.003021
  24 H :    0.001859
  25 C :   -0.103539
  26 H :    0.029508
  27 H :    0.014531
  28 C :   -0.015614
  29 H :    0.020248
  30 H :    0.036615
  31 H :    0.041616
  32 H :    0.015172
  33 H :    0.081858
Sum of atomic charges:   -0.0000000

LOEWDIN ATOMIC CHARGES
----------------------
   0 S :    0.421976
   1 C :   -0.177759
   2 C :   -0.071486
   3 C :   -0.055159
   4 C :   -0.200643
   5 H :    0.023121
   6 C :   -0.036432
   7 H :    0.033414
   8 H :    0.039190
   9 C :   -0.045143
  10 H :    0.027424
  11 H :    0.025573
  12 C :   -0.081250
  13 H :    0.040218
  14 H :    0.029398
  15 H :    0.023398
  16 S :    0.367197
  17 C :   -0.176835
  18 C :   -0.065013
  19 C :   -0.048142
  20 C :   -0.192267
  21 H :    0.020347
  22 C :   -0.024568
  23 H :    0.019210
  24 H :    0.023680
  25 C :   -0.048217
  26 H :    0.027671
  27 H :    0.020880
  28 C :   -0.063226
  29 H :    0.020371
  30 H :    0.028973
  31 H :    0.035479
  32 H :    0.011904
  33 H :    0.046716

  Mayer bond orders larger than 0.100000
B(  0-S ,  1-C ) :   1.1726 B(  0-S ,  4-C ) :   1.1437 B(  1-C ,  2-C ) :   1.5647
B(  1-C ,  4-C ) :   0.1068 B(  1-C , 32-H ) :   0.9799 B(  2-C ,  3-C ) :   1.2852
B(  2-C ,  6-C ) :   1.0059 B(  3-C ,  4-C ) :   1.5403 B(  3-C ,  5-H ) :   0.9922
B(  4-C , 20-C ) :   1.0726 B(  6-C ,  7-H ) :   0.9437 B(  6-C ,  8-H ) :   0.9424
B(  6-C ,  9-C ) :   1.0685 B(  9-C , 10-H ) :   0.9558 B(  9-C , 11-H ) :   0.9511
B(  9-C , 12-C ) :   1.0725 B( 12-C , 13-H ) :   0.9741 B( 12-C , 14-H ) :   0.9731
B( 12-C , 15-H ) :   0.9715 B( 16-S , 17-C ) :   1.1178 B( 16-S , 20-C ) :   1.1141
B( 17-C , 18-C ) :   1.6660 B( 17-C , 33-H ) :   0.9559 B( 18-C , 19-C ) :   1.1950
B( 18-C , 21-H ) :   1.0004 B( 19-C , 20-C ) :   1.6312 B( 19-C , 22-C ) :   1.0538
B( 22-C , 23-H ) :   0.9277 B( 22-C , 24-H ) :   0.9209 B( 22-C , 25-C ) :   1.0728
B( 25-C , 26-H ) :   0.9495 B( 25-C , 27-H ) :   0.9556 B( 25-C , 28-C ) :   1.0875
B( 28-C , 29-H ) :   0.9687 B( 28-C , 30-H ) :   0.9730 B( 28-C , 31-H ) :   0.9704

Dispersion correction           -0.013925624
FINAL SINGLE POINT ENERGY     -1339.875057931399

DIPOLE MOMENT
-------------
                                X             Y             Z
Electronic contribution:    -13.28177      14.62214     -21.95282
Nuclear contribution   :     13.69224     -14.77290      22.43539
                        -----------------------------------------
Total Dipole Moment    :      0.41047      -0.15076       0.48257
                        -----------------------------------------
Magnitude (a.u.)       :      0.65122
Magnitude (Debye)      :      1.65527

Rotational constants in cm-1:     0.017294     0.009076     0.006538
Rotational constants in MHz :   518.457336   272.094179   196.009931

                             ****ORCA TERMINATED NORMALLY****
TOTAL RUN TIME: 0 days 0 hours 0 minutes 21 seconds 250 msec
