                         Program Version 4.2.1 -  RELEASE  -
|  1> ! wB97X-D3 SP def2-SVP
|  2> %pal
|  3> nprocs 24
|  4> end
|  5>
|  6> * xyz 0 1
|  7> S 	 -91.0328 	 -12.4752 	 -117.69
|  8> C 	 -89.4575 	 -13.1009 	 -117.642
|  9> C 	 -88.5962 	 -12.1176 	 -118.128
| 10> C 	 -89.2166 	 -10.8673 	 -118.247
| 11> C 	 -90.5409 	 -10.8864 	 -117.997
| 12> H 	 -88.6866 	 -9.96531 	 -118.651
| 13> C 	 -87.1321 	 -12.3084 	 -118.32
| 14> H 	 -86.8432 	 -13.412 	 -118.315
| 15> H 	 -86.7058 	 -11.8337 	 -117.415
| 16> C 	 -86.491 	 -11.6869 	 -119.559
| 17> H 	 -86.6563 	 -10.6099 	 -119.548
| 18> H 	 -85.3907 	 -11.7968 	 -119.658
| 19> C 	 -86.9706 	 -12.2797 	 -120.862
| 20> H 	 -86.7798 	 -11.6379 	 -121.747
| 21> H 	 -86.3975 	 -13.2197 	 -120.991
| 22> H 	 -87.9968 	 -12.6795 	 -120.857
| 23> S 	 -92.2599 	 -9.62778 	 -116.303
| 24> C 	 -92.9695 	 -8.16302 	 -116.859
| 25> C 	 -92.7551 	 -7.88803 	 -118.155
| 26> C 	 -91.7771 	 -8.73828 	 -118.71
| 27> C 	 -91.4551 	 -9.74675 	 -117.854
| 28> H 	 -93.1189 	 -6.98102 	 -118.617
| 29> C 	 -91.284 	 -8.52298 	 -120.135
| 30> H 	 -92.209 	 -8.39508 	 -120.697
| 31> H 	 -90.844 	 -9.42188 	 -120.595
| 32> C 	 -90.2596 	 -7.367 	 -120.177
| 33> H 	 -89.424 	 -7.61384 	 -119.486
| 34> H 	 -90.6782 	 -6.45334 	 -119.79
| 35> C 	 -89.8209 	 -7.0026 	 -121.583
| 36> H 	 -89.1552 	 -7.78951 	 -121.988
| 37> H 	 -89.3282 	 -6.03762 	 -121.625
| 38> H 	 -90.7557 	 -6.92191 	 -122.169
| 39> H 	 -89.2121 	 -14.1679 	 -117.622
| 40> H 	 -93.7003 	 -7.63202 	 -116.32
| 41> *
| 42>
| 43>                          ****END OF INPUT****

CARTESIAN COORDINATES (ANGSTROEM)
---------------------------------
  S    -91.032800  -12.475200  -117.690000
  C    -89.457500  -13.100900  -117.642000
  C    -88.596200  -12.117600  -118.128000
  C    -89.216600  -10.867300  -118.247000
  C    -90.540900  -10.886400  -117.997000
  H    -88.686600   -9.965310  -118.651000
  C    -87.132100  -12.308400  -118.320000
  H    -86.843200  -13.412000  -118.315000
  H    -86.705800  -11.833700  -117.415000
  C    -86.491000  -11.686900  -119.559000
  H    -86.656300  -10.609900  -119.548000
  H    -85.390700  -11.796800  -119.658000
  C    -86.970600  -12.279700  -120.862000
  H    -86.779800  -11.637900  -121.747000
  H    -86.397500  -13.219700  -120.991000
  H    -87.996800  -12.679500  -120.857000
  S    -92.259900   -9.627780  -116.303000
  C    -92.969500   -8.163020  -116.859000
  C    -92.755100   -7.888030  -118.155000
  C    -91.777100   -8.738280  -118.710000
  C    -91.455100   -9.746750  -117.854000
  H    -93.118900   -6.981020  -118.617000
  C    -91.284000   -8.522980  -120.135000
  H    -92.209000   -8.395080  -120.697000
  H    -90.844000   -9.421880  -120.595000
  C    -90.259600   -7.367000  -120.177000
  H    -89.424000   -7.613840  -119.486000
  H    -90.678200   -6.453340  -119.790000
  C    -89.820900   -7.002600  -121.583000
  H    -89.155200   -7.789510  -121.988000
  H    -89.328200   -6.037620  -121.625000
  H    -90.755700   -6.921910  -122.169000
  H    -89.212100  -14.167900  -117.622000
  H    -93.700300   -7.632020  -116.320000

 Total Charge           Charge          ....    0
 Multiplicity           Mult            ....    1
 Number of Electrons    NEL             ....  134
 Basis Dimension        Dim             ....  322

ORBITAL ENERGIES
----------------

  NO   OCC          E(Eh)            E(eV)
   0   2.0000     -88.964204     -2420.8391
   1   2.0000     -88.961505     -2420.7656
   2   2.0000     -10.320783      -280.8428
   3   2.0000     -10.319482      -280.8074
   4   2.0000     -10.307359      -280.4775
   5   2.0000     -10.305973      -280.4398
   6   2.0000     -10.297112      -280.1987
   7   2.0000     -10.295697      -280.1602
   8   2.0000     -10.295481      -280.1543
   9   2.0000     -10.293963      -280.1130
  10   2.0000     -10.287981      -279.9502
  11   2.0000     -10.287044      -279.9247
  12   2.0000     -10.286913      -279.9211
  13   2.0000     -10.285486      -279.8823
  14   2.0000     -10.280652      -279.7508
  15   2.0000     -10.277164      -279.6559
  16   2.0000      -8.079810      -219.8628
  17   2.0000      -8.078361      -219.8234
  18   2.0000      -6.038183      -164.3073
  19   2.0000      -6.036629      -164.2650
  20   2.0000      -6.034361      -164.2033
  21   2.0000      -6.032517      -164.1531
  22   2.0000      -6.030476      -164.0976
  23   2.0000      -6.029293      -164.0654
  24   2.0000      -1.020764       -27.7764
  25   2.0000      -0.998240       -27.1635
  26   2.0000      -0.916082       -24.9279
  27   2.0000      -0.911565       -24.8050
  28   2.0000      -0.872426       -23.7399
  29   2.0000      -0.856819       -23.3152
  30   2.0000      -0.849379       -23.1128
  31   2.0000      -0.819030       -22.2869
  32   2.0000      -0.782963       -21.3055
  33   2.0000      -0.771148       -20.9840
  34   2.0000      -0.706120       -19.2145
  35   2.0000      -0.697538       -18.9810
  36   2.0000      -0.690638       -18.7932
  37   2.0000      -0.662755       -18.0345
  38   2.0000      -0.637433       -17.3454
  39   2.0000      -0.625592       -17.0232
  40   2.0000      -0.601568       -16.3695
  41   2.0000      -0.567922       -15.4539
  42   2.0000      -0.563150       -15.3241
  43   2.0000      -0.557391       -15.1674
  44   2.0000      -0.541388       -14.7319
  45   2.0000      -0.528362       -14.3775
  46   2.0000      -0.521607       -14.1937
  47   2.0000      -0.515687       -14.0326
  48   2.0000      -0.503385       -13.6978
  49   2.0000      -0.495152       -13.4738
  50   2.0000      -0.489641       -13.3238
  51   2.0000      -0.481452       -13.1010
  52   2.0000      -0.474026       -12.8989
  53   2.0000      -0.464323       -12.6349
  54   2.0000      -0.457943       -12.4612
  55   2.0000      -0.455110       -12.3842
  56   2.0000      -0.440043       -11.9742
  57   2.0000      -0.437043       -11.8925
  58   2.0000      -0.435927       -11.8622
  59   2.0000      -0.426385       -11.6025
  60   2.0000      -0.420169       -11.4334
  61   2.0000      -0.418006       -11.3745
  62   2.0000      -0.408108       -11.1052
  63   2.0000      -0.348227        -9.4757
  64   2.0000      -0.334309        -9.0970
  65   2.0000      -0.325167        -8.8482
  66   2.0000      -0.297077        -8.0839
  67   0.0000       0.041388         1.1262
  68   0.0000       0.072183         1.9642
  69   0.0000       0.118911         3.2357
  70   0.0000       0.121080         3.2947
  71   0.0000       0.127706         3.4751

MULLIKEN ATOMIC CHARGES
-----------------------
   0 S :    0.122395
   1 C :   -0.129111
   2 C :   -0.108770
   3 C :    0.013337
   4 C :   -0.150827
   5 H :    0.022358
   6 C :    0.048538
   7 H :    0.025770
   8 H :    0.051160
   9 C :   -0.081150
  10 H :    0.022872
  11 H :    0.036879
  12 C :   -0.075244
  13 H :    0.044418
  14 H :    0.020511
  15 H :    0.038980
  16 S :    0.121123
  17 C :   -0.057841
  18 C :   -0.032080
  19 C :   -0.033537
  20 C :   -0.167996
  21 H :    0.016229
  22 C :    0.066210
  23 H :    0.027591
  24 H :    0.027690
  25 C :   -0.091569
  26 H :    0.034910
  27 H :    0.018533
  28 C :   -0.029567
  29 H :    0.038090
  30 H :    0.037177
  31 H :    0.030376
  32 H :    0.059229
  33 H :    0.033315
Sum of atomic charges:    0.0000000

LOEWDIN ATOMIC CHARGES
----------------------
   0 S :    0.452118
   1 C :   -0.227015
   2 C :   -0.069747
   3 C :   -0.076689
   4 C :   -0.212576
   5 H :    0.037396
   6 C :   -0.036414
   7 H :    0.033557
   8 H :    0.042057
   9 C :   -0.052018
  10 H :    0.016928
  11 H :    0.032546
  12 C :   -0.075274
  13 H :    0.030397
  14 H :    0.025949
  15 H :    0.026028
  16 S :    0.416084
  17 C :   -0.178965
  18 C :   -0.070172
  19 C :   -0.053830
  20 C :   -0.197137
  21 H :    0.032188
  22 C :   -0.029501
  23 H :    0.032054
  24 H :    0.031060
  25 C :   -0.042521
  26 H :    0.025962
  27 H :    0.020268
  28 C :   -0.066056
  29 H :    0.026705
  30 H :    0.025692
  31 H :    0.029328
  32 H :    0.033330
  33 H :    0.018269

  Mayer bond orders larger than 0.100000
B(  0-S ,  1-C ) :   1.1594 B(  0-S ,  4-C ) :   1.1975 B(  1-C ,  2-C ) :   1.5565
B(  1-C , 32-H ) :   0.9661 B(  2-C ,  3-C ) :   1.2801 B(  2-C ,  6-C ) :   1.0250
B(  3-C ,  4-C ) :   1.5543 B(  3-C ,  5-H ) :   0.9869 B(  4-C , 20-C ) :   0.9906
B(  6-C ,  7-H ) :   0.9464 B(  6-C ,  8-H ) :   0.9344 B(  6-C ,  9-C ) :   1.0764
B(  9-C , 10-H ) :   0.9547 B(  9-C , 11-H ) :   0.9581 B(  9-C , 12-C ) :   1.0635
B( 12-C , 13-H ) :   0.9742 B( 12-C , 14-H ) :   0.9748 B( 12-C , 15-H ) :   0.9780
B( 16-S , 17-C ) :   1.1519 B( 16-S , 20-C ) :   1.1410 B( 17-C , 18-C ) :   1.6453
B( 17-C , 33-H ) :   0.9650 B( 18-C , 19-C ) :   1.2248 B( 18-C , 21-H ) :   0.9849
B( 19-C , 20-C ) :   1.6436 B( 19-C , 22-C ) :   1.0371 B( 22-C , 23-H ) :   0.9355
B( 22-C , 24-H ) :   0.9367 B( 22-C , 25-C ) :   1.0531 B( 25-C , 26-H ) :   0.9523
B( 25-C , 27-H ) :   0.9569 B( 25-C , 28-C ) :   1.0830 B( 28-C , 29-H ) :   0.9746
B( 28-C , 30-H ) :   0.9750 B( 28-C , 31-H ) :   0.9711

Dispersion correction           -0.014527073
FINAL SINGLE POINT ENERGY     -1339.886612833082

DIPOLE MOMENT
-------------
                                X             Y             Z
Electronic contribution:    -19.87663      -7.77015      21.97995
Nuclear contribution   :     20.19091       8.12400     -22.44506
                        -----------------------------------------
Total Dipole Moment    :      0.31427       0.35385      -0.46510
                        -----------------------------------------
Magnitude (a.u.)       :      0.66355
Magnitude (Debye)      :      1.68661

Rotational constants in cm-1:     0.016928     0.010341     0.006982
Rotational constants in MHz :   507.495836   310.022480   209.305112

                             ****ORCA TERMINATED NORMALLY****
TOTAL RUN TIME: 0 days 0 hours 0 minutes 21 seconds 135 msec
