                         Program Version 4.2.1 -  RELEASE  -
|  1> ! wB97X-D3 SP def2-SVP
|  2> %pal
|  3> nprocs 24
|  4> end
|  5>
|  6> * xyz 0 1
|  7> S 	 -44.5556 	 12.8573 	 36.2064
|  8> C 	 -43.0085 	 12.1308 	 36.543
|  9> C 	 -42.3719 	 11.7799 	 35.3651
| 10> C 	 -43.0806 	 12.2556 	 34.1982
| 11> C 	 -44.2369 	 12.9407 	 34.4631
| 12> H 	 -42.8834 	 12.0854 	 33.1403
| 13> C 	 -40.9432 	 11.151 	 35.2134
| 14> H 	 -40.9972 	 10.2568 	 34.5781
| 15> H 	 -40.6705 	 10.7412 	 36.1459
| 16> C 	 -39.8032 	 12.0594 	 34.768
| 17> H 	 -39.464 	 11.7626 	 33.8012
| 18> H 	 -40.3032 	 13.0051 	 34.5825
| 19> C 	 -38.6617 	 12.3224 	 35.7584
| 20> H 	 -39.2668 	 12.4181 	 36.6885
| 21> H 	 -37.9716 	 11.4634 	 35.8678
| 22> H 	 -38.214 	 13.3051 	 35.702
| 23> S 	 -46.6487 	 12.3405 	 33.3435
| 24> C 	 -47.3428 	 13.3031 	 32.0962
| 25> C 	 -46.5522 	 14.3975 	 31.8547
| 26> C 	 -45.2915 	 14.3956 	 32.5616
| 27> C 	 -45.2775 	 13.3976 	 33.552
| 28> H 	 -46.8641 	 15.1381 	 31.158
| 29> C 	 -44.1745 	 15.5198 	 32.5201
| 30> H 	 -43.4537 	 15.299 	 33.3192
| 31> H 	 -44.6351 	 16.474 	 32.8858
| 32> C 	 -43.4901 	 15.8018 	 31.1928
| 33> H 	 -42.9217 	 16.7495 	 31.2276
| 34> H 	 -44.2658 	 15.8912 	 30.3852
| 35> C 	 -42.5067 	 14.7066 	 30.7265
| 36> H 	 -41.9542 	 14.3173 	 31.618
| 37> H 	 -41.8635 	 15.0014 	 29.8799
| 38> H 	 -43.0903 	 13.8719 	 30.2753
| 39> H 	 -42.4907 	 12.06 	 37.4834
| 40> H 	 -48.1972 	 13.015 	 31.4848
| 41> *
| 42>
| 43>                          ****END OF INPUT****

CARTESIAN COORDINATES (ANGSTROEM)
---------------------------------
  S    -44.555600   12.857300   36.206400
  C    -43.008500   12.130800   36.543000
  C    -42.371900   11.779900   35.365100
  C    -43.080600   12.255600   34.198200
  C    -44.236900   12.940700   34.463100
  H    -42.883400   12.085400   33.140300
  C    -40.943200   11.151000   35.213400
  H    -40.997200   10.256800   34.578100
  H    -40.670500   10.741200   36.145900
  C    -39.803200   12.059400   34.768000
  H    -39.464000   11.762600   33.801200
  H    -40.303200   13.005100   34.582500
  C    -38.661700   12.322400   35.758400
  H    -39.266800   12.418100   36.688500
  H    -37.971600   11.463400   35.867800
  H    -38.214000   13.305100   35.702000
  S    -46.648700   12.340500   33.343500
  C    -47.342800   13.303100   32.096200
  C    -46.552200   14.397500   31.854700
  C    -45.291500   14.395600   32.561600
  C    -45.277500   13.397600   33.552000
  H    -46.864100   15.138100   31.158000
  C    -44.174500   15.519800   32.520100
  H    -43.453700   15.299000   33.319200
  H    -44.635100   16.474000   32.885800
  C    -43.490100   15.801800   31.192800
  H    -42.921700   16.749500   31.227600
  H    -44.265800   15.891200   30.385200
  C    -42.506700   14.706600   30.726500
  H    -41.954200   14.317300   31.618000
  H    -41.863500   15.001400   29.879900
  H    -43.090300   13.871900   30.275300
  H    -42.490700   12.060000   37.483400
  H    -48.197200   13.015000   31.484800

 Total Charge           Charge          ....    0
 Multiplicity           Mult            ....    1
 Number of Electrons    NEL             ....  134
 Basis Dimension        Dim             ....  322

ORBITAL ENERGIES
----------------

  NO   OCC          E(Eh)            E(eV)
   0   2.0000     -88.964994     -2420.8606
   1   2.0000     -88.964703     -2420.8526
   2   2.0000     -10.330744      -281.1138
   3   2.0000     -10.328267      -281.0464
   4   2.0000     -10.317447      -280.7520
   5   2.0000     -10.317418      -280.7512
   6   2.0000     -10.313326      -280.6399
   7   2.0000     -10.307792      -280.4893
   8   2.0000     -10.300058      -280.2788
   9   2.0000     -10.296614      -280.1851
  10   2.0000     -10.294495      -280.1275
  11   2.0000     -10.291878      -280.0562
  12   2.0000     -10.290805      -280.0270
  13   2.0000     -10.283475      -279.8276
  14   2.0000     -10.281802      -279.7821
  15   2.0000     -10.280518      -279.7471
  16   2.0000      -8.080157      -219.8723
  17   2.0000      -8.079588      -219.8568
  18   2.0000      -6.038589      -164.3184
  19   2.0000      -6.038157      -164.3066
  20   2.0000      -6.034398      -164.2043
  21   2.0000      -6.034103      -164.1963
  22   2.0000      -6.031094      -164.1144
  23   2.0000      -6.030280      -164.0923
  24   2.0000      -1.007728       -27.4217
  25   2.0000      -0.984921       -26.8011
  26   2.0000      -0.910313       -24.7709
  27   2.0000      -0.902853       -24.5679
  28   2.0000      -0.873301       -23.7637
  29   2.0000      -0.845460       -23.0061
  30   2.0000      -0.842471       -22.9248
  31   2.0000      -0.816609       -22.2211
  32   2.0000      -0.782612       -21.2960
  33   2.0000      -0.773770       -21.0554
  34   2.0000      -0.708160       -19.2700
  35   2.0000      -0.695085       -18.9142
  36   2.0000      -0.691285       -18.8108
  37   2.0000      -0.653236       -17.7755
  38   2.0000      -0.647619       -17.6226
  39   2.0000      -0.616771       -16.7832
  40   2.0000      -0.596729       -16.2378
  41   2.0000      -0.574531       -15.6338
  42   2.0000      -0.557126       -15.1602
  43   2.0000      -0.547720       -14.9042
  44   2.0000      -0.542579       -14.7643
  45   2.0000      -0.531476       -14.4622
  46   2.0000      -0.522236       -14.2108
  47   2.0000      -0.514199       -13.9921
  48   2.0000      -0.503882       -13.7113
  49   2.0000      -0.494961       -13.4686
  50   2.0000      -0.489313       -13.3149
  51   2.0000      -0.476235       -12.9590
  52   2.0000      -0.468642       -12.7524
  53   2.0000      -0.464088       -12.6285
  54   2.0000      -0.462684       -12.5903
  55   2.0000      -0.445264       -12.1162
  56   2.0000      -0.440112       -11.9760
  57   2.0000      -0.435431       -11.8487
  58   2.0000      -0.434184       -11.8148
  59   2.0000      -0.419584       -11.4175
  60   2.0000      -0.418391       -11.3850
  61   2.0000      -0.411724       -11.2036
  62   2.0000      -0.410521       -11.1708
  63   2.0000      -0.344961        -9.3869
  64   2.0000      -0.330471        -8.9926
  65   2.0000      -0.327530        -8.9125
  66   2.0000      -0.304245        -8.2789
  67   0.0000       0.040292         1.0964
  68   0.0000       0.053286         1.4500
  69   0.0000       0.114934         3.1275
  70   0.0000       0.119664         3.2562
  71   0.0000       0.129335         3.5194

MULLIKEN ATOMIC CHARGES
-----------------------
   0 S :    0.102072
   1 C :   -0.093579
   2 C :   -0.120292
   3 C :    0.054777
   4 C :   -0.185930
   5 H :    0.021196
   6 C :    0.078134
   7 H :    0.034722
   8 H :   -0.007590
   9 C :   -0.054485
  10 H :    0.016609
  11 H :    0.024558
  12 C :   -0.052644
  13 H :    0.016482
  14 H :    0.051835
  15 H :    0.040221
  16 S :    0.118344
  17 C :   -0.094100
  18 C :   -0.026559
  19 C :   -0.020476
  20 C :   -0.166168
  21 H :    0.010669
  22 C :    0.036147
  23 H :    0.032197
  24 H :    0.045380
  25 C :   -0.083077
  26 H :    0.038624
  27 H :    0.032687
  28 C :   -0.083015
  29 H :    0.041070
  30 H :    0.041358
  31 H :    0.035817
  32 H :    0.047419
  33 H :    0.067596
Sum of atomic charges:   -0.0000000

LOEWDIN ATOMIC CHARGES
----------------------
   0 S :    0.396450
   1 C :   -0.195009
   2 C :   -0.063126
   3 C :   -0.060044
   4 C :   -0.192683
   5 H :    0.035765
   6 C :   -0.029877
   7 H :    0.036202
   8 H :    0.018315
   9 C :   -0.046717
  10 H :    0.016598
  11 H :    0.027229
  12 C :   -0.067622
  13 H :    0.028563
  14 H :    0.029026
  15 H :    0.029209
  16 S :    0.426040
  17 C :   -0.194220
  18 C :   -0.073623
  19 C :   -0.050031
  20 C :   -0.211575
  21 H :    0.025883
  22 C :   -0.033437
  23 H :    0.030965
  24 H :    0.039965
  25 C :   -0.050450
  26 H :    0.027910
  27 H :    0.026858
  28 C :   -0.077404
  29 H :    0.026934
  30 H :    0.028579
  31 H :    0.027881
  32 H :    0.031170
  33 H :    0.036275

  Mayer bond orders larger than 0.100000
B(  0-S ,  1-C ) :   1.1386 B(  0-S ,  4-C ) :   1.1351 B(  1-C ,  2-C ) :   1.6330
B(  1-C , 32-H ) :   0.9670 B(  2-C ,  3-C ) :   1.2039 B(  2-C ,  6-C ) :   1.0389
B(  3-C ,  4-C ) :   1.6174 B(  3-C ,  5-H ) :   0.9916 B(  4-C , 20-C ) :   1.0044
B(  6-C ,  7-H ) :   0.9397 B(  6-C ,  8-H ) :   0.9429 B(  6-C ,  9-C ) :   1.0438
B(  9-C , 10-H ) :   0.9537 B(  9-C , 11-H ) :   0.9610 B(  9-C , 12-C ) :   1.0806
B( 12-C , 13-H ) :   0.9724 B( 12-C , 14-H ) :   0.9774 B( 12-C , 15-H ) :   0.9741
B( 16-S , 17-C ) :   1.1655 B( 16-S , 20-C ) :   1.1635 B( 17-C , 18-C ) :   1.5981
B( 17-C , 33-H ) :   0.9671 B( 18-C , 19-C ) :   1.2442 B( 18-C , 21-H ) :   0.9943
B( 19-C , 20-C ) :   1.5824 B( 19-C , 22-C ) :   1.0222 B( 22-C , 23-H ) :   0.9412
B( 22-C , 24-H ) :   0.9436 B( 22-C , 25-C ) :   1.0695 B( 25-C , 26-H ) :   0.9566
B( 25-C , 27-H ) :   0.9584 B( 25-C , 28-C ) :   1.0681 B( 28-C , 29-H ) :   0.9741
B( 28-C , 30-H ) :   0.9740 B( 28-C , 31-H ) :   0.9756

Dispersion correction           -0.014534503
FINAL SINGLE POINT ENERGY     -1339.873762652653

DIPOLE MOMENT
-------------
                                X             Y             Z
Electronic contribution:    -27.36180      -5.93806       9.03131
Nuclear contribution   :     27.80612       6.10002      -9.44808
                        -----------------------------------------
Total Dipole Moment    :      0.44432       0.16196      -0.41677
                        -----------------------------------------
Magnitude (a.u.)       :      0.63036
Magnitude (Debye)      :      1.60224

Rotational constants in cm-1:     0.018640     0.008846     0.006713
Rotational constants in MHz :   558.811395   265.209581   201.241907

                             ****ORCA TERMINATED NORMALLY****
TOTAL RUN TIME: 0 days 0 hours 0 minutes 21 seconds 552 msec
