                         Program Version 4.2.1 -  RELEASE  -
|  1> ! wB97X-D3 SP def2-SVP
|  2> %pal
|  3> nprocs 24
|  4> end
|  5>
|  6> * xyz 0 1
|  7> S 	 -95.4379 	 -5.97413 	 -120.022
|  8> C 	 -96.8853 	 -5.39898 	 -120.641
|  9> C 	 -97.8283 	 -5.07529 	 -119.644
| 10> C 	 -97.3055 	 -5.37632 	 -118.339
| 11> C 	 -96.0857 	 -5.98634 	 -118.353
| 12> H 	 -97.8217 	 -5.14553 	 -117.38
| 13> C 	 -99.2309 	 -4.71078 	 -119.97
| 14> H 	 -99.1515 	 -4.16902 	 -120.87
| 15> H 	 -99.6502 	 -4.01281 	 -119.203
| 16> C 	 -100.204 	 -5.84672 	 -120.268
| 17> H 	 -99.7118 	 -6.57174 	 -121.002
| 18> H 	 -100.53 	 -6.41802 	 -119.406
| 19> C 	 -101.515 	 -5.31063 	 -120.958
| 20> H 	 -101.309 	 -4.85689 	 -121.903
| 21> H 	 -102.117 	 -6.16154 	 -121.251
| 22> H 	 -102.148 	 -4.5898 	 -120.419
| 23> S 	 -93.6527 	 -6.02694 	 -117.236
| 24> C 	 -93.3622 	 -6.70909 	 -115.677
| 25> C 	 -94.5096 	 -7.12538 	 -115.05
| 26> C 	 -95.63 	 -7.03504 	 -115.966
| 27> C 	 -95.2983 	 -6.37689 	 -117.169
| 28> H 	 -94.3942 	 -7.38075 	 -113.985
| 29> C 	 -97.0817 	 -7.42197 	 -115.525
| 30> H 	 -97.7268 	 -6.58541 	 -115.28
| 31> H 	 -96.9678 	 -7.94434 	 -114.587
| 32> C 	 -97.9674 	 -8.39114 	 -116.39
| 33> H 	 -98.3174 	 -7.87429 	 -117.351
| 34> H 	 -98.8006 	 -8.71046 	 -115.806
| 35> C 	 -97.2162 	 -9.77102 	 -116.63
| 36> H 	 -97.8235 	 -10.4724 	 -117.168
| 37> H 	 -97.0187 	 -10.2712 	 -115.637
| 38> H 	 -96.3285 	 -9.72237 	 -117.229
| 39> H 	 -97.1888 	 -5.16646 	 -121.614
| 40> H 	 -92.4112 	 -6.75896 	 -115.27
| 41> *
| 42>
| 43>                          ****END OF INPUT****

CARTESIAN COORDINATES (ANGSTROEM)
---------------------------------
  S    -95.437900   -5.974130  -120.022000
  C    -96.885300   -5.398980  -120.641000
  C    -97.828300   -5.075290  -119.644000
  C    -97.305500   -5.376320  -118.339000
  C    -96.085700   -5.986340  -118.353000
  H    -97.821700   -5.145530  -117.380000
  C    -99.230900   -4.710780  -119.970000
  H    -99.151500   -4.169020  -120.870000
  H    -99.650200   -4.012810  -119.203000
  C    -100.204000   -5.846720  -120.268000
  H    -99.711800   -6.571740  -121.002000
  H    -100.530000   -6.418020  -119.406000
  C    -101.515000   -5.310630  -120.958000
  H    -101.309000   -4.856890  -121.903000
  H    -102.117000   -6.161540  -121.251000
  H    -102.148000   -4.589800  -120.419000
  S    -93.652700   -6.026940  -117.236000
  C    -93.362200   -6.709090  -115.677000
  C    -94.509600   -7.125380  -115.050000
  C    -95.630000   -7.035040  -115.966000
  C    -95.298300   -6.376890  -117.169000
  H    -94.394200   -7.380750  -113.985000
  C    -97.081700   -7.421970  -115.525000
  H    -97.726800   -6.585410  -115.280000
  H    -96.967800   -7.944340  -114.587000
  C    -97.967400   -8.391140  -116.390000
  H    -98.317400   -7.874290  -117.351000
  H    -98.800600   -8.710460  -115.806000
  C    -97.216200   -9.771020  -116.630000
  H    -97.823500  -10.472400  -117.168000
  H    -97.018700  -10.271200  -115.637000
  H    -96.328500   -9.722370  -117.229000
  H    -97.188800   -5.166460  -121.614000
  H    -92.411200   -6.758960  -115.270000

 Total Charge           Charge          ....    0
 Multiplicity           Mult            ....    1
 Number of Electrons    NEL             ....  134
 Basis Dimension        Dim             ....  322

ORBITAL ENERGIES
----------------

  NO   OCC          E(Eh)            E(eV)
   0   2.0000     -88.970722     -2421.0164
   1   2.0000     -88.964001     -2420.8335
   2   2.0000     -10.331159      -281.1251
   3   2.0000     -10.325907      -280.9822
   4   2.0000     -10.311905      -280.6012
   5   2.0000     -10.308731      -280.5148
   6   2.0000     -10.307786      -280.4891
   7   2.0000     -10.298550      -280.2378
   8   2.0000     -10.298529      -280.2372
   9   2.0000     -10.295969      -280.1675
  10   2.0000     -10.295790      -280.1627
  11   2.0000     -10.292444      -280.0716
  12   2.0000     -10.290990      -280.0321
  13   2.0000     -10.289640      -279.9953
  14   2.0000     -10.278807      -279.7006
  15   2.0000     -10.272530      -279.5298
  16   2.0000      -8.085751      -220.0245
  17   2.0000      -8.080668      -219.8861
  18   2.0000      -6.044287      -164.4734
  19   2.0000      -6.040177      -164.3616
  20   2.0000      -6.038903      -164.3269
  21   2.0000      -6.036502      -164.2616
  22   2.0000      -6.034842      -164.2164
  23   2.0000      -6.031659      -164.1298
  24   2.0000      -1.012461       -27.5505
  25   2.0000      -0.990623       -26.9562
  26   2.0000      -0.912636       -24.8341
  27   2.0000      -0.894183       -24.3320
  28   2.0000      -0.873251       -23.7624
  29   2.0000      -0.851779       -23.1781
  30   2.0000      -0.840869       -22.8812
  31   2.0000      -0.818830       -22.2815
  32   2.0000      -0.779253       -21.2045
  33   2.0000      -0.770057       -20.9543
  34   2.0000      -0.708504       -19.2794
  35   2.0000      -0.701833       -19.0979
  36   2.0000      -0.687017       -18.6947
  37   2.0000      -0.665383       -18.1060
  38   2.0000      -0.639067       -17.3899
  39   2.0000      -0.621689       -16.9170
  40   2.0000      -0.586208       -15.9515
  41   2.0000      -0.572780       -15.5861
  42   2.0000      -0.561221       -15.2716
  43   2.0000      -0.551320       -15.0022
  44   2.0000      -0.535864       -14.5816
  45   2.0000      -0.521753       -14.1976
  46   2.0000      -0.520396       -14.1607
  47   2.0000      -0.507563       -13.8115
  48   2.0000      -0.503354       -13.6970
  49   2.0000      -0.496408       -13.5079
  50   2.0000      -0.490344       -13.3429
  51   2.0000      -0.472874       -12.8675
  52   2.0000      -0.470567       -12.8048
  53   2.0000      -0.466008       -12.6807
  54   2.0000      -0.459235       -12.4964
  55   2.0000      -0.447767       -12.1843
  56   2.0000      -0.443129       -12.0582
  57   2.0000      -0.438691       -11.9374
  58   2.0000      -0.426796       -11.6137
  59   2.0000      -0.425507       -11.5786
  60   2.0000      -0.422325       -11.4920
  61   2.0000      -0.419500       -11.4152
  62   2.0000      -0.412356       -11.2208
  63   2.0000      -0.357411        -9.7257
  64   2.0000      -0.333546        -9.0762
  65   2.0000      -0.324862        -8.8399
  66   2.0000      -0.287659        -7.8276
  67   0.0000       0.028486         0.7752
  68   0.0000       0.076880         2.0920
  69   0.0000       0.106331         2.8934
  70   0.0000       0.122061         3.3214
  71   0.0000       0.132895         3.6162

MULLIKEN ATOMIC CHARGES
-----------------------
   0 S :    0.130379
   1 C :   -0.063680
   2 C :   -0.125675
   3 C :    0.012888
   4 C :   -0.129992
   5 H :    0.030017
   6 C :    0.082913
   7 H :    0.000661
   8 H :    0.032109
   9 C :   -0.077902
  10 H :    0.037468
  11 H :    0.036452
  12 C :   -0.057499
  13 H :    0.016915
  14 H :    0.029545
  15 H :    0.039243
  16 S :    0.109162
  17 C :   -0.079015
  18 C :   -0.042337
  19 C :   -0.035890
  20 C :   -0.143120
  21 H :    0.038692
  22 C :    0.046014
  23 H :    0.038399
  24 H :    0.003785
  25 C :   -0.080459
  26 H :    0.056271
  27 H :    0.026632
  28 C :   -0.071493
  29 H :    0.020951
  30 H :    0.030277
  31 H :    0.041608
  32 H :    0.017533
  33 H :    0.029147
Sum of atomic charges:   -0.0000000

LOEWDIN ATOMIC CHARGES
----------------------
   0 S :    0.422658
   1 C :   -0.210786
   2 C :   -0.065844
   3 C :   -0.060318
   4 C :   -0.188140
   5 H :    0.040030
   6 C :   -0.039424
   7 H :    0.024502
   8 H :    0.036041
   9 C :   -0.035150
  10 H :    0.033182
  11 H :    0.021885
  12 C :   -0.070027
  13 H :    0.018245
  14 H :    0.026956
  15 H :    0.026381
  16 S :    0.443647
  17 C :   -0.184117
  18 C :   -0.071371
  19 C :   -0.058762
  20 C :   -0.214958
  21 H :    0.043102
  22 C :   -0.036819
  23 H :    0.027117
  24 H :    0.026108
  25 C :   -0.038861
  26 H :    0.029875
  27 H :    0.021474
  28 C :   -0.069583
  29 H :    0.019514
  30 H :    0.028948
  31 H :    0.022186
  32 H :    0.019571
  33 H :    0.012736

  Mayer bond orders larger than 0.100000
B(  0-S ,  1-C ) :   1.1566 B(  0-S ,  4-C ) :   1.1358 B(  1-C ,  2-C ) :   1.5857
B(  1-C , 32-H ) :   0.9675 B(  2-C ,  3-C ) :   1.2503 B(  2-C ,  6-C ) :   1.0497
B(  3-C ,  4-C ) :   1.5713 B(  3-C ,  5-H ) :   0.9883 B(  4-C , 20-C ) :   1.0481
B(  6-C ,  7-H ) :   0.9278 B(  6-C ,  8-H ) :   0.9358 B(  6-C ,  9-C ) :   1.0632
B(  9-C , 10-H ) :   0.9536 B(  9-C , 11-H ) :   0.9574 B(  9-C , 12-C ) :   1.0733
B( 12-C , 13-H ) :   0.9746 B( 12-C , 14-H ) :   0.9741 B( 12-C , 15-H ) :   0.9777
B( 16-S , 17-C ) :   1.1695 B( 16-S , 20-C ) :   1.1712 B( 17-C , 18-C ) :   1.6063
B( 17-C , 33-H ) :   0.9758 B( 18-C , 19-C ) :   1.2437 B( 18-C , 21-H ) :   0.9883
B( 19-C , 20-C ) :   1.5630 B( 19-C , 22-C ) :   1.0248 B( 22-C , 23-H ) :   0.9441
B( 22-C , 24-H ) :   0.9334 B( 22-C , 25-C ) :   1.0762 B( 25-C , 26-H ) :   0.9531
B( 25-C , 27-H ) :   0.9556 B( 25-C , 28-C ) :   1.0663 B( 28-C , 29-H ) :   0.9766
B( 28-C , 30-H ) :   0.9761 B( 28-C , 31-H ) :   0.9784

Dispersion correction           -0.014617638
FINAL SINGLE POINT ENERGY     -1339.871130059393

DIPOLE MOMENT
-------------
                                X             Y             Z
Electronic contribution:     28.84245       7.63658      -0.21340
Nuclear contribution   :    -29.39119      -7.61502       0.41601
                        -----------------------------------------
Total Dipole Moment    :     -0.54874       0.02156       0.20261
                        -----------------------------------------
Magnitude (a.u.)       :      0.58535
Magnitude (Debye)      :      1.48784

Rotational constants in cm-1:     0.020980     0.008569     0.006780
Rotational constants in MHz :   628.978198   256.898542   203.267139

                             ****ORCA TERMINATED NORMALLY****
TOTAL RUN TIME: 0 days 0 hours 0 minutes 21 seconds 989 msec
