                         Program Version 4.2.1 -  RELEASE  -
|  1> ! wB97X-D3 SP def2-SVP
|  2> %pal
|  3> nprocs 24
|  4> end
|  5>
|  6> * xyz 0 1
|  7> S 	 17.4122 	 -13.3562 	 -119.343
|  8> C 	 16.6958 	 -11.8384 	 -118.885
|  9> C 	 15.3885 	 -11.9502 	 -118.619
| 10> C 	 14.9513 	 -13.2924 	 -118.88
| 11> C 	 15.8969 	 -14.1701 	 -119.287
| 12> H 	 13.9176 	 -13.6123 	 -118.734
| 13> C 	 14.5659 	 -10.834 	 -118.1
| 14> H 	 15.1766 	 -9.92496 	 -117.805
| 15> H 	 14.1374 	 -11.2718 	 -117.204
| 16> C 	 13.4578 	 -10.4036 	 -119.116
| 17> H 	 13.8526 	 -9.87186 	 -119.969
| 18> H 	 13.0962 	 -11.2268 	 -119.619
| 19> C 	 12.2837 	 -9.65709 	 -118.503
| 20> H 	 11.5499 	 -9.48685 	 -119.25
| 21> H 	 11.8521 	 -10.2049 	 -117.663
| 22> H 	 12.5513 	 -8.66044 	 -118.133
| 23> S 	 14.5343 	 -15.9225 	 -120.84
| 24> C 	 14.9147 	 -17.6372 	 -120.536
| 25> C 	 15.9439 	 -17.898 	 -119.675
| 26> C 	 16.4674 	 -16.6431 	 -119.168
| 27> C 	 15.7353 	 -15.5511 	 -119.645
| 28> H 	 16.1813 	 -18.9304 	 -119.451
| 29> C 	 17.8192 	 -16.6355 	 -118.376
| 30> H 	 18.6363 	 -16.273 	 -118.985
| 31> H 	 18.0764 	 -17.7303 	 -118.269
| 32> C 	 17.7967 	 -15.9778 	 -116.938
| 33> H 	 17.2954 	 -16.611 	 -116.189
| 34> H 	 17.0291 	 -15.2216 	 -116.946
| 35> C 	 19.263 	 -15.6308 	 -116.426
| 36> H 	 19.1438 	 -15.1097 	 -115.442
| 37> H 	 19.8314 	 -14.9928 	 -117.108
| 38> H 	 19.8687 	 -16.4999 	 -116.259
| 39> H 	 17.2383 	 -10.8604 	 -118.78
| 40> H 	 14.3828 	 -18.3497 	 -121.072
| 41> *
| 42>
| 43>                          ****END OF INPUT****

CARTESIAN COORDINATES (ANGSTROEM)
---------------------------------
  S     17.412200  -13.356200  -119.343000
  C     16.695800  -11.838400  -118.885000
  C     15.388500  -11.950200  -118.619000
  C     14.951300  -13.292400  -118.880000
  C     15.896900  -14.170100  -119.287000
  H     13.917600  -13.612300  -118.734000
  C     14.565900  -10.834000  -118.100000
  H     15.176600   -9.924960  -117.805000
  H     14.137400  -11.271800  -117.204000
  C     13.457800  -10.403600  -119.116000
  H     13.852600   -9.871860  -119.969000
  H     13.096200  -11.226800  -119.619000
  C     12.283700   -9.657090  -118.503000
  H     11.549900   -9.486850  -119.250000
  H     11.852100  -10.204900  -117.663000
  H     12.551300   -8.660440  -118.133000
  S     14.534300  -15.922500  -120.840000
  C     14.914700  -17.637200  -120.536000
  C     15.943900  -17.898000  -119.675000
  C     16.467400  -16.643100  -119.168000
  C     15.735300  -15.551100  -119.645000
  H     16.181300  -18.930400  -119.451000
  C     17.819200  -16.635500  -118.376000
  H     18.636300  -16.273000  -118.985000
  H     18.076400  -17.730300  -118.269000
  C     17.796700  -15.977800  -116.938000
  H     17.295400  -16.611000  -116.189000
  H     17.029100  -15.221600  -116.946000
  C     19.263000  -15.630800  -116.426000
  H     19.143800  -15.109700  -115.442000
  H     19.831400  -14.992800  -117.108000
  H     19.868700  -16.499900  -116.259000
  H     17.238300  -10.860400  -118.780000
  H     14.382800  -18.349700  -121.072000

 Total Charge           Charge          ....    0
 Multiplicity           Mult            ....    1
 Number of Electrons    NEL             ....  134
 Basis Dimension        Dim             ....  322

ORBITAL ENERGIES
----------------

  NO   OCC          E(Eh)            E(eV)
   0   2.0000     -88.969243     -2420.9762
   1   2.0000     -88.958895     -2420.6946
   2   2.0000     -10.324548      -280.9452
   3   2.0000     -10.320012      -280.8218
   4   2.0000     -10.312700      -280.6228
   5   2.0000     -10.309429      -280.5338
   6   2.0000     -10.307083      -280.4700
   7   2.0000     -10.298841      -280.2457
   8   2.0000     -10.297512      -280.2096
   9   2.0000     -10.295670      -280.1594
  10   2.0000     -10.290932      -280.0305
  11   2.0000     -10.288286      -279.9585
  12   2.0000     -10.287851      -279.9467
  13   2.0000     -10.281149      -279.7643
  14   2.0000     -10.278220      -279.6846
  15   2.0000     -10.274157      -279.5740
  16   2.0000      -8.083877      -219.9735
  17   2.0000      -8.074332      -219.7138
  18   2.0000      -6.042253      -164.4181
  19   2.0000      -6.038689      -164.3211
  20   2.0000      -6.034497      -164.2070
  21   2.0000      -6.032889      -164.1632
  22   2.0000      -6.028794      -164.0518
  23   2.0000      -6.024951      -163.9473
  24   2.0000      -1.012228       -27.5441
  25   2.0000      -0.985726       -26.8230
  26   2.0000      -0.913840       -24.8669
  27   2.0000      -0.890973       -24.2446
  28   2.0000      -0.874945       -23.8085
  29   2.0000      -0.850457       -23.1421
  30   2.0000      -0.840401       -22.8685
  31   2.0000      -0.815775       -22.1984
  32   2.0000      -0.781700       -21.2711
  33   2.0000      -0.767649       -20.8888
  34   2.0000      -0.714053       -19.4304
  35   2.0000      -0.705027       -19.1848
  36   2.0000      -0.691515       -18.8171
  37   2.0000      -0.667784       -18.1713
  38   2.0000      -0.634715       -17.2715
  39   2.0000      -0.620489       -16.8844
  40   2.0000      -0.594350       -16.1731
  41   2.0000      -0.567833       -15.4515
  42   2.0000      -0.555161       -15.1067
  43   2.0000      -0.545031       -14.8310
  44   2.0000      -0.529743       -14.4151
  45   2.0000      -0.516220       -14.0471
  46   2.0000      -0.512756       -13.9528
  47   2.0000      -0.509078       -13.8527
  48   2.0000      -0.499705       -13.5977
  49   2.0000      -0.496604       -13.5133
  50   2.0000      -0.493316       -13.4238
  51   2.0000      -0.478462       -13.0196
  52   2.0000      -0.473092       -12.8735
  53   2.0000      -0.466275       -12.6880
  54   2.0000      -0.456423       -12.4199
  55   2.0000      -0.456281       -12.4160
  56   2.0000      -0.447921       -12.1886
  57   2.0000      -0.444439       -12.0938
  58   2.0000      -0.438656       -11.9364
  59   2.0000      -0.421762       -11.4767
  60   2.0000      -0.419051       -11.4030
  61   2.0000      -0.413314       -11.2468
  62   2.0000      -0.400151       -10.8887
  63   2.0000      -0.348005        -9.4697
  64   2.0000      -0.335079        -9.1180
  65   2.0000      -0.325349        -8.8532
  66   2.0000      -0.292410        -7.9569
  67   0.0000       0.035050         0.9538
  68   0.0000       0.079422         2.1612
  69   0.0000       0.101619         2.7652
  70   0.0000       0.119849         3.2613
  71   0.0000       0.132720         3.6115

MULLIKEN ATOMIC CHARGES
-----------------------
   0 S :    0.103763
   1 C :   -0.146656
   2 C :   -0.078689
   3 C :    0.003207
   4 C :   -0.149895
   5 H :    0.005734
   6 C :    0.070390
   7 H :    0.033781
   8 H :    0.029810
   9 C :   -0.050155
  10 H :    0.018014
  11 H :    0.002245
  12 C :   -0.026653
  13 H :    0.025443
  14 H :    0.029851
  15 H :    0.024963
  16 S :    0.120242
  17 C :   -0.076704
  18 C :   -0.016333
  19 C :   -0.040074
  20 C :   -0.139213
  21 H :    0.027692
  22 C :    0.033443
  23 H :    0.045231
  24 H :    0.023120
  25 C :   -0.065368
  26 H :    0.020678
  27 H :    0.035328
  28 C :   -0.056379
  29 H :    0.042005
  30 H :    0.037115
  31 H :    0.031690
  32 H :    0.056189
  33 H :    0.026185
Sum of atomic charges:   -0.0000000

LOEWDIN ATOMIC CHARGES
----------------------
   0 S :    0.415732
   1 C :   -0.203479
   2 C :   -0.073646
   3 C :   -0.072062
   4 C :   -0.203467
   5 H :    0.027649
   6 C :   -0.026253
   7 H :    0.037020
   8 H :    0.033434
   9 C :   -0.037847
  10 H :    0.026485
  11 H :    0.013575
  12 C :   -0.060417
  13 H :    0.022825
  14 H :    0.024856
  15 H :    0.023804
  16 S :    0.404768
  17 C :   -0.159127
  18 C :   -0.062906
  19 C :   -0.052548
  20 C :   -0.202391
  21 H :    0.038088
  22 C :   -0.037506
  23 H :    0.028193
  24 H :    0.033934
  25 C :   -0.046146
  26 H :    0.026354
  27 H :    0.020454
  28 C :   -0.065125
  29 H :    0.033477
  30 H :    0.023519
  31 H :    0.021925
  32 H :    0.038575
  33 H :    0.008254

  Mayer bond orders larger than 0.100000
B(  0-S ,  1-C ) :   1.1275 B(  0-S ,  4-C ) :   1.1458 B(  1-C ,  2-C ) :   1.6533
B(  1-C , 32-H ) :   0.9576 B(  2-C ,  3-C ) :   1.2155 B(  2-C ,  6-C ) :   1.0245
B(  3-C ,  4-C ) :   1.5927 B(  3-C ,  5-H ) :   0.9979 B(  4-C , 20-C ) :   1.0342
B(  6-C ,  7-H ) :   0.9433 B(  6-C ,  8-H ) :   0.9362 B(  6-C ,  9-C ) :   1.0513
B(  9-C , 10-H ) :   0.9471 B(  9-C , 11-H ) :   0.9580 B(  9-C , 12-C ) :   1.0885
B( 12-C , 13-H ) :   0.9717 B( 12-C , 14-H ) :   0.9763 B( 12-C , 15-H ) :   0.9742
B( 16-S , 17-C ) :   1.1374 B( 16-S , 20-C ) :   1.1475 B( 17-C , 18-C ) :   1.6484
B( 17-C , 33-H ) :   0.9721 B( 18-C , 19-C ) :   1.2124 B( 18-C , 21-H ) :   0.9885
B( 19-C , 20-C ) :   1.6033 B( 19-C , 22-C ) :   1.0225 B( 22-C , 23-H ) :   0.9535
B( 22-C , 24-H ) :   0.9383 B( 22-C , 25-C ) :   1.0322 B( 25-C , 26-H ) :   0.9503
B( 25-C , 27-H ) :   0.9695 B( 25-C , 28-C ) :   1.0599 B( 28-C , 29-H ) :   0.9757
B( 28-C , 30-H ) :   0.9800 B( 28-C , 31-H ) :   0.9773

Dispersion correction           -0.014512215
FINAL SINGLE POINT ENERGY     -1339.874730968007

DIPOLE MOMENT
-------------
                                X             Y             Z
Electronic contribution:      1.10335     -10.74265     -14.59086
Nuclear contribution   :     -1.24782      10.73620      14.82488
                        -----------------------------------------
Total Dipole Moment    :     -0.14447      -0.00646       0.23402
                        -----------------------------------------
Magnitude (a.u.)       :      0.27510
Magnitude (Debye)      :      0.69924

Rotational constants in cm-1:     0.018929     0.008769     0.006638
Rotational constants in MHz :   567.488819   262.893540   198.994342

                             ****ORCA TERMINATED NORMALLY****
TOTAL RUN TIME: 0 days 0 hours 0 minutes 22 seconds 510 msec
