                         Program Version 4.2.1 -  RELEASE  -
|  1> ! wB97X-D3 SP def2-SVP
|  2> %pal
|  3> nprocs 24
|  4> end
|  5>
|  6> * xyz 0 1
|  7> S 	 -108.038 	 59.7279 	 -96.9809
|  8> C 	 -106.472 	 59.6688 	 -96.2532
|  9> C 	 -105.892 	 58.4003 	 -96.4564
| 10> C 	 -106.781 	 57.5328 	 -97.2423
| 11> C 	 -108.003 	 58.0661 	 -97.3564
| 12> H 	 -106.6 	 56.4794 	 -97.504
| 13> C 	 -104.582 	 57.9167 	 -95.8449
| 14> H 	 -104.797 	 56.8677 	 -95.6282
| 15> H 	 -104.392 	 58.3473 	 -94.9067
| 16> C 	 -103.32 	 58.026 	 -96.7389
| 17> H 	 -102.467 	 57.7812 	 -96.0772
| 18> H 	 -103.396 	 57.3495 	 -97.5471
| 19> C 	 -103.04 	 59.4928 	 -97.2214
| 20> H 	 -102.004 	 59.5688 	 -97.6554
| 21> H 	 -103.755 	 59.971 	 -97.8636
| 22> H 	 -103.156 	 60.0956 	 -96.3178
| 23> S 	 -109.983 	 58.1426 	 -99.2948
| 24> C 	 -111.234 	 57.0228 	 -99.1775
| 25> C 	 -111.217 	 56.2032 	 -98.1352
| 26> C 	 -110.007 	 56.4794 	 -97.336
| 27> C 	 -109.138 	 57.4181 	 -97.9286
| 28> H 	 -111.974 	 55.4121 	 -98.0931
| 29> C 	 -109.824 	 55.8283 	 -96.0085
| 30> H 	 -108.86 	 55.277 	 -96.033
| 31> H 	 -110.597 	 55.0586 	 -95.9223
| 32> C 	 -109.938 	 56.6426 	 -94.6633
| 33> H 	 -110.87 	 57.2072 	 -94.6813
| 34> H 	 -109.207 	 57.3866 	 -94.4846
| 35> C 	 -110.002 	 55.7967 	 -93.3943
| 36> H 	 -109.092 	 55.3265 	 -93.01
| 37> H 	 -110.817 	 55.0555 	 -93.5577
| 38> H 	 -110.296 	 56.4504 	 -92.5629
| 39> H 	 -106.089 	 60.509 	 -95.6709
| 40> H 	 -111.996 	 56.9639 	 -99.9634
| 41> *
| 42>
| 43>                          ****END OF INPUT****

CARTESIAN COORDINATES (ANGSTROEM)
---------------------------------
  S    -108.038000   59.727900  -96.980900
  C    -106.472000   59.668800  -96.253200
  C    -105.892000   58.400300  -96.456400
  C    -106.781000   57.532800  -97.242300
  C    -108.003000   58.066100  -97.356400
  H    -106.600000   56.479400  -97.504000
  C    -104.582000   57.916700  -95.844900
  H    -104.797000   56.867700  -95.628200
  H    -104.392000   58.347300  -94.906700
  C    -103.320000   58.026000  -96.738900
  H    -102.467000   57.781200  -96.077200
  H    -103.396000   57.349500  -97.547100
  C    -103.040000   59.492800  -97.221400
  H    -102.004000   59.568800  -97.655400
  H    -103.755000   59.971000  -97.863600
  H    -103.156000   60.095600  -96.317800
  S    -109.983000   58.142600  -99.294800
  C    -111.234000   57.022800  -99.177500
  C    -111.217000   56.203200  -98.135200
  C    -110.007000   56.479400  -97.336000
  C    -109.138000   57.418100  -97.928600
  H    -111.974000   55.412100  -98.093100
  C    -109.824000   55.828300  -96.008500
  H    -108.860000   55.277000  -96.033000
  H    -110.597000   55.058600  -95.922300
  C    -109.938000   56.642600  -94.663300
  H    -110.870000   57.207200  -94.681300
  H    -109.207000   57.386600  -94.484600
  C    -110.002000   55.796700  -93.394300
  H    -109.092000   55.326500  -93.010000
  H    -110.817000   55.055500  -93.557700
  H    -110.296000   56.450400  -92.562900
  H    -106.089000   60.509000  -95.670900
  H    -111.996000   56.963900  -99.963400

 Total Charge           Charge          ....    0
 Multiplicity           Mult            ....    1
 Number of Electrons    NEL             ....  134
 Basis Dimension        Dim             ....  322

ORBITAL ENERGIES
----------------

  NO   OCC          E(Eh)            E(eV)
   0   2.0000     -88.961785     -2420.7732
   1   2.0000     -88.961355     -2420.7616
   2   2.0000     -10.321993      -280.8757
   3   2.0000     -10.318174      -280.7718
   4   2.0000     -10.314577      -280.6739
   5   2.0000     -10.309778      -280.5433
   6   2.0000     -10.308603      -280.5114
   7   2.0000     -10.307739      -280.4879
   8   2.0000     -10.293088      -280.0892
   9   2.0000     -10.292140      -280.0634
  10   2.0000     -10.291752      -280.0528
  11   2.0000     -10.288571      -279.9663
  12   2.0000     -10.287944      -279.9492
  13   2.0000     -10.281328      -279.7691
  14   2.0000     -10.278288      -279.6864
  15   2.0000     -10.277743      -279.6716
  16   2.0000      -8.078086      -219.8159
  17   2.0000      -8.077663      -219.8044
  18   2.0000      -6.036529      -164.2623
  19   2.0000      -6.036102      -164.2507
  20   2.0000      -6.032426      -164.1507
  21   2.0000      -6.031948      -164.1377
  22   2.0000      -6.028750      -164.0506
  23   2.0000      -6.028407      -164.0413
  24   2.0000      -1.014916       -27.6173
  25   2.0000      -0.990109       -26.9422
  26   2.0000      -0.908753       -24.7284
  27   2.0000      -0.903198       -24.5773
  28   2.0000      -0.873420       -23.7670
  29   2.0000      -0.852657       -23.2020
  30   2.0000      -0.844080       -22.9686
  31   2.0000      -0.817822       -22.2541
  32   2.0000      -0.783057       -21.3081
  33   2.0000      -0.768138       -20.9021
  34   2.0000      -0.708563       -19.2810
  35   2.0000      -0.698241       -19.0001
  36   2.0000      -0.687987       -18.7211
  37   2.0000      -0.656408       -17.8618
  38   2.0000      -0.644370       -17.5342
  39   2.0000      -0.620191       -16.8762
  40   2.0000      -0.594064       -16.1653
  41   2.0000      -0.571367       -15.5477
  42   2.0000      -0.559191       -15.2164
  43   2.0000      -0.549854       -14.9623
  44   2.0000      -0.541410       -14.7325
  45   2.0000      -0.518907       -14.1202
  46   2.0000      -0.516412       -14.0523
  47   2.0000      -0.507081       -13.7984
  48   2.0000      -0.505041       -13.7429
  49   2.0000      -0.499987       -13.6053
  50   2.0000      -0.489492       -13.3198
  51   2.0000      -0.482953       -13.1418
  52   2.0000      -0.468180       -12.7398
  53   2.0000      -0.464612       -12.6427
  54   2.0000      -0.457484       -12.4488
  55   2.0000      -0.450886       -12.2692
  56   2.0000      -0.440807       -11.9950
  57   2.0000      -0.437274       -11.8988
  58   2.0000      -0.429001       -11.6737
  59   2.0000      -0.424004       -11.5377
  60   2.0000      -0.423288       -11.5182
  61   2.0000      -0.414164       -11.2700
  62   2.0000      -0.411716       -11.2034
  63   2.0000      -0.345376        -9.3982
  64   2.0000      -0.328524        -8.9396
  65   2.0000      -0.325228        -8.8499
  66   2.0000      -0.297302        -8.0900
  67   0.0000       0.041866         1.1392
  68   0.0000       0.062667         1.7053
  69   0.0000       0.114101         3.1048
  70   0.0000       0.122616         3.3366
  71   0.0000       0.134154         3.6505

MULLIKEN ATOMIC CHARGES
-----------------------
   0 S :    0.116466
   1 C :   -0.137478
   2 C :   -0.099311
   3 C :    0.024807
   4 C :   -0.143670
   5 H :    0.026448
   6 C :    0.067692
   7 H :    0.022894
   8 H :    0.012412
   9 C :   -0.046237
  10 H :    0.036373
  11 H :    0.025880
  12 C :   -0.073029
  13 H :    0.049340
  14 H :    0.040745
  15 H :    0.013470
  16 S :    0.102334
  17 C :   -0.084069
  18 C :   -0.021776
  19 C :   -0.065011
  20 C :   -0.152221
  21 H :    0.029213
  22 C :    0.073471
  23 H :    0.033369
  24 H :    0.004946
  25 C :   -0.045362
  26 H :    0.023089
  27 H :    0.026467
  28 C :   -0.072829
  29 H :    0.037005
  30 H :    0.029003
  31 H :    0.031477
  32 H :    0.058922
  33 H :    0.055168
Sum of atomic charges:   -0.0000000

LOEWDIN ATOMIC CHARGES
----------------------
   0 S :    0.424862
   1 C :   -0.211164
   2 C :   -0.054140
   3 C :   -0.063363
   4 C :   -0.209577
   5 H :    0.037566
   6 C :   -0.032530
   7 H :    0.033143
   8 H :    0.022128
   9 C :   -0.030276
  10 H :    0.030333
  11 H :    0.014895
  12 C :   -0.072080
  13 H :    0.033194
  14 H :    0.021864
  15 H :    0.022093
  16 S :    0.416627
  17 C :   -0.194133
  18 C :   -0.083046
  19 C :   -0.041814
  20 C :   -0.205931
  21 H :    0.040022
  22 C :   -0.040262
  23 H :    0.035538
  24 H :    0.027851
  25 C :   -0.036429
  26 H :    0.026843
  27 H :    0.018600
  28 C :   -0.069078
  29 H :    0.023111
  30 H :    0.025195
  31 H :    0.029823
  32 H :    0.029661
  33 H :    0.030474

  Mayer bond orders larger than 0.100000
B(  0-S ,  1-C ) :   1.1347 B(  0-S ,  4-C ) :   1.1516 B(  1-C ,  2-C ) :   1.6048
B(  1-C , 32-H ) :   0.9731 B(  2-C ,  3-C ) :   1.2111 B(  2-C ,  6-C ) :   1.0218
B(  3-C ,  4-C ) :   1.6154 B(  3-C ,  5-H ) :   0.9865 B(  4-C , 20-C ) :   1.0442
B(  6-C ,  7-H ) :   0.9402 B(  6-C ,  8-H ) :   0.9435 B(  6-C ,  9-C ) :   1.0773
B(  9-C , 10-H ) :   0.9563 B(  9-C , 11-H ) :   0.9595 B(  9-C , 12-C ) :   1.0665
B( 12-C , 13-H ) :   0.9760 B( 12-C , 14-H ) :   0.9750 B( 12-C , 15-H ) :   0.9743
B( 16-S , 17-C ) :   1.1721 B( 16-S , 20-C ) :   1.1190 B( 17-C , 18-C ) :   1.6523
B( 17-C , 33-H ) :   0.9531 B( 18-C , 19-C ) :   1.2072 B( 18-C , 21-H ) :   0.9878
B( 19-C , 20-C ) :   1.6063 B( 19-C , 22-C ) :   1.0613 B( 22-C , 23-H ) :   0.9291
B( 22-C , 24-H ) :   0.9313 B( 22-C , 25-C ) :   1.0525 B( 25-C , 26-H ) :   0.9536
B( 25-C , 27-H ) :   0.9553 B( 25-C , 28-C ) :   1.0893 B( 28-C , 29-H ) :   0.9767
B( 28-C , 30-H ) :   0.9741 B( 28-C , 31-H ) :   0.9727

Dispersion correction           -0.014594034
FINAL SINGLE POINT ENERGY     -1339.872354267799

DIPOLE MOMENT
-------------
                                X             Y             Z
Electronic contribution:    -14.13592       8.87432     -17.25760
Nuclear contribution   :     14.22294      -9.24821      17.66519
                        -----------------------------------------
Total Dipole Moment    :      0.08702      -0.37389       0.40758
                        -----------------------------------------
Magnitude (a.u.)       :      0.55990
Magnitude (Debye)      :      1.42316

Rotational constants in cm-1:     0.019602     0.008574     0.006926
Rotational constants in MHz :   587.647691   257.040153   207.633348

                             ****ORCA TERMINATED NORMALLY****
TOTAL RUN TIME: 0 days 0 hours 0 minutes 20 seconds 692 msec
