                         Program Version 4.2.1 -  RELEASE  -
|  1> ! wB97X-D3 SP def2-SVP
|  2> %pal
|  3> nprocs 24
|  4> end
|  5>
|  6> * xyz 0 1
|  7> S 	 -68.9171 	 16.184 	 -69.4074
|  8> C 	 -69.2543 	 15.7527 	 -67.7587
|  9> C 	 -68.7068 	 16.6433 	 -66.8528
| 10> C 	 -68.2982 	 17.8322 	 -67.5056
| 11> C 	 -68.4466 	 17.8426 	 -68.9038
| 12> H 	 -67.8372 	 18.6196 	 -66.9437
| 13> C 	 -68.6337 	 16.4802 	 -65.3507
| 14> H 	 -69.6624 	 16.728 	 -64.9267
| 15> H 	 -67.9721 	 17.3477 	 -65.0852
| 16> C 	 -68.1075 	 15.1477 	 -64.7648
| 17> H 	 -68.0296 	 15.1698 	 -63.6183
| 18> H 	 -68.7708 	 14.3061 	 -65.0848
| 19> C 	 -66.664 	 14.7575 	 -65.2419
| 20> H 	 -66.0588 	 14.0469 	 -64.6773
| 21> H 	 -66.7766 	 14.2984 	 -66.1471
| 22> H 	 -66.1347 	 15.6735 	 -65.4373
| 23> S 	 -68.1407 	 18.5547 	 -71.5478
| 24> C 	 -67.7047 	 20.1414 	 -71.991
| 25> C 	 -67.5308 	 20.9272 	 -70.8313
| 26> C 	 -67.7579 	 20.2347 	 -69.6
| 27> C 	 -68.0506 	 18.8633 	 -69.823
| 28> H 	 -67.5136 	 22.0036 	 -70.972
| 29> C 	 -67.7454 	 21.0304 	 -68.258
| 30> H 	 -67.3518 	 22.0434 	 -68.4468
| 31> H 	 -67.1814 	 20.5218 	 -67.5628
| 32> C 	 -69.1507 	 21.1943 	 -67.7011
| 33> H 	 -69.0229 	 21.5862 	 -66.6996
| 34> H 	 -69.5418 	 20.2856 	 -67.4374
| 35> C 	 -70.0909 	 22.0203 	 -68.566
| 36> H 	 -70.0127 	 21.6663 	 -69.5977
| 37> H 	 -69.8725 	 23.0808 	 -68.5801
| 38> H 	 -71.1094 	 21.9139 	 -68.2199
| 39> H 	 -69.6437 	 14.8226 	 -67.4603
| 40> H 	 -67.8096 	 20.4338 	 -72.9894
| 41> *
| 42>
| 43>                          ****END OF INPUT****

CARTESIAN COORDINATES (ANGSTROEM)
---------------------------------
  S    -68.917100   16.184000  -69.407400
  C    -69.254300   15.752700  -67.758700
  C    -68.706800   16.643300  -66.852800
  C    -68.298200   17.832200  -67.505600
  C    -68.446600   17.842600  -68.903800
  H    -67.837200   18.619600  -66.943700
  C    -68.633700   16.480200  -65.350700
  H    -69.662400   16.728000  -64.926700
  H    -67.972100   17.347700  -65.085200
  C    -68.107500   15.147700  -64.764800
  H    -68.029600   15.169800  -63.618300
  H    -68.770800   14.306100  -65.084800
  C    -66.664000   14.757500  -65.241900
  H    -66.058800   14.046900  -64.677300
  H    -66.776600   14.298400  -66.147100
  H    -66.134700   15.673500  -65.437300
  S    -68.140700   18.554700  -71.547800
  C    -67.704700   20.141400  -71.991000
  C    -67.530800   20.927200  -70.831300
  C    -67.757900   20.234700  -69.600000
  C    -68.050600   18.863300  -69.823000
  H    -67.513600   22.003600  -70.972000
  C    -67.745400   21.030400  -68.258000
  H    -67.351800   22.043400  -68.446800
  H    -67.181400   20.521800  -67.562800
  C    -69.150700   21.194300  -67.701100
  H    -69.022900   21.586200  -66.699600
  H    -69.541800   20.285600  -67.437400
  C    -70.090900   22.020300  -68.566000
  H    -70.012700   21.666300  -69.597700
  H    -69.872500   23.080800  -68.580100
  H    -71.109400   21.913900  -68.219900
  H    -69.643700   14.822600  -67.460300
  H    -67.809600   20.433800  -72.989400

 Total Charge           Charge          ....    0
 Multiplicity           Mult            ....    1
 Number of Electrons    NEL             ....  134
 Basis Dimension        Dim             ....  322

ORBITAL ENERGIES
----------------

  NO   OCC          E(Eh)            E(eV)
   0   2.0000     -88.969323     -2420.9784
   1   2.0000     -88.967768     -2420.9360
   2   2.0000     -10.337257      -281.2911
   3   2.0000     -10.332032      -281.1489
   4   2.0000     -10.316685      -280.7313
   5   2.0000     -10.310809      -280.5714
   6   2.0000     -10.310287      -280.5572
   7   2.0000     -10.306377      -280.4508
   8   2.0000     -10.302584      -280.3476
   9   2.0000     -10.300687      -280.2959
  10   2.0000     -10.298529      -280.2372
  11   2.0000     -10.295387      -280.1517
  12   2.0000     -10.292182      -280.0645
  13   2.0000     -10.273376      -279.5528
  14   2.0000     -10.271798      -279.5098
  15   2.0000     -10.268367      -279.4165
  16   2.0000      -8.083395      -219.9604
  17   2.0000      -8.083268      -219.9569
  18   2.0000      -6.042042      -164.4123
  19   2.0000      -6.041654      -164.4018
  20   2.0000      -6.038171      -164.3070
  21   2.0000      -6.037504      -164.2888
  22   2.0000      -6.034307      -164.2018
  23   2.0000      -6.033883      -164.1903
  24   2.0000      -1.007628       -27.4189
  25   2.0000      -0.985159       -26.8075
  26   2.0000      -0.915344       -24.9078
  27   2.0000      -0.908112       -24.7110
  28   2.0000      -0.870238       -23.6804
  29   2.0000      -0.853108       -23.2142
  30   2.0000      -0.845151       -22.9977
  31   2.0000      -0.810211       -22.0470
  32   2.0000      -0.789776       -21.4909
  33   2.0000      -0.776267       -21.1233
  34   2.0000      -0.715117       -19.4593
  35   2.0000      -0.704520       -19.1710
  36   2.0000      -0.695350       -18.9214
  37   2.0000      -0.668619       -18.1940
  38   2.0000      -0.637177       -17.3385
  39   2.0000      -0.615948       -16.7608
  40   2.0000      -0.595857       -16.2141
  41   2.0000      -0.570474       -15.5234
  42   2.0000      -0.563524       -15.3343
  43   2.0000      -0.552818       -15.0429
  44   2.0000      -0.547144       -14.8886
  45   2.0000      -0.539114       -14.6700
  46   2.0000      -0.511951       -13.9309
  47   2.0000      -0.510454       -13.8902
  48   2.0000      -0.506411       -13.7801
  49   2.0000      -0.500677       -13.6241
  50   2.0000      -0.490200       -13.3390
  51   2.0000      -0.482330       -13.1249
  52   2.0000      -0.473319       -12.8797
  53   2.0000      -0.465946       -12.6790
  54   2.0000      -0.459921       -12.5151
  55   2.0000      -0.449667       -12.2361
  56   2.0000      -0.446365       -12.1462
  57   2.0000      -0.444155       -12.0861
  58   2.0000      -0.435170       -11.8416
  59   2.0000      -0.428490       -11.6598
  60   2.0000      -0.419111       -11.4046
  61   2.0000      -0.414676       -11.2839
  62   2.0000      -0.407335       -11.0842
  63   2.0000      -0.366178        -9.9642
  64   2.0000      -0.336230        -9.1493
  65   2.0000      -0.329294        -8.9605
  66   2.0000      -0.274495        -7.4694
  67   0.0000       0.008893         0.2420
  68   0.0000       0.082103         2.2341
  69   0.0000       0.090406         2.4601
  70   0.0000       0.115542         3.1441
  71   0.0000       0.134404         3.6573

MULLIKEN ATOMIC CHARGES
-----------------------
   0 S :    0.101876
   1 C :   -0.092990
   2 C :   -0.093837
   3 C :   -0.014533
   4 C :   -0.092192
   5 H :   -0.006829
   6 C :    0.035496
   7 H :    0.063719
   8 H :    0.026350
   9 C :   -0.113347
  10 H :    0.051302
  11 H :    0.040057
  12 C :   -0.021982
  13 H :    0.038726
  14 H :    0.009605
  15 H :    0.024609
  16 S :    0.101381
  17 C :   -0.083021
  18 C :   -0.034820
  19 C :   -0.092466
  20 C :   -0.123558
  21 H :    0.027010
  22 C :    0.100030
  23 H :    0.023418
  24 H :    0.013377
  25 C :   -0.033234
  26 H :    0.008332
  27 H :    0.001465
  28 C :   -0.036620
  29 H :    0.041607
  30 H :    0.024409
  31 H :    0.032437
  32 H :    0.024684
  33 H :    0.049539
Sum of atomic charges:    0.0000000

LOEWDIN ATOMIC CHARGES
----------------------
   0 S :    0.392037
   1 C :   -0.190962
   2 C :   -0.067660
   3 C :   -0.067635
   4 C :   -0.171057
   5 H :    0.023534
   6 C :   -0.040137
   7 H :    0.046433
   8 H :    0.033080
   9 C :   -0.046540
  10 H :    0.035066
  11 H :    0.025596
  12 C :   -0.064727
  13 H :    0.029113
  14 H :    0.013478
  15 H :    0.024166
  16 S :    0.429204
  17 C :   -0.192017
  18 C :   -0.076242
  19 C :   -0.050203
  20 C :   -0.201357
  21 H :    0.031310
  22 C :   -0.014408
  23 H :    0.034061
  24 H :    0.015554
  25 C :   -0.037513
  26 H :    0.023454
  27 H :    0.010639
  28 C :   -0.060886
  29 H :    0.029696
  30 H :    0.022110
  31 H :    0.027814
  32 H :    0.015773
  33 H :    0.019224

  Mayer bond orders larger than 0.100000
B(  0-S ,  1-C ) :   1.1397 B(  0-S ,  4-C ) :   1.1354 B(  1-C ,  2-C ) :   1.5863
B(  1-C , 32-H ) :   0.9732 B(  2-C ,  3-C ) :   1.2907 B(  2-C ,  6-C ) :   1.0014
B(  3-C ,  4-C ) :   1.5191 B(  3-C ,  5-H ) :   0.9845 B(  4-C , 20-C ) :   1.1502
B(  6-C ,  7-H ) :   0.9381 B(  6-C ,  8-H ) :   0.9426 B(  6-C ,  9-C ) :   1.0690
B(  9-C , 10-H ) :   0.9609 B(  9-C , 11-H ) :   0.9598 B(  9-C , 12-C ) :   1.0574
B( 12-C , 13-H ) :   0.9784 B( 12-C , 14-H ) :   0.9717 B( 12-C , 15-H ) :   0.9778
B( 16-S , 17-C ) :   1.1901 B( 16-S , 20-C ) :   1.1515 B( 17-C , 18-C ) :   1.5387
B( 17-C , 20-C ) :   0.1043 B( 17-C , 33-H ) :   0.9780 B( 18-C , 19-C ) :   1.3026
B( 18-C , 21-H ) :   0.9858 B( 19-C , 20-C ) :   1.5154 B( 19-C , 22-C ) :   1.0347
B( 22-C , 23-H ) :   0.9367 B( 22-C , 24-H ) :   0.9291 B( 22-C , 25-C ) :   1.0859
B( 25-C , 26-H ) :   0.9451 B( 25-C , 27-H ) :   0.9482 B( 25-C , 28-C ) :   1.0726
B( 28-C , 29-H ) :   0.9759 B( 28-C , 30-H ) :   0.9756 B( 28-C , 31-H ) :   0.9723

Dispersion correction           -0.015115189
FINAL SINGLE POINT ENERGY     -1339.865768067088

DIPOLE MOMENT
-------------
                                X             Y             Z
Electronic contribution:     -0.21732      -6.09624     -23.54572
Nuclear contribution   :      0.16810       6.39177      24.03203
                        -----------------------------------------
Total Dipole Moment    :     -0.04922       0.29553       0.48631
                        -----------------------------------------
Magnitude (a.u.)       :      0.57119
Magnitude (Debye)      :      1.45185

Rotational constants in cm-1:     0.021914     0.008441     0.006862
Rotational constants in MHz :   656.952185   253.066364   205.717082

                             ****ORCA TERMINATED NORMALLY****
TOTAL RUN TIME: 0 days 0 hours 0 minutes 23 seconds 446 msec
