                         Program Version 4.2.1 -  RELEASE  -
|  1> ! wB97X-D3 SP def2-SVP
|  2> %pal
|  3> nprocs 24
|  4> end
|  5>
|  6> * xyz 0 1
|  7> S 	 49.3048 	 -24.8572 	 -117.679
|  8> C 	 48.2237 	 -25.7831 	 -116.703
|  9> C 	 48.1847 	 -25.3328 	 -115.397
| 10> C 	 49.1302 	 -24.305 	 -115.161
| 11> C 	 49.7259 	 -23.8703 	 -116.301
| 12> H 	 49.4907 	 -23.7913 	 -114.249
| 13> C 	 47.3333 	 -25.8467 	 -114.214
| 14> H 	 47.7561 	 -25.4618 	 -113.271
| 15> H 	 47.5941 	 -26.9465 	 -114.076
| 16> C 	 45.8244 	 -25.6217 	 -114.191
| 17> H 	 45.2943 	 -26.0708 	 -114.993
| 18> H 	 45.429 	 -25.8678 	 -113.211
| 19> C 	 45.3725 	 -24.14 	 -114.489
| 20> H 	 44.2731 	 -23.9175 	 -114.354
| 21> H 	 45.931 	 -23.5558 	 -113.693
| 22> H 	 45.7098 	 -23.7809 	 -115.462
| 23> S 	 52.2993 	 -23.2382 	 -117.053
| 24> C 	 52.8352 	 -21.6718 	 -116.819
| 25> C 	 51.9097 	 -20.8681 	 -116.146
| 26> C 	 50.6475 	 -21.5093 	 -115.863
| 27> C 	 50.7071 	 -22.8024 	 -116.398
| 28> H 	 51.9903 	 -19.7963 	 -116.048
| 29> C 	 49.4953 	 -20.9068 	 -115.096
| 30> H 	 49.7665 	 -20.2145 	 -114.359
| 31> H 	 49.0385 	 -21.6644 	 -114.555
| 32> C 	 48.4321 	 -20.2548 	 -116.022
| 33> H 	 48.2244 	 -20.94 	 -116.772
| 34> H 	 48.8269 	 -19.3777 	 -116.448
| 35> C 	 47.0777 	 -19.9226 	 -115.227
| 36> H 	 46.3932 	 -19.2775 	 -115.75
| 37> H 	 47.2894 	 -19.3667 	 -114.377
| 38> H 	 46.4616 	 -20.8648 	 -115.08
| 39> H 	 47.6748 	 -26.6127 	 -117.163
| 40> H 	 53.8381 	 -21.2314 	 -116.933
| 41> *
| 42>
| 43>                          ****END OF INPUT****

CARTESIAN COORDINATES (ANGSTROEM)
---------------------------------
  S     49.304800  -24.857200  -117.679000
  C     48.223700  -25.783100  -116.703000
  C     48.184700  -25.332800  -115.397000
  C     49.130200  -24.305000  -115.161000
  C     49.725900  -23.870300  -116.301000
  H     49.490700  -23.791300  -114.249000
  C     47.333300  -25.846700  -114.214000
  H     47.756100  -25.461800  -113.271000
  H     47.594100  -26.946500  -114.076000
  C     45.824400  -25.621700  -114.191000
  H     45.294300  -26.070800  -114.993000
  H     45.429000  -25.867800  -113.211000
  C     45.372500  -24.140000  -114.489000
  H     44.273100  -23.917500  -114.354000
  H     45.931000  -23.555800  -113.693000
  H     45.709800  -23.780900  -115.462000
  S     52.299300  -23.238200  -117.053000
  C     52.835200  -21.671800  -116.819000
  C     51.909700  -20.868100  -116.146000
  C     50.647500  -21.509300  -115.863000
  C     50.707100  -22.802400  -116.398000
  H     51.990300  -19.796300  -116.048000
  C     49.495300  -20.906800  -115.096000
  H     49.766500  -20.214500  -114.359000
  H     49.038500  -21.664400  -114.555000
  C     48.432100  -20.254800  -116.022000
  H     48.224400  -20.940000  -116.772000
  H     48.826900  -19.377700  -116.448000
  C     47.077700  -19.922600  -115.227000
  H     46.393200  -19.277500  -115.750000
  H     47.289400  -19.366700  -114.377000
  H     46.461600  -20.864800  -115.080000
  H     47.674800  -26.612700  -117.163000
  H     53.838100  -21.231400  -116.933000

 Total Charge           Charge          ....    0
 Multiplicity           Mult            ....    1
 Number of Electrons    NEL             ....  134
 Basis Dimension        Dim             ....  322

ORBITAL ENERGIES
----------------

  NO   OCC          E(Eh)            E(eV)
   0   2.0000     -88.970191     -2421.0020
   1   2.0000     -88.965320     -2420.8694
   2   2.0000     -10.324618      -280.9471
   3   2.0000     -10.320820      -280.8438
   4   2.0000     -10.315260      -280.6925
   5   2.0000     -10.313815      -280.6532
   6   2.0000     -10.305330      -280.4223
   7   2.0000     -10.305174      -280.4180
   8   2.0000     -10.300591      -280.2933
   9   2.0000     -10.291229      -280.0386
  10   2.0000     -10.290791      -280.0267
  11   2.0000     -10.286977      -279.9229
  12   2.0000     -10.284110      -279.8449
  13   2.0000     -10.282931      -279.8128
  14   2.0000     -10.279672      -279.7241
  15   2.0000     -10.277182      -279.6563
  16   2.0000      -8.085618      -220.0208
  17   2.0000      -8.080795      -219.8896
  18   2.0000      -6.044026      -164.4663
  19   2.0000      -6.039996      -164.3566
  20   2.0000      -6.039109      -164.3325
  21   2.0000      -6.036484      -164.2611
  22   2.0000      -6.035208      -164.2264
  23   2.0000      -6.031724      -164.1316
  24   2.0000      -1.011242       -27.5173
  25   2.0000      -0.988365       -26.8948
  26   2.0000      -0.910035       -24.7633
  27   2.0000      -0.905601       -24.6427
  28   2.0000      -0.867360       -23.6021
  29   2.0000      -0.851746       -23.1772
  30   2.0000      -0.846188       -23.0259
  31   2.0000      -0.807022       -21.9602
  32   2.0000      -0.785605       -21.3774
  33   2.0000      -0.771299       -20.9881
  34   2.0000      -0.711922       -19.3724
  35   2.0000      -0.699097       -19.0234
  36   2.0000      -0.691095       -18.8057
  37   2.0000      -0.661471       -17.9995
  38   2.0000      -0.644879       -17.5480
  39   2.0000      -0.611813       -16.6483
  40   2.0000      -0.596497       -16.2315
  41   2.0000      -0.574431       -15.6311
  42   2.0000      -0.568522       -15.4703
  43   2.0000      -0.543533       -14.7903
  44   2.0000      -0.539536       -14.6815
  45   2.0000      -0.519770       -14.1437
  46   2.0000      -0.515844       -14.0368
  47   2.0000      -0.505932       -13.7671
  48   2.0000      -0.501655       -13.6507
  49   2.0000      -0.495402       -13.4806
  50   2.0000      -0.489276       -13.3139
  51   2.0000      -0.479210       -13.0400
  52   2.0000      -0.473686       -12.8896
  53   2.0000      -0.465179       -12.6582
  54   2.0000      -0.456095       -12.4110
  55   2.0000      -0.446715       -12.1557
  56   2.0000      -0.445362       -12.1189
  57   2.0000      -0.443476       -12.0676
  58   2.0000      -0.433521       -11.7967
  59   2.0000      -0.431940       -11.7537
  60   2.0000      -0.426051       -11.5934
  61   2.0000      -0.422254       -11.4901
  62   2.0000      -0.397431       -10.8146
  63   2.0000      -0.346610        -9.4317
  64   2.0000      -0.333746        -9.0817
  65   2.0000      -0.329649        -8.9702
  66   2.0000      -0.290695        -7.9102
  67   0.0000       0.032646         0.8884
  68   0.0000       0.069722         1.8972
  69   0.0000       0.111627         3.0375
  70   0.0000       0.119032         3.2390
  71   0.0000       0.127660         3.4738

MULLIKEN ATOMIC CHARGES
-----------------------
   0 S :    0.111496
   1 C :   -0.141950
   2 C :   -0.061057
   3 C :    0.014900
   4 C :   -0.179889
   5 H :    0.036738
   6 C :    0.045585
   7 H :    0.016881
   8 H :    0.045349
   9 C :   -0.027798
  10 H :    0.027384
  11 H :    0.035371
  12 C :   -0.128777
  13 H :    0.051345
  14 H :    0.025925
  15 H :    0.052025
  16 S :    0.137470
  17 C :   -0.076507
  18 C :   -0.059999
  19 C :   -0.050978
  20 C :   -0.182406
  21 H :    0.015836
  22 C :    0.151705
  23 H :    0.005433
  24 H :   -0.023636
  25 C :   -0.038901
  26 H :    0.021725
  27 H :    0.017492
  28 C :   -0.056763
  29 H :    0.022373
  30 H :    0.018396
  31 H :    0.051726
  32 H :    0.058710
  33 H :    0.064798
Sum of atomic charges:    0.0000000

LOEWDIN ATOMIC CHARGES
----------------------
   0 S :    0.412908
   1 C :   -0.204316
   2 C :   -0.066238
   3 C :   -0.068903
   4 C :   -0.200353
   5 H :    0.041635
   6 C :   -0.037887
   7 H :    0.030177
   8 H :    0.041684
   9 C :   -0.038556
  10 H :    0.019073
  11 H :    0.027571
  12 C :   -0.076211
  13 H :    0.032026
  14 H :    0.022468
  15 H :    0.022737
  16 S :    0.436703
  17 C :   -0.221615
  18 C :   -0.076185
  19 C :   -0.042934
  20 C :   -0.198084
  21 H :    0.026454
  22 C :   -0.020592
  23 H :    0.024294
  24 H :    0.018469
  25 C :   -0.014195
  26 H :    0.016594
  27 H :    0.015742
  28 C :   -0.066394
  29 H :    0.023249
  30 H :    0.013140
  31 H :    0.037166
  32 H :    0.030956
  33 H :    0.039420

  Mayer bond orders larger than 0.100000
B(  0-S ,  1-C ) :   1.1474 B(  0-S ,  4-C ) :   1.1533 B(  1-C ,  2-C ) :   1.5983
B(  1-C , 32-H ) :   0.9737 B(  2-C ,  3-C ) :   1.2283 B(  2-C ,  6-C ) :   1.0055
B(  3-C ,  4-C ) :   1.6059 B(  3-C ,  5-H ) :   0.9788 B(  4-C , 20-C ) :   1.0222
B(  6-C ,  7-H ) :   0.9436 B(  6-C ,  8-H ) :   0.9403 B(  6-C ,  9-C ) :   1.0736
B(  9-C , 10-H ) :   0.9605 B(  9-C , 11-H ) :   0.9569 B(  9-C , 12-C ) :   1.0589
B( 12-C , 13-H ) :   0.9761 B( 12-C , 14-H ) :   0.9787 B( 12-C , 15-H ) :   0.9737
B( 16-S , 17-C ) :   1.1676 B( 16-S , 20-C ) :   1.1558 B( 17-C , 18-C ) :   1.5991
B( 17-C , 33-H ) :   0.9596 B( 18-C , 19-C ) :   1.2626 B( 18-C , 21-H ) :   0.9818
B( 19-C , 20-C ) :   1.5812 B( 19-C , 22-C ) :   1.0508 B( 22-C , 23-H ) :   0.9272
B( 22-C , 24-H ) :   0.9169 B( 22-C , 25-C ) :   1.0591 B( 25-C , 26-H ) :   0.9617
B( 25-C , 27-H ) :   0.9599 B( 25-C , 28-C ) :   1.0756 B( 28-C , 29-H ) :   0.9751
B( 28-C , 30-H ) :   0.9763 B( 28-C , 31-H ) :   0.9756

Dispersion correction           -0.015225387
FINAL SINGLE POINT ENERGY     -1339.865092503115

DIPOLE MOMENT
-------------
                                X             Y             Z
Electronic contribution:     24.97769      -9.62090     -15.66415
Nuclear contribution   :    -25.27615       9.82958      16.12072
                        -----------------------------------------
Total Dipole Moment    :     -0.29846       0.20869       0.45657
                        -----------------------------------------
Magnitude (a.u.)       :      0.58403
Magnitude (Debye)      :      1.48447

Rotational constants in cm-1:     0.018243     0.010004     0.007255
Rotational constants in MHz :   546.914250   299.904856   217.498008

                             ****ORCA TERMINATED NORMALLY****
TOTAL RUN TIME: 0 days 0 hours 0 minutes 21 seconds 242 msec
