                         Program Version 4.2.1 -  RELEASE  -
|  1> ! wB97X-D3 SP def2-SVP
|  2> %pal
|  3> nprocs 24
|  4> end
|  5>
|  6> * xyz 0 1
|  7> S 	 -53.435 	 -43.8292 	 -76.5771
|  8> C 	 -54.2944 	 -43.4931 	 -78.1353
|  9> C 	 -53.3363 	 -43.7501 	 -79.1739
| 10> C 	 -52.1302 	 -44.3772 	 -78.6748
| 11> C 	 -52.075 	 -44.517 	 -77.3109
| 12> H 	 -51.2611 	 -44.6968 	 -79.2783
| 13> C 	 -53.6794 	 -43.5147 	 -80.6402
| 14> H 	 -54.0772 	 -42.5286 	 -80.6116
| 15> H 	 -54.4715 	 -44.3034 	 -80.8441
| 16> C 	 -52.461 	 -43.6033 	 -81.5954
| 17> H 	 -51.6843 	 -42.9475 	 -81.2687
| 18> H 	 -52.1204 	 -44.6708 	 -81.6397
| 19> C 	 -52.9377 	 -43.2499 	 -83.0426
| 20> H 	 -53.8764 	 -43.6903 	 -83.3054
| 21> H 	 -53.2515 	 -42.2794 	 -83.3101
| 22> H 	 -52.2705 	 -43.6184 	 -83.843
| 23> S 	 -51.6325 	 -46.6435 	 -75.6073
| 24> C 	 -50.0096 	 -47.1823 	 -75.3544
| 25> C 	 -49.0442 	 -46.264 	 -75.775
| 26> C 	 -49.6752 	 -45.246 	 -76.5899
| 27> C 	 -51.0839 	 -45.3336 	 -76.5705
| 28> H 	 -47.992 	 -46.4321 	 -75.692
| 29> C 	 -48.735 	 -44.2869 	 -77.2238
| 30> H 	 -48.15 	 -43.7971 	 -76.4902
| 31> H 	 -49.4438 	 -43.4421 	 -77.4939
| 32> C 	 -48.0462 	 -44.7121 	 -78.4547
| 33> H 	 -48.7047 	 -45.1725 	 -79.179
| 34> H 	 -47.4013 	 -45.5184 	 -78.181
| 35> C 	 -47.33 	 -43.5976 	 -79.2251
| 36> H 	 -47.9632 	 -43.2479 	 -80.0259
| 37> H 	 -46.4372 	 -43.9499 	 -79.6316
| 38> H 	 -46.9916 	 -42.7377 	 -78.5812
| 39> H 	 -55.2451 	 -42.9324 	 -78.1865
| 40> H 	 -49.6218 	 -48.0764 	 -74.9649
| 41> *
| 42>
| 43>                          ****END OF INPUT****

CARTESIAN COORDINATES (ANGSTROEM)
---------------------------------
  S    -53.435000  -43.829200  -76.577100
  C    -54.294400  -43.493100  -78.135300
  C    -53.336300  -43.750100  -79.173900
  C    -52.130200  -44.377200  -78.674800
  C    -52.075000  -44.517000  -77.310900
  H    -51.261100  -44.696800  -79.278300
  C    -53.679400  -43.514700  -80.640200
  H    -54.077200  -42.528600  -80.611600
  H    -54.471500  -44.303400  -80.844100
  C    -52.461000  -43.603300  -81.595400
  H    -51.684300  -42.947500  -81.268700
  H    -52.120400  -44.670800  -81.639700
  C    -52.937700  -43.249900  -83.042600
  H    -53.876400  -43.690300  -83.305400
  H    -53.251500  -42.279400  -83.310100
  H    -52.270500  -43.618400  -83.843000
  S    -51.632500  -46.643500  -75.607300
  C    -50.009600  -47.182300  -75.354400
  C    -49.044200  -46.264000  -75.775000
  C    -49.675200  -45.246000  -76.589900
  C    -51.083900  -45.333600  -76.570500
  H    -47.992000  -46.432100  -75.692000
  C    -48.735000  -44.286900  -77.223800
  H    -48.150000  -43.797100  -76.490200
  H    -49.443800  -43.442100  -77.493900
  C    -48.046200  -44.712100  -78.454700
  H    -48.704700  -45.172500  -79.179000
  H    -47.401300  -45.518400  -78.181000
  C    -47.330000  -43.597600  -79.225100
  H    -47.963200  -43.247900  -80.025900
  H    -46.437200  -43.949900  -79.631600
  H    -46.991600  -42.737700  -78.581200
  H    -55.245100  -42.932400  -78.186500
  H    -49.621800  -48.076400  -74.964900

 Total Charge           Charge          ....    0
 Multiplicity           Mult            ....    1
 Number of Electrons    NEL             ....  134
 Basis Dimension        Dim             ....  322

ORBITAL ENERGIES
----------------

  NO   OCC          E(Eh)            E(eV)
   0   2.0000     -88.971188     -2421.0291
   1   2.0000     -88.962674     -2420.7974
   2   2.0000     -10.328073      -281.0412
   3   2.0000     -10.326560      -281.0000
   4   2.0000     -10.321646      -280.8663
   5   2.0000     -10.312481      -280.6169
   6   2.0000     -10.309886      -280.5463
   7   2.0000     -10.302238      -280.3381
   8   2.0000     -10.297742      -280.2158
   9   2.0000     -10.296455      -280.1808
  10   2.0000     -10.293688      -280.1055
  11   2.0000     -10.290862      -280.0286
  12   2.0000     -10.283031      -279.8155
  13   2.0000     -10.280139      -279.7368
  14   2.0000     -10.275645      -279.6145
  15   2.0000     -10.275109      -279.5999
  16   2.0000      -8.086337      -220.0404
  17   2.0000      -8.077507      -219.8001
  18   2.0000      -6.044812      -164.4877
  19   2.0000      -6.040765      -164.3776
  20   2.0000      -6.037119      -164.2784
  21   2.0000      -6.035964      -164.2469
  22   2.0000      -6.031862      -164.1353
  23   2.0000      -6.028450      -164.0425
  24   2.0000      -1.007119       -27.4051
  25   2.0000      -0.981695       -26.7133
  26   2.0000      -0.919617       -25.0241
  27   2.0000      -0.909996       -24.7622
  28   2.0000      -0.864470       -23.5234
  29   2.0000      -0.854664       -23.2566
  30   2.0000      -0.840437       -22.8694
  31   2.0000      -0.815053       -22.1787
  32   2.0000      -0.783379       -21.3168
  33   2.0000      -0.771240       -20.9865
  34   2.0000      -0.717029       -19.5114
  35   2.0000      -0.705258       -19.1910
  36   2.0000      -0.689300       -18.7568
  37   2.0000      -0.660886       -17.9836
  38   2.0000      -0.637954       -17.3596
  39   2.0000      -0.613619       -16.6974
  40   2.0000      -0.596565       -16.2334
  41   2.0000      -0.574597       -15.6356
  42   2.0000      -0.568999       -15.4832
  43   2.0000      -0.561245       -15.2723
  44   2.0000      -0.529898       -14.4193
  45   2.0000      -0.525947       -14.3118
  46   2.0000      -0.518933       -14.1209
  47   2.0000      -0.507519       -13.8103
  48   2.0000      -0.504883       -13.7386
  49   2.0000      -0.502405       -13.6711
  50   2.0000      -0.491592       -13.3769
  51   2.0000      -0.478714       -13.0265
  52   2.0000      -0.475345       -12.9348
  53   2.0000      -0.471396       -12.8273
  54   2.0000      -0.454990       -12.3809
  55   2.0000      -0.450801       -12.2669
  56   2.0000      -0.443760       -12.0753
  57   2.0000      -0.439540       -11.9605
  58   2.0000      -0.432862       -11.7788
  59   2.0000      -0.432519       -11.7694
  60   2.0000      -0.423304       -11.5187
  61   2.0000      -0.407504       -11.0887
  62   2.0000      -0.399653       -10.8751
  63   2.0000      -0.343073        -9.3355
  64   2.0000      -0.329504        -8.9663
  65   2.0000      -0.325500        -8.8573
  66   2.0000      -0.290851        -7.9145
  67   0.0000       0.033846         0.9210
  68   0.0000       0.064364         1.7514
  69   0.0000       0.110559         3.0085
  70   0.0000       0.120598         3.2816
  71   0.0000       0.129961         3.5364

MULLIKEN ATOMIC CHARGES
-----------------------
   0 S :    0.095360
   1 C :   -0.157368
   2 C :   -0.113568
   3 C :    0.011658
   4 C :   -0.136889
   5 H :    0.016672
   6 C :    0.041015
   7 H :    0.031362
   8 H :    0.066637
   9 C :   -0.075948
  10 H :    0.041149
  11 H :    0.049498
  12 C :   -0.022435
  13 H :    0.002264
  14 H :    0.013544
  15 H :    0.033039
  16 S :    0.146022
  17 C :   -0.068907
  18 C :   -0.030871
  19 C :   -0.067496
  20 C :   -0.143981
  21 H :    0.018509
  22 C :    0.053766
  23 H :    0.024878
  24 H :    0.015282
  25 C :   -0.038175
  26 H :    0.021490
  27 H :    0.007974
  28 C :   -0.023628
  29 H :    0.037161
  30 H :    0.015921
  31 H :    0.033323
  32 H :    0.070171
  33 H :    0.032573
Sum of atomic charges:   -0.0000000

LOEWDIN ATOMIC CHARGES
----------------------
   0 S :    0.406425
   1 C :   -0.205691
   2 C :   -0.054474
   3 C :   -0.082774
   4 C :   -0.209995
   5 H :    0.034093
   6 C :   -0.035793
   7 H :    0.029018
   8 H :    0.048433
   9 C :   -0.034520
  10 H :    0.023690
  11 H :    0.034926
  12 C :   -0.075647
  13 H :    0.023381
  14 H :    0.019560
  15 H :    0.029163
  16 S :    0.442977
  17 C :   -0.187421
  18 C :   -0.063316
  19 C :   -0.050022
  20 C :   -0.217366
  21 H :    0.027650
  22 C :   -0.043189
  23 H :    0.029005
  24 H :    0.034504
  25 C :   -0.040466
  26 H :    0.025644
  27 H :    0.016800
  28 C :   -0.058050
  29 H :    0.026856
  30 H :    0.018681
  31 H :    0.031624
  32 H :    0.035367
  33 H :    0.020929

  Mayer bond orders larger than 0.100000
B(  0-S ,  1-C ) :   1.1281 B(  0-S ,  4-C ) :   1.1835 B(  1-C ,  2-C ) :   1.5682
B(  1-C ,  4-C ) :   0.1044 B(  1-C , 32-H ) :   0.9738 B(  2-C ,  3-C ) :   1.2628
B(  2-C ,  6-C ) :   0.9978 B(  3-C ,  4-C ) :   1.5478 B(  3-C ,  5-H ) :   0.9864
B(  4-C , 20-C ) :   1.0007 B(  6-C ,  7-H ) :   0.9417 B(  6-C ,  8-H ) :   0.9387
B(  6-C ,  9-C ) :   1.0944 B(  9-C , 10-H ) :   0.9593 B(  9-C , 11-H ) :   0.9456
B(  9-C , 12-C ) :   1.0724 B( 12-C , 13-H ) :   0.9662 B( 12-C , 14-H ) :   0.9742
B( 12-C , 15-H ) :   0.9766 B( 16-S , 17-C ) :   1.1674 B( 16-S , 20-C ) :   1.1480
B( 17-C , 18-C ) :   1.6009 B( 17-C , 33-H ) :   0.9697 B( 18-C , 19-C ) :   1.2500
B( 18-C , 21-H ) :   0.9871 B( 19-C , 20-C ) :   1.5819 B( 19-C , 22-C ) :   1.0496
B( 22-C , 23-H ) :   0.9304 B( 22-C , 24-H ) :   0.9248 B( 22-C , 25-C ) :   1.0684
B( 25-C , 26-H ) :   0.9508 B( 25-C , 27-H ) :   0.9517 B( 25-C , 28-C ) :   1.0741
B( 28-C , 29-H ) :   0.9792 B( 28-C , 30-H ) :   0.9727 B( 28-C , 31-H ) :   0.9760

Dispersion correction           -0.014035105
FINAL SINGLE POINT ENERGY     -1339.850461315270

DIPOLE MOMENT
-------------
                                X             Y             Z
Electronic contribution:    -13.08968      -9.31721      27.86756
Nuclear contribution   :     13.49922       9.37559     -28.50775
                        -----------------------------------------
Total Dipole Moment    :      0.40954       0.05838      -0.64020
                        -----------------------------------------
Magnitude (a.u.)       :      0.76222
Magnitude (Debye)      :      1.93741

Rotational constants in cm-1:     0.016218     0.009359     0.006617
Rotational constants in MHz :   486.209269   280.585237   198.365123

                             ****ORCA TERMINATED NORMALLY****
TOTAL RUN TIME: 0 days 0 hours 0 minutes 21 seconds 496 msec
