                         Program Version 4.2.1 -  RELEASE  -
|  1> ! wB97X-D3 SP def2-SVP
|  2> %pal
|  3> nprocs 24
|  4> end
|  5>
|  6> * xyz 0 1
|  7> S 	 -90.444 	 -33.6207 	 -59.1999
|  8> C 	 -89.3647 	 -34.3809 	 -60.3434
|  9> C 	 -88.0909 	 -33.7743 	 -60.4021
| 10> C 	 -87.9937 	 -32.6793 	 -59.4888
| 11> C 	 -89.1203 	 -32.4766 	 -58.7164
| 12> H 	 -87.195 	 -31.9659 	 -59.3755
| 13> C 	 -86.8964 	 -34.1074 	 -61.2469
| 14> H 	 -86.3911 	 -33.1488 	 -61.3737
| 15> H 	 -87.0911 	 -34.6268 	 -62.1328
| 16> C 	 -85.7866 	 -34.9471 	 -60.5022
| 17> H 	 -85.4843 	 -34.3829 	 -59.5431
| 18> H 	 -86.1717 	 -35.9266 	 -60.2591
| 19> C 	 -84.5144 	 -35.1554 	 -61.3399
| 20> H 	 -83.9092 	 -35.9369 	 -60.9776
| 21> H 	 -84.611 	 -35.3702 	 -62.4058
| 22> H 	 -83.8599 	 -34.2719 	 -61.1607
| 23> S 	 -89.0963 	 -29.661 	 -58.4169
| 24> C 	 -89.1539 	 -29.022 	 -56.7554
| 25> C 	 -89.2071 	 -30.0617 	 -55.7554
| 26> C 	 -89.2952 	 -31.3698 	 -56.386
| 27> C 	 -89.1695 	 -31.3386 	 -57.7636
| 28> H 	 -89.3372 	 -29.9287 	 -54.6566
| 29> C 	 -89.3792 	 -32.6568 	 -55.5337
| 30> H 	 -88.8251 	 -32.5905 	 -54.6234
| 31> H 	 -88.7994 	 -33.4575 	 -56.0773
| 32> C 	 -90.8029 	 -33.1705 	 -55.3005
| 33> H 	 -91.2117 	 -33.3561 	 -56.3254
| 34> H 	 -91.3701 	 -32.3997 	 -54.783
| 35> C 	 -90.8449 	 -34.4737 	 -54.5218
| 36> H 	 -90.4819 	 -35.3338 	 -55.0554
| 37> H 	 -91.9092 	 -34.6104 	 -54.3142
| 38> H 	 -90.3782 	 -34.4583 	 -53.5951
| 39> H 	 -89.5529 	 -35.3 	 -60.8555
| 40> H 	 -89.0837 	 -27.953 	 -56.4979
| 41> *
| 42>
| 43>                          ****END OF INPUT****

CARTESIAN COORDINATES (ANGSTROEM)
---------------------------------
  S    -90.444000  -33.620700  -59.199900
  C    -89.364700  -34.380900  -60.343400
  C    -88.090900  -33.774300  -60.402100
  C    -87.993700  -32.679300  -59.488800
  C    -89.120300  -32.476600  -58.716400
  H    -87.195000  -31.965900  -59.375500
  C    -86.896400  -34.107400  -61.246900
  H    -86.391100  -33.148800  -61.373700
  H    -87.091100  -34.626800  -62.132800
  C    -85.786600  -34.947100  -60.502200
  H    -85.484300  -34.382900  -59.543100
  H    -86.171700  -35.926600  -60.259100
  C    -84.514400  -35.155400  -61.339900
  H    -83.909200  -35.936900  -60.977600
  H    -84.611000  -35.370200  -62.405800
  H    -83.859900  -34.271900  -61.160700
  S    -89.096300  -29.661000  -58.416900
  C    -89.153900  -29.022000  -56.755400
  C    -89.207100  -30.061700  -55.755400
  C    -89.295200  -31.369800  -56.386000
  C    -89.169500  -31.338600  -57.763600
  H    -89.337200  -29.928700  -54.656600
  C    -89.379200  -32.656800  -55.533700
  H    -88.825100  -32.590500  -54.623400
  H    -88.799400  -33.457500  -56.077300
  C    -90.802900  -33.170500  -55.300500
  H    -91.211700  -33.356100  -56.325400
  H    -91.370100  -32.399700  -54.783000
  C    -90.844900  -34.473700  -54.521800
  H    -90.481900  -35.333800  -55.055400
  H    -91.909200  -34.610400  -54.314200
  H    -90.378200  -34.458300  -53.595100
  H    -89.552900  -35.300000  -60.855500
  H    -89.083700  -27.953000  -56.497900

 Total Charge           Charge          ....    0
 Multiplicity           Mult            ....    1
 Number of Electrons    NEL             ....  134
 Basis Dimension        Dim             ....  322

ORBITAL ENERGIES
----------------

  NO   OCC          E(Eh)            E(eV)
   0   2.0000     -88.973044     -2421.0796
   1   2.0000     -88.971716     -2421.0435
   2   2.0000     -10.332735      -281.1680
   3   2.0000     -10.330732      -281.1135
   4   2.0000     -10.330163      -281.0980
   5   2.0000     -10.317102      -280.7426
   6   2.0000     -10.307010      -280.4680
   7   2.0000     -10.306164      -280.4450
   8   2.0000     -10.304107      -280.3890
   9   2.0000     -10.294150      -280.1181
  10   2.0000     -10.292967      -280.0859
  11   2.0000     -10.290754      -280.0257
  12   2.0000     -10.288757      -279.9713
  13   2.0000     -10.284186      -279.8469
  14   2.0000     -10.276880      -279.6481
  15   2.0000     -10.266912      -279.3769
  16   2.0000      -8.085856      -220.0273
  17   2.0000      -8.084698      -219.9958
  18   2.0000      -6.044477      -164.4786
  19   2.0000      -6.043338      -164.4476
  20   2.0000      -6.040666      -164.3749
  21   2.0000      -6.039523      -164.3438
  22   2.0000      -6.036590      -164.2640
  23   2.0000      -6.035355      -164.2304
  24   2.0000      -0.994116       -27.0513
  25   2.0000      -0.971682       -26.4408
  26   2.0000      -0.906960       -24.6796
  27   2.0000      -0.904602       -24.6155
  28   2.0000      -0.862113       -23.4593
  29   2.0000      -0.851164       -23.1614
  30   2.0000      -0.847641       -23.0655
  31   2.0000      -0.806236       -21.9388
  32   2.0000      -0.781350       -21.2616
  33   2.0000      -0.769009       -20.9258
  34   2.0000      -0.699012       -19.0211
  35   2.0000      -0.696424       -18.9507
  36   2.0000      -0.688691       -18.7402
  37   2.0000      -0.664284       -18.0761
  38   2.0000      -0.640258       -17.4223
  39   2.0000      -0.614269       -16.7151
  40   2.0000      -0.590747       -16.0750
  41   2.0000      -0.569616       -15.5000
  42   2.0000      -0.565204       -15.3800
  43   2.0000      -0.556830       -15.1521
  44   2.0000      -0.522997       -14.2315
  45   2.0000      -0.518927       -14.1207
  46   2.0000      -0.510457       -13.8903
  47   2.0000      -0.508176       -13.8282
  48   2.0000      -0.503671       -13.7056
  49   2.0000      -0.499768       -13.5994
  50   2.0000      -0.489274       -13.3138
  51   2.0000      -0.475082       -12.9276
  52   2.0000      -0.469688       -12.7809
  53   2.0000      -0.464301       -12.6343
  54   2.0000      -0.459237       -12.4965
  55   2.0000      -0.449559       -12.2331
  56   2.0000      -0.443708       -12.0739
  57   2.0000      -0.433319       -11.7912
  58   2.0000      -0.430240       -11.7074
  59   2.0000      -0.427479       -11.6323
  60   2.0000      -0.419792       -11.4231
  61   2.0000      -0.416768       -11.3408
  62   2.0000      -0.413812       -11.2604
  63   2.0000      -0.340256        -9.2588
  64   2.0000      -0.331835        -9.0297
  65   2.0000      -0.321949        -8.7607
  66   2.0000      -0.298379        -8.1193
  67   0.0000       0.031951         0.8694
  68   0.0000       0.053960         1.4683
  69   0.0000       0.099437         2.7058
  70   0.0000       0.106205         2.8900
  71   0.0000       0.124277         3.3818

MULLIKEN ATOMIC CHARGES
-----------------------
   0 S :    0.113621
   1 C :   -0.111917
   2 C :   -0.055607
   3 C :    0.000934
   4 C :   -0.139739
   5 H :    0.018508
   6 C :    0.097401
   7 H :    0.025609
   8 H :    0.010624
   9 C :   -0.111161
  10 H :    0.043272
  11 H :    0.026889
  12 C :   -0.041274
  13 H :    0.020801
  14 H :    0.035528
  15 H :    0.031112
  16 S :    0.114747
  17 C :   -0.114416
  18 C :   -0.037584
  19 C :   -0.021095
  20 C :   -0.189805
  21 H :    0.042295
  22 C :    0.036376
  23 H :    0.011349
  24 H :    0.032880
  25 C :   -0.081312
  26 H :    0.029359
  27 H :    0.028103
  28 C :    0.000547
  29 H :    0.030456
  30 H :    0.028432
  31 H :    0.011173
  32 H :    0.040244
  33 H :    0.073655
Sum of atomic charges:    0.0000000

LOEWDIN ATOMIC CHARGES
----------------------
   0 S :    0.389566
   1 C :   -0.197438
   2 C :   -0.058732
   3 C :   -0.055368
   4 C :   -0.180071
   5 H :    0.030743
   6 C :   -0.025161
   7 H :    0.035789
   8 H :    0.020495
   9 C :   -0.037188
  10 H :    0.033219
  11 H :    0.016475
  12 C :   -0.073992
  13 H :    0.021491
  14 H :    0.025629
  15 H :    0.030594
  16 S :    0.382221
  17 C :   -0.181911
  18 C :   -0.072992
  19 C :   -0.049832
  20 C :   -0.188986
  21 H :    0.039770
  22 C :   -0.037646
  23 H :    0.021085
  24 H :    0.035903
  25 C :   -0.038406
  26 H :    0.023033
  27 H :    0.022084
  28 C :   -0.058836
  29 H :    0.025413
  30 H :    0.031608
  31 H :    0.013737
  32 H :    0.024367
  33 H :    0.033335

  Mayer bond orders larger than 0.100000
B(  0-S ,  1-C ) :   1.1387 B(  0-S ,  4-C ) :   1.1172 B(  1-C ,  2-C ) :   1.6068
B(  1-C , 32-H ) :   0.9662 B(  2-C ,  3-C ) :   1.2227 B(  2-C ,  6-C ) :   1.0400
B(  3-C ,  4-C ) :   1.5975 B(  3-C ,  5-H ) :   0.9902 B(  4-C , 20-C ) :   1.0430
B(  6-C ,  7-H ) :   0.9378 B(  6-C ,  8-H ) :   0.9407 B(  6-C ,  9-C ) :   1.0576
B(  9-C , 10-H ) :   0.9589 B(  9-C , 11-H ) :   0.9608 B(  9-C , 12-C ) :   1.0763
B( 12-C , 13-H ) :   0.9729 B( 12-C , 14-H ) :   0.9741 B( 12-C , 15-H ) :   0.9759
B( 16-S , 17-C ) :   1.1564 B( 16-S , 20-C ) :   1.1149 B( 17-C , 18-C ) :   1.5984
B( 17-C , 33-H ) :   0.9638 B( 18-C , 19-C ) :   1.2426 B( 18-C , 21-H ) :   0.9775
B( 19-C , 20-C ) :   1.6200 B( 19-C , 22-C ) :   1.0362 B( 22-C , 23-H ) :   0.9421
B( 22-C , 24-H ) :   0.9334 B( 22-C , 25-C ) :   1.0621 B( 25-C , 26-H ) :   0.9484
B( 25-C , 27-H ) :   0.9573 B( 25-C , 28-C ) :   1.0916 B( 28-C , 29-H ) :   0.9725
B( 28-C , 30-H ) :   0.9721 B( 28-C , 31-H ) :   0.9718

Dispersion correction           -0.014145826
FINAL SINGLE POINT ENERGY     -1339.872496051200

DIPOLE MOMENT
-------------
                                X             Y             Z
Electronic contribution:    -12.01986      17.16327      -4.97925
Nuclear contribution   :     12.43368     -17.45183       5.17948
                        -----------------------------------------
Total Dipole Moment    :      0.41383      -0.28856       0.20023
                        -----------------------------------------
Magnitude (a.u.)       :      0.54278
Magnitude (Debye)      :      1.37964

Rotational constants in cm-1:     0.017407     0.008043     0.006756
Rotational constants in MHz :   521.835257   241.124988   202.542019

                             ****ORCA TERMINATED NORMALLY****
TOTAL RUN TIME: 0 days 0 hours 0 minutes 20 seconds 67 msec
