                         Program Version 4.2.1 -  RELEASE  -
|  1> ! wB97X-D3 SP def2-SVP
|  2> %pal
|  3> nprocs 24
|  4> end
|  5>
|  6> * xyz 0 1
|  7> S 	 -69.1867 	 13.0801 	 -69.6397
|  8> C 	 -68.5819 	 14.2295 	 -70.7804
|  9> C 	 -68.4412 	 13.6967 	 -72.0683
| 10> C 	 -68.9109 	 12.3604 	 -72.1673
| 11> C 	 -69.4144 	 11.9051 	 -70.9428
| 12> H 	 -68.9185 	 11.679 	 -73.0586
| 13> C 	 -68.011 	 14.4794 	 -73.2601
| 14> H 	 -68.7757 	 14.2465 	 -74.0658
| 15> H 	 -67.0408 	 14.0986 	 -73.6599
| 16> C 	 -67.9823 	 16.0281 	 -73.098
| 17> H 	 -67.3506 	 16.1731 	 -72.2249
| 18> H 	 -67.4132 	 16.4427 	 -73.9963
| 19> C 	 -69.3808 	 16.6645 	 -73.0219
| 20> H 	 -69.9861 	 16.7235 	 -73.9328
| 21> H 	 -69.9851 	 16.2093 	 -72.2456
| 22> H 	 -69.3251 	 17.709 	 -72.7071
| 23> S 	 -69.1348 	 9.56333 	 -69.5373
| 24> C 	 -70.3091 	 8.26977 	 -69.7319
| 25> C 	 -71.2448 	 8.65739 	 -70.6631
| 26> C 	 -71.1392 	 9.98898 	 -71.1567
| 27> C 	 -70.0056 	 10.6049 	 -70.6884
| 28> H 	 -72.1116 	 7.98683 	 -70.8195
| 29> C 	 -72.0451 	 10.553 	 -72.1796
| 30> H 	 -72.4313 	 9.68241 	 -72.7873
| 31> H 	 -71.4917 	 11.147 	 -72.8291
| 32> C 	 -73.2357 	 11.3323 	 -71.6264
| 33> H 	 -73.5967 	 12.2237 	 -72.2142
| 34> H 	 -72.8193 	 11.7707 	 -70.7636
| 35> C 	 -74.4129 	 10.4977 	 -71.1845
| 36> H 	 -75.2008 	 11.0902 	 -70.6654
| 37> H 	 -74.1388 	 9.75496 	 -70.4645
| 38> H 	 -74.7525 	 9.9663 	 -72.0984
| 39> H 	 -68.2219 	 15.1933 	 -70.3971
| 40> H 	 -70.3596 	 7.34173 	 -69.1381
| 41> *
| 42>
| 43>                          ****END OF INPUT****

CARTESIAN COORDINATES (ANGSTROEM)
---------------------------------
  S    -69.186700   13.080100  -69.639700
  C    -68.581900   14.229500  -70.780400
  C    -68.441200   13.696700  -72.068300
  C    -68.910900   12.360400  -72.167300
  C    -69.414400   11.905100  -70.942800
  H    -68.918500   11.679000  -73.058600
  C    -68.011000   14.479400  -73.260100
  H    -68.775700   14.246500  -74.065800
  H    -67.040800   14.098600  -73.659900
  C    -67.982300   16.028100  -73.098000
  H    -67.350600   16.173100  -72.224900
  H    -67.413200   16.442700  -73.996300
  C    -69.380800   16.664500  -73.021900
  H    -69.986100   16.723500  -73.932800
  H    -69.985100   16.209300  -72.245600
  H    -69.325100   17.709000  -72.707100
  S    -69.134800    9.563330  -69.537300
  C    -70.309100    8.269770  -69.731900
  C    -71.244800    8.657390  -70.663100
  C    -71.139200    9.988980  -71.156700
  C    -70.005600   10.604900  -70.688400
  H    -72.111600    7.986830  -70.819500
  C    -72.045100   10.553000  -72.179600
  H    -72.431300    9.682410  -72.787300
  H    -71.491700   11.147000  -72.829100
  C    -73.235700   11.332300  -71.626400
  H    -73.596700   12.223700  -72.214200
  H    -72.819300   11.770700  -70.763600
  C    -74.412900   10.497700  -71.184500
  H    -75.200800   11.090200  -70.665400
  H    -74.138800    9.754960  -70.464500
  H    -74.752500    9.966300  -72.098400
  H    -68.221900   15.193300  -70.397100
  H    -70.359600    7.341730  -69.138100

 Total Charge           Charge          ....    0
 Multiplicity           Mult            ....    1
 Number of Electrons    NEL             ....  134
 Basis Dimension        Dim             ....  322

ORBITAL ENERGIES
----------------

  NO   OCC          E(Eh)            E(eV)
   0   2.0000     -88.968896     -2420.9667
   1   2.0000     -88.962127     -2420.7826
   2   2.0000     -10.331353      -281.1304
   3   2.0000     -10.324784      -280.9516
   4   2.0000     -10.319596      -280.8105
   5   2.0000     -10.316818      -280.7349
   6   2.0000     -10.304109      -280.3891
   7   2.0000     -10.302302      -280.3399
   8   2.0000     -10.299634      -280.2673
   9   2.0000     -10.297380      -280.2059
  10   2.0000     -10.296927      -280.1936
  11   2.0000     -10.293581      -280.1026
  12   2.0000     -10.285815      -279.8913
  13   2.0000     -10.278484      -279.6918
  14   2.0000     -10.278035      -279.6796
  15   2.0000     -10.275652      -279.6147
  16   2.0000      -8.083652      -219.9674
  17   2.0000      -8.076545      -219.7740
  18   2.0000      -6.042006      -164.4113
  19   2.0000      -6.038170      -164.3070
  20   2.0000      -6.035148      -164.2247
  21   2.0000      -6.034563      -164.2088
  22   2.0000      -6.030972      -164.1111
  23   2.0000      -6.027338      -164.0122
  24   2.0000      -1.006268       -27.3819
  25   2.0000      -0.984254       -26.7829
  26   2.0000      -0.914038       -24.8722
  27   2.0000      -0.910006       -24.7625
  28   2.0000      -0.866300       -23.5732
  29   2.0000      -0.853620       -23.2282
  30   2.0000      -0.847770       -23.0690
  31   2.0000      -0.810129       -22.0447
  32   2.0000      -0.783393       -21.3172
  33   2.0000      -0.771081       -20.9822
  34   2.0000      -0.708864       -19.2892
  35   2.0000      -0.703107       -19.1325
  36   2.0000      -0.688419       -18.7328
  37   2.0000      -0.661040       -17.9878
  38   2.0000      -0.641848       -17.4656
  39   2.0000      -0.606644       -16.5076
  40   2.0000      -0.595403       -16.2017
  41   2.0000      -0.572964       -15.5912
  42   2.0000      -0.555471       -15.1151
  43   2.0000      -0.551619       -15.0103
  44   2.0000      -0.547583       -14.9005
  45   2.0000      -0.529993       -14.4219
  46   2.0000      -0.515799       -14.0356
  47   2.0000      -0.512721       -13.9519
  48   2.0000      -0.502390       -13.6707
  49   2.0000      -0.490119       -13.3368
  50   2.0000      -0.487079       -13.2541
  51   2.0000      -0.480993       -13.0885
  52   2.0000      -0.473968       -12.8973
  53   2.0000      -0.465690       -12.6721
  54   2.0000      -0.464313       -12.6346
  55   2.0000      -0.445398       -12.1199
  56   2.0000      -0.441526       -12.0145
  57   2.0000      -0.438589       -11.9346
  58   2.0000      -0.428534       -11.6610
  59   2.0000      -0.425801       -11.5866
  60   2.0000      -0.422258       -11.4902
  61   2.0000      -0.415433       -11.3045
  62   2.0000      -0.408412       -11.1135
  63   2.0000      -0.342008        -9.3065
  64   2.0000      -0.330561        -8.9950
  65   2.0000      -0.327715        -8.9176
  66   2.0000      -0.297567        -8.0972
  67   0.0000       0.031697         0.8625
  68   0.0000       0.062127         1.6906
  69   0.0000       0.113182         3.0798
  70   0.0000       0.118872         3.2347
  71   0.0000       0.126567         3.4441

MULLIKEN ATOMIC CHARGES
-----------------------
   0 S :    0.127821
   1 C :   -0.146797
   2 C :   -0.067412
   3 C :    0.025893
   4 C :   -0.175676
   5 H :    0.043584
   6 C :    0.019467
   7 H :    0.035059
   8 H :    0.046522
   9 C :   -0.082627
  10 H :    0.031801
  11 H :    0.041560
  12 C :   -0.052347
  13 H :    0.037964
  14 H :    0.035337
  15 H :    0.028406
  16 S :    0.096337
  17 C :   -0.102955
  18 C :   -0.051709
  19 C :   -0.028922
  20 C :   -0.185463
  21 H :    0.029317
  22 C :    0.110162
  23 H :    0.022942
  24 H :   -0.002972
  25 C :   -0.055309
  26 H :    0.037311
  27 H :    0.011273
  28 C :   -0.052598
  29 H :    0.043088
  30 H :    0.021249
  31 H :    0.028702
  32 H :    0.060933
  33 H :    0.070063
Sum of atomic charges:   -0.0000000

LOEWDIN ATOMIC CHARGES
----------------------
   0 S :    0.414403
   1 C :   -0.211852
   2 C :   -0.068116
   3 C :   -0.058108
   4 C :   -0.193321
   5 H :    0.045523
   6 C :   -0.041843
   7 H :    0.036143
   8 H :    0.036844
   9 C :   -0.044110
  10 H :    0.021583
  11 H :    0.034633
  12 C :   -0.073424
  13 H :    0.029055
  14 H :    0.025312
  15 H :    0.028323
  16 S :    0.386330
  17 C :   -0.187339
  18 C :   -0.079079
  19 C :   -0.058661
  20 C :   -0.190571
  21 H :    0.034110
  22 C :   -0.025003
  23 H :    0.034323
  24 H :    0.022000
  25 C :   -0.044551
  26 H :    0.031123
  27 H :    0.018531
  28 C :   -0.067111
  29 H :    0.032794
  30 H :    0.019032
  31 H :    0.025605
  32 H :    0.028338
  33 H :    0.039085

  Mayer bond orders larger than 0.100000
B(  0-S ,  1-C ) :   1.1459 B(  0-S ,  4-C ) :   1.1594 B(  1-C ,  2-C ) :   1.5882
B(  1-C ,  4-C ) :   0.1011 B(  1-C , 32-H ) :   0.9605 B(  2-C ,  3-C ) :   1.2514
B(  2-C ,  6-C ) :   1.0134 B(  3-C ,  4-C ) :   1.5716 B(  3-C ,  5-H ) :   0.9841
B(  4-C , 20-C ) :   1.0311 B(  6-C ,  7-H ) :   0.9471 B(  6-C ,  8-H ) :   0.9316
B(  6-C ,  9-C ) :   1.0815 B(  9-C , 10-H ) :   0.9508 B(  9-C , 11-H ) :   0.9547
B(  9-C , 12-C ) :   1.0727 B( 12-C , 13-H ) :   0.9745 B( 12-C , 14-H ) :   0.9752
B( 12-C , 15-H ) :   0.9724 B( 16-S , 17-C ) :   1.1431 B( 16-S , 20-C ) :   1.1395
B( 17-C , 18-C ) :   1.6235 B( 17-C , 33-H ) :   0.9635 B( 18-C , 19-C ) :   1.2325
B( 18-C , 21-H ) :   0.9764 B( 19-C , 20-C ) :   1.6079 B( 19-C , 22-C ) :   1.0511
B( 22-C , 23-H ) :   0.9386 B( 22-C , 24-H ) :   0.9187 B( 22-C , 25-C ) :   1.0519
B( 25-C , 26-H ) :   0.9566 B( 25-C , 27-H ) :   0.9503 B( 25-C , 28-C ) :   1.0857
B( 28-C , 29-H ) :   0.9708 B( 28-C , 30-H ) :   0.9731 B( 28-C , 31-H ) :   0.9751

Dispersion correction           -0.014650335
FINAL SINGLE POINT ENERGY     -1339.888005841127

DIPOLE MOMENT
-------------
                                X             Y             Z
Electronic contribution:     13.07766     -13.43561      16.29232
Nuclear contribution   :    -13.26656      13.63642     -16.71497
                        -----------------------------------------
Total Dipole Moment    :     -0.18890       0.20081      -0.42265
                        -----------------------------------------
Magnitude (a.u.)       :      0.50462
Magnitude (Debye)      :      1.28263

Rotational constants in cm-1:     0.021492     0.008134     0.006724
Rotational constants in MHz :   644.312230   243.849330   201.578967

                             ****ORCA TERMINATED NORMALLY****
TOTAL RUN TIME: 0 days 0 hours 0 minutes 22 seconds 1 msec
