                         Program Version 4.2.1 -  RELEASE  -
|  1> ! wB97X-D3 SP def2-SVP
|  2> %pal
|  3> nprocs 24
|  4> end
|  5>
|  6> * xyz 0 1
|  7> S 	 -45.8268 	 9.92165 	 -18.958
|  8> C 	 -45.7199 	 8.32936 	 -18.1866
|  9> C 	 -46.705 	 8.23376 	 -17.2399
| 10> C 	 -47.6877 	 9.26945 	 -17.2264
| 11> C 	 -47.4029 	 10.1712 	 -18.2295
| 12> H 	 -48.4856 	 9.40015 	 -16.5732
| 13> C 	 -46.8033 	 7.10515 	 -16.2547
| 14> H 	 -47.161 	 7.48183 	 -15.2679
| 15> H 	 -45.7121 	 6.79249 	 -16.0583
| 16> C 	 -47.6541 	 5.89846 	 -16.7135
| 17> H 	 -47.5179 	 5.71324 	 -17.7896
| 18> H 	 -47.2396 	 5.07986 	 -16.1402
| 19> C 	 -49.1237 	 6.07596 	 -16.3091
| 20> H 	 -49.6714 	 5.12332 	 -16.4724
| 21> H 	 -49.2476 	 6.46986 	 -15.313
| 22> H 	 -49.5567 	 6.80749 	 -16.9778
| 23> S 	 -47.7965 	 12.8619 	 -17.8518
| 24> C 	 -48.7931 	 13.77 	 -18.8883
| 25> C 	 -49.4534 	 12.9014 	 -19.7805
| 26> C 	 -49.1956 	 11.4857 	 -19.5202
| 27> C 	 -48.2145 	 11.3522 	 -18.5621
| 28> H 	 -50.1224 	 13.3552 	 -20.4597
| 29> C 	 -49.7074 	 10.4599 	 -20.5464
| 30> H 	 -49.2472 	 9.47649 	 -20.2903
| 31> H 	 -49.2359 	 10.6718 	 -21.5235
| 32> C 	 -51.2255 	 10.3595 	 -20.592
| 33> H 	 -51.6286 	 11.2766 	 -20.9811
| 34> H 	 -51.5238 	 10.3743 	 -19.5332
| 35> C 	 -51.7108 	 9.18489 	 -21.4728
| 36> H 	 -51.1531 	 8.24306 	 -21.3552
| 37> H 	 -51.5703 	 9.28871 	 -22.5836
| 38> H 	 -52.7395 	 9.04398 	 -21.2164
| 39> H 	 -44.8755 	 7.62414 	 -18.1128
| 40> H 	 -48.8188 	 14.8502 	 -18.9601
| 41> *
| 42>
| 43>                          ****END OF INPUT****

CARTESIAN COORDINATES (ANGSTROEM)
---------------------------------
  S    -45.826800    9.921650  -18.958000
  C    -45.719900    8.329360  -18.186600
  C    -46.705000    8.233760  -17.239900
  C    -47.687700    9.269450  -17.226400
  C    -47.402900   10.171200  -18.229500
  H    -48.485600    9.400150  -16.573200
  C    -46.803300    7.105150  -16.254700
  H    -47.161000    7.481830  -15.267900
  H    -45.712100    6.792490  -16.058300
  C    -47.654100    5.898460  -16.713500
  H    -47.517900    5.713240  -17.789600
  H    -47.239600    5.079860  -16.140200
  C    -49.123700    6.075960  -16.309100
  H    -49.671400    5.123320  -16.472400
  H    -49.247600    6.469860  -15.313000
  H    -49.556700    6.807490  -16.977800
  S    -47.796500   12.861900  -17.851800
  C    -48.793100   13.770000  -18.888300
  C    -49.453400   12.901400  -19.780500
  C    -49.195600   11.485700  -19.520200
  C    -48.214500   11.352200  -18.562100
  H    -50.122400   13.355200  -20.459700
  C    -49.707400   10.459900  -20.546400
  H    -49.247200    9.476490  -20.290300
  H    -49.235900   10.671800  -21.523500
  C    -51.225500   10.359500  -20.592000
  H    -51.628600   11.276600  -20.981100
  H    -51.523800   10.374300  -19.533200
  C    -51.710800    9.184890  -21.472800
  H    -51.153100    8.243060  -21.355200
  H    -51.570300    9.288710  -22.583600
  H    -52.739500    9.043980  -21.216400
  H    -44.875500    7.624140  -18.112800
  H    -48.818800   14.850200  -18.960100

 Total Charge           Charge          ....    0
 Multiplicity           Mult            ....    1
 Number of Electrons    NEL             ....  134
 Basis Dimension        Dim             ....  322

ORBITAL ENERGIES
----------------

  NO   OCC          E(Eh)            E(eV)
   0   2.0000     -88.967862     -2420.9386
   1   2.0000     -88.962938     -2420.8046
   2   2.0000     -10.329254      -281.0733
   3   2.0000     -10.321633      -280.8659
   4   2.0000     -10.315262      -280.6926
   5   2.0000     -10.312822      -280.6261
   6   2.0000     -10.304489      -280.3994
   7   2.0000     -10.295461      -280.1537
   8   2.0000     -10.295064      -280.1429
   9   2.0000     -10.292416      -280.0709
  10   2.0000     -10.291393      -280.0430
  11   2.0000     -10.289793      -279.9995
  12   2.0000     -10.286043      -279.8975
  13   2.0000     -10.286036      -279.8973
  14   2.0000     -10.281201      -279.7657
  15   2.0000     -10.277291      -279.6593
  16   2.0000      -8.081942      -219.9208
  17   2.0000      -8.079143      -219.8446
  18   2.0000      -6.040578      -164.3725
  19   2.0000      -6.037503      -164.2888
  20   2.0000      -6.036701      -164.2670
  21   2.0000      -6.033234      -164.1726
  22   2.0000      -6.032431      -164.1508
  23   2.0000      -6.030187      -164.0897
  24   2.0000      -1.008662       -27.4471
  25   2.0000      -0.986013       -26.8308
  26   2.0000      -0.909750       -24.7555
  27   2.0000      -0.906876       -24.6773
  28   2.0000      -0.867352       -23.6018
  29   2.0000      -0.847367       -23.0580
  30   2.0000      -0.845900       -23.0181
  31   2.0000      -0.814727       -22.1699
  32   2.0000      -0.779340       -21.2069
  33   2.0000      -0.768476       -20.9113
  34   2.0000      -0.704487       -19.1701
  35   2.0000      -0.699665       -19.0389
  36   2.0000      -0.696216       -18.9450
  37   2.0000      -0.657965       -17.9041
  38   2.0000      -0.641682       -17.4611
  39   2.0000      -0.614666       -16.7259
  40   2.0000      -0.593793       -16.1579
  41   2.0000      -0.574161       -15.6237
  42   2.0000      -0.557892       -15.1810
  43   2.0000      -0.545605       -14.8467
  44   2.0000      -0.536816       -14.6075
  45   2.0000      -0.529727       -14.4146
  46   2.0000      -0.517832       -14.0909
  47   2.0000      -0.513611       -13.9761
  48   2.0000      -0.504872       -13.7383
  49   2.0000      -0.494106       -13.4453
  50   2.0000      -0.488023       -13.2798
  51   2.0000      -0.484052       -13.1717
  52   2.0000      -0.468795       -12.7566
  53   2.0000      -0.463508       -12.6127
  54   2.0000      -0.459135       -12.4937
  55   2.0000      -0.448329       -12.1997
  56   2.0000      -0.440938       -11.9985
  57   2.0000      -0.436822       -11.8865
  58   2.0000      -0.435698       -11.8560
  59   2.0000      -0.422397       -11.4940
  60   2.0000      -0.417992       -11.3741
  61   2.0000      -0.411730       -11.2038
  62   2.0000      -0.408427       -11.1139
  63   2.0000      -0.333642        -9.0789
  64   2.0000      -0.327536        -8.9127
  65   2.0000      -0.319770        -8.7014
  66   2.0000      -0.312654        -8.5077
  67   0.0000       0.043120         1.1733
  68   0.0000       0.055234         1.5030
  69   0.0000       0.105252         2.8641
  70   0.0000       0.116955         3.1825
  71   0.0000       0.137155         3.7322

MULLIKEN ATOMIC CHARGES
-----------------------
   0 S :    0.119322
   1 C :   -0.109779
   2 C :   -0.097786
   3 C :    0.075506
   4 C :   -0.161622
   5 H :   -0.006505
   6 C :   -0.009743
   7 H :    0.028990
   8 H :    0.028493
   9 C :   -0.036659
  10 H :    0.037312
  11 H :    0.027408
  12 C :   -0.048557
  13 H :    0.043325
  14 H :    0.026108
  15 H :    0.028587
  16 S :    0.125918
  17 C :   -0.103255
  18 C :   -0.040700
  19 C :   -0.003831
  20 C :   -0.201177
  21 H :    0.009305
  22 C :    0.041731
  23 H :    0.027246
  24 H :    0.040093
  25 C :   -0.075364
  26 H :    0.024506
  27 H :    0.036050
  28 C :   -0.042653
  29 H :    0.026883
  30 H :    0.037595
  31 H :    0.038355
  32 H :    0.052738
  33 H :    0.062162
Sum of atomic charges:   -0.0000000

LOEWDIN ATOMIC CHARGES
----------------------
   0 S :    0.399683
   1 C :   -0.206246
   2 C :   -0.065710
   3 C :   -0.050008
   4 C :   -0.184443
   5 H :    0.024373
   6 C :   -0.039833
   7 H :    0.030494
   8 H :    0.032803
   9 C :   -0.037087
  10 H :    0.028715
  11 H :    0.022618
  12 C :   -0.065792
  13 H :    0.031264
  14 H :    0.021557
  15 H :    0.023528
  16 S :    0.438696
  17 C :   -0.204395
  18 C :   -0.067597
  19 C :   -0.054319
  20 C :   -0.221821
  21 H :    0.021025
  22 C :   -0.034540
  23 H :    0.030010
  24 H :    0.033590
  25 C :   -0.041292
  26 H :    0.021066
  27 H :    0.030537
  28 C :   -0.070427
  29 H :    0.026193
  30 H :    0.033636
  31 H :    0.025414
  32 H :    0.036716
  33 H :    0.031592

  Mayer bond orders larger than 0.100000
B(  0-S ,  1-C ) :   1.1102 B(  0-S ,  4-C ) :   1.1599 B(  1-C ,  2-C ) :   1.6446
B(  1-C , 32-H ) :   0.9595 B(  2-C ,  3-C ) :   1.2129 B(  2-C ,  6-C ) :   1.0342
B(  3-C ,  4-C ) :   1.5847 B(  3-C ,  5-H ) :   1.0075 B(  4-C , 20-C ) :   0.9966
B(  6-C ,  7-H ) :   0.9443 B(  6-C ,  8-H ) :   0.9434 B(  6-C ,  9-C ) :   1.0531
B(  9-C , 10-H ) :   0.9558 B(  9-C , 11-H ) :   0.9559 B(  9-C , 12-C ) :   1.0816
B( 12-C , 13-H ) :   0.9729 B( 12-C , 14-H ) :   0.9754 B( 12-C , 15-H ) :   0.9735
B( 16-S , 17-C ) :   1.1684 B( 16-S , 20-C ) :   1.1714 B( 17-C , 18-C ) :   1.6042
B( 17-C , 33-H ) :   0.9690 B( 18-C , 19-C ) :   1.2229 B( 18-C , 21-H ) :   0.9951
B( 19-C , 20-C ) :   1.5929 B( 19-C , 22-C ) :   1.0457 B( 22-C , 23-H ) :   0.9372
B( 22-C , 24-H ) :   0.9432 B( 22-C , 25-C ) :   1.0466 B( 25-C , 26-H ) :   0.9542
B( 25-C , 27-H ) :   0.9603 B( 25-C , 28-C ) :   1.0725 B( 28-C , 29-H ) :   0.9760
B( 28-C , 30-H ) :   0.9724 B( 28-C , 31-H ) :   0.9758

Dispersion correction           -0.014174001
FINAL SINGLE POINT ENERGY     -1339.874476278044

DIPOLE MOMENT
-------------
                                X             Y             Z
Electronic contribution:     17.63405      21.40097       2.26366
Nuclear contribution   :    -17.93928     -21.67332      -2.26430
                        -----------------------------------------
Total Dipole Moment    :     -0.30523      -0.27235      -0.00065
                        -----------------------------------------
Magnitude (a.u.)       :      0.40907
Magnitude (Debye)      :      1.03978

Rotational constants in cm-1:     0.016427     0.009243     0.007028
Rotational constants in MHz :   492.482773   277.096900   210.685401

                             ****ORCA TERMINATED NORMALLY****
TOTAL RUN TIME: 0 days 0 hours 0 minutes 20 seconds 169 msec
