                         Program Version 4.2.1 -  RELEASE  -
|  1> ! wB97X-D3 SP def2-SVP
|  2> %pal
|  3> nprocs 24
|  4> end
|  5>
|  6> * xyz 0 1
|  7> S 	 -44.6632 	 21.8301 	 30.9115
|  8> C 	 -44.0308 	 22.236 	 29.367
|  9> C 	 -43.4049 	 21.1511 	 28.7507
| 10> C 	 -43.3746 	 19.9957 	 29.589
| 11> C 	 -44.0264 	 20.1434 	 30.8145
| 12> H 	 -42.8905 	 19.0468 	 29.3925
| 13> C 	 -42.6697 	 21.1777 	 27.4574
| 14> H 	 -41.9126 	 20.4116 	 27.4237
| 15> H 	 -41.9718 	 21.9636 	 27.4102
| 16> C 	 -43.5622 	 21.399 	 26.2028
| 17> H 	 -43.9266 	 22.4275 	 26.1468
| 18> H 	 -42.9871 	 21.306 	 25.278
| 19> C 	 -44.7864 	 20.477 	 26.166
| 20> H 	 -45.1208 	 20.2036 	 27.1465
| 21> H 	 -45.5881 	 20.8482 	 25.4947
| 22> H 	 -44.5518 	 19.4354 	 25.8722
| 23> S 	 -43.0774 	 18.1184 	 32.3706
| 24> C 	 -44.1486 	 17.1628 	 33.3379
| 25> C 	 -45.4682 	 17.4998 	 33.0547
| 26> C 	 -45.5996 	 18.5726 	 32.0831
| 27> C 	 -44.406 	 19.0636 	 31.6583
| 28> H 	 -46.2642 	 17.0105 	 33.5358
| 29> C 	 -46.9311 	 19.0502 	 31.6031
| 30> H 	 -46.9019 	 20.0214 	 31.1329
| 31> H 	 -47.4889 	 19.3979 	 32.5059
| 32> C 	 -47.8054 	 18.154 	 30.7707
| 33> H 	 -48.8194 	 18.5096 	 30.6634
| 34> H 	 -47.8853 	 17.2218 	 31.2844
| 35> C 	 -47.2364 	 17.6576 	 29.3989
| 36> H 	 -46.2119 	 17.2862 	 29.4249
| 37> H 	 -47.174 	 18.4998 	 28.6748
| 38> H 	 -47.814 	 16.8723 	 28.8835
| 39> H 	 -44.0672 	 23.1883 	 28.836
| 40> H 	 -43.771 	 16.4014 	 33.9699
| 41> *
| 42>
| 43>                          ****END OF INPUT****

CARTESIAN COORDINATES (ANGSTROEM)
---------------------------------
  S    -44.663200   21.830100   30.911500
  C    -44.030800   22.236000   29.367000
  C    -43.404900   21.151100   28.750700
  C    -43.374600   19.995700   29.589000
  C    -44.026400   20.143400   30.814500
  H    -42.890500   19.046800   29.392500
  C    -42.669700   21.177700   27.457400
  H    -41.912600   20.411600   27.423700
  H    -41.971800   21.963600   27.410200
  C    -43.562200   21.399000   26.202800
  H    -43.926600   22.427500   26.146800
  H    -42.987100   21.306000   25.278000
  C    -44.786400   20.477000   26.166000
  H    -45.120800   20.203600   27.146500
  H    -45.588100   20.848200   25.494700
  H    -44.551800   19.435400   25.872200
  S    -43.077400   18.118400   32.370600
  C    -44.148600   17.162800   33.337900
  C    -45.468200   17.499800   33.054700
  C    -45.599600   18.572600   32.083100
  C    -44.406000   19.063600   31.658300
  H    -46.264200   17.010500   33.535800
  C    -46.931100   19.050200   31.603100
  H    -46.901900   20.021400   31.132900
  H    -47.488900   19.397900   32.505900
  C    -47.805400   18.154000   30.770700
  H    -48.819400   18.509600   30.663400
  H    -47.885300   17.221800   31.284400
  C    -47.236400   17.657600   29.398900
  H    -46.211900   17.286200   29.424900
  H    -47.174000   18.499800   28.674800
  H    -47.814000   16.872300   28.883500
  H    -44.067200   23.188300   28.836000
  H    -43.771000   16.401400   33.969900

 Total Charge           Charge          ....    0
 Multiplicity           Mult            ....    1
 Number of Electrons    NEL             ....  134
 Basis Dimension        Dim             ....  322

ORBITAL ENERGIES
----------------

  NO   OCC          E(Eh)            E(eV)
   0   2.0000     -88.973084     -2421.0807
   1   2.0000     -88.960577     -2420.7404
   2   2.0000     -10.331157      -281.1251
   3   2.0000     -10.324737      -280.9504
   4   2.0000     -10.318174      -280.7718
   5   2.0000     -10.317202      -280.7453
   6   2.0000     -10.303277      -280.3664
   7   2.0000     -10.301179      -280.3093
   8   2.0000     -10.297072      -280.1976
   9   2.0000     -10.294937      -280.1395
  10   2.0000     -10.289511      -279.9918
  11   2.0000     -10.286722      -279.9159
  12   2.0000     -10.286352      -279.9059
  13   2.0000     -10.282556      -279.8026
  14   2.0000     -10.275823      -279.6194
  15   2.0000     -10.271850      -279.5112
  16   2.0000      -8.086601      -220.0476
  17   2.0000      -8.075745      -219.7522
  18   2.0000      -6.045129      -164.4963
  19   2.0000      -6.041133      -164.3876
  20   2.0000      -6.037548      -164.2900
  21   2.0000      -6.034233      -164.1998
  22   2.0000      -6.030150      -164.0887
  23   2.0000      -6.026541      -163.9905
  24   2.0000      -1.006621       -27.3915
  25   2.0000      -0.983946       -26.7745
  26   2.0000      -0.911801       -24.8114
  27   2.0000      -0.908299       -24.7161
  28   2.0000      -0.874384       -23.7932
  29   2.0000      -0.848979       -23.1019
  30   2.0000      -0.843190       -22.9444
  31   2.0000      -0.812258       -22.1027
  32   2.0000      -0.784828       -21.3563
  33   2.0000      -0.776088       -21.1184
  34   2.0000      -0.711175       -19.3521
  35   2.0000      -0.704875       -19.1806
  36   2.0000      -0.698287       -19.0013
  37   2.0000      -0.666828       -18.1453
  38   2.0000      -0.641073       -17.4445
  39   2.0000      -0.615368       -16.7450
  40   2.0000      -0.602675       -16.3996
  41   2.0000      -0.576171       -15.6784
  42   2.0000      -0.553285       -15.0556
  43   2.0000      -0.548731       -14.9317
  44   2.0000      -0.542267       -14.7558
  45   2.0000      -0.535557       -14.5732
  46   2.0000      -0.517734       -14.0882
  47   2.0000      -0.508427       -13.8350
  48   2.0000      -0.506043       -13.7701
  49   2.0000      -0.494028       -13.4432
  50   2.0000      -0.492392       -13.3987
  51   2.0000      -0.477446       -12.9920
  52   2.0000      -0.468516       -12.7490
  53   2.0000      -0.465939       -12.6788
  54   2.0000      -0.459625       -12.5070
  55   2.0000      -0.447181       -12.1684
  56   2.0000      -0.441528       -12.0146
  57   2.0000      -0.438671       -11.9369
  58   2.0000      -0.434330       -11.8187
  59   2.0000      -0.428146       -11.6505
  60   2.0000      -0.416511       -11.3338
  61   2.0000      -0.405226       -11.0268
  62   2.0000      -0.399793       -10.8789
  63   2.0000      -0.351371        -9.5613
  64   2.0000      -0.329842        -8.9754
  65   2.0000      -0.327529        -8.9125
  66   2.0000      -0.292940        -7.9713
  67   0.0000       0.028497         0.7754
  68   0.0000       0.063187         1.7194
  69   0.0000       0.110204         2.9988
  70   0.0000       0.111140         3.0243
  71   0.0000       0.130810         3.5595

MULLIKEN ATOMIC CHARGES
-----------------------
   0 S :    0.127429
   1 C :   -0.102903
   2 C :   -0.101016
   3 C :    0.022811
   4 C :   -0.142727
   5 H :    0.018593
   6 C :    0.094341
   7 H :    0.012721
   8 H :    0.009849
   9 C :   -0.063333
  10 H :    0.024157
  11 H :    0.029215
  12 C :   -0.059377
  13 H :    0.033306
  14 H :    0.044107
  15 H :    0.016131
  16 S :    0.086432
  17 C :   -0.078536
  18 C :   -0.010471
  19 C :   -0.038615
  20 C :   -0.165634
  21 H :    0.004630
  22 C :    0.071611
  23 H :    0.004890
  24 H :    0.027619
  25 C :   -0.029770
  26 H :    0.030658
  27 H :    0.012160
  28 C :   -0.085372
  29 H :    0.035965
  30 H :    0.028864
  31 H :    0.035587
  32 H :    0.052186
  33 H :    0.054493
Sum of atomic charges:    0.0000000

LOEWDIN ATOMIC CHARGES
----------------------
   0 S :    0.415941
   1 C :   -0.202931
   2 C :   -0.068546
   3 C :   -0.051106
   4 C :   -0.188053
   5 H :    0.031057
   6 C :   -0.037132
   7 H :    0.031544
   8 H :    0.030168
   9 C :   -0.037122
  10 H :    0.022572
  11 H :    0.025963
  12 C :   -0.077491
  13 H :    0.022982
  14 H :    0.030112
  15 H :    0.026335
  16 S :    0.395180
  17 C :   -0.177087
  18 C :   -0.061717
  19 C :   -0.057256
  20 C :   -0.186184
  21 H :    0.023154
  22 C :   -0.042475
  23 H :    0.020132
  24 H :    0.041060
  25 C :   -0.037378
  26 H :    0.027492
  27 H :    0.018931
  28 C :   -0.073708
  29 H :    0.025991
  30 H :    0.022913
  31 H :    0.027600
  32 H :    0.035195
  33 H :    0.023864

  Mayer bond orders larger than 0.100000
B(  0-S ,  1-C ) :   1.1601 B(  0-S ,  4-C ) :   1.1314 B(  1-C ,  2-C ) :   1.5818
B(  1-C , 32-H ) :   0.9634 B(  2-C ,  3-C ) :   1.2621 B(  2-C ,  6-C ) :   1.0244
B(  3-C ,  4-C ) :   1.5529 B(  3-C ,  5-H ) :   0.9885 B(  4-C , 20-C ) :   1.0495
B(  6-C ,  7-H ) :   0.9444 B(  6-C ,  8-H ) :   0.9314 B(  6-C ,  9-C ) :   1.0597
B(  9-C , 10-H ) :   0.9592 B(  9-C , 11-H ) :   0.9565 B(  9-C , 12-C ) :   1.0729
B( 12-C , 13-H ) :   0.9715 B( 12-C , 14-H ) :   0.9764 B( 12-C , 15-H ) :   0.9697
B( 16-S , 17-C ) :   1.1580 B( 16-S , 20-C ) :   1.1222 B( 17-C , 18-C ) :   1.5939
B( 17-C , 33-H ) :   0.9762 B( 18-C , 19-C ) :   1.2122 B( 18-C , 21-H ) :   1.0021
B( 19-C , 20-C ) :   1.6212 B( 19-C , 22-C ) :   1.0479 B( 22-C , 23-H ) :   0.9266
B( 22-C , 24-H ) :   0.9218 B( 22-C , 25-C ) :   1.0811 B( 25-C , 26-H ) :   0.9525
B( 25-C , 27-H ) :   0.9554 B( 25-C , 28-C ) :   1.0645 B( 28-C , 29-H ) :   0.9758
B( 28-C , 30-H ) :   0.9765 B( 28-C , 31-H ) :   0.9758

Dispersion correction           -0.015685666
FINAL SINGLE POINT ENERGY     -1339.875718572699

DIPOLE MOMENT
-------------
                                X             Y             Z
Electronic contribution:     11.49577       3.40764      21.75709
Nuclear contribution   :    -11.64588      -3.49407     -22.10282
                        -----------------------------------------
Total Dipole Moment    :     -0.15011      -0.08643      -0.34573
                        -----------------------------------------
Magnitude (a.u.)       :      0.38669
Magnitude (Debye)      :      0.98290

Rotational constants in cm-1:     0.019826     0.009090     0.007913
Rotational constants in MHz :   594.354325   272.525252   237.235940

                             ****ORCA TERMINATED NORMALLY****
TOTAL RUN TIME: 0 days 0 hours 0 minutes 21 seconds 320 msec
