                         Program Version 4.2.1 -  RELEASE  -
|  1> ! wB97X-D3 SP def2-SVP
|  2> %pal
|  3> nprocs 24
|  4> end
|  5>
|  6> * xyz 0 1
|  7> S 	 -1.48336 	 -22.0534 	 -113.37
|  8> C 	 -1.38361 	 -23.2733 	 -114.559
|  9> C 	 -1.48944 	 -24.4944 	 -114.049
| 10> C 	 -1.65422 	 -24.4854 	 -112.643
| 11> C 	 -1.89208 	 -23.217 	 -112.138
| 12> H 	 -1.74669 	 -25.3407 	 -111.973
| 13> C 	 -1.40348 	 -25.7143 	 -114.903
| 14> H 	 -0.46807 	 -25.7417 	 -115.363
| 15> H 	 -2.12394 	 -25.5948 	 -115.743
| 16> C 	 -1.68507 	 -27.1142 	 -114.17
| 17> H 	 -0.950737 	 -27.256 	 -113.353
| 18> H 	 -2.77004 	 -27.1333 	 -113.776
| 19> C 	 -1.45393 	 -28.342 	 -115.164
| 20> H 	 -1.66133 	 -29.2508 	 -114.653
| 21> H 	 -2.02715 	 -28.1768 	 -116.038
| 22> H 	 -0.435566 	 -28.316 	 -115.502
| 23> S 	 -3.37896 	 -21.3286 	 -110.842
| 24> C 	 -4.0577 	 -21.6715 	 -109.206
| 25> C 	 -3.61532 	 -22.8224 	 -108.7
| 26> C 	 -2.68852 	 -23.4747 	 -109.631
| 27> C 	 -2.43908 	 -22.8325 	 -110.834
| 28> H 	 -3.94068 	 -23.146 	 -107.689
| 29> C 	 -2.1763 	 -24.8331 	 -109.261
| 30> H 	 -1.88821 	 -24.91 	 -108.206
| 31> H 	 -1.30504 	 -24.972 	 -109.867
| 32> C 	 -3.09135 	 -25.9755 	 -109.539
| 33> H 	 -3.60529 	 -25.7655 	 -110.492
| 34> H 	 -3.83528 	 -25.9434 	 -108.766
| 35> C 	 -2.423 	 -27.3217 	 -109.498
| 36> H 	 -1.8047 	 -27.4443 	 -110.417
| 37> H 	 -3.04406 	 -28.1695 	 -109.556
| 38> H 	 -1.82561 	 -27.5095 	 -108.664
| 39> H 	 -1.21959 	 -23.1279 	 -115.598
| 40> H 	 -4.78254 	 -21.0585 	 -108.677
| 41> *
| 42>
| 43>                          ****END OF INPUT****

CARTESIAN COORDINATES (ANGSTROEM)
---------------------------------
  S     -1.483360  -22.053400  -113.370000
  C     -1.383610  -23.273300  -114.559000
  C     -1.489440  -24.494400  -114.049000
  C     -1.654220  -24.485400  -112.643000
  C     -1.892080  -23.217000  -112.138000
  H     -1.746690  -25.340700  -111.973000
  C     -1.403480  -25.714300  -114.903000
  H     -0.468070  -25.741700  -115.363000
  H     -2.123940  -25.594800  -115.743000
  C     -1.685070  -27.114200  -114.170000
  H     -0.950737  -27.256000  -113.353000
  H     -2.770040  -27.133300  -113.776000
  C     -1.453930  -28.342000  -115.164000
  H     -1.661330  -29.250800  -114.653000
  H     -2.027150  -28.176800  -116.038000
  H     -0.435566  -28.316000  -115.502000
  S     -3.378960  -21.328600  -110.842000
  C     -4.057700  -21.671500  -109.206000
  C     -3.615320  -22.822400  -108.700000
  C     -2.688520  -23.474700  -109.631000
  C     -2.439080  -22.832500  -110.834000
  H     -3.940680  -23.146000  -107.689000
  C     -2.176300  -24.833100  -109.261000
  H     -1.888210  -24.910000  -108.206000
  H     -1.305040  -24.972000  -109.867000
  C     -3.091350  -25.975500  -109.539000
  H     -3.605290  -25.765500  -110.492000
  H     -3.835280  -25.943400  -108.766000
  C     -2.423000  -27.321700  -109.498000
  H     -1.804700  -27.444300  -110.417000
  H     -3.044060  -28.169500  -109.556000
  H     -1.825610  -27.509500  -108.664000
  H     -1.219590  -23.127900  -115.598000
  H     -4.782540  -21.058500  -108.677000

 Total Charge           Charge          ....    0
 Multiplicity           Mult            ....    1
 Number of Electrons    NEL             ....  134
 Basis Dimension        Dim             ....  322

ORBITAL ENERGIES
----------------

  NO   OCC          E(Eh)            E(eV)
   0   2.0000     -88.964865     -2420.8571
   1   2.0000     -88.960329     -2420.7336
   2   2.0000     -10.333168      -281.1798
   3   2.0000     -10.332790      -281.1695
   4   2.0000     -10.317839      -280.7627
   5   2.0000     -10.305779      -280.4345
   6   2.0000     -10.304767      -280.4070
   7   2.0000     -10.300708      -280.2965
   8   2.0000     -10.296672      -280.1867
   9   2.0000     -10.293485      -280.1000
  10   2.0000     -10.293237      -280.0932
  11   2.0000     -10.291913      -280.0572
  12   2.0000     -10.281418      -279.7716
  13   2.0000     -10.280655      -279.7508
  14   2.0000     -10.276958      -279.6502
  15   2.0000     -10.272183      -279.5203
  16   2.0000      -8.080632      -219.8852
  17   2.0000      -8.074362      -219.7146
  18   2.0000      -6.039187      -164.3346
  19   2.0000      -6.035017      -164.2212
  20   2.0000      -6.033216      -164.1722
  21   2.0000      -6.031263      -164.1190
  22   2.0000      -6.029044      -164.0586
  23   2.0000      -6.024690      -163.9402
  24   2.0000      -1.014080       -27.5945
  25   2.0000      -0.986517       -26.8445
  26   2.0000      -0.919222       -25.0133
  27   2.0000      -0.907071       -24.6827
  28   2.0000      -0.874584       -23.7986
  29   2.0000      -0.851432       -23.1686
  30   2.0000      -0.844226       -22.9726
  31   2.0000      -0.826364       -22.4865
  32   2.0000      -0.782107       -21.2822
  33   2.0000      -0.774091       -21.0641
  34   2.0000      -0.717953       -19.5365
  35   2.0000      -0.698614       -19.0103
  36   2.0000      -0.690255       -18.7828
  37   2.0000      -0.662999       -18.0411
  38   2.0000      -0.640823       -17.4377
  39   2.0000      -0.623256       -16.9597
  40   2.0000      -0.595986       -16.2176
  41   2.0000      -0.576200       -15.6792
  42   2.0000      -0.571619       -15.5545
  43   2.0000      -0.567087       -15.4312
  44   2.0000      -0.533543       -14.5184
  45   2.0000      -0.524051       -14.2602
  46   2.0000      -0.517647       -14.0859
  47   2.0000      -0.511451       -13.9173
  48   2.0000      -0.508035       -13.8243
  49   2.0000      -0.503663       -13.7054
  50   2.0000      -0.502245       -13.6668
  51   2.0000      -0.481919       -13.1137
  52   2.0000      -0.480553       -13.0765
  53   2.0000      -0.462681       -12.5902
  54   2.0000      -0.459004       -12.4901
  55   2.0000      -0.451860       -12.2957
  56   2.0000      -0.443703       -12.0738
  57   2.0000      -0.436037       -11.8652
  58   2.0000      -0.432514       -11.7693
  59   2.0000      -0.429067       -11.6755
  60   2.0000      -0.420907       -11.4535
  61   2.0000      -0.413406       -11.2493
  62   2.0000      -0.410486       -11.1699
  63   2.0000      -0.365931        -9.9575
  64   2.0000      -0.333482        -9.0745
  65   2.0000      -0.324432        -8.8282
  66   2.0000      -0.286268        -7.7897
  67   0.0000       0.021865         0.5950
  68   0.0000       0.084302         2.2940
  69   0.0000       0.105993         2.8842
  70   0.0000       0.124215         3.3801
  71   0.0000       0.125538         3.4161

MULLIKEN ATOMIC CHARGES
-----------------------
   0 S :    0.118000
   1 C :   -0.105889
   2 C :   -0.053933
   3 C :    0.002011
   4 C :   -0.118361
   5 H :   -0.009969
   6 C :    0.053115
   7 H :    0.021509
   8 H :    0.037641
   9 C :   -0.161503
  10 H :    0.049275
  11 H :    0.056436
  12 C :    0.002071
  13 H :    0.037665
  14 H :    0.021670
  15 H :    0.022000
  16 S :    0.062277
  17 C :   -0.077866
  18 C :   -0.015312
  19 C :   -0.107175
  20 C :   -0.069055
  21 H :    0.035083
  22 C :    0.048348
  23 H :    0.021886
  24 H :    0.008464
  25 C :   -0.057629
  26 H :    0.034573
  27 H :    0.010861
  28 C :    0.000886
  29 H :    0.020106
  30 H :    0.017300
  31 H :    0.016170
  32 H :    0.024830
  33 H :    0.054515
Sum of atomic charges:    0.0000000

LOEWDIN ATOMIC CHARGES
----------------------
   0 S :    0.421382
   1 C :   -0.200935
   2 C :   -0.070415
   3 C :   -0.065900
   4 C :   -0.186426
   5 H :    0.028361
   6 C :   -0.031137
   7 H :    0.023356
   8 H :    0.037758
   9 C :   -0.042510
  10 H :    0.022959
  11 H :    0.032930
  12 C :   -0.055214
  13 H :    0.023885
  14 H :    0.019217
  15 H :    0.022912
  16 S :    0.360050
  17 C :   -0.159078
  18 C :   -0.073614
  19 C :   -0.054163
  20 C :   -0.182215
  21 H :    0.042729
  22 C :   -0.036901
  23 H :    0.031003
  24 H :    0.020923
  25 C :   -0.041598
  26 H :    0.026950
  27 H :    0.018514
  28 C :   -0.058653
  29 H :    0.027843
  30 H :    0.022384
  31 H :    0.018706
  32 H :    0.024898
  33 H :    0.031997

  Mayer bond orders larger than 0.100000
B(  0-S ,  1-C ) :   1.1277 B(  0-S ,  4-C ) :   1.1577 B(  1-C ,  2-C ) :   1.6391
B(  1-C , 32-H ) :   0.9742 B(  2-C ,  3-C ) :   1.2582 B(  2-C ,  6-C ) :   1.0030
B(  3-C ,  4-C ) :   1.5474 B(  3-C ,  5-H ) :   0.9876 B(  4-C , 20-C ) :   1.0577
B(  6-C ,  7-H ) :   0.9372 B(  6-C ,  8-H ) :   0.9405 B(  6-C ,  9-C ) :   1.0719
B(  9-C , 10-H ) :   0.9507 B(  9-C , 11-H ) :   0.9578 B(  9-C , 12-C ) :   1.0741
B( 12-C , 13-H ) :   0.9759 B( 12-C , 14-H ) :   0.9768 B( 12-C , 15-H ) :   0.9754
B( 16-S , 17-C ) :   1.1242 B( 16-S , 20-C ) :   1.0950 B( 17-C , 18-C ) :   1.6747
B( 17-C , 33-H ) :   0.9610 B( 18-C , 19-C ) :   1.1851 B( 18-C , 21-H ) :   0.9861
B( 19-C , 20-C ) :   1.6407 B( 19-C , 22-C ) :   1.0639 B( 22-C , 23-H ) :   0.9264
B( 22-C , 24-H ) :   0.9378 B( 22-C , 25-C ) :   1.0645 B( 25-C , 26-H ) :   0.9516
B( 25-C , 27-H ) :   0.9459 B( 25-C , 28-C ) :   1.0916 B( 28-C , 29-H ) :   0.9702
B( 28-C , 30-H ) :   0.9678 B( 28-C , 31-H ) :   0.9683

Dispersion correction           -0.014557592
FINAL SINGLE POINT ENERGY     -1339.869165941521

DIPOLE MOMENT
-------------
                                X             Y             Z
Electronic contribution:     -1.77842      33.60994       1.13964
Nuclear contribution   :      1.68071     -34.43840      -1.07674
                        -----------------------------------------
Total Dipole Moment    :     -0.09771      -0.82846       0.06290
                        -----------------------------------------
Magnitude (a.u.)       :      0.83657
Magnitude (Debye)      :      2.12639

Rotational constants in cm-1:     0.017581     0.009881     0.006612
Rotational constants in MHz :   527.062977   296.228465   198.221461

                             ****ORCA TERMINATED NORMALLY****
TOTAL RUN TIME: 0 days 0 hours 0 minutes 22 seconds 275 msec
