                         Program Version 4.2.1 -  RELEASE  -
|  1> ! wB97X-D3 SP def2-SVP
|  2> %pal
|  3> nprocs 24
|  4> end
|  5>
|  6> * xyz 0 1
|  7> S 	 -89.6106 	 -3.88445 	 -61.3775
|  8> C 	 -90.3602 	 -2.57323 	 -62.1993
|  9> C 	 -89.394 	 -1.77716 	 -62.8405
| 10> C 	 -88.0562 	 -2.22755 	 -62.6018
| 11> C 	 -87.979 	 -3.35241 	 -61.7921
| 12> H 	 -87.1838 	 -1.73529 	 -63.0275
| 13> C 	 -89.7633 	 -0.562698 	 -63.6797
| 14> H 	 -89.3748 	 0.411198 	 -63.3676
| 15> H 	 -90.831 	 -0.299309 	 -63.5946
| 16> C 	 -89.4914 	 -0.732574 	 -65.2213
| 17> H 	 -89.7415 	 0.188854 	 -65.7673
| 18> H 	 -88.3684 	 -0.712775 	 -65.2003
| 19> C 	 -90.0883 	 -1.93019 	 -65.862
| 20> H 	 -90.8793 	 -2.10571 	 -65.2279
| 21> H 	 -90.4537 	 -1.72589 	 -66.9177
| 22> H 	 -89.4737 	 -2.79588 	 -65.8761
| 23> S 	 -87.1818 	 -5.7609 	 -61.0798
| 24> C 	 -85.4588 	 -6.19943 	 -60.7705
| 25> C 	 -84.7065 	 -5.02692 	 -60.8586
| 26> C 	 -85.4658 	 -3.87532 	 -61.1328
| 27> C 	 -86.8245 	 -4.07644 	 -61.3641
| 28> H 	 -83.6422 	 -5.02918 	 -60.7519
| 29> C 	 -84.81 	 -2.56684 	 -61.2886
| 30> H 	 -84.3248 	 -2.25846 	 -60.3892
| 31> H 	 -85.5158 	 -1.80066 	 -61.4189
| 32> C 	 -83.8877 	 -2.55037 	 -62.4731
| 33> H 	 -84.3175 	 -3.20384 	 -63.2811
| 34> H 	 -82.9648 	 -3.01656 	 -62.2126
| 35> C 	 -83.4432 	 -1.22998 	 -63.1121
| 36> H 	 -82.7176 	 -0.782007 	 -62.4548
| 37> H 	 -84.1999 	 -0.394415 	 -63.0473
| 38> H 	 -83.1167 	 -1.34213 	 -64.1533
| 39> H 	 -91.3838 	 -2.50825 	 -62.3657
| 40> H 	 -85.1371 	 -7.07704 	 -60.3284
| 41> *
| 42>
| 43>                          ****END OF INPUT****

CARTESIAN COORDINATES (ANGSTROEM)
---------------------------------
  S    -89.610600   -3.884450  -61.377500
  C    -90.360200   -2.573230  -62.199300
  C    -89.394000   -1.777160  -62.840500
  C    -88.056200   -2.227550  -62.601800
  C    -87.979000   -3.352410  -61.792100
  H    -87.183800   -1.735290  -63.027500
  C    -89.763300   -0.562698  -63.679700
  H    -89.374800    0.411198  -63.367600
  H    -90.831000   -0.299309  -63.594600
  C    -89.491400   -0.732574  -65.221300
  H    -89.741500    0.188854  -65.767300
  H    -88.368400   -0.712775  -65.200300
  C    -90.088300   -1.930190  -65.862000
  H    -90.879300   -2.105710  -65.227900
  H    -90.453700   -1.725890  -66.917700
  H    -89.473700   -2.795880  -65.876100
  S    -87.181800   -5.760900  -61.079800
  C    -85.458800   -6.199430  -60.770500
  C    -84.706500   -5.026920  -60.858600
  C    -85.465800   -3.875320  -61.132800
  C    -86.824500   -4.076440  -61.364100
  H    -83.642200   -5.029180  -60.751900
  C    -84.810000   -2.566840  -61.288600
  H    -84.324800   -2.258460  -60.389200
  H    -85.515800   -1.800660  -61.418900
  C    -83.887700   -2.550370  -62.473100
  H    -84.317500   -3.203840  -63.281100
  H    -82.964800   -3.016560  -62.212600
  C    -83.443200   -1.229980  -63.112100
  H    -82.717600   -0.782007  -62.454800
  H    -84.199900   -0.394415  -63.047300
  H    -83.116700   -1.342130  -64.153300
  H    -91.383800   -2.508250  -62.365700
  H    -85.137100   -7.077040  -60.328400

 Total Charge           Charge          ....    0
 Multiplicity           Mult            ....    1
 Number of Electrons    NEL             ....  134
 Basis Dimension        Dim             ....  322

ORBITAL ENERGIES
----------------

  NO   OCC          E(Eh)            E(eV)
   0   2.0000     -88.969753     -2420.9900
   1   2.0000     -88.961813     -2420.7740
   2   2.0000     -10.335728      -281.2495
   3   2.0000     -10.329463      -281.0790
   4   2.0000     -10.320095      -280.8241
   5   2.0000     -10.314477      -280.6712
   6   2.0000     -10.307806      -280.4897
   7   2.0000     -10.301338      -280.3137
   8   2.0000     -10.299463      -280.2626
   9   2.0000     -10.296149      -280.1725
  10   2.0000     -10.295175      -280.1460
  11   2.0000     -10.286662      -279.9143
  12   2.0000     -10.284165      -279.8464
  13   2.0000     -10.282814      -279.8096
  14   2.0000     -10.279611      -279.7224
  15   2.0000     -10.267046      -279.3805
  16   2.0000      -8.084646      -219.9944
  17   2.0000      -8.076303      -219.7674
  18   2.0000      -6.043224      -164.4445
  19   2.0000      -6.039009      -164.3298
  20   2.0000      -6.035430      -164.2324
  21   2.0000      -6.034931      -164.2188
  22   2.0000      -6.030752      -164.1051
  23   2.0000      -6.027009      -164.0033
  24   2.0000      -1.011644       -27.5282
  25   2.0000      -0.985272       -26.8106
  26   2.0000      -0.918949       -25.0059
  27   2.0000      -0.910996       -24.7895
  28   2.0000      -0.877227       -23.8706
  29   2.0000      -0.854797       -23.2602
  30   2.0000      -0.846167       -23.0254
  31   2.0000      -0.820177       -22.3182
  32   2.0000      -0.783284       -21.3142
  33   2.0000      -0.775909       -21.1135
  34   2.0000      -0.713265       -19.4089
  35   2.0000      -0.704860       -19.1802
  36   2.0000      -0.693425       -18.8691
  37   2.0000      -0.668091       -18.1797
  38   2.0000      -0.645658       -17.5692
  39   2.0000      -0.627481       -17.0746
  40   2.0000      -0.604624       -16.4527
  41   2.0000      -0.571017       -15.5382
  42   2.0000      -0.568357       -15.4658
  43   2.0000      -0.553682       -15.0665
  44   2.0000      -0.545783       -14.8515
  45   2.0000      -0.536081       -14.5875
  46   2.0000      -0.524220       -14.2648
  47   2.0000      -0.519906       -14.1474
  48   2.0000      -0.505445       -13.7538
  49   2.0000      -0.505149       -13.7458
  50   2.0000      -0.492248       -13.3947
  51   2.0000      -0.486083       -13.2270
  52   2.0000      -0.468993       -12.7620
  53   2.0000      -0.466149       -12.6846
  54   2.0000      -0.458866       -12.4864
  55   2.0000      -0.449884       -12.2420
  56   2.0000      -0.448283       -12.1984
  57   2.0000      -0.440016       -11.9734
  58   2.0000      -0.432869       -11.7790
  59   2.0000      -0.424169       -11.5422
  60   2.0000      -0.414720       -11.2851
  61   2.0000      -0.405741       -11.0408
  62   2.0000      -0.399341       -10.8666
  63   2.0000      -0.362122        -9.8538
  64   2.0000      -0.337318        -9.1789
  65   2.0000      -0.326503        -8.8846
  66   2.0000      -0.284367        -7.7380
  67   0.0000       0.014199         0.3864
  68   0.0000       0.076615         2.0848
  69   0.0000       0.099139         2.6977
  70   0.0000       0.115585         3.1452
  71   0.0000       0.128965         3.5093

MULLIKEN ATOMIC CHARGES
-----------------------
   0 S :    0.114174
   1 C :   -0.081660
   2 C :   -0.083216
   3 C :    0.007627
   4 C :   -0.110874
   5 H :    0.019609
   6 C :    0.037051
   7 H :    0.030901
   8 H :    0.010894
   9 C :   -0.125831
  10 H :    0.030758
  11 H :    0.022792
  12 C :    0.024896
  13 H :   -0.005089
  14 H :    0.043222
  15 H :    0.034119
  16 S :    0.059525
  17 C :   -0.055560
  18 C :   -0.026150
  19 C :   -0.074214
  20 C :   -0.107898
  21 H :    0.015804
  22 C :    0.150077
  23 H :    0.017203
  24 H :   -0.017034
  25 C :   -0.120864
  26 H :    0.042697
  27 H :    0.023063
  28 C :   -0.044608
  29 H :    0.021413
  30 H :    0.019501
  31 H :    0.052535
  32 H :    0.033887
  33 H :    0.041248
Sum of atomic charges:   -0.0000000

LOEWDIN ATOMIC CHARGES
----------------------
   0 S :    0.416938
   1 C :   -0.192618
   2 C :   -0.060888
   3 C :   -0.062019
   4 C :   -0.188791
   5 H :    0.033041
   6 C :   -0.040524
   7 H :    0.032248
   8 H :    0.025668
   9 C :   -0.047048
  10 H :    0.025278
  11 H :    0.020238
  12 C :   -0.062582
  13 H :    0.014972
  14 H :    0.037861
  15 H :    0.026841
  16 S :    0.383969
  17 C :   -0.155892
  18 C :   -0.058096
  19 C :   -0.059645
  20 C :   -0.185865
  21 H :    0.030194
  22 C :   -0.030143
  23 H :    0.030102
  24 H :    0.019620
  25 C :   -0.046187
  26 H :    0.030998
  27 H :    0.019456
  28 C :   -0.071427
  29 H :    0.022924
  30 H :    0.024829
  31 H :    0.033326
  32 H :    0.016875
  33 H :    0.016347

  Mayer bond orders larger than 0.100000
B(  0-S ,  1-C ) :   1.1530 B(  0-S ,  4-C ) :   1.1461 B(  1-C ,  2-C ) :   1.5750
B(  1-C ,  4-C ) :   0.1010 B(  1-C , 32-H ) :   0.9743 B(  2-C ,  3-C ) :   1.2639
B(  2-C ,  6-C ) :   1.0287 B(  3-C ,  4-C ) :   1.5415 B(  3-C ,  5-H ) :   0.9931
B(  4-C , 20-C ) :   1.0889 B(  6-C ,  7-H ) :   0.9461 B(  6-C ,  8-H ) :   0.9414
B(  6-C ,  9-C ) :   1.0693 B(  9-C , 10-H ) :   0.9583 B(  9-C , 11-H ) :   0.9598
B(  9-C , 12-C ) :   1.0620 B( 12-C , 13-H ) :   0.9746 B( 12-C , 14-H ) :   0.9737
B( 12-C , 15-H ) :   0.9672 B( 16-S , 17-C ) :   1.1477 B( 16-S , 20-C ) :   1.1282
B( 17-C , 18-C ) :   1.5765 B( 17-C , 20-C ) :   0.1097 B( 17-C , 33-H ) :   0.9781
B( 18-C , 19-C ) :   1.2633 B( 18-C , 21-H ) :   0.9934 B( 19-C , 20-C ) :   1.5607
B( 19-C , 22-C ) :   1.0672 B( 22-C , 23-H ) :   0.9136 B( 22-C , 24-H ) :   0.9263
B( 22-C , 25-C ) :   1.0510 B( 25-C , 26-H ) :   0.9622 B( 25-C , 27-H ) :   0.9502
B( 25-C , 28-C ) :   1.0824 B( 28-C , 29-H ) :   0.9716 B( 28-C , 30-H ) :   0.9747
B( 28-C , 31-H ) :   0.9751

Dispersion correction           -0.014390176
FINAL SINGLE POINT ENERGY     -1339.861245306044

DIPOLE MOMENT
-------------
                                X             Y             Z
Electronic contribution:     -9.17864     -20.29712      17.69429
Nuclear contribution   :      9.55892      20.78549     -17.91221
                        -----------------------------------------
Total Dipole Moment    :      0.38029       0.48837      -0.21793
                        -----------------------------------------
Magnitude (a.u.)       :      0.65621
Magnitude (Debye)      :      1.66796

Rotational constants in cm-1:     0.017615     0.009543     0.006861
Rotational constants in MHz :   528.094160   286.099204   205.687892

                             ****ORCA TERMINATED NORMALLY****
TOTAL RUN TIME: 0 days 0 hours 0 minutes 22 seconds 72 msec
