                         Program Version 4.2.1 -  RELEASE  -
|  1> ! wB97X-D3 SP def2-SVP
|  2> %pal
|  3> nprocs 24
|  4> end
|  5>
|  6> * xyz 0 1
|  7> S 	 -52.8133 	 13.0867 	 -103.581
|  8> C 	 -51.6063 	 13.2528 	 -102.337
|  9> C 	 -51.7166 	 12.3508 	 -101.23
| 10> C 	 -52.9211 	 11.5847 	 -101.483
| 11> C 	 -53.6515 	 11.8843 	 -102.637
| 12> H 	 -53.3532 	 10.8255 	 -100.781
| 13> C 	 -50.8564 	 12.3604 	 -99.9687
| 14> H 	 -51.5332 	 12.0206 	 -99.2077
| 15> H 	 -50.6428 	 13.4136 	 -99.7554
| 16> C 	 -49.5631 	 11.583 	 -100.043
| 17> H 	 -49.0433 	 11.7488 	 -100.992
| 18> H 	 -48.8441 	 11.9742 	 -99.2313
| 19> C 	 -49.6506 	 10.0723 	 -99.9556
| 20> H 	 -49.9645 	 9.59375 	 -99.0573
| 21> H 	 -50.2283 	 9.67183 	 -100.773
| 22> H 	 -48.6173 	 9.6398 	 -99.9649
| 23> S 	 -56.3955 	 11.7596 	 -102.263
| 24> C 	 -57.3681 	 10.7575 	 -103.376
| 25> C 	 -56.5989 	 9.88103 	 -104.065
| 26> C 	 -55.1931 	 10.23 	 -103.916
| 27> C 	 -54.9022 	 11.2878 	 -103.006
| 28> H 	 -57.0449 	 9.22668 	 -104.798
| 29> C 	 -54.0834 	 9.4617 	 -104.559
| 30> H 	 -53.5835 	 8.90217 	 -103.841
| 31> H 	 -53.2827 	 10.2697 	 -104.877
| 32> C 	 -54.3888 	 8.47746 	 -105.716
| 33> H 	 -54.8662 	 8.89856 	 -106.627
| 34> H 	 -54.9554 	 7.67105 	 -105.34
| 35> C 	 -53.0647 	 7.91953 	 -106.233
| 36> H 	 -53.1628 	 7.22061 	 -107.078
| 37> H 	 -52.4505 	 7.38793 	 -105.503
| 38> H 	 -52.4614 	 8.72991 	 -106.697
| 39> H 	 -50.9235 	 14.1623 	 -102.484
| 40> H 	 -58.4687 	 10.6348 	 -103.303
| 41> *
| 42>
| 43>                          ****END OF INPUT****

CARTESIAN COORDINATES (ANGSTROEM)
---------------------------------
  S    -52.813300   13.086700  -103.581000
  C    -51.606300   13.252800  -102.337000
  C    -51.716600   12.350800  -101.230000
  C    -52.921100   11.584700  -101.483000
  C    -53.651500   11.884300  -102.637000
  H    -53.353200   10.825500  -100.781000
  C    -50.856400   12.360400  -99.968700
  H    -51.533200   12.020600  -99.207700
  H    -50.642800   13.413600  -99.755400
  C    -49.563100   11.583000  -100.043000
  H    -49.043300   11.748800  -100.992000
  H    -48.844100   11.974200  -99.231300
  C    -49.650600   10.072300  -99.955600
  H    -49.964500    9.593750  -99.057300
  H    -50.228300    9.671830  -100.773000
  H    -48.617300    9.639800  -99.964900
  S    -56.395500   11.759600  -102.263000
  C    -57.368100   10.757500  -103.376000
  C    -56.598900    9.881030  -104.065000
  C    -55.193100   10.230000  -103.916000
  C    -54.902200   11.287800  -103.006000
  H    -57.044900    9.226680  -104.798000
  C    -54.083400    9.461700  -104.559000
  H    -53.583500    8.902170  -103.841000
  H    -53.282700   10.269700  -104.877000
  C    -54.388800    8.477460  -105.716000
  H    -54.866200    8.898560  -106.627000
  H    -54.955400    7.671050  -105.340000
  C    -53.064700    7.919530  -106.233000
  H    -53.162800    7.220610  -107.078000
  H    -52.450500    7.387930  -105.503000
  H    -52.461400    8.729910  -106.697000
  H    -50.923500   14.162300  -102.484000
  H    -58.468700   10.634800  -103.303000

 Total Charge           Charge          ....    0
 Multiplicity           Mult            ....    1
 Number of Electrons    NEL             ....  134
 Basis Dimension        Dim             ....  322

ORBITAL ENERGIES
----------------

  NO   OCC          E(Eh)            E(eV)
   0   2.0000     -88.969820     -2420.9919
   1   2.0000     -88.961450     -2420.7641
   2   2.0000     -10.326634      -281.0020
   3   2.0000     -10.326197      -280.9901
   4   2.0000     -10.321940      -280.8743
   5   2.0000     -10.319078      -280.7964
   6   2.0000     -10.313277      -280.6385
   7   2.0000     -10.305089      -280.4157
   8   2.0000     -10.302740      -280.3518
   9   2.0000     -10.296424      -280.1799
  10   2.0000     -10.293755      -280.1073
  11   2.0000     -10.293614      -280.1035
  12   2.0000     -10.287897      -279.9479
  13   2.0000     -10.285974      -279.8956
  14   2.0000     -10.277143      -279.6553
  15   2.0000     -10.274706      -279.5890
  16   2.0000      -8.084470      -219.9896
  17   2.0000      -8.075960      -219.7581
  18   2.0000      -6.042746      -164.4315
  19   2.0000      -6.038894      -164.3267
  20   2.0000      -6.035578      -164.2364
  21   2.0000      -6.034527      -164.2078
  22   2.0000      -6.030477      -164.0976
  23   2.0000      -6.026678      -163.9943
  24   2.0000      -1.002093       -27.2683
  25   2.0000      -0.979013       -26.6403
  26   2.0000      -0.914517       -24.8853
  27   2.0000      -0.905833       -24.6490
  28   2.0000      -0.871139       -23.7049
  29   2.0000      -0.849912       -23.1273
  30   2.0000      -0.843919       -22.9642
  31   2.0000      -0.814472       -22.1629
  32   2.0000      -0.786621       -21.4050
  33   2.0000      -0.759150       -20.6575
  34   2.0000      -0.702851       -19.1255
  35   2.0000      -0.701700       -19.0942
  36   2.0000      -0.692650       -18.8480
  37   2.0000      -0.648392       -17.6436
  38   2.0000      -0.640629       -17.4324
  39   2.0000      -0.612586       -16.6693
  40   2.0000      -0.593814       -16.1585
  41   2.0000      -0.572094       -15.5675
  42   2.0000      -0.568488       -15.4694
  43   2.0000      -0.551913       -15.0183
  44   2.0000      -0.541475       -14.7343
  45   2.0000      -0.521411       -14.1883
  46   2.0000      -0.517306       -14.0766
  47   2.0000      -0.509900       -13.8751
  48   2.0000      -0.501854       -13.6561
  49   2.0000      -0.490571       -13.3491
  50   2.0000      -0.486032       -13.2256
  51   2.0000      -0.476723       -12.9723
  52   2.0000      -0.464790       -12.6476
  53   2.0000      -0.463094       -12.6014
  54   2.0000      -0.458185       -12.4679
  55   2.0000      -0.447047       -12.1648
  56   2.0000      -0.442132       -12.0310
  57   2.0000      -0.431663       -11.7461
  58   2.0000      -0.430146       -11.7049
  59   2.0000      -0.428699       -11.6655
  60   2.0000      -0.421140       -11.4598
  61   2.0000      -0.417105       -11.3500
  62   2.0000      -0.412873       -11.2349
  63   2.0000      -0.336793        -9.1646
  64   2.0000      -0.334979        -9.1152
  65   2.0000      -0.317281        -8.6336
  66   2.0000      -0.297415        -8.0931
  67   0.0000       0.042082         1.1451
  68   0.0000       0.047629         1.2961
  69   0.0000       0.109232         2.9724
  70   0.0000       0.117076         3.1858
  71   0.0000       0.125229         3.4077

MULLIKEN ATOMIC CHARGES
-----------------------
   0 S :    0.133688
   1 C :   -0.169828
   2 C :   -0.096514
   3 C :    0.017235
   4 C :   -0.195907
   5 H :    0.030206
   6 C :    0.110654
   7 H :    0.023037
   8 H :    0.033279
   9 C :   -0.080171
  10 H :    0.034710
  11 H :    0.038740
  12 C :   -0.052887
  13 H :    0.017386
  14 H :    0.038316
  15 H :    0.029541
  16 S :    0.102209
  17 C :   -0.100610
  18 C :   -0.023640
  19 C :   -0.039947
  20 C :   -0.151533
  21 H :    0.032195
  22 C :    0.029491
  23 H :    0.018224
  24 H :    0.037277
  25 C :   -0.047813
  26 H :    0.040454
  27 H :    0.025467
  28 C :   -0.070441
  29 H :    0.026249
  30 H :    0.030380
  31 H :    0.031360
  32 H :    0.081174
  33 H :    0.068019
Sum of atomic charges:   -0.0000000

LOEWDIN ATOMIC CHARGES
----------------------
   0 S :    0.424403
   1 C :   -0.206419
   2 C :   -0.064040
   3 C :   -0.061438
   4 C :   -0.216737
   5 H :    0.037473
   6 C :   -0.029934
   7 H :    0.031508
   8 H :    0.039143
   9 C :   -0.046757
  10 H :    0.029906
  11 H :    0.032741
  12 C :   -0.072266
  13 H :    0.017425
  14 H :    0.025082
  15 H :    0.034565
  16 S :    0.398325
  17 C :   -0.174394
  18 C :   -0.076969
  19 C :   -0.048556
  20 C :   -0.221604
  21 H :    0.035758
  22 C :   -0.040162
  23 H :    0.024904
  24 H :    0.041396
  25 C :   -0.040325
  26 H :    0.030348
  27 H :    0.018136
  28 C :   -0.069669
  29 H :    0.024432
  30 H :    0.021826
  31 H :    0.027933
  32 H :    0.037228
  33 H :    0.036739

  Mayer bond orders larger than 0.100000
B(  0-S ,  1-C ) :   1.1815 B(  0-S ,  4-C ) :   1.1422 B(  1-C ,  2-C ) :   1.5634
B(  1-C ,  4-C ) :   0.1027 B(  1-C , 32-H ) :   0.9559 B(  2-C ,  3-C ) :   1.2573
B(  2-C ,  6-C ) :   1.0084 B(  3-C ,  4-C ) :   1.5796 B(  3-C ,  5-H ) :   0.9801
B(  4-C , 20-C ) :   1.0536 B(  6-C ,  7-H ) :   0.9421 B(  6-C ,  8-H ) :   0.9380
B(  6-C ,  9-C ) :   1.0664 B(  9-C , 10-H ) :   0.9555 B(  9-C , 11-H ) :   0.9544
B(  9-C , 12-C ) :   1.0821 B( 12-C , 13-H ) :   0.9747 B( 12-C , 14-H ) :   0.9752
B( 12-C , 15-H ) :   0.9698 B( 16-S , 17-C ) :   1.1584 B( 16-S , 20-C ) :   1.1311
B( 17-C , 18-C ) :   1.6214 B( 17-C , 33-H ) :   0.9551 B( 18-C , 19-C ) :   1.2413
B( 18-C , 21-H ) :   0.9836 B( 19-C , 20-C ) :   1.5778 B( 19-C , 22-C ) :   1.0490
B( 22-C , 23-H ) :   0.9289 B( 22-C , 24-H ) :   0.9265 B( 22-C , 25-C ) :   1.0721
B( 25-C , 26-H ) :   0.9574 B( 25-C , 27-H ) :   0.9432 B( 25-C , 28-C ) :   1.0895
B( 28-C , 29-H ) :   0.9730 B( 28-C , 30-H ) :   0.9744 B( 28-C , 31-H ) :   0.9746

Dispersion correction           -0.013851690
FINAL SINGLE POINT ENERGY     -1339.867261350472

DIPOLE MOMENT
-------------
                                X             Y             Z
Electronic contribution:    -18.77211      17.43708       0.04823
Nuclear contribution   :     19.08772     -17.81089       0.06598
                        -----------------------------------------
Total Dipole Moment    :      0.31561      -0.37381       0.11421
                        -----------------------------------------
Magnitude (a.u.)       :      0.50238
Magnitude (Debye)      :      1.27696

Rotational constants in cm-1:     0.017388     0.008113     0.006742
Rotational constants in MHz :   521.277418   243.227909   202.108419

                             ****ORCA TERMINATED NORMALLY****
TOTAL RUN TIME: 0 days 0 hours 0 minutes 20 seconds 893 msec
