                         Program Version 4.2.1 -  RELEASE  -
|  1> ! wB97X-D3 SP def2-SVP
|  2> %pal
|  3> nprocs 24
|  4> end
|  5>
|  6> * xyz 0 1
|  7> S 	 -37.2125 	 -10.8209 	 4.85556
|  8> C 	 -37.0333 	 -10.6085 	 6.59067
|  9> C 	 -37.5547 	 -9.38384 	 6.95776
| 10> C 	 -38.3029 	 -8.73729 	 5.95124
| 11> C 	 -38.0464 	 -9.29032 	 4.70921
| 12> H 	 -38.9187 	 -7.87815 	 5.99023
| 13> C 	 -37.4547 	 -8.86614 	 8.37122
| 14> H 	 -37.769 	 -9.758 	 8.98669
| 15> H 	 -38.092 	 -7.97115 	 8.59186
| 16> C 	 -36.0903 	 -8.3828 	 8.82913
| 17> H 	 -35.6776 	 -7.70115 	 8.07732
| 18> H 	 -36.2493 	 -7.86473 	 9.73759
| 19> C 	 -35.0922 	 -9.48427 	 9.05086
| 20> H 	 -34.6324 	 -9.73031 	 8.15088
| 21> H 	 -34.3817 	 -9.33816 	 9.85886
| 22> H 	 -35.6725 	 -10.3398 	 9.33359
| 23> S 	 -38.9586 	 -9.8451 	 2.15933
| 24> C 	 -39.603 	 -8.58302 	 1.22123
| 25> C 	 -39.1546 	 -7.34308 	 1.64275
| 26> C 	 -38.4722 	 -7.42179 	 2.89134
| 27> C 	 -38.3932 	 -8.72964 	 3.3539
| 28> H 	 -39.5304 	 -6.48157 	 1.00538
| 29> C 	 -38.0204 	 -6.18384 	 3.64046
| 30> H 	 -38.4839 	 -6.06172 	 4.69084
| 31> H 	 -38.3319 	 -5.27478 	 3.14748
| 32> C 	 -36.5036 	 -6.14292 	 4.05587
| 33> H 	 -35.7915 	 -5.91568 	 3.26111
| 34> H 	 -36.2683 	 -7.14711 	 4.48112
| 35> C 	 -36.1845 	 -5.02545 	 5.09717
| 36> H 	 -36.454 	 -4.08033 	 4.66522
| 37> H 	 -35.1077 	 -5.11176 	 5.31227
| 38> H 	 -36.681 	 -5.15767 	 6.00109
| 39> H 	 -36.424 	 -11.2429 	 7.27747
| 40> H 	 -40.1663 	 -8.75869 	 0.33615
| 41> *
| 42>
| 43>                          ****END OF INPUT****

CARTESIAN COORDINATES (ANGSTROEM)
---------------------------------
  S    -37.212500  -10.820900    4.855560
  C    -37.033300  -10.608500    6.590670
  C    -37.554700   -9.383840    6.957760
  C    -38.302900   -8.737290    5.951240
  C    -38.046400   -9.290320    4.709210
  H    -38.918700   -7.878150    5.990230
  C    -37.454700   -8.866140    8.371220
  H    -37.769000   -9.758000    8.986690
  H    -38.092000   -7.971150    8.591860
  C    -36.090300   -8.382800    8.829130
  H    -35.677600   -7.701150    8.077320
  H    -36.249300   -7.864730    9.737590
  C    -35.092200   -9.484270    9.050860
  H    -34.632400   -9.730310    8.150880
  H    -34.381700   -9.338160    9.858860
  H    -35.672500  -10.339800    9.333590
  S    -38.958600   -9.845100    2.159330
  C    -39.603000   -8.583020    1.221230
  C    -39.154600   -7.343080    1.642750
  C    -38.472200   -7.421790    2.891340
  C    -38.393200   -8.729640    3.353900
  H    -39.530400   -6.481570    1.005380
  C    -38.020400   -6.183840    3.640460
  H    -38.483900   -6.061720    4.690840
  H    -38.331900   -5.274780    3.147480
  C    -36.503600   -6.142920    4.055870
  H    -35.791500   -5.915680    3.261110
  H    -36.268300   -7.147110    4.481120
  C    -36.184500   -5.025450    5.097170
  H    -36.454000   -4.080330    4.665220
  H    -35.107700   -5.111760    5.312270
  H    -36.681000   -5.157670    6.001090
  H    -36.424000  -11.242900    7.277470
  H    -40.166300   -8.758690    0.336150

 Total Charge           Charge          ....    0
 Multiplicity           Mult            ....    1
 Number of Electrons    NEL             ....  134
 Basis Dimension        Dim             ....  322

ORBITAL ENERGIES
----------------

  NO   OCC          E(Eh)            E(eV)
   0   2.0000     -88.966738     -2420.9080
   1   2.0000     -88.966068     -2420.8898
   2   2.0000     -10.334669      -281.2206
   3   2.0000     -10.329093      -281.0689
   4   2.0000     -10.315076      -280.6875
   5   2.0000     -10.313028      -280.6318
   6   2.0000     -10.309669      -280.5404
   7   2.0000     -10.300390      -280.2879
   8   2.0000     -10.300089      -280.2797
   9   2.0000     -10.299549      -280.2650
  10   2.0000     -10.294226      -280.1201
  11   2.0000     -10.290791      -280.0267
  12   2.0000     -10.286875      -279.9201
  13   2.0000     -10.278888      -279.7028
  14   2.0000     -10.272132      -279.5189
  15   2.0000     -10.266481      -279.3652
  16   2.0000      -8.082401      -219.9333
  17   2.0000      -8.081350      -219.9047
  18   2.0000      -6.040676      -164.3752
  19   2.0000      -6.039889      -164.3537
  20   2.0000      -6.036694      -164.2668
  21   2.0000      -6.035879      -164.2446
  22   2.0000      -6.033302      -164.1745
  23   2.0000      -6.032087      -164.1414
  24   2.0000      -1.012356       -27.5476
  25   2.0000      -0.991074       -26.9685
  26   2.0000      -0.918679       -24.9985
  27   2.0000      -0.903251       -24.5787
  28   2.0000      -0.866382       -23.5755
  29   2.0000      -0.855083       -23.2680
  30   2.0000      -0.849073       -23.1044
  31   2.0000      -0.816007       -22.2047
  32   2.0000      -0.784254       -21.3406
  33   2.0000      -0.774894       -21.0859
  34   2.0000      -0.706462       -19.2238
  35   2.0000      -0.696439       -18.9511
  36   2.0000      -0.686883       -18.6910
  37   2.0000      -0.661721       -18.0064
  38   2.0000      -0.640509       -17.4291
  39   2.0000      -0.619886       -16.8680
  40   2.0000      -0.597972       -16.2716
  41   2.0000      -0.578633       -15.7454
  42   2.0000      -0.564282       -15.3549
  43   2.0000      -0.552275       -15.0282
  44   2.0000      -0.543247       -14.7825
  45   2.0000      -0.522540       -14.2190
  46   2.0000      -0.519278       -14.1303
  47   2.0000      -0.510455       -13.8902
  48   2.0000      -0.505057       -13.7433
  49   2.0000      -0.496670       -13.5151
  50   2.0000      -0.493088       -13.4176
  51   2.0000      -0.490401       -13.3445
  52   2.0000      -0.479018       -13.0348
  53   2.0000      -0.467062       -12.7094
  54   2.0000      -0.460665       -12.5353
  55   2.0000      -0.449022       -12.2185
  56   2.0000      -0.440204       -11.9786
  57   2.0000      -0.431293       -11.7361
  58   2.0000      -0.427507       -11.6330
  59   2.0000      -0.426382       -11.6025
  60   2.0000      -0.420832       -11.4514
  61   2.0000      -0.417991       -11.3741
  62   2.0000      -0.414639       -11.2829
  63   2.0000      -0.349662        -9.5148
  64   2.0000      -0.335415        -9.1271
  65   2.0000      -0.328904        -8.9499
  66   2.0000      -0.286776        -7.8036
  67   0.0000       0.023628         0.6430
  68   0.0000       0.071752         1.9525
  69   0.0000       0.101885         2.7724
  70   0.0000       0.118157         3.2152
  71   0.0000       0.126509         3.4425

MULLIKEN ATOMIC CHARGES
-----------------------
   0 S :    0.102620
   1 C :   -0.126193
   2 C :   -0.077493
   3 C :    0.032075
   4 C :   -0.130626
   5 H :   -0.000231
   6 C :   -0.009181
   7 H :    0.049277
   8 H :    0.031140
   9 C :   -0.047969
  10 H :    0.030835
  11 H :    0.020890
  12 C :   -0.018687
  13 H :    0.028037
  14 H :    0.035229
  15 H :    0.000410
  16 S :    0.118444
  17 C :   -0.098823
  18 C :   -0.064123
  19 C :    0.008865
  20 C :   -0.149360
  21 H :    0.046664
  22 C :    0.035800
  23 H :    0.030690
  24 H :    0.013124
  25 C :   -0.107543
  26 H :    0.033257
  27 H :    0.050728
  28 C :   -0.032046
  29 H :    0.028340
  30 H :    0.038453
  31 H :    0.014497
  32 H :    0.064226
  33 H :    0.048674
Sum of atomic charges:   -0.0000000

LOEWDIN ATOMIC CHARGES
----------------------
   0 S :    0.399005
   1 C :   -0.210901
   2 C :   -0.064026
   3 C :   -0.065717
   4 C :   -0.179062
   5 H :    0.026850
   6 C :   -0.037736
   7 H :    0.037867
   8 H :    0.035209
   9 C :   -0.037995
  10 H :    0.027185
  11 H :    0.019672
  12 C :   -0.060684
  13 H :    0.017690
  14 H :    0.029011
  15 H :    0.016257
  16 S :    0.435759
  17 C :   -0.193311
  18 C :   -0.080753
  19 C :   -0.057469
  20 C :   -0.206282
  21 H :    0.047434
  22 C :   -0.038917
  23 H :    0.038172
  24 H :    0.024490
  25 C :   -0.038789
  26 H :    0.021933
  27 H :    0.028662
  28 C :   -0.058647
  29 H :    0.021826
  30 H :    0.032422
  31 H :    0.009850
  32 H :    0.038093
  33 H :    0.022899

  Mayer bond orders larger than 0.100000
B(  0-S ,  1-C ) :   1.1204 B(  0-S ,  4-C ) :   1.1681 B(  1-C ,  2-C ) :   1.6182
B(  1-C , 32-H ) :   0.9578 B(  2-C ,  3-C ) :   1.2334 B(  2-C ,  6-C ) :   1.0117
B(  3-C ,  4-C ) :   1.5681 B(  3-C ,  5-H ) :   1.0047 B(  4-C , 20-C ) :   1.0131
B(  6-C ,  7-H ) :   0.9448 B(  6-C ,  8-H ) :   0.9472 B(  6-C ,  9-C ) :   1.0832
B(  9-C , 10-H ) :   0.9509 B(  9-C , 11-H ) :   0.9554 B(  9-C , 12-C ) :   1.0830
B( 12-C , 13-H ) :   0.9719 B( 12-C , 14-H ) :   0.9695 B( 12-C , 15-H ) :   0.9707
B( 16-S , 17-C ) :   1.1860 B( 16-S , 20-C ) :   1.1549 B( 17-C , 18-C ) :   1.5938
B( 17-C , 33-H ) :   0.9711 B( 18-C , 19-C ) :   1.2419 B( 18-C , 21-H ) :   0.9854
B( 19-C , 20-C ) :   1.5769 B( 19-C , 22-C ) :   1.0462 B( 22-C , 23-H ) :   0.9420
B( 22-C , 24-H ) :   0.9348 B( 22-C , 25-C ) :   1.0397 B( 25-C , 26-H ) :   0.9583
B( 25-C , 27-H ) :   0.9589 B( 25-C , 28-C ) :   1.0815 B( 28-C , 29-H ) :   0.9762
B( 28-C , 30-H ) :   0.9751 B( 28-C , 31-H ) :   0.9735

Dispersion correction           -0.015105792
FINAL SINGLE POINT ENERGY     -1339.867115861982

DIPOLE MOMENT
-------------
                                X             Y             Z
Electronic contribution:    -12.31314     -18.49500     -20.79744
Nuclear contribution   :     12.31294      19.07606      21.06652
                        -----------------------------------------
Total Dipole Moment    :     -0.00020       0.58107       0.26908
                        -----------------------------------------
Magnitude (a.u.)       :      0.64035
Magnitude (Debye)      :      1.62764

Rotational constants in cm-1:     0.020844     0.009321     0.006994
Rotational constants in MHz :   624.877112   279.446608   209.662495

                             ****ORCA TERMINATED NORMALLY****
TOTAL RUN TIME: 0 days 0 hours 0 minutes 22 seconds 748 msec
