                         Program Version 4.2.1 -  RELEASE  -
|  1> ! wB97X-D3 SP def2-SVP
|  2> %pal
|  3> nprocs 24
|  4> end
|  5>
|  6> * xyz 0 1
|  7> S 	 -71.504 	 18.6435 	 -73.2794
|  8> C 	 -69.9778 	 18.3321 	 -74.0389
|  9> C 	 -69.0267 	 17.9846 	 -73.1369
| 10> C 	 -69.5803 	 17.862 	 -71.7931
| 11> C 	 -70.962 	 18.1354 	 -71.73
| 12> H 	 -69.0175 	 17.2566 	 -71.0615
| 13> C 	 -67.6977 	 17.4628 	 -73.4814
| 14> H 	 -67.1046 	 17.7418 	 -72.6587
| 15> H 	 -67.2875 	 18.0092 	 -74.4069
| 16> C 	 -67.5815 	 16.0287 	 -73.7156
| 17> H 	 -67.7309 	 15.5127 	 -72.7509
| 18> H 	 -68.2832 	 15.5888 	 -74.4414
| 19> C 	 -66.0975 	 15.6389 	 -74.0892
| 20> H 	 -65.8423 	 15.9655 	 -75.1237
| 21> H 	 -65.4309 	 16.2623 	 -73.4915
| 22> H 	 -65.9683 	 14.5895 	 -74.0844
| 23> S 	 -72.8598 	 19.4287 	 -70.4263
| 24> C 	 -73.3191 	 19.0501 	 -68.7593
| 25> C 	 -72.6498 	 17.9903 	 -68.309
| 26> C 	 -71.7812 	 17.5101 	 -69.322
| 27> C 	 -71.7379 	 18.1621 	 -70.5124
| 28> H 	 -72.7872 	 17.5572 	 -67.3786
| 29> C 	 -70.9989 	 16.2717 	 -68.9655
| 30> H 	 -70.6201 	 15.7722 	 -69.8428
| 31> H 	 -71.7981 	 15.577 	 -68.5148
| 32> C 	 -69.8917 	 16.3095 	 -67.9492
| 33> H 	 -69.5397 	 15.2825 	 -67.7408
| 34> H 	 -70.3281 	 16.7943 	 -67.0149
| 35> C 	 -68.7107 	 17.1192 	 -68.368
| 36> H 	 -67.9048 	 16.4921 	 -68.6768
| 37> H 	 -68.5129 	 17.6559 	 -67.5045
| 38> H 	 -69.0302 	 17.9053 	 -69.1076
| 39> H 	 -69.787 	 18.1693 	 -75.0995
| 40> H 	 -74.1532 	 19.5013 	 -68.2362
| 41> *
| 42>
| 43>                          ****END OF INPUT****

CARTESIAN COORDINATES (ANGSTROEM)
---------------------------------
  S    -71.504000   18.643500  -73.279400
  C    -69.977800   18.332100  -74.038900
  C    -69.026700   17.984600  -73.136900
  C    -69.580300   17.862000  -71.793100
  C    -70.962000   18.135400  -71.730000
  H    -69.017500   17.256600  -71.061500
  C    -67.697700   17.462800  -73.481400
  H    -67.104600   17.741800  -72.658700
  H    -67.287500   18.009200  -74.406900
  C    -67.581500   16.028700  -73.715600
  H    -67.730900   15.512700  -72.750900
  H    -68.283200   15.588800  -74.441400
  C    -66.097500   15.638900  -74.089200
  H    -65.842300   15.965500  -75.123700
  H    -65.430900   16.262300  -73.491500
  H    -65.968300   14.589500  -74.084400
  S    -72.859800   19.428700  -70.426300
  C    -73.319100   19.050100  -68.759300
  C    -72.649800   17.990300  -68.309000
  C    -71.781200   17.510100  -69.322000
  C    -71.737900   18.162100  -70.512400
  H    -72.787200   17.557200  -67.378600
  C    -70.998900   16.271700  -68.965500
  H    -70.620100   15.772200  -69.842800
  H    -71.798100   15.577000  -68.514800
  C    -69.891700   16.309500  -67.949200
  H    -69.539700   15.282500  -67.740800
  H    -70.328100   16.794300  -67.014900
  C    -68.710700   17.119200  -68.368000
  H    -67.904800   16.492100  -68.676800
  H    -68.512900   17.655900  -67.504500
  H    -69.030200   17.905300  -69.107600
  H    -69.787000   18.169300  -75.099500
  H    -74.153200   19.501300  -68.236200

 Total Charge           Charge          ....    0
 Multiplicity           Mult            ....    1
 Number of Electrons    NEL             ....  134
 Basis Dimension        Dim             ....  322

ORBITAL ENERGIES
----------------

  NO   OCC          E(Eh)            E(eV)
   0   2.0000     -88.970560     -2421.0120
   1   2.0000     -88.958624     -2420.6872
   2   2.0000     -10.335883      -281.2537
   3   2.0000     -10.322927      -280.9011
   4   2.0000     -10.314246      -280.6649
   5   2.0000     -10.310755      -280.5699
   6   2.0000     -10.298115      -280.2260
   7   2.0000     -10.296215      -280.1743
   8   2.0000     -10.295887      -280.1653
   9   2.0000     -10.289323      -279.9867
  10   2.0000     -10.287792      -279.9451
  11   2.0000     -10.285526      -279.8834
  12   2.0000     -10.285414      -279.8804
  13   2.0000     -10.284876      -279.8657
  14   2.0000     -10.281892      -279.7845
  15   2.0000     -10.265399      -279.3357
  16   2.0000      -8.085803      -220.0259
  17   2.0000      -8.074892      -219.7290
  18   2.0000      -6.044455      -164.4780
  19   2.0000      -6.040079      -164.3589
  20   2.0000      -6.036541      -164.2626
  21   2.0000      -6.033471      -164.1791
  22   2.0000      -6.029113      -164.0605
  23   2.0000      -6.025535      -163.9631
  24   2.0000      -1.020164       -27.7601
  25   2.0000      -0.995324       -27.0842
  26   2.0000      -0.927987       -25.2518
  27   2.0000      -0.915947       -24.9242
  28   2.0000      -0.883056       -24.0292
  29   2.0000      -0.852120       -23.1874
  30   2.0000      -0.849407       -23.1136
  31   2.0000      -0.821334       -22.3496
  32   2.0000      -0.782653       -21.2971
  33   2.0000      -0.775767       -21.1097
  34   2.0000      -0.713201       -19.4072
  35   2.0000      -0.704068       -19.1587
  36   2.0000      -0.686470       -18.6798
  37   2.0000      -0.670469       -18.2444
  38   2.0000      -0.635581       -17.2950
  39   2.0000      -0.626085       -17.0366
  40   2.0000      -0.599839       -16.3225
  41   2.0000      -0.584635       -15.9087
  42   2.0000      -0.567423       -15.4404
  43   2.0000      -0.561802       -15.2874
  44   2.0000      -0.545682       -14.8488
  45   2.0000      -0.537584       -14.6284
  46   2.0000      -0.528552       -14.3826
  47   2.0000      -0.513884       -13.9835
  48   2.0000      -0.508030       -13.8242
  49   2.0000      -0.500257       -13.6127
  50   2.0000      -0.499291       -13.5864
  51   2.0000      -0.482208       -13.1216
  52   2.0000      -0.475400       -12.9363
  53   2.0000      -0.468755       -12.7555
  54   2.0000      -0.459905       -12.5147
  55   2.0000      -0.455197       -12.3865
  56   2.0000      -0.443508       -12.0685
  57   2.0000      -0.440013       -11.9734
  58   2.0000      -0.426776       -11.6132
  59   2.0000      -0.418860       -11.3978
  60   2.0000      -0.414511       -11.2794
  61   2.0000      -0.408750       -11.1227
  62   2.0000      -0.403999       -10.9934
  63   2.0000      -0.364197        -9.9103
  64   2.0000      -0.331547        -9.0219
  65   2.0000      -0.326669        -8.8891
  66   2.0000      -0.291222        -7.9246
  67   0.0000       0.026407         0.7186
  68   0.0000       0.081430         2.2158
  69   0.0000       0.108021         2.9394
  70   0.0000       0.113392         3.0856
  71   0.0000       0.125239         3.4079

MULLIKEN ATOMIC CHARGES
-----------------------
   0 S :    0.125097
   1 C :   -0.111229
   2 C :   -0.083708
   3 C :   -0.000789
   4 C :   -0.124340
   5 H :    0.022329
   6 C :    0.039666
   7 H :    0.016637
   8 H :    0.032099
   9 C :   -0.072128
  10 H :    0.023672
  11 H :    0.035306
  12 C :   -0.033756
  13 H :    0.022746
  14 H :    0.026295
  15 H :    0.035940
  16 S :    0.070498
  17 C :   -0.071461
  18 C :    0.009958
  19 C :   -0.076725
  20 C :   -0.089720
  21 H :   -0.004656
  22 C :    0.002312
  23 H :    0.015706
  24 H :    0.032657
  25 C :   -0.083953
  26 H :    0.033583
  27 H :    0.023253
  28 C :   -0.015771
  29 H :    0.034254
  30 H :    0.013423
  31 H :    0.047024
  32 H :    0.051314
  33 H :    0.054470
Sum of atomic charges:   -0.0000000

LOEWDIN ATOMIC CHARGES
----------------------
   0 S :    0.428345
   1 C :   -0.203546
   2 C :   -0.062916
   3 C :   -0.069674
   4 C :   -0.201390
   5 H :    0.031875
   6 C :   -0.043635
   7 H :    0.027974
   8 H :    0.038029
   9 C :   -0.039511
  10 H :    0.025046
  11 H :    0.025692
  12 C :   -0.059928
  13 H :    0.024855
  14 H :    0.025331
  15 H :    0.020773
  16 S :    0.408811
  17 C :   -0.165829
  18 C :   -0.059502
  19 C :   -0.070049
  20 C :   -0.206048
  21 H :    0.024695
  22 C :   -0.043680
  23 H :    0.021010
  24 H :    0.038534
  25 C :   -0.044574
  26 H :    0.028290
  27 H :    0.023293
  28 C :   -0.069136
  29 H :    0.022546
  30 H :    0.022768
  31 H :    0.036157
  32 H :    0.035014
  33 H :    0.030381

  Mayer bond orders larger than 0.100000
B(  0-S ,  1-C ) :   1.1293 B(  0-S ,  4-C ) :   1.1639 B(  1-C ,  2-C ) :   1.6277
B(  1-C , 32-H ) :   0.9623 B(  2-C ,  3-C ) :   1.2516 B(  2-C ,  6-C ) :   1.0410
B(  3-C ,  4-C ) :   1.5435 B(  3-C ,  5-H ) :   0.9695 B(  4-C , 20-C ) :   1.0470
B(  6-C ,  7-H ) :   0.9191 B(  6-C ,  8-H ) :   0.9388 B(  6-C ,  9-C ) :   1.0862
B(  9-C , 10-H ) :   0.9473 B(  9-C , 11-H ) :   0.9557 B(  9-C , 12-C ) :   1.0745
B( 12-C , 13-H ) :   0.9746 B( 12-C , 14-H ) :   0.9732 B( 12-C , 15-H ) :   0.9761
B( 16-S , 17-C ) :   1.1492 B( 16-S , 20-C ) :   1.1215 B( 17-C , 18-C ) :   1.6096
B( 17-C , 33-H ) :   0.9661 B( 18-C , 19-C ) :   1.2300 B( 18-C , 21-H ) :   1.0083
B( 19-C , 20-C ) :   1.6169 B( 19-C , 22-C ) :   1.0466 B( 22-C , 23-H ) :   0.9389
B( 22-C , 24-H ) :   0.9333 B( 22-C , 25-C ) :   1.0870 B( 25-C , 26-H ) :   0.9516
B( 25-C , 27-H ) :   0.9610 B( 25-C , 28-C ) :   1.0654 B( 28-C , 29-H ) :   0.9710
B( 28-C , 30-H ) :   0.9687 B( 28-C , 31-H ) :   0.9673

Dispersion correction           -0.014659486
FINAL SINGLE POINT ENERGY     -1339.852532114111

DIPOLE MOMENT
-------------
                                X             Y             Z
Electronic contribution:    -25.52496      16.83585      -4.38850
Nuclear contribution   :     25.96697     -17.42069       4.61457
                        -----------------------------------------
Total Dipole Moment    :      0.44201      -0.58483       0.22607
                        -----------------------------------------
Magnitude (a.u.)       :      0.76715
Magnitude (Debye)      :      1.94993

Rotational constants in cm-1:     0.020358     0.009152     0.006652
Rotational constants in MHz :   610.329296   274.381850   199.421786

                             ****ORCA TERMINATED NORMALLY****
TOTAL RUN TIME: 0 days 0 hours 0 minutes 22 seconds 630 msec
