                         Program Version 4.2.1 -  RELEASE  -
|  1> ! wB97X-D3 SP def2-SVP
|  2> %pal
|  3> nprocs 24
|  4> end
|  5>
|  6> * xyz 0 1
|  7> S 	 -112.535 	 60.4631 	 -20.4842
|  8> C 	 -111.749 	 62.0474 	 -20.5287
|  9> C 	 -112.076 	 62.7085 	 -21.6871
| 10> C 	 -112.991 	 62.0978 	 -22.4956
| 11> C 	 -113.193 	 60.7784 	 -22.1115
| 12> H 	 -113.51 	 62.4335 	 -23.3681
| 13> C 	 -111.679 	 64.1146 	 -21.9611
| 14> H 	 -111.04 	 64.2192 	 -22.8215
| 15> H 	 -110.93 	 64.324 	 -21.231
| 16> C 	 -112.727 	 65.2678 	 -22.0329
| 17> H 	 -113.36 	 65.2651 	 -22.8967
| 18> H 	 -113.409 	 65.1088 	 -21.1747
| 19> C 	 -112.012 	 66.6211 	 -21.8323
| 20> H 	 -111.384 	 66.91 	 -22.67
| 21> H 	 -112.739 	 67.4537 	 -21.7649
| 22> H 	 -111.361 	 66.7055 	 -20.9944
| 23> S 	 -115.455 	 59.3709 	 -21.9341
| 24> C 	 -116.23 	 58.823 	 -23.372
| 25> C 	 -115.4 	 58.9122 	 -24.4978
| 26> C 	 -114.21 	 59.5738 	 -24.2067
| 27> C 	 -114.112 	 59.9411 	 -22.8648
| 28> H 	 -115.782 	 58.4435 	 -25.3837
| 29> C 	 -113.173 	 59.7123 	 -25.2725
| 30> H 	 -112.553 	 60.4197 	 -24.9542
| 31> H 	 -113.481 	 59.8756 	 -26.3201
| 32> C 	 -112.204 	 58.4888 	 -25.2426
| 33> H 	 -112.859 	 57.6724 	 -25.413
| 34> H 	 -111.868 	 58.2724 	 -24.2774
| 35> C 	 -111.066 	 58.46 	 -26.2796
| 36> H 	 -110.589 	 57.5244 	 -26.2231
| 37> H 	 -110.316 	 59.267 	 -26.2064
| 38> H 	 -111.438 	 58.5688 	 -27.2698
| 39> H 	 -110.977 	 62.2689 	 -19.7669
| 40> H 	 -117.186 	 58.3195 	 -23.3267
| 41> *
| 42>
| 43>                          ****END OF INPUT****

CARTESIAN COORDINATES (ANGSTROEM)
---------------------------------
  S    -112.535000   60.463100  -20.484200
  C    -111.749000   62.047400  -20.528700
  C    -112.076000   62.708500  -21.687100
  C    -112.991000   62.097800  -22.495600
  C    -113.193000   60.778400  -22.111500
  H    -113.510000   62.433500  -23.368100
  C    -111.679000   64.114600  -21.961100
  H    -111.040000   64.219200  -22.821500
  H    -110.930000   64.324000  -21.231000
  C    -112.727000   65.267800  -22.032900
  H    -113.360000   65.265100  -22.896700
  H    -113.409000   65.108800  -21.174700
  C    -112.012000   66.621100  -21.832300
  H    -111.384000   66.910000  -22.670000
  H    -112.739000   67.453700  -21.764900
  H    -111.361000   66.705500  -20.994400
  S    -115.455000   59.370900  -21.934100
  C    -116.230000   58.823000  -23.372000
  C    -115.400000   58.912200  -24.497800
  C    -114.210000   59.573800  -24.206700
  C    -114.112000   59.941100  -22.864800
  H    -115.782000   58.443500  -25.383700
  C    -113.173000   59.712300  -25.272500
  H    -112.553000   60.419700  -24.954200
  H    -113.481000   59.875600  -26.320100
  C    -112.204000   58.488800  -25.242600
  H    -112.859000   57.672400  -25.413000
  H    -111.868000   58.272400  -24.277400
  C    -111.066000   58.460000  -26.279600
  H    -110.589000   57.524400  -26.223100
  H    -110.316000   59.267000  -26.206400
  H    -111.438000   58.568800  -27.269800
  H    -110.977000   62.268900  -19.766900
  H    -117.186000   58.319500  -23.326700

 Total Charge           Charge          ....    0
 Multiplicity           Mult            ....    1
 Number of Electrons    NEL             ....  134
 Basis Dimension        Dim             ....  322

ORBITAL ENERGIES
----------------

  NO   OCC          E(Eh)            E(eV)
   0   2.0000     -88.968623     -2420.9593
   1   2.0000     -88.964736     -2420.8535
   2   2.0000     -10.329108      -281.0693
   3   2.0000     -10.322797      -280.8976
   4   2.0000     -10.316151      -280.7167
   5   2.0000     -10.313205      -280.6366
   6   2.0000     -10.302011      -280.3320
   7   2.0000     -10.293384      -280.0972
   8   2.0000     -10.290526      -280.0194
   9   2.0000     -10.290139      -280.0089
  10   2.0000     -10.284513      -279.8558
  11   2.0000     -10.281253      -279.7671
  12   2.0000     -10.278904      -279.7032
  13   2.0000     -10.277529      -279.6658
  14   2.0000     -10.273626      -279.5596
  15   2.0000     -10.271303      -279.4964
  16   2.0000      -8.082495      -219.9359
  17   2.0000      -8.080538      -219.8826
  18   2.0000      -6.040968      -164.3831
  19   2.0000      -6.038760      -164.3230
  20   2.0000      -6.037249      -164.2819
  21   2.0000      -6.034895      -164.2178
  22   2.0000      -6.033244      -164.1729
  23   2.0000      -6.031550      -164.1268
  24   2.0000      -1.011497       -27.5242
  25   2.0000      -0.988738       -26.9049
  26   2.0000      -0.912690       -24.8356
  27   2.0000      -0.908060       -24.7096
  28   2.0000      -0.869651       -23.6644
  29   2.0000      -0.855791       -23.2873
  30   2.0000      -0.850893       -23.1540
  31   2.0000      -0.813940       -22.1484
  32   2.0000      -0.785235       -21.3673
  33   2.0000      -0.768742       -20.9185
  34   2.0000      -0.712934       -19.3999
  35   2.0000      -0.704563       -19.1721
  36   2.0000      -0.696829       -18.9617
  37   2.0000      -0.666198       -18.1282
  38   2.0000      -0.644280       -17.5317
  39   2.0000      -0.624236       -16.9863
  40   2.0000      -0.601050       -16.3554
  41   2.0000      -0.572228       -15.5711
  42   2.0000      -0.563873       -15.3438
  43   2.0000      -0.553742       -15.0681
  44   2.0000      -0.526634       -14.3304
  45   2.0000      -0.523531       -14.2460
  46   2.0000      -0.516478       -14.0541
  47   2.0000      -0.509656       -13.8685
  48   2.0000      -0.503450       -13.6996
  49   2.0000      -0.497463       -13.5366
  50   2.0000      -0.492036       -13.3890
  51   2.0000      -0.481473       -13.1015
  52   2.0000      -0.475730       -12.9453
  53   2.0000      -0.468524       -12.7492
  54   2.0000      -0.455810       -12.4032
  55   2.0000      -0.449665       -12.2360
  56   2.0000      -0.445511       -12.1230
  57   2.0000      -0.439249       -11.9526
  58   2.0000      -0.436824       -11.8866
  59   2.0000      -0.427284       -11.6270
  60   2.0000      -0.424160       -11.5420
  61   2.0000      -0.415646       -11.3103
  62   2.0000      -0.411995       -11.2110
  63   2.0000      -0.345353        -9.3975
  64   2.0000      -0.334436        -9.1005
  65   2.0000      -0.329449        -8.9648
  66   2.0000      -0.285313        -7.7638
  67   0.0000       0.028361         0.7717
  68   0.0000       0.064727         1.7613
  69   0.0000       0.108774         2.9599
  70   0.0000       0.125873         3.4252
  71   0.0000       0.135386         3.6840

MULLIKEN ATOMIC CHARGES
-----------------------
   0 S :    0.096866
   1 C :   -0.148572
   2 C :   -0.034485
   3 C :    0.020896
   4 C :   -0.142186
   5 H :    0.019833
   6 C :    0.085273
   7 H :    0.014809
   8 H :   -0.015696
   9 C :   -0.046187
  10 H :    0.031737
  11 H :    0.034586
  12 C :   -0.058905
  13 H :    0.024028
  14 H :    0.032898
  15 H :    0.026085
  16 S :    0.117452
  17 C :   -0.108365
  18 C :   -0.041185
  19 C :   -0.039044
  20 C :   -0.180158
  21 H :    0.015594
  22 C :    0.156269
  23 H :   -0.029991
  24 H :    0.029658
  25 C :   -0.064950
  26 H :   -0.002071
  27 H :    0.011681
  28 C :    0.000947
  29 H :    0.027303
  30 H :    0.030276
  31 H :    0.011276
  32 H :    0.069722
  33 H :    0.054605
Sum of atomic charges:    0.0000000

LOEWDIN ATOMIC CHARGES
----------------------
   0 S :    0.379695
   1 C :   -0.195745
   2 C :   -0.069195
   3 C :   -0.053892
   4 C :   -0.180945
   5 H :    0.034845
   6 C :   -0.036265
   7 H :    0.027515
   8 H :    0.023969
   9 C :   -0.031721
  10 H :    0.021148
  11 H :    0.028812
  12 C :   -0.065621
  13 H :    0.023493
  14 H :    0.029389
  15 H :    0.020629
  16 S :    0.432579
  17 C :   -0.192405
  18 C :   -0.069702
  19 C :   -0.054068
  20 C :   -0.205063
  21 H :    0.032590
  22 C :   -0.020054
  23 H :    0.008170
  24 H :    0.034149
  25 C :   -0.026899
  26 H :    0.015892
  27 H :    0.017404
  28 C :   -0.058493
  29 H :    0.024276
  30 H :    0.026640
  31 H :    0.019123
  32 H :    0.035626
  33 H :    0.024121

  Mayer bond orders larger than 0.100000
B(  0-S ,  1-C ) :   1.1206 B(  0-S ,  4-C ) :   1.1548 B(  1-C ,  2-C ) :   1.5890
B(  1-C ,  4-C ) :   0.1042 B(  1-C , 32-H ) :   0.9622 B(  2-C ,  3-C ) :   1.2429
B(  2-C ,  6-C ) :   1.0429 B(  3-C ,  4-C ) :   1.5531 B(  3-C ,  5-H ) :   1.0017
B(  4-C , 20-C ) :   1.0360 B(  6-C ,  7-H ) :   0.9247 B(  6-C ,  8-H ) :   0.9324
B(  6-C ,  9-C ) :   1.0487 B(  9-C , 10-H ) :   0.9541 B(  9-C , 11-H ) :   0.9588
B(  9-C , 12-C ) :   1.0801 B( 12-C , 13-H ) :   0.9757 B( 12-C , 14-H ) :   0.9742
B( 12-C , 15-H ) :   0.9775 B( 16-S , 17-C ) :   1.1847 B( 16-S , 20-C ) :   1.1640
B( 17-C , 18-C ) :   1.5689 B( 17-C , 20-C ) :   0.1112 B( 17-C , 33-H ) :   0.9685
B( 18-C , 19-C ) :   1.2489 B( 18-C , 21-H ) :   1.0035 B( 19-C , 20-C ) :   1.5657
B( 19-C , 22-C ) :   1.0610 B( 22-C , 23-H ) :   0.9019 B( 22-C , 24-H ) :   0.9418
B( 22-C , 25-C ) :   1.0583 B( 25-C , 26-H ) :   0.9528 B( 25-C , 27-H ) :   0.9542
B( 25-C , 28-C ) :   1.0817 B( 28-C , 29-H ) :   0.9716 B( 28-C , 30-H ) :   0.9762
B( 28-C , 31-H ) :   0.9714

Dispersion correction           -0.013734334
FINAL SINGLE POINT ENERGY     -1339.853408509827

DIPOLE MOMENT
-------------
                                X             Y             Z
Electronic contribution:    -12.90688     -14.72174      15.94753
Nuclear contribution   :     13.03241      14.96834     -16.39513
                        -----------------------------------------
Total Dipole Moment    :      0.12553       0.24661      -0.44761
                        -----------------------------------------
Magnitude (a.u.)       :      0.52624
Magnitude (Debye)      :      1.33758

Rotational constants in cm-1:     0.017621     0.007937     0.006918
Rotational constants in MHz :   528.254912   237.933998   207.402070

                             ****ORCA TERMINATED NORMALLY****
TOTAL RUN TIME: 0 days 0 hours 0 minutes 20 seconds 203 msec
