                         Program Version 4.2.1 -  RELEASE  -
|  1> ! wB97X-D3 SP def2-SVP
|  2> %pal
|  3> nprocs 24
|  4> end
|  5>
|  6> * xyz 0 1
|  7> S 	 -42.1403 	 29.0752 	 29.4156
|  8> C 	 -43.4505 	 30.2422 	 29.686
|  9> C 	 -44.5362 	 29.6058 	 30.2112
| 10> C 	 -44.3751 	 28.1709 	 30.1979
| 11> C 	 -43.1274 	 27.6991 	 29.7988
| 12> H 	 -45.1404 	 27.4517 	 30.4344
| 13> C 	 -45.848 	 30.2047 	 30.4364
| 14> H 	 -46.4395 	 29.8866 	 29.5743
| 15> H 	 -45.8267 	 31.2603 	 30.2547
| 16> C 	 -46.6367 	 29.7463 	 31.7152
| 17> H 	 -47.64 	 30.1427 	 31.6189
| 18> H 	 -46.6261 	 28.6838 	 31.8382
| 19> C 	 -46.0197 	 30.2037 	 32.9991
| 20> H 	 -46.1024 	 31.2535 	 33.0484
| 21> H 	 -46.6328 	 29.8237 	 33.815
| 22> H 	 -44.9607 	 29.9195 	 33.0724
| 23> S 	 -41.9065 	 26.0897 	 27.8885
| 24> C 	 -42.193 	 24.4144 	 27.8012
| 25> C 	 -42.9457 	 24.0146 	 28.9056
| 26> C 	 -43.2568 	 25.0768 	 29.7741
| 27> C 	 -42.8006 	 26.329 	 29.3647
| 28> H 	 -43.2504 	 23.022 	 28.9584
| 29> C 	 -44.0825 	 24.79 	 31.0602
| 30> H 	 -44.3759 	 25.8078 	 31.3836
| 31> H 	 -43.2767 	 24.2954 	 31.6467
| 32> C 	 -45.4193 	 24.0167 	 30.8951
| 33> H 	 -45.1894 	 23.0132 	 30.4166
| 34> H 	 -46.11 	 24.4996 	 30.1622
| 35> C 	 -46.1926 	 23.9149 	 32.1968
| 36> H 	 -45.6619 	 23.6538 	 33.0853
| 37> H 	 -46.9564 	 23.1695 	 31.99
| 38> H 	 -46.6853 	 24.8446 	 32.4604
| 39> H 	 -43.4558 	 31.2989 	 29.5435
| 40> H 	 -41.9835 	 23.796 	 26.9555
| 41> *
| 42>
| 43>                          ****END OF INPUT****

CARTESIAN COORDINATES (ANGSTROEM)
---------------------------------
  S    -42.140300   29.075200   29.415600
  C    -43.450500   30.242200   29.686000
  C    -44.536200   29.605800   30.211200
  C    -44.375100   28.170900   30.197900
  C    -43.127400   27.699100   29.798800
  H    -45.140400   27.451700   30.434400
  C    -45.848000   30.204700   30.436400
  H    -46.439500   29.886600   29.574300
  H    -45.826700   31.260300   30.254700
  C    -46.636700   29.746300   31.715200
  H    -47.640000   30.142700   31.618900
  H    -46.626100   28.683800   31.838200
  C    -46.019700   30.203700   32.999100
  H    -46.102400   31.253500   33.048400
  H    -46.632800   29.823700   33.815000
  H    -44.960700   29.919500   33.072400
  S    -41.906500   26.089700   27.888500
  C    -42.193000   24.414400   27.801200
  C    -42.945700   24.014600   28.905600
  C    -43.256800   25.076800   29.774100
  C    -42.800600   26.329000   29.364700
  H    -43.250400   23.022000   28.958400
  C    -44.082500   24.790000   31.060200
  H    -44.375900   25.807800   31.383600
  H    -43.276700   24.295400   31.646700
  C    -45.419300   24.016700   30.895100
  H    -45.189400   23.013200   30.416600
  H    -46.110000   24.499600   30.162200
  C    -46.192600   23.914900   32.196800
  H    -45.661900   23.653800   33.085300
  H    -46.956400   23.169500   31.990000
  H    -46.685300   24.844600   32.460400
  H    -43.455800   31.298900   29.543500
  H    -41.983500   23.796000   26.955500

 Total Charge           Charge          ....    0
 Multiplicity           Mult            ....    1
 Number of Electrons    NEL             ....  134
 Basis Dimension        Dim             ....  322

ORBITAL ENERGIES
----------------

  NO   OCC          E(Eh)            E(eV)
   0   2.0000     -88.964731     -2420.8534
   1   2.0000     -88.964317     -2420.8421
   2   2.0000     -10.334837      -281.2252
   3   2.0000     -10.329305      -281.0747
   4   2.0000     -10.314743      -280.6784
   5   2.0000     -10.312216      -280.6097
   6   2.0000     -10.302369      -280.3417
   7   2.0000     -10.298420      -280.2343
   8   2.0000     -10.298411      -280.2340
   9   2.0000     -10.297435      -280.2075
  10   2.0000     -10.293591      -280.1028
  11   2.0000     -10.288894      -279.9750
  12   2.0000     -10.287364      -279.9334
  13   2.0000     -10.285442      -279.8811
  14   2.0000     -10.276794      -279.6458
  15   2.0000     -10.269026      -279.4344
  16   2.0000      -8.079979      -219.8674
  17   2.0000      -8.079231      -219.8471
  18   2.0000      -6.038339      -164.3116
  19   2.0000      -6.037997      -164.3023
  20   2.0000      -6.034147      -164.1975
  21   2.0000      -6.033711      -164.1856
  22   2.0000      -6.031015      -164.1123
  23   2.0000      -6.029776      -164.0785
  24   2.0000      -1.010195       -27.4888
  25   2.0000      -0.988827       -26.9073
  26   2.0000      -0.918334       -24.9891
  27   2.0000      -0.906816       -24.6757
  28   2.0000      -0.874557       -23.7979
  29   2.0000      -0.855973       -23.2922
  30   2.0000      -0.846414       -23.0321
  31   2.0000      -0.817335       -22.2408
  32   2.0000      -0.784122       -21.3370
  33   2.0000      -0.775295       -21.0968
  34   2.0000      -0.711188       -19.3524
  35   2.0000      -0.699348       -19.0302
  36   2.0000      -0.695676       -18.9303
  37   2.0000      -0.660435       -17.9714
  38   2.0000      -0.640550       -17.4303
  39   2.0000      -0.625780       -17.0283
  40   2.0000      -0.593447       -16.1485
  41   2.0000      -0.578816       -15.7504
  42   2.0000      -0.564470       -15.3600
  43   2.0000      -0.553250       -15.0547
  44   2.0000      -0.544129       -14.8065
  45   2.0000      -0.534051       -14.5323
  46   2.0000      -0.525280       -14.2936
  47   2.0000      -0.515616       -14.0306
  48   2.0000      -0.509985       -13.8774
  49   2.0000      -0.503040       -13.6884
  50   2.0000      -0.493063       -13.4169
  51   2.0000      -0.488185       -13.2842
  52   2.0000      -0.474863       -12.9217
  53   2.0000      -0.468608       -12.7515
  54   2.0000      -0.462778       -12.5928
  55   2.0000      -0.448080       -12.1929
  56   2.0000      -0.442262       -12.0346
  57   2.0000      -0.436323       -11.8729
  58   2.0000      -0.432548       -11.7702
  59   2.0000      -0.424025       -11.5383
  60   2.0000      -0.416432       -11.3317
  61   2.0000      -0.416164       -11.3244
  62   2.0000      -0.404912       -11.0182
  63   2.0000      -0.356324        -9.6961
  64   2.0000      -0.331373        -9.0171
  65   2.0000      -0.324415        -8.8278
  66   2.0000      -0.287576        -7.8253
  67   0.0000       0.025619         0.6971
  68   0.0000       0.079492         2.1631
  69   0.0000       0.113162         3.0793
  70   0.0000       0.117735         3.2037
  71   0.0000       0.125382         3.4118

MULLIKEN ATOMIC CHARGES
-----------------------
   0 S :    0.094171
   1 C :   -0.117093
   2 C :   -0.062493
   3 C :   -0.005154
   4 C :   -0.122808
   5 H :    0.009809
   6 C :    0.056389
   7 H :    0.040206
   8 H :    0.004240
   9 C :   -0.069786
  10 H :    0.029472
  11 H :    0.024869
  12 C :   -0.030245
  13 H :    0.010570
  14 H :    0.030501
  15 H :    0.047089
  16 S :    0.110376
  17 C :   -0.087845
  18 C :   -0.025024
  19 C :   -0.069176
  20 C :   -0.119336
  21 H :   -0.004924
  22 C :    0.059430
  23 H :    0.014113
  24 H :    0.060115
  25 C :   -0.118218
  26 H :    0.036071
  27 H :    0.040193
  28 C :   -0.015366
  29 H :    0.026900
  30 H :    0.033692
  31 H :    0.025953
  32 H :    0.036736
  33 H :    0.056574
Sum of atomic charges:   -0.0000000

LOEWDIN ATOMIC CHARGES
----------------------
   0 S :    0.394280
   1 C :   -0.186995
   2 C :   -0.065670
   3 C :   -0.066160
   4 C :   -0.189364
   5 H :    0.023283
   6 C :   -0.035793
   7 H :    0.041679
   8 H :    0.025469
   9 C :   -0.034250
  10 H :    0.025704
  11 H :    0.020190
  12 C :   -0.060725
  13 H :    0.015097
  14 H :    0.027245
  15 H :    0.030628
  16 S :    0.436568
  17 C :   -0.193422
  18 C :   -0.072442
  19 C :   -0.060042
  20 C :   -0.209446
  21 H :    0.019859
  22 C :   -0.034903
  23 H :    0.026776
  24 H :    0.044210
  25 C :   -0.047812
  26 H :    0.024307
  27 H :    0.031787
  28 C :   -0.063356
  29 H :    0.021825
  30 H :    0.030830
  31 H :    0.024672
  32 H :    0.026938
  33 H :    0.029033

  Mayer bond orders larger than 0.100000
B(  0-S ,  1-C ) :   1.1181 B(  0-S ,  4-C ) :   1.1458 B(  1-C ,  2-C ) :   1.6157
B(  1-C , 32-H ) :   0.9692 B(  2-C ,  3-C ) :   1.2192 B(  2-C ,  6-C ) :   1.0463
B(  3-C ,  4-C ) :   1.5795 B(  3-C ,  5-H ) :   0.9821 B(  4-C , 20-C ) :   1.0436
B(  6-C ,  7-H ) :   0.9305 B(  6-C ,  8-H ) :   0.9390 B(  6-C ,  9-C ) :   1.0635
B(  9-C , 10-H ) :   0.9532 B(  9-C , 11-H ) :   0.9589 B(  9-C , 12-C ) :   1.0845
B( 12-C , 13-H ) :   0.9738 B( 12-C , 14-H ) :   0.9721 B( 12-C , 15-H ) :   0.9734
B( 16-S , 17-C ) :   1.1957 B( 16-S , 20-C ) :   1.1484 B( 17-C , 18-C ) :   1.5487
B( 17-C , 33-H ) :   0.9708 B( 18-C , 19-C ) :   1.2861 B( 18-C , 21-H ) :   1.0074
B( 19-C , 20-C ) :   1.5567 B( 19-C , 22-C ) :   1.0110 B( 22-C , 23-H ) :   0.9386
B( 22-C , 24-H ) :   0.9357 B( 22-C , 25-C ) :   1.0645 B( 25-C , 26-H ) :   0.9538
B( 25-C , 27-H ) :   0.9546 B( 25-C , 28-C ) :   1.0820 B( 28-C , 29-H ) :   0.9754
B( 28-C , 30-H ) :   0.9728 B( 28-C , 31-H ) :   0.9728

Dispersion correction           -0.014000877
FINAL SINGLE POINT ENERGY     -1339.871010611277

DIPOLE MOMENT
-------------
                                X             Y             Z
Electronic contribution:     25.00282       2.83335     -19.33325
Nuclear contribution   :    -25.85316      -3.04438      19.45015
                        -----------------------------------------
Total Dipole Moment    :     -0.85034      -0.21103       0.11690
                        -----------------------------------------
Magnitude (a.u.)       :      0.88390
Magnitude (Debye)      :      2.24669

Rotational constants in cm-1:     0.016240     0.010124     0.006608
Rotational constants in MHz :   486.875498   303.518363   198.091364

                             ****ORCA TERMINATED NORMALLY****
TOTAL RUN TIME: 0 days 0 hours 0 minutes 21 seconds 863 msec
