                         Program Version 4.2.1 -  RELEASE  -
|  1> ! wB97X-D3 SP def2-SVP
|  2> %pal
|  3> nprocs 24
|  4> end
|  5>
|  6> * xyz 0 1
|  7> S 	 -39.116 	 17.9451 	 12.0508
|  8> C 	 -39.1885 	 16.4331 	 12.8544
|  9> C 	 -38.2902 	 16.3464 	 13.8729
| 10> C 	 -37.4376 	 17.5331 	 13.9357
| 11> C 	 -37.7073 	 18.5152 	 12.9885
| 12> H 	 -36.7201 	 17.6078 	 14.7948
| 13> C 	 -38.2013 	 15.1277 	 14.7162
| 14> H 	 -37.2749 	 14.6099 	 14.3255
| 15> H 	 -39.1015 	 14.4617 	 14.5172
| 16> C 	 -37.9027 	 15.3802 	 16.2281
| 17> H 	 -37.1395 	 16.0777 	 16.3322
| 18> H 	 -38.7648 	 15.8233 	 16.6345
| 19> C 	 -37.548 	 14.1282 	 17.0055
| 20> H 	 -36.5323 	 13.9854 	 16.7052
| 21> H 	 -37.4284 	 14.3022 	 18.0725
| 22> H 	 -38.1024 	 13.2828 	 16.9399
| 23> S 	 -38.1314 	 21.2897 	 12.8425
| 24> C 	 -36.7113 	 22.2871 	 13.0506
| 25> C 	 -35.5342 	 21.5413 	 13.083
| 26> C 	 -35.7393 	 20.1002 	 13.0135
| 27> C 	 -37.1209 	 19.8351 	 13.0197
| 28> H 	 -34.6626 	 22.2357 	 13.2691
| 29> C 	 -34.6101 	 19.0616 	 12.9173
| 30> H 	 -34.4766 	 18.759 	 11.859
| 31> H 	 -34.9317 	 18.1945 	 13.3533
| 32> C 	 -33.2795 	 19.3916 	 13.5115
| 33> H 	 -33.037 	 20.4006 	 13.26
| 34> H 	 -32.5107 	 18.8355 	 12.9869
| 35> C 	 -33.0855 	 19.2537 	 14.9961
| 36> H 	 -33.6967 	 19.9881 	 15.5003
| 37> H 	 -32.057 	 19.3857 	 15.2808
| 38> H 	 -33.559 	 18.3812 	 15.4155
| 39> H 	 -39.9522 	 15.6955 	 12.673
| 40> H 	 -36.6954 	 23.3513 	 13.1077
| 41> *
| 42>
| 43>                          ****END OF INPUT****

CARTESIAN COORDINATES (ANGSTROEM)
---------------------------------
  S    -39.116000   17.945100   12.050800
  C    -39.188500   16.433100   12.854400
  C    -38.290200   16.346400   13.872900
  C    -37.437600   17.533100   13.935700
  C    -37.707300   18.515200   12.988500
  H    -36.720100   17.607800   14.794800
  C    -38.201300   15.127700   14.716200
  H    -37.274900   14.609900   14.325500
  H    -39.101500   14.461700   14.517200
  C    -37.902700   15.380200   16.228100
  H    -37.139500   16.077700   16.332200
  H    -38.764800   15.823300   16.634500
  C    -37.548000   14.128200   17.005500
  H    -36.532300   13.985400   16.705200
  H    -37.428400   14.302200   18.072500
  H    -38.102400   13.282800   16.939900
  S    -38.131400   21.289700   12.842500
  C    -36.711300   22.287100   13.050600
  C    -35.534200   21.541300   13.083000
  C    -35.739300   20.100200   13.013500
  C    -37.120900   19.835100   13.019700
  H    -34.662600   22.235700   13.269100
  C    -34.610100   19.061600   12.917300
  H    -34.476600   18.759000   11.859000
  H    -34.931700   18.194500   13.353300
  C    -33.279500   19.391600   13.511500
  H    -33.037000   20.400600   13.260000
  H    -32.510700   18.835500   12.986900
  C    -33.085500   19.253700   14.996100
  H    -33.696700   19.988100   15.500300
  H    -32.057000   19.385700   15.280800
  H    -33.559000   18.381200   15.415500
  H    -39.952200   15.695500   12.673000
  H    -36.695400   23.351300   13.107700

 Total Charge           Charge          ....    0
 Multiplicity           Mult            ....    1
 Number of Electrons    NEL             ....  134
 Basis Dimension        Dim             ....  322

ORBITAL ENERGIES
----------------

  NO   OCC          E(Eh)            E(eV)
   0   2.0000     -88.969391     -2420.9802
   1   2.0000     -88.963771     -2420.8273
   2   2.0000     -10.333014      -281.1756
   3   2.0000     -10.331635      -281.1381
   4   2.0000     -10.317008      -280.7401
   5   2.0000     -10.314101      -280.6610
   6   2.0000     -10.307348      -280.4772
   7   2.0000     -10.302379      -280.3420
   8   2.0000     -10.300904      -280.3018
   9   2.0000     -10.300526      -280.2916
  10   2.0000     -10.297152      -280.1998
  11   2.0000     -10.285987      -279.8959
  12   2.0000     -10.280439      -279.7450
  13   2.0000     -10.277731      -279.6713
  14   2.0000     -10.271539      -279.5028
  15   2.0000     -10.267943      -279.4049
  16   2.0000      -8.083523      -219.9638
  17   2.0000      -8.078616      -219.8303
  18   2.0000      -6.042079      -164.4133
  19   2.0000      -6.038247      -164.3091
  20   2.0000      -6.037292      -164.2831
  21   2.0000      -6.034144      -164.1974
  22   2.0000      -6.033067      -164.1681
  23   2.0000      -6.029227      -164.0636
  24   2.0000      -1.002860       -27.2892
  25   2.0000      -0.981103       -26.6972
  26   2.0000      -0.916722       -24.9453
  27   2.0000      -0.913885       -24.8681
  28   2.0000      -0.875682       -23.8285
  29   2.0000      -0.853353       -23.2209
  30   2.0000      -0.844977       -22.9930
  31   2.0000      -0.815558       -22.1924
  32   2.0000      -0.789885       -21.4939
  33   2.0000      -0.773414       -21.0457
  34   2.0000      -0.718583       -19.5536
  35   2.0000      -0.704411       -19.1680
  36   2.0000      -0.697135       -18.9700
  37   2.0000      -0.647074       -17.6078
  38   2.0000      -0.633861       -17.2482
  39   2.0000      -0.623669       -16.9709
  40   2.0000      -0.601363       -16.3639
  41   2.0000      -0.575798       -15.6683
  42   2.0000      -0.565632       -15.3916
  43   2.0000      -0.558802       -15.2058
  44   2.0000      -0.536467       -14.5980
  45   2.0000      -0.524724       -14.2785
  46   2.0000      -0.517152       -14.0724
  47   2.0000      -0.512054       -13.9337
  48   2.0000      -0.507847       -13.8192
  49   2.0000      -0.502513       -13.6741
  50   2.0000      -0.495143       -13.4735
  51   2.0000      -0.482829       -13.1384
  52   2.0000      -0.476140       -12.9564
  53   2.0000      -0.464621       -12.6430
  54   2.0000      -0.458322       -12.4716
  55   2.0000      -0.455059       -12.3828
  56   2.0000      -0.446066       -12.1381
  57   2.0000      -0.439418       -11.9572
  58   2.0000      -0.435226       -11.8431
  59   2.0000      -0.426987       -11.6189
  60   2.0000      -0.418944       -11.4000
  61   2.0000      -0.416391       -11.3306
  62   2.0000      -0.409848       -11.1525
  63   2.0000      -0.353689        -9.6244
  64   2.0000      -0.332226        -9.0403
  65   2.0000      -0.321829        -8.7574
  66   2.0000      -0.287433        -7.8215
  67   0.0000       0.025421         0.6918
  68   0.0000       0.072466         1.9719
  69   0.0000       0.111715         3.0399
  70   0.0000       0.120151         3.2695
  71   0.0000       0.124937         3.3997

MULLIKEN ATOMIC CHARGES
-----------------------
   0 S :    0.103909
   1 C :   -0.128816
   2 C :   -0.078350
   3 C :    0.003009
   4 C :   -0.143887
   5 H :    0.035459
   6 C :    0.018580
   7 H :    0.043205
   8 H :    0.036940
   9 C :   -0.043957
  10 H :    0.009793
  11 H :    0.019264
  12 C :   -0.004191
  13 H :    0.013020
  14 H :    0.023263
  15 H :    0.018334
  16 S :    0.117865
  17 C :   -0.096881
  18 C :   -0.070560
  19 C :   -0.057933
  20 C :   -0.147413
  21 H :    0.046351
  22 C :    0.148409
  23 H :    0.045395
  24 H :   -0.025809
  25 C :   -0.058014
  26 H :    0.009595
  27 H :    0.017337
  28 C :   -0.011950
  29 H :    0.016109
  30 H :    0.039458
  31 H :    0.011090
  32 H :    0.044800
  33 H :    0.046575
Sum of atomic charges:    0.0000000

LOEWDIN ATOMIC CHARGES
----------------------
   0 S :    0.398833
   1 C :   -0.205963
   2 C :   -0.072261
   3 C :   -0.065852
   4 C :   -0.187482
   5 H :    0.033902
   6 C :   -0.035076
   7 H :    0.038882
   8 H :    0.037100
   9 C :   -0.028804
  10 H :    0.015093
  11 H :    0.016772
  12 C :   -0.055024
  13 H :    0.025573
  14 H :    0.030418
  15 H :    0.011028
  16 S :    0.394952
  17 C :   -0.184461
  18 C :   -0.083749
  19 C :   -0.044026
  20 C :   -0.189381
  21 H :    0.044670
  22 C :   -0.024216
  23 H :    0.047432
  24 H :    0.014565
  25 C :   -0.042424
  26 H :    0.018606
  27 H :    0.025912
  28 C :   -0.061611
  29 H :    0.025408
  30 H :    0.028264
  31 H :    0.020277
  32 H :    0.028202
  33 H :    0.024439

  Mayer bond orders larger than 0.100000
B(  0-S ,  1-C ) :   1.1339 B(  0-S ,  4-C ) :   1.1317 B(  1-C ,  2-C ) :   1.6161
B(  1-C , 32-H ) :   0.9677 B(  2-C ,  3-C ) :   1.2504 B(  2-C ,  6-C ) :   1.0316
B(  3-C ,  4-C ) :   1.5620 B(  3-C ,  5-H ) :   0.9715 B(  4-C , 20-C ) :   1.0927
B(  6-C ,  7-H ) :   0.9353 B(  6-C ,  8-H ) :   0.9457 B(  6-C ,  9-C ) :   1.0512
B(  9-C , 10-H ) :   0.9549 B(  9-C , 11-H ) :   0.9574 B(  9-C , 12-C ) :   1.0868
B( 12-C , 13-H ) :   0.9740 B( 12-C , 14-H ) :   0.9699 B( 12-C , 15-H ) :   0.9795
B( 16-S , 17-C ) :   1.1419 B( 16-S , 20-C ) :   1.1282 B( 17-C , 18-C ) :   1.6559
B( 17-C , 33-H ) :   0.9663 B( 18-C , 19-C ) :   1.2000 B( 18-C , 21-H ) :   0.9755
B( 19-C , 20-C ) :   1.5908 B( 19-C , 22-C ) :   1.0317 B( 22-C , 23-H ) :   0.9192
B( 22-C , 24-H ) :   0.9172 B( 22-C , 25-C ) :   1.0856 B( 25-C , 26-H ) :   0.9461
B( 25-C , 27-H ) :   0.9471 B( 25-C , 28-C ) :   1.0871 B( 28-C , 29-H ) :   0.9702
B( 28-C , 30-H ) :   0.9729 B( 28-C , 31-H ) :   0.9704

Dispersion correction           -0.013784046
FINAL SINGLE POINT ENERGY     -1339.859002185747

DIPOLE MOMENT
-------------
                                X             Y             Z
Electronic contribution:    -18.90035      16.66232     -18.32200
Nuclear contribution   :     19.38448     -16.93698      18.77448
                        -----------------------------------------
Total Dipole Moment    :      0.48413      -0.27466       0.45248
                        -----------------------------------------
Magnitude (a.u.)       :      0.71733
Magnitude (Debye)      :      1.82331

Rotational constants in cm-1:     0.016494     0.009022     0.006566
Rotational constants in MHz :   494.464701   270.467934   196.852378

                             ****ORCA TERMINATED NORMALLY****
TOTAL RUN TIME: 0 days 0 hours 0 minutes 21 seconds 588 msec
