                         Program Version 4.2.1 -  RELEASE  -
|  1> ! wB97X-D3 SP def2-SVP
|  2> %pal
|  3> nprocs 24
|  4> end
|  5>
|  6> * xyz 0 1
|  7> S 	 -138.749 	 7.1996 	 -3.39338
|  8> C 	 -139.176 	 8.52861 	 -4.46063
|  9> C 	 -140.348 	 8.15163 	 -5.08336
| 10> C 	 -140.855 	 6.81091 	 -4.73849
| 11> C 	 -139.99 	 6.06788 	 -3.96818
| 12> H 	 -141.817 	 6.41287 	 -5.06836
| 13> C 	 -141.131 	 9.05373 	 -6.08853
| 14> H 	 -140.737 	 10.0696 	 -5.9681
| 15> H 	 -142.162 	 9.04542 	 -5.87664
| 16> C 	 -140.989 	 8.85875 	 -7.61329
| 17> H 	 -139.935 	 8.96313 	 -7.86726
| 18> H 	 -141.268 	 7.83154 	 -7.89115
| 19> C 	 -141.752 	 9.85147 	 -8.51833
| 20> H 	 -141.167 	 10.7572 	 -8.579
| 21> H 	 -141.841 	 9.45382 	 -9.59809
| 22> H 	 -142.688 	 10.1098 	 -8.04736
| 23> S 	 -140.49 	 3.50756 	 -4.44797
| 24> C 	 -140.649 	 2.34438 	 -3.08006
| 25> C 	 -140.706 	 2.98407 	 -1.85175
| 26> C 	 -140.322 	 4.36876 	 -1.94678
| 27> C 	 -140.316 	 4.79326 	 -3.31845
| 28> H 	 -140.914 	 2.42025 	 -1.01062
| 29> C 	 -140.086 	 5.31322 	 -0.732614
| 30> H 	 -140.952 	 5.96352 	 -0.545188
| 31> H 	 -139.356 	 6.08761 	 -1.00398
| 32> C 	 -139.619 	 4.53645 	 0.525901
| 33> H 	 -138.672 	 4.08767 	 0.497922
| 34> H 	 -140.313 	 3.72068 	 0.748521
| 35> C 	 -139.553 	 5.39635 	 1.77072
| 36> H 	 -138.933 	 6.27651 	 1.59113
| 37> H 	 -139.065 	 5.00374 	 2.62673
| 38> H 	 -140.468 	 5.83882 	 2.08805
| 39> H 	 -138.811 	 9.55211 	 -4.52789
| 40> H 	 -140.794 	 1.28091 	 -3.22533
| 41> *
| 42>
| 43>                          ****END OF INPUT****

CARTESIAN COORDINATES (ANGSTROEM)
---------------------------------
  S    -138.749000    7.199600   -3.393380
  C    -139.176000    8.528610   -4.460630
  C    -140.348000    8.151630   -5.083360
  C    -140.855000    6.810910   -4.738490
  C    -139.990000    6.067880   -3.968180
  H    -141.817000    6.412870   -5.068360
  C    -141.131000    9.053730   -6.088530
  H    -140.737000   10.069600   -5.968100
  H    -142.162000    9.045420   -5.876640
  C    -140.989000    8.858750   -7.613290
  H    -139.935000    8.963130   -7.867260
  H    -141.268000    7.831540   -7.891150
  C    -141.752000    9.851470   -8.518330
  H    -141.167000   10.757200   -8.579000
  H    -141.841000    9.453820   -9.598090
  H    -142.688000   10.109800   -8.047360
  S    -140.490000    3.507560   -4.447970
  C    -140.649000    2.344380   -3.080060
  C    -140.706000    2.984070   -1.851750
  C    -140.322000    4.368760   -1.946780
  C    -140.316000    4.793260   -3.318450
  H    -140.914000    2.420250   -1.010620
  C    -140.086000    5.313220   -0.732614
  H    -140.952000    5.963520   -0.545188
  H    -139.356000    6.087610   -1.003980
  C    -139.619000    4.536450    0.525901
  H    -138.672000    4.087670    0.497922
  H    -140.313000    3.720680    0.748521
  C    -139.553000    5.396350    1.770720
  H    -138.933000    6.276510    1.591130
  H    -139.065000    5.003740    2.626730
  H    -140.468000    5.838820    2.088050
  H    -138.811000    9.552110   -4.527890
  H    -140.794000    1.280910   -3.225330

 Total Charge           Charge          ....    0
 Multiplicity           Mult            ....    1
 Number of Electrons    NEL             ....  134
 Basis Dimension        Dim             ....  322

ORBITAL ENERGIES
----------------

  NO   OCC          E(Eh)            E(eV)
   0   2.0000     -88.969902     -2420.9941
   1   2.0000     -88.964999     -2420.8607
   2   2.0000     -10.334509      -281.2163
   3   2.0000     -10.331562      -281.1361
   4   2.0000     -10.321543      -280.8635
   5   2.0000     -10.320624      -280.8385
   6   2.0000     -10.315323      -280.6942
   7   2.0000     -10.308559      -280.5102
   8   2.0000     -10.299902      -280.2746
   9   2.0000     -10.298209      -280.2285
  10   2.0000     -10.296689      -280.1872
  11   2.0000     -10.291448      -280.0445
  12   2.0000     -10.284244      -279.8485
  13   2.0000     -10.283899      -279.8391
  14   2.0000     -10.283768      -279.8356
  15   2.0000     -10.267666      -279.3974
  16   2.0000      -8.084149      -219.9809
  17   2.0000      -8.078808      -219.8355
  18   2.0000      -6.042659      -164.4291
  19   2.0000      -6.038690      -164.3211
  20   2.0000      -6.037639      -164.2925
  21   2.0000      -6.034971      -164.2199
  22   2.0000      -6.033370      -164.1763
  23   2.0000      -6.029292      -164.0654
  24   2.0000      -1.003108       -27.2960
  25   2.0000      -0.979259       -26.6470
  26   2.0000      -0.906822       -24.6759
  27   2.0000      -0.904381       -24.6094
  28   2.0000      -0.874353       -23.7924
  29   2.0000      -0.850007       -23.1299
  30   2.0000      -0.837949       -22.8018
  31   2.0000      -0.819292       -22.2941
  32   2.0000      -0.779456       -21.2101
  33   2.0000      -0.768922       -20.9234
  34   2.0000      -0.712004       -19.3746
  35   2.0000      -0.700499       -19.0616
  36   2.0000      -0.691731       -18.8229
  37   2.0000      -0.661654       -18.0045
  38   2.0000      -0.637437       -17.3456
  39   2.0000      -0.617900       -16.8139
  40   2.0000      -0.596886       -16.2421
  41   2.0000      -0.573435       -15.6040
  42   2.0000      -0.563227       -15.3262
  43   2.0000      -0.561257       -15.2726
  44   2.0000      -0.532417       -14.4878
  45   2.0000      -0.519704       -14.1419
  46   2.0000      -0.517437       -14.0802
  47   2.0000      -0.510862       -13.9013
  48   2.0000      -0.507013       -13.7965
  49   2.0000      -0.498708       -13.5705
  50   2.0000      -0.486568       -13.2402
  51   2.0000      -0.479603       -13.0507
  52   2.0000      -0.469424       -12.7737
  53   2.0000      -0.466362       -12.6904
  54   2.0000      -0.460295       -12.5253
  55   2.0000      -0.452409       -12.3107
  56   2.0000      -0.444390       -12.0925
  57   2.0000      -0.440058       -11.9746
  58   2.0000      -0.429786       -11.6951
  59   2.0000      -0.427063       -11.6210
  60   2.0000      -0.417826       -11.3696
  61   2.0000      -0.412988       -11.2380
  62   2.0000      -0.403819       -10.9885
  63   2.0000      -0.353753        -9.6261
  64   2.0000      -0.332230        -9.0404
  65   2.0000      -0.322088        -8.7645
  66   2.0000      -0.292728        -7.9655
  67   0.0000       0.026115         0.7106
  68   0.0000       0.066971         1.8224
  69   0.0000       0.103894         2.8271
  70   0.0000       0.118783         3.2322
  71   0.0000       0.121562         3.3079

MULLIKEN ATOMIC CHARGES
-----------------------
   0 S :    0.080607
   1 C :   -0.097598
   2 C :   -0.107585
   3 C :    0.019363
   4 C :   -0.097255
   5 H :    0.024562
   6 C :    0.065255
   7 H :    0.006546
   8 H :    0.017758
   9 C :   -0.074837
  10 H :    0.022697
  11 H :    0.024969
  12 C :   -0.061841
  13 H :    0.027086
  14 H :    0.056197
  15 H :    0.029101
  16 S :    0.112400
  17 C :   -0.105065
  18 C :   -0.005244
  19 C :   -0.035909
  20 C :   -0.168379
  21 H :    0.000979
  22 C :    0.068270
  23 H :    0.043192
  24 H :    0.024483
  25 C :   -0.063057
  26 H :    0.026056
  27 H :    0.029428
  28 C :   -0.027944
  29 H :    0.010556
  30 H :    0.021081
  31 H :    0.016087
  32 H :    0.059122
  33 H :    0.058918
Sum of atomic charges:    0.0000000

LOEWDIN ATOMIC CHARGES
----------------------
   0 S :    0.397137
   1 C :   -0.197453
   2 C :   -0.061750
   3 C :   -0.063276
   4 C :   -0.191794
   5 H :    0.031884
   6 C :   -0.031328
   7 H :    0.026656
   8 H :    0.020827
   9 C :   -0.044723
  10 H :    0.021642
  11 H :    0.018727
  12 C :   -0.067603
  13 H :    0.021704
  14 H :    0.042193
  15 H :    0.020607
  16 S :    0.413138
  17 C :   -0.170145
  18 C :   -0.056371
  19 C :   -0.048580
  20 C :   -0.207508
  21 H :    0.021715
  22 C :   -0.033826
  23 H :    0.038317
  24 H :    0.022732
  25 C :   -0.036631
  26 H :    0.023358
  27 H :    0.022990
  28 C :   -0.065375
  29 H :    0.025029
  30 H :    0.022300
  31 H :    0.018014
  32 H :    0.040530
  33 H :    0.026860

  Mayer bond orders larger than 0.100000
B(  0-S ,  1-C ) :   1.1217 B(  0-S ,  4-C ) :   1.1284 B(  1-C ,  2-C ) :   1.6290
B(  1-C , 32-H ) :   0.9676 B(  2-C ,  3-C ) :   1.2269 B(  2-C ,  6-C ) :   1.0304
B(  3-C ,  4-C ) :   1.5781 B(  3-C ,  5-H ) :   0.9904 B(  4-C , 20-C ) :   1.0216
B(  6-C ,  7-H ) :   0.9437 B(  6-C ,  8-H ) :   0.9419 B(  6-C ,  9-C ) :   1.0620
B(  9-C , 10-H ) :   0.9583 B(  9-C , 11-H ) :   0.9594 B(  9-C , 12-C ) :   1.0713
B( 12-C , 13-H ) :   0.9772 B( 12-C , 14-H ) :   0.9738 B( 12-C , 15-H ) :   0.9771
B( 16-S , 17-C ) :   1.1461 B( 16-S , 20-C ) :   1.1671 B( 17-C , 18-C ) :   1.6188
B( 17-C , 20-C ) :   0.1043 B( 17-C , 33-H ) :   0.9660 B( 18-C , 19-C ) :   1.2349
B( 18-C , 21-H ) :   0.9954 B( 19-C , 20-C ) :   1.5660 B( 19-C , 22-C ) :   1.0274
B( 22-C , 23-H ) :   0.9383 B( 22-C , 24-H ) :   0.9301 B( 22-C , 25-C ) :   1.0539
B( 25-C , 26-H ) :   0.9575 B( 25-C , 27-H ) :   0.9536 B( 25-C , 28-C ) :   1.0921
B( 28-C , 29-H ) :   0.9678 B( 28-C , 30-H ) :   0.9725 B( 28-C , 31-H ) :   0.9741

Dispersion correction           -0.013212441
FINAL SINGLE POINT ENERGY     -1339.857611102052

DIPOLE MOMENT
-------------
                                X             Y             Z
Electronic contribution:      5.52468     -13.11276      -2.88921
Nuclear contribution   :     -5.83975      13.30125       3.09027
                        -----------------------------------------
Total Dipole Moment    :     -0.31507       0.18849       0.20105
                        -----------------------------------------
Magnitude (a.u.)       :      0.41859
Magnitude (Debye)      :      1.06398

Rotational constants in cm-1:     0.022766     0.006837     0.005617
Rotational constants in MHz :   682.510285   204.979705   168.383663

                             ****ORCA TERMINATED NORMALLY****
TOTAL RUN TIME: 0 days 0 hours 0 minutes 20 seconds 316 msec
