                         Program Version 4.2.1 -  RELEASE  -
|  1> ! wB97X-D3 SP def2-SVP
|  2> %pal
|  3> nprocs 24
|  4> end
|  5>
|  6> * xyz 0 1
|  7> S 	 -53.6476 	 10.6494 	 -21.4925
|  8> C 	 -52.2992 	 11.3163 	 -20.6639
|  9> C 	 -52.4553 	 12.6155 	 -20.2827
| 10> C 	 -53.7729 	 13.0678 	 -20.6816
| 11> C 	 -54.5919 	 12.0908 	 -21.2614
| 12> H 	 -54.2442 	 14.0262 	 -20.5831
| 13> C 	 -51.4286 	 13.4949 	 -19.5635
| 14> H 	 -51.327 	 14.4453 	 -20.1797
| 15> H 	 -50.5058 	 12.9928 	 -19.5825
| 16> C 	 -51.7327 	 13.8472 	 -18.1368
| 17> H 	 -50.7706 	 14.2816 	 -17.7915
| 18> H 	 -52.4885 	 14.636 	 -17.9909
| 19> C 	 -52.0711 	 12.6837 	 -17.2559
| 20> H 	 -51.3017 	 11.9961 	 -17.3093
| 21> H 	 -52.1795 	 13.1887 	 -16.3169
| 22> H 	 -53.056 	 12.1512 	 -17.4337
| 23> S 	 -57.0283 	 13.2222 	 -20.7688
| 24> C 	 -58.4559 	 12.5227 	 -21.4405
| 25> C 	 -58.1492 	 11.609 	 -22.373
| 26> C 	 -56.772 	 11.3863 	 -22.5767
| 27> C 	 -55.9909 	 12.1667 	 -21.713
| 28> H 	 -59.0193 	 11.1051 	 -22.8415
| 29> C 	 -56.3274 	 10.2705 	 -23.5512
| 30> H 	 -57.1868 	 9.67266 	 -24.0293
| 31> H 	 -55.8215 	 9.50745 	 -22.9023
| 32> C 	 -55.2425 	 10.7371 	 -24.6189
| 33> H 	 -54.4777 	 11.2728 	 -24.0328
| 34> H 	 -55.5842 	 11.4642 	 -25.3494
| 35> C 	 -54.5677 	 9.65452 	 -25.3728
| 36> H 	 -53.6259 	 10.0616 	 -25.715
| 37> H 	 -55.1746 	 9.27903 	 -26.2243
| 38> H 	 -54.3205 	 8.79603 	 -24.6432
| 39> H 	 -51.292 	 10.8061 	 -20.5461
| 40> H 	 -59.4 	 12.8543 	 -21.1553
| 41> *
| 42>
| 43>                          ****END OF INPUT****

CARTESIAN COORDINATES (ANGSTROEM)
---------------------------------
  S    -53.647600   10.649400  -21.492500
  C    -52.299200   11.316300  -20.663900
  C    -52.455300   12.615500  -20.282700
  C    -53.772900   13.067800  -20.681600
  C    -54.591900   12.090800  -21.261400
  H    -54.244200   14.026200  -20.583100
  C    -51.428600   13.494900  -19.563500
  H    -51.327000   14.445300  -20.179700
  H    -50.505800   12.992800  -19.582500
  C    -51.732700   13.847200  -18.136800
  H    -50.770600   14.281600  -17.791500
  H    -52.488500   14.636000  -17.990900
  C    -52.071100   12.683700  -17.255900
  H    -51.301700   11.996100  -17.309300
  H    -52.179500   13.188700  -16.316900
  H    -53.056000   12.151200  -17.433700
  S    -57.028300   13.222200  -20.768800
  C    -58.455900   12.522700  -21.440500
  C    -58.149200   11.609000  -22.373000
  C    -56.772000   11.386300  -22.576700
  C    -55.990900   12.166700  -21.713000
  H    -59.019300   11.105100  -22.841500
  C    -56.327400   10.270500  -23.551200
  H    -57.186800    9.672660  -24.029300
  H    -55.821500    9.507450  -22.902300
  C    -55.242500   10.737100  -24.618900
  H    -54.477700   11.272800  -24.032800
  H    -55.584200   11.464200  -25.349400
  C    -54.567700    9.654520  -25.372800
  H    -53.625900   10.061600  -25.715000
  H    -55.174600    9.279030  -26.224300
  H    -54.320500    8.796030  -24.643200
  H    -51.292000   10.806100  -20.546100
  H    -59.400000   12.854300  -21.155300

 Total Charge           Charge          ....    0
 Multiplicity           Mult            ....    1
 Number of Electrons    NEL             ....  134
 Basis Dimension        Dim             ....  322

ORBITAL ENERGIES
----------------

  NO   OCC          E(Eh)            E(eV)
   0   2.0000     -88.966914     -2420.9128
   1   2.0000     -88.962849     -2420.8022
   2   2.0000     -10.332667      -281.1662
   3   2.0000     -10.332481      -281.1611
   4   2.0000     -10.313679      -280.6495
   5   2.0000     -10.308777      -280.5161
   6   2.0000     -10.308492      -280.5083
   7   2.0000     -10.306040      -280.4416
   8   2.0000     -10.301843      -280.3274
   9   2.0000     -10.294238      -280.1205
  10   2.0000     -10.292368      -280.0696
  11   2.0000     -10.290126      -280.0086
  12   2.0000     -10.284208      -279.8475
  13   2.0000     -10.280606      -279.7495
  14   2.0000     -10.277373      -279.6615
  15   2.0000     -10.267936      -279.4047
  16   2.0000      -8.081783      -219.9165
  17   2.0000      -8.078377      -219.8238
  18   2.0000      -6.040294      -164.3648
  19   2.0000      -6.036844      -164.2709
  20   2.0000      -6.036265      -164.2551
  21   2.0000      -6.032752      -164.1595
  22   2.0000      -6.032560      -164.1543
  23   2.0000      -6.029162      -164.0619
  24   2.0000      -1.010772       -27.5045
  25   2.0000      -0.990263       -26.9464
  26   2.0000      -0.919053       -25.0087
  27   2.0000      -0.901504       -24.5312
  28   2.0000      -0.873361       -23.7654
  29   2.0000      -0.855304       -23.2740
  30   2.0000      -0.846110       -23.0238
  31   2.0000      -0.814479       -22.1631
  32   2.0000      -0.786933       -21.4135
  33   2.0000      -0.771223       -20.9861
  34   2.0000      -0.707614       -19.2552
  35   2.0000      -0.688081       -18.7236
  36   2.0000      -0.682609       -18.5747
  37   2.0000      -0.665932       -18.1209
  38   2.0000      -0.634227       -17.2582
  39   2.0000      -0.618936       -16.8421
  40   2.0000      -0.597549       -16.2601
  41   2.0000      -0.570198       -15.5159
  42   2.0000      -0.562995       -15.3199
  43   2.0000      -0.556038       -15.1306
  44   2.0000      -0.541245       -14.7280
  45   2.0000      -0.523349       -14.2410
  46   2.0000      -0.518280       -14.1031
  47   2.0000      -0.514849       -14.0097
  48   2.0000      -0.508458       -13.8358
  49   2.0000      -0.495420       -13.4811
  50   2.0000      -0.488583       -13.2950
  51   2.0000      -0.480654       -13.0793
  52   2.0000      -0.477328       -12.9888
  53   2.0000      -0.463170       -12.6035
  54   2.0000      -0.462006       -12.5718
  55   2.0000      -0.444891       -12.1061
  56   2.0000      -0.440015       -11.9734
  57   2.0000      -0.434625       -11.8267
  58   2.0000      -0.424981       -11.5643
  59   2.0000      -0.422966       -11.5095
  60   2.0000      -0.417724       -11.3668
  61   2.0000      -0.410806       -11.1786
  62   2.0000      -0.407201       -11.0805
  63   2.0000      -0.361892        -9.8476
  64   2.0000      -0.332192        -9.0394
  65   2.0000      -0.328585        -8.9413
  66   2.0000      -0.285378        -7.7655
  67   0.0000       0.022962         0.6248
  68   0.0000       0.086642         2.3576
  69   0.0000       0.108386         2.9493
  70   0.0000       0.127572         3.4714
  71   0.0000       0.130951         3.5634

MULLIKEN ATOMIC CHARGES
-----------------------
   0 S :    0.097699
   1 C :   -0.138084
   2 C :   -0.088859
   3 C :    0.010158
   4 C :   -0.139641
   5 H :    0.002732
   6 C :    0.100130
   7 H :    0.044558
   8 H :   -0.001513
   9 C :   -0.098276
  10 H :    0.029229
  11 H :    0.031742
  12 C :   -0.018388
  13 H :    0.009980
  14 H :    0.027656
  15 H :    0.054500
  16 S :    0.085391
  17 C :   -0.064895
  18 C :   -0.049770
  19 C :   -0.020870
  20 C :   -0.123677
  21 H :    0.029523
  22 C :    0.006173
  23 H :    0.042464
  24 H :    0.043400
  25 C :   -0.082621
  26 H :    0.029970
  27 H :    0.030143
  28 C :   -0.051269
  29 H :    0.033608
  30 H :    0.042190
  31 H :    0.030562
  32 H :    0.064533
  33 H :    0.031520
Sum of atomic charges:   -0.0000000

LOEWDIN ATOMIC CHARGES
----------------------
   0 S :    0.431813
   1 C :   -0.219790
   2 C :   -0.064341
   3 C :   -0.070008
   4 C :   -0.192421
   5 H :    0.022163
   6 C :   -0.030634
   7 H :    0.043196
   8 H :    0.020521
   9 C :   -0.045328
  10 H :    0.030143
  11 H :    0.023450
  12 C :   -0.059479
  13 H :    0.011515
  14 H :    0.028096
  15 H :    0.037285
  16 S :    0.412628
  17 C :   -0.174875
  18 C :   -0.078007
  19 C :   -0.058701
  20 C :   -0.194623
  21 H :    0.040436
  22 C :   -0.041635
  23 H :    0.037716
  24 H :    0.028794
  25 C :   -0.052112
  26 H :    0.017308
  27 H :    0.024207
  28 C :   -0.069823
  29 H :    0.027870
  30 H :    0.026438
  31 H :    0.030359
  32 H :    0.041256
  33 H :    0.016585

  Mayer bond orders larger than 0.100000
B(  0-S ,  1-C ) :   1.1435 B(  0-S ,  4-C ) :   1.1451 B(  1-C ,  2-C ) :   1.6323
B(  1-C , 32-H ) :   0.9503 B(  2-C ,  3-C ) :   1.2192 B(  2-C ,  6-C ) :   1.0262
B(  3-C ,  4-C ) :   1.5732 B(  3-C ,  5-H ) :   0.9941 B(  4-C , 20-C ) :   1.0571
B(  6-C ,  7-H ) :   0.9365 B(  6-C ,  8-H ) :   0.9322 B(  6-C ,  9-C ) :   1.0792
B(  9-C , 10-H ) :   0.9536 B(  9-C , 11-H ) :   0.9555 B(  9-C , 12-C ) :   1.0810
B( 12-C , 13-H ) :   0.9763 B( 12-C , 14-H ) :   0.9716 B( 12-C , 15-H ) :   0.9678
B( 16-S , 17-C ) :   1.1573 B( 16-S , 20-C ) :   1.1492 B( 17-C , 18-C ) :   1.6079
B( 17-C , 33-H ) :   0.9765 B( 18-C , 19-C ) :   1.2539 B( 18-C , 21-H ) :   0.9907
B( 19-C , 20-C ) :   1.5537 B( 19-C , 22-C ) :   1.0278 B( 22-C , 23-H ) :   0.9448
B( 22-C , 24-H ) :   0.9324 B( 22-C , 25-C ) :   1.0444 B( 25-C , 26-H ) :   0.9530
B( 25-C , 27-H ) :   0.9527 B( 25-C , 28-C ) :   1.0940 B( 28-C , 29-H ) :   0.9711
B( 28-C , 30-H ) :   0.9748 B( 28-C , 31-H ) :   0.9702

Dispersion correction           -0.014519653
FINAL SINGLE POINT ENERGY     -1339.877440505843

DIPOLE MOMENT
-------------
                                X             Y             Z
Electronic contribution:    -12.27433       2.36990       0.79231
Nuclear contribution   :     12.38045      -2.30035      -0.76459
                        -----------------------------------------
Total Dipole Moment    :      0.10612       0.06955       0.02771
                        -----------------------------------------
Magnitude (a.u.)       :      0.12987
Magnitude (Debye)      :      0.33011

Rotational constants in cm-1:     0.020177     0.009037     0.006716
Rotational constants in MHz :   604.885376   270.931087   201.347529

                             ****ORCA TERMINATED NORMALLY****
TOTAL RUN TIME: 0 days 0 hours 0 minutes 21 seconds 564 msec
