                         Program Version 4.2.1 -  RELEASE  -
|  1> ! wB97X-D3 SP def2-SVP
|  2> %pal
|  3> nprocs 24
|  4> end
|  5>
|  6> * xyz 0 1
|  7> S 	 -100.921 	 46.6 	 -84.9323
|  8> C 	 -99.8868 	 45.6122 	 -85.9829
|  9> C 	 -100.563 	 45.4592 	 -87.1839
| 10> C 	 -101.772 	 46.2099 	 -87.301
| 11> C 	 -102.131 	 46.8759 	 -86.1568
| 12> H 	 -102.364 	 46.2251 	 -88.2378
| 13> C 	 -99.9308 	 44.8274 	 -88.3649
| 14> H 	 -98.866 	 45.1338 	 -88.2826
| 15> H 	 -100.329 	 45.2614 	 -89.2581
| 16> C 	 -100.161 	 43.3414 	 -88.5617
| 17> H 	 -100.315 	 42.9281 	 -87.5783
| 18> H 	 -101.123 	 43.1992 	 -89.0243
| 19> C 	 -98.9977 	 42.6921 	 -89.4302
| 20> H 	 -97.9512 	 42.945 	 -89.2086
| 21> H 	 -99.1368 	 41.6359 	 -89.2856
| 22> H 	 -99.2097 	 42.8634 	 -90.457
| 23> S 	 -103.09 	 49.2543 	 -85.1091
| 24> C 	 -104.81 	 49.5254 	 -85.0311
| 25> C 	 -105.386 	 48.7637 	 -85.9899
| 26> C 	 -104.611 	 47.6463 	 -86.5401
| 27> C 	 -103.307 	 47.7375 	 -86.0315
| 28> H 	 -106.443 	 48.9016 	 -86.2632
| 29> C 	 -105.26 	 46.6226 	 -87.4736
| 30> H 	 -104.636 	 45.8204 	 -87.8655
| 31> H 	 -105.622 	 47.1923 	 -88.3628
| 32> C 	 -106.592 	 45.8884 	 -86.9383
| 33> H 	 -106.973 	 45.1425 	 -87.7019
| 34> H 	 -107.359 	 46.6628 	 -86.7812
| 35> C 	 -106.392 	 45.1337 	 -85.6133
| 36> H 	 -105.642 	 44.3938 	 -85.7628
| 37> H 	 -107.352 	 44.6615 	 -85.3234
| 38> H 	 -106.056 	 45.7453 	 -84.8069
| 39> H 	 -98.9366 	 45.1003 	 -85.6889
| 40> H 	 -105.269 	 50.3781 	 -84.6233
| 41> *
| 42>
| 43>                          ****END OF INPUT****

CARTESIAN COORDINATES (ANGSTROEM)
---------------------------------
  S    -100.921000   46.600000  -84.932300
  C    -99.886800   45.612200  -85.982900
  C    -100.563000   45.459200  -87.183900
  C    -101.772000   46.209900  -87.301000
  C    -102.131000   46.875900  -86.156800
  H    -102.364000   46.225100  -88.237800
  C    -99.930800   44.827400  -88.364900
  H    -98.866000   45.133800  -88.282600
  H    -100.329000   45.261400  -89.258100
  C    -100.161000   43.341400  -88.561700
  H    -100.315000   42.928100  -87.578300
  H    -101.123000   43.199200  -89.024300
  C    -98.997700   42.692100  -89.430200
  H    -97.951200   42.945000  -89.208600
  H    -99.136800   41.635900  -89.285600
  H    -99.209700   42.863400  -90.457000
  S    -103.090000   49.254300  -85.109100
  C    -104.810000   49.525400  -85.031100
  C    -105.386000   48.763700  -85.989900
  C    -104.611000   47.646300  -86.540100
  C    -103.307000   47.737500  -86.031500
  H    -106.443000   48.901600  -86.263200
  C    -105.260000   46.622600  -87.473600
  H    -104.636000   45.820400  -87.865500
  H    -105.622000   47.192300  -88.362800
  C    -106.592000   45.888400  -86.938300
  H    -106.973000   45.142500  -87.701900
  H    -107.359000   46.662800  -86.781200
  C    -106.392000   45.133700  -85.613300
  H    -105.642000   44.393800  -85.762800
  H    -107.352000   44.661500  -85.323400
  H    -106.056000   45.745300  -84.806900
  H    -98.936600   45.100300  -85.688900
  H    -105.269000   50.378100  -84.623300

 Total Charge           Charge          ....    0
 Multiplicity           Mult            ....    1
 Number of Electrons    NEL             ....  134
 Basis Dimension        Dim             ....  322

ORBITAL ENERGIES
----------------

  NO   OCC          E(Eh)            E(eV)
   0   2.0000     -88.966237     -2420.8944
   1   2.0000     -88.961911     -2420.7767
   2   2.0000     -10.336171      -281.2615
   3   2.0000     -10.330465      -281.1063
   4   2.0000     -10.319857      -280.8176
   5   2.0000     -10.315043      -280.6866
   6   2.0000     -10.312681      -280.6223
   7   2.0000     -10.305301      -280.4215
   8   2.0000     -10.297327      -280.2045
   9   2.0000     -10.297009      -280.1959
  10   2.0000     -10.296282      -280.1761
  11   2.0000     -10.293275      -280.0943
  12   2.0000     -10.285119      -279.8723
  13   2.0000     -10.281158      -279.7645
  14   2.0000     -10.279916      -279.7307
  15   2.0000     -10.269702      -279.4528
  16   2.0000      -8.080414      -219.8792
  17   2.0000      -8.076556      -219.7743
  18   2.0000      -6.039064      -164.3313
  19   2.0000      -6.035205      -164.2263
  20   2.0000      -6.034813      -164.2156
  21   2.0000      -6.031292      -164.1198
  22   2.0000      -6.031201      -164.1173
  23   2.0000      -6.026933      -164.0012
  24   2.0000      -1.005121       -27.3507
  25   2.0000      -0.983874       -26.7726
  26   2.0000      -0.913401       -24.8549
  27   2.0000      -0.899715       -24.4825
  28   2.0000      -0.869428       -23.6583
  29   2.0000      -0.848012       -23.0756
  30   2.0000      -0.839965       -22.8566
  31   2.0000      -0.815169       -22.1819
  32   2.0000      -0.782247       -21.2860
  33   2.0000      -0.774234       -21.0680
  34   2.0000      -0.708995       -19.2927
  35   2.0000      -0.703540       -19.1443
  36   2.0000      -0.692280       -18.8379
  37   2.0000      -0.655508       -17.8373
  38   2.0000      -0.635287       -17.2870
  39   2.0000      -0.619499       -16.8574
  40   2.0000      -0.600534       -16.3414
  41   2.0000      -0.574125       -15.6227
  42   2.0000      -0.553849       -15.0710
  43   2.0000      -0.544314       -14.8115
  44   2.0000      -0.539658       -14.6848
  45   2.0000      -0.522088       -14.2067
  46   2.0000      -0.518263       -14.1026
  47   2.0000      -0.509990       -13.8775
  48   2.0000      -0.505410       -13.7529
  49   2.0000      -0.502517       -13.6742
  50   2.0000      -0.494320       -13.4511
  51   2.0000      -0.479444       -13.0463
  52   2.0000      -0.471906       -12.8412
  53   2.0000      -0.469854       -12.7854
  54   2.0000      -0.464559       -12.6413
  55   2.0000      -0.447726       -12.1832
  56   2.0000      -0.441802       -12.0220
  57   2.0000      -0.439824       -11.9682
  58   2.0000      -0.428202       -11.6520
  59   2.0000      -0.420398       -11.4396
  60   2.0000      -0.418735       -11.3944
  61   2.0000      -0.411601       -11.2002
  62   2.0000      -0.409107       -11.1324
  63   2.0000      -0.354790        -9.6543
  64   2.0000      -0.328590        -8.9414
  65   2.0000      -0.324181        -8.8214
  66   2.0000      -0.291572        -7.9341
  67   0.0000       0.020894         0.5686
  68   0.0000       0.079408         2.1608
  69   0.0000       0.099478         2.7069
  70   0.0000       0.122789         3.3412
  71   0.0000       0.127772         3.4768

MULLIKEN ATOMIC CHARGES
-----------------------
   0 S :    0.110128
   1 C :   -0.147971
   2 C :   -0.090412
   3 C :    0.000956
   4 C :   -0.107619
   5 H :    0.025108
   6 C :    0.045505
   7 H :    0.034752
   8 H :    0.008697
   9 C :   -0.059583
  10 H :    0.022080
  11 H :    0.018253
  12 C :   -0.038420
  13 H :    0.043594
  14 H :    0.029863
  15 H :    0.029189
  16 S :    0.087398
  17 C :   -0.057159
  18 C :   -0.054987
  19 C :   -0.011523
  20 C :   -0.169314
  21 H :    0.026093
  22 C :    0.034663
  23 H :    0.029731
  24 H :    0.047400
  25 C :   -0.120732
  26 H :    0.044545
  27 H :    0.029681
  28 C :   -0.030076
  29 H :    0.022122
  30 H :    0.036914
  31 H :    0.038167
  32 H :    0.075301
  33 H :    0.047657
Sum of atomic charges:   -0.0000000

LOEWDIN ATOMIC CHARGES
----------------------
   0 S :    0.403750
   1 C :   -0.200679
   2 C :   -0.068598
   3 C :   -0.069017
   4 C :   -0.198763
   5 H :    0.035470
   6 C :   -0.038861
   7 H :    0.035119
   8 H :    0.024914
   9 C :   -0.034408
  10 H :    0.017607
  11 H :    0.023007
  12 C :   -0.060357
  13 H :    0.028203
  14 H :    0.026436
  15 H :    0.022533
  16 S :    0.381644
  17 C :   -0.179849
  18 C :   -0.067406
  19 C :   -0.055671
  20 C :   -0.173824
  21 H :    0.030001
  22 C :   -0.037195
  23 H :    0.027263
  24 H :    0.042094
  25 C :   -0.041332
  26 H :    0.031772
  27 H :    0.017602
  28 C :   -0.064268
  29 H :    0.020278
  30 H :    0.030116
  31 H :    0.023768
  32 H :    0.044339
  33 H :    0.024310

  Mayer bond orders larger than 0.100000
B(  0-S ,  1-C ) :   1.1280 B(  0-S ,  4-C ) :   1.1559 B(  1-C ,  2-C ) :   1.5822
B(  1-C , 32-H ) :   0.9664 B(  2-C ,  3-C ) :   1.2680 B(  2-C ,  6-C ) :   1.0319
B(  3-C ,  4-C ) :   1.5438 B(  3-C ,  5-H ) :   0.9856 B(  4-C , 20-C ) :   1.0604
B(  6-C ,  7-H ) :   0.9554 B(  6-C ,  8-H ) :   0.9408 B(  6-C ,  9-C ) :   1.0444
B(  9-C , 10-H ) :   0.9676 B(  9-C , 11-H ) :   0.9519 B(  9-C , 12-C ) :   1.0638
B( 12-C , 13-H ) :   0.9814 B( 12-C , 14-H ) :   0.9764 B( 12-C , 15-H ) :   0.9769
B( 16-S , 17-C ) :   1.1212 B( 16-S , 20-C ) :   1.1389 B( 17-C , 18-C ) :   1.6506
B( 17-C , 33-H ) :   0.9718 B( 18-C , 19-C ) :   1.2038 B( 18-C , 21-H ) :   0.9768
B( 19-C , 20-C ) :   1.6019 B( 19-C , 22-C ) :   1.0380 B( 22-C , 23-H ) :   0.9441
B( 22-C , 24-H ) :   0.9354 B( 22-C , 25-C ) :   1.0608 B( 25-C , 26-H ) :   0.9583
B( 25-C , 27-H ) :   0.9572 B( 25-C , 28-C ) :   1.0746 B( 28-C , 29-H ) :   0.9762
B( 28-C , 30-H ) :   0.9739 B( 28-C , 31-H ) :   0.9737

Dispersion correction           -0.013826405
FINAL SINGLE POINT ENERGY     -1339.869611079397

DIPOLE MOMENT
-------------
                                X             Y             Z
Electronic contribution:      5.45819      21.94441      16.55856
Nuclear contribution   :     -5.75593     -22.32162     -17.18376
                        -----------------------------------------
Total Dipole Moment    :     -0.29774      -0.37721      -0.62521
                        -----------------------------------------
Magnitude (a.u.)       :      0.78855
Magnitude (Debye)      :      2.00435

Rotational constants in cm-1:     0.019980     0.007857     0.006263
Rotational constants in MHz :   598.977148   235.555086   187.766616

                             ****ORCA TERMINATED NORMALLY****
TOTAL RUN TIME: 0 days 0 hours 0 minutes 19 seconds 865 msec
