                         Program Version 4.2.1 -  RELEASE  -
|  1> ! wB97X-D3 SP def2-SVP
|  2> %pal
|  3> nprocs 24
|  4> end
|  5>
|  6> * xyz 0 1
|  7> S 	 -41.3154 	 8.22298 	 28.0074
|  8> C 	 -41.9958 	 6.64549 	 28.2287
|  9> C 	 -42.1874 	 6.30831 	 29.5702
| 10> C 	 -41.6451 	 7.36037 	 30.3935
| 11> C 	 -41.2363 	 8.45795 	 29.7204
| 12> H 	 -41.6252 	 7.20474 	 31.4595
| 13> C 	 -42.8625 	 5.0886 	 30.1574
| 14> H 	 -42.8181 	 5.23388 	 31.2106
| 15> H 	 -42.2721 	 4.23861 	 29.9657
| 16> C 	 -44.3341 	 4.93511 	 29.7607
| 17> H 	 -44.8863 	 5.6489 	 30.3095
| 18> H 	 -44.3512 	 5.23754 	 28.6765
| 19> C 	 -44.966 	 3.59526 	 29.9298
| 20> H 	 -46.0487 	 3.59001 	 29.808
| 21> H 	 -44.5048 	 2.75084 	 29.34
| 22> H 	 -44.787 	 3.30571 	 30.9497
| 23> S 	 -41.6469 	 10.9378 	 30.4923
| 24> C 	 -40.4211 	 11.7347 	 31.4529
| 25> C 	 -39.3122 	 10.9775 	 31.6473
| 26> C 	 -39.3732 	 9.695 	 31.0923
| 27> C 	 -40.568 	 9.59546 	 30.3138
| 28> H 	 -38.5349 	 11.3474 	 32.2754
| 29> C 	 -38.3932 	 8.59038 	 31.2872
| 30> H 	 -37.6261 	 8.66364 	 30.4978
| 31> H 	 -39.0335 	 7.73506 	 31.0801
| 32> C 	 -37.6819 	 8.69757 	 32.7011
| 33> H 	 -37.3429 	 9.67779 	 32.9998
| 34> H 	 -36.7343 	 8.24927 	 32.61
| 35> C 	 -38.4588 	 8.10867 	 33.9317
| 36> H 	 -39.2089 	 7.3209 	 33.705
| 37> H 	 -39.037 	 8.90996 	 34.4255
| 38> H 	 -37.7352 	 7.74059 	 34.704
| 39> H 	 -42.4306 	 6.0864 	 27.4893
| 40> H 	 -40.5859 	 12.7792 	 31.9171
| 41> *
| 42>
| 43>                          ****END OF INPUT****

CARTESIAN COORDINATES (ANGSTROEM)
---------------------------------
  S    -41.315400    8.222980   28.007400
  C    -41.995800    6.645490   28.228700
  C    -42.187400    6.308310   29.570200
  C    -41.645100    7.360370   30.393500
  C    -41.236300    8.457950   29.720400
  H    -41.625200    7.204740   31.459500
  C    -42.862500    5.088600   30.157400
  H    -42.818100    5.233880   31.210600
  H    -42.272100    4.238610   29.965700
  C    -44.334100    4.935110   29.760700
  H    -44.886300    5.648900   30.309500
  H    -44.351200    5.237540   28.676500
  C    -44.966000    3.595260   29.929800
  H    -46.048700    3.590010   29.808000
  H    -44.504800    2.750840   29.340000
  H    -44.787000    3.305710   30.949700
  S    -41.646900   10.937800   30.492300
  C    -40.421100   11.734700   31.452900
  C    -39.312200   10.977500   31.647300
  C    -39.373200    9.695000   31.092300
  C    -40.568000    9.595460   30.313800
  H    -38.534900   11.347400   32.275400
  C    -38.393200    8.590380   31.287200
  H    -37.626100    8.663640   30.497800
  H    -39.033500    7.735060   31.080100
  C    -37.681900    8.697570   32.701100
  H    -37.342900    9.677790   32.999800
  H    -36.734300    8.249270   32.610000
  C    -38.458800    8.108670   33.931700
  H    -39.208900    7.320900   33.705000
  H    -39.037000    8.909960   34.425500
  H    -37.735200    7.740590   34.704000
  H    -42.430600    6.086400   27.489300
  H    -40.585900   12.779200   31.917100

 Total Charge           Charge          ....    0
 Multiplicity           Mult            ....    1
 Number of Electrons    NEL             ....  134
 Basis Dimension        Dim             ....  322

ORBITAL ENERGIES
----------------

  NO   OCC          E(Eh)            E(eV)
   0   2.0000     -88.964983     -2420.8603
   1   2.0000     -88.963746     -2420.8266
   2   2.0000     -10.318752      -280.7875
   3   2.0000     -10.317781      -280.7611
   4   2.0000     -10.316521      -280.7268
   5   2.0000     -10.304630      -280.4032
   6   2.0000     -10.300917      -280.3022
   7   2.0000     -10.297970      -280.2220
   8   2.0000     -10.295692      -280.1600
   9   2.0000     -10.290260      -280.0122
  10   2.0000     -10.287843      -279.9464
  11   2.0000     -10.286564      -279.9116
  12   2.0000     -10.285938      -279.8946
  13   2.0000     -10.284078      -279.8440
  14   2.0000     -10.283970      -279.8410
  15   2.0000     -10.279020      -279.7064
  16   2.0000      -8.080339      -219.8772
  17   2.0000      -8.078897      -219.8380
  18   2.0000      -6.038807      -164.3243
  19   2.0000      -6.037158      -164.2794
  20   2.0000      -6.034764      -164.2143
  21   2.0000      -6.033379      -164.1766
  22   2.0000      -6.031117      -164.1150
  23   2.0000      -6.029877      -164.0813
  24   2.0000      -1.009731       -27.4762
  25   2.0000      -0.985452       -26.8155
  26   2.0000      -0.917361       -24.9627
  27   2.0000      -0.904764       -24.6199
  28   2.0000      -0.870764       -23.6947
  29   2.0000      -0.853258       -23.2183
  30   2.0000      -0.846931       -23.0462
  31   2.0000      -0.814424       -22.1616
  32   2.0000      -0.786129       -21.3917
  33   2.0000      -0.767974       -20.8976
  34   2.0000      -0.713459       -19.4142
  35   2.0000      -0.705278       -19.1916
  36   2.0000      -0.692394       -18.8410
  37   2.0000      -0.652757       -17.7624
  38   2.0000      -0.643211       -17.5027
  39   2.0000      -0.621646       -16.9158
  40   2.0000      -0.592198       -16.1145
  41   2.0000      -0.573687       -15.6108
  42   2.0000      -0.560903       -15.2629
  43   2.0000      -0.549095       -14.9416
  44   2.0000      -0.530790       -14.4435
  45   2.0000      -0.524666       -14.2769
  46   2.0000      -0.523938       -14.2571
  47   2.0000      -0.519953       -14.1486
  48   2.0000      -0.503864       -13.7108
  49   2.0000      -0.495919       -13.4946
  50   2.0000      -0.488777       -13.3003
  51   2.0000      -0.474844       -12.9212
  52   2.0000      -0.467034       -12.7086
  53   2.0000      -0.464125       -12.6295
  54   2.0000      -0.456002       -12.4084
  55   2.0000      -0.448832       -12.2134
  56   2.0000      -0.444932       -12.1072
  57   2.0000      -0.440597       -11.9893
  58   2.0000      -0.436777       -11.8853
  59   2.0000      -0.433168       -11.7871
  60   2.0000      -0.431048       -11.7294
  61   2.0000      -0.412107       -11.2140
  62   2.0000      -0.410693       -11.1755
  63   2.0000      -0.340100        -9.2546
  64   2.0000      -0.330636        -8.9971
  65   2.0000      -0.319121        -8.6837
  66   2.0000      -0.298894        -8.1333
  67   0.0000       0.044196         1.2026
  68   0.0000       0.060328         1.6416
  69   0.0000       0.118097         3.2136
  70   0.0000       0.121583         3.3084
  71   0.0000       0.125563         3.4167

MULLIKEN ATOMIC CHARGES
-----------------------
   0 S :    0.126350
   1 C :   -0.084825
   2 C :   -0.145532
   3 C :    0.040496
   4 C :   -0.170430
   5 H :    0.004460
   6 C :    0.133510
   7 H :   -0.000398
   8 H :    0.023758
   9 C :   -0.079290
  10 H :    0.022975
  11 H :    0.029833
  12 C :   -0.037307
  13 H :    0.040711
  14 H :    0.036662
  15 H :    0.013706
  16 S :    0.118158
  17 C :   -0.119771
  18 C :   -0.027142
  19 C :   -0.028371
  20 C :   -0.188650
  21 H :    0.001838
  22 C :    0.108468
  23 H :    0.046712
  24 H :    0.031834
  25 C :   -0.061895
  26 H :    0.019807
  27 H :    0.010530
  28 C :   -0.076932
  29 H :    0.041359
  30 H :    0.037150
  31 H :    0.042924
  32 H :    0.010959
  33 H :    0.078342
Sum of atomic charges:   -0.0000000

LOEWDIN ATOMIC CHARGES
----------------------
   0 S :    0.425558
   1 C :   -0.191626
   2 C :   -0.055563
   3 C :   -0.062293
   4 C :   -0.220780
   5 H :    0.027911
   6 C :   -0.025285
   7 H :    0.024188
   8 H :    0.026791
   9 C :   -0.039198
  10 H :    0.022942
  11 H :    0.025576
  12 C :   -0.069165
  13 H :    0.029698
  14 H :    0.030704
  15 H :    0.021047
  16 S :    0.423777
  17 C :   -0.197324
  18 C :   -0.077966
  19 C :   -0.049209
  20 C :   -0.216033
  21 H :    0.027149
  22 C :   -0.025639
  23 H :    0.041275
  24 H :    0.036847
  25 C :   -0.037800
  26 H :    0.023952
  27 H :    0.017927
  28 C :   -0.073108
  29 H :    0.026952
  30 H :    0.026942
  31 H :    0.032709
  32 H :    0.005576
  33 H :    0.043468

  Mayer bond orders larger than 0.100000
B(  0-S ,  1-C ) :   1.1513 B(  0-S ,  4-C ) :   1.1545 B(  1-C ,  2-C ) :   1.6080
B(  1-C , 32-H ) :   0.9719 B(  2-C ,  3-C ) :   1.2648 B(  2-C ,  6-C ) :   1.0161
B(  3-C ,  4-C ) :   1.5791 B(  3-C ,  5-H ) :   0.9961 B(  4-C , 20-C ) :   0.9858
B(  6-C ,  7-H ) :   0.9307 B(  6-C ,  8-H ) :   0.9338 B(  6-C ,  9-C ) :   1.0542
B(  9-C , 10-H ) :   0.9514 B(  9-C , 11-H ) :   0.9649 B(  9-C , 12-C ) :   1.0887
B( 12-C , 13-H ) :   0.9721 B( 12-C , 14-H ) :   0.9733 B( 12-C , 15-H ) :   0.9686
B( 16-S , 17-C ) :   1.1600 B( 16-S , 20-C ) :   1.1823 B( 17-C , 18-C ) :   1.6067
B( 17-C , 20-C ) :   0.1060 B( 17-C , 33-H ) :   0.9533 B( 18-C , 19-C ) :   1.2563
B( 18-C , 21-H ) :   0.9923 B( 19-C , 20-C ) :   1.5519 B( 19-C , 22-C ) :   1.0280
B( 22-C , 23-H ) :   0.9269 B( 22-C , 24-H ) :   0.9375 B( 22-C , 25-C ) :   1.0647
B( 25-C , 26-H ) :   0.9562 B( 25-C , 27-H ) :   0.9580 B( 25-C , 28-C ) :   1.0558
B( 28-C , 29-H ) :   0.9806 B( 28-C , 30-H ) :   0.9793 B( 28-C , 31-H ) :   0.9769

Dispersion correction           -0.014146604
FINAL SINGLE POINT ENERGY     -1339.865496672998

DIPOLE MOMENT
-------------
                                X             Y             Z
Electronic contribution:     -0.15608      20.63131     -14.86049
Nuclear contribution   :      0.28541     -21.02921      15.44166
                        -----------------------------------------
Total Dipole Moment    :      0.12933      -0.39791       0.58117
                        -----------------------------------------
Magnitude (a.u.)       :      0.71611
Magnitude (Debye)      :      1.82020

Rotational constants in cm-1:     0.020147     0.007636     0.006538
Rotational constants in MHz :   604.004693   228.910262   196.010718

                             ****ORCA TERMINATED NORMALLY****
TOTAL RUN TIME: 0 days 0 hours 0 minutes 21 seconds 416 msec
