                         Program Version 4.2.1 -  RELEASE  -
|  1> ! wB97X-D3 SP def2-SVP
|  2> %pal
|  3> nprocs 24
|  4> end
|  5>
|  6> * xyz 0 1
|  7> S 	 -67.5438 	 19.213 	 -105.746
|  8> C 	 -69.0025 	 18.9386 	 -106.793
|  9> C 	 -68.7454 	 17.8946 	 -107.678
| 10> C 	 -67.4257 	 17.2788 	 -107.5
| 11> C 	 -66.667 	 17.8554 	 -106.506
| 12> H 	 -67.0319 	 16.3774 	 -107.932
| 13> C 	 -69.59 	 17.5055 	 -108.836
| 14> H 	 -68.8898 	 17.2894 	 -109.602
| 15> H 	 -70.0871 	 18.3733 	 -109.27
| 16> C 	 -70.5818 	 16.4012 	 -108.657
| 17> H 	 -70.1141 	 15.4602 	 -108.213
| 18> H 	 -71.3214 	 16.7956 	 -107.943
| 19> C 	 -71.3265 	 15.8981 	 -109.918
| 20> H 	 -72.235 	 15.3803 	 -109.57
| 21> H 	 -71.5997 	 16.8285 	 -110.435
| 22> H 	 -70.706 	 15.2461 	 -110.582
| 23> S 	 -65.1909 	 16.1044 	 -105.185
| 24> C 	 -63.4473 	 16.0834 	 -105.306
| 25> C 	 -62.9994 	 17.2315 	 -105.907
| 26> C 	 -64.0758 	 18.0221 	 -106.393
| 27> C 	 -65.3267 	 17.5581 	 -106.056
| 28> H 	 -61.9908 	 17.4565 	 -105.946
| 29> C 	 -63.7504 	 19.2059 	 -107.29
| 30> H 	 -62.981 	 19.7948 	 -106.821
| 31> H 	 -64.5709 	 19.8323 	 -107.378
| 32> C 	 -63.2237 	 18.8964 	 -108.675
| 33> H 	 -62.3785 	 18.1949 	 -108.662
| 34> H 	 -62.8363 	 19.8728 	 -109.022
| 35> C 	 -64.2778 	 18.3943 	 -109.692
| 36> H 	 -63.7614 	 17.986 	 -110.594
| 37> H 	 -64.96 	 19.1355 	 -109.973
| 38> H 	 -64.8839 	 17.6414 	 -109.179
| 39> H 	 -69.8471 	 19.5707 	 -106.867
| 40> H 	 -62.8086 	 15.2576 	 -104.99
| 41> *
| 42>
| 43>                          ****END OF INPUT****

CARTESIAN COORDINATES (ANGSTROEM)
---------------------------------
  S    -67.543800   19.213000  -105.746000
  C    -69.002500   18.938600  -106.793000
  C    -68.745400   17.894600  -107.678000
  C    -67.425700   17.278800  -107.500000
  C    -66.667000   17.855400  -106.506000
  H    -67.031900   16.377400  -107.932000
  C    -69.590000   17.505500  -108.836000
  H    -68.889800   17.289400  -109.602000
  H    -70.087100   18.373300  -109.270000
  C    -70.581800   16.401200  -108.657000
  H    -70.114100   15.460200  -108.213000
  H    -71.321400   16.795600  -107.943000
  C    -71.326500   15.898100  -109.918000
  H    -72.235000   15.380300  -109.570000
  H    -71.599700   16.828500  -110.435000
  H    -70.706000   15.246100  -110.582000
  S    -65.190900   16.104400  -105.185000
  C    -63.447300   16.083400  -105.306000
  C    -62.999400   17.231500  -105.907000
  C    -64.075800   18.022100  -106.393000
  C    -65.326700   17.558100  -106.056000
  H    -61.990800   17.456500  -105.946000
  C    -63.750400   19.205900  -107.290000
  H    -62.981000   19.794800  -106.821000
  H    -64.570900   19.832300  -107.378000
  C    -63.223700   18.896400  -108.675000
  H    -62.378500   18.194900  -108.662000
  H    -62.836300   19.872800  -109.022000
  C    -64.277800   18.394300  -109.692000
  H    -63.761400   17.986000  -110.594000
  H    -64.960000   19.135500  -109.973000
  H    -64.883900   17.641400  -109.179000
  H    -69.847100   19.570700  -106.867000
  H    -62.808600   15.257600  -104.990000

 Total Charge           Charge          ....    0
 Multiplicity           Mult            ....    1
 Number of Electrons    NEL             ....  134
 Basis Dimension        Dim             ....  322

ORBITAL ENERGIES
----------------

  NO   OCC          E(Eh)            E(eV)
   0   2.0000     -88.963611     -2420.8229
   1   2.0000     -88.963381     -2420.8167
   2   2.0000     -10.333151      -281.1793
   3   2.0000     -10.320491      -280.8349
   4   2.0000     -10.319809      -280.8163
   5   2.0000     -10.318441      -280.7790
   6   2.0000     -10.307397      -280.4785
   7   2.0000     -10.301408      -280.3156
   8   2.0000     -10.299044      -280.2512
   9   2.0000     -10.289594      -279.9941
  10   2.0000     -10.288249      -279.9575
  11   2.0000     -10.285464      -279.8817
  12   2.0000     -10.284622      -279.8588
  13   2.0000     -10.284442      -279.8539
  14   2.0000     -10.279554      -279.7209
  15   2.0000     -10.270716      -279.4804
  16   2.0000      -8.079313      -219.8493
  17   2.0000      -8.076828      -219.7817
  18   2.0000      -6.037773      -164.2961
  19   2.0000      -6.035592      -164.2368
  20   2.0000      -6.033486      -164.1795
  21   2.0000      -6.031461      -164.1244
  22   2.0000      -6.030190      -164.0898
  23   2.0000      -6.027473      -164.0159
  24   2.0000      -1.011910       -27.5355
  25   2.0000      -0.978638       -26.6301
  26   2.0000      -0.916066       -24.9274
  27   2.0000      -0.910176       -24.7672
  28   2.0000      -0.874137       -23.7865
  29   2.0000      -0.847272       -23.0555
  30   2.0000      -0.841473       -22.8976
  31   2.0000      -0.819073       -22.2881
  32   2.0000      -0.784793       -21.3553
  33   2.0000      -0.774236       -21.0680
  34   2.0000      -0.707457       -19.2509
  35   2.0000      -0.695923       -18.9370
  36   2.0000      -0.692259       -18.8373
  37   2.0000      -0.667282       -18.1577
  38   2.0000      -0.646770       -17.5995
  39   2.0000      -0.618385       -16.8271
  40   2.0000      -0.602051       -16.3826
  41   2.0000      -0.571440       -15.5497
  42   2.0000      -0.563860       -15.3434
  43   2.0000      -0.549668       -14.9572
  44   2.0000      -0.541189       -14.7265
  45   2.0000      -0.527010       -14.3407
  46   2.0000      -0.524794       -14.2804
  47   2.0000      -0.516916       -14.0660
  48   2.0000      -0.509256       -13.8575
  49   2.0000      -0.500272       -13.6131
  50   2.0000      -0.498147       -13.5553
  51   2.0000      -0.478173       -13.0118
  52   2.0000      -0.469799       -12.7839
  53   2.0000      -0.465341       -12.6626
  54   2.0000      -0.459898       -12.5145
  55   2.0000      -0.444820       -12.1042
  56   2.0000      -0.439513       -11.9598
  57   2.0000      -0.435910       -11.8617
  58   2.0000      -0.432257       -11.7623
  59   2.0000      -0.425181       -11.5698
  60   2.0000      -0.414351       -11.2751
  61   2.0000      -0.412601       -11.2275
  62   2.0000      -0.408110       -11.1052
  63   2.0000      -0.337488        -9.1835
  64   2.0000      -0.330330        -8.9887
  65   2.0000      -0.324280        -8.8241
  66   2.0000      -0.310133        -8.4391
  67   0.0000       0.039078         1.0634
  68   0.0000       0.060121         1.6360
  69   0.0000       0.106014         2.8848
  70   0.0000       0.117313         3.1922
  71   0.0000       0.123417         3.3584

MULLIKEN ATOMIC CHARGES
-----------------------
   0 S :    0.088349
   1 C :   -0.093686
   2 C :   -0.093800
   3 C :    0.069590
   4 C :   -0.180541
   5 H :    0.017057
   6 C :    0.083237
   7 H :    0.007599
   8 H :    0.013543
   9 C :   -0.099058
  10 H :    0.036576
  11 H :    0.028643
  12 C :   -0.053399
  13 H :    0.046421
  14 H :    0.025855
  15 H :    0.047990
  16 S :    0.113416
  17 C :   -0.101166
  18 C :   -0.006601
  19 C :   -0.026489
  20 C :   -0.167360
  21 H :   -0.004656
  22 C :    0.119533
  23 H :    0.016625
  24 H :   -0.003924
  25 C :   -0.087940
  26 H :    0.025756
  27 H :    0.025446
  28 C :   -0.029378
  29 H :    0.040811
  30 H :    0.019262
  31 H :    0.022379
  32 H :    0.036142
  33 H :    0.063766
Sum of atomic charges:   -0.0000000

LOEWDIN ATOMIC CHARGES
----------------------
   0 S :    0.361244
   1 C :   -0.170231
   2 C :   -0.053145
   3 C :   -0.055351
   4 C :   -0.182594
   5 H :    0.031305
   6 C :   -0.042866
   7 H :    0.027080
   8 H :    0.030430
   9 C :   -0.047093
  10 H :    0.029047
  11 H :    0.025339
  12 C :   -0.067803
  13 H :    0.032216
  14 H :    0.023089
  15 H :    0.029286
  16 S :    0.434986
  17 C :   -0.179924
  18 C :   -0.063003
  19 C :   -0.049628
  20 C :   -0.231173
  21 H :    0.021641
  22 C :   -0.026311
  23 H :    0.032810
  24 H :    0.018292
  25 C :   -0.037393
  26 H :    0.020720
  27 H :    0.025203
  28 C :   -0.063542
  29 H :    0.031606
  30 H :    0.016244
  31 H :    0.024377
  32 H :    0.022253
  33 H :    0.032890

  Mayer bond orders larger than 0.100000
B(  0-S ,  1-C ) :   1.1100 B(  0-S ,  4-C ) :   1.1287 B(  1-C ,  2-C ) :   1.6485
B(  1-C , 32-H ) :   0.9745 B(  2-C ,  3-C ) :   1.1863 B(  2-C ,  6-C ) :   1.0276
B(  3-C ,  4-C ) :   1.6437 B(  3-C ,  5-H ) :   0.9860 B(  4-C , 20-C ) :   0.9875
B(  6-C ,  7-H ) :   0.9335 B(  6-C ,  8-H ) :   0.9307 B(  6-C ,  9-C ) :   1.0682
B(  9-C , 10-H ) :   0.9564 B(  9-C , 11-H ) :   0.9537 B(  9-C , 12-C ) :   1.0748
B( 12-C , 13-H ) :   0.9748 B( 12-C , 14-H ) :   0.9738 B( 12-C , 15-H ) :   0.9763
B( 16-S , 17-C ) :   1.1720 B( 16-S , 20-C ) :   1.1533 B( 17-C , 18-C ) :   1.5854
B( 17-C , 33-H ) :   0.9672 B( 18-C , 19-C ) :   1.2439 B( 18-C , 21-H ) :   1.0069
B( 19-C , 20-C ) :   1.5955 B( 19-C , 22-C ) :   1.0537 B( 22-C , 23-H ) :   0.9261
B( 22-C , 24-H ) :   0.9269 B( 22-C , 25-C ) :   1.0807 B( 25-C , 26-H ) :   0.9578
B( 25-C , 27-H ) :   0.9537 B( 25-C , 28-C ) :   1.0724 B( 28-C , 29-H ) :   0.9741
B( 28-C , 30-H ) :   0.9739 B( 28-C , 31-H ) :   0.9767

Dispersion correction           -0.014793767
FINAL SINGLE POINT ENERGY     -1339.878501813144

DIPOLE MOMENT
-------------
                                X             Y             Z
Electronic contribution:      6.38740       1.07657      23.78490
Nuclear contribution   :     -6.25697      -1.13993     -24.36724
                        -----------------------------------------
Total Dipole Moment    :      0.13043      -0.06336      -0.58234
                        -----------------------------------------
Magnitude (a.u.)       :      0.60012
Magnitude (Debye)      :      1.52539

Rotational constants in cm-1:     0.020183     0.007733     0.007218
Rotational constants in MHz :   605.083626   231.839593   216.383964

                             ****ORCA TERMINATED NORMALLY****
TOTAL RUN TIME: 0 days 0 hours 0 minutes 21 seconds 730 msec
