                         Program Version 4.2.1 -  RELEASE  -
|  1> ! wB97X-D3 SP def2-SVP
|  2> %pal
|  3> nprocs 24
|  4> end
|  5>
|  6> * xyz 0 1
|  7> S 	 -47.3752 	 1.66912 	 -16.7783
|  8> C 	 -47.3075 	 0.761217 	 -18.3021
|  9> C 	 -48.2614 	 1.30894 	 -19.1975
| 10> C 	 -48.941 	 2.48876 	 -18.7137
| 11> C 	 -48.5447 	 2.79732 	 -17.4266
| 12> H 	 -49.6973 	 3.03295 	 -19.1369
| 13> C 	 -48.6165 	 0.778943 	 -20.5877
| 14> H 	 -47.9248 	 -0.040113 	 -20.9014
| 15> H 	 -48.3413 	 1.64519 	 -21.1931
| 16> C 	 -50.0972 	 0.454457 	 -20.7927
| 17> H 	 -50.4076 	 -0.208079 	 -20.0415
| 18> H 	 -50.6703 	 1.3727 	 -20.7111
| 19> C 	 -50.5275 	 -0.18797 	 -22.1143
| 20> H 	 -50.41 	 0.575775 	 -22.8833
| 21> H 	 -50.0647 	 -1.10018 	 -22.4461
| 22> H 	 -51.5314 	 -0.385005 	 -22.0914
| 23> S 	 -49.5762 	 5.24241 	 -17.6201
| 24> C 	 -49.9769 	 6.20321 	 -16.2753
| 25> C 	 -49.9914 	 5.45946 	 -15.1062
| 26> C 	 -49.513 	 4.10358 	 -15.3001
| 27> C 	 -49.2197 	 3.81005 	 -16.6637
| 28> H 	 -50.3396 	 5.94616 	 -14.2342
| 29> C 	 -49.5141 	 3.10387 	 -14.1682
| 30> H 	 -49.6756 	 2.18318 	 -14.7017
| 31> H 	 -50.4102 	 3.31051 	 -13.4963
| 32> C 	 -48.245 	 2.99629 	 -13.3714
| 33> H 	 -47.3711 	 3.08152 	 -14.0106
| 34> H 	 -48.1245 	 1.94467 	 -12.9431
| 35> C 	 -48.0248 	 4.05959 	 -12.3227
| 36> H 	 -48.7918 	 3.96537 	 -11.5708
| 37> H 	 -48.2143 	 5.04629 	 -12.6844
| 38> H 	 -47.0335 	 4.06504 	 -11.8705
| 39> H 	 -46.6118 	 -0.029754 	 -18.4883
| 40> H 	 -50.2542 	 7.2507 	 -16.3692
| 41> *
| 42>
| 43>                          ****END OF INPUT****

CARTESIAN COORDINATES (ANGSTROEM)
---------------------------------
  S    -47.375200    1.669120  -16.778300
  C    -47.307500    0.761217  -18.302100
  C    -48.261400    1.308940  -19.197500
  C    -48.941000    2.488760  -18.713700
  C    -48.544700    2.797320  -17.426600
  H    -49.697300    3.032950  -19.136900
  C    -48.616500    0.778943  -20.587700
  H    -47.924800   -0.040113  -20.901400
  H    -48.341300    1.645190  -21.193100
  C    -50.097200    0.454457  -20.792700
  H    -50.407600   -0.208079  -20.041500
  H    -50.670300    1.372700  -20.711100
  C    -50.527500   -0.187970  -22.114300
  H    -50.410000    0.575775  -22.883300
  H    -50.064700   -1.100180  -22.446100
  H    -51.531400   -0.385005  -22.091400
  S    -49.576200    5.242410  -17.620100
  C    -49.976900    6.203210  -16.275300
  C    -49.991400    5.459460  -15.106200
  C    -49.513000    4.103580  -15.300100
  C    -49.219700    3.810050  -16.663700
  H    -50.339600    5.946160  -14.234200
  C    -49.514100    3.103870  -14.168200
  H    -49.675600    2.183180  -14.701700
  H    -50.410200    3.310510  -13.496300
  C    -48.245000    2.996290  -13.371400
  H    -47.371100    3.081520  -14.010600
  H    -48.124500    1.944670  -12.943100
  C    -48.024800    4.059590  -12.322700
  H    -48.791800    3.965370  -11.570800
  H    -48.214300    5.046290  -12.684400
  H    -47.033500    4.065040  -11.870500
  H    -46.611800   -0.029754  -18.488300
  H    -50.254200    7.250700  -16.369200

 Total Charge           Charge          ....    0
 Multiplicity           Mult            ....    1
 Number of Electrons    NEL             ....  134
 Basis Dimension        Dim             ....  322

ORBITAL ENERGIES
----------------

  NO   OCC          E(Eh)            E(eV)
   0   2.0000     -88.970142     -2421.0006
   1   2.0000     -88.964032     -2420.8344
   2   2.0000     -10.332593      -281.1642
   3   2.0000     -10.329813      -281.0885
   4   2.0000     -10.318694      -280.7859
   5   2.0000     -10.315436      -280.6973
   6   2.0000     -10.310732      -280.5693
   7   2.0000     -10.310702      -280.5685
   8   2.0000     -10.293842      -280.1097
   9   2.0000     -10.293723      -280.1064
  10   2.0000     -10.291251      -280.0392
  11   2.0000     -10.288945      -279.9764
  12   2.0000     -10.282938      -279.8130
  13   2.0000     -10.282283      -279.7952
  14   2.0000     -10.269263      -279.4408
  15   2.0000     -10.268414      -279.4177
  16   2.0000      -8.083869      -219.9733
  17   2.0000      -8.079629      -219.8579
  18   2.0000      -6.042509      -164.4250
  19   2.0000      -6.038472      -164.3152
  20   2.0000      -6.038102      -164.3051
  21   2.0000      -6.034608      -164.2100
  22   2.0000      -6.033889      -164.1905
  23   2.0000      -6.030510      -164.0985
  24   2.0000      -1.008132       -27.4327
  25   2.0000      -0.981295       -26.7024
  26   2.0000      -0.913242       -24.8506
  27   2.0000      -0.910978       -24.7890
  28   2.0000      -0.875400       -23.8209
  29   2.0000      -0.854720       -23.2581
  30   2.0000      -0.846771       -23.0418
  31   2.0000      -0.813683       -22.1414
  32   2.0000      -0.786332       -21.3972
  33   2.0000      -0.772818       -21.0294
  34   2.0000      -0.711123       -19.3506
  35   2.0000      -0.700780       -19.0692
  36   2.0000      -0.688586       -18.7374
  37   2.0000      -0.670448       -18.2438
  38   2.0000      -0.642276       -17.4772
  39   2.0000      -0.615752       -16.7555
  40   2.0000      -0.593644       -16.1539
  41   2.0000      -0.571519       -15.5518
  42   2.0000      -0.566830       -15.4242
  43   2.0000      -0.554179       -15.0800
  44   2.0000      -0.540582       -14.7100
  45   2.0000      -0.527108       -14.3433
  46   2.0000      -0.522599       -14.2206
  47   2.0000      -0.520548       -14.1648
  48   2.0000      -0.508350       -13.8329
  49   2.0000      -0.495016       -13.4701
  50   2.0000      -0.493870       -13.4389
  51   2.0000      -0.479653       -13.0520
  52   2.0000      -0.476590       -12.9687
  53   2.0000      -0.474463       -12.9108
  54   2.0000      -0.456790       -12.4299
  55   2.0000      -0.449874       -12.2417
  56   2.0000      -0.445988       -12.1359
  57   2.0000      -0.436351       -11.8737
  58   2.0000      -0.430158       -11.7052
  59   2.0000      -0.423778       -11.5316
  60   2.0000      -0.421392       -11.4667
  61   2.0000      -0.413724       -11.2580
  62   2.0000      -0.402449       -10.9512
  63   2.0000      -0.360593        -9.8122
  64   2.0000      -0.329168        -8.9571
  65   2.0000      -0.328670        -8.9436
  66   2.0000      -0.280853        -7.6424
  67   0.0000       0.020636         0.5615
  68   0.0000       0.077491         2.1086
  69   0.0000       0.099643         2.7114
  70   0.0000       0.119085         3.2405
  71   0.0000       0.135327         3.6824

MULLIKEN ATOMIC CHARGES
-----------------------
   0 S :    0.100749
   1 C :   -0.123042
   2 C :   -0.067630
   3 C :   -0.000606
   4 C :   -0.066495
   5 H :   -0.007222
   6 C :    0.069527
   7 H :    0.022306
   8 H :    0.033112
   9 C :   -0.076320
  10 H :    0.023898
  11 H :    0.028591
  12 C :   -0.003715
  13 H :    0.018544
  14 H :    0.027970
  15 H :    0.011262
  16 S :    0.085902
  17 C :   -0.092147
  18 C :   -0.024797
  19 C :   -0.073015
  20 C :   -0.155980
  21 H :    0.007702
  22 C :    0.052953
  23 H :    0.024424
  24 H :    0.040100
  25 C :   -0.062378
  26 H :    0.019364
  27 H :    0.036282
  28 C :   -0.023243
  29 H :    0.010383
  30 H :    0.012210
  31 H :    0.039916
  32 H :    0.047125
  33 H :    0.064271
Sum of atomic charges:    0.0000000

LOEWDIN ATOMIC CHARGES
----------------------
   0 S :    0.403172
   1 C :   -0.201381
   2 C :   -0.044883
   3 C :   -0.065644
   4 C :   -0.185409
   5 H :    0.010262
   6 C :   -0.035787
   7 H :    0.030373
   8 H :    0.034120
   9 C :   -0.035154
  10 H :    0.018709
  11 H :    0.026801
  12 C :   -0.055483
  13 H :    0.025206
  14 H :    0.022960
  15 H :    0.017124
  16 S :    0.432730
  17 C :   -0.198941
  18 C :   -0.073320
  19 C :   -0.053760
  20 C :   -0.192843
  21 H :    0.025583
  22 C :   -0.037633
  23 H :    0.030209
  24 H :    0.039490
  25 C :   -0.049249
  26 H :    0.018934
  27 H :    0.031593
  28 C :   -0.064335
  29 H :    0.019048
  30 H :    0.020025
  31 H :    0.029622
  32 H :    0.025911
  33 H :    0.031950

  Mayer bond orders larger than 0.100000
B(  0-S ,  1-C ) :   1.1125 B(  0-S ,  4-C ) :   1.1486 B(  1-C ,  2-C ) :   1.5969
B(  1-C , 32-H ) :   0.9773 B(  2-C ,  3-C ) :   1.2284 B(  2-C ,  6-C ) :   1.0242
B(  3-C ,  4-C ) :   1.5269 B(  3-C ,  5-H ) :   1.0053 B(  4-C , 20-C ) :   1.0668
B(  6-C ,  7-H ) :   0.9466 B(  6-C ,  8-H ) :   0.9357 B(  6-C ,  9-C ) :   1.0606
B(  9-C , 10-H ) :   0.9606 B(  9-C , 11-H ) :   0.9488 B(  9-C , 12-C ) :   1.0981
B( 12-C , 13-H ) :   0.9735 B( 12-C , 14-H ) :   0.9746 B( 12-C , 15-H ) :   0.9702
B( 16-S , 17-C ) :   1.1813 B( 16-S , 20-C ) :   1.1446 B( 17-C , 18-C ) :   1.5812
B( 17-C , 33-H ) :   0.9653 B( 18-C , 19-C ) :   1.2396 B( 18-C , 21-H ) :   1.0002
B( 19-C , 20-C ) :   1.5558 B( 19-C , 22-C ) :   1.0326 B( 22-C , 23-H ) :   0.9301
B( 22-C , 24-H ) :   0.9450 B( 22-C , 25-C ) :   1.0687 B( 25-C , 26-H ) :   0.9489
B( 25-C , 27-H ) :   0.9539 B( 25-C , 28-C ) :   1.0796 B( 28-C , 29-H ) :   0.9727
B( 28-C , 30-H ) :   0.9709 B( 28-C , 31-H ) :   0.9729

Dispersion correction           -0.014136399
FINAL SINGLE POINT ENERGY     -1339.872181194580

DIPOLE MOMENT
-------------
                                X             Y             Z
Electronic contribution:      4.75259       9.53307       0.43937
Nuclear contribution   :     -5.03154      -9.61657      -0.52440
                        -----------------------------------------
Total Dipole Moment    :     -0.27895      -0.08350      -0.08502
                        -----------------------------------------
Magnitude (a.u.)       :      0.30333
Magnitude (Debye)      :      0.77101

Rotational constants in cm-1:     0.023364     0.007586     0.006256
Rotational constants in MHz :   700.427021   227.419920   187.543475

                             ****ORCA TERMINATED NORMALLY****
TOTAL RUN TIME: 0 days 0 hours 0 minutes 20 seconds 87 msec
