                         Program Version 4.2.1 -  RELEASE  -
|  1> ! wB97X-D3 SP def2-SVP
|  2> %pal
|  3> nprocs 24
|  4> end
|  5>
|  6> * xyz 0 1
|  7> S 	 -78.0036 	 -16.3861 	 -55.9974
|  8> C 	 -78.0206 	 -15.4677 	 -54.4478
|  9> C 	 -79.1387 	 -15.7527 	 -53.7551
| 10> C 	 -79.8724 	 -16.8 	 -54.3287
| 11> C 	 -79.5256 	 -17.2156 	 -55.547
| 12> H 	 -80.8383 	 -17.1611 	 -53.9848
| 13> C 	 -79.48 	 -15.0946 	 -52.4524
| 14> H 	 -78.5968 	 -15.3328 	 -51.8051
| 15> H 	 -80.3651 	 -15.7002 	 -52.0516
| 16> C 	 -79.5759 	 -13.6067 	 -52.5558
| 17> H 	 -78.6837 	 -13.2506 	 -52.9797
| 18> H 	 -80.445 	 -13.2611 	 -53.0909
| 19> C 	 -79.6587 	 -13.0551 	 -51.0885
| 20> H 	 -80.5875 	 -13.3908 	 -50.5974
| 21> H 	 -78.8897 	 -13.3891 	 -50.5164
| 22> H 	 -79.7154 	 -11.9905 	 -51.1172
| 23> S 	 -80.9094 	 -17.5376 	 -57.8577
| 24> C 	 -81.7901 	 -19.0353 	 -58.1504
| 25> C 	 -81.4889 	 -19.9649 	 -57.1671
| 26> C 	 -80.5269 	 -19.4412 	 -56.223
| 27> C 	 -80.2253 	 -18.0993 	 -56.4269
| 28> H 	 -81.9008 	 -20.992 	 -57.0835
| 29> C 	 -80.0565 	 -20.2348 	 -55.0053
| 30> H 	 -80.8676 	 -20.849 	 -54.6718
| 31> H 	 -79.8378 	 -19.6894 	 -54.1115
| 32> C 	 -78.8884 	 -21.1925 	 -55.3742
| 33> H 	 -79.0571 	 -21.7559 	 -56.3384
| 34> H 	 -78.8979 	 -22.0086 	 -54.6489
| 35> C 	 -77.437 	 -20.5735 	 -55.438
| 36> H 	 -77.2769 	 -19.9925 	 -56.3546
| 37> H 	 -76.7633 	 -21.444 	 -55.5324
| 38> H 	 -77.1819 	 -19.9109 	 -54.6055
| 39> H 	 -77.2052 	 -14.7286 	 -54.0965
| 40> H 	 -82.5255 	 -19.1566 	 -58.9168
| 41> *
| 42>
| 43>                          ****END OF INPUT****

CARTESIAN COORDINATES (ANGSTROEM)
---------------------------------
  S    -78.003600  -16.386100  -55.997400
  C    -78.020600  -15.467700  -54.447800
  C    -79.138700  -15.752700  -53.755100
  C    -79.872400  -16.800000  -54.328700
  C    -79.525600  -17.215600  -55.547000
  H    -80.838300  -17.161100  -53.984800
  C    -79.480000  -15.094600  -52.452400
  H    -78.596800  -15.332800  -51.805100
  H    -80.365100  -15.700200  -52.051600
  C    -79.575900  -13.606700  -52.555800
  H    -78.683700  -13.250600  -52.979700
  H    -80.445000  -13.261100  -53.090900
  C    -79.658700  -13.055100  -51.088500
  H    -80.587500  -13.390800  -50.597400
  H    -78.889700  -13.389100  -50.516400
  H    -79.715400  -11.990500  -51.117200
  S    -80.909400  -17.537600  -57.857700
  C    -81.790100  -19.035300  -58.150400
  C    -81.488900  -19.964900  -57.167100
  C    -80.526900  -19.441200  -56.223000
  C    -80.225300  -18.099300  -56.426900
  H    -81.900800  -20.992000  -57.083500
  C    -80.056500  -20.234800  -55.005300
  H    -80.867600  -20.849000  -54.671800
  H    -79.837800  -19.689400  -54.111500
  C    -78.888400  -21.192500  -55.374200
  H    -79.057100  -21.755900  -56.338400
  H    -78.897900  -22.008600  -54.648900
  C    -77.437000  -20.573500  -55.438000
  H    -77.276900  -19.992500  -56.354600
  H    -76.763300  -21.444000  -55.532400
  H    -77.181900  -19.910900  -54.605500
  H    -77.205200  -14.728600  -54.096500
  H    -82.525500  -19.156600  -58.916800

 Total Charge           Charge          ....    0
 Multiplicity           Mult            ....    1
 Number of Electrons    NEL             ....  134
 Basis Dimension        Dim             ....  322

ORBITAL ENERGIES
----------------

  NO   OCC          E(Eh)            E(eV)
   0   2.0000     -88.965354     -2420.8704
   1   2.0000     -88.960804     -2420.7465
   2   2.0000     -10.324716      -280.9498
   3   2.0000     -10.319721      -280.8139
   4   2.0000     -10.319306      -280.8026
   5   2.0000     -10.318185      -280.7721
   6   2.0000     -10.302830      -280.3543
   7   2.0000     -10.301209      -280.3101
   8   2.0000     -10.296001      -280.1684
   9   2.0000     -10.291376      -280.0426
  10   2.0000     -10.289137      -279.9816
  11   2.0000     -10.286360      -279.9061
  12   2.0000     -10.285871      -279.8928
  13   2.0000     -10.283700      -279.8337
  14   2.0000     -10.274610      -279.5864
  15   2.0000     -10.270079      -279.4631
  16   2.0000      -8.081208      -219.9009
  17   2.0000      -8.074415      -219.7160
  18   2.0000      -6.039669      -164.3477
  19   2.0000      -6.035395      -164.2314
  20   2.0000      -6.033097      -164.1689
  21   2.0000      -6.032097      -164.1417
  22   2.0000      -6.029126      -164.0609
  23   2.0000      -6.024996      -163.9485
  24   2.0000      -1.012451       -27.5502
  25   2.0000      -0.987802       -26.8795
  26   2.0000      -0.919553       -25.0223
  27   2.0000      -0.898950       -24.4617
  28   2.0000      -0.874438       -23.7947
  29   2.0000      -0.844867       -22.9900
  30   2.0000      -0.840724       -22.8773
  31   2.0000      -0.817705       -22.2509
  32   2.0000      -0.781379       -21.2624
  33   2.0000      -0.769500       -20.9391
  34   2.0000      -0.711340       -19.3566
  35   2.0000      -0.703352       -19.1392
  36   2.0000      -0.691274       -18.8105
  37   2.0000      -0.661191       -17.9919
  38   2.0000      -0.638234       -17.3672
  39   2.0000      -0.618695       -16.8355
  40   2.0000      -0.600122       -16.3302
  41   2.0000      -0.574451       -15.6316
  42   2.0000      -0.564199       -15.3526
  43   2.0000      -0.543108       -14.7787
  44   2.0000      -0.533228       -14.5099
  45   2.0000      -0.525704       -14.3051
  46   2.0000      -0.515420       -14.0253
  47   2.0000      -0.514745       -14.0069
  48   2.0000      -0.504572       -13.7301
  49   2.0000      -0.501330       -13.6419
  50   2.0000      -0.488728       -13.2990
  51   2.0000      -0.477858       -13.0032
  52   2.0000      -0.470948       -12.8152
  53   2.0000      -0.466149       -12.6846
  54   2.0000      -0.457464       -12.4482
  55   2.0000      -0.446837       -12.1591
  56   2.0000      -0.441992       -12.0272
  57   2.0000      -0.439138       -11.9496
  58   2.0000      -0.432969       -11.7817
  59   2.0000      -0.427048       -11.6206
  60   2.0000      -0.419230       -11.4078
  61   2.0000      -0.409854       -11.1527
  62   2.0000      -0.407046       -11.0763
  63   2.0000      -0.345805        -9.4098
  64   2.0000      -0.329836        -8.9753
  65   2.0000      -0.326885        -8.8950
  66   2.0000      -0.298946        -8.1347
  67   0.0000       0.039123         1.0646
  68   0.0000       0.061346         1.6693
  69   0.0000       0.113445         3.0870
  70   0.0000       0.121448         3.3048
  71   0.0000       0.129219         3.5162

MULLIKEN ATOMIC CHARGES
-----------------------
   0 S :    0.085997
   1 C :   -0.175037
   2 C :   -0.061178
   3 C :    0.048234
   4 C :   -0.160414
   5 H :    0.005203
   6 C :    0.024155
   7 H :    0.039559
   8 H :    0.034314
   9 C :   -0.040810
  10 H :    0.015724
  11 H :    0.036849
  12 C :   -0.009470
  13 H :    0.024087
  14 H :    0.006960
  15 H :    0.026654
  16 S :    0.121261
  17 C :   -0.091051
  18 C :   -0.030134
  19 C :   -0.044392
  20 C :   -0.161654
  21 H :    0.035918
  22 C :    0.106953
  23 H :    0.007020
  24 H :    0.018077
  25 C :   -0.109251
  26 H :    0.031111
  27 H :    0.020736
  28 C :   -0.051670
  29 H :    0.035290
  30 H :    0.034719
  31 H :    0.041285
  32 H :    0.080514
  33 H :    0.054443
Sum of atomic charges:   -0.0000000

LOEWDIN ATOMIC CHARGES
----------------------
   0 S :    0.357039
   1 C :   -0.190157
   2 C :   -0.077598
   3 C :   -0.065432
   4 C :   -0.173692
   5 H :    0.031827
   6 C :   -0.036766
   7 H :    0.039075
   8 H :    0.036507
   9 C :   -0.024715
  10 H :    0.017155
  11 H :    0.027307
  12 C :   -0.051332
  13 H :    0.027844
  14 H :    0.007683
  15 H :    0.021333
  16 S :    0.435784
  17 C :   -0.180749
  18 C :   -0.069046
  19 C :   -0.052028
  20 C :   -0.230088
  21 H :    0.039330
  22 C :   -0.031430
  23 H :    0.027376
  24 H :    0.027288
  25 C :   -0.042513
  26 H :    0.028598
  27 H :    0.018278
  28 C :   -0.069687
  29 H :    0.025144
  30 H :    0.029021
  31 H :    0.025429
  32 H :    0.047047
  33 H :    0.026167

  Mayer bond orders larger than 0.100000
B(  0-S ,  1-C ) :   1.1156 B(  0-S ,  4-C ) :   1.1139 B(  1-C ,  2-C ) :   1.6409
B(  1-C , 32-H ) :   0.9548 B(  2-C ,  3-C ) :   1.2307 B(  2-C ,  6-C ) :   0.9951
B(  3-C ,  4-C ) :   1.6428 B(  3-C ,  5-H ) :   0.9850 B(  4-C , 20-C ) :   1.0287
B(  6-C ,  7-H ) :   0.9400 B(  6-C ,  8-H ) :   0.9451 B(  6-C ,  9-C ) :   1.0705
B(  9-C , 10-H ) :   0.9517 B(  9-C , 11-H ) :   0.9566 B(  9-C , 12-C ) :   1.0853
B( 12-C , 13-H ) :   0.9735 B( 12-C , 14-H ) :   0.9761 B( 12-C , 15-H ) :   0.9748
B( 16-S , 17-C ) :   1.1608 B( 16-S , 20-C ) :   1.1575 B( 17-C , 18-C ) :   1.5833
B( 17-C , 33-H ) :   0.9747 B( 18-C , 19-C ) :   1.2643 B( 18-C , 21-H ) :   0.9811
B( 19-C , 20-C ) :   1.5707 B( 19-C , 22-C ) :   1.0448 B( 22-C , 23-H ) :   0.9311
B( 22-C , 24-H ) :   0.9377 B( 22-C , 25-C ) :   1.0668 B( 25-C , 26-H ) :   0.9582
B( 25-C , 27-H ) :   0.9585 B( 25-C , 28-C ) :   1.0677 B( 28-C , 29-H ) :   0.9770
B( 28-C , 30-H ) :   0.9745 B( 28-C , 31-H ) :   0.9775

Dispersion correction           -0.014638767
FINAL SINGLE POINT ENERGY     -1339.872085704617

DIPOLE MOMENT
-------------
                                X             Y             Z
Electronic contribution:     -3.47819       0.92984     -21.40852
Nuclear contribution   :      3.16506      -1.05196      22.00120
                        -----------------------------------------
Total Dipole Moment    :     -0.31313      -0.12212       0.59269
                        -----------------------------------------
Magnitude (a.u.)       :      0.68135
Magnitude (Debye)      :      1.73187

Rotational constants in cm-1:     0.021923     0.007612     0.006908
Rotational constants in MHz :   657.248986   228.190021   207.084110

                             ****ORCA TERMINATED NORMALLY****
TOTAL RUN TIME: 0 days 0 hours 0 minutes 20 seconds 704 msec
