                         Program Version 4.2.1 -  RELEASE  -
|  1> ! wB97X-D3 SP def2-SVP
|  2> %pal
|  3> nprocs 24
|  4> end
|  5>
|  6> * xyz 0 1
|  7> S 	 -45.7357 	 13.2752 	 27.6237
|  8> C 	 -47.2979 	 13.3441 	 26.9174
|  9> C 	 -48.2554 	 13.921 	 27.7402
| 10> C 	 -47.7022 	 14.2095 	 29.0201
| 11> C 	 -46.3176 	 13.9883 	 29.1702
| 12> H 	 -48.2797 	 14.5996 	 29.9008
| 13> C 	 -49.7072 	 14.3172 	 27.2686
| 14> H 	 -49.6527 	 14.828 	 26.2814
| 15> H 	 -50.1299 	 15.0588 	 27.9402
| 16> C 	 -50.7023 	 13.1665 	 26.971
| 17> H 	 -51.52 	 13.6779 	 26.5148
| 18> H 	 -50.3136 	 12.4818 	 26.1575
| 19> C 	 -51.2361 	 12.314 	 28.1095
| 20> H 	 -50.4804 	 11.8118 	 28.6338
| 21> H 	 -51.8715 	 12.9796 	 28.7712
| 22> H 	 -51.9611 	 11.4994 	 27.8181
| 23> S 	 -45.0178 	 12.8479 	 31.3219
| 24> C 	 -44.5692 	 13.914 	 32.6781
| 25> C 	 -44.8591 	 15.1962 	 32.4572
| 26> C 	 -45.6486 	 15.3415 	 31.2499
| 27> C 	 -45.5573 	 14.2223 	 30.4565
| 28> H 	 -44.7264 	 15.9736 	 33.1997
| 29> C 	 -46.2857 	 16.6976 	 30.8976
| 30> H 	 -46.8712 	 17.0175 	 31.7695
| 31> H 	 -47.1565 	 16.5301 	 30.1872
| 32> C 	 -45.4422 	 17.7906 	 30.4195
| 33> H 	 -44.8016 	 18.2875 	 31.1526
| 34> H 	 -46.1601 	 18.6271 	 30.233
| 35> C 	 -44.7847 	 17.4302 	 29.0884
| 36> H 	 -44.1125 	 16.5259 	 29.1413
| 37> H 	 -44.4027 	 18.3246 	 28.5851
| 38> H 	 -45.5283 	 17.0609 	 28.3754
| 39> H 	 -47.474 	 13.1157 	 25.8623
| 40> H 	 -44.0556 	 13.5813 	 33.5847
| 41> *
| 42>
| 43>                          ****END OF INPUT****

CARTESIAN COORDINATES (ANGSTROEM)
---------------------------------
  S    -45.735700   13.275200   27.623700
  C    -47.297900   13.344100   26.917400
  C    -48.255400   13.921000   27.740200
  C    -47.702200   14.209500   29.020100
  C    -46.317600   13.988300   29.170200
  H    -48.279700   14.599600   29.900800
  C    -49.707200   14.317200   27.268600
  H    -49.652700   14.828000   26.281400
  H    -50.129900   15.058800   27.940200
  C    -50.702300   13.166500   26.971000
  H    -51.520000   13.677900   26.514800
  H    -50.313600   12.481800   26.157500
  C    -51.236100   12.314000   28.109500
  H    -50.480400   11.811800   28.633800
  H    -51.871500   12.979600   28.771200
  H    -51.961100   11.499400   27.818100
  S    -45.017800   12.847900   31.321900
  C    -44.569200   13.914000   32.678100
  C    -44.859100   15.196200   32.457200
  C    -45.648600   15.341500   31.249900
  C    -45.557300   14.222300   30.456500
  H    -44.726400   15.973600   33.199700
  C    -46.285700   16.697600   30.897600
  H    -46.871200   17.017500   31.769500
  H    -47.156500   16.530100   30.187200
  C    -45.442200   17.790600   30.419500
  H    -44.801600   18.287500   31.152600
  H    -46.160100   18.627100   30.233000
  C    -44.784700   17.430200   29.088400
  H    -44.112500   16.525900   29.141300
  H    -44.402700   18.324600   28.585100
  H    -45.528300   17.060900   28.375400
  H    -47.474000   13.115700   25.862300
  H    -44.055600   13.581300   33.584700

 Total Charge           Charge          ....    0
 Multiplicity           Mult            ....    1
 Number of Electrons    NEL             ....  134
 Basis Dimension        Dim             ....  322

ORBITAL ENERGIES
----------------

  NO   OCC          E(Eh)            E(eV)
   0   2.0000     -88.970163     -2421.0012
   1   2.0000     -88.964419     -2420.8449
   2   2.0000     -10.336297      -281.2649
   3   2.0000     -10.327179      -281.0168
   4   2.0000     -10.316059      -280.7142
   5   2.0000     -10.315110      -280.6884
   6   2.0000     -10.304934      -280.4115
   7   2.0000     -10.303455      -280.3713
   8   2.0000     -10.303373      -280.3690
   9   2.0000     -10.300082      -280.2795
  10   2.0000     -10.291833      -280.0550
  11   2.0000     -10.291131      -280.0359
  12   2.0000     -10.289362      -279.9878
  13   2.0000     -10.283549      -279.8296
  14   2.0000     -10.278628      -279.6957
  15   2.0000     -10.273018      -279.5430
  16   2.0000      -8.084221      -219.9828
  17   2.0000      -8.079691      -219.8596
  18   2.0000      -6.042742      -164.4314
  19   2.0000      -6.038695      -164.3213
  20   2.0000      -6.038349      -164.3118
  21   2.0000      -6.035135      -164.2244
  22   2.0000      -6.034309      -164.2019
  23   2.0000      -6.030054      -164.0861
  24   2.0000      -1.005943       -27.3731
  25   2.0000      -0.984337       -26.7852
  26   2.0000      -0.913649       -24.8617
  27   2.0000      -0.903237       -24.5783
  28   2.0000      -0.868865       -23.6430
  29   2.0000      -0.846768       -23.0417
  30   2.0000      -0.842266       -22.9192
  31   2.0000      -0.812240       -22.1022
  32   2.0000      -0.783187       -21.3116
  33   2.0000      -0.773166       -21.0389
  34   2.0000      -0.700399       -19.0588
  35   2.0000      -0.695655       -18.9297
  36   2.0000      -0.687749       -18.7146
  37   2.0000      -0.658782       -17.9264
  38   2.0000      -0.636593       -17.3226
  39   2.0000      -0.611531       -16.6406
  40   2.0000      -0.594886       -16.1877
  41   2.0000      -0.573734       -15.6121
  42   2.0000      -0.557514       -15.1707
  43   2.0000      -0.545287       -14.8380
  44   2.0000      -0.538800       -14.6615
  45   2.0000      -0.533185       -14.5087
  46   2.0000      -0.510514       -13.8918
  47   2.0000      -0.504985       -13.7413
  48   2.0000      -0.500124       -13.6091
  49   2.0000      -0.492560       -13.4032
  50   2.0000      -0.488055       -13.2806
  51   2.0000      -0.473895       -12.8953
  52   2.0000      -0.471103       -12.8194
  53   2.0000      -0.469712       -12.7815
  54   2.0000      -0.457095       -12.4382
  55   2.0000      -0.451475       -12.2853
  56   2.0000      -0.437970       -11.9178
  57   2.0000      -0.435892       -11.8612
  58   2.0000      -0.432686       -11.7740
  59   2.0000      -0.419813       -11.4237
  60   2.0000      -0.416091       -11.3224
  61   2.0000      -0.414664       -11.2836
  62   2.0000      -0.400453       -10.8969
  63   2.0000      -0.350298        -9.5321
  64   2.0000      -0.331544        -9.0218
  65   2.0000      -0.325760        -8.8644
  66   2.0000      -0.298089        -8.1114
  67   0.0000       0.035477         0.9654
  68   0.0000       0.066560         1.8112
  69   0.0000       0.112528         3.0621
  70   0.0000       0.116447         3.1687
  71   0.0000       0.128138         3.4868

MULLIKEN ATOMIC CHARGES
-----------------------
   0 S :    0.118774
   1 C :   -0.132533
   2 C :   -0.071160
   3 C :    0.006429
   4 C :   -0.180582
   5 H :    0.041224
   6 C :    0.058139
   7 H :    0.037661
   8 H :    0.021893
   9 C :   -0.079100
  10 H :    0.019773
  11 H :    0.032236
  12 C :   -0.054198
  13 H :    0.035410
  14 H :    0.028452
  15 H :    0.037481
  16 S :    0.106950
  17 C :   -0.094363
  18 C :    0.003291
  19 C :   -0.090904
  20 C :   -0.122032
  21 H :    0.022479
  22 C :    0.035617
  23 H :    0.019119
  24 H :    0.020995
  25 C :   -0.037267
  26 H :    0.025964
  27 H :    0.021611
  28 C :   -0.057006
  29 H :    0.052383
  30 H :    0.034753
  31 H :    0.021943
  32 H :    0.058164
  33 H :    0.058406
Sum of atomic charges:   -0.0000000

LOEWDIN ATOMIC CHARGES
----------------------
   0 S :    0.406821
   1 C :   -0.205860
   2 C :   -0.074291
   3 C :   -0.066775
   4 C :   -0.193483
   5 H :    0.038531
   6 C :   -0.026560
   7 H :    0.039931
   8 H :    0.027422
   9 C :   -0.047194
  10 H :    0.020562
  11 H :    0.027766
  12 C :   -0.071472
  13 H :    0.017984
  14 H :    0.028769
  15 H :    0.033729
  16 S :    0.403799
  17 C :   -0.169454
  18 C :   -0.066169
  19 C :   -0.052535
  20 C :   -0.212963
  21 H :    0.034981
  22 C :   -0.043810
  23 H :    0.031227
  24 H :    0.035574
  25 C :   -0.049456
  26 H :    0.022293
  27 H :    0.032562
  28 C :   -0.073546
  29 H :    0.034160
  30 H :    0.026606
  31 H :    0.027444
  32 H :    0.031448
  33 H :    0.031958

  Mayer bond orders larger than 0.100000
B(  0-S ,  1-C ) :   1.1681 B(  0-S ,  4-C ) :   1.1452 B(  1-C ,  2-C ) :   1.5885
B(  1-C ,  4-C ) :   0.1028 B(  1-C , 32-H ) :   0.9618 B(  2-C ,  3-C ) :   1.2768
B(  2-C ,  6-C ) :   1.0028 B(  3-C ,  4-C ) :   1.5649 B(  3-C ,  5-H ) :   0.9742
B(  4-C , 20-C ) :   1.0066 B(  6-C ,  7-H ) :   0.9434 B(  6-C ,  8-H ) :   0.9482
B(  6-C ,  9-C ) :   1.0736 B(  9-C , 10-H ) :   0.9540 B(  9-C , 11-H ) :   0.9555
B(  9-C , 12-C ) :   1.0789 B( 12-C , 13-H ) :   0.9778 B( 12-C , 14-H ) :   0.9741
B( 12-C , 15-H ) :   0.9724 B( 16-S , 17-C ) :   1.1315 B( 16-S , 20-C ) :   1.1415
B( 17-C , 18-C ) :   1.6658 B( 17-C , 33-H ) :   0.9622 B( 18-C , 19-C ) :   1.1982
B( 18-C , 21-H ) :   0.9871 B( 19-C , 20-C ) :   1.6320 B( 19-C , 22-C ) :   1.0415
B( 22-C , 23-H ) :   0.9236 B( 22-C , 24-H ) :   0.9304 B( 22-C , 25-C ) :   1.1011
B( 25-C , 26-H ) :   0.9518 B( 25-C , 27-H ) :   0.9398 B( 25-C , 28-C ) :   1.0729
B( 28-C , 29-H ) :   0.9724 B( 28-C , 30-H ) :   0.9728 B( 28-C , 31-H ) :   0.9685

Dispersion correction           -0.015136875
FINAL SINGLE POINT ENERGY     -1339.870884241265

DIPOLE MOMENT
-------------
                                X             Y             Z
Electronic contribution:     17.95345     -13.02719       5.52467
Nuclear contribution   :    -18.54276      13.53720      -5.43109
                        -----------------------------------------
Total Dipole Moment    :     -0.58931       0.51001       0.09358
                        -----------------------------------------
Magnitude (a.u.)       :      0.78495
Magnitude (Debye)      :      1.99519

Rotational constants in cm-1:     0.019747     0.008116     0.007415
Rotational constants in MHz :   592.006885   243.301290   222.290014

                             ****ORCA TERMINATED NORMALLY****
TOTAL RUN TIME: 0 days 0 hours 0 minutes 21 seconds 878 msec
