                         Program Version 4.2.1 -  RELEASE  -
|  1> ! wB97X-D3 SP def2-SVP
|  2> %pal
|  3> nprocs 24
|  4> end
|  5>
|  6> * xyz 0 1
|  7> S 	 -105.888 	 55.4366 	 -80.5161
|  8> C 	 -106.127 	 56.2699 	 -81.9759
|  9> C 	 -106.833 	 55.4644 	 -82.8628
| 10> C 	 -107.054 	 54.167 	 -82.3082
| 11> C 	 -106.484 	 53.92 	 -81.0925
| 12> H 	 -107.743 	 53.4293 	 -82.6637
| 13> C 	 -107.449 	 55.8778 	 -84.1662
| 14> H 	 -107.483 	 56.995 	 -84.1767
| 15> H 	 -108.485 	 55.5022 	 -84.2293
| 16> C 	 -106.709 	 55.4151 	 -85.3397
| 17> H 	 -105.818 	 56.0152 	 -85.4935
| 18> H 	 -106.39 	 54.3458 	 -85.2372
| 19> C 	 -107.665 	 55.6151 	 -86.5602
| 20> H 	 -107.034 	 55.4025 	 -87.4173
| 21> H 	 -108.517 	 54.9801 	 -86.4416
| 22> H 	 -108.105 	 56.6391 	 -86.652
| 23> S 	 -106.385 	 52.7993 	 -78.6285
| 24> C 	 -106.034 	 51.1108 	 -78.3448
| 25> C 	 -106.135 	 50.4731 	 -79.5901
| 26> C 	 -106.302 	 51.2944 	 -80.6926
| 27> C 	 -106.318 	 52.6741 	 -80.3657
| 28> H 	 -105.952 	 49.4194 	 -79.674
| 29> C 	 -106.408 	 50.9045 	 -82.1045
| 30> H 	 -105.908 	 49.9473 	 -82.3206
| 31> H 	 -106.082 	 51.6638 	 -82.7604
| 32> C 	 -107.826 	 50.691 	 -82.669
| 33> H 	 -107.763 	 50.3604 	 -83.6814
| 34> H 	 -108.576 	 51.552 	 -82.6034
| 35> C 	 -108.458 	 49.496 	 -81.8336
| 36> H 	 -109.463 	 49.1572 	 -82.3108
| 37> H 	 -108.719 	 49.7728 	 -80.8153
| 38> H 	 -107.802 	 48.6551 	 -81.6598
| 39> H 	 -105.844 	 57.2859 	 -82.0647
| 40> H 	 -106.137 	 50.6391 	 -77.3297
| 41> *
| 42>
| 43>                          ****END OF INPUT****

CARTESIAN COORDINATES (ANGSTROEM)
---------------------------------
  S    -105.888000   55.436600  -80.516100
  C    -106.127000   56.269900  -81.975900
  C    -106.833000   55.464400  -82.862800
  C    -107.054000   54.167000  -82.308200
  C    -106.484000   53.920000  -81.092500
  H    -107.743000   53.429300  -82.663700
  C    -107.449000   55.877800  -84.166200
  H    -107.483000   56.995000  -84.176700
  H    -108.485000   55.502200  -84.229300
  C    -106.709000   55.415100  -85.339700
  H    -105.818000   56.015200  -85.493500
  H    -106.390000   54.345800  -85.237200
  C    -107.665000   55.615100  -86.560200
  H    -107.034000   55.402500  -87.417300
  H    -108.517000   54.980100  -86.441600
  H    -108.105000   56.639100  -86.652000
  S    -106.385000   52.799300  -78.628500
  C    -106.034000   51.110800  -78.344800
  C    -106.135000   50.473100  -79.590100
  C    -106.302000   51.294400  -80.692600
  C    -106.318000   52.674100  -80.365700
  H    -105.952000   49.419400  -79.674000
  C    -106.408000   50.904500  -82.104500
  H    -105.908000   49.947300  -82.320600
  H    -106.082000   51.663800  -82.760400
  C    -107.826000   50.691000  -82.669000
  H    -107.763000   50.360400  -83.681400
  H    -108.576000   51.552000  -82.603400
  C    -108.458000   49.496000  -81.833600
  H    -109.463000   49.157200  -82.310800
  H    -108.719000   49.772800  -80.815300
  H    -107.802000   48.655100  -81.659800
  H    -105.844000   57.285900  -82.064700
  H    -106.137000   50.639100  -77.329700

 Total Charge           Charge          ....    0
 Multiplicity           Mult            ....    1
 Number of Electrons    NEL             ....  134
 Basis Dimension        Dim             ....  322

ORBITAL ENERGIES
----------------

  NO   OCC          E(Eh)            E(eV)
   0   2.0000     -88.964578     -2420.8492
   1   2.0000     -88.962030     -2420.7799
   2   2.0000     -10.331899      -281.1453
   3   2.0000     -10.328323      -281.0480
   4   2.0000     -10.324585      -280.9462
   5   2.0000     -10.311693      -280.5954
   6   2.0000     -10.303242      -280.3655
   7   2.0000     -10.300175      -280.2820
   8   2.0000     -10.296019      -280.1689
   9   2.0000     -10.295610      -280.1578
  10   2.0000     -10.289449      -279.9901
  11   2.0000     -10.289156      -279.9822
  12   2.0000     -10.287296      -279.9316
  13   2.0000     -10.284455      -279.8543
  14   2.0000     -10.281414      -279.7715
  15   2.0000     -10.279585      -279.7217
  16   2.0000      -8.079610      -219.8574
  17   2.0000      -8.078412      -219.8248
  18   2.0000      -6.037925      -164.3003
  19   2.0000      -6.036870      -164.2716
  20   2.0000      -6.033944      -164.1920
  21   2.0000      -6.032581      -164.1549
  22   2.0000      -6.030677      -164.1031
  23   2.0000      -6.029215      -164.0633
  24   2.0000      -1.016377       -27.6570
  25   2.0000      -0.993145       -27.0248
  26   2.0000      -0.923602       -25.1325
  27   2.0000      -0.914299       -24.8793
  28   2.0000      -0.875760       -23.8306
  29   2.0000      -0.850369       -23.1397
  30   2.0000      -0.843183       -22.9442
  31   2.0000      -0.817463       -22.2443
  32   2.0000      -0.780974       -21.2514
  33   2.0000      -0.770176       -20.9576
  34   2.0000      -0.709116       -19.2960
  35   2.0000      -0.699223       -19.0268
  36   2.0000      -0.693743       -18.8777
  37   2.0000      -0.669521       -18.2186
  38   2.0000      -0.650163       -17.6918
  39   2.0000      -0.624229       -16.9861
  40   2.0000      -0.598560       -16.2876
  41   2.0000      -0.576712       -15.6931
  42   2.0000      -0.568832       -15.4787
  43   2.0000      -0.554520       -15.0892
  44   2.0000      -0.544132       -14.8066
  45   2.0000      -0.527961       -14.3666
  46   2.0000      -0.518890       -14.1197
  47   2.0000      -0.513471       -13.9723
  48   2.0000      -0.513140       -13.9633
  49   2.0000      -0.498977       -13.5779
  50   2.0000      -0.493429       -13.4269
  51   2.0000      -0.490544       -13.3484
  52   2.0000      -0.470881       -12.8133
  53   2.0000      -0.463915       -12.6238
  54   2.0000      -0.458820       -12.4851
  55   2.0000      -0.452347       -12.3090
  56   2.0000      -0.445165       -12.1135
  57   2.0000      -0.439233       -11.9521
  58   2.0000      -0.430329       -11.7098
  59   2.0000      -0.422662       -11.5012
  60   2.0000      -0.420178       -11.4336
  61   2.0000      -0.410370       -11.1667
  62   2.0000      -0.406161       -11.0522
  63   2.0000      -0.360626        -9.8131
  64   2.0000      -0.331585        -9.0229
  65   2.0000      -0.326217        -8.8768
  66   2.0000      -0.284123        -7.7314
  67   0.0000       0.015729         0.4280
  68   0.0000       0.078698         2.1415
  69   0.0000       0.104741         2.8501
  70   0.0000       0.128916         3.5080
  71   0.0000       0.131037         3.5657

MULLIKEN ATOMIC CHARGES
-----------------------
   0 S :    0.108657
   1 C :   -0.111215
   2 C :   -0.067000
   3 C :   -0.008176
   4 C :   -0.101525
   5 H :   -0.016024
   6 C :    0.049820
   7 H :    0.024493
   8 H :    0.028167
   9 C :   -0.084259
  10 H :    0.027517
  11 H :    0.040554
  12 C :   -0.041610
  13 H :    0.037626
  14 H :    0.026904
  15 H :    0.033164
  16 S :    0.089109
  17 C :   -0.107004
  18 C :   -0.046356
  19 C :   -0.010912
  20 C :   -0.138289
  21 H :    0.013625
  22 C :    0.068834
  23 H :    0.026592
  24 H :    0.020223
  25 C :   -0.092893
  26 H :    0.034763
  27 H :    0.062954
  28 C :   -0.099863
  29 H :    0.040765
  30 H :    0.040073
  31 H :    0.021613
  32 H :    0.039921
  33 H :    0.089753
Sum of atomic charges:    0.0000000

LOEWDIN ATOMIC CHARGES
----------------------
   0 S :    0.434497
   1 C :   -0.201867
   2 C :   -0.064346
   3 C :   -0.071734
   4 C :   -0.202357
   5 H :    0.023960
   6 C :   -0.038983
   7 H :    0.034181
   8 H :    0.032727
   9 C :   -0.041318
  10 H :    0.023382
  11 H :    0.028707
  12 C :   -0.062475
  13 H :    0.025539
  14 H :    0.018917
  15 H :    0.029410
  16 S :    0.417572
  17 C :   -0.201547
  18 C :   -0.071318
  19 C :   -0.061894
  20 C :   -0.186902
  21 H :    0.028955
  22 C :   -0.033007
  23 H :    0.034363
  24 H :    0.026736
  25 C :   -0.034174
  26 H :    0.021147
  27 H :    0.030043
  28 C :   -0.078314
  29 H :    0.031742
  30 H :    0.023131
  31 H :    0.016351
  32 H :    0.022943
  33 H :    0.045934

  Mayer bond orders larger than 0.100000
B(  0-S ,  1-C ) :   1.1672 B(  0-S ,  4-C ) :   1.1600 B(  1-C ,  2-C ) :   1.5594
B(  1-C , 32-H ) :   0.9810 B(  2-C ,  3-C ) :   1.2641 B(  2-C ,  6-C ) :   1.0239
B(  3-C ,  4-C ) :   1.5407 B(  3-C ,  5-H ) :   0.9977 B(  4-C , 20-C ) :   1.0578
B(  6-C ,  7-H ) :   0.9337 B(  6-C ,  8-H ) :   0.9467 B(  6-C ,  9-C ) :   1.0726
B(  9-C , 10-H ) :   0.9494 B(  9-C , 11-H ) :   0.9574 B(  9-C , 12-C ) :   1.0723
B( 12-C , 13-H ) :   0.9750 B( 12-C , 14-H ) :   0.9775 B( 12-C , 15-H ) :   0.9718
B( 16-S , 17-C ) :   1.1754 B( 16-S , 20-C ) :   1.1754 B( 17-C , 18-C ) :   1.5271
B( 17-C , 20-C ) :   0.1216 B( 17-C , 33-H ) :   0.9626 B( 18-C , 19-C ) :   1.3152
B( 18-C , 21-H ) :   0.9888 B( 19-C , 20-C ) :   1.4962 B( 19-C , 22-C ) :   1.0699
B( 22-C , 23-H ) :   0.9311 B( 22-C , 24-H ) :   0.9230 B( 22-C , 25-C ) :   1.0719
B( 25-C , 26-H ) :   0.9580 B( 25-C , 27-H ) :   0.9433 B( 25-C , 28-C ) :   1.0596
B( 28-C , 29-H ) :   0.9742 B( 28-C , 30-H ) :   0.9747 B( 28-C , 31-H ) :   0.9767

Dispersion correction           -0.014488264
FINAL SINGLE POINT ENERGY     -1339.865294036068

DIPOLE MOMENT
-------------
                                X             Y             Z
Electronic contribution:     10.32504       7.74767      27.26398
Nuclear contribution   :    -10.61198      -7.93846     -27.80524
                        -----------------------------------------
Total Dipole Moment    :     -0.28694      -0.19079      -0.54126
                        -----------------------------------------
Magnitude (a.u.)       :      0.64163
Magnitude (Debye)      :      1.63090

Rotational constants in cm-1:     0.019937     0.009101     0.006537
Rotational constants in MHz :   597.694296   272.838083   195.971029

                             ****ORCA TERMINATED NORMALLY****
TOTAL RUN TIME: 0 days 0 hours 0 minutes 21 seconds 268 msec
