                         Program Version 4.2.1 -  RELEASE  -
|  1> ! wB97X-D3 SP def2-SVP
|  2> %pal
|  3> nprocs 24
|  4> end
|  5>
|  6> * xyz 0 1
|  7> S 	 29.6475 	 -22.3363 	 -122.633
|  8> C 	 29.3734 	 -21.0416 	 -123.629
|  9> C 	 28.7421 	 -21.4293 	 -124.832
| 10> C 	 28.403 	 -22.8466 	 -124.788
| 11> C 	 28.7438 	 -23.4874 	 -123.607
| 12> H 	 27.9275 	 -23.4113 	 -125.552
| 13> C 	 28.4418 	 -20.5189 	 -125.928
| 14> H 	 29.0886 	 -19.6438 	 -125.695
| 15> H 	 27.3563 	 -20.2142 	 -126
| 16> C 	 28.8388 	 -20.9781 	 -127.317
| 17> H 	 28.4034 	 -21.896 	 -127.673
| 18> H 	 28.4527 	 -20.27 	 -128.048
| 19> C 	 30.4148 	 -21.0724 	 -127.518
| 20> H 	 30.8387 	 -21.3496 	 -128.489
| 21> H 	 30.8243 	 -20.1129 	 -127.208
| 22> H 	 30.7446 	 -21.7862 	 -126.736
| 23> S 	 30.1645 	 -25.8222 	 -122.932
| 24> C 	 29.2588 	 -27.2766 	 -122.574
| 25> C 	 27.896 	 -27.0968 	 -122.795
| 26> C 	 27.5555 	 -25.7526 	 -123.163
| 27> C 	 28.6483 	 -24.911 	 -123.232
| 28> H 	 27.2475 	 -27.9923 	 -122.787
| 29> C 	 26.1651 	 -25.242 	 -123.388
| 30> H 	 25.5807 	 -26.0944 	 -123.927
| 31> H 	 26.2224 	 -24.4837 	 -124.188
| 32> C 	 25.4672 	 -24.8883 	 -122.047
| 33> H 	 25.6016 	 -25.7677 	 -121.425
| 34> H 	 24.4225 	 -24.7827 	 -122.287
| 35> C 	 25.9653 	 -23.6739 	 -121.203
| 36> H 	 27.0513 	 -23.7201 	 -121.025
| 37> H 	 25.571 	 -23.7402 	 -120.24
| 38> H 	 25.6723 	 -22.6668 	 -121.575
| 39> H 	 29.6118 	 -19.9982 	 -123.355
| 40> H 	 29.6785 	 -28.2497 	 -122.499
| 41> *
| 42>
| 43>                          ****END OF INPUT****

CARTESIAN COORDINATES (ANGSTROEM)
---------------------------------
  S     29.647500  -22.336300  -122.633000
  C     29.373400  -21.041600  -123.629000
  C     28.742100  -21.429300  -124.832000
  C     28.403000  -22.846600  -124.788000
  C     28.743800  -23.487400  -123.607000
  H     27.927500  -23.411300  -125.552000
  C     28.441800  -20.518900  -125.928000
  H     29.088600  -19.643800  -125.695000
  H     27.356300  -20.214200  -126.000000
  C     28.838800  -20.978100  -127.317000
  H     28.403400  -21.896000  -127.673000
  H     28.452700  -20.270000  -128.048000
  C     30.414800  -21.072400  -127.518000
  H     30.838700  -21.349600  -128.489000
  H     30.824300  -20.112900  -127.208000
  H     30.744600  -21.786200  -126.736000
  S     30.164500  -25.822200  -122.932000
  C     29.258800  -27.276600  -122.574000
  C     27.896000  -27.096800  -122.795000
  C     27.555500  -25.752600  -123.163000
  C     28.648300  -24.911000  -123.232000
  H     27.247500  -27.992300  -122.787000
  C     26.165100  -25.242000  -123.388000
  H     25.580700  -26.094400  -123.927000
  H     26.222400  -24.483700  -124.188000
  C     25.467200  -24.888300  -122.047000
  H     25.601600  -25.767700  -121.425000
  H     24.422500  -24.782700  -122.287000
  C     25.965300  -23.673900  -121.203000
  H     27.051300  -23.720100  -121.025000
  H     25.571000  -23.740200  -120.240000
  H     25.672300  -22.666800  -121.575000
  H     29.611800  -19.998200  -123.355000
  H     29.678500  -28.249700  -122.499000

 Total Charge           Charge          ....    0
 Multiplicity           Mult            ....    1
 Number of Electrons    NEL             ....  134
 Basis Dimension        Dim             ....  322

ORBITAL ENERGIES
----------------

  NO   OCC          E(Eh)            E(eV)
   0   2.0000     -88.965640     -2420.8781
   1   2.0000     -88.964652     -2420.8513
   2   2.0000     -10.331469      -281.1336
   3   2.0000     -10.329841      -281.0893
   4   2.0000     -10.317094      -280.7424
   5   2.0000     -10.314808      -280.6802
   6   2.0000     -10.302805      -280.3536
   7   2.0000     -10.302610      -280.3483
   8   2.0000     -10.298731      -280.2427
   9   2.0000     -10.297869      -280.2193
  10   2.0000     -10.296617      -280.1852
  11   2.0000     -10.295432      -280.1529
  12   2.0000     -10.287077      -279.9256
  13   2.0000     -10.286666      -279.9144
  14   2.0000     -10.278330      -279.6876
  15   2.0000     -10.271247      -279.4948
  16   2.0000      -8.080962      -219.8942
  17   2.0000      -8.079658      -219.8587
  18   2.0000      -6.039325      -164.3384
  19   2.0000      -6.038236      -164.3088
  20   2.0000      -6.034966      -164.2198
  21   2.0000      -6.034297      -164.2016
  22   2.0000      -6.032045      -164.1403
  23   2.0000      -6.030358      -164.0944
  24   2.0000      -1.008017       -27.4295
  25   2.0000      -0.985128       -26.8067
  26   2.0000      -0.915316       -24.9070
  27   2.0000      -0.903043       -24.5730
  28   2.0000      -0.869001       -23.6467
  29   2.0000      -0.845431       -23.0053
  30   2.0000      -0.841133       -22.8884
  31   2.0000      -0.815663       -22.1953
  32   2.0000      -0.781461       -21.2646
  33   2.0000      -0.768696       -20.9173
  34   2.0000      -0.712679       -19.3930
  35   2.0000      -0.696819       -18.9614
  36   2.0000      -0.690912       -18.8007
  37   2.0000      -0.655021       -17.8240
  38   2.0000      -0.645903       -17.5759
  39   2.0000      -0.621496       -16.9118
  40   2.0000      -0.592360       -16.1189
  41   2.0000      -0.567188       -15.4340
  42   2.0000      -0.557567       -15.1722
  43   2.0000      -0.544629       -14.8201
  44   2.0000      -0.535404       -14.5691
  45   2.0000      -0.533026       -14.5044
  46   2.0000      -0.520251       -14.1567
  47   2.0000      -0.509071       -13.8525
  48   2.0000      -0.503632       -13.7045
  49   2.0000      -0.492468       -13.4007
  50   2.0000      -0.487363       -13.2618
  51   2.0000      -0.479010       -13.0345
  52   2.0000      -0.467772       -12.7287
  53   2.0000      -0.464520       -12.6402
  54   2.0000      -0.458645       -12.4804
  55   2.0000      -0.447569       -12.1790
  56   2.0000      -0.442435       -12.0393
  57   2.0000      -0.435329       -11.8459
  58   2.0000      -0.428798       -11.6682
  59   2.0000      -0.423402       -11.5213
  60   2.0000      -0.420283       -11.4365
  61   2.0000      -0.413745       -11.2586
  62   2.0000      -0.409864       -11.1530
  63   2.0000      -0.350300        -9.5322
  64   2.0000      -0.331047        -9.0083
  65   2.0000      -0.323467        -8.8020
  66   2.0000      -0.293528        -7.9873
  67   0.0000       0.034761         0.9459
  68   0.0000       0.060120         1.6359
  69   0.0000       0.108563         2.9542
  70   0.0000       0.116672         3.1748
  71   0.0000       0.136000         3.7007

MULLIKEN ATOMIC CHARGES
-----------------------
   0 S :    0.124833
   1 C :   -0.115662
   2 C :   -0.119354
   3 C :    0.065017
   4 C :   -0.180741
   5 H :    0.005733
   6 C :    0.055034
   7 H :    0.019711
   8 H :    0.057096
   9 C :   -0.078114
  10 H :    0.025020
  11 H :    0.022931
  12 C :   -0.071871
  13 H :    0.046246
  14 H :    0.019196
  15 H :    0.043413
  16 S :    0.102475
  17 C :   -0.080414
  18 C :   -0.055848
  19 C :   -0.048320
  20 C :   -0.154502
  21 H :    0.033402
  22 C :    0.045890
  23 H :    0.031311
  24 H :    0.020702
  25 C :   -0.043055
  26 H :    0.023718
  27 H :    0.029533
  28 C :   -0.027675
  29 H :    0.033454
  30 H :    0.015641
  31 H :    0.038175
  32 H :    0.065299
  33 H :    0.051725
Sum of atomic charges:    0.0000000

LOEWDIN ATOMIC CHARGES
----------------------
   0 S :    0.447716
   1 C :   -0.227867
   2 C :   -0.073654
   3 C :   -0.053911
   4 C :   -0.196805
   5 H :    0.024725
   6 C :   -0.041335
   7 H :    0.036187
   8 H :    0.043443
   9 C :   -0.041742
  10 H :    0.017811
  11 H :    0.022693
  12 C :   -0.069332
  13 H :    0.026538
  14 H :    0.019812
  15 H :    0.029993
  16 S :    0.386701
  17 C :   -0.180683
  18 C :   -0.075400
  19 C :   -0.060094
  20 C :   -0.190343
  21 H :    0.037739
  22 C :   -0.039522
  23 H :    0.040042
  24 H :    0.027808
  25 C :   -0.032016
  26 H :    0.026671
  27 H :    0.022266
  28 C :   -0.064851
  29 H :    0.027153
  30 H :    0.018748
  31 H :    0.028951
  32 H :    0.037345
  33 H :    0.025215

  Mayer bond orders larger than 0.100000
B(  0-S ,  1-C ) :   1.1863 B(  0-S ,  4-C ) :   1.1631 B(  1-C ,  2-C ) :   1.5558
B(  1-C , 32-H ) :   0.9628 B(  2-C ,  3-C ) :   1.2460 B(  2-C ,  6-C ) :   1.0462
B(  3-C ,  4-C ) :   1.5647 B(  3-C ,  5-H ) :   0.9944 B(  4-C , 20-C ) :   1.0266
B(  6-C ,  7-H ) :   0.9385 B(  6-C ,  8-H ) :   0.9285 B(  6-C ,  9-C ) :   1.0776
B(  9-C , 10-H ) :   0.9565 B(  9-C , 11-H ) :   0.9556 B(  9-C , 12-C ) :   1.0554
B( 12-C , 13-H ) :   0.9787 B( 12-C , 14-H ) :   0.9757 B( 12-C , 15-H ) :   0.9787
B( 16-S , 17-C ) :   1.1530 B( 16-S , 20-C ) :   1.1298 B( 17-C , 18-C ) :   1.6212
B( 17-C , 33-H ) :   0.9666 B( 18-C , 19-C ) :   1.2310 B( 18-C , 21-H ) :   0.9834
B( 19-C , 20-C ) :   1.6122 B( 19-C , 22-C ) :   1.0472 B( 22-C , 23-H ) :   0.9330
B( 22-C , 24-H ) :   0.9315 B( 22-C , 25-C ) :   1.0571 B( 25-C , 26-H ) :   0.9545
B( 25-C , 27-H ) :   0.9569 B( 25-C , 28-C ) :   1.0826 B( 28-C , 29-H ) :   0.9694
B( 28-C , 30-H ) :   0.9701 B( 28-C , 31-H ) :   0.9766

Dispersion correction           -0.015391580
FINAL SINGLE POINT ENERGY     -1339.883185807462

DIPOLE MOMENT
-------------
                                X             Y             Z
Electronic contribution:     12.62200      -9.41138      10.78351
Nuclear contribution   :    -13.09287       9.44730     -11.13969
                        -----------------------------------------
Total Dipole Moment    :     -0.47087       0.03592      -0.35618
                        -----------------------------------------
Magnitude (a.u.)       :      0.59150
Magnitude (Debye)      :      1.50348

Rotational constants in cm-1:     0.020591     0.008589     0.007760
Rotational constants in MHz :   617.295355   257.478956   232.631782

                             ****ORCA TERMINATED NORMALLY****
TOTAL RUN TIME: 0 days 0 hours 0 minutes 22 seconds 326 msec
