                         Program Version 4.2.1 -  RELEASE  -
|  1> ! wB97X-D3 SP def2-SVP
|  2> %pal
|  3> nprocs 24
|  4> end
|  5>
|  6> * xyz 0 1
|  7> S 	 -106.909 	 46.9032 	 -8.28295
|  8> C 	 -107.892 	 47.0715 	 -6.90329
|  9> C 	 -109.018 	 46.3216 	 -7.03959
| 10> C 	 -109.212 	 45.8683 	 -8.36605
| 11> C 	 -108.036 	 45.8673 	 -9.12041
| 12> H 	 -110.155 	 45.4807 	 -8.84785
| 13> C 	 -110.019 	 46.1391 	 -5.94955
| 14> H 	 -109.455 	 45.9479 	 -5.02604
| 15> H 	 -110.507 	 45.1887 	 -6.1471
| 16> C 	 -110.96 	 47.346 	 -5.94683
| 17> H 	 -111.513 	 47.2008 	 -5.00509
| 18> H 	 -110.415 	 48.2883 	 -5.8844
| 19> C 	 -111.904 	 47.4964 	 -7.1521
| 20> H 	 -112.717 	 48.1189 	 -6.93338
| 21> H 	 -111.347 	 47.7375 	 -8.09108
| 22> H 	 -112.355 	 46.428 	 -7.33617
| 23> S 	 -108.036 	 43.9469 	 -11.1706
| 24> C 	 -107.439 	 44.3602 	 -12.7747
| 25> C 	 -107.477 	 45.7421 	 -12.947
| 26> C 	 -107.742 	 46.4402 	 -11.7141
| 27> C 	 -107.921 	 45.5899 	 -10.5783
| 28> H 	 -107.201 	 46.099 	 -13.9494
| 29> C 	 -107.554 	 47.941 	 -11.6224
| 30> H 	 -106.698 	 48.146 	 -12.2746
| 31> H 	 -107.214 	 48.2313 	 -10.6654
| 32> C 	 -108.767 	 48.7579 	 -12.0569
| 33> H 	 -108.602 	 49.7807 	 -12.2194
| 34> H 	 -109.58 	 48.6748 	 -11.2574
| 35> C 	 -109.453 	 48.2309 	 -13.3764
| 36> H 	 -110.325 	 48.8459 	 -13.5151
| 37> H 	 -109.865 	 47.2741 	 -13.2078
| 38> H 	 -108.784 	 48.1921 	 -14.2613
| 39> H 	 -107.58 	 47.5402 	 -5.94966
| 40> H 	 -107.257 	 43.6186 	 -13.5694
| 41> *
| 42>
| 43>                          ****END OF INPUT****

CARTESIAN COORDINATES (ANGSTROEM)
---------------------------------
  S    -106.909000   46.903200   -8.282950
  C    -107.892000   47.071500   -6.903290
  C    -109.018000   46.321600   -7.039590
  C    -109.212000   45.868300   -8.366050
  C    -108.036000   45.867300   -9.120410
  H    -110.155000   45.480700   -8.847850
  C    -110.019000   46.139100   -5.949550
  H    -109.455000   45.947900   -5.026040
  H    -110.507000   45.188700   -6.147100
  C    -110.960000   47.346000   -5.946830
  H    -111.513000   47.200800   -5.005090
  H    -110.415000   48.288300   -5.884400
  C    -111.904000   47.496400   -7.152100
  H    -112.717000   48.118900   -6.933380
  H    -111.347000   47.737500   -8.091080
  H    -112.355000   46.428000   -7.336170
  S    -108.036000   43.946900  -11.170600
  C    -107.439000   44.360200  -12.774700
  C    -107.477000   45.742100  -12.947000
  C    -107.742000   46.440200  -11.714100
  C    -107.921000   45.589900  -10.578300
  H    -107.201000   46.099000  -13.949400
  C    -107.554000   47.941000  -11.622400
  H    -106.698000   48.146000  -12.274600
  H    -107.214000   48.231300  -10.665400
  C    -108.767000   48.757900  -12.056900
  H    -108.602000   49.780700  -12.219400
  H    -109.580000   48.674800  -11.257400
  C    -109.453000   48.230900  -13.376400
  H    -110.325000   48.845900  -13.515100
  H    -109.865000   47.274100  -13.207800
  H    -108.784000   48.192100  -14.261300
  H    -107.580000   47.540200   -5.949660
  H    -107.257000   43.618600  -13.569400

 Total Charge           Charge          ....    0
 Multiplicity           Mult            ....    1
 Number of Electrons    NEL             ....  134
 Basis Dimension        Dim             ....  322

ORBITAL ENERGIES
----------------

  NO   OCC          E(Eh)            E(eV)
   0   2.0000     -88.966060     -2420.8896
   1   2.0000     -88.962405     -2420.7901
   2   2.0000     -10.332506      -281.1618
   3   2.0000     -10.331813      -281.1429
   4   2.0000     -10.321258      -280.8557
   5   2.0000     -10.311690      -280.5953
   6   2.0000     -10.308971      -280.5214
   7   2.0000     -10.299707      -280.2693
   8   2.0000     -10.299296      -280.2581
   9   2.0000     -10.294265      -280.1212
  10   2.0000     -10.290274      -280.0126
  11   2.0000     -10.289689      -279.9967
  12   2.0000     -10.286780      -279.9175
  13   2.0000     -10.284796      -279.8635
  14   2.0000     -10.281429      -279.7719
  15   2.0000     -10.270346      -279.4703
  16   2.0000      -8.081194      -219.9005
  17   2.0000      -8.076984      -219.7859
  18   2.0000      -6.039638      -164.3469
  19   2.0000      -6.035511      -164.2346
  20   2.0000      -6.035493      -164.2341
  21   2.0000      -6.032118      -164.1423
  22   2.0000      -6.031430      -164.1236
  23   2.0000      -6.027823      -164.0254
  24   2.0000      -1.010337       -27.4927
  25   2.0000      -0.984965       -26.8023
  26   2.0000      -0.916836       -24.9484
  27   2.0000      -0.903157       -24.5762
  28   2.0000      -0.867253       -23.5992
  29   2.0000      -0.846239       -23.0273
  30   2.0000      -0.837185       -22.7810
  31   2.0000      -0.816835       -22.2272
  32   2.0000      -0.784080       -21.3359
  33   2.0000      -0.771260       -20.9871
  34   2.0000      -0.704411       -19.1680
  35   2.0000      -0.700141       -19.0518
  36   2.0000      -0.685753       -18.6603
  37   2.0000      -0.656540       -17.8654
  38   2.0000      -0.639826       -17.4105
  39   2.0000      -0.614875       -16.7316
  40   2.0000      -0.587232       -15.9794
  41   2.0000      -0.577921       -15.7260
  42   2.0000      -0.556124       -15.1329
  43   2.0000      -0.549496       -14.9525
  44   2.0000      -0.541774       -14.7424
  45   2.0000      -0.539780       -14.6882
  46   2.0000      -0.520266       -14.1572
  47   2.0000      -0.514921       -14.0117
  48   2.0000      -0.500241       -13.6123
  49   2.0000      -0.493551       -13.4302
  50   2.0000      -0.485094       -13.2001
  51   2.0000      -0.480252       -13.0683
  52   2.0000      -0.472683       -12.8623
  53   2.0000      -0.467123       -12.7111
  54   2.0000      -0.461251       -12.5513
  55   2.0000      -0.446940       -12.1618
  56   2.0000      -0.439504       -11.9595
  57   2.0000      -0.433948       -11.8083
  58   2.0000      -0.426449       -11.6043
  59   2.0000      -0.421688       -11.4747
  60   2.0000      -0.416067       -11.3218
  61   2.0000      -0.415078       -11.2949
  62   2.0000      -0.407472       -11.0879
  63   2.0000      -0.342550        -9.3213
  64   2.0000      -0.327750        -8.9185
  65   2.0000      -0.321181        -8.7398
  66   2.0000      -0.298138        -8.1127
  67   0.0000       0.032559         0.8860
  68   0.0000       0.058894         1.6026
  69   0.0000       0.108058         2.9404
  70   0.0000       0.126197         3.4340
  71   0.0000       0.129763         3.5310

MULLIKEN ATOMIC CHARGES
-----------------------
   0 S :    0.110973
   1 C :   -0.122460
   2 C :   -0.121810
   3 C :   -0.008006
   4 C :   -0.127367
   5 H :    0.042663
   6 C :    0.076710
   7 H :    0.029349
   8 H :    0.023712
   9 C :   -0.059019
  10 H :    0.031222
  11 H :    0.029511
  12 C :   -0.070617
  13 H :    0.038980
  14 H :    0.059065
  15 H :    0.027222
  16 S :    0.097751
  17 C :   -0.115712
  18 C :   -0.043562
  19 C :   -0.052200
  20 C :   -0.171036
  21 H :    0.033700
  22 C :    0.117829
  23 H :    0.022179
  24 H :    0.003598
  25 C :   -0.082769
  26 H :    0.024478
  27 H :    0.034857
  28 C :   -0.057101
  29 H :    0.025539
  30 H :    0.032575
  31 H :    0.036430
  32 H :    0.061684
  33 H :    0.071631
Sum of atomic charges:   -0.0000000

LOEWDIN ATOMIC CHARGES
----------------------
   0 S :    0.441293
   1 C :   -0.214119
   2 C :   -0.074281
   3 C :   -0.063748
   4 C :   -0.205029
   5 H :    0.041515
   6 C :   -0.033609
   7 H :    0.034647
   8 H :    0.029996
   9 C :   -0.038952
  10 H :    0.024785
  11 H :    0.024320
  12 C :   -0.066355
  13 H :    0.020387
  14 H :    0.032721
  15 H :    0.030925
  16 S :    0.399839
  17 C :   -0.185105
  18 C :   -0.074352
  19 C :   -0.051044
  20 C :   -0.206888
  21 H :    0.037366
  22 C :   -0.034671
  23 H :    0.031544
  24 H :    0.011238
  25 C :   -0.033197
  26 H :    0.014951
  27 H :    0.031315
  28 C :   -0.065569
  29 H :    0.024284
  30 H :    0.018785
  31 H :    0.023740
  32 H :    0.037865
  33 H :    0.035401

  Mayer bond orders larger than 0.100000
B(  0-S ,  1-C ) :   1.1644 B(  0-S ,  4-C ) :   1.1593 B(  1-C ,  2-C ) :   1.5904
B(  1-C , 32-H ) :   0.9622 B(  2-C ,  3-C ) :   1.2602 B(  2-C ,  6-C ) :   1.0196
B(  3-C ,  4-C ) :   1.5698 B(  3-C ,  5-H ) :   0.9767 B(  4-C , 20-C ) :   1.0079
B(  6-C ,  7-H ) :   0.9390 B(  6-C ,  8-H ) :   0.9393 B(  6-C ,  9-C ) :   1.0652
B(  9-C , 10-H ) :   0.9563 B(  9-C , 11-H ) :   0.9555 B(  9-C , 12-C ) :   1.0764
B( 12-C , 13-H ) :   0.9734 B( 12-C , 14-H ) :   0.9684 B( 12-C , 15-H ) :   0.9733
B( 16-S , 17-C ) :   1.1640 B( 16-S , 20-C ) :   1.1473 B( 17-C , 18-C ) :   1.6008
B( 17-C , 20-C ) :   0.1044 B( 17-C , 33-H ) :   0.9645 B( 18-C , 19-C ) :   1.2347
B( 18-C , 21-H ) :   0.9891 B( 19-C , 20-C ) :   1.5647 B( 19-C , 22-C ) :   1.0318
B( 22-C , 23-H ) :   0.9371 B( 22-C , 24-H ) :   0.9342 B( 22-C , 25-C ) :   1.0677
B( 25-C , 26-H ) :   0.9609 B( 25-C , 27-H ) :   0.9541 B( 25-C , 28-C ) :   1.0872
B( 28-C , 29-H ) :   0.9730 B( 28-C , 30-H ) :   0.9670 B( 28-C , 31-H ) :   0.9751

Dispersion correction           -0.015386396
FINAL SINGLE POINT ENERGY     -1339.863489303130

DIPOLE MOMENT
-------------
                                X             Y             Z
Electronic contribution:     16.74808     -14.60686      -0.20660
Nuclear contribution   :    -17.10430      14.94716       0.31311
                        -----------------------------------------
Total Dipole Moment    :     -0.35622       0.34030       0.10651
                        -----------------------------------------
Magnitude (a.u.)       :      0.50402
Magnitude (Debye)      :      1.28112

Rotational constants in cm-1:     0.020265     0.008547     0.007687
Rotational constants in MHz :   607.542274   256.217967   230.461558

                             ****ORCA TERMINATED NORMALLY****
TOTAL RUN TIME: 0 days 0 hours 0 minutes 22 seconds 544 msec
