                         Program Version 4.2.1 -  RELEASE  -
|  1> ! wB97X-D3 SP def2-SVP
|  2> %pal
|  3> nprocs 24
|  4> end
|  5>
|  6> * xyz 0 1
|  7> S 	 -115.236 	 16.055 	 -114.858
|  8> C 	 -113.916 	 15.1862 	 -115.345
|  9> C 	 -114.217 	 13.8959 	 -115.805
| 10> C 	 -115.666 	 13.7086 	 -115.875
| 11> C 	 -116.414 	 14.7518 	 -115.304
| 12> H 	 -116.139 	 12.8215 	 -116.244
| 13> C 	 -113.218 	 12.7966 	 -116.215
| 14> H 	 -113.739 	 11.9066 	 -115.97
| 15> H 	 -112.473 	 12.6914 	 -115.439
| 16> C 	 -112.564 	 12.7951 	 -117.598
| 17> H 	 -113.299 	 12.9574 	 -118.401
| 18> H 	 -111.824 	 13.5767 	 -117.593
| 19> C 	 -111.746 	 11.4879 	 -117.743
| 20> H 	 -111.243 	 11.4797 	 -118.735
| 21> H 	 -110.95 	 11.5026 	 -116.944
| 22> H 	 -112.183 	 10.5793 	 -117.869
| 23> S 	 -118.944 	 13.957 	 -114.532
| 24> C 	 -120.392 	 14.9016 	 -115.001
| 25> C 	 -120.004 	 16.0377 	 -115.591
| 26> C 	 -118.584 	 16.0916 	 -115.813
| 27> C 	 -117.866 	 14.9594 	 -115.42
| 28> H 	 -120.776 	 16.7402 	 -115.893
| 29> C 	 -118.025 	 17.2082 	 -116.682
| 30> H 	 -116.96 	 17.3841 	 -116.58
| 31> H 	 -118.493 	 18.2175 	 -116.347
| 32> C 	 -118.296 	 17.2236 	 -118.204
| 33> H 	 -118.004 	 18.126 	 -118.706
| 34> H 	 -119.299 	 16.9776 	 -118.554
| 35> C 	 -117.423 	 16.1848 	 -118.936
| 36> H 	 -117.753 	 16.2611 	 -120.04
| 37> H 	 -117.514 	 15.1144 	 -118.612
| 38> H 	 -116.339 	 16.2497 	 -118.814
| 39> H 	 -112.925 	 15.6031 	 -115.268
| 40> H 	 -121.406 	 14.6818 	 -114.758
| 41> *
| 42>
| 43>                          ****END OF INPUT****

CARTESIAN COORDINATES (ANGSTROEM)
---------------------------------
  S    -115.236000   16.055000  -114.858000
  C    -113.916000   15.186200  -115.345000
  C    -114.217000   13.895900  -115.805000
  C    -115.666000   13.708600  -115.875000
  C    -116.414000   14.751800  -115.304000
  H    -116.139000   12.821500  -116.244000
  C    -113.218000   12.796600  -116.215000
  H    -113.739000   11.906600  -115.970000
  H    -112.473000   12.691400  -115.439000
  C    -112.564000   12.795100  -117.598000
  H    -113.299000   12.957400  -118.401000
  H    -111.824000   13.576700  -117.593000
  C    -111.746000   11.487900  -117.743000
  H    -111.243000   11.479700  -118.735000
  H    -110.950000   11.502600  -116.944000
  H    -112.183000   10.579300  -117.869000
  S    -118.944000   13.957000  -114.532000
  C    -120.392000   14.901600  -115.001000
  C    -120.004000   16.037700  -115.591000
  C    -118.584000   16.091600  -115.813000
  C    -117.866000   14.959400  -115.420000
  H    -120.776000   16.740200  -115.893000
  C    -118.025000   17.208200  -116.682000
  H    -116.960000   17.384100  -116.580000
  H    -118.493000   18.217500  -116.347000
  C    -118.296000   17.223600  -118.204000
  H    -118.004000   18.126000  -118.706000
  H    -119.299000   16.977600  -118.554000
  C    -117.423000   16.184800  -118.936000
  H    -117.753000   16.261100  -120.040000
  H    -117.514000   15.114400  -118.612000
  H    -116.339000   16.249700  -118.814000
  H    -112.925000   15.603100  -115.268000
  H    -121.406000   14.681800  -114.758000

 Total Charge           Charge          ....    0
 Multiplicity           Mult            ....    1
 Number of Electrons    NEL             ....  134
 Basis Dimension        Dim             ....  322

ORBITAL ENERGIES
----------------

  NO   OCC          E(Eh)            E(eV)
   0   2.0000     -88.969551     -2420.9846
   1   2.0000     -88.961304     -2420.7602
   2   2.0000     -10.336675      -281.2752
   3   2.0000     -10.329805      -281.0883
   4   2.0000     -10.315235      -280.6918
   5   2.0000     -10.314781      -280.6795
   6   2.0000     -10.306852      -280.4637
   7   2.0000     -10.305446      -280.4255
   8   2.0000     -10.302723      -280.3514
   9   2.0000     -10.292475      -280.0725
  10   2.0000     -10.292295      -280.0676
  11   2.0000     -10.292273      -280.0670
  12   2.0000     -10.288459      -279.9632
  13   2.0000     -10.282520      -279.8016
  14   2.0000     -10.279527      -279.7201
  15   2.0000     -10.274804      -279.5916
  16   2.0000      -8.084715      -219.9963
  17   2.0000      -8.076286      -219.7669
  18   2.0000      -6.043118      -164.4416
  19   2.0000      -6.038958      -164.3284
  20   2.0000      -6.035721      -164.2403
  21   2.0000      -6.034966      -164.2198
  22   2.0000      -6.030663      -164.1027
  23   2.0000      -6.026915      -164.0007
  24   2.0000      -1.006405       -27.3857
  25   2.0000      -0.987507       -26.8714
  26   2.0000      -0.910241       -24.7689
  27   2.0000      -0.899057       -24.4646
  28   2.0000      -0.877868       -23.8880
  29   2.0000      -0.851915       -23.1818
  30   2.0000      -0.839486       -22.8436
  31   2.0000      -0.820335       -22.3224
  32   2.0000      -0.778353       -21.1801
  33   2.0000      -0.763007       -20.7625
  34   2.0000      -0.710979       -19.3467
  35   2.0000      -0.703178       -19.1344
  36   2.0000      -0.688972       -18.7479
  37   2.0000      -0.661389       -17.9973
  38   2.0000      -0.647101       -17.6085
  39   2.0000      -0.618257       -16.8236
  40   2.0000      -0.596911       -16.2428
  41   2.0000      -0.574577       -15.6350
  42   2.0000      -0.566316       -15.4102
  43   2.0000      -0.540802       -14.7160
  44   2.0000      -0.531261       -14.4564
  45   2.0000      -0.522843       -14.2273
  46   2.0000      -0.517533       -14.0828
  47   2.0000      -0.513469       -13.9722
  48   2.0000      -0.505700       -13.7608
  49   2.0000      -0.500789       -13.6271
  50   2.0000      -0.489762       -13.3271
  51   2.0000      -0.481931       -13.1140
  52   2.0000      -0.469215       -12.7680
  53   2.0000      -0.464833       -12.6487
  54   2.0000      -0.457085       -12.4379
  55   2.0000      -0.448341       -12.2000
  56   2.0000      -0.440650       -11.9907
  57   2.0000      -0.433212       -11.7883
  58   2.0000      -0.425961       -11.5910
  59   2.0000      -0.422097       -11.4858
  60   2.0000      -0.416101       -11.3227
  61   2.0000      -0.410846       -11.1797
  62   2.0000      -0.400303       -10.8928
  63   2.0000      -0.356127        -9.6907
  64   2.0000      -0.333630        -9.0785
  65   2.0000      -0.319831        -8.7030
  66   2.0000      -0.295958        -8.0534
  67   0.0000       0.027191         0.7399
  68   0.0000       0.070424         1.9163
  69   0.0000       0.108068         2.9407
  70   0.0000       0.117087         3.1861
  71   0.0000       0.127647         3.4735

MULLIKEN ATOMIC CHARGES
-----------------------
   0 S :    0.125012
   1 C :   -0.113696
   2 C :   -0.102926
   3 C :    0.031901
   4 C :   -0.146633
   5 H :    0.015659
   6 C :    0.067078
   7 H :    0.002841
   8 H :    0.010647
   9 C :   -0.017836
  10 H :    0.039666
  11 H :    0.024946
  12 C :   -0.056362
  13 H :    0.024147
  14 H :    0.040393
  15 H :    0.015756
  16 S :    0.085910
  17 C :   -0.079760
  18 C :   -0.017144
  19 C :   -0.048165
  20 C :   -0.107344
  21 H :    0.026116
  22 C :    0.025237
  23 H :    0.017399
  24 H :    0.030752
  25 C :   -0.021494
  26 H :    0.026256
  27 H :    0.024839
  28 C :   -0.123464
  29 H :    0.040027
  30 H :    0.033679
  31 H :    0.028164
  32 H :    0.052460
  33 H :    0.045939
Sum of atomic charges:   -0.0000000

LOEWDIN ATOMIC CHARGES
----------------------
   0 S :    0.442315
   1 C :   -0.215651
   2 C :   -0.070992
   3 C :   -0.043143
   4 C :   -0.191861
   5 H :    0.029279
   6 C :   -0.040769
   7 H :    0.026075
   8 H :    0.030108
   9 C :   -0.029899
  10 H :    0.027809
  11 H :    0.024752
  12 C :   -0.066253
  13 H :    0.032390
  14 H :    0.033336
  15 H :    0.009864
  16 S :    0.397412
  17 C :   -0.162989
  18 C :   -0.066797
  19 C :   -0.062934
  20 C :   -0.207800
  21 H :    0.037988
  22 C :   -0.043637
  23 H :    0.016219
  24 H :    0.037767
  25 C :   -0.039918
  26 H :    0.025327
  27 H :    0.023224
  28 C :   -0.083983
  29 H :    0.031888
  30 H :    0.024859
  31 H :    0.019766
  32 H :    0.028984
  33 H :    0.027262

  Mayer bond orders larger than 0.100000
B(  0-S ,  1-C ) :   1.1980 B(  0-S ,  4-C ) :   1.1373 B(  1-C ,  2-C ) :   1.5607
B(  1-C , 32-H ) :   0.9701 B(  2-C ,  3-C ) :   1.2755 B(  2-C ,  6-C ) :   1.0120
B(  3-C ,  4-C ) :   1.5492 B(  3-C ,  5-H ) :   0.9903 B(  4-C , 20-C ) :   1.0364
B(  6-C ,  7-H ) :   0.9398 B(  6-C ,  8-H ) :   0.9352 B(  6-C ,  9-C ) :   1.0593
B(  9-C , 10-H ) :   0.9591 B(  9-C , 11-H ) :   0.9530 B(  9-C , 12-C ) :   1.0743
B( 12-C , 13-H ) :   0.9695 B( 12-C , 14-H ) :   0.9748 B( 12-C , 15-H ) :   0.9791
B( 16-S , 17-C ) :   1.1388 B( 16-S , 20-C ) :   1.1373 B( 17-C , 18-C ) :   1.6333
B( 17-C , 33-H ) :   0.9704 B( 18-C , 19-C ) :   1.2199 B( 18-C , 21-H ) :   0.9938
B( 19-C , 20-C ) :   1.5796 B( 19-C , 22-C ) :   1.0558 B( 22-C , 23-H ) :   0.9365
B( 22-C , 24-H ) :   0.9344 B( 22-C , 25-C ) :   1.0704 B( 25-C , 26-H ) :   0.9539
B( 25-C , 27-H ) :   0.9585 B( 25-C , 28-C ) :   1.0614 B( 28-C , 29-H ) :   0.9758
B( 28-C , 30-H ) :   0.9755 B( 28-C , 31-H ) :   0.9757

Dispersion correction           -0.014621752
FINAL SINGLE POINT ENERGY     -1339.854336622242

DIPOLE MOMENT
-------------
                                X             Y             Z
Electronic contribution:    -13.83958       3.98526      20.66196
Nuclear contribution   :     14.07144      -3.99505     -21.05078
                        -----------------------------------------
Total Dipole Moment    :      0.23186      -0.00979      -0.38883
                        -----------------------------------------
Magnitude (a.u.)       :      0.45282
Magnitude (Debye)      :      1.15097

Rotational constants in cm-1:     0.021433     0.007487     0.006864
Rotational constants in MHz :   642.541575   224.453298   205.778563

                             ****ORCA TERMINATED NORMALLY****
TOTAL RUN TIME: 0 days 0 hours 0 minutes 21 seconds 562 msec
