                         Program Version 4.2.1 -  RELEASE  -
|  1> ! wB97X-D3 SP def2-SVP
|  2> %pal
|  3> nprocs 24
|  4> end
|  5>
|  6> * xyz 0 1
|  7> S 	 -46.9697 	 20.5403 	 31.0542
|  8> C 	 -46.9179 	 21.8904 	 29.8607
|  9> C 	 -45.7768 	 21.6582 	 29.0794
| 10> C 	 -45.0198 	 20.5004 	 29.414
| 11> C 	 -45.5627 	 19.6616 	 30.3929
| 12> H 	 -44.2046 	 20.1219 	 28.9026
| 13> C 	 -45.1438 	 22.6541 	 28.1515
| 14> H 	 -44.0678 	 22.5307 	 28.0161
| 15> H 	 -45.411 	 23.6054 	 28.522
| 16> C 	 -45.6132 	 22.4142 	 26.7239
| 17> H 	 -46.7425 	 22.6037 	 26.7041
| 18> H 	 -45.1111 	 23.2132 	 26.1621
| 19> C 	 -45.4087 	 21.053 	 26.0228
| 20> H 	 -46.0511 	 20.306 	 26.467
| 21> H 	 -45.717 	 21.269 	 24.9807
| 22> H 	 -44.3799 	 20.6522 	 25.9781
| 23> S 	 -43.4384 	 18.2942 	 31.528
| 24> C 	 -43.5851 	 16.6159 	 31.9447
| 25> C 	 -44.9 	 16.2428 	 31.6999
| 26> C 	 -45.7118 	 17.2635 	 31.1937
| 27> C 	 -45.0397 	 18.4155 	 30.9147
| 28> H 	 -45.1557 	 15.2295 	 32.0239
| 29> C 	 -47.2261 	 17.0695 	 30.9467
| 30> H 	 -47.7105 	 18.0243 	 30.7235
| 31> H 	 -47.7219 	 16.7918 	 31.9106
| 32> C 	 -47.5566 	 16.0858 	 29.8001
| 33> H 	 -48.6103 	 15.7417 	 30.0181
| 34> H 	 -46.9436 	 15.1704 	 29.7689
| 35> C 	 -47.3407 	 16.7212 	 28.4045
| 36> H 	 -46.3397 	 16.9575 	 28.2706
| 37> H 	 -47.8751 	 17.6463 	 28.4036
| 38> H 	 -47.657 	 16.1423 	 27.6073
| 39> H 	 -47.5675 	 22.7676 	 29.8103
| 40> H 	 -42.8366 	 15.9276 	 32.3919
| 41> *
| 42>
| 43>                          ****END OF INPUT****

CARTESIAN COORDINATES (ANGSTROEM)
---------------------------------
  S    -46.969700   20.540300   31.054200
  C    -46.917900   21.890400   29.860700
  C    -45.776800   21.658200   29.079400
  C    -45.019800   20.500400   29.414000
  C    -45.562700   19.661600   30.392900
  H    -44.204600   20.121900   28.902600
  C    -45.143800   22.654100   28.151500
  H    -44.067800   22.530700   28.016100
  H    -45.411000   23.605400   28.522000
  C    -45.613200   22.414200   26.723900
  H    -46.742500   22.603700   26.704100
  H    -45.111100   23.213200   26.162100
  C    -45.408700   21.053000   26.022800
  H    -46.051100   20.306000   26.467000
  H    -45.717000   21.269000   24.980700
  H    -44.379900   20.652200   25.978100
  S    -43.438400   18.294200   31.528000
  C    -43.585100   16.615900   31.944700
  C    -44.900000   16.242800   31.699900
  C    -45.711800   17.263500   31.193700
  C    -45.039700   18.415500   30.914700
  H    -45.155700   15.229500   32.023900
  C    -47.226100   17.069500   30.946700
  H    -47.710500   18.024300   30.723500
  H    -47.721900   16.791800   31.910600
  C    -47.556600   16.085800   29.800100
  H    -48.610300   15.741700   30.018100
  H    -46.943600   15.170400   29.768900
  C    -47.340700   16.721200   28.404500
  H    -46.339700   16.957500   28.270600
  H    -47.875100   17.646300   28.403600
  H    -47.657000   16.142300   27.607300
  H    -47.567500   22.767600   29.810300
  H    -42.836600   15.927600   32.391900

 Total Charge           Charge          ....    0
 Multiplicity           Mult            ....    1
 Number of Electrons    NEL             ....  134
 Basis Dimension        Dim             ....  322

ORBITAL ENERGIES
----------------

  NO   OCC          E(Eh)            E(eV)
   0   2.0000     -88.967933     -2420.9405
   1   2.0000     -88.966493     -2420.9014
   2   2.0000     -10.336060      -281.2585
   3   2.0000     -10.325290      -280.9654
   4   2.0000     -10.324356      -280.9400
   5   2.0000     -10.322115      -280.8790
   6   2.0000     -10.302573      -280.3473
   7   2.0000     -10.300371      -280.2873
   8   2.0000     -10.293314      -280.0953
   9   2.0000     -10.291925      -280.0575
  10   2.0000     -10.290110      -280.0081
  11   2.0000     -10.290048      -280.0064
  12   2.0000     -10.287682      -279.9421
  13   2.0000     -10.285069      -279.8709
  14   2.0000     -10.281440      -279.7722
  15   2.0000     -10.258282      -279.1420
  16   2.0000      -8.083184      -219.9546
  17   2.0000      -8.079257      -219.8478
  18   2.0000      -6.041662      -164.4020
  19   2.0000      -6.038018      -164.3028
  20   2.0000      -6.037489      -164.2884
  21   2.0000      -6.034036      -164.1945
  22   2.0000      -6.033816      -164.1885
  23   2.0000      -6.030034      -164.0856
  24   2.0000      -1.013000       -27.5651
  25   2.0000      -0.982840       -26.7444
  26   2.0000      -0.913813       -24.8661
  27   2.0000      -0.902109       -24.5476
  28   2.0000      -0.871273       -23.7085
  29   2.0000      -0.848076       -23.0773
  30   2.0000      -0.838808       -22.8251
  31   2.0000      -0.818247       -22.2656
  32   2.0000      -0.784340       -21.3430
  33   2.0000      -0.776565       -21.1314
  34   2.0000      -0.708929       -19.2909
  35   2.0000      -0.695742       -18.9321
  36   2.0000      -0.689142       -18.7525
  37   2.0000      -0.659529       -17.9467
  38   2.0000      -0.640173       -17.4200
  39   2.0000      -0.616576       -16.7779
  40   2.0000      -0.596493       -16.2314
  41   2.0000      -0.581301       -15.8180
  42   2.0000      -0.555342       -15.1116
  43   2.0000      -0.550519       -14.9804
  44   2.0000      -0.541170       -14.7260
  45   2.0000      -0.532017       -14.4769
  46   2.0000      -0.522070       -14.2062
  47   2.0000      -0.519655       -14.1405
  48   2.0000      -0.506479       -13.7820
  49   2.0000      -0.496718       -13.5164
  50   2.0000      -0.487474       -13.2648
  51   2.0000      -0.480951       -13.0873
  52   2.0000      -0.472478       -12.8568
  53   2.0000      -0.469686       -12.7808
  54   2.0000      -0.459224       -12.4961
  55   2.0000      -0.445202       -12.1146
  56   2.0000      -0.440246       -11.9797
  57   2.0000      -0.436648       -11.8818
  58   2.0000      -0.430991       -11.7279
  59   2.0000      -0.417029       -11.3479
  60   2.0000      -0.410743       -11.1769
  61   2.0000      -0.409278       -11.1370
  62   2.0000      -0.405188       -11.0257
  63   2.0000      -0.347395        -9.4531
  64   2.0000      -0.333612        -9.0780
  65   2.0000      -0.324652        -8.8342
  66   2.0000      -0.297062        -8.0835
  67   0.0000       0.024611         0.6697
  68   0.0000       0.066943         1.8216
  69   0.0000       0.105740         2.8773
  70   0.0000       0.120992         3.2924
  71   0.0000       0.131211         3.5704

MULLIKEN ATOMIC CHARGES
-----------------------
   0 S :    0.091387
   1 C :   -0.128812
   2 C :   -0.086195
   3 C :    0.041065
   4 C :   -0.148364
   5 H :   -0.015134
   6 C :    0.104808
   7 H :    0.029250
   8 H :    0.014999
   9 C :   -0.129359
  10 H :    0.029166
  11 H :    0.029207
  12 C :   -0.054476
  13 H :    0.047926
  14 H :    0.043006
  15 H :    0.035018
  16 S :    0.125078
  17 C :   -0.117513
  18 C :   -0.049911
  19 C :   -0.028930
  20 C :   -0.138766
  21 H :    0.022928
  22 C :    0.055923
  23 H :    0.017022
  24 H :    0.039182
  25 C :   -0.098956
  26 H :    0.034195
  27 H :    0.031440
  28 C :    0.012837
  29 H :    0.018378
  30 H :    0.017198
  31 H :    0.020491
  32 H :    0.060964
  33 H :    0.074947
Sum of atomic charges:   -0.0000000

LOEWDIN ATOMIC CHARGES
----------------------
   0 S :    0.385540
   1 C :   -0.189638
   2 C :   -0.061106
   3 C :   -0.058327
   4 C :   -0.172553
   5 H :    0.017790
   6 C :   -0.029634
   7 H :    0.033702
   8 H :    0.025231
   9 C :   -0.045189
  10 H :    0.026577
  11 H :    0.020425
  12 C :   -0.069834
  13 H :    0.026319
  14 H :    0.035614
  15 H :    0.024079
  16 S :    0.433575
  17 C :   -0.198152
  18 C :   -0.074616
  19 C :   -0.060026
  20 C :   -0.218063
  21 H :    0.034301
  22 C :   -0.035379
  23 H :    0.015743
  24 H :    0.036277
  25 C :   -0.040780
  26 H :    0.027227
  27 H :    0.021648
  28 C :   -0.050845
  29 H :    0.019092
  30 H :    0.022996
  31 H :    0.017108
  32 H :    0.036888
  33 H :    0.044010

  Mayer bond orders larger than 0.100000
B(  0-S ,  1-C ) :   1.1270 B(  0-S ,  4-C ) :   1.1360 B(  1-C ,  2-C ) :   1.5847
B(  1-C ,  4-C ) :   0.1072 B(  1-C , 32-H ) :   0.9716 B(  2-C ,  3-C ) :   1.2428
B(  2-C ,  6-C ) :   1.0208 B(  3-C ,  4-C ) :   1.5592 B(  3-C ,  5-H ) :   1.0062
B(  4-C , 20-C ) :   1.0584 B(  6-C ,  7-H ) :   0.9477 B(  6-C ,  8-H ) :   0.9403
B(  6-C ,  9-C ) :   1.0666 B(  9-C , 10-H ) :   0.9541 B(  9-C , 11-H ) :   0.9608
B(  9-C , 12-C ) :   1.0776 B( 12-C , 13-H ) :   0.9705 B( 12-C , 14-H ) :   0.9713
B( 12-C , 15-H ) :   0.9737 B( 16-S , 17-C ) :   1.1680 B( 16-S , 20-C ) :   1.1507
B( 17-C , 18-C ) :   1.5821 B( 17-C , 20-C ) :   0.1003 B( 17-C , 33-H ) :   0.9645
B( 18-C , 19-C ) :   1.2680 B( 18-C , 21-H ) :   0.9917 B( 19-C , 20-C ) :   1.5509
B( 19-C , 22-C ) :   1.0391 B( 22-C , 23-H ) :   0.9284 B( 22-C , 24-H ) :   0.9388
B( 22-C , 25-C ) :   1.0610 B( 25-C , 26-H ) :   0.9565 B( 25-C , 27-H ) :   0.9636
B( 25-C , 28-C ) :   1.0667 B( 28-C , 29-H ) :   0.9749 B( 28-C , 30-H ) :   0.9743
B( 28-C , 31-H ) :   0.9735

Dispersion correction           -0.015430069
FINAL SINGLE POINT ENERGY     -1339.868794090512

DIPOLE MOMENT
-------------
                                X             Y             Z
Electronic contribution:      7.90991       1.22074      21.26396
Nuclear contribution   :     -7.88709      -1.28407     -21.55341
                        -----------------------------------------
Total Dipole Moment    :      0.02282      -0.06334      -0.28945
                        -----------------------------------------
Magnitude (a.u.)       :      0.29717
Magnitude (Debye)      :      0.75535

Rotational constants in cm-1:     0.019640     0.008861     0.008069
Rotational constants in MHz :   588.795685   265.644507   241.900018

                             ****ORCA TERMINATED NORMALLY****
TOTAL RUN TIME: 0 days 0 hours 0 minutes 22 seconds 205 msec
