                         Program Version 4.2.1 -  RELEASE  -
|  1> ! wB97X-D3 SP def2-SVP
|  2> %pal
|  3> nprocs 24
|  4> end
|  5>
|  6> * xyz 0 1
|  7> S 	 20.7562 	 -25.8266 	 -118.276
|  8> C 	 22.1693 	 -26.2654 	 -119.157
|  9> C 	 23.1177 	 -25.2332 	 -119.14
| 10> C 	 22.6451 	 -24.0602 	 -118.517
| 11> C 	 21.428 	 -24.2631 	 -117.899
| 12> H 	 23.2752 	 -23.224 	 -118.383
| 13> C 	 24.5139 	 -25.1977 	 -119.777
| 14> H 	 24.525 	 -25.9675 	 -120.457
| 15> H 	 25.2972 	 -25.296 	 -119.039
| 16> C 	 24.8823 	 -23.9746 	 -120.693
| 17> H 	 24.0407 	 -23.8654 	 -121.341
| 18> H 	 24.8911 	 -22.9812 	 -120.201
| 19> C 	 26.236 	 -24.1056 	 -121.479
| 20> H 	 26.4285 	 -23.1552 	 -122.022
| 21> H 	 27.0395 	 -24.2128 	 -120.729
| 22> H 	 26.4174 	 -24.9565 	 -122.156
| 23> S 	 19.828 	 -24.3067 	 -115.69
| 24> C 	 19.3955 	 -22.715 	 -114.933
| 25> C 	 19.9355 	 -21.6562 	 -115.622
| 26> C 	 20.8028 	 -22.057 	 -116.696
| 27> C 	 20.739 	 -23.4198 	 -116.92
| 28> H 	 19.8906 	 -20.6084 	 -115.398
| 29> C 	 21.474 	 -21.0113 	 -117.553
| 30> H 	 20.7673 	 -20.1605 	 -117.598
| 31> H 	 21.8089 	 -21.2641 	 -118.609
| 32> C 	 22.7863 	 -20.5634 	 -116.977
| 33> H 	 23.4964 	 -21.3609 	 -116.88
| 34> H 	 22.6955 	 -20.1848 	 -115.956
| 35> C 	 23.3476 	 -19.3408 	 -117.709
| 36> H 	 24.2252 	 -18.8829 	 -117.176
| 37> H 	 22.5751 	 -18.5455 	 -117.745
| 38> H 	 23.6263 	 -19.5276 	 -118.707
| 39> H 	 22.2527 	 -27.2585 	 -119.517
| 40> H 	 18.813 	 -22.5566 	 -114.041
| 41> *
| 42>
| 43>                          ****END OF INPUT****

CARTESIAN COORDINATES (ANGSTROEM)
---------------------------------
  S     20.756200  -25.826600  -118.276000
  C     22.169300  -26.265400  -119.157000
  C     23.117700  -25.233200  -119.140000
  C     22.645100  -24.060200  -118.517000
  C     21.428000  -24.263100  -117.899000
  H     23.275200  -23.224000  -118.383000
  C     24.513900  -25.197700  -119.777000
  H     24.525000  -25.967500  -120.457000
  H     25.297200  -25.296000  -119.039000
  C     24.882300  -23.974600  -120.693000
  H     24.040700  -23.865400  -121.341000
  H     24.891100  -22.981200  -120.201000
  C     26.236000  -24.105600  -121.479000
  H     26.428500  -23.155200  -122.022000
  H     27.039500  -24.212800  -120.729000
  H     26.417400  -24.956500  -122.156000
  S     19.828000  -24.306700  -115.690000
  C     19.395500  -22.715000  -114.933000
  C     19.935500  -21.656200  -115.622000
  C     20.802800  -22.057000  -116.696000
  C     20.739000  -23.419800  -116.920000
  H     19.890600  -20.608400  -115.398000
  C     21.474000  -21.011300  -117.553000
  H     20.767300  -20.160500  -117.598000
  H     21.808900  -21.264100  -118.609000
  C     22.786300  -20.563400  -116.977000
  H     23.496400  -21.360900  -116.880000
  H     22.695500  -20.184800  -115.956000
  C     23.347600  -19.340800  -117.709000
  H     24.225200  -18.882900  -117.176000
  H     22.575100  -18.545500  -117.745000
  H     23.626300  -19.527600  -118.707000
  H     22.252700  -27.258500  -119.517000
  H     18.813000  -22.556600  -114.041000

 Total Charge           Charge          ....    0
 Multiplicity           Mult            ....    1
 Number of Electrons    NEL             ....  134
 Basis Dimension        Dim             ....  322

ORBITAL ENERGIES
----------------

  NO   OCC          E(Eh)            E(eV)
   0   2.0000     -88.968824     -2420.9648
   1   2.0000     -88.967938     -2420.9407
   2   2.0000     -10.329759      -281.0870
   3   2.0000     -10.328715      -281.0586
   4   2.0000     -10.321759      -280.8694
   5   2.0000     -10.312335      -280.6129
   6   2.0000     -10.303183      -280.3639
   7   2.0000     -10.301708      -280.3237
   8   2.0000     -10.298821      -280.2452
   9   2.0000     -10.295906      -280.1658
  10   2.0000     -10.292754      -280.0801
  11   2.0000     -10.288941      -279.9763
  12   2.0000     -10.288488      -279.9640
  13   2.0000     -10.288022      -279.9513
  14   2.0000     -10.283744      -279.8349
  15   2.0000     -10.280619      -279.7499
  16   2.0000      -8.083325      -219.9585
  17   2.0000      -8.082201      -219.9279
  18   2.0000      -6.041684      -164.4026
  19   2.0000      -6.040955      -164.3827
  20   2.0000      -6.037714      -164.2945
  21   2.0000      -6.037048      -164.2764
  22   2.0000      -6.034256      -164.2004
  23   2.0000      -6.032622      -164.1560
  24   2.0000      -1.008754       -27.4496
  25   2.0000      -0.981780       -26.7156
  26   2.0000      -0.917306       -24.9612
  27   2.0000      -0.906114       -24.6566
  28   2.0000      -0.867905       -23.6169
  29   2.0000      -0.855591       -23.2818
  30   2.0000      -0.846628       -23.0379
  31   2.0000      -0.814099       -22.1528
  32   2.0000      -0.781860       -21.2755
  33   2.0000      -0.771126       -20.9834
  34   2.0000      -0.709813       -19.3150
  35   2.0000      -0.701762       -19.0959
  36   2.0000      -0.693249       -18.8643
  37   2.0000      -0.669170       -18.2090
  38   2.0000      -0.645800       -17.5731
  39   2.0000      -0.629902       -17.1405
  40   2.0000      -0.602596       -16.3975
  41   2.0000      -0.571681       -15.5562
  42   2.0000      -0.567942       -15.4545
  43   2.0000      -0.554435       -15.0870
  44   2.0000      -0.524423       -14.2703
  45   2.0000      -0.521774       -14.1982
  46   2.0000      -0.516535       -14.0556
  47   2.0000      -0.510246       -13.8845
  48   2.0000      -0.505655       -13.7596
  49   2.0000      -0.495105       -13.4725
  50   2.0000      -0.490160       -13.3379
  51   2.0000      -0.484367       -13.1803
  52   2.0000      -0.475504       -12.9391
  53   2.0000      -0.468313       -12.7434
  54   2.0000      -0.459752       -12.5105
  55   2.0000      -0.455012       -12.3815
  56   2.0000      -0.447883       -12.1875
  57   2.0000      -0.441002       -12.0003
  58   2.0000      -0.430112       -11.7039
  59   2.0000      -0.423929       -11.5357
  60   2.0000      -0.421366       -11.4659
  61   2.0000      -0.420723       -11.4484
  62   2.0000      -0.415796       -11.3144
  63   2.0000      -0.358378        -9.7520
  64   2.0000      -0.336866        -9.1666
  65   2.0000      -0.331074        -9.0090
  66   2.0000      -0.282107        -7.6765
  67   0.0000       0.022248         0.6054
  68   0.0000       0.072827         1.9817
  69   0.0000       0.100446         2.7333
  70   0.0000       0.119388         3.2487
  71   0.0000       0.122260         3.3269

MULLIKEN ATOMIC CHARGES
-----------------------
   0 S :    0.105314
   1 C :   -0.124112
   2 C :   -0.088532
   3 C :    0.015040
   4 C :   -0.102647
   5 H :   -0.018413
   6 C :    0.123153
   7 H :   -0.002963
   8 H :    0.038208
   9 C :   -0.107385
  10 H :    0.025343
  11 H :    0.029756
  12 C :   -0.072901
  13 H :    0.045247
  14 H :    0.028213
  15 H :    0.042147
  16 S :    0.091614
  17 C :   -0.078562
  18 C :    0.003858
  19 C :   -0.045944
  20 C :   -0.107081
  21 H :    0.010830
  22 C :    0.013364
  23 H :    0.028875
  24 H :    0.039949
  25 C :   -0.080592
  26 H :    0.030295
  27 H :    0.017087
  28 C :   -0.036771
  29 H :    0.041480
  30 H :    0.024422
  31 H :    0.017554
  32 H :    0.039992
  33 H :    0.054161
Sum of atomic charges:   -0.0000000

LOEWDIN ATOMIC CHARGES
----------------------
   0 S :    0.421688
   1 C :   -0.205533
   2 C :   -0.055036
   3 C :   -0.064673
   4 C :   -0.181867
   5 H :    0.022977
   6 C :   -0.022475
   7 H :    0.019254
   8 H :    0.030029
   9 C :   -0.041988
  10 H :    0.019424
  11 H :    0.022822
  12 C :   -0.072417
  13 H :    0.033566
  14 H :    0.025947
  15 H :    0.026596
  16 S :    0.368522
  17 C :   -0.165489
  18 C :   -0.057941
  19 C :   -0.060236
  20 C :   -0.181554
  21 H :    0.029573
  22 C :   -0.036059
  23 H :    0.033217
  24 H :    0.038327
  25 C :   -0.045381
  26 H :    0.018812
  27 H :    0.022730
  28 C :   -0.063690
  29 H :    0.032905
  30 H :    0.026647
  31 H :    0.012339
  32 H :    0.019764
  33 H :    0.029197

  Mayer bond orders larger than 0.100000
B(  0-S ,  1-C ) :   1.1457 B(  0-S ,  4-C ) :   1.1673 B(  1-C ,  2-C ) :   1.5782
B(  1-C , 32-H ) :   0.9778 B(  2-C ,  3-C ) :   1.2780 B(  2-C ,  6-C ) :   1.0246
B(  3-C ,  4-C ) :   1.5304 B(  3-C ,  5-H ) :   0.9987 B(  4-C , 20-C ) :   1.0546
B(  6-C ,  7-H ) :   0.9395 B(  6-C ,  8-H ) :   0.9352 B(  6-C ,  9-C ) :   1.0576
B(  9-C , 10-H ) :   0.9600 B(  9-C , 11-H ) :   0.9517 B(  9-C , 12-C ) :   1.0744
B( 12-C , 13-H ) :   0.9750 B( 12-C , 14-H ) :   0.9754 B( 12-C , 15-H ) :   0.9781
B( 16-S , 17-C ) :   1.1139 B( 16-S , 20-C ) :   1.1183 B( 17-C , 18-C ) :   1.6339
B( 17-C , 33-H ) :   0.9686 B( 18-C , 19-C ) :   1.2290 B( 18-C , 21-H ) :   0.9802
B( 19-C , 20-C ) :   1.6311 B( 19-C , 22-C ) :   1.0369 B( 22-C , 23-H ) :   0.9370
B( 22-C , 24-H ) :   0.9431 B( 22-C , 25-C ) :   1.0576 B( 25-C , 26-H ) :   0.9516
B( 25-C , 27-H ) :   0.9502 B( 25-C , 28-C ) :   1.0797 B( 28-C , 29-H ) :   0.9746
B( 28-C , 30-H ) :   0.9723 B( 28-C , 31-H ) :   0.9732

Dispersion correction           -0.013937523
FINAL SINGLE POINT ENERGY     -1339.876160172237

DIPOLE MOMENT
-------------
                                X             Y             Z
Electronic contribution:    -25.19878     -18.75861      13.87239
Nuclear contribution   :     25.72911      19.22628     -13.98203
                        -----------------------------------------
Total Dipole Moment    :      0.53034       0.46766      -0.10964
                        -----------------------------------------
Magnitude (a.u.)       :      0.71553
Magnitude (Debye)      :      1.81873

Rotational constants in cm-1:     0.016797     0.009660     0.006340
Rotational constants in MHz :   503.554360   289.597070   190.075105

                             ****ORCA TERMINATED NORMALLY****
TOTAL RUN TIME: 0 days 0 hours 0 minutes 20 seconds 581 msec
