                         Program Version 4.2.1 -  RELEASE  -
|  1> ! wB97X-D3 SP def2-SVP
|  2> %pal
|  3> nprocs 24
|  4> end
|  5>
|  6> * xyz 0 1
|  7> S 	 23.0259 	 -24.3626 	 -119.754
|  8> C 	 24.4943 	 -25.3395 	 -119.597
|  9> C 	 25.1334 	 -25.2101 	 -118.358
| 10> C 	 24.3912 	 -24.2568 	 -117.516
| 11> C 	 23.3358 	 -23.6743 	 -118.192
| 12> H 	 24.6376 	 -23.9846 	 -116.467
| 13> C 	 26.478 	 -25.7552 	 -118.037
| 14> H 	 26.7799 	 -26.2855 	 -118.966
| 15> H 	 26.4551 	 -26.443 	 -117.188
| 16> C 	 27.602 	 -24.8106 	 -117.691
| 17> H 	 27.6312 	 -23.9252 	 -118.376
| 18> H 	 27.3552 	 -24.342 	 -116.667
| 19> C 	 28.9815 	 -25.4398 	 -117.488
| 20> H 	 29.3499 	 -25.9486 	 -118.383
| 21> H 	 29.6194 	 -24.6844 	 -117.057
| 22> H 	 28.9247 	 -26.1772 	 -116.657
| 23> S 	 22.1103 	 -22.8357 	 -115.913
| 24> C 	 21.4217 	 -21.2558 	 -115.87
| 25> C 	 21.4998 	 -20.5789 	 -117.097
| 26> C 	 22.0235 	 -21.4112 	 -118.156
| 27> C 	 22.4884 	 -22.5951 	 -117.643
| 28> H 	 21.0303 	 -19.5458 	 -117.148
| 29> C 	 22.181 	 -20.9433 	 -119.615
| 30> H 	 22.3396 	 -21.7176 	 -120.352
| 31> H 	 23.0721 	 -20.2964 	 -119.806
| 32> C 	 20.8883 	 -20.2245 	 -120.143
| 33> H 	 20.5795 	 -19.4717 	 -119.423
| 34> H 	 20.0372 	 -20.8536 	 -120.197
| 35> C 	 21.2143 	 -19.5532 	 -121.549
| 36> H 	 22.1594 	 -19.0543 	 -121.489
| 37> H 	 20.4415 	 -18.9183 	 -121.996
| 38> H 	 21.3246 	 -20.3455 	 -122.268
| 39> H 	 24.9462 	 -25.8681 	 -120.46
| 40> H 	 21.0647 	 -20.7632 	 -114.984
| 41> *
| 42>
| 43>                          ****END OF INPUT****

CARTESIAN COORDINATES (ANGSTROEM)
---------------------------------
  S     23.025900  -24.362600  -119.754000
  C     24.494300  -25.339500  -119.597000
  C     25.133400  -25.210100  -118.358000
  C     24.391200  -24.256800  -117.516000
  C     23.335800  -23.674300  -118.192000
  H     24.637600  -23.984600  -116.467000
  C     26.478000  -25.755200  -118.037000
  H     26.779900  -26.285500  -118.966000
  H     26.455100  -26.443000  -117.188000
  C     27.602000  -24.810600  -117.691000
  H     27.631200  -23.925200  -118.376000
  H     27.355200  -24.342000  -116.667000
  C     28.981500  -25.439800  -117.488000
  H     29.349900  -25.948600  -118.383000
  H     29.619400  -24.684400  -117.057000
  H     28.924700  -26.177200  -116.657000
  S     22.110300  -22.835700  -115.913000
  C     21.421700  -21.255800  -115.870000
  C     21.499800  -20.578900  -117.097000
  C     22.023500  -21.411200  -118.156000
  C     22.488400  -22.595100  -117.643000
  H     21.030300  -19.545800  -117.148000
  C     22.181000  -20.943300  -119.615000
  H     22.339600  -21.717600  -120.352000
  H     23.072100  -20.296400  -119.806000
  C     20.888300  -20.224500  -120.143000
  H     20.579500  -19.471700  -119.423000
  H     20.037200  -20.853600  -120.197000
  C     21.214300  -19.553200  -121.549000
  H     22.159400  -19.054300  -121.489000
  H     20.441500  -18.918300  -121.996000
  H     21.324600  -20.345500  -122.268000
  H     24.946200  -25.868100  -120.460000
  H     21.064700  -20.763200  -114.984000

 Total Charge           Charge          ....    0
 Multiplicity           Mult            ....    1
 Number of Electrons    NEL             ....  134
 Basis Dimension        Dim             ....  322

ORBITAL ENERGIES
----------------

  NO   OCC          E(Eh)            E(eV)
   0   2.0000     -88.968800     -2420.9641
   1   2.0000     -88.967464     -2420.9278
   2   2.0000     -10.330398      -281.1044
   3   2.0000     -10.328533      -281.0537
   4   2.0000     -10.318120      -280.7703
   5   2.0000     -10.316641      -280.7301
   6   2.0000     -10.310346      -280.5588
   7   2.0000     -10.307265      -280.4750
   8   2.0000     -10.303213      -280.3647
   9   2.0000     -10.299287      -280.2578
  10   2.0000     -10.298012      -280.2232
  11   2.0000     -10.293046      -280.0880
  12   2.0000     -10.292776      -280.0807
  13   2.0000     -10.287063      -279.9252
  14   2.0000     -10.282875      -279.8113
  15   2.0000     -10.277692      -279.6702
  16   2.0000      -8.083106      -219.9525
  17   2.0000      -8.082009      -219.9227
  18   2.0000      -6.041641      -164.4014
  19   2.0000      -6.040444      -164.3688
  20   2.0000      -6.037801      -164.2969
  21   2.0000      -6.036651      -164.2656
  22   2.0000      -6.033753      -164.1868
  23   2.0000      -6.032745      -164.1593
  24   2.0000      -1.003773       -27.3141
  25   2.0000      -0.979711       -26.6593
  26   2.0000      -0.915142       -24.9023
  27   2.0000      -0.901965       -24.5437
  28   2.0000      -0.865356       -23.5475
  29   2.0000      -0.850538       -23.1443
  30   2.0000      -0.845041       -22.9947
  31   2.0000      -0.808330       -21.9958
  32   2.0000      -0.782167       -21.2839
  33   2.0000      -0.771574       -20.9956
  34   2.0000      -0.707841       -19.2613
  35   2.0000      -0.699932       -19.0461
  36   2.0000      -0.684111       -18.6156
  37   2.0000      -0.660342       -17.9688
  38   2.0000      -0.631339       -17.1796
  39   2.0000      -0.616604       -16.7786
  40   2.0000      -0.600593       -16.3430
  41   2.0000      -0.573963       -15.6183
  42   2.0000      -0.558701       -15.2030
  43   2.0000      -0.557014       -15.1571
  44   2.0000      -0.523781       -14.2528
  45   2.0000      -0.518505       -14.1092
  46   2.0000      -0.512454       -13.9446
  47   2.0000      -0.511456       -13.9174
  48   2.0000      -0.503477       -13.7003
  49   2.0000      -0.498442       -13.5633
  50   2.0000      -0.487045       -13.2532
  51   2.0000      -0.472485       -12.8570
  52   2.0000      -0.467030       -12.7085
  53   2.0000      -0.463905       -12.6235
  54   2.0000      -0.458986       -12.4896
  55   2.0000      -0.453391       -12.3374
  56   2.0000      -0.448340       -12.2000
  57   2.0000      -0.445368       -12.1191
  58   2.0000      -0.435772       -11.8580
  59   2.0000      -0.426097       -11.5947
  60   2.0000      -0.423404       -11.5214
  61   2.0000      -0.412639       -11.2285
  62   2.0000      -0.408422       -11.1137
  63   2.0000      -0.346879        -9.4391
  64   2.0000      -0.333896        -9.0858
  65   2.0000      -0.329030        -8.9534
  66   2.0000      -0.289709        -7.8834
  67   0.0000       0.028278         0.7695
  68   0.0000       0.077951         2.1211
  69   0.0000       0.102037         2.7766
  70   0.0000       0.111453         3.0328
  71   0.0000       0.125883         3.4254

MULLIKEN ATOMIC CHARGES
-----------------------
   0 S :    0.114543
   1 C :   -0.144719
   2 C :   -0.065191
   3 C :   -0.012360
   4 C :   -0.134517
   5 H :    0.034878
   6 C :    0.080724
   7 H :    0.016242
   8 H :    0.031160
   9 C :   -0.136950
  10 H :    0.039301
  11 H :    0.027648
  12 C :   -0.030162
  13 H :    0.042723
  14 H :    0.037522
  15 H :    0.023399
  16 S :    0.107389
  17 C :   -0.088448
  18 C :   -0.079681
  19 C :    0.003044
  20 C :   -0.146067
  21 H :    0.052029
  22 C :    0.045760
  23 H :    0.015596
  24 H :    0.045693
  25 C :   -0.093027
  26 H :    0.024024
  27 H :    0.029331
  28 C :   -0.041241
  29 H :    0.027001
  30 H :    0.039736
  31 H :    0.021926
  32 H :    0.061072
  33 H :    0.051619
Sum of atomic charges:    0.0000000

LOEWDIN ATOMIC CHARGES
----------------------
   0 S :    0.408197
   1 C :   -0.200695
   2 C :   -0.055531
   3 C :   -0.074103
   4 C :   -0.194136
   5 H :    0.032574
   6 C :   -0.041065
   7 H :    0.032539
   8 H :    0.034274
   9 C :   -0.051235
  10 H :    0.025343
  11 H :    0.027169
  12 C :   -0.064287
  13 H :    0.025221
  14 H :    0.030254
  15 H :    0.027668
  16 S :    0.408358
  17 C :   -0.193057
  18 C :   -0.078518
  19 C :   -0.057526
  20 C :   -0.178330
  21 H :    0.043932
  22 C :   -0.032757
  23 H :    0.018173
  24 H :    0.038320
  25 C :   -0.031803
  26 H :    0.016329
  27 H :    0.019656
  28 C :   -0.064082
  29 H :    0.021260
  30 H :    0.028085
  31 H :    0.022418
  32 H :    0.031622
  33 H :    0.025733

  Mayer bond orders larger than 0.100000
B(  0-S ,  1-C ) :   1.1215 B(  0-S ,  4-C ) :   1.1492 B(  1-C ,  2-C ) :   1.6426
B(  1-C , 32-H ) :   0.9560 B(  2-C ,  3-C ) :   1.1987 B(  2-C ,  6-C ) :   1.0495
B(  3-C ,  4-C ) :   1.5999 B(  3-C ,  5-H ) :   0.9796 B(  4-C , 20-C ) :   1.0260
B(  6-C ,  7-H ) :   0.9394 B(  6-C ,  8-H ) :   0.9238 B(  6-C ,  9-C ) :   1.0667
B(  9-C , 10-H ) :   0.9564 B(  9-C , 11-H ) :   0.9469 B(  9-C , 12-C ) :   1.0865
B( 12-C , 13-H ) :   0.9754 B( 12-C , 14-H ) :   0.9714 B( 12-C , 15-H ) :   0.9702
B( 16-S , 17-C ) :   1.1533 B( 16-S , 20-C ) :   1.1346 B( 17-C , 18-C ) :   1.6393
B( 17-C , 33-H ) :   0.9659 B( 18-C , 19-C ) :   1.2091 B( 18-C , 21-H ) :   0.9733
B( 19-C , 20-C ) :   1.6213 B( 19-C , 22-C ) :   1.0282 B( 22-C , 23-H ) :   0.9419
B( 22-C , 24-H ) :   0.9405 B( 22-C , 25-C ) :   1.0360 B( 25-C , 26-H ) :   0.9628
B( 25-C , 27-H ) :   0.9618 B( 25-C , 28-C ) :   1.0685 B( 28-C , 29-H ) :   0.9771
B( 28-C , 30-H ) :   0.9761 B( 28-C , 31-H ) :   0.9762

Dispersion correction           -0.013306854
FINAL SINGLE POINT ENERGY     -1339.881367245029

DIPOLE MOMENT
-------------
                                X             Y             Z
Electronic contribution:    -14.01400      -6.25626       8.77136
Nuclear contribution   :     14.37781       6.52690      -8.81499
                        -----------------------------------------
Total Dipole Moment    :      0.36381       0.27064      -0.04363
                        -----------------------------------------
Magnitude (a.u.)       :      0.45553
Magnitude (Debye)      :      1.15785

Rotational constants in cm-1:     0.019841     0.007338     0.006208
Rotational constants in MHz :   594.812180   219.994860   186.099825

                             ****ORCA TERMINATED NORMALLY****
TOTAL RUN TIME: 0 days 0 hours 0 minutes 21 seconds 570 msec
