                         Program Version 4.2.1 -  RELEASE  -
|  1> ! wB97X-D3 SP def2-SVP
|  2> %pal
|  3> nprocs 24
|  4> end
|  5>
|  6> * xyz 0 1
|  7> S 	 -111.182 	 55.5778 	 -93.1111
|  8> C 	 -109.776 	 55.2287 	 -94.0213
|  9> C 	 -108.62 	 55.5011 	 -93.3051
| 10> C 	 -108.88 	 55.7862 	 -91.9556
| 11> C 	 -110.219 	 55.6313 	 -91.6824
| 12> H 	 -108.196 	 55.9697 	 -91.2571
| 13> C 	 -107.224 	 55.5469 	 -93.8341
| 14> H 	 -107.013 	 56.5844 	 -94.0218
| 15> H 	 -107.207 	 55.2203 	 -94.8196
| 16> C 	 -106.081 	 55.015 	 -92.9263
| 17> H 	 -106.517 	 55.3056 	 -91.9361
| 18> H 	 -106.071 	 53.9214 	 -93.0195
| 19> C 	 -104.771 	 55.7879 	 -93.0889
| 20> H 	 -104.847 	 56.8742 	 -93.0726
| 21> H 	 -104.17 	 55.6242 	 -92.1986
| 22> H 	 -104.224 	 55.4318 	 -93.9563
| 23> S 	 -111.698 	 57.2403 	 -90.0665
| 24> C 	 -111.772 	 56.826 	 -88.3372
| 25> C 	 -111.004 	 55.7285 	 -88.005
| 26> C 	 -110.385 	 55.1784 	 -89.1688
| 27> C 	 -110.674 	 55.8424 	 -90.3458
| 28> H 	 -110.86 	 55.5351 	 -86.9698
| 29> C 	 -109.464 	 53.9901 	 -88.8916
| 30> H 	 -108.538 	 54.3603 	 -89.2129
| 31> H 	 -109.778 	 53.3181 	 -89.6924
| 32> C 	 -109.565 	 53.133 	 -87.5702
| 33> H 	 -110.566 	 52.8105 	 -87.3664
| 34> H 	 -109.328 	 53.8469 	 -86.7612
| 35> C 	 -108.619 	 51.8804 	 -87.5192
| 36> H 	 -107.545 	 52.2402 	 -87.2974
| 37> H 	 -108.587 	 51.3464 	 -88.5194
| 38> H 	 -108.997 	 51.1386 	 -86.8105
| 39> H 	 -109.731 	 55.0244 	 -95.0681
| 40> H 	 -112.196 	 57.5203 	 -87.5664
| 41> *
| 42>
| 43>                          ****END OF INPUT****

CARTESIAN COORDINATES (ANGSTROEM)
---------------------------------
  S    -111.182000   55.577800  -93.111100
  C    -109.776000   55.228700  -94.021300
  C    -108.620000   55.501100  -93.305100
  C    -108.880000   55.786200  -91.955600
  C    -110.219000   55.631300  -91.682400
  H    -108.196000   55.969700  -91.257100
  C    -107.224000   55.546900  -93.834100
  H    -107.013000   56.584400  -94.021800
  H    -107.207000   55.220300  -94.819600
  C    -106.081000   55.015000  -92.926300
  H    -106.517000   55.305600  -91.936100
  H    -106.071000   53.921400  -93.019500
  C    -104.771000   55.787900  -93.088900
  H    -104.847000   56.874200  -93.072600
  H    -104.170000   55.624200  -92.198600
  H    -104.224000   55.431800  -93.956300
  S    -111.698000   57.240300  -90.066500
  C    -111.772000   56.826000  -88.337200
  C    -111.004000   55.728500  -88.005000
  C    -110.385000   55.178400  -89.168800
  C    -110.674000   55.842400  -90.345800
  H    -110.860000   55.535100  -86.969800
  C    -109.464000   53.990100  -88.891600
  H    -108.538000   54.360300  -89.212900
  H    -109.778000   53.318100  -89.692400
  C    -109.565000   53.133000  -87.570200
  H    -110.566000   52.810500  -87.366400
  H    -109.328000   53.846900  -86.761200
  C    -108.619000   51.880400  -87.519200
  H    -107.545000   52.240200  -87.297400
  H    -108.587000   51.346400  -88.519400
  H    -108.997000   51.138600  -86.810500
  H    -109.731000   55.024400  -95.068100
  H    -112.196000   57.520300  -87.566400

 Total Charge           Charge          ....    0
 Multiplicity           Mult            ....    1
 Number of Electrons    NEL             ....  134
 Basis Dimension        Dim             ....  322

ORBITAL ENERGIES
----------------

  NO   OCC          E(Eh)            E(eV)
   0   2.0000     -88.969111     -2420.9726
   1   2.0000     -88.962260     -2420.7862
   2   2.0000     -10.320496      -280.8350
   3   2.0000     -10.319501      -280.8079
   4   2.0000     -10.317274      -280.7473
   5   2.0000     -10.305325      -280.4222
   6   2.0000     -10.301820      -280.3268
   7   2.0000     -10.296529      -280.1828
   8   2.0000     -10.294925      -280.1391
   9   2.0000     -10.293532      -280.1012
  10   2.0000     -10.293282      -280.0944
  11   2.0000     -10.287712      -279.9429
  12   2.0000     -10.287448      -279.9357
  13   2.0000     -10.281229      -279.7665
  14   2.0000     -10.279187      -279.7109
  15   2.0000     -10.278610      -279.6952
  16   2.0000      -8.084712      -219.9962
  17   2.0000      -8.076626      -219.7762
  18   2.0000      -6.043087      -164.4408
  19   2.0000      -6.039330      -164.3385
  20   2.0000      -6.035349      -164.2302
  21   2.0000      -6.035158      -164.2250
  22   2.0000      -6.031310      -164.1203
  23   2.0000      -6.027279      -164.0106
  24   2.0000      -1.013942       -27.5908
  25   2.0000      -0.983801       -26.7706
  26   2.0000      -0.914815       -24.8934
  27   2.0000      -0.899521       -24.4772
  28   2.0000      -0.873626       -23.7726
  29   2.0000      -0.856444       -23.3050
  30   2.0000      -0.844993       -22.9934
  31   2.0000      -0.815896       -22.2017
  32   2.0000      -0.783016       -21.3070
  33   2.0000      -0.768029       -20.8991
  34   2.0000      -0.715464       -19.4688
  35   2.0000      -0.703668       -19.1478
  36   2.0000      -0.693662       -18.8755
  37   2.0000      -0.656954       -17.8766
  38   2.0000      -0.647043       -17.6069
  39   2.0000      -0.629270       -17.1233
  40   2.0000      -0.587168       -15.9777
  41   2.0000      -0.568733       -15.4760
  42   2.0000      -0.564369       -15.3572
  43   2.0000      -0.562412       -15.3040
  44   2.0000      -0.528693       -14.3865
  45   2.0000      -0.523442       -14.2436
  46   2.0000      -0.520374       -14.1601
  47   2.0000      -0.509646       -13.8682
  48   2.0000      -0.503696       -13.7063
  49   2.0000      -0.497024       -13.5247
  50   2.0000      -0.494676       -13.4608
  51   2.0000      -0.483159       -13.1474
  52   2.0000      -0.468345       -12.7443
  53   2.0000      -0.466280       -12.6881
  54   2.0000      -0.463577       -12.6146
  55   2.0000      -0.453257       -12.3338
  56   2.0000      -0.449011       -12.2182
  57   2.0000      -0.438213       -11.9244
  58   2.0000      -0.433598       -11.7988
  59   2.0000      -0.424886       -11.5617
  60   2.0000      -0.417834       -11.3698
  61   2.0000      -0.415024       -11.2934
  62   2.0000      -0.409495       -11.1429
  63   2.0000      -0.343897        -9.3579
  64   2.0000      -0.329116        -8.9557
  65   2.0000      -0.325064        -8.8454
  66   2.0000      -0.288394        -7.8476
  67   0.0000       0.034045         0.9264
  68   0.0000       0.064737         1.7616
  69   0.0000       0.107481         2.9247
  70   0.0000       0.128751         3.5035
  71   0.0000       0.136277         3.7083

MULLIKEN ATOMIC CHARGES
-----------------------
   0 S :    0.136680
   1 C :   -0.106459
   2 C :   -0.087059
   3 C :    0.042813
   4 C :   -0.147498
   5 H :   -0.033789
   6 C :    0.130863
   7 H :    0.017543
   8 H :   -0.017800
   9 C :   -0.095252
  10 H :    0.022691
  11 H :    0.047858
  12 C :   -0.042489
  13 H :    0.032972
  14 H :    0.029374
  15 H :    0.043097
  16 S :    0.096635
  17 C :   -0.106250
  18 C :   -0.048647
  19 C :   -0.050209
  20 C :   -0.173602
  21 H :    0.014654
  22 C :    0.092815
  23 H :    0.015959
  24 H :    0.027967
  25 C :   -0.072686
  26 H :    0.031583
  27 H :    0.035821
  28 C :   -0.075859
  29 H :    0.051899
  30 H :    0.042698
  31 H :    0.046385
  32 H :    0.029238
  33 H :    0.068054
Sum of atomic charges:   -0.0000000

LOEWDIN ATOMIC CHARGES
----------------------
   0 S :    0.436706
   1 C :   -0.213032
   2 C :   -0.055672
   3 C :   -0.043361
   4 C :   -0.200618
   5 H :    0.006023
   6 C :   -0.035270
   7 H :    0.034604
   8 H :    0.016012
   9 C :   -0.038924
  10 H :    0.027374
  11 H :    0.030270
  12 C :   -0.066648
  13 H :    0.028415
  14 H :    0.028724
  15 H :    0.026507
  16 S :    0.384319
  17 C :   -0.179779
  18 C :   -0.075434
  19 C :   -0.051033
  20 C :   -0.203821
  21 H :    0.029840
  22 C :   -0.034171
  23 H :    0.023253
  24 H :    0.037056
  25 C :   -0.039430
  26 H :    0.023429
  27 H :    0.022946
  28 C :   -0.072752
  29 H :    0.036069
  30 H :    0.031891
  31 H :    0.028863
  32 H :    0.022448
  33 H :    0.035198

  Mayer bond orders larger than 0.100000
B(  0-S ,  1-C ) :   1.1388 B(  0-S ,  4-C ) :   1.1654 B(  1-C ,  2-C ) :   1.5937
B(  1-C , 32-H ) :   0.9685 B(  2-C ,  3-C ) :   1.2510 B(  2-C ,  6-C ) :   1.0407
B(  3-C ,  4-C ) :   1.5316 B(  3-C ,  5-H ) :   1.0148 B(  4-C , 20-C ) :   1.0577
B(  6-C ,  7-H ) :   0.9252 B(  6-C ,  8-H ) :   0.9200 B(  6-C ,  9-C ) :   1.0389
B(  9-C , 10-H ) :   0.9622 B(  9-C , 11-H ) :   0.9583 B(  9-C , 12-C ) :   1.0811
B( 12-C , 13-H ) :   0.9711 B( 12-C , 14-H ) :   0.9729 B( 12-C , 15-H ) :   0.9773
B( 16-S , 17-C ) :   1.1468 B( 16-S , 20-C ) :   1.1273 B( 17-C , 18-C ) :   1.6324
B( 17-C , 33-H ) :   0.9543 B( 18-C , 19-C ) :   1.2230 B( 18-C , 21-H ) :   0.9922
B( 19-C , 20-C ) :   1.6366 B( 19-C , 22-C ) :   1.0049 B( 22-C , 23-H ) :   0.9316
B( 22-C , 24-H ) :   0.9241 B( 22-C , 25-C ) :   1.0633 B( 25-C , 26-H ) :   0.9583
B( 25-C , 27-H ) :   0.9495 B( 25-C , 28-C ) :   1.0712 B( 28-C , 29-H ) :   0.9767
B( 28-C , 30-H ) :   0.9760 B( 28-C , 31-H ) :   0.9753

Dispersion correction           -0.013637531
FINAL SINGLE POINT ENERGY     -1339.842291506216

DIPOLE MOMENT
-------------
                                X             Y             Z
Electronic contribution:    -26.13081      13.77065      -7.02053
Nuclear contribution   :     26.85131     -13.92233       7.22699
                        -----------------------------------------
Total Dipole Moment    :      0.72050      -0.15168       0.20647
                        -----------------------------------------
Magnitude (a.u.)       :      0.76469
Magnitude (Debye)      :      1.94369

Rotational constants in cm-1:     0.014843     0.009242     0.006725
Rotational constants in MHz :   444.983223   277.061598   201.595977

                             ****ORCA TERMINATED NORMALLY****
TOTAL RUN TIME: 0 days 0 hours 0 minutes 20 seconds 187 msec
