                         Program Version 4.2.1 -  RELEASE  -
|  1> ! wB97X-D3 SP def2-SVP
|  2> %pal
|  3> nprocs 24
|  4> end
|  5>
|  6> * xyz 0 1
|  7> S 	 17.9066 	 -6.61477 	 -116.834
|  8> C 	 17.6 	 -7.31408 	 -115.271
|  9> C 	 16.3256 	 -7.21333 	 -114.843
| 10> C 	 15.5943 	 -6.43558 	 -115.774
| 11> C 	 16.3418 	 -5.9197 	 -116.775
| 12> H 	 14.6521 	 -5.99687 	 -115.731
| 13> C 	 15.664 	 -7.85542 	 -113.636
| 14> H 	 16.4163 	 -8.24141 	 -112.944
| 15> H 	 15.0202 	 -8.72359 	 -113.983
| 16> C 	 14.8157 	 -6.96949 	 -112.769
| 17> H 	 13.9829 	 -6.71053 	 -113.411
| 18> H 	 14.4086 	 -7.43578 	 -111.86
| 19> C 	 15.6008 	 -5.61622 	 -112.381
| 20> H 	 14.9659 	 -4.94317 	 -111.714
| 21> H 	 16.5073 	 -5.98933 	 -111.985
| 22> H 	 15.7265 	 -5.02989 	 -113.273
| 23> S 	 17.1748 	 -3.83578 	 -118.373
| 24> C 	 16.0656 	 -3.10495 	 -119.487
| 25> C 	 14.9097 	 -3.83053 	 -119.608
| 26> C 	 14.8039 	 -4.89216 	 -118.616
| 27> C 	 15.9726 	 -5.04249 	 -117.881
| 28> H 	 14.1156 	 -3.66944 	 -120.327
| 29> C 	 13.4807 	 -5.66919 	 -118.498
| 30> H 	 13.7415 	 -6.7024 	 -118.383
| 31> H 	 12.817 	 -5.57155 	 -119.422
| 32> C 	 12.48 	 -5.20504 	 -117.407
| 33> H 	 12.1414 	 -4.24874 	 -117.787
| 34> H 	 12.8964 	 -5.07744 	 -116.381
| 35> C 	 11.3625 	 -6.32578 	 -117.234
| 36> H 	 10.9904 	 -6.93834 	 -118.151
| 37> H 	 10.5453 	 -5.79834 	 -116.753
| 38> H 	 11.8412 	 -7.05599 	 -116.478
| 39> H 	 18.3497 	 -7.92799 	 -114.763
| 40> H 	 16.213 	 -2.35488 	 -120.187
| 41> *
| 42>
| 43>                          ****END OF INPUT****

CARTESIAN COORDINATES (ANGSTROEM)
---------------------------------
  S     17.906600   -6.614770  -116.834000
  C     17.600000   -7.314080  -115.271000
  C     16.325600   -7.213330  -114.843000
  C     15.594300   -6.435580  -115.774000
  C     16.341800   -5.919700  -116.775000
  H     14.652100   -5.996870  -115.731000
  C     15.664000   -7.855420  -113.636000
  H     16.416300   -8.241410  -112.944000
  H     15.020200   -8.723590  -113.983000
  C     14.815700   -6.969490  -112.769000
  H     13.982900   -6.710530  -113.411000
  H     14.408600   -7.435780  -111.860000
  C     15.600800   -5.616220  -112.381000
  H     14.965900   -4.943170  -111.714000
  H     16.507300   -5.989330  -111.985000
  H     15.726500   -5.029890  -113.273000
  S     17.174800   -3.835780  -118.373000
  C     16.065600   -3.104950  -119.487000
  C     14.909700   -3.830530  -119.608000
  C     14.803900   -4.892160  -118.616000
  C     15.972600   -5.042490  -117.881000
  H     14.115600   -3.669440  -120.327000
  C     13.480700   -5.669190  -118.498000
  H     13.741500   -6.702400  -118.383000
  H     12.817000   -5.571550  -119.422000
  C     12.480000   -5.205040  -117.407000
  H     12.141400   -4.248740  -117.787000
  H     12.896400   -5.077440  -116.381000
  C     11.362500   -6.325780  -117.234000
  H     10.990400   -6.938340  -118.151000
  H     10.545300   -5.798340  -116.753000
  H     11.841200   -7.055990  -116.478000
  H     18.349700   -7.927990  -114.763000
  H     16.213000   -2.354880  -120.187000

 Total Charge           Charge          ....    0
 Multiplicity           Mult            ....    1
 Number of Electrons    NEL             ....  134
 Basis Dimension        Dim             ....  322

ORBITAL ENERGIES
----------------

  NO   OCC          E(Eh)            E(eV)
   0   2.0000     -88.967742     -2420.9353
   1   2.0000     -88.964126     -2420.8370
   2   2.0000     -10.329092      -281.0689
   3   2.0000     -10.323100      -280.9058
   4   2.0000     -10.311851      -280.5997
   5   2.0000     -10.309837      -280.5449
   6   2.0000     -10.306378      -280.4508
   7   2.0000     -10.300999      -280.3044
   8   2.0000     -10.298410      -280.2340
   9   2.0000     -10.297965      -280.2219
  10   2.0000     -10.297616      -280.2124
  11   2.0000     -10.297386      -280.2061
  12   2.0000     -10.293840      -280.1096
  13   2.0000     -10.287541      -279.9382
  14   2.0000     -10.283980      -279.8413
  15   2.0000     -10.279067      -279.7076
  16   2.0000      -8.082235      -219.9288
  17   2.0000      -8.080306      -219.8763
  18   2.0000      -6.040906      -164.3814
  19   2.0000      -6.038627      -164.3194
  20   2.0000      -6.036774      -164.2690
  21   2.0000      -6.034888      -164.2177
  22   2.0000      -6.032828      -164.1616
  23   2.0000      -6.030891      -164.1089
  24   2.0000      -1.016492       -27.6601
  25   2.0000      -0.988045       -26.8861
  26   2.0000      -0.915712       -24.9178
  27   2.0000      -0.904457       -24.6115
  28   2.0000      -0.871197       -23.7065
  29   2.0000      -0.850365       -23.1396
  30   2.0000      -0.842257       -22.9190
  31   2.0000      -0.816656       -22.2223
  32   2.0000      -0.782517       -21.2934
  33   2.0000      -0.770937       -20.9783
  34   2.0000      -0.708985       -19.2925
  35   2.0000      -0.695476       -18.9249
  36   2.0000      -0.690607       -18.7924
  37   2.0000      -0.665074       -18.0976
  38   2.0000      -0.647916       -17.6307
  39   2.0000      -0.626203       -17.0399
  40   2.0000      -0.595063       -16.1925
  41   2.0000      -0.569831       -15.5059
  42   2.0000      -0.563969       -15.3464
  43   2.0000      -0.556273       -15.1370
  44   2.0000      -0.541200       -14.7268
  45   2.0000      -0.519432       -14.1345
  46   2.0000      -0.516998       -14.0682
  47   2.0000      -0.512146       -13.9362
  48   2.0000      -0.506058       -13.7705
  49   2.0000      -0.493030       -13.4160
  50   2.0000      -0.489154       -13.3106
  51   2.0000      -0.480819       -13.0838
  52   2.0000      -0.476294       -12.9606
  53   2.0000      -0.463042       -12.6000
  54   2.0000      -0.458631       -12.4800
  55   2.0000      -0.452962       -12.3257
  56   2.0000      -0.444305       -12.0902
  57   2.0000      -0.438172       -11.9233
  58   2.0000      -0.433288       -11.7904
  59   2.0000      -0.422450       -11.4955
  60   2.0000      -0.419743       -11.4218
  61   2.0000      -0.413541       -11.2530
  62   2.0000      -0.411584       -11.1998
  63   2.0000      -0.355310        -9.6685
  64   2.0000      -0.335239        -9.1223
  65   2.0000      -0.329966        -8.9788
  66   2.0000      -0.292741        -7.9659
  67   0.0000       0.030220         0.8223
  68   0.0000       0.075189         2.0460
  69   0.0000       0.105056         2.8587
  70   0.0000       0.114203         3.1076
  71   0.0000       0.127404         3.4668

MULLIKEN ATOMIC CHARGES
-----------------------
   0 S :    0.107974
   1 C :   -0.126790
   2 C :   -0.053116
   3 C :    0.037359
   4 C :   -0.131678
   5 H :   -0.056519
   6 C :    0.067524
   7 H :    0.016025
   8 H :    0.056974
   9 C :   -0.104965
  10 H :    0.019033
  11 H :    0.041724
  12 C :   -0.054662
  13 H :    0.046097
  14 H :    0.029356
  15 H :    0.042257
  16 S :    0.108058
  17 C :   -0.033358
  18 C :   -0.045952
  19 C :   -0.034476
  20 C :   -0.148217
  21 H :    0.017196
  22 C :    0.021516
  23 H :    0.029509
  24 H :    0.033590
  25 C :   -0.085354
  26 H :    0.028971
  27 H :    0.049868
  28 C :   -0.101627
  29 H :    0.059075
  30 H :    0.044685
  31 H :    0.047654
  32 H :    0.042123
  33 H :    0.030145
Sum of atomic charges:    0.0000000

LOEWDIN ATOMIC CHARGES
----------------------
   0 S :    0.415825
   1 C :   -0.192641
   2 C :   -0.061818
   3 C :   -0.066073
   4 C :   -0.189295
   5 H :    0.016847
   6 C :   -0.035281
   7 H :    0.026064
   8 H :    0.044514
   9 C :   -0.043757
  10 H :    0.014282
  11 H :    0.027264
  12 C :   -0.060904
  13 H :    0.033768
  14 H :    0.018062
  15 H :    0.024489
  16 S :    0.403103
  17 C :   -0.181456
  18 C :   -0.067667
  19 C :   -0.054573
  20 C :   -0.196183
  21 H :    0.029693
  22 C :   -0.036744
  23 H :    0.024172
  24 H :    0.039275
  25 C :   -0.037797
  26 H :    0.019640
  27 H :    0.023465
  28 C :   -0.079295
  29 H :    0.036214
  30 H :    0.024810
  31 H :    0.035233
  32 H :    0.027061
  33 H :    0.019701

  Mayer bond orders larger than 0.100000
B(  0-S ,  1-C ) :   1.1289 B(  0-S ,  4-C ) :   1.1527 B(  1-C ,  2-C ) :   1.6612
B(  1-C , 32-H ) :   0.9608 B(  2-C ,  3-C ) :   1.1828 B(  2-C ,  6-C ) :   1.0160
B(  3-C ,  4-C ) :   1.6373 B(  3-C ,  5-H ) :   1.0032 B(  4-C , 20-C ) :   1.0232
B(  6-C ,  7-H ) :   0.9404 B(  6-C ,  8-H ) :   0.9386 B(  6-C ,  9-C ) :   1.0691
B(  9-C , 10-H ) :   0.9542 B(  9-C , 11-H ) :   0.9601 B(  9-C , 12-C ) :   1.0654
B( 12-C , 13-H ) :   0.9764 B( 12-C , 14-H ) :   0.9806 B( 12-C , 15-H ) :   0.9712
B( 16-S , 17-C ) :   1.1428 B( 16-S , 20-C ) :   1.1229 B( 17-C , 18-C ) :   1.6236
B( 17-C , 33-H ) :   0.9690 B( 18-C , 19-C ) :   1.2384 B( 18-C , 21-H ) :   0.9844
B( 19-C , 20-C ) :   1.6135 B( 19-C , 22-C ) :   1.0361 B( 22-C , 23-H ) :   0.9402
B( 22-C , 24-H ) :   0.9438 B( 22-C , 25-C ) :   1.0473 B( 25-C , 26-H ) :   0.9589
B( 25-C , 27-H ) :   0.9546 B( 25-C , 28-C ) :   1.0509 B( 28-C , 29-H ) :   0.9742
B( 28-C , 30-H ) :   0.9760 B( 28-C , 31-H ) :   0.9770

Dispersion correction           -0.014910871
FINAL SINGLE POINT ENERGY     -1339.862750770195

DIPOLE MOMENT
-------------
                                X             Y             Z
Electronic contribution:     24.02074       5.71501     -15.77636
Nuclear contribution   :    -24.68462      -5.84868      15.87929
                        -----------------------------------------
Total Dipole Moment    :     -0.66389      -0.13368       0.10293
                        -----------------------------------------
Magnitude (a.u.)       :      0.68499
Magnitude (Debye)      :      1.74110

Rotational constants in cm-1:     0.016703     0.010352     0.007415
Rotational constants in MHz :   500.748159   310.356527   222.303604

                             ****ORCA TERMINATED NORMALLY****
TOTAL RUN TIME: 0 days 0 hours 0 minutes 22 seconds 444 msec
