                         Program Version 4.2.1 -  RELEASE  -
|  1> ! wB97X-D3 SP def2-SVP
|  2> %pal
|  3> nprocs 24
|  4> end
|  5>
|  6> * xyz 0 1
|  7> S 	 -105.943 	 48.4031 	 -95.3467
|  8> C 	 -105.449 	 50.0492 	 -95.2648
|  9> C 	 -105.891 	 50.7687 	 -96.3711
| 10> C 	 -106.624 	 49.9606 	 -97.2563
| 11> C 	 -106.582 	 48.6117 	 -96.9778
| 12> H 	 -107.009 	 50.3961 	 -98.1584
| 13> C 	 -105.783 	 52.2247 	 -96.4681
| 14> H 	 -105.728 	 52.4572 	 -97.5417
| 15> H 	 -104.723 	 52.5114 	 -96.084
| 16> C 	 -106.945 	 53.0639 	 -95.8371
| 17> H 	 -106.878 	 54.0805 	 -96.1405
| 18> H 	 -107.878 	 52.6772 	 -96.256
| 19> C 	 -106.932 	 52.9536 	 -94.2443
| 20> H 	 -107.048 	 51.8926 	 -93.8917
| 21> H 	 -105.982 	 53.1724 	 -93.7749
| 22> H 	 -107.705 	 53.5677 	 -93.7859
| 23> S 	 -108.505 	 46.7133 	 -96.8223
| 24> C 	 -108.54 	 45.4575 	 -98.0025
| 25> C 	 -107.614 	 45.5945 	 -98.9944
| 26> C 	 -106.863 	 46.7876 	 -98.8358
| 27> C 	 -107.176 	 47.4156 	 -97.6457
| 28> H 	 -107.597 	 44.8215 	 -99.7894
| 29> C 	 -105.843 	 47.329 	 -99.8266
| 30> H 	 -104.885 	 47.268 	 -99.3286
| 31> H 	 -106.022 	 48.3203 	 -100.15
| 32> C 	 -105.752 	 46.4547 	 -101.147
| 33> H 	 -106.763 	 46.479 	 -101.651
| 34> H 	 -105.645 	 45.4104 	 -100.807
| 35> C 	 -104.65 	 46.8924 	 -102.114
| 36> H 	 -104.588 	 46.1374 	 -102.915
| 37> H 	 -103.722 	 46.9671 	 -101.542
| 38> H 	 -104.978 	 47.8599 	 -102.457
| 39> H 	 -104.913 	 50.4055 	 -94.408
| 40> H 	 -109.293 	 44.6268 	 -98.0294
| 41> *
| 42>
| 43>                          ****END OF INPUT****

CARTESIAN COORDINATES (ANGSTROEM)
---------------------------------
  S    -105.943000   48.403100  -95.346700
  C    -105.449000   50.049200  -95.264800
  C    -105.891000   50.768700  -96.371100
  C    -106.624000   49.960600  -97.256300
  C    -106.582000   48.611700  -96.977800
  H    -107.009000   50.396100  -98.158400
  C    -105.783000   52.224700  -96.468100
  H    -105.728000   52.457200  -97.541700
  H    -104.723000   52.511400  -96.084000
  C    -106.945000   53.063900  -95.837100
  H    -106.878000   54.080500  -96.140500
  H    -107.878000   52.677200  -96.256000
  C    -106.932000   52.953600  -94.244300
  H    -107.048000   51.892600  -93.891700
  H    -105.982000   53.172400  -93.774900
  H    -107.705000   53.567700  -93.785900
  S    -108.505000   46.713300  -96.822300
  C    -108.540000   45.457500  -98.002500
  C    -107.614000   45.594500  -98.994400
  C    -106.863000   46.787600  -98.835800
  C    -107.176000   47.415600  -97.645700
  H    -107.597000   44.821500  -99.789400
  C    -105.843000   47.329000  -99.826600
  H    -104.885000   47.268000  -99.328600
  H    -106.022000   48.320300  -100.150000
  C    -105.752000   46.454700  -101.147000
  H    -106.763000   46.479000  -101.651000
  H    -105.645000   45.410400  -100.807000
  C    -104.650000   46.892400  -102.114000
  H    -104.588000   46.137400  -102.915000
  H    -103.722000   46.967100  -101.542000
  H    -104.978000   47.859900  -102.457000
  H    -104.913000   50.405500  -94.408000
  H    -109.293000   44.626800  -98.029400

 Total Charge           Charge          ....    0
 Multiplicity           Mult            ....    1
 Number of Electrons    NEL             ....  134
 Basis Dimension        Dim             ....  322

ORBITAL ENERGIES
----------------

  NO   OCC          E(Eh)            E(eV)
   0   2.0000     -88.965914     -2420.8856
   1   2.0000     -88.962706     -2420.7983
   2   2.0000     -10.329853      -281.0896
   3   2.0000     -10.320819      -280.8438
   4   2.0000     -10.313144      -280.6349
   5   2.0000     -10.309562      -280.5374
   6   2.0000     -10.302235      -280.3381
   7   2.0000     -10.296383      -280.1788
   8   2.0000     -10.293852      -280.1100
   9   2.0000     -10.293107      -280.0897
  10   2.0000     -10.292659      -280.0775
  11   2.0000     -10.290834      -280.0278
  12   2.0000     -10.290043      -280.0063
  13   2.0000     -10.288646      -279.9683
  14   2.0000     -10.281056      -279.7618
  15   2.0000     -10.280710      -279.7523
  16   2.0000      -8.081718      -219.9147
  17   2.0000      -8.077953      -219.8123
  18   2.0000      -6.039975      -164.3561
  19   2.0000      -6.036272      -164.2553
  20   2.0000      -6.036116      -164.2511
  21   2.0000      -6.032643      -164.1565
  22   2.0000      -6.032353      -164.1487
  23   2.0000      -6.028930      -164.0555
  24   2.0000      -1.011617       -27.5275
  25   2.0000      -0.990764       -26.9601
  26   2.0000      -0.907641       -24.6982
  27   2.0000      -0.905076       -24.6284
  28   2.0000      -0.863050       -23.4848
  29   2.0000      -0.852784       -23.2054
  30   2.0000      -0.845717       -23.0131
  31   2.0000      -0.814666       -22.1682
  32   2.0000      -0.780800       -21.2466
  33   2.0000      -0.768881       -20.9223
  34   2.0000      -0.709858       -19.3162
  35   2.0000      -0.696792       -18.9607
  36   2.0000      -0.691670       -18.8213
  37   2.0000      -0.647461       -17.6183
  38   2.0000      -0.640347       -17.4247
  39   2.0000      -0.624097       -16.9825
  40   2.0000      -0.598038       -16.2734
  41   2.0000      -0.569952       -15.5092
  42   2.0000      -0.565985       -15.4012
  43   2.0000      -0.543949       -14.8016
  44   2.0000      -0.535019       -14.5586
  45   2.0000      -0.523523       -14.2458
  46   2.0000      -0.517961       -14.0944
  47   2.0000      -0.512846       -13.9552
  48   2.0000      -0.500582       -13.6215
  49   2.0000      -0.493088       -13.4176
  50   2.0000      -0.482347       -13.1253
  51   2.0000      -0.478293       -13.0150
  52   2.0000      -0.470099       -12.7920
  53   2.0000      -0.469274       -12.7696
  54   2.0000      -0.460177       -12.5221
  55   2.0000      -0.455046       -12.3824
  56   2.0000      -0.447224       -12.1696
  57   2.0000      -0.433080       -11.7847
  58   2.0000      -0.428722       -11.6661
  59   2.0000      -0.424949       -11.5635
  60   2.0000      -0.423393       -11.5211
  61   2.0000      -0.416502       -11.3336
  62   2.0000      -0.414632       -11.2827
  63   2.0000      -0.343300        -9.3417
  64   2.0000      -0.331517        -9.0210
  65   2.0000      -0.325594        -8.8599
  66   2.0000      -0.295894        -8.0517
  67   0.0000       0.040410         1.0996
  68   0.0000       0.061083         1.6622
  69   0.0000       0.120795         3.2870
  70   0.0000       0.126206         3.4342
  71   0.0000       0.132986         3.6187

MULLIKEN ATOMIC CHARGES
-----------------------
   0 S :    0.106203
   1 C :   -0.121984
   2 C :   -0.090038
   3 C :    0.062417
   4 C :   -0.165932
   5 H :    0.001025
   6 C :    0.005966
   7 H :    0.019557
   8 H :    0.039656
   9 C :   -0.014368
  10 H :    0.030351
  11 H :    0.029035
  12 C :   -0.078829
  13 H :    0.041974
  14 H :    0.020181
  15 H :    0.040924
  16 S :    0.134219
  17 C :   -0.097896
  18 C :   -0.076250
  19 C :   -0.017602
  20 C :   -0.180836
  21 H :    0.032691
  22 C :    0.108773
  23 H :    0.035667
  24 H :    0.021366
  25 C :   -0.178069
  26 H :    0.036588
  27 H :    0.031627
  28 C :    0.010359
  29 H :    0.044102
  30 H :    0.033841
  31 H :    0.028835
  32 H :    0.044916
  33 H :    0.061531
Sum of atomic charges:   -0.0000000

LOEWDIN ATOMIC CHARGES
----------------------
   0 S :    0.414677
   1 C :   -0.197565
   2 C :   -0.076395
   3 C :   -0.059086
   4 C :   -0.190445
   5 H :    0.028082
   6 C :   -0.042701
   7 H :    0.028251
   8 H :    0.039717
   9 C :   -0.025391
  10 H :    0.020148
  11 H :    0.026833
  12 C :   -0.074485
  13 H :    0.031376
  14 H :    0.019917
  15 H :    0.025428
  16 S :    0.436162
  17 C :   -0.200832
  18 C :   -0.081897
  19 C :   -0.053785
  20 C :   -0.218842
  21 H :    0.040231
  22 C :   -0.024019
  23 H :    0.035226
  24 H :    0.023128
  25 C :   -0.048906
  26 H :    0.024639
  27 H :    0.017470
  28 C :   -0.058513
  29 H :    0.032070
  30 H :    0.027078
  31 H :    0.024330
  32 H :    0.022023
  33 H :    0.036075

  Mayer bond orders larger than 0.100000
B(  0-S ,  1-C ) :   1.1647 B(  0-S ,  4-C ) :   1.1672 B(  1-C ,  2-C ) :   1.5573
B(  1-C ,  4-C ) :   0.1056 B(  1-C , 32-H ) :   0.9727 B(  2-C ,  3-C ) :   1.2833
B(  2-C ,  6-C ) :   1.0407 B(  3-C ,  4-C ) :   1.5558 B(  3-C ,  5-H ) :   0.9944
B(  4-C , 20-C ) :   0.9894 B(  6-C ,  7-H ) :   0.9333 B(  6-C ,  8-H ) :   0.9432
B(  6-C ,  9-C ) :   1.0626 B(  9-C , 10-H ) :   0.9596 B(  9-C , 11-H ) :   0.9545
B(  9-C , 12-C ) :   1.0629 B( 12-C , 13-H ) :   0.9732 B( 12-C , 14-H ) :   0.9772
B( 12-C , 15-H ) :   0.9769 B( 16-S , 17-C ) :   1.1601 B( 16-S , 20-C ) :   1.1742
B( 17-C , 18-C ) :   1.6210 B( 17-C , 33-H ) :   0.9539 B( 18-C , 19-C ) :   1.2418
B( 18-C , 21-H ) :   0.9843 B( 19-C , 20-C ) :   1.6102 B( 19-C , 22-C ) :   1.0286
B( 22-C , 23-H ) :   0.9219 B( 22-C , 24-H ) :   0.9374 B( 22-C , 25-C ) :   1.0820
B( 25-C , 26-H ) :   0.9565 B( 25-C , 27-H ) :   0.9493 B( 25-C , 28-C ) :   1.0739
B( 28-C , 29-H ) :   0.9717 B( 28-C , 30-H ) :   0.9743 B( 28-C , 31-H ) :   0.9734

Dispersion correction           -0.013928904
FINAL SINGLE POINT ENERGY     -1339.885369632483

DIPOLE MOMENT
-------------
                                X             Y             Z
Electronic contribution:     -7.73188     -14.11893      12.73836
Nuclear contribution   :      7.78625      14.40044     -13.15772
                        -----------------------------------------
Total Dipole Moment    :      0.05437       0.28151      -0.41936
                        -----------------------------------------
Magnitude (a.u.)       :      0.50800
Magnitude (Debye)      :      1.29123

Rotational constants in cm-1:     0.021063     0.007538     0.006218
Rotational constants in MHz :   631.446386   225.972195   186.410900

                             ****ORCA TERMINATED NORMALLY****
TOTAL RUN TIME: 0 days 0 hours 0 minutes 20 seconds 986 msec
