                         Program Version 4.2.1 -  RELEASE  -
|  1> ! wB97X-D3 SP def2-SVP
|  2> %pal
|  3> nprocs 24
|  4> end
|  5>
|  6> * xyz 0 1
|  7> S 	 18.2937 	 -14.447 	 -119.729
|  8> C 	 16.9473 	 -13.4573 	 -120.273
|  9> C 	 15.8511 	 -14.2339 	 -120.681
| 10> C 	 16.1849 	 -15.5969 	 -120.612
| 11> C 	 17.4888 	 -15.8418 	 -120.147
| 12> H 	 15.4842 	 -16.4051 	 -120.852
| 13> C 	 14.464 	 -13.7998 	 -121.025
| 14> H 	 14.2621 	 -12.7982 	 -120.756
| 15> H 	 13.8473 	 -14.3908 	 -120.433
| 16> C 	 14.192 	 -14.0457 	 -122.536
| 17> H 	 14.8098 	 -13.4311 	 -123.271
| 18> H 	 14.3826 	 -15.0576 	 -122.798
| 19> C 	 12.6875 	 -13.8956 	 -122.859
| 20> H 	 12.5219 	 -14.0026 	 -123.969
| 21> H 	 12.0556 	 -14.6447 	 -122.283
| 22> H 	 12.3299 	 -12.8673 	 -122.697
| 23> S 	 18.5936 	 -17.9553 	 -121.569
| 24> C 	 18.7661 	 -19.4783 	 -120.809
| 25> C 	 18.5536 	 -19.3853 	 -119.429
| 26> C 	 18.15 	 -18.1102 	 -119.001
| 27> C 	 18.1286 	 -17.1772 	 -120.054
| 28> H 	 18.7224 	 -20.2087 	 -118.785
| 29> C 	 17.6863 	 -17.9322 	 -117.568
| 30> H 	 18.4679 	 -17.2848 	 -117.146
| 31> H 	 17.7337 	 -18.8549 	 -117.021
| 32> C 	 16.2274 	 -17.4279 	 -117.383
| 33> H 	 15.5084 	 -17.9651 	 -118.047
| 34> H 	 16.2364 	 -16.4484 	 -117.862
| 35> C 	 15.7849 	 -17.4838 	 -115.922
| 36> H 	 16.0212 	 -18.4661 	 -115.403
| 37> H 	 14.6931 	 -17.3736 	 -115.658
| 38> H 	 16.3666 	 -16.824 	 -115.202
| 39> H 	 16.8647 	 -12.3569 	 -120.242
| 40> H 	 18.7037 	 -20.4699 	 -121.303
| 41> *
| 42>
| 43>                          ****END OF INPUT****

CARTESIAN COORDINATES (ANGSTROEM)
---------------------------------
  S     18.293700  -14.447000  -119.729000
  C     16.947300  -13.457300  -120.273000
  C     15.851100  -14.233900  -120.681000
  C     16.184900  -15.596900  -120.612000
  C     17.488800  -15.841800  -120.147000
  H     15.484200  -16.405100  -120.852000
  C     14.464000  -13.799800  -121.025000
  H     14.262100  -12.798200  -120.756000
  H     13.847300  -14.390800  -120.433000
  C     14.192000  -14.045700  -122.536000
  H     14.809800  -13.431100  -123.271000
  H     14.382600  -15.057600  -122.798000
  C     12.687500  -13.895600  -122.859000
  H     12.521900  -14.002600  -123.969000
  H     12.055600  -14.644700  -122.283000
  H     12.329900  -12.867300  -122.697000
  S     18.593600  -17.955300  -121.569000
  C     18.766100  -19.478300  -120.809000
  C     18.553600  -19.385300  -119.429000
  C     18.150000  -18.110200  -119.001000
  C     18.128600  -17.177200  -120.054000
  H     18.722400  -20.208700  -118.785000
  C     17.686300  -17.932200  -117.568000
  H     18.467900  -17.284800  -117.146000
  H     17.733700  -18.854900  -117.021000
  C     16.227400  -17.427900  -117.383000
  H     15.508400  -17.965100  -118.047000
  H     16.236400  -16.448400  -117.862000
  C     15.784900  -17.483800  -115.922000
  H     16.021200  -18.466100  -115.403000
  H     14.693100  -17.373600  -115.658000
  H     16.366600  -16.824000  -115.202000
  H     16.864700  -12.356900  -120.242000
  H     18.703700  -20.469900  -121.303000

 Total Charge           Charge          ....    0
 Multiplicity           Mult            ....    1
 Number of Electrons    NEL             ....  134
 Basis Dimension        Dim             ....  322

ORBITAL ENERGIES
----------------

  NO   OCC          E(Eh)            E(eV)
   0   2.0000     -88.970806     -2421.0187
   1   2.0000     -88.966672     -2420.9062
   2   2.0000     -10.325423      -280.9691
   3   2.0000     -10.324446      -280.9424
   4   2.0000     -10.315989      -280.7123
   5   2.0000     -10.314653      -280.6760
   6   2.0000     -10.302037      -280.3327
   7   2.0000     -10.298193      -280.2281
   8   2.0000     -10.291265      -280.0396
   9   2.0000     -10.291246      -280.0390
  10   2.0000     -10.290481      -280.0182
  11   2.0000     -10.290322      -280.0139
  12   2.0000     -10.289540      -279.9926
  13   2.0000     -10.287469      -279.9363
  14   2.0000     -10.287157      -279.9278
  15   2.0000     -10.287022      -279.9241
  16   2.0000      -8.086407      -220.0423
  17   2.0000      -8.081544      -219.9100
  18   2.0000      -6.044652      -164.4833
  19   2.0000      -6.040665      -164.3749
  20   2.0000      -6.039934      -164.3550
  21   2.0000      -6.037526      -164.2894
  22   2.0000      -6.035849      -164.2438
  23   2.0000      -6.032608      -164.1556
  24   2.0000      -1.009897       -27.4807
  25   2.0000      -0.987486       -26.8709
  26   2.0000      -0.917154       -24.9570
  27   2.0000      -0.905250       -24.6331
  28   2.0000      -0.862868       -23.4798
  29   2.0000      -0.850837       -23.1525
  30   2.0000      -0.846368       -23.0308
  31   2.0000      -0.805667       -21.9233
  32   2.0000      -0.783682       -21.3251
  33   2.0000      -0.768530       -20.9128
  34   2.0000      -0.708173       -19.2704
  35   2.0000      -0.699844       -19.0437
  36   2.0000      -0.686523       -18.6812
  37   2.0000      -0.659952       -17.9582
  38   2.0000      -0.639037       -17.3891
  39   2.0000      -0.622157       -16.9298
  40   2.0000      -0.593128       -16.1398
  41   2.0000      -0.569821       -15.5056
  42   2.0000      -0.561491       -15.2790
  43   2.0000      -0.556272       -15.1369
  44   2.0000      -0.525323       -14.2948
  45   2.0000      -0.516708       -14.0603
  46   2.0000      -0.515186       -14.0189
  47   2.0000      -0.509188       -13.8557
  48   2.0000      -0.504299       -13.7227
  49   2.0000      -0.499135       -13.5822
  50   2.0000      -0.491244       -13.3674
  51   2.0000      -0.479482       -13.0474
  52   2.0000      -0.464859       -12.6495
  53   2.0000      -0.461419       -12.5559
  54   2.0000      -0.459236       -12.4964
  55   2.0000      -0.449677       -12.2363
  56   2.0000      -0.446084       -12.1386
  57   2.0000      -0.439490       -11.9591
  58   2.0000      -0.432749       -11.7757
  59   2.0000      -0.428935       -11.6719
  60   2.0000      -0.427150       -11.6233
  61   2.0000      -0.420823       -11.4512
  62   2.0000      -0.399947       -10.8831
  63   2.0000      -0.336893        -9.1673
  64   2.0000      -0.330365        -8.9897
  65   2.0000      -0.314731        -8.5643
  66   2.0000      -0.305211        -8.3052
  67   0.0000       0.037596         1.0230
  68   0.0000       0.058402         1.5892
  69   0.0000       0.113225         3.0810
  70   0.0000       0.125172         3.4061
  71   0.0000       0.131877         3.5886

MULLIKEN ATOMIC CHARGES
-----------------------
   0 S :    0.147318
   1 C :   -0.138739
   2 C :   -0.100280
   3 C :    0.025679
   4 C :   -0.200294
   5 H :    0.016869
   6 C :    0.155349
   7 H :    0.004740
   8 H :    0.010033
   9 C :   -0.096197
  10 H :    0.045252
  11 H :    0.023685
  12 C :   -0.083276
  13 H :    0.038619
  14 H :    0.045597
  15 H :    0.029503
  16 S :    0.127725
  17 C :   -0.106820
  18 C :   -0.046152
  19 C :   -0.018688
  20 C :   -0.183555
  21 H :    0.007895
  22 C :    0.082319
  23 H :    0.043112
  24 H :    0.003322
  25 C :   -0.063617
  26 H :    0.034083
  27 H :    0.052591
  28 C :   -0.086119
  29 H :    0.023578
  30 H :    0.047484
  31 H :    0.034146
  32 H :    0.047017
  33 H :    0.077819
Sum of atomic charges:   -0.0000000

LOEWDIN ATOMIC CHARGES
----------------------
   0 S :    0.457571
   1 C :   -0.213031
   2 C :   -0.059461
   3 C :   -0.064867
   4 C :   -0.237142
   5 H :    0.031988
   6 C :   -0.016589
   7 H :    0.024432
   8 H :    0.027137
   9 C :   -0.038286
  10 H :    0.034612
  11 H :    0.018638
  12 C :   -0.077557
  13 H :    0.030608
  14 H :    0.030409
  15 H :    0.020787
  16 S :    0.430697
  17 C :   -0.209571
  18 C :   -0.073174
  19 C :   -0.050433
  20 C :   -0.214278
  21 H :    0.024616
  22 C :   -0.026621
  23 H :    0.038633
  24 H :    0.022506
  25 C :   -0.045840
  26 H :    0.030138
  27 H :    0.028386
  28 C :   -0.088054
  29 H :    0.027804
  30 H :    0.032508
  31 H :    0.031143
  32 H :    0.030762
  33 H :    0.041527

  Mayer bond orders larger than 0.100000
B(  0-S ,  1-C ) :   1.1549 B(  0-S ,  4-C ) :   1.2039 B(  1-C ,  2-C ) :   1.5754
B(  1-C ,  4-C ) :   0.1017 B(  1-C , 32-H ) :   0.9643 B(  2-C ,  3-C ) :   1.2866
B(  2-C ,  6-C ) :   1.0255 B(  3-C ,  4-C ) :   1.5269 B(  3-C ,  5-H ) :   0.9941
B(  4-C , 20-C ) :   0.9895 B(  6-C ,  7-H ) :   0.9360 B(  6-C ,  8-H ) :   0.9343
B(  6-C ,  9-C ) :   1.0531 B(  9-C , 10-H ) :   0.9557 B(  9-C , 11-H ) :   0.9600
B(  9-C , 12-C ) :   1.0803 B( 12-C , 13-H ) :   0.9739 B( 12-C , 14-H ) :   0.9747
B( 12-C , 15-H ) :   0.9748 B( 16-S , 17-C ) :   1.1914 B( 16-S , 20-C ) :   1.1575
B( 17-C , 18-C ) :   1.5628 B( 17-C , 20-C ) :   0.1017 B( 17-C , 33-H ) :   0.9574
B( 18-C , 19-C ) :   1.3044 B( 18-C , 21-H ) :   0.9924 B( 19-C , 20-C ) :   1.5545
B( 19-C , 22-C ) :   1.0313 B( 22-C , 23-H ) :   0.9273 B( 22-C , 24-H ) :   0.9398
B( 22-C , 25-C ) :   1.0485 B( 25-C , 26-H ) :   0.9585 B( 25-C , 27-H ) :   0.9518
B( 25-C , 28-C ) :   1.0707 B( 28-C , 29-H ) :   0.9705 B( 28-C , 30-H ) :   0.9761
B( 28-C , 31-H ) :   0.9728

Dispersion correction           -0.014684375
FINAL SINGLE POINT ENERGY     -1339.870691571010

DIPOLE MOMENT
-------------
                                X             Y             Z
Electronic contribution:     23.61047      -2.50370      -6.74487
Nuclear contribution   :    -24.23666       2.38885       6.92055
                        -----------------------------------------
Total Dipole Moment    :     -0.62619      -0.11485       0.17568
                        -----------------------------------------
Magnitude (a.u.)       :      0.66043
Magnitude (Debye)      :      1.67869

Rotational constants in cm-1:     0.017165     0.008485     0.007440
Rotational constants in MHz :   514.608404   254.385513   223.056691

                             ****ORCA TERMINATED NORMALLY****
TOTAL RUN TIME: 0 days 0 hours 0 minutes 21 seconds 686 msec
