                         Program Version 4.2.1 -  RELEASE  -
|  1> ! wB97X-D3 SP def2-SVP
|  2> %pal
|  3> nprocs 24
|  4> end
|  5>
|  6> * xyz 0 1
|  7> S 	 -39.1193 	 -11.4371 	 13.5476
|  8> C 	 -40.6411 	 -11.9993 	 14.0944
|  9> C 	 -40.5581 	 -13.3038 	 14.5662
| 10> C 	 -39.2004 	 -13.7444 	 14.5148
| 11> C 	 -38.3262 	 -12.8754 	 13.9968
| 12> H 	 -38.9261 	 -14.7493 	 14.8758
| 13> C 	 -41.7837 	 -14.0925 	 15.054
| 14> H 	 -41.8989 	 -14.8724 	 14.3146
| 15> H 	 -42.6893 	 -13.569 	 15.0059
| 16> C 	 -41.6961 	 -14.6595 	 16.5105
| 17> H 	 -40.764 	 -15.285 	 16.5782
| 18> H 	 -41.7041 	 -13.8575 	 17.1988
| 19> C 	 -42.9668 	 -15.4505 	 16.8476
| 20> H 	 -43.0725 	 -16.4005 	 16.2792
| 21> H 	 -42.9797 	 -15.6338 	 17.8968
| 22> H 	 -43.8586 	 -14.8135 	 16.798
| 23> S 	 -36.4155 	 -14.7608 	 14.1696
| 24> C 	 -34.8037 	 -14.547 	 13.6075
| 25> C 	 -34.6218 	 -13.2627 	 13.1719
| 26> C 	 -35.7754 	 -12.4023 	 13.2424
| 27> C 	 -36.8839 	 -13.0986 	 13.7725
| 28> H 	 -33.7165 	 -13.0314 	 12.6814
| 29> C 	 -35.7598 	 -10.9225 	 12.9629
| 30> H 	 -36.6569 	 -10.44 	 13.3905
| 31> H 	 -35.9059 	 -10.8499 	 11.9127
| 32> C 	 -34.6399 	 -10.1867 	 13.6471
| 33> H 	 -34.8981 	 -9.16474 	 13.5819
| 34> H 	 -33.675 	 -10.2233 	 13.2058
| 35> C 	 -34.5844 	 -10.386 	 15.139
| 36> H 	 -34.2986 	 -11.3976 	 15.3234
| 37> H 	 -35.5534 	 -10.2207 	 15.557
| 38> H 	 -33.9062 	 -9.71862 	 15.7425
| 39> H 	 -41.5012 	 -11.4052 	 14.1547
| 40> H 	 -34.0329 	 -15.3373 	 13.4518
| 41> *
| 42>
| 43>                          ****END OF INPUT****

CARTESIAN COORDINATES (ANGSTROEM)
---------------------------------
  S    -39.119300  -11.437100   13.547600
  C    -40.641100  -11.999300   14.094400
  C    -40.558100  -13.303800   14.566200
  C    -39.200400  -13.744400   14.514800
  C    -38.326200  -12.875400   13.996800
  H    -38.926100  -14.749300   14.875800
  C    -41.783700  -14.092500   15.054000
  H    -41.898900  -14.872400   14.314600
  H    -42.689300  -13.569000   15.005900
  C    -41.696100  -14.659500   16.510500
  H    -40.764000  -15.285000   16.578200
  H    -41.704100  -13.857500   17.198800
  C    -42.966800  -15.450500   16.847600
  H    -43.072500  -16.400500   16.279200
  H    -42.979700  -15.633800   17.896800
  H    -43.858600  -14.813500   16.798000
  S    -36.415500  -14.760800   14.169600
  C    -34.803700  -14.547000   13.607500
  C    -34.621800  -13.262700   13.171900
  C    -35.775400  -12.402300   13.242400
  C    -36.883900  -13.098600   13.772500
  H    -33.716500  -13.031400   12.681400
  C    -35.759800  -10.922500   12.962900
  H    -36.656900  -10.440000   13.390500
  H    -35.905900  -10.849900   11.912700
  C    -34.639900  -10.186700   13.647100
  H    -34.898100   -9.164740   13.581900
  H    -33.675000  -10.223300   13.205800
  C    -34.584400  -10.386000   15.139000
  H    -34.298600  -11.397600   15.323400
  H    -35.553400  -10.220700   15.557000
  H    -33.906200   -9.718620   15.742500
  H    -41.501200  -11.405200   14.154700
  H    -34.032900  -15.337300   13.451800

 Total Charge           Charge          ....    0
 Multiplicity           Mult            ....    1
 Number of Electrons    NEL             ....  134
 Basis Dimension        Dim             ....  322

ORBITAL ENERGIES
----------------

  NO   OCC          E(Eh)            E(eV)
   0   2.0000     -88.964202     -2420.8390
   1   2.0000     -88.960846     -2420.7477
   2   2.0000     -10.331961      -281.1469
   3   2.0000     -10.326078      -280.9869
   4   2.0000     -10.316579      -280.7284
   5   2.0000     -10.306688      -280.4592
   6   2.0000     -10.305067      -280.4151
   7   2.0000     -10.301062      -280.3061
   8   2.0000     -10.289739      -279.9980
   9   2.0000     -10.289535      -279.9925
  10   2.0000     -10.289304      -279.9862
  11   2.0000     -10.289161      -279.9823
  12   2.0000     -10.288769      -279.9716
  13   2.0000     -10.279142      -279.7097
  14   2.0000     -10.275078      -279.5991
  15   2.0000     -10.268182      -279.4114
  16   2.0000      -8.080144      -219.8719
  17   2.0000      -8.075834      -219.7546
  18   2.0000      -6.038634      -164.3196
  19   2.0000      -6.034464      -164.2061
  20   2.0000      -6.034383      -164.2039
  21   2.0000      -6.030980      -164.1113
  22   2.0000      -6.030226      -164.0908
  23   2.0000      -6.026550      -163.9908
  24   2.0000      -1.014924       -27.6175
  25   2.0000      -0.987934       -26.8831
  26   2.0000      -0.919570       -25.0228
  27   2.0000      -0.909518       -24.7493
  28   2.0000      -0.872840       -23.7512
  29   2.0000      -0.854968       -23.2649
  30   2.0000      -0.844271       -22.9738
  31   2.0000      -0.815688       -22.1960
  32   2.0000      -0.786075       -21.3902
  33   2.0000      -0.773982       -21.0611
  34   2.0000      -0.710132       -19.3237
  35   2.0000      -0.701692       -19.0940
  36   2.0000      -0.688769       -18.7424
  37   2.0000      -0.668006       -18.1774
  38   2.0000      -0.632601       -17.2139
  39   2.0000      -0.625120       -17.0104
  40   2.0000      -0.600096       -16.3294
  41   2.0000      -0.571655       -15.5555
  42   2.0000      -0.568051       -15.4575
  43   2.0000      -0.565691       -15.3932
  44   2.0000      -0.547569       -14.9001
  45   2.0000      -0.526178       -14.3180
  46   2.0000      -0.513799       -13.9812
  47   2.0000      -0.511097       -13.9076
  48   2.0000      -0.505165       -13.7462
  49   2.0000      -0.496299       -13.5050
  50   2.0000      -0.490183       -13.3386
  51   2.0000      -0.474733       -12.9181
  52   2.0000      -0.469462       -12.7747
  53   2.0000      -0.468081       -12.7371
  54   2.0000      -0.466833       -12.7032
  55   2.0000      -0.453238       -12.3332
  56   2.0000      -0.451143       -12.2762
  57   2.0000      -0.441333       -12.0093
  58   2.0000      -0.433278       -11.7901
  59   2.0000      -0.429399       -11.6845
  60   2.0000      -0.417926       -11.3723
  61   2.0000      -0.407048       -11.0763
  62   2.0000      -0.402207       -10.9446
  63   2.0000      -0.364805        -9.9268
  64   2.0000      -0.331913        -9.0318
  65   2.0000      -0.326633        -8.8881
  66   2.0000      -0.282724        -7.6933
  67   0.0000       0.025863         0.7038
  68   0.0000       0.090773         2.4701
  69   0.0000       0.122241         3.3263
  70   0.0000       0.129886         3.5344
  71   0.0000       0.133887         3.6433

MULLIKEN ATOMIC CHARGES
-----------------------
   0 S :    0.096443
   1 C :   -0.101901
   2 C :   -0.076566
   3 C :   -0.047736
   4 C :   -0.067659
   5 H :    0.028338
   6 C :    0.095672
   7 H :    0.031426
   8 H :   -0.007787
   9 C :   -0.084525
  10 H :    0.044616
  11 H :    0.025927
  12 C :   -0.048082
  13 H :    0.046600
  14 H :    0.021921
  15 H :    0.024266
  16 S :    0.061820
  17 C :   -0.077691
  18 C :   -0.032857
  19 C :   -0.092582
  20 C :   -0.122502
  21 H :    0.002817
  22 C :    0.083075
  23 H :    0.025189
  24 H :    0.035444
  25 C :   -0.042605
  26 H :    0.013473
  27 H :    0.021913
  28 C :   -0.039242
  29 H :    0.031302
  30 H :    0.015873
  31 H :    0.038588
  32 H :    0.024257
  33 H :    0.072776
Sum of atomic charges:   -0.0000000

LOEWDIN ATOMIC CHARGES
----------------------
   0 S :    0.440257
   1 C :   -0.203422
   2 C :   -0.054131
   3 C :   -0.087027
   4 C :   -0.205138
   5 H :    0.026043
   6 C :   -0.025525
   7 H :    0.032642
   8 H :    0.019470
   9 C :   -0.033411
  10 H :    0.028534
  11 H :    0.020975
  12 C :   -0.068809
  13 H :    0.029746
  14 H :    0.023025
  15 H :    0.026602
  16 S :    0.410988
  17 C :   -0.197952
  18 C :   -0.074593
  19 C :   -0.058330
  20 C :   -0.177048
  21 H :    0.023885
  22 C :   -0.032232
  23 H :    0.025427
  24 H :    0.033390
  25 C :   -0.041446
  26 H :    0.024503
  27 H :    0.017368
  28 C :   -0.058141
  29 H :    0.020492
  30 H :    0.021586
  31 H :    0.032670
  32 H :    0.016417
  33 H :    0.043184

  Mayer bond orders larger than 0.100000
B(  0-S ,  1-C ) :   1.1450 B(  0-S ,  4-C ) :   1.1456 B(  1-C ,  2-C ) :   1.5994
B(  1-C , 32-H ) :   0.9744 B(  2-C ,  3-C ) :   1.2710 B(  2-C ,  6-C ) :   1.0188
B(  3-C ,  4-C ) :   1.5689 B(  3-C ,  5-H ) :   0.9711 B(  4-C , 20-C ) :   1.0635
B(  6-C ,  7-H ) :   0.9368 B(  6-C ,  8-H ) :   0.9420 B(  6-C ,  9-C ) :   1.0585
B(  9-C , 10-H ) :   0.9571 B(  9-C , 11-H ) :   0.9560 B(  9-C , 12-C ) :   1.0938
B( 12-C , 13-H ) :   0.9753 B( 12-C , 14-H ) :   0.9717 B( 12-C , 15-H ) :   0.9693
B( 16-S , 17-C ) :   1.1519 B( 16-S , 20-C ) :   1.1451 B( 17-C , 18-C ) :   1.6190
B( 17-C , 33-H ) :   0.9608 B( 18-C , 19-C ) :   1.2352 B( 18-C , 21-H ) :   0.9944
B( 19-C , 20-C ) :   1.5745 B( 19-C , 22-C ) :   1.0289 B( 22-C , 23-H ) :   0.9385
B( 22-C , 24-H ) :   0.9238 B( 22-C , 25-C ) :   1.0719 B( 25-C , 26-H ) :   0.9524
B( 25-C , 27-H ) :   0.9523 B( 25-C , 28-C ) :   1.0776 B( 28-C , 29-H ) :   0.9704
B( 28-C , 30-H ) :   0.9713 B( 28-C , 31-H ) :   0.9739

Dispersion correction           -0.014045763
FINAL SINGLE POINT ENERGY     -1339.876330805813

DIPOLE MOMENT
-------------
                                X             Y             Z
Electronic contribution:      5.94818      -2.15349     -10.28605
Nuclear contribution   :     -6.07660       2.20701      10.36108
                        -----------------------------------------
Total Dipole Moment    :     -0.12842       0.05352       0.07503
                        -----------------------------------------
Magnitude (a.u.)       :      0.15807
Magnitude (Debye)      :      0.40178

Rotational constants in cm-1:     0.024788     0.007339     0.006247
Rotational constants in MHz :   743.123377   220.032448   187.281606

                             ****ORCA TERMINATED NORMALLY****
TOTAL RUN TIME: 0 days 0 hours 0 minutes 22 seconds 421 msec
