                         Program Version 4.2.1 -  RELEASE  -
|  1> ! wB97X-D3 SP def2-SVP
|  2> %pal
|  3> nprocs 24
|  4> end
|  5>
|  6> * xyz 0 1
|  7> S 	 -104.169 	 -0.425099 	 -113.447
|  8> C 	 -104.84 	 1.07722 	 -112.773
|  9> C 	 -105.687 	 0.767244 	 -111.71
| 10> C 	 -105.454 	 -0.549221 	 -111.189
| 11> C 	 -104.461 	 -1.24921 	 -111.9
| 12> H 	 -106.046 	 -0.929085 	 -110.391
| 13> C 	 -106.789 	 1.60408 	 -111.01
| 14> H 	 -106.564 	 2.61903 	 -111.314
| 15> H 	 -106.706 	 1.40691 	 -109.923
| 16> C 	 -108.184 	 1.25611 	 -111.557
| 17> H 	 -108.27 	 1.48147 	 -112.576
| 18> H 	 -108.422 	 0.151584 	 -111.436
| 19> C 	 -109.241 	 2.13448 	 -110.854
| 20> H 	 -110.25 	 2.12065 	 -111.264
| 21> H 	 -109.367 	 1.79785 	 -109.867
| 22> H 	 -108.975 	 3.12622 	 -110.797
| 23> S 	 -104.433 	 -3.71077 	 -113.027
| 24> C 	 -104.199 	 -5.11987 	 -112.044
| 25> C 	 -103.598 	 -4.78551 	 -110.828
| 26> C 	 -103.813 	 -3.40561 	 -110.489
| 27> C 	 -104.123 	 -2.61538 	 -111.59
| 28> H 	 -103.099 	 -5.63666 	 -110.344
| 29> C 	 -103.351 	 -2.86156 	 -109.138
| 30> H 	 -103.458 	 -3.52652 	 -108.291
| 31> H 	 -103.976 	 -1.95527 	 -108.991
| 32> C 	 -101.845 	 -2.34856 	 -109.133
| 33> H 	 -101.105 	 -3.1329 	 -109.144
| 34> H 	 -101.759 	 -1.86601 	 -108.156
| 35> C 	 -101.535 	 -1.22936 	 -110.069
| 36> H 	 -100.569 	 -0.821262 	 -109.932
| 37> H 	 -102.178 	 -0.390676 	 -109.936
| 38> H 	 -101.59 	 -1.43123 	 -111.156
| 39> H 	 -104.875 	 1.98494 	 -113.374
| 40> H 	 -104.11 	 -6.10248 	 -112.501
| 41> *
| 42>
| 43>                          ****END OF INPUT****

CARTESIAN COORDINATES (ANGSTROEM)
---------------------------------
  S    -104.169000   -0.425099  -113.447000
  C    -104.840000    1.077220  -112.773000
  C    -105.687000    0.767244  -111.710000
  C    -105.454000   -0.549221  -111.189000
  C    -104.461000   -1.249210  -111.900000
  H    -106.046000   -0.929085  -110.391000
  C    -106.789000    1.604080  -111.010000
  H    -106.564000    2.619030  -111.314000
  H    -106.706000    1.406910  -109.923000
  C    -108.184000    1.256110  -111.557000
  H    -108.270000    1.481470  -112.576000
  H    -108.422000    0.151584  -111.436000
  C    -109.241000    2.134480  -110.854000
  H    -110.250000    2.120650  -111.264000
  H    -109.367000    1.797850  -109.867000
  H    -108.975000    3.126220  -110.797000
  S    -104.433000   -3.710770  -113.027000
  C    -104.199000   -5.119870  -112.044000
  C    -103.598000   -4.785510  -110.828000
  C    -103.813000   -3.405610  -110.489000
  C    -104.123000   -2.615380  -111.590000
  H    -103.099000   -5.636660  -110.344000
  C    -103.351000   -2.861560  -109.138000
  H    -103.458000   -3.526520  -108.291000
  H    -103.976000   -1.955270  -108.991000
  C    -101.845000   -2.348560  -109.133000
  H    -101.105000   -3.132900  -109.144000
  H    -101.759000   -1.866010  -108.156000
  C    -101.535000   -1.229360  -110.069000
  H    -100.569000   -0.821262  -109.932000
  H    -102.178000   -0.390676  -109.936000
  H    -101.590000   -1.431230  -111.156000
  H    -104.875000    1.984940  -113.374000
  H    -104.110000   -6.102480  -112.501000

 Total Charge           Charge          ....    0
 Multiplicity           Mult            ....    1
 Number of Electrons    NEL             ....  134
 Basis Dimension        Dim             ....  322

ORBITAL ENERGIES
----------------

  NO   OCC          E(Eh)            E(eV)
   0   2.0000     -88.969100     -2420.9723
   1   2.0000     -88.958786     -2420.6916
   2   2.0000     -10.336184      -281.2619
   3   2.0000     -10.333498      -281.1888
   4   2.0000     -10.318506      -280.7808
   5   2.0000     -10.314451      -280.6705
   6   2.0000     -10.311065      -280.5784
   7   2.0000     -10.305080      -280.4155
   8   2.0000     -10.299753      -280.2705
   9   2.0000     -10.297771      -280.2166
  10   2.0000     -10.296441      -280.1804
  11   2.0000     -10.293305      -280.0951
  12   2.0000     -10.289706      -279.9971
  13   2.0000     -10.283736      -279.8347
  14   2.0000     -10.267342      -279.3886
  15   2.0000     -10.260637      -279.2061
  16   2.0000      -8.082781      -219.9436
  17   2.0000      -8.073191      -219.6827
  18   2.0000      -6.041547      -164.3989
  19   2.0000      -6.037869      -164.2988
  20   2.0000      -6.032893      -164.1634
  21   2.0000      -6.031792      -164.1334
  22   2.0000      -6.027924      -164.0282
  23   2.0000      -6.023691      -163.9130
  24   2.0000      -1.000666       -27.2295
  25   2.0000      -0.977101       -26.5883
  26   2.0000      -0.911809       -24.8116
  27   2.0000      -0.903120       -24.5752
  28   2.0000      -0.868658       -23.6374
  29   2.0000      -0.850874       -23.1535
  30   2.0000      -0.843966       -22.9655
  31   2.0000      -0.807111       -21.9626
  32   2.0000      -0.782233       -21.2856
  33   2.0000      -0.772899       -21.0316
  34   2.0000      -0.707581       -19.2543
  35   2.0000      -0.704580       -19.1726
  36   2.0000      -0.692649       -18.8480
  37   2.0000      -0.657830       -17.9005
  38   2.0000      -0.636678       -17.3249
  39   2.0000      -0.620878       -16.8949
  40   2.0000      -0.588682       -16.0188
  41   2.0000      -0.573329       -15.6011
  42   2.0000      -0.562187       -15.2979
  43   2.0000      -0.547303       -14.8929
  44   2.0000      -0.536021       -14.5859
  45   2.0000      -0.521868       -14.2007
  46   2.0000      -0.518224       -14.1016
  47   2.0000      -0.507419       -13.8076
  48   2.0000      -0.507225       -13.8023
  49   2.0000      -0.500707       -13.6249
  50   2.0000      -0.495498       -13.4832
  51   2.0000      -0.473972       -12.8974
  52   2.0000      -0.469214       -12.7680
  53   2.0000      -0.460643       -12.5347
  54   2.0000      -0.453627       -12.3438
  55   2.0000      -0.449279       -12.2255
  56   2.0000      -0.444296       -12.0899
  57   2.0000      -0.438739       -11.9387
  58   2.0000      -0.430940       -11.7265
  59   2.0000      -0.426166       -11.5966
  60   2.0000      -0.423999       -11.5376
  61   2.0000      -0.416715       -11.3394
  62   2.0000      -0.403513       -10.9801
  63   2.0000      -0.348143        -9.4735
  64   2.0000      -0.327047        -8.8994
  65   2.0000      -0.323440        -8.8013
  66   2.0000      -0.282336        -7.6828
  67   0.0000       0.017938         0.4881
  68   0.0000       0.054095         1.4720
  69   0.0000       0.098205         2.6723
  70   0.0000       0.111110         3.0235
  71   0.0000       0.125871         3.4251

MULLIKEN ATOMIC CHARGES
-----------------------
   0 S :    0.095946
   1 C :   -0.124162
   2 C :   -0.089008
   3 C :    0.016064
   4 C :   -0.099572
   5 H :    0.013156
   6 C :    0.053151
   7 H :    0.019821
   8 H :    0.043141
   9 C :   -0.074122
  10 H :    0.020915
  11 H :    0.042154
  12 C :    0.000963
  13 H :    0.030612
  14 H :    0.010933
  15 H :    0.007931
  16 S :    0.064555
  17 C :   -0.100820
  18 C :   -0.051433
  19 C :   -0.044208
  20 C :   -0.137367
  21 H :    0.039392
  22 C :    0.057505
  23 H :    0.028162
  24 H :    0.021514
  25 C :   -0.051592
  26 H :    0.026840
  27 H :    0.023813
  28 C :   -0.035789
  29 H :    0.016544
  30 H :    0.018072
  31 H :    0.039781
  32 H :    0.053286
  33 H :    0.063821
Sum of atomic charges:   -0.0000000

LOEWDIN ATOMIC CHARGES
----------------------
   0 S :    0.381159
   1 C :   -0.197806
   2 C :   -0.054210
   3 C :   -0.058313
   4 C :   -0.183288
   5 H :    0.025865
   6 C :   -0.025093
   7 H :    0.029400
   8 H :    0.034505
   9 C :   -0.033035
  10 H :    0.017863
  11 H :    0.031454
  12 C :   -0.058894
  13 H :    0.028582
  14 H :    0.018614
  15 H :    0.013651
  16 S :    0.366364
  17 C :   -0.190715
  18 C :   -0.071783
  19 C :   -0.058535
  20 C :   -0.161434
  21 H :    0.039398
  22 C :   -0.028443
  23 H :    0.029028
  24 H :    0.032497
  25 C :   -0.032925
  26 H :    0.019333
  27 H :    0.028326
  28 C :   -0.069142
  29 H :    0.022559
  30 H :    0.022881
  31 H :    0.027490
  32 H :    0.027400
  33 H :    0.027246

  Mayer bond orders larger than 0.100000
B(  0-S ,  1-C ) :   1.1135 B(  0-S ,  4-C ) :   1.1400 B(  1-C ,  2-C ) :   1.6105
B(  1-C , 32-H ) :   0.9701 B(  2-C ,  3-C ) :   1.2429 B(  2-C ,  6-C ) :   1.0195
B(  3-C ,  4-C ) :   1.5332 B(  3-C ,  5-H ) :   0.9964 B(  4-C , 20-C ) :   1.0723
B(  6-C ,  7-H ) :   0.9355 B(  6-C ,  8-H ) :   0.9494 B(  6-C ,  9-C ) :   1.0670
B(  9-C , 10-H ) :   0.9557 B(  9-C , 11-H ) :   0.9591 B(  9-C , 12-C ) :   1.0777
B( 12-C , 13-H ) :   0.9744 B( 12-C , 14-H ) :   0.9733 B( 12-C , 15-H ) :   0.9714
B( 16-S , 17-C ) :   1.1608 B( 16-S , 20-C ) :   1.1063 B( 17-C , 18-C ) :   1.6364
B( 17-C , 20-C ) :   0.1043 B( 17-C , 33-H ) :   0.9601 B( 18-C , 19-C ) :   1.1880
B( 18-C , 21-H ) :   0.9855 B( 19-C , 20-C ) :   1.6205 B( 19-C , 22-C ) :   1.0544
B( 22-C , 23-H ) :   0.9397 B( 22-C , 24-H ) :   0.9348 B( 22-C , 25-C ) :   1.0686
B( 25-C , 26-H ) :   0.9584 B( 25-C , 27-H ) :   0.9512 B( 25-C , 28-C ) :   1.0901
B( 28-C , 29-H ) :   0.9673 B( 28-C , 30-H ) :   0.9692 B( 28-C , 31-H ) :   0.9670

Dispersion correction           -0.014930459
FINAL SINGLE POINT ENERGY     -1339.842477803648

DIPOLE MOMENT
-------------
                                X             Y             Z
Electronic contribution:      6.30272     -13.16032     -16.97614
Nuclear contribution   :     -6.52541      13.35079      17.49020
                        -----------------------------------------
Total Dipole Moment    :     -0.22269       0.19047       0.51405
                        -----------------------------------------
Magnitude (a.u.)       :      0.59171
Magnitude (Debye)      :      1.50401

Rotational constants in cm-1:     0.020107     0.007988     0.007449
Rotational constants in MHz :   602.778983   239.466086   223.323579

                             ****ORCA TERMINATED NORMALLY****
TOTAL RUN TIME: 0 days 0 hours 0 minutes 20 seconds 944 msec
