                         Program Version 4.2.1 -  RELEASE  -
|  1> ! wB97X-D3 SP def2-SVP
|  2> %pal
|  3> nprocs 24
|  4> end
|  5>
|  6> * xyz 0 1
|  7> S 	 -16.1428 	 -27.75 	 -97.3925
|  8> C 	 -14.9051 	 -28.0634 	 -98.5773
|  9> C 	 -15.1487 	 -29.3918 	 -99.0291
| 10> C 	 -16.3526 	 -29.9957 	 -98.6199
| 11> C 	 -17.1103 	 -29.1341 	 -97.9189
| 12> H 	 -16.693 	 -31.0209 	 -98.8423
| 13> C 	 -14.1933 	 -30.1208 	 -100.077
| 14> H 	 -13.8943 	 -31.0429 	 -99.708
| 15> H 	 -13.3224 	 -29.4668 	 -100.084
| 16> C 	 -14.7634 	 -30.3135 	 -101.49
| 17> H 	 -14.1639 	 -30.9581 	 -102.048
| 18> H 	 -15.767 	 -30.803 	 -101.371
| 19> C 	 -14.9078 	 -28.9278 	 -102.233
| 20> H 	 -13.9862 	 -28.4248 	 -102.329
| 21> H 	 -15.2559 	 -29.0099 	 -103.224
| 22> H 	 -15.6337 	 -28.2603 	 -101.684
| 23> S 	 -18.4333 	 -29.4637 	 -95.5797
| 24> C 	 -19.9476 	 -30.1076 	 -95.3755
| 25> C 	 -20.5431 	 -30.1304 	 -96.6059
| 26> C 	 -19.6622 	 -29.7856 	 -97.6835
| 27> C 	 -18.3741 	 -29.4726 	 -97.256
| 28> H 	 -21.5567 	 -30.3127 	 -96.7833
| 29> C 	 -20.0605 	 -29.79 	 -99.1622
| 30> H 	 -20.6965 	 -30.6324 	 -99.3362
| 31> H 	 -19.172 	 -30.1301 	 -99.6876
| 32> C 	 -20.6544 	 -28.5553 	 -99.8041
| 33> H 	 -21.5546 	 -28.3993 	 -99.2
| 34> H 	 -20.9118 	 -28.7151 	 -100.879
| 35> C 	 -19.773 	 -27.2807 	 -99.6917
| 36> H 	 -19.4234 	 -27.1864 	 -98.6188
| 37> H 	 -20.2578 	 -26.3374 	 -99.9372
| 38> H 	 -18.8497 	 -27.4479 	 -100.266
| 39> H 	 -13.9838 	 -27.4773 	 -98.7513
| 40> H 	 -20.5598 	 -30.3328 	 -94.4887
| 41> *
| 42>
| 43>                          ****END OF INPUT****

CARTESIAN COORDINATES (ANGSTROEM)
---------------------------------
  S    -16.142800  -27.750000  -97.392500
  C    -14.905100  -28.063400  -98.577300
  C    -15.148700  -29.391800  -99.029100
  C    -16.352600  -29.995700  -98.619900
  C    -17.110300  -29.134100  -97.918900
  H    -16.693000  -31.020900  -98.842300
  C    -14.193300  -30.120800  -100.077000
  H    -13.894300  -31.042900  -99.708000
  H    -13.322400  -29.466800  -100.084000
  C    -14.763400  -30.313500  -101.490000
  H    -14.163900  -30.958100  -102.048000
  H    -15.767000  -30.803000  -101.371000
  C    -14.907800  -28.927800  -102.233000
  H    -13.986200  -28.424800  -102.329000
  H    -15.255900  -29.009900  -103.224000
  H    -15.633700  -28.260300  -101.684000
  S    -18.433300  -29.463700  -95.579700
  C    -19.947600  -30.107600  -95.375500
  C    -20.543100  -30.130400  -96.605900
  C    -19.662200  -29.785600  -97.683500
  C    -18.374100  -29.472600  -97.256000
  H    -21.556700  -30.312700  -96.783300
  C    -20.060500  -29.790000  -99.162200
  H    -20.696500  -30.632400  -99.336200
  H    -19.172000  -30.130100  -99.687600
  C    -20.654400  -28.555300  -99.804100
  H    -21.554600  -28.399300  -99.200000
  H    -20.911800  -28.715100  -100.879000
  C    -19.773000  -27.280700  -99.691700
  H    -19.423400  -27.186400  -98.618800
  H    -20.257800  -26.337400  -99.937200
  H    -18.849700  -27.447900  -100.266000
  H    -13.983800  -27.477300  -98.751300
  H    -20.559800  -30.332800  -94.488700

 Total Charge           Charge          ....    0
 Multiplicity           Mult            ....    1
 Number of Electrons    NEL             ....  134
 Basis Dimension        Dim             ....  322

ORBITAL ENERGIES
----------------

  NO   OCC          E(Eh)            E(eV)
   0   2.0000     -88.968315     -2420.9509
   1   2.0000     -88.962127     -2420.7825
   2   2.0000     -10.332445      -281.1601
   3   2.0000     -10.324578      -280.9461
   4   2.0000     -10.322062      -280.8776
   5   2.0000     -10.311597      -280.5928
   6   2.0000     -10.308561      -280.5102
   7   2.0000     -10.301108      -280.3074
   8   2.0000     -10.295929      -280.1665
   9   2.0000     -10.288914      -279.9756
  10   2.0000     -10.288675      -279.9691
  11   2.0000     -10.285906      -279.8937
  12   2.0000     -10.285626      -279.8861
  13   2.0000     -10.283485      -279.8278
  14   2.0000     -10.273322      -279.5513
  15   2.0000     -10.272967      -279.5416
  16   2.0000      -8.082806      -219.9443
  17   2.0000      -8.079869      -219.8644
  18   2.0000      -6.041379      -164.3943
  19   2.0000      -6.038128      -164.3058
  20   2.0000      -6.037428      -164.2868
  21   2.0000      -6.033699      -164.1853
  22   2.0000      -6.033398      -164.1771
  23   2.0000      -6.030907      -164.1093
  24   2.0000      -1.023859       -27.8606
  25   2.0000      -0.995972       -27.1018
  26   2.0000      -0.907069       -24.6826
  27   2.0000      -0.903791       -24.5934
  28   2.0000      -0.874599       -23.7990
  29   2.0000      -0.848933       -23.1006
  30   2.0000      -0.840703       -22.8767
  31   2.0000      -0.817836       -22.2544
  32   2.0000      -0.781510       -21.2660
  33   2.0000      -0.773421       -21.0459
  34   2.0000      -0.709496       -19.3064
  35   2.0000      -0.695632       -18.9291
  36   2.0000      -0.692197       -18.8356
  37   2.0000      -0.659376       -17.9425
  38   2.0000      -0.643371       -17.5070
  39   2.0000      -0.625048       -17.0084
  40   2.0000      -0.595561       -16.2060
  41   2.0000      -0.571483       -15.5509
  42   2.0000      -0.551829       -15.0160
  43   2.0000      -0.545937       -14.8557
  44   2.0000      -0.545209       -14.8359
  45   2.0000      -0.540270       -14.7015
  46   2.0000      -0.522908       -14.2291
  47   2.0000      -0.515144       -14.0178
  48   2.0000      -0.504985       -13.7413
  49   2.0000      -0.500970       -13.6321
  50   2.0000      -0.488091       -13.2816
  51   2.0000      -0.477463       -12.9924
  52   2.0000      -0.471795       -12.8382
  53   2.0000      -0.463278       -12.6064
  54   2.0000      -0.456222       -12.4144
  55   2.0000      -0.447075       -12.1655
  56   2.0000      -0.441378       -12.0105
  57   2.0000      -0.436158       -11.8685
  58   2.0000      -0.433006       -11.7827
  59   2.0000      -0.427083       -11.6215
  60   2.0000      -0.411580       -11.1997
  61   2.0000      -0.409433       -11.1412
  62   2.0000      -0.404507       -11.0072
  63   2.0000      -0.353173        -9.6103
  64   2.0000      -0.330609        -8.9963
  65   2.0000      -0.325643        -8.8612
  66   2.0000      -0.298833        -8.1317
  67   0.0000       0.032786         0.8921
  68   0.0000       0.062482         1.7002
  69   0.0000       0.110509         3.0071
  70   0.0000       0.120547         3.2802
  71   0.0000       0.136727         3.7205

MULLIKEN ATOMIC CHARGES
-----------------------
   0 S :    0.104412
   1 C :   -0.113070
   2 C :   -0.130610
   3 C :    0.041026
   4 C :   -0.130682
   5 H :    0.037495
   6 C :    0.093251
   7 H :    0.013306
   8 H :    0.005389
   9 C :   -0.051319
  10 H :    0.020210
  11 H :    0.031395
  12 C :   -0.053630
  13 H :    0.016760
  14 H :    0.021674
  15 H :    0.048975
  16 S :    0.122425
  17 C :   -0.074560
  18 C :   -0.028379
  19 C :   -0.096952
  20 C :   -0.161766
  21 H :   -0.007573
  22 C :    0.088318
  23 H :    0.009778
  24 H :    0.001893
  25 C :   -0.049723
  26 H :    0.020812
  27 H :    0.041403
  28 C :   -0.074022
  29 H :    0.037890
  30 H :    0.040258
  31 H :    0.035635
  32 H :    0.072100
  33 H :    0.067882
Sum of atomic charges:   -0.0000000

LOEWDIN ATOMIC CHARGES
----------------------
   0 S :    0.403607
   1 C :   -0.209129
   2 C :   -0.057534
   3 C :   -0.063046
   4 C :   -0.181213
   5 H :    0.042863
   6 C :   -0.022058
   7 H :    0.018764
   8 H :    0.023611
   9 C :   -0.031956
  10 H :    0.014423
  11 H :    0.027232
  12 C :   -0.063496
  13 H :    0.016766
  14 H :    0.017910
  15 H :    0.034276
  16 S :    0.478926
  17 C :   -0.224090
  18 C :   -0.074165
  19 C :   -0.063038
  20 C :   -0.226413
  21 H :    0.019252
  22 C :   -0.037863
  23 H :    0.026788
  24 H :    0.025117
  25 C :   -0.040950
  26 H :    0.022484
  27 H :    0.029864
  28 C :   -0.073674
  29 H :    0.030323
  30 H :    0.024462
  31 H :    0.025602
  32 H :    0.040850
  33 H :    0.045505

  Mayer bond orders larger than 0.100000
B(  0-S ,  1-C ) :   1.1373 B(  0-S ,  4-C ) :   1.1525 B(  1-C ,  2-C ) :   1.5818
B(  1-C ,  4-C ) :   0.1083 B(  1-C , 32-H ) :   0.9671 B(  2-C ,  3-C ) :   1.2506
B(  2-C ,  6-C ) :   1.0188 B(  3-C ,  4-C ) :   1.5720 B(  3-C ,  5-H ) :   0.9894
B(  4-C , 20-C ) :   1.0138 B(  6-C ,  7-H ) :   0.9410 B(  6-C ,  8-H ) :   0.9444
B(  6-C ,  9-C ) :   1.0710 B(  9-C , 10-H ) :   0.9567 B(  9-C , 11-H ) :   0.9565
B(  9-C , 12-C ) :   1.0687 B( 12-C , 13-H ) :   0.9764 B( 12-C , 14-H ) :   0.9758
B( 12-C , 15-H ) :   0.9778 B( 16-S , 17-C ) :   1.1946 B( 16-S , 20-C ) :   1.1860
B( 17-C , 18-C ) :   1.5328 B( 17-C , 33-H ) :   0.9675 B( 18-C , 19-C ) :   1.3168
B( 18-C , 21-H ) :   0.9982 B( 19-C , 20-C ) :   1.5427 B( 19-C , 22-C ) :   1.0318
B( 22-C , 23-H ) :   0.9305 B( 22-C , 24-H ) :   0.9282 B( 22-C , 25-C ) :   1.0732
B( 25-C , 26-H ) :   0.9530 B( 25-C , 27-H ) :   0.9538 B( 25-C , 28-C ) :   1.0770
B( 28-C , 29-H ) :   0.9716 B( 28-C , 30-H ) :   0.9755 B( 28-C , 31-H ) :   0.9749

Dispersion correction           -0.015634767
FINAL SINGLE POINT ENERGY     -1339.861077600236

DIPOLE MOMENT
-------------
                                X             Y             Z
Electronic contribution:      0.39301       0.72281      25.83925
Nuclear contribution   :     -0.39274      -1.07026     -26.24093
                        -----------------------------------------
Total Dipole Moment    :      0.00026      -0.34745      -0.40168
                        -----------------------------------------
Magnitude (a.u.)       :      0.53110
Magnitude (Debye)      :      1.34995

Rotational constants in cm-1:     0.020539     0.009249     0.007754
Rotational constants in MHz :   615.746183   277.265541   232.448118

                             ****ORCA TERMINATED NORMALLY****
TOTAL RUN TIME: 0 days 0 hours 0 minutes 22 seconds 675 msec
