                         Program Version 4.2.1 -  RELEASE  -
|  1> ! wB97X-D3 SP def2-SVP
|  2> %pal
|  3> nprocs 24
|  4> end
|  5>
|  6> * xyz 0 1
|  7> S 	 -122.499 	 43.9472 	 -36.4039
|  8> C 	 -121.98 	 42.5967 	 -35.3891
|  9> C 	 -121.364 	 43.1006 	 -34.2565
| 10> C 	 -121.518 	 44.5034 	 -34.1222
| 11> C 	 -122.035 	 45.1194 	 -35.2386
| 12> H 	 -121.233 	 45.1295 	 -33.3277
| 13> C 	 -120.555 	 42.2441 	 -33.2788
| 14> H 	 -120.942 	 41.2334 	 -33.1764
| 15> H 	 -120.66 	 42.6377 	 -32.247
| 16> C 	 -119.085 	 42.2072 	 -33.5333
| 17> H 	 -118.947 	 41.5079 	 -34.3798
| 18> H 	 -118.783 	 43.1491 	 -33.9729
| 19> C 	 -118.043 	 41.8467 	 -32.4114
| 20> H 	 -117.19 	 41.4046 	 -32.8931
| 21> H 	 -117.741 	 42.7414 	 -31.9063
| 22> H 	 -118.436 	 41.0354 	 -31.8461
| 23> S 	 -123.984 	 47.1265 	 -35.1908
| 24> C 	 -123.44 	 48.7395 	 -35.5327
| 25> C 	 -122.13 	 48.8226 	 -35.785
| 26> C 	 -121.507 	 47.561 	 -35.7179
| 27> C 	 -122.34 	 46.5409 	 -35.3317
| 28> H 	 -121.59 	 49.6988 	 -36.0112
| 29> C 	 -120.093 	 47.4106 	 -36.0963
| 30> H 	 -119.626 	 48.135 	 -36.7953
| 31> H 	 -120.172 	 46.5072 	 -36.6813
| 32> C 	 -119.055 	 47.1934 	 -35.0866
| 33> H 	 -118.19 	 47.0956 	 -35.6704
| 34> H 	 -119.239 	 46.2594 	 -34.6115
| 35> C 	 -118.918 	 48.3081 	 -34.0816
| 36> H 	 -118.575 	 49.2494 	 -34.4891
| 37> H 	 -118.108 	 48.1153 	 -33.3568
| 38> H 	 -119.865 	 48.2921 	 -33.5591
| 39> H 	 -121.911 	 41.5519 	 -35.6566
| 40> H 	 -124.052 	 49.6262 	 -35.4898
| 41> *
| 42>
| 43>                          ****END OF INPUT****

CARTESIAN COORDINATES (ANGSTROEM)
---------------------------------
  S    -122.499000   43.947200  -36.403900
  C    -121.980000   42.596700  -35.389100
  C    -121.364000   43.100600  -34.256500
  C    -121.518000   44.503400  -34.122200
  C    -122.035000   45.119400  -35.238600
  H    -121.233000   45.129500  -33.327700
  C    -120.555000   42.244100  -33.278800
  H    -120.942000   41.233400  -33.176400
  H    -120.660000   42.637700  -32.247000
  C    -119.085000   42.207200  -33.533300
  H    -118.947000   41.507900  -34.379800
  H    -118.783000   43.149100  -33.972900
  C    -118.043000   41.846700  -32.411400
  H    -117.190000   41.404600  -32.893100
  H    -117.741000   42.741400  -31.906300
  H    -118.436000   41.035400  -31.846100
  S    -123.984000   47.126500  -35.190800
  C    -123.440000   48.739500  -35.532700
  C    -122.130000   48.822600  -35.785000
  C    -121.507000   47.561000  -35.717900
  C    -122.340000   46.540900  -35.331700
  H    -121.590000   49.698800  -36.011200
  C    -120.093000   47.410600  -36.096300
  H    -119.626000   48.135000  -36.795300
  H    -120.172000   46.507200  -36.681300
  C    -119.055000   47.193400  -35.086600
  H    -118.190000   47.095600  -35.670400
  H    -119.239000   46.259400  -34.611500
  C    -118.918000   48.308100  -34.081600
  H    -118.575000   49.249400  -34.489100
  H    -118.108000   48.115300  -33.356800
  H    -119.865000   48.292100  -33.559100
  H    -121.911000   41.551900  -35.656600
  H    -124.052000   49.626200  -35.489800

 Total Charge           Charge          ....    0
 Multiplicity           Mult            ....    1
 Number of Electrons    NEL             ....  134
 Basis Dimension        Dim             ....  322

ORBITAL ENERGIES
----------------

  NO   OCC          E(Eh)            E(eV)
   0   2.0000     -88.968235     -2420.9488
   1   2.0000     -88.965502     -2420.8744
   2   2.0000     -10.325515      -280.9715
   3   2.0000     -10.320722      -280.8411
   4   2.0000     -10.316313      -280.7211
   5   2.0000     -10.311285      -280.5843
   6   2.0000     -10.303746      -280.3792
   7   2.0000     -10.293900      -280.1113
   8   2.0000     -10.291406      -280.0434
   9   2.0000     -10.289413      -279.9892
  10   2.0000     -10.282625      -279.8044
  11   2.0000     -10.281047      -279.7615
  12   2.0000     -10.277157      -279.6557
  13   2.0000     -10.276963      -279.6504
  14   2.0000     -10.271865      -279.5116
  15   2.0000     -10.267407      -279.3904
  16   2.0000      -8.082944      -219.9481
  17   2.0000      -8.080529      -219.8824
  18   2.0000      -6.041495      -164.3974
  19   2.0000      -6.039058      -164.3311
  20   2.0000      -6.037305      -164.2834
  21   2.0000      -6.035062      -164.2224
  22   2.0000      -6.033786      -164.1877
  23   2.0000      -6.031194      -164.1171
  24   2.0000      -1.013814       -27.5873
  25   2.0000      -0.991731       -26.9864
  26   2.0000      -0.924362       -25.1532
  27   2.0000      -0.912595       -24.8330
  28   2.0000      -0.872664       -23.7464
  29   2.0000      -0.853519       -23.2254
  30   2.0000      -0.848040       -23.0763
  31   2.0000      -0.820395       -22.3241
  32   2.0000      -0.789907       -21.4945
  33   2.0000      -0.779108       -21.2006
  34   2.0000      -0.711371       -19.3574
  35   2.0000      -0.696535       -18.9537
  36   2.0000      -0.688378       -18.7317
  37   2.0000      -0.666461       -18.1353
  38   2.0000      -0.649178       -17.6650
  39   2.0000      -0.618720       -16.8362
  40   2.0000      -0.604717       -16.4552
  41   2.0000      -0.574344       -15.6287
  42   2.0000      -0.562870       -15.3165
  43   2.0000      -0.559434       -15.2230
  44   2.0000      -0.557702       -15.1759
  45   2.0000      -0.526612       -14.3298
  46   2.0000      -0.520794       -14.1715
  47   2.0000      -0.509690       -13.8694
  48   2.0000      -0.502602       -13.6765
  49   2.0000      -0.501920       -13.6580
  50   2.0000      -0.494442       -13.4545
  51   2.0000      -0.488323       -13.2879
  52   2.0000      -0.472852       -12.8670
  53   2.0000      -0.468441       -12.7469
  54   2.0000      -0.464896       -12.6505
  55   2.0000      -0.451639       -12.2897
  56   2.0000      -0.447268       -12.1708
  57   2.0000      -0.435765       -11.8578
  58   2.0000      -0.433009       -11.7828
  59   2.0000      -0.420014       -11.4292
  60   2.0000      -0.418244       -11.3810
  61   2.0000      -0.407544       -11.0898
  62   2.0000      -0.405769       -11.0415
  63   2.0000      -0.340272        -9.2593
  64   2.0000      -0.329924        -8.9777
  65   2.0000      -0.325856        -8.8670
  66   2.0000      -0.310939        -8.4611
  67   0.0000       0.042601         1.1592
  68   0.0000       0.057965         1.5773
  69   0.0000       0.118373         3.2211
  70   0.0000       0.122214         3.3256
  71   0.0000       0.130002         3.5375

MULLIKEN ATOMIC CHARGES
-----------------------
   0 S :    0.123481
   1 C :   -0.114982
   2 C :   -0.086388
   3 C :    0.065130
   4 C :   -0.191672
   5 H :   -0.003596
   6 C :    0.080718
   7 H :    0.019657
   8 H :    0.016346
   9 C :   -0.109163
  10 H :    0.015433
  11 H :    0.023630
  12 C :   -0.003234
  13 H :    0.025013
  14 H :    0.043457
  15 H :    0.025091
  16 S :    0.121165
  17 C :   -0.070737
  18 C :   -0.002752
  19 C :   -0.030183
  20 C :   -0.181562
  21 H :   -0.003913
  22 C :    0.055365
  23 H :    0.020095
  24 H :    0.020400
  25 C :   -0.014515
  26 H :    0.004545
  27 H :    0.008579
  28 C :   -0.042044
  29 H :    0.020028
  30 H :    0.026685
  31 H :    0.041362
  32 H :    0.049634
  33 H :    0.048927
Sum of atomic charges:    0.0000000

LOEWDIN ATOMIC CHARGES
----------------------
   0 S :    0.418955
   1 C :   -0.192740
   2 C :   -0.058243
   3 C :   -0.053222
   4 C :   -0.207935
   5 H :    0.024524
   6 C :   -0.037526
   7 H :    0.026894
   8 H :    0.030222
   9 C :   -0.048824
  10 H :    0.021639
  11 H :    0.020762
  12 C :   -0.055958
  13 H :    0.029458
  14 H :    0.026207
  15 H :    0.022271
  16 S :    0.412051
  17 C :   -0.176266
  18 C :   -0.067856
  19 C :   -0.050221
  20 C :   -0.211913
  21 H :    0.027161
  22 C :   -0.040319
  23 H :    0.033520
  24 H :    0.035940
  25 C :   -0.036037
  26 H :    0.018016
  27 H :    0.016657
  28 C :   -0.065040
  29 H :    0.021900
  30 H :    0.028315
  31 H :    0.027796
  32 H :    0.030986
  33 H :    0.028825

  Mayer bond orders larger than 0.100000
B(  0-S ,  1-C ) :   1.1389 B(  0-S ,  4-C ) :   1.1596 B(  1-C ,  2-C ) :   1.6064
B(  1-C , 32-H ) :   0.9689 B(  2-C ,  3-C ) :   1.2390 B(  2-C ,  6-C ) :   1.0313
B(  3-C ,  4-C ) :   1.5755 B(  3-C ,  5-H ) :   0.9956 B(  4-C , 20-C ) :   1.0197
B(  6-C ,  7-H ) :   0.9373 B(  6-C ,  8-H ) :   0.9403 B(  6-C ,  9-C ) :   1.0601
B(  9-C , 10-H ) :   0.9541 B(  9-C , 11-H ) :   0.9589 B(  9-C , 12-C ) :   1.0759
B( 12-C , 13-H ) :   0.9728 B( 12-C , 14-H ) :   0.9777 B( 12-C , 15-H ) :   0.9762
B( 16-S , 17-C ) :   1.1586 B( 16-S , 20-C ) :   1.1299 B( 17-C , 18-C ) :   1.6058
B( 17-C , 33-H ) :   0.9617 B( 18-C , 19-C ) :   1.2483 B( 18-C , 21-H ) :   1.0038
B( 19-C , 20-C ) :   1.6135 B( 19-C , 22-C ) :   1.0299 B( 22-C , 23-H ) :   0.9441
B( 22-C , 24-H ) :   0.9043 B( 22-C , 25-C ) :   1.1067 B( 25-C , 26-H ) :   0.9440
B( 25-C , 27-H ) :   0.9463 B( 25-C , 28-C ) :   1.0832 B( 28-C , 29-H ) :   0.9713
B( 28-C , 30-H ) :   0.9717 B( 28-C , 31-H ) :   0.9733

Dispersion correction           -0.015183274
FINAL SINGLE POINT ENERGY     -1339.870124468936

DIPOLE MOMENT
-------------
                                X             Y             Z
Electronic contribution:    -27.36825       4.42122     -12.10639
Nuclear contribution   :     28.01891      -4.41112      12.26646
                        -----------------------------------------
Total Dipole Moment    :      0.65066       0.01010       0.16007
                        -----------------------------------------
Magnitude (a.u.)       :      0.67014
Magnitude (Debye)      :      1.70335

Rotational constants in cm-1:     0.019599     0.009089     0.006991
Rotational constants in MHz :   587.560712   272.495351   209.584883

                             ****ORCA TERMINATED NORMALLY****
TOTAL RUN TIME: 0 days 0 hours 0 minutes 21 seconds 327 msec
