                         Program Version 4.2.1 -  RELEASE  -
|  1> ! wB97X-D3 SP def2-SVP
|  2> %pal
|  3> nprocs 24
|  4> end
|  5>
|  6> * xyz 0 1
|  7> S 	 -135.13 	 5.88487 	 -2.73683
|  8> C 	 -135.598 	 5.6661 	 -1.03896
|  9> C 	 -135.77 	 6.85649 	 -0.39142
| 10> C 	 -135.692 	 8.00777 	 -1.23707
| 11> C 	 -135.357 	 7.67454 	 -2.5406
| 12> H 	 -135.949 	 8.98238 	 -0.891068
| 13> C 	 -136.02 	 6.98085 	 1.13355
| 14> H 	 -135.074 	 7.09226 	 1.55056
| 15> H 	 -136.409 	 6.02379 	 1.49679
| 16> C 	 -136.954 	 8.03604 	 1.66394
| 17> H 	 -137.005 	 7.86598 	 2.72897
| 18> H 	 -136.494 	 8.95845 	 1.46528
| 19> C 	 -138.411 	 7.95314 	 1.16208
| 20> H 	 -138.485 	 8.26005 	 0.128032
| 21> H 	 -138.823 	 6.96713 	 1.35318
| 22> H 	 -138.902 	 8.70047 	 1.77968
| 23> S 	 -135.118 	 7.95199 	 -5.20971
| 24> C 	 -134.88 	 9.54363 	 -5.9068
| 25> C 	 -134.922 	 10.5331 	 -4.98049
| 26> C 	 -134.997 	 10.0034 	 -3.66631
| 27> C 	 -135.171 	 8.64905 	 -3.61502
| 28> H 	 -134.787 	 11.5007 	 -5.27345
| 29> C 	 -135.15 	 11.0236 	 -2.50261
| 30> H 	 -134.566 	 11.8852 	 -2.8768
| 31> H 	 -134.691 	 10.5783 	 -1.5982
| 32> C 	 -136.576 	 11.4463 	 -2.26296
| 33> H 	 -137.179 	 10.6827 	 -1.93013
| 34> H 	 -137.067 	 11.6467 	 -3.21627
| 35> C 	 -136.921 	 12.6774 	 -1.36927
| 36> H 	 -136.762 	 12.4237 	 -0.310355
| 37> H 	 -137.849 	 13.183 	 -1.62537
| 38> H 	 -136.05 	 13.367 	 -1.39639
| 39> H 	 -135.56 	 4.72001 	 -0.47429
| 40> H 	 -134.932 	 9.6701 	 -6.94849
| 41> *
| 42>
| 43>                          ****END OF INPUT****

CARTESIAN COORDINATES (ANGSTROEM)
---------------------------------
  S    -135.130000    5.884870   -2.736830
  C    -135.598000    5.666100   -1.038960
  C    -135.770000    6.856490   -0.391420
  C    -135.692000    8.007770   -1.237070
  C    -135.357000    7.674540   -2.540600
  H    -135.949000    8.982380   -0.891068
  C    -136.020000    6.980850    1.133550
  H    -135.074000    7.092260    1.550560
  H    -136.409000    6.023790    1.496790
  C    -136.954000    8.036040    1.663940
  H    -137.005000    7.865980    2.728970
  H    -136.494000    8.958450    1.465280
  C    -138.411000    7.953140    1.162080
  H    -138.485000    8.260050    0.128032
  H    -138.823000    6.967130    1.353180
  H    -138.902000    8.700470    1.779680
  S    -135.118000    7.951990   -5.209710
  C    -134.880000    9.543630   -5.906800
  C    -134.922000   10.533100   -4.980490
  C    -134.997000   10.003400   -3.666310
  C    -135.171000    8.649050   -3.615020
  H    -134.787000   11.500700   -5.273450
  C    -135.150000   11.023600   -2.502610
  H    -134.566000   11.885200   -2.876800
  H    -134.691000   10.578300   -1.598200
  C    -136.576000   11.446300   -2.262960
  H    -137.179000   10.682700   -1.930130
  H    -137.067000   11.646700   -3.216270
  C    -136.921000   12.677400   -1.369270
  H    -136.762000   12.423700   -0.310355
  H    -137.849000   13.183000   -1.625370
  H    -136.050000   13.367000   -1.396390
  H    -135.560000    4.720010   -0.474290
  H    -134.932000    9.670100   -6.948490

 Total Charge           Charge          ....    0
 Multiplicity           Mult            ....    1
 Number of Electrons    NEL             ....  134
 Basis Dimension        Dim             ....  322

ORBITAL ENERGIES
----------------

  NO   OCC          E(Eh)            E(eV)
   0   2.0000     -88.970465     -2421.0094
   1   2.0000     -88.962725     -2420.7988
   2   2.0000     -10.338377      -281.3216
   3   2.0000     -10.326608      -281.0013
   4   2.0000     -10.313635      -280.6483
   5   2.0000     -10.312061      -280.6055
   6   2.0000     -10.302708      -280.3509
   7   2.0000     -10.299815      -280.2722
   8   2.0000     -10.298999      -280.2500
   9   2.0000     -10.293393      -280.0975
  10   2.0000     -10.286948      -279.9221
  11   2.0000     -10.284829      -279.8644
  12   2.0000     -10.284461      -279.8544
  13   2.0000     -10.281218      -279.7662
  14   2.0000     -10.280371      -279.7431
  15   2.0000     -10.276388      -279.6347
  16   2.0000      -8.083466      -219.9623
  17   2.0000      -8.078161      -219.8179
  18   2.0000      -6.042292      -164.4191
  19   2.0000      -6.038437      -164.3142
  20   2.0000      -6.036678      -164.2663
  21   2.0000      -6.033771      -164.1873
  22   2.0000      -6.032666      -164.1572
  23   2.0000      -6.028803      -164.0521
  24   2.0000      -1.008771       -27.4500
  25   2.0000      -0.981571       -26.7099
  26   2.0000      -0.914374       -24.8814
  27   2.0000      -0.910197       -24.7677
  28   2.0000      -0.874143       -23.7866
  29   2.0000      -0.853534       -23.2259
  30   2.0000      -0.843066       -22.9410
  31   2.0000      -0.818702       -22.2780
  32   2.0000      -0.786270       -21.3955
  33   2.0000      -0.777183       -21.1482
  34   2.0000      -0.712510       -19.3884
  35   2.0000      -0.701988       -19.1021
  36   2.0000      -0.693321       -18.8662
  37   2.0000      -0.674163       -18.3449
  38   2.0000      -0.632871       -17.2213
  39   2.0000      -0.629378       -17.1263
  40   2.0000      -0.598574       -16.2880
  41   2.0000      -0.573209       -15.5978
  42   2.0000      -0.562331       -15.3018
  43   2.0000      -0.557195       -15.1621
  44   2.0000      -0.545774       -14.8513
  45   2.0000      -0.536586       -14.6012
  46   2.0000      -0.517869       -14.0919
  47   2.0000      -0.516347       -14.0505
  48   2.0000      -0.504484       -13.7277
  49   2.0000      -0.497459       -13.5365
  50   2.0000      -0.490070       -13.3355
  51   2.0000      -0.482964       -13.1421
  52   2.0000      -0.468849       -12.7580
  53   2.0000      -0.466153       -12.6847
  54   2.0000      -0.460150       -12.5213
  55   2.0000      -0.456811       -12.4305
  56   2.0000      -0.450327       -12.2540
  57   2.0000      -0.438369       -11.9286
  58   2.0000      -0.435230       -11.8432
  59   2.0000      -0.425469       -11.5776
  60   2.0000      -0.414278       -11.2731
  61   2.0000      -0.413129       -11.2418
  62   2.0000      -0.410376       -11.1669
  63   2.0000      -0.364653        -9.9227
  64   2.0000      -0.338304        -9.2057
  65   2.0000      -0.329677        -8.9710
  66   2.0000      -0.283590        -7.7169
  67   0.0000       0.019658         0.5349
  68   0.0000       0.082426         2.2429
  69   0.0000       0.092765         2.5243
  70   0.0000       0.120404         3.2764
  71   0.0000       0.124885         3.3983

MULLIKEN ATOMIC CHARGES
-----------------------
   0 S :    0.101119
   1 C :   -0.133340
   2 C :   -0.085553
   3 C :   -0.020587
   4 C :   -0.059733
   5 H :   -0.010870
   6 C :    0.094143
   7 H :    0.027412
   8 H :    0.005498
   9 C :   -0.083404
  10 H :    0.028309
  11 H :    0.017117
  12 C :   -0.031411
  13 H :    0.039729
  14 H :    0.034616
  15 H :    0.031949
  16 S :    0.078631
  17 C :   -0.061495
  18 C :    0.005415
  19 C :   -0.089596
  20 C :   -0.119468
  21 H :   -0.013855
  22 C :    0.062344
  23 H :    0.024015
  24 H :    0.036941
  25 C :   -0.046266
  26 H :    0.005927
  27 H :    0.013437
  28 C :   -0.039079
  29 H :    0.021727
  30 H :    0.057182
  31 H :    0.013857
  32 H :    0.054542
  33 H :    0.040746
Sum of atomic charges:   -0.0000000

LOEWDIN ATOMIC CHARGES
----------------------
   0 S :    0.363628
   1 C :   -0.197652
   2 C :   -0.058991
   3 C :   -0.065409
   4 C :   -0.159030
   5 H :    0.024213
   6 C :   -0.026592
   7 H :    0.025778
   8 H :    0.025879
   9 C :   -0.039074
  10 H :    0.028862
  11 H :    0.012692
  12 C :   -0.055874
  13 H :    0.024364
  14 H :    0.026274
  15 H :    0.028251
  16 S :    0.397249
  17 C :   -0.162447
  18 C :   -0.057268
  19 C :   -0.057936
  20 C :   -0.188867
  21 H :    0.019602
  22 C :   -0.027781
  23 H :    0.033111
  24 H :    0.028851
  25 C :   -0.047962
  26 H :    0.011627
  27 H :    0.028113
  28 C :   -0.071162
  29 H :    0.025827
  30 H :    0.031937
  31 H :    0.026533
  32 H :    0.035613
  33 H :    0.017639

  Mayer bond orders larger than 0.100000
B(  0-S ,  1-C ) :   1.1009 B(  0-S ,  4-C ) :   1.1237 B(  1-C ,  2-C ) :   1.6685
B(  1-C , 32-H ) :   0.9578 B(  2-C ,  3-C ) :   1.2227 B(  2-C ,  6-C ) :   1.0017
B(  3-C ,  4-C ) :   1.5796 B(  3-C ,  5-H ) :   0.9939 B(  4-C , 20-C ) :   1.0894
B(  6-C ,  7-H ) :   0.9330 B(  6-C ,  8-H ) :   0.9402 B(  6-C ,  9-C ) :   1.0907
B(  9-C , 10-H ) :   0.9513 B(  9-C , 11-H ) :   0.9486 B(  9-C , 12-C ) :   1.0814
B( 12-C , 13-H ) :   0.9747 B( 12-C , 14-H ) :   0.9749 B( 12-C , 15-H ) :   0.9754
B( 16-S , 17-C ) :   1.1529 B( 16-S , 20-C ) :   1.1284 B( 17-C , 18-C ) :   1.6216
B( 17-C , 33-H ) :   0.9718 B( 18-C , 19-C ) :   1.2240 B( 18-C , 21-H ) :   1.0065
B( 19-C , 20-C ) :   1.6099 B( 19-C , 22-C ) :   1.0487 B( 22-C , 23-H ) :   0.9250
B( 22-C , 24-H ) :   0.9298 B( 22-C , 25-C ) :   1.0731 B( 25-C , 26-H ) :   0.9497
B( 25-C , 27-H ) :   0.9465 B( 25-C , 28-C ) :   1.0733 B( 28-C , 29-H ) :   0.9702
B( 28-C , 30-H ) :   0.9762 B( 28-C , 31-H ) :   0.9723

Dispersion correction           -0.014645466
FINAL SINGLE POINT ENERGY     -1339.868766975346

DIPOLE MOMENT
-------------
                                X             Y             Z
Electronic contribution:     12.39163     -18.44408     -23.51657
Nuclear contribution   :    -12.57353      19.00250      24.01666
                        -----------------------------------------
Total Dipole Moment    :     -0.18190       0.55843       0.50009
                        -----------------------------------------
Magnitude (a.u.)       :      0.77138
Magnitude (Debye)      :      1.96068

Rotational constants in cm-1:     0.016393     0.010776     0.006904
Rotational constants in MHz :   491.462552   323.069123   206.984972

                             ****ORCA TERMINATED NORMALLY****
TOTAL RUN TIME: 0 days 0 hours 0 minutes 21 seconds 496 msec
