                         Program Version 4.2.1 -  RELEASE  -
|  1> ! wB97X-D3 SP def2-SVP
|  2> %pal
|  3> nprocs 24
|  4> end
|  5>
|  6> * xyz 0 1
|  7> S 	 47.2645 	 -19.8219 	 -114.99
|  8> C 	 47.589 	 -21.4238 	 -115.593
|  9> C 	 47.3408 	 -22.3713 	 -114.663
| 10> C 	 47.0974 	 -21.802 	 -113.372
| 11> C 	 46.898 	 -20.4442 	 -113.386
| 12> H 	 47.0427 	 -22.3744 	 -112.494
| 13> C 	 47.3704 	 -23.8588 	 -114.934
| 14> H 	 48.2381 	 -24.3795 	 -114.622
| 15> H 	 47.4459 	 -23.9953 	 -116.042
| 16> C 	 46.2628 	 -24.6354 	 -114.214
| 17> H 	 46.328 	 -24.447 	 -113.116
| 18> H 	 45.2922 	 -24.1885 	 -114.516
| 19> C 	 46.2566 	 -26.1223 	 -114.508
| 20> H 	 46.2321 	 -26.3447 	 -115.559
| 21> H 	 47.0893 	 -26.7045 	 -114.246
| 22> H 	 45.408 	 -26.6387 	 -114.017
| 23> S 	 47.5255 	 -18.0555 	 -112.191
| 24> C 	 46.9828 	 -17.7227 	 -110.567
| 25> C 	 46.3798 	 -18.8022 	 -110.013
| 26> C 	 46.1319 	 -19.8461 	 -110.976
| 27> C 	 46.6606 	 -19.5961 	 -112.232
| 28> H 	 45.9797 	 -18.6482 	 -109.005
| 29> C 	 45.3454 	 -21.0592 	 -110.559
| 30> H 	 45.0181 	 -21.4785 	 -111.529
| 31> H 	 44.4601 	 -20.6812 	 -109.99
| 32> C 	 46.0381 	 -22.148 	 -109.879
| 33> H 	 46.1226 	 -21.9298 	 -108.8
| 34> H 	 46.9947 	 -22.1638 	 -110.295
| 35> C 	 45.4248 	 -23.5273 	 -110.068
| 36> H 	 44.3364 	 -23.4607 	 -109.841
| 37> H 	 45.9263 	 -24.239 	 -109.364
| 38> H 	 45.5194 	 -23.9238 	 -111.038
| 39> H 	 47.7092 	 -21.7359 	 -116.657
| 40> H 	 47.2608 	 -16.7933 	 -110.026
| 41> *
| 42>
| 43>                          ****END OF INPUT****

CARTESIAN COORDINATES (ANGSTROEM)
---------------------------------
  S     47.264500  -19.821900  -114.990000
  C     47.589000  -21.423800  -115.593000
  C     47.340800  -22.371300  -114.663000
  C     47.097400  -21.802000  -113.372000
  C     46.898000  -20.444200  -113.386000
  H     47.042700  -22.374400  -112.494000
  C     47.370400  -23.858800  -114.934000
  H     48.238100  -24.379500  -114.622000
  H     47.445900  -23.995300  -116.042000
  C     46.262800  -24.635400  -114.214000
  H     46.328000  -24.447000  -113.116000
  H     45.292200  -24.188500  -114.516000
  C     46.256600  -26.122300  -114.508000
  H     46.232100  -26.344700  -115.559000
  H     47.089300  -26.704500  -114.246000
  H     45.408000  -26.638700  -114.017000
  S     47.525500  -18.055500  -112.191000
  C     46.982800  -17.722700  -110.567000
  C     46.379800  -18.802200  -110.013000
  C     46.131900  -19.846100  -110.976000
  C     46.660600  -19.596100  -112.232000
  H     45.979700  -18.648200  -109.005000
  C     45.345400  -21.059200  -110.559000
  H     45.018100  -21.478500  -111.529000
  H     44.460100  -20.681200  -109.990000
  C     46.038100  -22.148000  -109.879000
  H     46.122600  -21.929800  -108.800000
  H     46.994700  -22.163800  -110.295000
  C     45.424800  -23.527300  -110.068000
  H     44.336400  -23.460700  -109.841000
  H     45.926300  -24.239000  -109.364000
  H     45.519400  -23.923800  -111.038000
  H     47.709200  -21.735900  -116.657000
  H     47.260800  -16.793300  -110.026000

 Total Charge           Charge          ....    0
 Multiplicity           Mult            ....    1
 Number of Electrons    NEL             ....  134
 Basis Dimension        Dim             ....  322

ORBITAL ENERGIES
----------------

  NO   OCC          E(Eh)            E(eV)
   0   2.0000     -88.967704     -2420.9343
   1   2.0000     -88.961430     -2420.7636
   2   2.0000     -10.333020      -281.1758
   3   2.0000     -10.329336      -281.0755
   4   2.0000     -10.318211      -280.7728
   5   2.0000     -10.313620      -280.6479
   6   2.0000     -10.304950      -280.4120
   7   2.0000     -10.298105      -280.2257
   8   2.0000     -10.295059      -280.1428
   9   2.0000     -10.293403      -280.0977
  10   2.0000     -10.293139      -280.0906
  11   2.0000     -10.291413      -280.0436
  12   2.0000     -10.287197      -279.9289
  13   2.0000     -10.281832      -279.7829
  14   2.0000     -10.278167      -279.6832
  15   2.0000     -10.276323      -279.6330
  16   2.0000      -8.082358      -219.9322
  17   2.0000      -8.076552      -219.7742
  18   2.0000      -6.041026      -164.3847
  19   2.0000      -6.036934      -164.2733
  20   2.0000      -6.035098      -164.2234
  21   2.0000      -6.032891      -164.1633
  22   2.0000      -6.031059      -164.1135
  23   2.0000      -6.027175      -164.0078
  24   2.0000      -1.011313       -27.5192
  25   2.0000      -0.988762       -26.9056
  26   2.0000      -0.923393       -25.1268
  27   2.0000      -0.915911       -24.9232
  28   2.0000      -0.876634       -23.8544
  29   2.0000      -0.854888       -23.2627
  30   2.0000      -0.846874       -23.0446
  31   2.0000      -0.821277       -22.3481
  32   2.0000      -0.785871       -21.3846
  33   2.0000      -0.776351       -21.1256
  34   2.0000      -0.717725       -19.5303
  35   2.0000      -0.698876       -19.0174
  36   2.0000      -0.692537       -18.8449
  37   2.0000      -0.664285       -18.0761
  38   2.0000      -0.637901       -17.3582
  39   2.0000      -0.629460       -17.1285
  40   2.0000      -0.597975       -16.2717
  41   2.0000      -0.578954       -15.7541
  42   2.0000      -0.576291       -15.6817
  43   2.0000      -0.559862       -15.2346
  44   2.0000      -0.528724       -14.3873
  45   2.0000      -0.528546       -14.3825
  46   2.0000      -0.525340       -14.2952
  47   2.0000      -0.511308       -13.9134
  48   2.0000      -0.504625       -13.7315
  49   2.0000      -0.497548       -13.5390
  50   2.0000      -0.494822       -13.4648
  51   2.0000      -0.490620       -13.3504
  52   2.0000      -0.475703       -12.9445
  53   2.0000      -0.470826       -12.8118
  54   2.0000      -0.460150       -12.5213
  55   2.0000      -0.450375       -12.2553
  56   2.0000      -0.448436       -12.2026
  57   2.0000      -0.440298       -11.9811
  58   2.0000      -0.433735       -11.8025
  59   2.0000      -0.426980       -11.6187
  60   2.0000      -0.417888       -11.3713
  61   2.0000      -0.415307       -11.3011
  62   2.0000      -0.411251       -11.1907
  63   2.0000      -0.362196        -9.8559
  64   2.0000      -0.332172        -9.0389
  65   2.0000      -0.328624        -8.9423
  66   2.0000      -0.291018        -7.9190
  67   0.0000       0.023484         0.6390
  68   0.0000       0.084144         2.2897
  69   0.0000       0.103951         2.8287
  70   0.0000       0.117678         3.2022
  71   0.0000       0.129925         3.5355

MULLIKEN ATOMIC CHARGES
-----------------------
   0 S :    0.105936
   1 C :   -0.126609
   2 C :   -0.074998
   3 C :    0.035565
   4 C :   -0.112462
   5 H :   -0.044971
   6 C :    0.087902
   7 H :    0.019463
   8 H :    0.014067
   9 C :   -0.125077
  10 H :    0.048742
  11 H :    0.037367
  12 C :   -0.016560
  13 H :    0.018365
  14 H :    0.011243
  15 H :    0.037801
  16 S :    0.080713
  17 C :   -0.105554
  18 C :   -0.024089
  19 C :   -0.088551
  20 C :   -0.092895
  21 H :    0.029444
  22 C :    0.042960
  23 H :    0.015792
  24 H :    0.034901
  25 C :   -0.030598
  26 H :    0.026883
  27 H :    0.019817
  28 C :   -0.048130
  29 H :    0.035510
  30 H :    0.042255
  31 H :    0.014093
  32 H :    0.059399
  33 H :    0.072277
Sum of atomic charges:   -0.0000000

LOEWDIN ATOMIC CHARGES
----------------------
   0 S :    0.399822
   1 C :   -0.202295
   2 C :   -0.063981
   3 C :   -0.055950
   4 C :   -0.182280
   5 H :    0.017329
   6 C :   -0.033730
   7 H :    0.026144
   8 H :    0.032216
   9 C :   -0.042710
  10 H :    0.025418
  11 H :    0.028331
  12 C :   -0.067946
  13 H :    0.024802
  14 H :    0.017932
  15 H :    0.033865
  16 S :    0.390263
  17 C :   -0.181029
  18 C :   -0.079603
  19 C :   -0.054547
  20 C :   -0.189676
  21 H :    0.038105
  22 C :   -0.039666
  23 H :    0.031387
  24 H :    0.035085
  25 C :   -0.044865
  26 H :    0.027915
  27 H :    0.015765
  28 C :   -0.059727
  29 H :    0.030252
  30 H :    0.034160
  31 H :    0.011521
  32 H :    0.039933
  33 H :    0.037760

  Mayer bond orders larger than 0.100000
B(  0-S ,  1-C ) :   1.1218 B(  0-S ,  4-C ) :   1.1391 B(  1-C ,  2-C ) :   1.6550
B(  1-C , 32-H ) :   0.9518 B(  2-C ,  3-C ) :   1.2255 B(  2-C ,  6-C ) :   1.0307
B(  3-C ,  4-C ) :   1.5758 B(  3-C ,  5-H ) :   0.9928 B(  4-C , 20-C ) :   1.0568
B(  6-C ,  7-H ) :   0.9327 B(  6-C ,  8-H ) :   0.9392 B(  6-C ,  9-C ) :   1.0514
B(  9-C , 10-H ) :   0.9408 B(  9-C , 11-H ) :   0.9586 B(  9-C , 12-C ) :   1.0909
B( 12-C , 13-H ) :   0.9710 B( 12-C , 14-H ) :   0.9695 B( 12-C , 15-H ) :   0.9721
B( 16-S , 17-C ) :   1.1524 B( 16-S , 20-C ) :   1.1195 B( 17-C , 18-C ) :   1.6358
B( 17-C , 33-H ) :   0.9606 B( 18-C , 19-C ) :   1.2137 B( 18-C , 21-H ) :   0.9880
B( 19-C , 20-C ) :   1.6137 B( 19-C , 22-C ) :   1.0563 B( 22-C , 23-H ) :   0.9313
B( 22-C , 24-H ) :   0.9245 B( 22-C , 25-C ) :   1.0751 B( 25-C , 26-H ) :   0.9407
B( 25-C , 27-H ) :   0.9444 B( 25-C , 28-C ) :   1.0951 B( 28-C , 29-H ) :   0.9690
B( 28-C , 30-H ) :   0.9711 B( 28-C , 31-H ) :   0.9728

Dispersion correction           -0.014874206
FINAL SINGLE POINT ENERGY     -1339.880354905910

DIPOLE MOMENT
-------------
                                X             Y             Z
Electronic contribution:      8.42849      32.21391      -7.70928
Nuclear contribution   :     -8.53771     -32.89296       8.07831
                        -----------------------------------------
Total Dipole Moment    :     -0.10922      -0.67905       0.36903
                        -----------------------------------------
Magnitude (a.u.)       :      0.78052
Magnitude (Debye)      :      1.98393

Rotational constants in cm-1:     0.018488     0.009957     0.006656
Rotational constants in MHz :   554.249723   298.506075   199.530016

                             ****ORCA TERMINATED NORMALLY****
TOTAL RUN TIME: 0 days 0 hours 0 minutes 22 seconds 616 msec
