                         Program Version 4.2.1 -  RELEASE  -
|  1> ! wB97X-D3 SP def2-SVP
|  2> %pal
|  3> nprocs 24
|  4> end
|  5>
|  6> * xyz 0 1
|  7> S 	 -138.335 	 26.9134 	 -22.0188
|  8> C 	 -138.708 	 25.2016 	 -22.351
|  9> C 	 -137.547 	 24.4456 	 -22.546
| 10> C 	 -136.471 	 25.3228 	 -22.7631
| 11> C 	 -136.663 	 26.593 	 -22.326
| 12> H 	 -135.432 	 24.9115 	 -22.9485
| 13> C 	 -137.31 	 23.0445 	 -22.6498
| 14> H 	 -136.216 	 22.8304 	 -22.6873
| 15> H 	 -137.595 	 22.7964 	 -23.6691
| 16> C 	 -137.961 	 22.1025 	 -21.6038
| 17> H 	 -137.7 	 21.0684 	 -21.9493
| 18> H 	 -137.441 	 22.2108 	 -20.6087
| 19> C 	 -139.545 	 22.1731 	 -21.3967
| 20> H 	 -140.039 	 21.9879 	 -22.3782
| 21> H 	 -139.931 	 21.3417 	 -20.7877
| 22> H 	 -139.757 	 23.1197 	 -20.9526
| 23> S 	 -136.236 	 29.1951 	 -23.0519
| 24> C 	 -134.763 	 29.962 	 -22.4432
| 25> C 	 -133.861 	 29.0813 	 -21.8653
| 26> C 	 -134.36 	 27.7251 	 -21.8576
| 27> C 	 -135.686 	 27.654 	 -22.3771
| 28> H 	 -132.851 	 29.3044 	 -21.3792
| 29> C 	 -133.625 	 26.603 	 -21.0421
| 30> H 	 -134.361 	 25.6724 	 -20.8884
| 31> H 	 -133.556 	 26.9415 	 -19.9641
| 32> C 	 -132.23 	 26.1987 	 -21.4763
| 33> H 	 -131.741 	 25.6024 	 -20.6479
| 34> H 	 -131.65 	 27.0577 	 -21.6485
| 35> C 	 -132.179 	 25.4129 	 -22.7237
| 36> H 	 -132.76 	 24.4554 	 -22.644
| 37> H 	 -131.132 	 25.1134 	 -22.9509
| 38> H 	 -132.591 	 25.9627 	 -23.5835
| 39> H 	 -139.693 	 24.7564 	 -22.3856
| 40> H 	 -134.461 	 30.9798 	 -22.6433
| 41> *
| 42>
| 43>                          ****END OF INPUT****

CARTESIAN COORDINATES (ANGSTROEM)
---------------------------------
  S    -138.335000   26.913400  -22.018800
  C    -138.708000   25.201600  -22.351000
  C    -137.547000   24.445600  -22.546000
  C    -136.471000   25.322800  -22.763100
  C    -136.663000   26.593000  -22.326000
  H    -135.432000   24.911500  -22.948500
  C    -137.310000   23.044500  -22.649800
  H    -136.216000   22.830400  -22.687300
  H    -137.595000   22.796400  -23.669100
  C    -137.961000   22.102500  -21.603800
  H    -137.700000   21.068400  -21.949300
  H    -137.441000   22.210800  -20.608700
  C    -139.545000   22.173100  -21.396700
  H    -140.039000   21.987900  -22.378200
  H    -139.931000   21.341700  -20.787700
  H    -139.757000   23.119700  -20.952600
  S    -136.236000   29.195100  -23.051900
  C    -134.763000   29.962000  -22.443200
  C    -133.861000   29.081300  -21.865300
  C    -134.360000   27.725100  -21.857600
  C    -135.686000   27.654000  -22.377100
  H    -132.851000   29.304400  -21.379200
  C    -133.625000   26.603000  -21.042100
  H    -134.361000   25.672400  -20.888400
  H    -133.556000   26.941500  -19.964100
  C    -132.230000   26.198700  -21.476300
  H    -131.741000   25.602400  -20.647900
  H    -131.650000   27.057700  -21.648500
  C    -132.179000   25.412900  -22.723700
  H    -132.760000   24.455400  -22.644000
  H    -131.132000   25.113400  -22.950900
  H    -132.591000   25.962700  -23.583500
  H    -139.693000   24.756400  -22.385600
  H    -134.461000   30.979800  -22.643300

 Total Charge           Charge          ....    0
 Multiplicity           Mult            ....    1
 Number of Electrons    NEL             ....  134
 Basis Dimension        Dim             ....  322

ORBITAL ENERGIES
----------------

  NO   OCC          E(Eh)            E(eV)
   0   2.0000     -88.970274     -2421.0042
   1   2.0000     -88.967427     -2420.9268
   2   2.0000     -10.331068      -281.1227
   3   2.0000     -10.322164      -280.8804
   4   2.0000     -10.320575      -280.8371
   5   2.0000     -10.313518      -280.6451
   6   2.0000     -10.311992      -280.6036
   7   2.0000     -10.307334      -280.4768
   8   2.0000     -10.304112      -280.3891
   9   2.0000     -10.300794      -280.2988
  10   2.0000     -10.294207      -280.1196
  11   2.0000     -10.292299      -280.0677
  12   2.0000     -10.286821      -279.9186
  13   2.0000     -10.286227      -279.9025
  14   2.0000     -10.285295      -279.8771
  15   2.0000     -10.278612      -279.6953
  16   2.0000      -8.084238      -219.9833
  17   2.0000      -8.081865      -219.9187
  18   2.0000      -6.042834      -164.4339
  19   2.0000      -6.040453      -164.3691
  20   2.0000      -6.038881      -164.3263
  21   2.0000      -6.036533      -164.2624
  22   2.0000      -6.034912      -164.2183
  23   2.0000      -6.032435      -164.1509
  24   2.0000      -1.007826       -27.4243
  25   2.0000      -0.979727       -26.6597
  26   2.0000      -0.916470       -24.9384
  27   2.0000      -0.911096       -24.7922
  28   2.0000      -0.862129       -23.4597
  29   2.0000      -0.852325       -23.1929
  30   2.0000      -0.846026       -23.0215
  31   2.0000      -0.806927       -21.9576
  32   2.0000      -0.786711       -21.4075
  33   2.0000      -0.771582       -20.9958
  34   2.0000      -0.706622       -19.2282
  35   2.0000      -0.702774       -19.1235
  36   2.0000      -0.687582       -18.7101
  37   2.0000      -0.653581       -17.7848
  38   2.0000      -0.633464       -17.2374
  39   2.0000      -0.612338       -16.6626
  40   2.0000      -0.595627       -16.2078
  41   2.0000      -0.572519       -15.5790
  42   2.0000      -0.552865       -15.0442
  43   2.0000      -0.544722       -14.8227
  44   2.0000      -0.542942       -14.7742
  45   2.0000      -0.531219       -14.4552
  46   2.0000      -0.518298       -14.1036
  47   2.0000      -0.509342       -13.8599
  48   2.0000      -0.506525       -13.7833
  49   2.0000      -0.494515       -13.4564
  50   2.0000      -0.488262       -13.2863
  51   2.0000      -0.477320       -12.9885
  52   2.0000      -0.467353       -12.7173
  53   2.0000      -0.461611       -12.5611
  54   2.0000      -0.460634       -12.5345
  55   2.0000      -0.450379       -12.2554
  56   2.0000      -0.445026       -12.1098
  57   2.0000      -0.433103       -11.7853
  58   2.0000      -0.431769       -11.7490
  59   2.0000      -0.422384       -11.4936
  60   2.0000      -0.419857       -11.4249
  61   2.0000      -0.417216       -11.3530
  62   2.0000      -0.414810       -11.2876
  63   2.0000      -0.344677        -9.3791
  64   2.0000      -0.333635        -9.0787
  65   2.0000      -0.326012        -8.8712
  66   2.0000      -0.284633        -7.7453
  67   0.0000       0.023568         0.6413
  68   0.0000       0.071378         1.9423
  69   0.0000       0.098200         2.6722
  70   0.0000       0.113013         3.0752
  71   0.0000       0.121149         3.2966

MULLIKEN ATOMIC CHARGES
-----------------------
   0 S :    0.113472
   1 C :   -0.140153
   2 C :   -0.070843
   3 C :   -0.007961
   4 C :   -0.131930
   5 H :    0.024949
   6 C :    0.054707
   7 H :    0.026853
   8 H :    0.035950
   9 C :   -0.097352
  10 H :    0.030778
  11 H :    0.044223
  12 C :   -0.074156
  13 H :    0.036951
  14 H :    0.042051
  15 H :    0.051397
  16 S :    0.112959
  17 C :   -0.086651
  18 C :   -0.053668
  19 C :   -0.017070
  20 C :   -0.159537
  21 H :    0.051387
  22 C :   -0.038927
  23 H :    0.045989
  24 H :    0.048142
  25 C :   -0.037260
  26 H :    0.038318
  27 H :    0.014542
  28 C :   -0.069914
  29 H :    0.027597
  30 H :    0.035908
  31 H :    0.043602
  32 H :    0.048526
  33 H :    0.057122
Sum of atomic charges:    0.0000000

LOEWDIN ATOMIC CHARGES
----------------------
   0 S :    0.401533
   1 C :   -0.197453
   2 C :   -0.062169
   3 C :   -0.068943
   4 C :   -0.202610
   5 H :    0.036834
   6 C :   -0.044110
   7 H :    0.039157
   8 H :    0.039808
   9 C :   -0.039201
  10 H :    0.026303
  11 H :    0.029451
  12 C :   -0.070969
  13 H :    0.028862
  14 H :    0.031504
  15 H :    0.020543
  16 S :    0.394432
  17 C :   -0.183441
  18 C :   -0.076001
  19 C :   -0.058433
  20 C :   -0.187311
  21 H :    0.045743
  22 C :   -0.046852
  23 H :    0.040644
  24 H :    0.038441
  25 C :   -0.050168
  26 H :    0.034771
  27 H :    0.017669
  28 C :   -0.070706
  29 H :    0.023376
  30 H :    0.029091
  31 H :    0.028073
  32 H :    0.024442
  33 H :    0.027691

  Mayer bond orders larger than 0.100000
B(  0-S ,  1-C ) :   1.1222 B(  0-S ,  4-C ) :   1.1419 B(  1-C ,  2-C ) :   1.5836
B(  1-C , 32-H ) :   0.9624 B(  2-C ,  3-C ) :   1.2611 B(  2-C ,  6-C ) :   1.0295
B(  3-C ,  4-C ) :   1.5823 B(  3-C ,  5-H ) :   0.9721 B(  4-C , 20-C ) :   1.0593
B(  6-C ,  7-H ) :   0.9367 B(  6-C ,  8-H ) :   0.9211 B(  6-C ,  9-C ) :   1.0635
B(  9-C , 10-H ) :   0.9559 B(  9-C , 11-H ) :   0.9598 B(  9-C , 12-C ) :   1.0677
B( 12-C , 13-H ) :   0.9763 B( 12-C , 14-H ) :   0.9728 B( 12-C , 15-H ) :   0.9698
B( 16-S , 17-C ) :   1.1361 B( 16-S , 20-C ) :   1.1420 B( 17-C , 18-C ) :   1.6217
B( 17-C , 33-H ) :   0.9657 B( 18-C , 19-C ) :   1.2503 B( 18-C , 21-H ) :   0.9707
B( 19-C , 20-C ) :   1.5780 B( 19-C , 22-C ) :   1.0195 B( 22-C , 23-H ) :   0.9417
B( 22-C , 24-H ) :   0.9435 B( 22-C , 25-C ) :   1.0664 B( 25-C , 26-H ) :   0.9488
B( 25-C , 27-H ) :   0.9502 B( 25-C , 28-C ) :   1.0957 B( 28-C , 29-H ) :   0.9679
B( 28-C , 30-H ) :   0.9699 B( 28-C , 31-H ) :   0.9714

Dispersion correction           -0.014601909
FINAL SINGLE POINT ENERGY     -1339.860147145221

DIPOLE MOMENT
-------------
                                X             Y             Z
Electronic contribution:    -10.57799      25.46806      -4.46350
Nuclear contribution   :     11.03368     -26.02056       4.60244
                        -----------------------------------------
Total Dipole Moment    :      0.45569      -0.55250       0.13894
                        -----------------------------------------
Magnitude (a.u.)       :      0.72953
Magnitude (Debye)      :      1.85431

Rotational constants in cm-1:     0.020049     0.008807     0.006511
Rotational constants in MHz :   601.060027   264.023927   195.195849

                             ****ORCA TERMINATED NORMALLY****
TOTAL RUN TIME: 0 days 0 hours 0 minutes 22 seconds 213 msec
