                         Program Version 4.2.1 -  RELEASE  -
|  1> ! wB97X-D3 SP def2-SVP
|  2> %pal
|  3> nprocs 24
|  4> end
|  5>
|  6> * xyz 0 1
|  7> S 	 -89.454 	 -10.7996 	 -112.383
|  8> C 	 -90.481 	 -11.8828 	 -113.166
|  9> C 	 -91.2393 	 -11.2398 	 -114.181
| 10> C 	 -90.8101 	 -9.90836 	 -114.315
| 11> C 	 -89.7216 	 -9.51727 	 -113.553
| 12> H 	 -91.2615 	 -9.20341 	 -115.007
| 13> C 	 -92.5192 	 -11.8116 	 -114.855
| 14> H 	 -93.0551 	 -12.3747 	 -114.044
| 15> H 	 -92.3125 	 -12.6346 	 -115.602
| 16> C 	 -93.5161 	 -10.8313 	 -115.576
| 17> H 	 -93.1538 	 -10.2702 	 -116.428
| 18> H 	 -94.1811 	 -11.5949 	 -116.012
| 19> C 	 -94.4554 	 -9.97654 	 -114.705
| 20> H 	 -95.337 	 -9.82447 	 -115.422
| 21> H 	 -94.746 	 -10.5046 	 -113.821
| 22> H 	 -94.051 	 -9.07802 	 -114.343
| 23> S 	 -87.4292 	 -7.9999 	 -113.761
| 24> C 	 -87.4863 	 -6.31582 	 -113.416
| 25> C 	 -88.7466 	 -5.96264 	 -113.012
| 26> C 	 -89.7241 	 -6.96649 	 -113.115
| 27> C 	 -89.1573 	 -8.18299 	 -113.432
| 28> H 	 -88.9143 	 -5.05539 	 -112.517
| 29> C 	 -91.1499 	 -6.80092 	 -112.616
| 30> H 	 -91.8737 	 -7.00824 	 -113.402
| 31> H 	 -91.235 	 -5.70591 	 -112.55
| 32> C 	 -91.4824 	 -7.34307 	 -111.177
| 33> H 	 -91.7077 	 -8.41836 	 -111.165
| 34> H 	 -92.3597 	 -6.80435 	 -110.712
| 35> C 	 -90.3604 	 -7.02815 	 -110.257
| 36> H 	 -90.7388 	 -7.18321 	 -109.214
| 37> H 	 -90.0177 	 -6.01874 	 -110.439
| 38> H 	 -89.4632 	 -7.61602 	 -110.413
| 39> H 	 -90.8213 	 -12.8019 	 -112.78
| 40> H 	 -86.6533 	 -5.64128 	 -113.435
| 41> *
| 42>
| 43>                          ****END OF INPUT****

CARTESIAN COORDINATES (ANGSTROEM)
---------------------------------
  S    -89.454000  -10.799600  -112.383000
  C    -90.481000  -11.882800  -113.166000
  C    -91.239300  -11.239800  -114.181000
  C    -90.810100   -9.908360  -114.315000
  C    -89.721600   -9.517270  -113.553000
  H    -91.261500   -9.203410  -115.007000
  C    -92.519200  -11.811600  -114.855000
  H    -93.055100  -12.374700  -114.044000
  H    -92.312500  -12.634600  -115.602000
  C    -93.516100  -10.831300  -115.576000
  H    -93.153800  -10.270200  -116.428000
  H    -94.181100  -11.594900  -116.012000
  C    -94.455400   -9.976540  -114.705000
  H    -95.337000   -9.824470  -115.422000
  H    -94.746000  -10.504600  -113.821000
  H    -94.051000   -9.078020  -114.343000
  S    -87.429200   -7.999900  -113.761000
  C    -87.486300   -6.315820  -113.416000
  C    -88.746600   -5.962640  -113.012000
  C    -89.724100   -6.966490  -113.115000
  C    -89.157300   -8.182990  -113.432000
  H    -88.914300   -5.055390  -112.517000
  C    -91.149900   -6.800920  -112.616000
  H    -91.873700   -7.008240  -113.402000
  H    -91.235000   -5.705910  -112.550000
  C    -91.482400   -7.343070  -111.177000
  H    -91.707700   -8.418360  -111.165000
  H    -92.359700   -6.804350  -110.712000
  C    -90.360400   -7.028150  -110.257000
  H    -90.738800   -7.183210  -109.214000
  H    -90.017700   -6.018740  -110.439000
  H    -89.463200   -7.616020  -110.413000
  H    -90.821300  -12.801900  -112.780000
  H    -86.653300   -5.641280  -113.435000

 Total Charge           Charge          ....    0
 Multiplicity           Mult            ....    1
 Number of Electrons    NEL             ....  134
 Basis Dimension        Dim             ....  322

ORBITAL ENERGIES
----------------

  NO   OCC          E(Eh)            E(eV)
   0   2.0000     -88.968722     -2420.9620
   1   2.0000     -88.964473     -2420.8464
   2   2.0000     -10.325923      -280.9827
   3   2.0000     -10.325156      -280.9618
   4   2.0000     -10.313211      -280.6367
   5   2.0000     -10.309322      -280.5309
   6   2.0000     -10.307315      -280.4763
   7   2.0000     -10.302131      -280.3352
   8   2.0000     -10.299984      -280.2768
   9   2.0000     -10.293839      -280.1096
  10   2.0000     -10.293393      -280.0974
  11   2.0000     -10.291007      -280.0325
  12   2.0000     -10.288264      -279.9579
  13   2.0000     -10.285688      -279.8878
  14   2.0000     -10.279511      -279.7197
  15   2.0000     -10.269693      -279.4526
  16   2.0000      -8.083899      -219.9741
  17   2.0000      -8.079547      -219.8557
  18   2.0000      -6.042259      -164.4182
  19   2.0000      -6.038190      -164.3075
  20   2.0000      -6.037900      -164.2996
  21   2.0000      -6.034940      -164.2191
  22   2.0000      -6.033932      -164.1916
  23   2.0000      -6.030520      -164.0988
  24   2.0000      -1.010505       -27.4972
  25   2.0000      -0.990591       -26.9553
  26   2.0000      -0.909953       -24.7611
  27   2.0000      -0.903733       -24.5918
  28   2.0000      -0.871681       -23.7196
  29   2.0000      -0.852535       -23.1987
  30   2.0000      -0.847726       -23.0678
  31   2.0000      -0.814664       -22.1681
  32   2.0000      -0.784048       -21.3350
  33   2.0000      -0.772348       -21.0167
  34   2.0000      -0.709814       -19.3150
  35   2.0000      -0.695739       -18.9320
  36   2.0000      -0.687141       -18.6980
  37   2.0000      -0.665423       -18.1071
  38   2.0000      -0.640304       -17.4236
  39   2.0000      -0.623229       -16.9589
  40   2.0000      -0.590762       -16.0755
  41   2.0000      -0.569821       -15.5056
  42   2.0000      -0.556266       -15.1368
  43   2.0000      -0.554207       -15.0807
  44   2.0000      -0.543440       -14.7878
  45   2.0000      -0.535341       -14.5674
  46   2.0000      -0.520952       -14.1758
  47   2.0000      -0.509190       -13.8558
  48   2.0000      -0.504480       -13.7276
  49   2.0000      -0.489237       -13.3128
  50   2.0000      -0.488325       -13.2880
  51   2.0000      -0.484430       -13.1820
  52   2.0000      -0.474470       -12.9110
  53   2.0000      -0.467267       -12.7150
  54   2.0000      -0.455401       -12.3921
  55   2.0000      -0.441675       -12.0186
  56   2.0000      -0.439162       -11.9502
  57   2.0000      -0.434532       -11.8242
  58   2.0000      -0.431939       -11.7537
  59   2.0000      -0.431131       -11.7317
  60   2.0000      -0.428653       -11.6642
  61   2.0000      -0.408516       -11.1163
  62   2.0000      -0.406739       -11.0679
  63   2.0000      -0.341714        -9.2985
  64   2.0000      -0.334025        -9.0893
  65   2.0000      -0.328156        -8.9296
  66   2.0000      -0.294306        -8.0085
  67   0.0000       0.031932         0.8689
  68   0.0000       0.059117         1.6087
  69   0.0000       0.113188         3.0800
  70   0.0000       0.123522         3.3612
  71   0.0000       0.124340         3.3835

MULLIKEN ATOMIC CHARGES
-----------------------
   0 S :    0.128426
   1 C :   -0.087170
   2 C :   -0.088861
   3 C :    0.017845
   4 C :   -0.135072
   5 H :    0.011455
   6 C :    0.020191
   7 H :    0.030723
   8 H :    0.049405
   9 C :   -0.106802
  10 H :    0.041169
  11 H :    0.028402
  12 C :   -0.027648
  13 H :    0.047208
  14 H :    0.021259
  15 H :    0.026898
  16 S :    0.116536
  17 C :   -0.075050
  18 C :   -0.038170
  19 C :   -0.035222
  20 C :   -0.201464
  21 H :    0.000654
  22 C :    0.075504
  23 H :    0.030185
  24 H :    0.008177
  25 C :   -0.063760
  26 H :    0.041581
  27 H :    0.037108
  28 C :   -0.043337
  29 H :    0.041074
  30 H :    0.010489
  31 H :    0.034942
  32 H :    0.032258
  33 H :    0.051065
Sum of atomic charges:   -0.0000000

LOEWDIN ATOMIC CHARGES
----------------------
   0 S :    0.445638
   1 C :   -0.214593
   2 C :   -0.070728
   3 C :   -0.060304
   4 C :   -0.209089
   5 H :    0.030100
   6 C :   -0.039335
   7 H :    0.034652
   8 H :    0.039280
   9 C :   -0.049338
  10 H :    0.024672
  11 H :    0.032514
  12 C :   -0.061570
  13 H :    0.040843
  14 H :    0.022195
  15 H :    0.013842
  16 S :    0.418546
  17 C :   -0.189132
  18 C :   -0.072153
  19 C :   -0.058272
  20 C :   -0.194862
  21 H :    0.020782
  22 C :   -0.035614
  23 H :    0.029553
  24 H :    0.030718
  25 C :   -0.040092
  26 H :    0.024123
  27 H :    0.032327
  28 C :   -0.067563
  29 H :    0.032034
  30 H :    0.019336
  31 H :    0.023718
  32 H :    0.019185
  33 H :    0.028587

  Mayer bond orders larger than 0.100000
B(  0-S ,  1-C ) :   1.1909 B(  0-S ,  4-C ) :   1.1699 B(  1-C ,  2-C ) :   1.5388
B(  1-C ,  4-C ) :   0.1131 B(  1-C , 32-H ) :   0.9719 B(  2-C ,  3-C ) :   1.3284
B(  2-C ,  6-C ) :   0.9943 B(  3-C ,  4-C ) :   1.5199 B(  3-C ,  5-H ) :   0.9953
B(  4-C , 20-C ) :   1.0346 B(  6-C ,  7-H ) :   0.9440 B(  6-C ,  8-H ) :   0.9444
B(  6-C ,  9-C ) :   1.0795 B(  9-C , 10-H ) :   0.9538 B(  9-C , 11-H ) :   0.9549
B(  9-C , 12-C ) :   1.0703 B( 12-C , 13-H ) :   0.9770 B( 12-C , 14-H ) :   0.9722
B( 12-C , 15-H ) :   0.9786 B( 16-S , 17-C ) :   1.1665 B( 16-S , 20-C ) :   1.1577
B( 17-C , 18-C ) :   1.5883 B( 17-C , 20-C ) :   0.1048 B( 17-C , 33-H ) :   0.9701
B( 18-C , 19-C ) :   1.2621 B( 18-C , 21-H ) :   0.9903 B( 19-C , 20-C ) :   1.5750
B( 19-C , 22-C ) :   1.0487 B( 22-C , 23-H ) :   0.9329 B( 22-C , 24-H ) :   0.9267
B( 22-C , 25-C ) :   1.0558 B( 25-C , 26-H ) :   0.9543 B( 25-C , 27-H ) :   0.9603
B( 25-C , 28-C ) :   1.0862 B( 28-C , 29-H ) :   0.9714 B( 28-C , 30-H ) :   0.9731
B( 28-C , 31-H ) :   0.9625

Dispersion correction           -0.016035026
FINAL SINGLE POINT ENERGY     -1339.868030166225

DIPOLE MOMENT
-------------
                                X             Y             Z
Electronic contribution:     25.08602      -3.51354      -1.69726
Nuclear contribution   :    -25.79959       3.65340       1.77626
                        -----------------------------------------
Total Dipole Moment    :     -0.71357       0.13986       0.07900
                        -----------------------------------------
Magnitude (a.u.)       :      0.73143
Magnitude (Debye)      :      1.85914

Rotational constants in cm-1:     0.019931     0.009228     0.008156
Rotational constants in MHz :   597.505172   276.639364   244.500431

                             ****ORCA TERMINATED NORMALLY****
TOTAL RUN TIME: 0 days 0 hours 0 minutes 21 seconds 796 msec
