                         Program Version 4.2.1 -  RELEASE  -
|  1> ! wB97X-D3 SP def2-SVP
|  2> %pal
|  3> nprocs 24
|  4> end
|  5>
|  6> * xyz 0 1
|  7> S 	 -122.36 	 51.2748 	 -36.894
|  8> C 	 -121.212 	 52.3549 	 -36.1224
|  9> C 	 -121.709 	 53.6687 	 -36.37
| 10> C 	 -123.121 	 53.6335 	 -36.5832
| 11> C 	 -123.625 	 52.4171 	 -36.8601
| 12> H 	 -123.832 	 54.4797 	 -36.5017
| 13> C 	 -120.902 	 54.8973 	 -36.0907
| 14> H 	 -120.128 	 54.7541 	 -36.8428
| 15> H 	 -120.403 	 54.9029 	 -35.1741
| 16> C 	 -121.494 	 56.2933 	 -36.3216
| 17> H 	 -120.678 	 56.9851 	 -36.584
| 18> H 	 -122.065 	 56.3094 	 -37.226
| 19> C 	 -122.301 	 56.8528 	 -35.125
| 20> H 	 -122.951 	 57.6696 	 -35.5512
| 21> H 	 -123.097 	 56.0415 	 -34.7657
| 22> H 	 -121.66 	 57.1944 	 -34.3251
| 23> S 	 -126.014 	 51.3626 	 -35.835
| 24> C 	 -127.449 	 51.4312 	 -36.7734
| 25> C 	 -127.203 	 52.0546 	 -38.0108
| 26> C 	 -125.856 	 52.4106 	 -38.2397
| 27> C 	 -125.038 	 52.0771 	 -37.1511
| 28> H 	 -127.972 	 52.1482 	 -38.7152
| 29> C 	 -125.352 	 53.176 	 -39.4449
| 30> H 	 -125.831 	 52.7149 	 -40.3124
| 31> H 	 -124.331 	 52.9243 	 -39.5557
| 32> C 	 -125.518 	 54.7265 	 -39.2721
| 33> H 	 -125.324 	 54.9449 	 -38.1964
| 34> H 	 -126.562 	 54.9326 	 -39.6146
| 35> C 	 -124.55 	 55.4443 	 -40.2518
| 36> H 	 -123.478 	 55.2529 	 -40.0645
| 37> H 	 -124.753 	 56.5197 	 -40.1307
| 38> H 	 -124.707 	 55.182 	 -41.3071
| 39> H 	 -120.165 	 52.2132 	 -36.113
| 40> H 	 -128.363 	 51.0467 	 -36.4385
| 41> *
| 42>
| 43>                          ****END OF INPUT****

CARTESIAN COORDINATES (ANGSTROEM)
---------------------------------
  S    -122.360000   51.274800  -36.894000
  C    -121.212000   52.354900  -36.122400
  C    -121.709000   53.668700  -36.370000
  C    -123.121000   53.633500  -36.583200
  C    -123.625000   52.417100  -36.860100
  H    -123.832000   54.479700  -36.501700
  C    -120.902000   54.897300  -36.090700
  H    -120.128000   54.754100  -36.842800
  H    -120.403000   54.902900  -35.174100
  C    -121.494000   56.293300  -36.321600
  H    -120.678000   56.985100  -36.584000
  H    -122.065000   56.309400  -37.226000
  C    -122.301000   56.852800  -35.125000
  H    -122.951000   57.669600  -35.551200
  H    -123.097000   56.041500  -34.765700
  H    -121.660000   57.194400  -34.325100
  S    -126.014000   51.362600  -35.835000
  C    -127.449000   51.431200  -36.773400
  C    -127.203000   52.054600  -38.010800
  C    -125.856000   52.410600  -38.239700
  C    -125.038000   52.077100  -37.151100
  H    -127.972000   52.148200  -38.715200
  C    -125.352000   53.176000  -39.444900
  H    -125.831000   52.714900  -40.312400
  H    -124.331000   52.924300  -39.555700
  C    -125.518000   54.726500  -39.272100
  H    -125.324000   54.944900  -38.196400
  H    -126.562000   54.932600  -39.614600
  C    -124.550000   55.444300  -40.251800
  H    -123.478000   55.252900  -40.064500
  H    -124.753000   56.519700  -40.130700
  H    -124.707000   55.182000  -41.307100
  H    -120.165000   52.213200  -36.113000
  H    -128.363000   51.046700  -36.438500

 Total Charge           Charge          ....    0
 Multiplicity           Mult            ....    1
 Number of Electrons    NEL             ....  134
 Basis Dimension        Dim             ....  322

ORBITAL ENERGIES
----------------

  NO   OCC          E(Eh)            E(eV)
   0   2.0000     -88.964774     -2420.8546
   1   2.0000     -88.961364     -2420.7618
   2   2.0000     -10.326785      -281.0061
   3   2.0000     -10.323060      -280.9047
   4   2.0000     -10.315591      -280.7015
   5   2.0000     -10.310273      -280.5568
   6   2.0000     -10.306710      -280.4598
   7   2.0000     -10.302512      -280.3456
   8   2.0000     -10.298296      -280.2309
   9   2.0000     -10.292760      -280.0803
  10   2.0000     -10.291487      -280.0456
  11   2.0000     -10.289748      -279.9983
  12   2.0000     -10.288463      -279.9633
  13   2.0000     -10.286631      -279.9135
  14   2.0000     -10.286031      -279.8971
  15   2.0000     -10.283881      -279.8386
  16   2.0000      -8.079442      -219.8528
  17   2.0000      -8.076772      -219.7801
  18   2.0000      -6.037803      -164.2970
  19   2.0000      -6.035205      -164.2263
  20   2.0000      -6.033812      -164.1884
  21   2.0000      -6.031137      -164.1156
  22   2.0000      -6.030519      -164.0988
  23   2.0000      -6.027603      -164.0194
  24   2.0000      -1.008744       -27.4493
  25   2.0000      -0.985293       -26.8112
  26   2.0000      -0.913882       -24.8680
  27   2.0000      -0.906541       -24.6682
  28   2.0000      -0.865908       -23.5626
  29   2.0000      -0.849754       -23.1230
  30   2.0000      -0.841983       -22.9115
  31   2.0000      -0.816005       -22.2046
  32   2.0000      -0.783259       -21.3136
  33   2.0000      -0.770638       -20.9701
  34   2.0000      -0.706711       -19.2306
  35   2.0000      -0.699784       -19.0421
  36   2.0000      -0.691731       -18.8230
  37   2.0000      -0.661838       -18.0095
  38   2.0000      -0.642477       -17.4827
  39   2.0000      -0.619374       -16.8540
  40   2.0000      -0.596433       -16.2298
  41   2.0000      -0.575500       -15.6601
  42   2.0000      -0.566455       -15.4140
  43   2.0000      -0.548102       -14.9146
  44   2.0000      -0.533671       -14.5219
  45   2.0000      -0.525565       -14.3013
  46   2.0000      -0.521884       -14.2012
  47   2.0000      -0.514453       -13.9990
  48   2.0000      -0.510235       -13.8842
  49   2.0000      -0.493493       -13.4286
  50   2.0000      -0.486349       -13.2342
  51   2.0000      -0.478914       -13.0319
  52   2.0000      -0.475385       -12.9359
  53   2.0000      -0.467060       -12.7093
  54   2.0000      -0.459962       -12.5162
  55   2.0000      -0.444265       -12.0891
  56   2.0000      -0.442614       -12.0441
  57   2.0000      -0.436408       -11.8753
  58   2.0000      -0.433000       -11.7825
  59   2.0000      -0.427313       -11.6278
  60   2.0000      -0.420501       -11.4424
  61   2.0000      -0.415467       -11.3054
  62   2.0000      -0.409401       -11.1404
  63   2.0000      -0.335655        -9.1336
  64   2.0000      -0.327635        -8.9154
  65   2.0000      -0.318333        -8.6623
  66   2.0000      -0.306754        -8.3472
  67   0.0000       0.033678         0.9164
  68   0.0000       0.054183         1.4744
  69   0.0000       0.112170         3.0523
  70   0.0000       0.121547         3.3075
  71   0.0000       0.129355         3.5199

MULLIKEN ATOMIC CHARGES
-----------------------
   0 S :    0.112481
   1 C :   -0.088591
   2 C :   -0.126420
   3 C :    0.012383
   4 C :   -0.149530
   5 H :    0.023908
   6 C :    0.070558
   7 H :    0.028451
   8 H :    0.028428
   9 C :   -0.071945
  10 H :    0.029492
  11 H :    0.015063
  12 C :   -0.095044
  13 H :    0.044634
  14 H :    0.052655
  15 H :    0.049312
  16 S :    0.117131
  17 C :   -0.072609
  18 C :   -0.023067
  19 C :   -0.039149
  20 C :   -0.195058
  21 H :   -0.006478
  22 C :    0.100617
  23 H :    0.023613
  24 H :    0.008914
  25 C :   -0.072675
  26 H :    0.044734
  27 H :    0.040974
  28 C :   -0.067295
  29 H :    0.041932
  30 H :    0.038883
  31 H :    0.035766
  32 H :    0.046271
  33 H :    0.041663
Sum of atomic charges:   -0.0000000

LOEWDIN ATOMIC CHARGES
----------------------
   0 S :    0.425284
   1 C :   -0.203679
   2 C :   -0.048471
   3 C :   -0.076927
   4 C :   -0.212005
   5 H :    0.033412
   6 C :   -0.037814
   7 H :    0.039761
   8 H :    0.027471
   9 C :   -0.047243
  10 H :    0.029945
  11 H :    0.018845
  12 C :   -0.075978
  13 H :    0.033122
  14 H :    0.038166
  15 H :    0.023993
  16 S :    0.416751
  17 C :   -0.181085
  18 C :   -0.070955
  19 C :   -0.048800
  20 C :   -0.201278
  21 H :    0.019972
  22 C :   -0.030045
  23 H :    0.031051
  24 H :    0.022308
  25 C :   -0.032637
  26 H :    0.028413
  27 H :    0.031222
  28 C :   -0.071981
  29 H :    0.026313
  30 H :    0.027669
  31 H :    0.027660
  32 H :    0.019161
  33 H :    0.018378

  Mayer bond orders larger than 0.100000
B(  0-S ,  1-C ) :   1.1410 B(  0-S ,  4-C ) :   1.1806 B(  1-C ,  2-C ) :   1.5778
B(  1-C ,  4-C ) :   0.1040 B(  1-C , 32-H ) :   0.9693 B(  2-C ,  3-C ) :   1.2436
B(  2-C ,  6-C ) :   1.0153 B(  3-C ,  4-C ) :   1.5859 B(  3-C ,  5-H ) :   0.9796
B(  4-C , 20-C ) :   0.9901 B(  6-C ,  7-H ) :   0.9217 B(  6-C ,  8-H ) :   0.9449
B(  6-C ,  9-C ) :   1.0921 B(  9-C , 10-H ) :   0.9514 B(  9-C , 11-H ) :   0.9527
B(  9-C , 12-C ) :   1.0668 B( 12-C , 13-H ) :   0.9748 B( 12-C , 14-H ) :   0.9747
B( 12-C , 15-H ) :   0.9747 B( 16-S , 17-C ) :   1.1877 B( 16-S , 20-C ) :   1.1552
B( 17-C , 18-C ) :   1.5526 B( 17-C , 20-C ) :   0.1108 B( 17-C , 33-H ) :   0.9775
B( 18-C , 19-C ) :   1.2711 B( 18-C , 21-H ) :   1.0007 B( 19-C , 20-C ) :   1.5708
B( 19-C , 22-C ) :   1.0523 B( 22-C , 23-H ) :   0.9285 B( 22-C , 24-H ) :   0.9290
B( 22-C , 25-C ) :   1.0433 B( 25-C , 26-H ) :   0.9572 B( 25-C , 27-H ) :   0.9533
B( 25-C , 28-C ) :   1.0794 B( 28-C , 29-H ) :   0.9757 B( 28-C , 30-H ) :   0.9756
B( 28-C , 31-H ) :   0.9726

Dispersion correction           -0.015361867
FINAL SINGLE POINT ENERGY     -1339.861478015128

DIPOLE MOMENT
-------------
                                X             Y             Z
Electronic contribution:     -5.18435     -27.04688       8.58098
Nuclear contribution   :      5.23729      27.76610      -8.98783
                        -----------------------------------------
Total Dipole Moment    :      0.05294       0.71922      -0.40685
                        -----------------------------------------
Magnitude (a.u.)       :      0.82802
Magnitude (Debye)      :      2.10465

Rotational constants in cm-1:     0.016821     0.009893     0.007901
Rotational constants in MHz :   504.270466   296.584612   236.870505

                             ****ORCA TERMINATED NORMALLY****
TOTAL RUN TIME: 0 days 0 hours 0 minutes 21 seconds 446 msec
