                         Program Version 4.2.1 -  RELEASE  -
|  1> ! wB97X-D3 SP def2-SVP
|  2> %pal
|  3> nprocs 24
|  4> end
|  5>
|  6> * xyz 0 1
|  7> S 	 -53.9381 	 -49.3343 	 -80.962
|  8> C 	 -55.1714 	 -48.2136 	 -80.3926
|  9> C 	 -55.2937 	 -47.1202 	 -81.2384
| 10> C 	 -54.3045 	 -47.1215 	 -82.2535
| 11> C 	 -53.406 	 -48.2189 	 -82.2962
| 12> H 	 -54.1281 	 -46.2554 	 -82.9245
| 13> C 	 -56.3785 	 -46.0917 	 -81.0828
| 14> H 	 -55.9706 	 -45.1037 	 -81.2565
| 15> H 	 -56.771 	 -46.08 	 -80.1066
| 16> C 	 -57.612 	 -46.3516 	 -82.0246
| 17> H 	 -57.8643 	 -47.4507 	 -82.1196
| 18> H 	 -58.4441 	 -45.8628 	 -81.6225
| 19> C 	 -57.3902 	 -45.8187 	 -83.5633
| 20> H 	 -58.3315 	 -45.9124 	 -84.1103
| 21> H 	 -57.135 	 -44.773 	 -83.6063
| 22> H 	 -56.542 	 -46.3343 	 -84.0577
| 23> S 	 -52.074 	 -50.2907 	 -83.5237
| 24> C 	 -50.5184 	 -49.9216 	 -84.2553
| 25> C 	 -50.307 	 -48.5852 	 -84.5083
| 26> C 	 -51.3343 	 -47.7156 	 -83.9187
| 27> C 	 -52.2398 	 -48.5197 	 -83.1956
| 28> H 	 -49.3866 	 -48.3912 	 -85.0905
| 29> C 	 -51.2746 	 -46.2497 	 -83.9197
| 30> H 	 -50.3548 	 -45.9153 	 -83.4489
| 31> H 	 -52.0638 	 -45.8945 	 -83.2388
| 32> C 	 -51.5512 	 -45.4755 	 -85.2723
| 33> H 	 -51.6159 	 -44.4155 	 -85.1124
| 34> H 	 -52.5503 	 -45.8084 	 -85.6103
| 35> C 	 -50.4563 	 -45.6161 	 -86.2894
| 36> H 	 -49.4368 	 -45.3764 	 -85.9048
| 37> H 	 -50.5903 	 -45.0905 	 -87.2139
| 38> H 	 -50.3799 	 -46.6843 	 -86.6346
| 39> H 	 -55.8422 	 -48.2541 	 -79.506
| 40> H 	 -49.8382 	 -50.6944 	 -84.6043
| 41> *
| 42>
| 43>                          ****END OF INPUT****

CARTESIAN COORDINATES (ANGSTROEM)
---------------------------------
  S    -53.938100  -49.334300  -80.962000
  C    -55.171400  -48.213600  -80.392600
  C    -55.293700  -47.120200  -81.238400
  C    -54.304500  -47.121500  -82.253500
  C    -53.406000  -48.218900  -82.296200
  H    -54.128100  -46.255400  -82.924500
  C    -56.378500  -46.091700  -81.082800
  H    -55.970600  -45.103700  -81.256500
  H    -56.771000  -46.080000  -80.106600
  C    -57.612000  -46.351600  -82.024600
  H    -57.864300  -47.450700  -82.119600
  H    -58.444100  -45.862800  -81.622500
  C    -57.390200  -45.818700  -83.563300
  H    -58.331500  -45.912400  -84.110300
  H    -57.135000  -44.773000  -83.606300
  H    -56.542000  -46.334300  -84.057700
  S    -52.074000  -50.290700  -83.523700
  C    -50.518400  -49.921600  -84.255300
  C    -50.307000  -48.585200  -84.508300
  C    -51.334300  -47.715600  -83.918700
  C    -52.239800  -48.519700  -83.195600
  H    -49.386600  -48.391200  -85.090500
  C    -51.274600  -46.249700  -83.919700
  H    -50.354800  -45.915300  -83.448900
  H    -52.063800  -45.894500  -83.238800
  C    -51.551200  -45.475500  -85.272300
  H    -51.615900  -44.415500  -85.112400
  H    -52.550300  -45.808400  -85.610300
  C    -50.456300  -45.616100  -86.289400
  H    -49.436800  -45.376400  -85.904800
  H    -50.590300  -45.090500  -87.213900
  H    -50.379900  -46.684300  -86.634600
  H    -55.842200  -48.254100  -79.506000
  H    -49.838200  -50.694400  -84.604300

 Total Charge           Charge          ....    0
 Multiplicity           Mult            ....    1
 Number of Electrons    NEL             ....  134
 Basis Dimension        Dim             ....  322

ORBITAL ENERGIES
----------------

  NO   OCC          E(Eh)            E(eV)
   0   2.0000     -88.968989     -2420.9693
   1   2.0000     -88.966692     -2420.9068
   2   2.0000     -10.343467      -281.4600
   3   2.0000     -10.342000      -281.4201
   4   2.0000     -10.318385      -280.7775
   5   2.0000     -10.317426      -280.7514
   6   2.0000     -10.315402      -280.6964
   7   2.0000     -10.301337      -280.3136
   8   2.0000     -10.300711      -280.2966
   9   2.0000     -10.300032      -280.2781
  10   2.0000     -10.295259      -280.1482
  11   2.0000     -10.294784      -280.1353
  12   2.0000     -10.292849      -280.0827
  13   2.0000     -10.292197      -280.0649
  14   2.0000     -10.282626      -279.8045
  15   2.0000     -10.280352      -279.7426
  16   2.0000      -8.081972      -219.9216
  17   2.0000      -8.080700      -219.8870
  18   2.0000      -6.040717      -164.3763
  19   2.0000      -6.039228      -164.3357
  20   2.0000      -6.036636      -164.2652
  21   2.0000      -6.035706      -164.2399
  22   2.0000      -6.032635      -164.1564
  23   2.0000      -6.031087      -164.1142
  24   2.0000      -0.995304       -27.0836
  25   2.0000      -0.976701       -26.5774
  26   2.0000      -0.910930       -24.7877
  27   2.0000      -0.901968       -24.5438
  28   2.0000      -0.860004       -23.4019
  29   2.0000      -0.852793       -23.2057
  30   2.0000      -0.835243       -22.7281
  31   2.0000      -0.813786       -22.1442
  32   2.0000      -0.785094       -21.3635
  33   2.0000      -0.771008       -20.9802
  34   2.0000      -0.709991       -19.3198
  35   2.0000      -0.702864       -19.1259
  36   2.0000      -0.692374       -18.8405
  37   2.0000      -0.656770       -17.8716
  38   2.0000      -0.633126       -17.2282
  39   2.0000      -0.616924       -16.7874
  40   2.0000      -0.593633       -16.1536
  41   2.0000      -0.569649       -15.5009
  42   2.0000      -0.556454       -15.1419
  43   2.0000      -0.545585       -14.8461
  44   2.0000      -0.540144       -14.6981
  45   2.0000      -0.532399       -14.4873
  46   2.0000      -0.511683       -13.9236
  47   2.0000      -0.507656       -13.8140
  48   2.0000      -0.495370       -13.4797
  49   2.0000      -0.495137       -13.4734
  50   2.0000      -0.490935       -13.3590
  51   2.0000      -0.485897       -13.2219
  52   2.0000      -0.473685       -12.8896
  53   2.0000      -0.464924       -12.6512
  54   2.0000      -0.455491       -12.3945
  55   2.0000      -0.445057       -12.1106
  56   2.0000      -0.441618       -12.0170
  57   2.0000      -0.435758       -11.8576
  58   2.0000      -0.433907       -11.8072
  59   2.0000      -0.427824       -11.6417
  60   2.0000      -0.422176       -11.4880
  61   2.0000      -0.416422       -11.3314
  62   2.0000      -0.411375       -11.1941
  63   2.0000      -0.352155        -9.5826
  64   2.0000      -0.331181        -9.0119
  65   2.0000      -0.330004        -8.9799
  66   2.0000      -0.283496        -7.7143
  67   0.0000       0.016478         0.4484
  68   0.0000       0.070209         1.9105
  69   0.0000       0.092314         2.5120
  70   0.0000       0.118881         3.2349
  71   0.0000       0.129350         3.5198

MULLIKEN ATOMIC CHARGES
-----------------------
   0 S :    0.103970
   1 C :   -0.116755
   2 C :   -0.111962
   3 C :    0.018749
   4 C :   -0.143262
   5 H :    0.022810
   6 C :    0.097509
   7 H :    0.024089
   8 H :    0.006600
   9 C :   -0.075713
  10 H :    0.048326
  11 H :    0.023079
  12 C :   -0.088069
  13 H :    0.042728
  14 H :    0.022224
  15 H :    0.048491
  16 S :    0.089994
  17 C :   -0.091178
  18 C :   -0.051462
  19 C :   -0.007863
  20 C :   -0.140373
  21 H :    0.036803
  22 C :    0.031688
  23 H :    0.036275
  24 H :    0.013791
  25 C :   -0.043841
  26 H :    0.029518
  27 H :    0.033256
  28 C :   -0.068146
  29 H :    0.031187
  30 H :    0.032215
  31 H :    0.031064
  32 H :    0.058516
  33 H :    0.055741
Sum of atomic charges:   -0.0000000

LOEWDIN ATOMIC CHARGES
----------------------
   0 S :    0.379581
   1 C :   -0.199892
   2 C :   -0.069139
   3 C :   -0.072599
   4 C :   -0.178726
   5 H :    0.030548
   6 C :   -0.025542
   7 H :    0.029647
   8 H :    0.024296
   9 C :   -0.027358
  10 H :    0.033841
  11 H :    0.013012
  12 C :   -0.073251
  13 H :    0.027352
  14 H :    0.017429
  15 H :    0.028496
  16 S :    0.369500
  17 C :   -0.178742
  18 C :   -0.074973
  19 C :   -0.050724
  20 C :   -0.165277
  21 H :    0.040752
  22 C :   -0.036129
  23 H :    0.033484
  24 H :    0.033810
  25 C :   -0.033779
  26 H :    0.024002
  27 H :    0.028249
  28 C :   -0.076116
  29 H :    0.027934
  30 H :    0.023470
  31 H :    0.028020
  32 H :    0.040795
  33 H :    0.028030

  Mayer bond orders larger than 0.100000
B(  0-S ,  1-C ) :   1.1356 B(  0-S ,  4-C ) :   1.1384 B(  1-C ,  2-C ) :   1.6057
B(  1-C ,  4-C ) :   0.1066 B(  1-C , 32-H ) :   0.9567 B(  2-C ,  3-C ) :   1.2722
B(  2-C ,  6-C ) :   1.0412 B(  3-C ,  4-C ) :   1.5474 B(  3-C ,  5-H ) :   0.9733
B(  4-C , 20-C ) :   1.0584 B(  6-C ,  7-H ) :   0.9417 B(  6-C ,  8-H ) :   0.9368
B(  6-C ,  9-C ) :   1.0541 B(  9-C , 10-H ) :   0.9605 B(  9-C , 11-H ) :   0.9617
B(  9-C , 12-C ) :   1.0639 B( 12-C , 13-H ) :   0.9775 B( 12-C , 14-H ) :   0.9791
B( 12-C , 15-H ) :   0.9769 B( 16-S , 17-C ) :   1.1226 B( 16-S , 20-C ) :   1.1272
B( 17-C , 18-C ) :   1.6806 B( 17-C , 33-H ) :   0.9630 B( 18-C , 19-C ) :   1.1584
B( 18-C , 21-H ) :   0.9821 B( 19-C , 20-C ) :   1.6168 B( 19-C , 22-C ) :   1.0569
B( 22-C , 23-H ) :   0.9345 B( 22-C , 24-H ) :   0.9275 B( 22-C , 25-C ) :   1.0661
B( 25-C , 26-H ) :   0.9559 B( 25-C , 27-H ) :   0.9515 B( 25-C , 28-C ) :   1.0847
B( 28-C , 29-H ) :   0.9728 B( 28-C , 30-H ) :   0.9713 B( 28-C , 31-H ) :   0.9699

Dispersion correction           -0.014280274
FINAL SINGLE POINT ENERGY     -1339.866002251235

DIPOLE MOMENT
-------------
                                X             Y             Z
Electronic contribution:      7.21131     -24.19949      11.90267
Nuclear contribution   :     -7.27481      24.90656     -12.11393
                        -----------------------------------------
Total Dipole Moment    :     -0.06350       0.70707      -0.21126
                        -----------------------------------------
Magnitude (a.u.)       :      0.74068
Magnitude (Debye)      :      1.88267

Rotational constants in cm-1:     0.017749     0.008875     0.006531
Rotational constants in MHz :   532.093874   266.061339   195.795216

                             ****ORCA TERMINATED NORMALLY****
TOTAL RUN TIME: 0 days 0 hours 0 minutes 21 seconds 323 msec
