                         Program Version 4.2.1 -  RELEASE  -
|  1> ! wB97X-D3 SP def2-SVP
|  2> %pal
|  3> nprocs 24
|  4> end
|  5>
|  6> * xyz 0 1
|  7> S 	 -72.1391 	 7.26995 	 -101.595
|  8> C 	 -71.2545 	 8.57295 	 -100.602
|  9> C 	 -70.9191 	 9.6958 	 -101.32
| 10> C 	 -71.4447 	 9.56043 	 -102.684
| 11> C 	 -72.1625 	 8.47451 	 -102.899
| 12> H 	 -71.2547 	 10.3639 	 -103.384
| 13> C 	 -70.2119 	 10.9259 	 -100.843
| 14> H 	 -69.5859 	 10.8315 	 -99.9713
| 15> H 	 -71.0538 	 11.5474 	 -100.49
| 16> C 	 -69.5298 	 11.7823 	 -101.912
| 17> H 	 -70.3227 	 12.2125 	 -102.581
| 18> H 	 -69.0098 	 12.5314 	 -101.402
| 19> C 	 -68.4996 	 10.9976 	 -102.838
| 20> H 	 -68.155 	 11.5733 	 -103.616
| 21> H 	 -67.6639 	 10.8102 	 -102.189
| 22> H 	 -68.8097 	 10.0094 	 -103.203
| 23> S 	 -74.4238 	 8.51143 	 -104.506
| 24> C 	 -74.5744 	 7.42814 	 -105.885
| 25> C 	 -73.3443 	 6.8244 	 -106.206
| 26> C 	 -72.335 	 7.12078 	 -105.229
| 27> C 	 -72.7341 	 8.05721 	 -104.231
| 28> H 	 -73.3069 	 6.13045 	 -107.007
| 29> C 	 -71.0841 	 6.30834 	 -105.161
| 30> H 	 -70.9434 	 6.15153 	 -104.07
| 31> H 	 -70.2422 	 6.80221 	 -105.553
| 32> C 	 -71.1827 	 4.90433 	 -105.861
| 33> H 	 -71.4281 	 4.95813 	 -106.904
| 34> H 	 -71.9197 	 4.26628 	 -105.489
| 35> C 	 -69.8421 	 4.12295 	 -105.763
| 36> H 	 -69.6436 	 4.17368 	 -104.685
| 37> H 	 -69.0149 	 4.65051 	 -106.198
| 38> H 	 -70.0013 	 3.06312 	 -106.089
| 39> H 	 -70.8765 	 8.47936 	 -99.6211
| 40> H 	 -75.5521 	 7.2463 	 -106.463
| 41> *
| 42>
| 43>                          ****END OF INPUT****

CARTESIAN COORDINATES (ANGSTROEM)
---------------------------------
  S    -72.139100    7.269950  -101.595000
  C    -71.254500    8.572950  -100.602000
  C    -70.919100    9.695800  -101.320000
  C    -71.444700    9.560430  -102.684000
  C    -72.162500    8.474510  -102.899000
  H    -71.254700   10.363900  -103.384000
  C    -70.211900   10.925900  -100.843000
  H    -69.585900   10.831500  -99.971300
  H    -71.053800   11.547400  -100.490000
  C    -69.529800   11.782300  -101.912000
  H    -70.322700   12.212500  -102.581000
  H    -69.009800   12.531400  -101.402000
  C    -68.499600   10.997600  -102.838000
  H    -68.155000   11.573300  -103.616000
  H    -67.663900   10.810200  -102.189000
  H    -68.809700   10.009400  -103.203000
  S    -74.423800    8.511430  -104.506000
  C    -74.574400    7.428140  -105.885000
  C    -73.344300    6.824400  -106.206000
  C    -72.335000    7.120780  -105.229000
  C    -72.734100    8.057210  -104.231000
  H    -73.306900    6.130450  -107.007000
  C    -71.084100    6.308340  -105.161000
  H    -70.943400    6.151530  -104.070000
  H    -70.242200    6.802210  -105.553000
  C    -71.182700    4.904330  -105.861000
  H    -71.428100    4.958130  -106.904000
  H    -71.919700    4.266280  -105.489000
  C    -69.842100    4.122950  -105.763000
  H    -69.643600    4.173680  -104.685000
  H    -69.014900    4.650510  -106.198000
  H    -70.001300    3.063120  -106.089000
  H    -70.876500    8.479360  -99.621100
  H    -75.552100    7.246300  -106.463000

 Total Charge           Charge          ....    0
 Multiplicity           Mult            ....    1
 Number of Electrons    NEL             ....  134
 Basis Dimension        Dim             ....  322

ORBITAL ENERGIES
----------------

  NO   OCC          E(Eh)            E(eV)
   0   2.0000     -88.968259     -2420.9494
   1   2.0000     -88.963273     -2420.8137
   2   2.0000     -10.330168      -281.0982
   3   2.0000     -10.328046      -281.0404
   4   2.0000     -10.325285      -280.9653
   5   2.0000     -10.315892      -280.7097
   6   2.0000     -10.306749      -280.4609
   7   2.0000     -10.304879      -280.4100
   8   2.0000     -10.297087      -280.1980
   9   2.0000     -10.294996      -280.1411
  10   2.0000     -10.293213      -280.0926
  11   2.0000     -10.292418      -280.0709
  12   2.0000     -10.287781      -279.9447
  13   2.0000     -10.279691      -279.7246
  14   2.0000     -10.277695      -279.6703
  15   2.0000     -10.273733      -279.5625
  16   2.0000      -8.080708      -219.8872
  17   2.0000      -8.077306      -219.7947
  18   2.0000      -6.039564      -164.3449
  19   2.0000      -6.035926      -164.2459
  20   2.0000      -6.035759      -164.2413
  21   2.0000      -6.031745      -164.1321
  22   2.0000      -6.030841      -164.1075
  23   2.0000      -6.028342      -164.0395
  24   2.0000      -0.995824       -27.0977
  25   2.0000      -0.974213       -26.5097
  26   2.0000      -0.914283       -24.8789
  27   2.0000      -0.904817       -24.6213
  28   2.0000      -0.861644       -23.4465
  29   2.0000      -0.846240       -23.0274
  30   2.0000      -0.838046       -22.8044
  31   2.0000      -0.817022       -22.2323
  32   2.0000      -0.789081       -21.4720
  33   2.0000      -0.764821       -20.8118
  34   2.0000      -0.708480       -19.2787
  35   2.0000      -0.704728       -19.1766
  36   2.0000      -0.691623       -18.8200
  37   2.0000      -0.650899       -17.7119
  38   2.0000      -0.633351       -17.2344
  39   2.0000      -0.627908       -17.0862
  40   2.0000      -0.592225       -16.1153
  41   2.0000      -0.567429       -15.4405
  42   2.0000      -0.565802       -15.3963
  43   2.0000      -0.555720       -15.1219
  44   2.0000      -0.539358       -14.6767
  45   2.0000      -0.525819       -14.3083
  46   2.0000      -0.514947       -14.0124
  47   2.0000      -0.510234       -13.8842
  48   2.0000      -0.506110       -13.7719
  49   2.0000      -0.496904       -13.5214
  50   2.0000      -0.487246       -13.2587
  51   2.0000      -0.477299       -12.9880
  52   2.0000      -0.463400       -12.6098
  53   2.0000      -0.459786       -12.5114
  54   2.0000      -0.452599       -12.3159
  55   2.0000      -0.447935       -12.1889
  56   2.0000      -0.445012       -12.1094
  57   2.0000      -0.439576       -11.9615
  58   2.0000      -0.435546       -11.8518
  59   2.0000      -0.429445       -11.6858
  60   2.0000      -0.419846       -11.4246
  61   2.0000      -0.418555       -11.3895
  62   2.0000      -0.410849       -11.1798
  63   2.0000      -0.332744        -9.0544
  64   2.0000      -0.330516        -8.9938
  65   2.0000      -0.319720        -8.7000
  66   2.0000      -0.306311        -8.3352
  67   0.0000       0.045801         1.2463
  68   0.0000       0.051139         1.3916
  69   0.0000       0.090604         2.4655
  70   0.0000       0.125872         3.4252
  71   0.0000       0.127030         3.4567

MULLIKEN ATOMIC CHARGES
-----------------------
   0 S :    0.098286
   1 C :   -0.110630
   2 C :   -0.096261
   3 C :    0.039512
   4 C :   -0.119520
   5 H :    0.014323
   6 C :    0.075143
   7 H :    0.023463
   8 H :    0.051918
   9 C :   -0.095863
  10 H :    0.041338
  11 H :    0.025141
  12 C :   -0.035619
  13 H :    0.023180
  14 H :    0.019329
  15 H :    0.048007
  16 S :    0.102524
  17 C :   -0.136101
  18 C :   -0.015134
  19 C :   -0.043401
  20 C :   -0.178621
  21 H :    0.009807
  22 C :    0.096941
  23 H :    0.029914
  24 H :    0.025997
  25 C :   -0.103056
  26 H :    0.025768
  27 H :    0.019040
  28 C :   -0.043347
  29 H :    0.021654
  30 H :    0.029225
  31 H :    0.049060
  32 H :    0.020153
  33 H :    0.087826
Sum of atomic charges:    0.0000000

LOEWDIN ATOMIC CHARGES
----------------------
   0 S :    0.347418
   1 C :   -0.160003
   2 C :   -0.051962
   3 C :   -0.053656
   4 C :   -0.183847
   5 H :    0.033808
   6 C :   -0.036091
   7 H :    0.028534
   8 H :    0.048858
   9 C :   -0.033010
  10 H :    0.025841
  11 H :    0.020891
  12 C :   -0.061442
  13 H :    0.014626
  14 H :    0.024400
  15 H :    0.029832
  16 S :    0.400631
  17 C :   -0.194452
  18 C :   -0.073667
  19 C :   -0.051233
  20 C :   -0.206674
  21 H :    0.026101
  22 C :   -0.028270
  23 H :    0.032643
  24 H :    0.026970
  25 C :   -0.036750
  26 H :    0.015531
  27 H :    0.016628
  28 C :   -0.064276
  29 H :    0.025549
  30 H :    0.019862
  31 H :    0.033663
  32 H :    0.016716
  33 H :    0.046831

  Mayer bond orders larger than 0.100000
B(  0-S ,  1-C ) :   1.0859 B(  0-S ,  4-C ) :   1.1001 B(  1-C ,  2-C ) :   1.7105
B(  1-C , 32-H ) :   0.9657 B(  2-C ,  3-C ) :   1.1654 B(  2-C ,  6-C ) :   1.0143
B(  3-C ,  4-C ) :   1.6789 B(  3-C ,  5-H ) :   0.9888 B(  4-C , 20-C ) :   0.9856
B(  6-C ,  7-H ) :   0.9430 B(  6-C ,  8-H ) :   0.9265 B(  6-C ,  9-C ) :   1.0825
B(  9-C , 10-H ) :   0.9520 B(  9-C , 11-H ) :   0.9551 B(  9-C , 12-C ) :   1.0688
B( 12-C , 13-H ) :   0.9776 B( 12-C , 14-H ) :   0.9744 B( 12-C , 15-H ) :   0.9757
B( 16-S , 17-C ) :   1.1800 B( 16-S , 20-C ) :   1.1465 B( 17-C , 18-C ) :   1.5806
B( 17-C , 20-C ) :   0.1028 B( 17-C , 33-H ) :   0.9542 B( 18-C , 19-C ) :   1.2606
B( 18-C , 21-H ) :   0.9913 B( 19-C , 20-C ) :   1.5778 B( 19-C , 22-C ) :   1.0388
B( 22-C , 23-H ) :   0.9291 B( 22-C , 24-H ) :   0.9260 B( 22-C , 25-C ) :   1.0756
B( 25-C , 26-H ) :   0.9470 B( 25-C , 27-H ) :   0.9568 B( 25-C , 28-C ) :   1.0822
B( 28-C , 29-H ) :   0.9752 B( 28-C , 30-H ) :   0.9762 B( 28-C , 31-H ) :   0.9728

Dispersion correction           -0.014194735
FINAL SINGLE POINT ENERGY     -1339.850916741796

DIPOLE MOMENT
-------------
                                X             Y             Z
Electronic contribution:    -21.59426       0.38824       5.11498
Nuclear contribution   :     22.11687      -0.19532      -5.14725
                        -----------------------------------------
Total Dipole Moment    :      0.52261       0.19292      -0.03227
                        -----------------------------------------
Magnitude (a.u.)       :      0.55802
Magnitude (Debye)      :      1.41836

Rotational constants in cm-1:     0.017871     0.008288     0.007221
Rotational constants in MHz :   535.755300   248.464259   216.485547

                             ****ORCA TERMINATED NORMALLY****
TOTAL RUN TIME: 0 days 0 hours 0 minutes 21 seconds 351 msec
