                         Program Version 4.2.1 -  RELEASE  -
|  1> ! wB97X-D3 SP def2-SVP
|  2> %pal
|  3> nprocs 24
|  4> end
|  5>
|  6> * xyz 0 1
|  7> S 	 -91.5416 	 -34.3816 	 -64.8425
|  8> C 	 -91.948 	 -35.168 	 -66.3729
|  9> C 	 -91.8941 	 -36.5478 	 -66.2195
| 10> C 	 -91.5995 	 -36.9352 	 -64.8374
| 11> C 	 -91.3185 	 -35.9028 	 -63.9946
| 12> H 	 -91.5069 	 -37.9896 	 -64.5879
| 13> C 	 -92.2478 	 -37.5954 	 -67.1793
| 14> H 	 -93.2384 	 -37.3575 	 -67.5547
| 15> H 	 -92.5723 	 -38.4456 	 -66.5896
| 16> C 	 -91.294 	 -38.0387 	 -68.3558
| 17> H 	 -90.9695 	 -37.2293 	 -68.9985
| 18> H 	 -90.4517 	 -38.5917 	 -67.889
| 19> C 	 -92.1639 	 -38.9332 	 -69.283
| 20> H 	 -92.705 	 -39.7387 	 -68.8399
| 21> H 	 -92.9106 	 -38.3438 	 -69.7801
| 22> H 	 -91.6385 	 -39.2819 	 -70.2088
| 23> S 	 -89.797 	 -37.4296 	 -62.224
| 24> C 	 -89.3739 	 -36.8743 	 -60.6318
| 25> C 	 -89.869 	 -35.611 	 -60.4553
| 26> C 	 -90.8291 	 -35.1581 	 -61.477
| 27> C 	 -90.8743 	 -36.0638 	 -62.5997
| 28> H 	 -89.5703 	 -35.0789 	 -59.6107
| 29> C 	 -91.4774 	 -33.7794 	 -61.3803
| 30> H 	 -92.1905 	 -33.6429 	 -62.204
| 31> H 	 -90.7047 	 -33.0299 	 -61.2544
| 32> C 	 -92.2967 	 -33.6325 	 -60.1021
| 33> H 	 -92.7706 	 -32.6675 	 -60.2244
| 34> H 	 -91.6275 	 -33.6322 	 -59.2307
| 35> C 	 -93.2816 	 -34.6995 	 -59.8852
| 36> H 	 -93.4621 	 -34.8459 	 -58.8227
| 37> H 	 -93.1558 	 -35.7769 	 -60.2272
| 38> H 	 -94.2791 	 -34.3407 	 -60.3285
| 39> H 	 -92.2547 	 -34.8024 	 -67.3183
| 40> H 	 -88.6392 	 -37.2133 	 -59.8902
| 41> *
| 42>
| 43>                          ****END OF INPUT****

CARTESIAN COORDINATES (ANGSTROEM)
---------------------------------
  S    -91.541600  -34.381600  -64.842500
  C    -91.948000  -35.168000  -66.372900
  C    -91.894100  -36.547800  -66.219500
  C    -91.599500  -36.935200  -64.837400
  C    -91.318500  -35.902800  -63.994600
  H    -91.506900  -37.989600  -64.587900
  C    -92.247800  -37.595400  -67.179300
  H    -93.238400  -37.357500  -67.554700
  H    -92.572300  -38.445600  -66.589600
  C    -91.294000  -38.038700  -68.355800
  H    -90.969500  -37.229300  -68.998500
  H    -90.451700  -38.591700  -67.889000
  C    -92.163900  -38.933200  -69.283000
  H    -92.705000  -39.738700  -68.839900
  H    -92.910600  -38.343800  -69.780100
  H    -91.638500  -39.281900  -70.208800
  S    -89.797000  -37.429600  -62.224000
  C    -89.373900  -36.874300  -60.631800
  C    -89.869000  -35.611000  -60.455300
  C    -90.829100  -35.158100  -61.477000
  C    -90.874300  -36.063800  -62.599700
  H    -89.570300  -35.078900  -59.610700
  C    -91.477400  -33.779400  -61.380300
  H    -92.190500  -33.642900  -62.204000
  H    -90.704700  -33.029900  -61.254400
  C    -92.296700  -33.632500  -60.102100
  H    -92.770600  -32.667500  -60.224400
  H    -91.627500  -33.632200  -59.230700
  C    -93.281600  -34.699500  -59.885200
  H    -93.462100  -34.845900  -58.822700
  H    -93.155800  -35.776900  -60.227200
  H    -94.279100  -34.340700  -60.328500
  H    -92.254700  -34.802400  -67.318300
  H    -88.639200  -37.213300  -59.890200

 Total Charge           Charge          ....    0
 Multiplicity           Mult            ....    1
 Number of Electrons    NEL             ....  134
 Basis Dimension        Dim             ....  322

ORBITAL ENERGIES
----------------

  NO   OCC          E(Eh)            E(eV)
   0   2.0000     -88.970143     -2421.0007
   1   2.0000     -88.966262     -2420.8951
   2   2.0000     -10.338028      -281.3121
   3   2.0000     -10.333692      -281.1940
   4   2.0000     -10.319078      -280.7964
   5   2.0000     -10.313844      -280.6540
   6   2.0000     -10.313462      -280.6436
   7   2.0000     -10.298489      -280.2361
   8   2.0000     -10.297799      -280.2174
   9   2.0000     -10.291830      -280.0549
  10   2.0000     -10.290787      -280.0265
  11   2.0000     -10.290676      -280.0235
  12   2.0000     -10.287876      -279.9473
  13   2.0000     -10.280008      -279.7332
  14   2.0000     -10.278368      -279.6886
  15   2.0000     -10.274245      -279.5764
  16   2.0000      -8.083646      -219.9672
  17   2.0000      -8.080304      -219.8762
  18   2.0000      -6.042536      -164.4258
  19   2.0000      -6.039027      -164.3303
  20   2.0000      -6.038251      -164.3092
  21   2.0000      -6.034828      -164.2160
  22   2.0000      -6.034129      -164.1970
  23   2.0000      -6.030922      -164.1097
  24   2.0000      -1.000947       -27.2372
  25   2.0000      -0.979623       -26.6569
  26   2.0000      -0.916602       -24.9420
  27   2.0000      -0.910554       -24.7774
  28   2.0000      -0.870888       -23.6981
  29   2.0000      -0.850570       -23.1452
  30   2.0000      -0.839610       -22.8470
  31   2.0000      -0.816013       -22.2048
  32   2.0000      -0.780777       -21.2460
  33   2.0000      -0.771145       -20.9839
  34   2.0000      -0.712689       -19.3933
  35   2.0000      -0.707716       -19.2579
  36   2.0000      -0.684752       -18.6331
  37   2.0000      -0.656826       -17.8731
  38   2.0000      -0.631346       -17.1798
  39   2.0000      -0.618696       -16.8356
  40   2.0000      -0.594744       -16.1838
  41   2.0000      -0.575881       -15.6705
  42   2.0000      -0.563266       -15.3273
  43   2.0000      -0.560380       -15.2487
  44   2.0000      -0.540487       -14.7074
  45   2.0000      -0.522138       -14.2081
  46   2.0000      -0.520025       -14.1506
  47   2.0000      -0.512591       -13.9483
  48   2.0000      -0.502778       -13.6813
  49   2.0000      -0.500731       -13.6256
  50   2.0000      -0.493016       -13.4156
  51   2.0000      -0.475366       -12.9354
  52   2.0000      -0.468887       -12.7591
  53   2.0000      -0.463418       -12.6103
  54   2.0000      -0.456908       -12.4331
  55   2.0000      -0.451869       -12.2960
  56   2.0000      -0.446854       -12.1595
  57   2.0000      -0.433284       -11.7903
  58   2.0000      -0.422115       -11.4863
  59   2.0000      -0.420874       -11.4526
  60   2.0000      -0.419366       -11.4115
  61   2.0000      -0.408795       -11.1239
  62   2.0000      -0.405301       -11.0288
  63   2.0000      -0.357919        -9.7395
  64   2.0000      -0.326738        -8.8910
  65   2.0000      -0.324418        -8.8279
  66   2.0000      -0.287849        -7.8328
  67   0.0000       0.020872         0.5679
  68   0.0000       0.077753         2.1158
  69   0.0000       0.110540         3.0080
  70   0.0000       0.111389         3.0310
  71   0.0000       0.127381         3.4662

MULLIKEN ATOMIC CHARGES
-----------------------
   0 S :    0.109423
   1 C :   -0.082267
   2 C :   -0.083027
   3 C :   -0.019588
   4 C :   -0.088852
   5 H :    0.019881
   6 C :    0.012888
   7 H :    0.016105
   8 H :    0.010222
   9 C :   -0.019010
  10 H :    0.036020
  11 H :    0.048441
  12 C :   -0.065621
  13 H :    0.029339
  14 H :    0.015695
  15 H :    0.033071
  16 S :    0.088971
  17 C :   -0.074216
  18 C :   -0.038871
  19 C :   -0.099547
  20 C :   -0.118182
  21 H :    0.001570
  22 C :    0.101049
  23 H :    0.027301
  24 H :    0.037578
  25 C :   -0.078115
  26 H :    0.034336
  27 H :    0.025360
  28 C :   -0.091669
  29 H :    0.024892
  30 H :    0.061742
  31 H :    0.032108
  32 H :    0.025190
  33 H :    0.067785
Sum of atomic charges:   -0.0000000

LOEWDIN ATOMIC CHARGES
----------------------
   0 S :    0.405842
   1 C :   -0.191128
   2 C :   -0.061061
   3 C :   -0.071264
   4 C :   -0.189406
   5 H :    0.028070
   6 C :   -0.048102
   7 H :    0.032298
   8 H :    0.033050
   9 C :   -0.026152
  10 H :    0.026820
  11 H :    0.030925
  12 C :   -0.072238
  13 H :    0.019569
  14 H :    0.022062
  15 H :    0.030572
  16 S :    0.403346
  17 C :   -0.195099
  18 C :   -0.067539
  19 C :   -0.049553
  20 C :   -0.189593
  21 H :    0.018520
  22 C :   -0.032170
  23 H :    0.024164
  24 H :    0.036006
  25 C :   -0.047056
  26 H :    0.029004
  27 H :    0.020153
  28 C :   -0.084866
  29 H :    0.024582
  30 H :    0.038038
  31 H :    0.032161
  32 H :    0.025827
  33 H :    0.044217

  Mayer bond orders larger than 0.100000
B(  0-S ,  1-C ) :   1.1157 B(  0-S ,  4-C ) :   1.1223 B(  1-C ,  2-C ) :   1.6248
B(  1-C , 32-H ) :   0.9713 B(  2-C ,  3-C ) :   1.2401 B(  2-C ,  6-C ) :   1.0285
B(  3-C ,  4-C ) :   1.5606 B(  3-C ,  5-H ) :   0.9891 B(  4-C , 20-C ) :   1.0832
B(  6-C ,  7-H ) :   0.9389 B(  6-C ,  8-H ) :   0.9375 B(  6-C ,  9-C ) :   1.0440
B(  9-C , 10-H ) :   0.9589 B(  9-C , 11-H ) :   0.9582 B(  9-C , 12-C ) :   1.0681
B( 12-C , 13-H ) :   0.9785 B( 12-C , 14-H ) :   0.9734 B( 12-C , 15-H ) :   0.9729
B( 16-S , 17-C ) :   1.1429 B( 16-S , 20-C ) :   1.1314 B( 17-C , 18-C ) :   1.6360
B( 17-C , 33-H ) :   0.9610 B( 18-C , 19-C ) :   1.2274 B( 18-C , 21-H ) :   0.9931
B( 19-C , 20-C ) :   1.5500 B( 19-C , 22-C ) :   1.0512 B( 22-C , 23-H ) :   0.9334
B( 22-C , 24-H ) :   0.9328 B( 22-C , 25-C ) :   1.0727 B( 25-C , 26-H ) :   0.9567
B( 25-C , 27-H ) :   0.9589 B( 25-C , 28-C ) :   1.0775 B( 28-C , 29-H ) :   0.9741
B( 28-C , 30-H ) :   0.9698 B( 28-C , 31-H ) :   0.9743

Dispersion correction           -0.013748767
FINAL SINGLE POINT ENERGY     -1339.853132984782

DIPOLE MOMENT
-------------
                                X             Y             Z
Electronic contribution:     10.62657       3.16975       5.97338
Nuclear contribution   :    -10.71387      -3.14304      -5.99995
                        -----------------------------------------
Total Dipole Moment    :     -0.08730       0.02671      -0.02657
                        -----------------------------------------
Magnitude (a.u.)       :      0.09508
Magnitude (Debye)      :      0.24168

Rotational constants in cm-1:     0.025663     0.006855     0.005925
Rotational constants in MHz :   769.366460   205.517685   177.621107

                             ****ORCA TERMINATED NORMALLY****
TOTAL RUN TIME: 0 days 0 hours 0 minutes 21 seconds 23 msec
