                         Program Version 4.2.1 -  RELEASE  -
|  1> ! wB97X-D3 SP def2-SVP
|  2> %pal
|  3> nprocs 24
|  4> end
|  5>
|  6> * xyz 0 1
|  7> S 	 42.8378 	 -21.8136 	 -109.201
|  8> C 	 43.7968 	 -20.8974 	 -108.019
|  9> C 	 45.1203 	 -21.1982 	 -108.238
| 10> C 	 45.4206 	 -21.845 	 -109.488
| 11> C 	 44.2384 	 -22.1521 	 -110.203
| 12> H 	 46.4351 	 -22.0278 	 -109.875
| 13> C 	 46.2963 	 -20.7021 	 -107.459
| 14> H 	 47.04 	 -21.5186 	 -107.335
| 15> H 	 45.9062 	 -20.5994 	 -106.475
| 16> C 	 46.969 	 -19.3221 	 -107.819
| 17> H 	 47.648 	 -19.491 	 -108.629
| 18> H 	 46.3252 	 -18.6118 	 -108.321
| 19> C 	 47.9092 	 -18.7754 	 -106.774
| 20> H 	 48.4296 	 -17.8632 	 -107.138
| 21> H 	 47.268 	 -18.3923 	 -105.979
| 22> H 	 48.6377 	 -19.4452 	 -106.4
| 23> S 	 42.8082 	 -23.728 	 -111.914
| 24> C 	 43.1694 	 -23.8553 	 -113.609
| 25> C 	 44.2578 	 -23.0112 	 -113.916
| 26> C 	 44.7718 	 -22.2689 	 -112.783
| 27> C 	 44.1934 	 -22.6793 	 -111.603
| 28> H 	 44.4498 	 -22.9197 	 -114.984
| 29> C 	 45.736 	 -21.0805 	 -112.944
| 30> H 	 46.261 	 -21.127 	 -113.839
| 31> H 	 46.4515 	 -21.1944 	 -112.159
| 32> C 	 45.0785 	 -19.7076 	 -112.797
| 33> H 	 44.5844 	 -19.7098 	 -111.793
| 34> H 	 44.3333 	 -19.4979 	 -113.575
| 35> C 	 46.0792 	 -18.5242 	 -112.671
| 36> H 	 45.5792 	 -17.662 	 -112.457
| 37> H 	 46.6047 	 -18.3116 	 -113.616
| 38> H 	 46.81 	 -18.7282 	 -111.88
| 39> H 	 43.4997 	 -20.4069 	 -107.043
| 40> H 	 42.5367 	 -24.4239 	 -114.276
| 41> *
| 42>
| 43>                          ****END OF INPUT****

CARTESIAN COORDINATES (ANGSTROEM)
---------------------------------
  S     42.837800  -21.813600  -109.201000
  C     43.796800  -20.897400  -108.019000
  C     45.120300  -21.198200  -108.238000
  C     45.420600  -21.845000  -109.488000
  C     44.238400  -22.152100  -110.203000
  H     46.435100  -22.027800  -109.875000
  C     46.296300  -20.702100  -107.459000
  H     47.040000  -21.518600  -107.335000
  H     45.906200  -20.599400  -106.475000
  C     46.969000  -19.322100  -107.819000
  H     47.648000  -19.491000  -108.629000
  H     46.325200  -18.611800  -108.321000
  C     47.909200  -18.775400  -106.774000
  H     48.429600  -17.863200  -107.138000
  H     47.268000  -18.392300  -105.979000
  H     48.637700  -19.445200  -106.400000
  S     42.808200  -23.728000  -111.914000
  C     43.169400  -23.855300  -113.609000
  C     44.257800  -23.011200  -113.916000
  C     44.771800  -22.268900  -112.783000
  C     44.193400  -22.679300  -111.603000
  H     44.449800  -22.919700  -114.984000
  C     45.736000  -21.080500  -112.944000
  H     46.261000  -21.127000  -113.839000
  H     46.451500  -21.194400  -112.159000
  C     45.078500  -19.707600  -112.797000
  H     44.584400  -19.709800  -111.793000
  H     44.333300  -19.497900  -113.575000
  C     46.079200  -18.524200  -112.671000
  H     45.579200  -17.662000  -112.457000
  H     46.604700  -18.311600  -113.616000
  H     46.810000  -18.728200  -111.880000
  H     43.499700  -20.406900  -107.043000
  H     42.536700  -24.423900  -114.276000

 Total Charge           Charge          ....    0
 Multiplicity           Mult            ....    1
 Number of Electrons    NEL             ....  134
 Basis Dimension        Dim             ....  322

ORBITAL ENERGIES
----------------

  NO   OCC          E(Eh)            E(eV)
   0   2.0000     -88.970503     -2421.0105
   1   2.0000     -88.962996     -2420.8062
   2   2.0000     -10.339150      -281.3426
   3   2.0000     -10.331367      -281.1308
   4   2.0000     -10.321947      -280.8745
   5   2.0000     -10.321192      -280.8539
   6   2.0000     -10.311146      -280.5806
   7   2.0000     -10.300869      -280.3009
   8   2.0000     -10.300056      -280.2788
   9   2.0000     -10.297970      -280.2220
  10   2.0000     -10.291248      -280.0391
  11   2.0000     -10.286720      -279.9159
  12   2.0000     -10.286570      -279.9118
  13   2.0000     -10.285657      -279.8870
  14   2.0000     -10.278721      -279.6982
  15   2.0000     -10.272121      -279.5186
  16   2.0000      -8.084243      -219.9834
  17   2.0000      -8.078089      -219.8160
  18   2.0000      -6.043049      -164.4397
  19   2.0000      -6.038893      -164.3266
  20   2.0000      -6.036530      -164.2623
  21   2.0000      -6.034708      -164.2128
  22   2.0000      -6.032538      -164.1537
  23   2.0000      -6.028917      -164.0552
  24   2.0000      -1.003251       -27.2998
  25   2.0000      -0.982006       -26.7217
  26   2.0000      -0.909693       -24.7540
  27   2.0000      -0.907430       -24.6924
  28   2.0000      -0.867894       -23.6166
  29   2.0000      -0.852149       -23.1881
  30   2.0000      -0.844724       -22.9861
  31   2.0000      -0.812335       -22.1048
  32   2.0000      -0.784641       -21.3512
  33   2.0000      -0.773329       -21.0434
  34   2.0000      -0.708727       -19.2854
  35   2.0000      -0.702685       -19.1210
  36   2.0000      -0.691134       -18.8067
  37   2.0000      -0.664805       -18.0903
  38   2.0000      -0.631258       -17.1774
  39   2.0000      -0.619106       -16.8467
  40   2.0000      -0.593417       -16.1477
  41   2.0000      -0.570126       -15.5139
  42   2.0000      -0.568745       -15.4763
  43   2.0000      -0.553387       -15.0584
  44   2.0000      -0.526572       -14.3288
  45   2.0000      -0.523699       -14.2506
  46   2.0000      -0.517558       -14.0835
  47   2.0000      -0.513153       -13.9636
  48   2.0000      -0.507719       -13.8157
  49   2.0000      -0.502863       -13.6836
  50   2.0000      -0.491246       -13.3675
  51   2.0000      -0.486418       -13.2361
  52   2.0000      -0.476252       -12.9595
  53   2.0000      -0.463184       -12.6039
  54   2.0000      -0.461837       -12.5672
  55   2.0000      -0.449308       -12.2263
  56   2.0000      -0.444744       -12.1021
  57   2.0000      -0.436497       -11.8777
  58   2.0000      -0.432959       -11.7814
  59   2.0000      -0.422964       -11.5094
  60   2.0000      -0.420820       -11.4511
  61   2.0000      -0.412133       -11.2147
  62   2.0000      -0.403279       -10.9738
  63   2.0000      -0.351493        -9.5646
  64   2.0000      -0.331824        -9.0294
  65   2.0000      -0.326822        -8.8933
  66   2.0000      -0.290171        -7.8960
  67   0.0000       0.021805         0.5933
  68   0.0000       0.067834         1.8459
  69   0.0000       0.097468         2.6522
  70   0.0000       0.117539         3.1984
  71   0.0000       0.125462         3.4140

MULLIKEN ATOMIC CHARGES
-----------------------
   0 S :    0.112266
   1 C :   -0.131069
   2 C :   -0.100413
   3 C :    0.003166
   4 C :   -0.120292
   5 H :    0.032587
   6 C :    0.053948
   7 H :    0.032893
   8 H :   -0.002199
   9 C :   -0.040177
  10 H :    0.006260
  11 H :    0.028608
  12 C :   -0.048736
  13 H :    0.035124
  14 H :    0.027221
  15 H :    0.034799
  16 S :    0.081073
  17 C :   -0.102819
  18 C :   -0.039674
  19 C :   -0.056486
  20 C :   -0.145654
  21 H :    0.026990
  22 C :    0.151408
  23 H :   -0.000448
  24 H :   -0.001988
  25 C :   -0.109447
  26 H :    0.045960
  27 H :    0.036179
  28 C :   -0.015266
  29 H :    0.014354
  30 H :    0.025475
  31 H :    0.028881
  32 H :    0.072845
  33 H :    0.064632
Sum of atomic charges:    0.0000000

LOEWDIN ATOMIC CHARGES
----------------------
   0 S :    0.395322
   1 C :   -0.207446
   2 C :   -0.067874
   3 C :   -0.068533
   4 C :   -0.187787
   5 H :    0.035417
   6 C :   -0.036618
   7 H :    0.036332
   8 H :    0.019887
   9 C :   -0.043938
  10 H :    0.018620
  11 H :    0.027336
  12 C :   -0.061411
  13 H :    0.033326
  14 H :    0.023269
  15 H :    0.021803
  16 S :    0.399863
  17 C :   -0.184332
  18 C :   -0.075195
  19 C :   -0.049756
  20 C :   -0.189752
  21 H :    0.033632
  22 C :   -0.020792
  23 H :    0.019216
  24 H :    0.025449
  25 C :   -0.036712
  26 H :    0.033188
  27 H :    0.024704
  28 C :   -0.057953
  29 H :    0.013566
  30 H :    0.023802
  31 H :    0.025766
  32 H :    0.048430
  33 H :    0.029171

  Mayer bond orders larger than 0.100000
B(  0-S ,  1-C ) :   1.1103 B(  0-S ,  4-C ) :   1.1492 B(  1-C ,  2-C ) :   1.6236
B(  1-C , 32-H ) :   0.9568 B(  2-C ,  3-C ) :   1.2247 B(  2-C ,  6-C ) :   1.0458
B(  3-C ,  4-C ) :   1.5527 B(  3-C ,  5-H ) :   0.9932 B(  4-C , 20-C ) :   1.0442
B(  6-C ,  7-H ) :   0.9376 B(  6-C ,  8-H ) :   0.9380 B(  6-C ,  9-C ) :   1.0431
B(  9-C , 10-H ) :   0.9490 B(  9-C , 11-H ) :   0.9574 B(  9-C , 12-C ) :   1.0833
B( 12-C , 13-H ) :   0.9715 B( 12-C , 14-H ) :   0.9769 B( 12-C , 15-H ) :   0.9755
B( 16-S , 17-C ) :   1.1712 B( 16-S , 20-C ) :   1.1344 B( 17-C , 18-C ) :   1.5908
B( 17-C , 33-H ) :   0.9709 B( 18-C , 19-C ) :   1.2366 B( 18-C , 21-H ) :   0.9923
B( 19-C , 20-C ) :   1.5957 B( 19-C , 22-C ) :   1.0396 B( 22-C , 23-H ) :   0.9297
B( 22-C , 24-H ) :   0.9264 B( 22-C , 25-C ) :   1.0654 B( 25-C , 26-H ) :   0.9550
B( 25-C , 27-H ) :   0.9571 B( 25-C , 28-C ) :   1.0850 B( 28-C , 29-H ) :   0.9734
B( 28-C , 30-H ) :   0.9739 B( 28-C , 31-H ) :   0.9740

Dispersion correction           -0.014649369
FINAL SINGLE POINT ENERGY     -1339.860126299083

DIPOLE MOMENT
-------------
                                X             Y             Z
Electronic contribution:    -22.91115     -22.85507      -4.26082
Nuclear contribution   :     23.42014      23.35044       4.12705
                        -----------------------------------------
Total Dipole Moment    :      0.50899       0.49537      -0.13377
                        -----------------------------------------
Magnitude (a.u.)       :      0.72274
Magnitude (Debye)      :      1.83706

Rotational constants in cm-1:     0.019911     0.008814     0.006768
Rotational constants in MHz :   596.912319   264.224118   202.914437

                             ****ORCA TERMINATED NORMALLY****
TOTAL RUN TIME: 0 days 0 hours 0 minutes 22 seconds 26 msec
