                         Program Version 4.2.1 -  RELEASE  -
|  1> ! wB97X-D3 SP def2-SVP
|  2> %pal
|  3> nprocs 24
|  4> end
|  5>
|  6> * xyz 0 1
|  7> S 	 25.0009 	 -0.978867 	 -108.252
|  8> C 	 23.9213 	 -2.30508 	 -107.969
|  9> C 	 22.6493 	 -2.07091 	 -108.533
| 10> C 	 22.6261 	 -0.855657 	 -109.322
| 11> C 	 23.7571 	 -0.125162 	 -109.153
| 12> H 	 21.8069 	 -0.514226 	 -109.861
| 13> C 	 21.4511 	 -2.97722 	 -108.426
| 14> H 	 20.9266 	 -2.70737 	 -107.505
| 15> H 	 21.8285 	 -3.9971 	 -108.155
| 16> C 	 20.3399 	 -3.08813 	 -109.584
| 17> H 	 19.7799 	 -3.91197 	 -109.255
| 18> H 	 19.7052 	 -2.20063 	 -109.659
| 19> C 	 20.86 	 -3.33251 	 -111.016
| 20> H 	 20.0283 	 -3.04055 	 -111.613
| 21> H 	 21.6516 	 -2.65713 	 -111.371
| 22> H 	 21.0918 	 -4.36975 	 -111.269
| 23> S 	 24.1812 	 2.61899 	 -108.768
| 24> C 	 24.7842 	 3.58875 	 -110.087
| 25> C 	 25.0795 	 2.76623 	 -111.169
| 26> C 	 24.7173 	 1.37753 	 -110.961
| 27> C 	 24.0876 	 1.14278 	 -109.76
| 28> H 	 25.4951 	 3.10069 	 -112.086
| 29> C 	 24.8573 	 0.41883 	 -112.111
| 30> H 	 24.0287 	 0.705801 	 -112.727
| 31> H 	 24.5158 	 -0.525379 	 -111.766
| 32> C 	 26.2977 	 0.333989 	 -112.717
| 33> H 	 26.5318 	 1.26218 	 -113.307
| 34> H 	 26.2757 	 -0.521767 	 -113.415
| 35> C 	 27.4005 	 0.158826 	 -111.735
| 36> H 	 27.4882 	 0.973156 	 -110.963
| 37> H 	 28.3401 	 0.185454 	 -112.215
| 38> H 	 27.3399 	 -0.860479 	 -111.192
| 39> H 	 24.1204 	 -3.06916 	 -107.23
| 40> H 	 24.9809 	 4.6814 	 -110.109
| 41> *
| 42>
| 43>                          ****END OF INPUT****

CARTESIAN COORDINATES (ANGSTROEM)
---------------------------------
  S     25.000900   -0.978867  -108.252000
  C     23.921300   -2.305080  -107.969000
  C     22.649300   -2.070910  -108.533000
  C     22.626100   -0.855657  -109.322000
  C     23.757100   -0.125162  -109.153000
  H     21.806900   -0.514226  -109.861000
  C     21.451100   -2.977220  -108.426000
  H     20.926600   -2.707370  -107.505000
  H     21.828500   -3.997100  -108.155000
  C     20.339900   -3.088130  -109.584000
  H     19.779900   -3.911970  -109.255000
  H     19.705200   -2.200630  -109.659000
  C     20.860000   -3.332510  -111.016000
  H     20.028300   -3.040550  -111.613000
  H     21.651600   -2.657130  -111.371000
  H     21.091800   -4.369750  -111.269000
  S     24.181200    2.618990  -108.768000
  C     24.784200    3.588750  -110.087000
  C     25.079500    2.766230  -111.169000
  C     24.717300    1.377530  -110.961000
  C     24.087600    1.142780  -109.760000
  H     25.495100    3.100690  -112.086000
  C     24.857300    0.418830  -112.111000
  H     24.028700    0.705801  -112.727000
  H     24.515800   -0.525379  -111.766000
  C     26.297700    0.333989  -112.717000
  H     26.531800    1.262180  -113.307000
  H     26.275700   -0.521767  -113.415000
  C     27.400500    0.158826  -111.735000
  H     27.488200    0.973156  -110.963000
  H     28.340100    0.185454  -112.215000
  H     27.339900   -0.860479  -111.192000
  H     24.120400   -3.069160  -107.230000
  H     24.980900    4.681400  -110.109000

 Total Charge           Charge          ....    0
 Multiplicity           Mult            ....    1
 Number of Electrons    NEL             ....  134
 Basis Dimension        Dim             ....  322

ORBITAL ENERGIES
----------------

  NO   OCC          E(Eh)            E(eV)
   0   2.0000     -88.964086     -2420.8358
   1   2.0000     -88.960906     -2420.7493
   2   2.0000     -10.323673      -280.9214
   3   2.0000     -10.321529      -280.8631
   4   2.0000     -10.319179      -280.7991
   5   2.0000     -10.312234      -280.6102
   6   2.0000     -10.304113      -280.3892
   7   2.0000     -10.298537      -280.2374
   8   2.0000     -10.297059      -280.1972
   9   2.0000     -10.294193      -280.1192
  10   2.0000     -10.292753      -280.0800
  11   2.0000     -10.289400      -279.9888
  12   2.0000     -10.289284      -279.9857
  13   2.0000     -10.283753      -279.8352
  14   2.0000     -10.276704      -279.6433
  15   2.0000     -10.276312      -279.6327
  16   2.0000      -8.078933      -219.8389
  17   2.0000      -8.075280      -219.7395
  18   2.0000      -6.037416      -164.2864
  19   2.0000      -6.033970      -164.1927
  20   2.0000      -6.033404      -164.1773
  21   2.0000      -6.029805      -164.0793
  22   2.0000      -6.029729      -164.0773
  23   2.0000      -6.025895      -163.9729
  24   2.0000      -1.003504       -27.3067
  25   2.0000      -0.979101       -26.6427
  26   2.0000      -0.907591       -24.6968
  27   2.0000      -0.902325       -24.5535
  28   2.0000      -0.868816       -23.6417
  29   2.0000      -0.849055       -23.1040
  30   2.0000      -0.845318       -23.0023
  31   2.0000      -0.816307       -22.2129
  32   2.0000      -0.783933       -21.3319
  33   2.0000      -0.768674       -20.9167
  34   2.0000      -0.708112       -19.2687
  35   2.0000      -0.695756       -18.9325
  36   2.0000      -0.690147       -18.7799
  37   2.0000      -0.655712       -17.8428
  38   2.0000      -0.644457       -17.5366
  39   2.0000      -0.620187       -16.8762
  40   2.0000      -0.592246       -16.1158
  41   2.0000      -0.563325       -15.3289
  42   2.0000      -0.556599       -15.1458
  43   2.0000      -0.549082       -14.9413
  44   2.0000      -0.538617       -14.6565
  45   2.0000      -0.531497       -14.4628
  46   2.0000      -0.518685       -14.1141
  47   2.0000      -0.512448       -13.9444
  48   2.0000      -0.501046       -13.6342
  49   2.0000      -0.499097       -13.5811
  50   2.0000      -0.488922       -13.3042
  51   2.0000      -0.474070       -12.9001
  52   2.0000      -0.471482       -12.8297
  53   2.0000      -0.459795       -12.5116
  54   2.0000      -0.455389       -12.3918
  55   2.0000      -0.451829       -12.2949
  56   2.0000      -0.444653       -12.0996
  57   2.0000      -0.435810       -11.8590
  58   2.0000      -0.430863       -11.7244
  59   2.0000      -0.426665       -11.6101
  60   2.0000      -0.417043       -11.3483
  61   2.0000      -0.412823       -11.2335
  62   2.0000      -0.407981       -11.1017
  63   2.0000      -0.335858        -9.1392
  64   2.0000      -0.323578        -8.8050
  65   2.0000      -0.319744        -8.7007
  66   2.0000      -0.305630        -8.3166
  67   0.0000       0.046830         1.2743
  68   0.0000       0.053220         1.4482
  69   0.0000       0.116104         3.1594
  70   0.0000       0.125531         3.4159
  71   0.0000       0.129793         3.5319

MULLIKEN ATOMIC CHARGES
-----------------------
   0 S :    0.126675
   1 C :   -0.125059
   2 C :   -0.094422
   3 C :    0.057531
   4 C :   -0.159541
   5 H :   -0.011954
   6 C :    0.035886
   7 H :    0.040699
   8 H :    0.021930
   9 C :   -0.061542
  10 H :    0.028802
  11 H :    0.037333
  12 C :   -0.049759
  13 H :    0.018512
  14 H :    0.038238
  15 H :    0.038829
  16 S :    0.098880
  17 C :   -0.094607
  18 C :   -0.018035
  19 C :   -0.070878
  20 C :   -0.185428
  21 H :    0.001698
  22 C :    0.125199
  23 H :    0.035559
  24 H :    0.001750
  25 C :   -0.087226
  26 H :    0.036652
  27 H :    0.037637
  28 C :   -0.063042
  29 H :    0.047605
  30 H :    0.023629
  31 H :    0.043708
  32 H :    0.051088
  33 H :    0.073652
Sum of atomic charges:    0.0000000

LOEWDIN ATOMIC CHARGES
----------------------
   0 S :    0.414230
   1 C :   -0.209896
   2 C :   -0.057956
   3 C :   -0.050079
   4 C :   -0.189873
   5 H :    0.022450
   6 C :   -0.043964
   7 H :    0.036381
   8 H :    0.033130
   9 C :   -0.031562
  10 H :    0.024696
  11 H :    0.025785
  12 C :   -0.069887
  13 H :    0.024339
  14 H :    0.028121
  15 H :    0.026240
  16 S :    0.391058
  17 C :   -0.187713
  18 C :   -0.073621
  19 C :   -0.047418
  20 C :   -0.210962
  21 H :    0.021629
  22 C :   -0.031829
  23 H :    0.037462
  24 H :    0.023528
  25 C :   -0.043222
  26 H :    0.026839
  27 H :    0.030214
  28 C :   -0.073897
  29 H :    0.032608
  30 H :    0.020401
  31 H :    0.034693
  32 H :    0.026253
  33 H :    0.041823

  Mayer bond orders larger than 0.100000
B(  0-S ,  1-C ) :   1.1408 B(  0-S ,  4-C ) :   1.1530 B(  1-C ,  2-C ) :   1.6162
B(  1-C , 32-H ) :   0.9658 B(  2-C ,  3-C ) :   1.2187 B(  2-C ,  6-C ) :   1.0266
B(  3-C ,  4-C ) :   1.6053 B(  3-C ,  5-H ) :   1.0023 B(  4-C , 20-C ) :   1.0215
B(  6-C ,  7-H ) :   0.9297 B(  6-C ,  8-H ) :   0.9433 B(  6-C ,  9-C ) :   1.0646
B(  9-C , 10-H ) :   0.9537 B(  9-C , 11-H ) :   0.9597 B(  9-C , 12-C ) :   1.0775
B( 12-C , 13-H ) :   0.9737 B( 12-C , 14-H ) :   0.9735 B( 12-C , 15-H ) :   0.9778
B( 16-S , 17-C ) :   1.1605 B( 16-S , 20-C ) :   1.1173 B( 17-C , 18-C ) :   1.6023
B( 17-C , 33-H ) :   0.9629 B( 18-C , 19-C ) :   1.2298 B( 18-C , 21-H ) :   0.9944
B( 19-C , 20-C ) :   1.6109 B( 19-C , 22-C ) :   1.0329 B( 22-C , 23-H ) :   0.9390
B( 22-C , 24-H ) :   0.9234 B( 22-C , 25-C ) :   1.0485 B( 25-C , 26-H ) :   0.9534
B( 25-C , 27-H ) :   0.9557 B( 25-C , 28-C ) :   1.0951 B( 28-C , 29-H ) :   0.9645
B( 28-C , 30-H ) :   0.9695 B( 28-C , 31-H ) :   0.9713

Dispersion correction           -0.015368294
FINAL SINGLE POINT ENERGY     -1339.875812614631

DIPOLE MOMENT
-------------
                                X             Y             Z
Electronic contribution:      5.03446      14.47457      15.90958
Nuclear contribution   :     -5.30029     -14.77505     -16.37743
                        -----------------------------------------
Total Dipole Moment    :     -0.26583      -0.30048      -0.46786
                        -----------------------------------------
Magnitude (a.u.)       :      0.61631
Magnitude (Debye)      :      1.56655

Rotational constants in cm-1:     0.019784     0.008467     0.007780
Rotational constants in MHz :   593.100536   253.836732   233.228517

                             ****ORCA TERMINATED NORMALLY****
TOTAL RUN TIME: 0 days 0 hours 0 minutes 20 seconds 903 msec
