                         Program Version 4.2.1 -  RELEASE  -
|  1> ! wB97X-D3 SP def2-SVP
|  2> %pal
|  3> nprocs 24
|  4> end
|  5>
|  6> * xyz 0 1
|  7> S 	 -102.148 	 0.309383 	 -104.899
|  8> C 	 -100.718 	 0.768956 	 -105.745
|  9> C 	 -99.6525 	 1.11476 	 -104.893
| 10> C 	 -99.912 	 0.770882 	 -103.552
| 11> C 	 -101.247 	 0.331115 	 -103.351
| 12> H 	 -99.2042 	 0.902669 	 -102.779
| 13> C 	 -98.3269 	 1.62105 	 -105.403
| 14> H 	 -98.2597 	 2.63625 	 -105.068
| 15> H 	 -98.4211 	 1.68964 	 -106.52
| 16> C 	 -97.2116 	 0.707216 	 -105.059
| 17> H 	 -97.2656 	 0.450016 	 -104.007
| 18> H 	 -97.2181 	 -0.19994 	 -105.638
| 19> C 	 -95.794 	 1.30788 	 -105.262
| 20> H 	 -95.1437 	 0.499955 	 -104.882
| 21> H 	 -95.5538 	 1.61866 	 -106.295
| 22> H 	 -95.6137 	 2.21729 	 -104.616
| 23> S 	 -103.768 	 -0.177282 	 -102.202
| 24> C 	 -103.817 	 -0.762957 	 -100.625
| 25> C 	 -102.606 	 -0.674041 	 -100.046
| 26> C 	 -101.498 	 -0.415652 	 -100.887
| 27> C 	 -101.993 	 -0.0894484 	 -102.141
| 28> H 	 -102.66 	 -0.806834 	 -98.9652
| 29> C 	 -100.024 	 -0.498395 	 -100.528
| 30> H 	 -99.7369 	 0.520203 	 -100.633
| 31> H 	 -99.4819 	 -0.978685 	 -101.335
| 32> C 	 -99.5023 	 -1.01392 	 -99.1746
| 33> H 	 -99.7565 	 -2.06512 	 -98.9819
| 34> H 	 -99.75 	 -0.444884 	 -98.3146
| 35> C 	 -98.0175 	 -1.06215 	 -99.0887
| 36> H 	 -97.6288 	 -0.068154 	 -99.1891
| 37> H 	 -97.4917 	 -1.62963 	 -99.8913
| 38> H 	 -97.7233 	 -1.51719 	 -98.1111
| 39> H 	 -100.605 	 0.672333 	 -106.826
| 40> H 	 -104.669 	 -0.827044 	 -100.012
| 41> *
| 42>
| 43>                          ****END OF INPUT****

CARTESIAN COORDINATES (ANGSTROEM)
---------------------------------
  S    -102.148000    0.309383  -104.899000
  C    -100.718000    0.768956  -105.745000
  C    -99.652500    1.114760  -104.893000
  C    -99.912000    0.770882  -103.552000
  C    -101.247000    0.331115  -103.351000
  H    -99.204200    0.902669  -102.779000
  C    -98.326900    1.621050  -105.403000
  H    -98.259700    2.636250  -105.068000
  H    -98.421100    1.689640  -106.520000
  C    -97.211600    0.707216  -105.059000
  H    -97.265600    0.450016  -104.007000
  H    -97.218100   -0.199940  -105.638000
  C    -95.794000    1.307880  -105.262000
  H    -95.143700    0.499955  -104.882000
  H    -95.553800    1.618660  -106.295000
  H    -95.613700    2.217290  -104.616000
  S    -103.768000   -0.177282  -102.202000
  C    -103.817000   -0.762957  -100.625000
  C    -102.606000   -0.674041  -100.046000
  C    -101.498000   -0.415652  -100.887000
  C    -101.993000   -0.089448  -102.141000
  H    -102.660000   -0.806834  -98.965200
  C    -100.024000   -0.498395  -100.528000
  H    -99.736900    0.520203  -100.633000
  H    -99.481900   -0.978685  -101.335000
  C    -99.502300   -1.013920  -99.174600
  H    -99.756500   -2.065120  -98.981900
  H    -99.750000   -0.444884  -98.314600
  C    -98.017500   -1.062150  -99.088700
  H    -97.628800   -0.068154  -99.189100
  H    -97.491700   -1.629630  -99.891300
  H    -97.723300   -1.517190  -98.111100
  H    -100.605000    0.672333  -106.826000
  H    -104.669000   -0.827044  -100.012000

 Total Charge           Charge          ....    0
 Multiplicity           Mult            ....    1
 Number of Electrons    NEL             ....  134
 Basis Dimension        Dim             ....  322

ORBITAL ENERGIES
----------------

  NO   OCC          E(Eh)            E(eV)
   0   2.0000     -88.966633     -2420.9052
   1   2.0000     -88.964011     -2420.8338
   2   2.0000     -10.338916      -281.3362
   3   2.0000     -10.328942      -281.0648
   4   2.0000     -10.311806      -280.5985
   5   2.0000     -10.304905      -280.4107
   6   2.0000     -10.301492      -280.3178
   7   2.0000     -10.298540      -280.2375
   8   2.0000     -10.297064      -280.1974
   9   2.0000     -10.296117      -280.1716
  10   2.0000     -10.289567      -279.9933
  11   2.0000     -10.286536      -279.9109
  12   2.0000     -10.285827      -279.8916
  13   2.0000     -10.285780      -279.8903
  14   2.0000     -10.284585      -279.8578
  15   2.0000     -10.280567      -279.7485
  16   2.0000      -8.081117      -219.8984
  17   2.0000      -8.079641      -219.8582
  18   2.0000      -6.039595      -164.3457
  19   2.0000      -6.038128      -164.3058
  20   2.0000      -6.035719      -164.2403
  21   2.0000      -6.034204      -164.1990
  22   2.0000      -6.031886      -164.1360
  23   2.0000      -6.030189      -164.0898
  24   2.0000      -1.009552       -27.4713
  25   2.0000      -0.985759       -26.8239
  26   2.0000      -0.919106       -25.0101
  27   2.0000      -0.917842       -24.9758
  28   2.0000      -0.871608       -23.7177
  29   2.0000      -0.860307       -23.4101
  30   2.0000      -0.846530       -23.0353
  31   2.0000      -0.815677       -22.1957
  32   2.0000      -0.789520       -21.4839
  33   2.0000      -0.769983       -20.9523
  34   2.0000      -0.708819       -19.2879
  35   2.0000      -0.704847       -19.1799
  36   2.0000      -0.692097       -18.8329
  37   2.0000      -0.652471       -17.7546
  38   2.0000      -0.633724       -17.2445
  39   2.0000      -0.630946       -17.1689
  40   2.0000      -0.602495       -16.3947
  41   2.0000      -0.578835       -15.7509
  42   2.0000      -0.568474       -15.4690
  43   2.0000      -0.561294       -15.2736
  44   2.0000      -0.539325       -14.6758
  45   2.0000      -0.534882       -14.5549
  46   2.0000      -0.515615       -14.0306
  47   2.0000      -0.512683       -13.9508
  48   2.0000      -0.503612       -13.7040
  49   2.0000      -0.498437       -13.5631
  50   2.0000      -0.490721       -13.3532
  51   2.0000      -0.479740       -13.0544
  52   2.0000      -0.475020       -12.9260
  53   2.0000      -0.468867       -12.7585
  54   2.0000      -0.460252       -12.5241
  55   2.0000      -0.451186       -12.2774
  56   2.0000      -0.446476       -12.1492
  57   2.0000      -0.443244       -12.0613
  58   2.0000      -0.432575       -11.7710
  59   2.0000      -0.425928       -11.5901
  60   2.0000      -0.422483       -11.4963
  61   2.0000      -0.419852       -11.4247
  62   2.0000      -0.411274       -11.1913
  63   2.0000      -0.359426        -9.7805
  64   2.0000      -0.335632        -9.1330
  65   2.0000      -0.328844        -8.9483
  66   2.0000      -0.274956        -7.4819
  67   0.0000       0.019112         0.5201
  68   0.0000       0.084395         2.2965
  69   0.0000       0.099071         2.6959
  70   0.0000       0.126908         3.4533
  71   0.0000       0.131460         3.5772

MULLIKEN ATOMIC CHARGES
-----------------------
   0 S :    0.101127
   1 C :   -0.126556
   2 C :   -0.102486
   3 C :   -0.001560
   4 C :   -0.126185
   5 H :   -0.010311
   6 C :    0.105178
   7 H :    0.031238
   8 H :    0.017296
   9 C :   -0.082167
  10 H :    0.023823
  11 H :    0.033192
  12 C :   -0.075558
  13 H :    0.040615
  14 H :    0.040366
  15 H :    0.034590
  16 S :    0.103150
  17 C :   -0.050090
  18 C :   -0.082288
  19 C :   -0.021270
  20 C :   -0.126187
  21 H :    0.015178
  22 C :    0.035270
  23 H :    0.035051
  24 H :    0.034773
  25 C :   -0.006058
  26 H :    0.030814
  27 H :    0.025056
  28 C :   -0.077561
  29 H :    0.016319
  30 H :    0.029843
  31 H :    0.042847
  32 H :    0.054360
  33 H :    0.038191
Sum of atomic charges:    0.0000000

LOEWDIN ATOMIC CHARGES
----------------------
   0 S :    0.399895
   1 C :   -0.211888
   2 C :   -0.060305
   3 C :   -0.068329
   4 C :   -0.164341
   5 H :    0.020039
   6 C :   -0.033487
   7 H :    0.031335
   8 H :    0.034725
   9 C :   -0.040831
  10 H :    0.022098
  11 H :    0.028214
  12 C :   -0.070652
  13 H :    0.030142
  14 H :    0.024120
  15 H :    0.026586
  16 S :    0.411155
  17 C :   -0.204276
  18 C :   -0.076060
  19 C :   -0.052744
  20 C :   -0.187972
  21 H :    0.031506
  22 C :   -0.032281
  23 H :    0.032417
  24 H :    0.036382
  25 C :   -0.040096
  26 H :    0.028816
  27 H :    0.023660
  28 C :   -0.064122
  29 H :    0.016082
  30 H :    0.024041
  31 H :    0.033467
  32 H :    0.028677
  33 H :    0.024026

  Mayer bond orders larger than 0.100000
B(  0-S ,  1-C ) :   1.1509 B(  0-S ,  4-C ) :   1.1561 B(  1-C ,  2-C ) :   1.5891
B(  1-C ,  4-C ) :   0.1043 B(  1-C , 32-H ) :   0.9617 B(  2-C ,  3-C ) :   1.2695
B(  2-C ,  6-C ) :   1.0259 B(  3-C ,  4-C ) :   1.5210 B(  3-C ,  5-H ) :   0.9907
B(  4-C , 20-C ) :   1.0866 B(  6-C ,  7-H ) :   0.9310 B(  6-C ,  8-H ) :   0.9357
B(  6-C ,  9-C ) :   1.0703 B(  9-C , 10-H ) :   0.9576 B(  9-C , 11-H ) :   0.9520
B(  9-C , 12-C ) :   1.0794 B( 12-C , 13-H ) :   0.9757 B( 12-C , 14-H ) :   0.9756
B( 12-C , 15-H ) :   0.9766 B( 16-S , 17-C ) :   1.1471 B( 16-S , 20-C ) :   1.1408
B( 17-C , 18-C ) :   1.6449 B( 17-C , 33-H ) :   0.9609 B( 18-C , 19-C ) :   1.2317
B( 18-C , 21-H ) :   0.9862 B( 19-C , 20-C ) :   1.5888 B( 19-C , 22-C ) :   1.0279
B( 22-C , 23-H ) :   0.9150 B( 22-C , 24-H ) :   0.9330 B( 22-C , 25-C ) :   1.0723
B( 25-C , 26-H ) :   0.9514 B( 25-C , 27-H ) :   0.9461 B( 25-C , 28-C ) :   1.0880
B( 28-C , 29-H ) :   0.9743 B( 28-C , 30-H ) :   0.9734 B( 28-C , 31-H ) :   0.9727

Dispersion correction           -0.013249173
FINAL SINGLE POINT ENERGY     -1339.869724317723

DIPOLE MOMENT
-------------
                                X             Y             Z
Electronic contribution:    -33.22063      -0.27255      -7.39530
Nuclear contribution   :     33.90705       0.33582       7.75270
                        -----------------------------------------
Total Dipole Moment    :      0.68642       0.06327       0.35740
                        -----------------------------------------
Magnitude (a.u.)       :      0.77647
Magnitude (Debye)      :      1.97364

Rotational constants in cm-1:     0.016040     0.009387     0.006026
Rotational constants in MHz :   480.858499   281.416738   180.663110

                             ****ORCA TERMINATED NORMALLY****
TOTAL RUN TIME: 0 days 0 hours 0 minutes 21 seconds 291 msec
