                         Program Version 4.2.1 -  RELEASE  -
|  1> ! wB97X-D3 SP def2-SVP
|  2> %pal
|  3> nprocs 24
|  4> end
|  5>
|  6> * xyz 0 1
|  7> S 	 -125.802 	 21.4134 	 -19.5731
|  8> C 	 -124.158 	 21.3645 	 -18.9905
|  9> C 	 -123.181 	 21.6154 	 -19.9201
| 10> C 	 -123.777 	 21.894 	 -21.2057
| 11> C 	 -125.158 	 21.7364 	 -21.1812
| 12> H 	 -123.311 	 22.2622 	 -22.095
| 13> C 	 -121.7 	 21.6152 	 -19.7127
| 14> H 	 -121.303 	 20.846 	 -20.402
| 15> H 	 -121.473 	 21.3627 	 -18.6397
| 16> C 	 -120.962 	 22.8933 	 -20.0124
| 17> H 	 -121.616 	 23.4243 	 -20.7575
| 18> H 	 -121.144 	 23.5393 	 -19.1233
| 19> C 	 -119.476 	 22.7341 	 -20.3974
| 20> H 	 -119.028 	 21.9834 	 -19.7638
| 21> H 	 -119.328 	 22.3385 	 -21.3994
| 22> H 	 -118.867 	 23.6143 	 -20.1464
| 23> S 	 -127.109 	 23.4106 	 -22.0238
| 24> C 	 -127.54 	 23.3411 	 -23.7167
| 25> C 	 -126.927 	 22.38 	 -24.4314
| 26> C 	 -126.145 	 21.5521 	 -23.55
| 27> C 	 -126.046 	 22.027 	 -22.278
| 28> H 	 -127.048 	 22.3609 	 -25.4744
| 29> C 	 -125.326 	 20.3296 	 -23.9999
| 30> H 	 -125.378 	 19.4867 	 -23.295
| 31> H 	 -124.327 	 20.6628 	 -24.0448
| 32> C 	 -125.664 	 19.6227 	 -25.2628
| 33> H 	 -125.583 	 20.4211 	 -26.0586
| 34> H 	 -126.632 	 19.3037 	 -25.3766
| 35> C 	 -124.684 	 18.4419 	 -25.5157
| 36> H 	 -124.96 	 17.7681 	 -26.3062
| 37> H 	 -124.751 	 17.7634 	 -24.6611
| 38> H 	 -123.592 	 18.6953 	 -25.8377
| 39> H 	 -123.834 	 20.9341 	 -18.0438
| 40> H 	 -128.117 	 24.1482 	 -24.0907
| 41> *
| 42>
| 43>                          ****END OF INPUT****

CARTESIAN COORDINATES (ANGSTROEM)
---------------------------------
  S    -125.802000   21.413400  -19.573100
  C    -124.158000   21.364500  -18.990500
  C    -123.181000   21.615400  -19.920100
  C    -123.777000   21.894000  -21.205700
  C    -125.158000   21.736400  -21.181200
  H    -123.311000   22.262200  -22.095000
  C    -121.700000   21.615200  -19.712700
  H    -121.303000   20.846000  -20.402000
  H    -121.473000   21.362700  -18.639700
  C    -120.962000   22.893300  -20.012400
  H    -121.616000   23.424300  -20.757500
  H    -121.144000   23.539300  -19.123300
  C    -119.476000   22.734100  -20.397400
  H    -119.028000   21.983400  -19.763800
  H    -119.328000   22.338500  -21.399400
  H    -118.867000   23.614300  -20.146400
  S    -127.109000   23.410600  -22.023800
  C    -127.540000   23.341100  -23.716700
  C    -126.927000   22.380000  -24.431400
  C    -126.145000   21.552100  -23.550000
  C    -126.046000   22.027000  -22.278000
  H    -127.048000   22.360900  -25.474400
  C    -125.326000   20.329600  -23.999900
  H    -125.378000   19.486700  -23.295000
  H    -124.327000   20.662800  -24.044800
  C    -125.664000   19.622700  -25.262800
  H    -125.583000   20.421100  -26.058600
  H    -126.632000   19.303700  -25.376600
  C    -124.684000   18.441900  -25.515700
  H    -124.960000   17.768100  -26.306200
  H    -124.751000   17.763400  -24.661100
  H    -123.592000   18.695300  -25.837700
  H    -123.834000   20.934100  -18.043800
  H    -128.117000   24.148200  -24.090700

 Total Charge           Charge          ....    0
 Multiplicity           Mult            ....    1
 Number of Electrons    NEL             ....  134
 Basis Dimension        Dim             ....  322

ORBITAL ENERGIES
----------------

  NO   OCC          E(Eh)            E(eV)
   0   2.0000     -88.968606     -2420.9588
   1   2.0000     -88.958927     -2420.6955
   2   2.0000     -10.327904      -281.0366
   3   2.0000     -10.317898      -280.7643
   4   2.0000     -10.310409      -280.5605
   5   2.0000     -10.310357      -280.5591
   6   2.0000     -10.303413      -280.3701
   7   2.0000     -10.300025      -280.2779
   8   2.0000     -10.294534      -280.1285
   9   2.0000     -10.293990      -280.1137
  10   2.0000     -10.291045      -280.0336
  11   2.0000     -10.290659      -280.0231
  12   2.0000     -10.286512      -279.9102
  13   2.0000     -10.283673      -279.8330
  14   2.0000     -10.283392      -279.8253
  15   2.0000     -10.283011      -279.8150
  16   2.0000      -8.083183      -219.9546
  17   2.0000      -8.074367      -219.7147
  18   2.0000      -6.041672      -164.4022
  19   2.0000      -6.037930      -164.3004
  20   2.0000      -6.033765      -164.1871
  21   2.0000      -6.032730      -164.1589
  22   2.0000      -6.028963      -164.0564
  23   2.0000      -6.025041      -163.9497
  24   2.0000      -1.008393       -27.4398
  25   2.0000      -0.984517       -26.7901
  26   2.0000      -0.915935       -24.9238
  27   2.0000      -0.913180       -24.8489
  28   2.0000      -0.873084       -23.7578
  29   2.0000      -0.851593       -23.1730
  30   2.0000      -0.845405       -23.0046
  31   2.0000      -0.815889       -22.2015
  32   2.0000      -0.784477       -21.3467
  33   2.0000      -0.773533       -21.0489
  34   2.0000      -0.710334       -19.3292
  35   2.0000      -0.702264       -19.1096
  36   2.0000      -0.693861       -18.8809
  37   2.0000      -0.658716       -17.9246
  38   2.0000      -0.639975       -17.4146
  39   2.0000      -0.621304       -16.9065
  40   2.0000      -0.605364       -16.4728
  41   2.0000      -0.573218       -15.5980
  42   2.0000      -0.570935       -15.5359
  43   2.0000      -0.560069       -15.2403
  44   2.0000      -0.524213       -14.2646
  45   2.0000      -0.520963       -14.1761
  46   2.0000      -0.519164       -14.1272
  47   2.0000      -0.510638       -13.8952
  48   2.0000      -0.504349       -13.7240
  49   2.0000      -0.498279       -13.5589
  50   2.0000      -0.486662       -13.2427
  51   2.0000      -0.475024       -12.9261
  52   2.0000      -0.472188       -12.8489
  53   2.0000      -0.465013       -12.6536
  54   2.0000      -0.462353       -12.5813
  55   2.0000      -0.453673       -12.3451
  56   2.0000      -0.451840       -12.2952
  57   2.0000      -0.435421       -11.8484
  58   2.0000      -0.434136       -11.8134
  59   2.0000      -0.430900       -11.7254
  60   2.0000      -0.420617       -11.4456
  61   2.0000      -0.408943       -11.1279
  62   2.0000      -0.408609       -11.1188
  63   2.0000      -0.345859        -9.4113
  64   2.0000      -0.330088        -8.9822
  65   2.0000      -0.329205        -8.9581
  66   2.0000      -0.293982        -7.9997
  67   0.0000       0.037464         1.0195
  68   0.0000       0.065421         1.7802
  69   0.0000       0.109291         2.9740
  70   0.0000       0.119117         3.2413
  71   0.0000       0.133020         3.6197

MULLIKEN ATOMIC CHARGES
-----------------------
   0 S :    0.120374
   1 C :   -0.107799
   2 C :   -0.099559
   3 C :    0.035123
   4 C :   -0.170418
   5 H :    0.016464
   6 C :    0.068901
   7 H :    0.035650
   8 H :    0.024452
   9 C :   -0.108602
  10 H :    0.031075
  11 H :    0.029606
  12 C :   -0.024911
  13 H :    0.019717
  14 H :    0.040652
  15 H :    0.042934
  16 S :    0.091514
  17 C :   -0.073464
  18 C :   -0.020388
  19 C :   -0.019006
  20 C :   -0.154567
  21 H :    0.007389
  22 C :    0.074465
  23 H :    0.029573
  24 H :    0.020655
  25 C :   -0.058319
  26 H :    0.017414
  27 H :    0.014063
  28 C :   -0.067808
  29 H :    0.021278
  30 H :    0.029902
  31 H :    0.049574
  32 H :    0.041191
  33 H :    0.042872
Sum of atomic charges:   -0.0000000

LOEWDIN ATOMIC CHARGES
----------------------
   0 S :    0.400508
   1 C :   -0.202424
   2 C :   -0.062789
   3 C :   -0.052149
   4 C :   -0.186545
   5 H :    0.028954
   6 C :   -0.038384
   7 H :    0.034410
   8 H :    0.032672
   9 C :   -0.053517
  10 H :    0.026105
  11 H :    0.029389
  12 C :   -0.066387
  13 H :    0.024949
  14 H :    0.028614
  15 H :    0.034135
  16 S :    0.388571
  17 C :   -0.164532
  18 C :   -0.068736
  19 C :   -0.049529
  20 C :   -0.198304
  21 H :    0.028449
  22 C :   -0.031593
  23 H :    0.033795
  24 H :    0.027207
  25 C :   -0.038972
  26 H :    0.022810
  27 H :    0.013145
  28 C :   -0.072523
  29 H :    0.022774
  30 H :    0.026220
  31 H :    0.038218
  32 H :    0.027486
  33 H :    0.017978

  Mayer bond orders larger than 0.100000
B(  0-S ,  1-C ) :   1.1191 B(  0-S ,  4-C ) :   1.1442 B(  1-C ,  2-C ) :   1.6682
B(  1-C , 32-H ) :   0.9529 B(  2-C ,  3-C ) :   1.1960 B(  2-C ,  6-C ) :   1.0339
B(  3-C ,  4-C ) :   1.6111 B(  3-C ,  5-H ) :   0.9874 B(  4-C , 20-C ) :   1.0294
B(  6-C ,  7-H ) :   0.9383 B(  6-C ,  8-H ) :   0.9340 B(  6-C ,  9-C ) :   1.0490
B(  9-C , 10-H ) :   0.9657 B(  9-C , 11-H ) :   0.9521 B(  9-C , 12-C ) :   1.0636
B( 12-C , 13-H ) :   0.9730 B( 12-C , 14-H ) :   0.9742 B( 12-C , 15-H ) :   0.9739
B( 16-S , 17-C ) :   1.1518 B( 16-S , 20-C ) :   1.1241 B( 17-C , 18-C ) :   1.6451
B( 17-C , 33-H ) :   0.9668 B( 18-C , 19-C ) :   1.1807 B( 18-C , 21-H ) :   1.0057
B( 19-C , 20-C ) :   1.6665 B( 19-C , 22-C ) :   1.0230 B( 22-C , 23-H ) :   0.9406
B( 22-C , 24-H ) :   0.9318 B( 22-C , 25-C ) :   1.0724 B( 25-C , 26-H ) :   0.9429
B( 25-C , 27-H ) :   0.9598 B( 25-C , 28-C ) :   1.0816 B( 28-C , 29-H ) :   0.9724
B( 28-C , 30-H ) :   0.9716 B( 28-C , 31-H ) :   0.9748

Dispersion correction           -0.013479258
FINAL SINGLE POINT ENERGY     -1339.864528378956

DIPOLE MOMENT
-------------
                                X             Y             Z
Electronic contribution:    -24.16596       9.57362      11.36119
Nuclear contribution   :     24.74371      -9.72113     -11.77505
                        -----------------------------------------
Total Dipole Moment    :      0.57775      -0.14752      -0.41386
                        -----------------------------------------
Magnitude (a.u.)       :      0.72584
Magnitude (Debye)      :      1.84493

Rotational constants in cm-1:     0.016040     0.008303     0.006706
Rotational constants in MHz :   480.870244   248.912448   201.055191

                             ****ORCA TERMINATED NORMALLY****
TOTAL RUN TIME: 0 days 0 hours 0 minutes 21 seconds 268 msec
