                         Program Version 4.2.1 -  RELEASE  -
|  1> ! wB97X-D3 SP def2-SVP
|  2> %pal
|  3> nprocs 24
|  4> end
|  5>
|  6> * xyz 0 1
|  7> S 	 -43.8363 	 15.3579 	 23.2922
|  8> C 	 -45.511 	 15.8258 	 23.3061
|  9> C 	 -45.9918 	 15.901 	 22.0044
| 10> C 	 -45.0225 	 15.5938 	 21.0191
| 11> C 	 -43.8186 	 15.1832 	 21.5506
| 12> H 	 -45.165 	 15.4017 	 19.9729
| 13> C 	 -47.4032 	 16.2558 	 21.7833
| 14> H 	 -47.5651 	 16.3421 	 20.7039
| 15> H 	 -47.6363 	 17.2622 	 22.2095
| 16> C 	 -48.4046 	 15.2903 	 22.2966
| 17> H 	 -48.241 	 14.2472 	 21.9294
| 18> H 	 -48.3499 	 15.2897 	 23.4275
| 19> C 	 -49.9073 	 15.6444 	 21.9972
| 20> H 	 -49.9879 	 15.7711 	 20.9567
| 21> H 	 -50.5834 	 14.8525 	 22.4219
| 22> H 	 -50.0855 	 16.6118 	 22.4355
| 23> S 	 -42.3196 	 13.0435 	 20.9889
| 24> C 	 -41.2033 	 13.0334 	 19.6617
| 25> C 	 -41.2747 	 14.1716 	 18.9073
| 26> C 	 -42.2468 	 15.1041 	 19.3933
| 27> C 	 -42.7123 	 14.6982 	 20.7184
| 28> H 	 -40.7525 	 14.2294 	 17.9537
| 29> C 	 -42.5395 	 16.4177 	 18.7125
| 30> H 	 -43.6104 	 16.3522 	 18.4482
| 31> H 	 -42.0307 	 16.3895 	 17.7481
| 32> C 	 -42.2354 	 17.6675 	 19.5202
| 33> H 	 -41.2183 	 17.8473 	 19.6255
| 34> H 	 -42.7543 	 17.6175 	 20.4743
| 35> C 	 -42.7828 	 18.9084 	 18.7957
| 36> H 	 -42.8007 	 19.7511 	 19.4919
| 37> H 	 -43.847 	 18.6605 	 18.5745
| 38> H 	 -42.2692 	 19.2432 	 17.9293
| 39> H 	 -46.0979 	 16.1749 	 24.1775
| 40> H 	 -40.6482 	 12.1222 	 19.322
| 41> *
| 42>
| 43>                          ****END OF INPUT****

CARTESIAN COORDINATES (ANGSTROEM)
---------------------------------
  S    -43.836300   15.357900   23.292200
  C    -45.511000   15.825800   23.306100
  C    -45.991800   15.901000   22.004400
  C    -45.022500   15.593800   21.019100
  C    -43.818600   15.183200   21.550600
  H    -45.165000   15.401700   19.972900
  C    -47.403200   16.255800   21.783300
  H    -47.565100   16.342100   20.703900
  H    -47.636300   17.262200   22.209500
  C    -48.404600   15.290300   22.296600
  H    -48.241000   14.247200   21.929400
  H    -48.349900   15.289700   23.427500
  C    -49.907300   15.644400   21.997200
  H    -49.987900   15.771100   20.956700
  H    -50.583400   14.852500   22.421900
  H    -50.085500   16.611800   22.435500
  S    -42.319600   13.043500   20.988900
  C    -41.203300   13.033400   19.661700
  C    -41.274700   14.171600   18.907300
  C    -42.246800   15.104100   19.393300
  C    -42.712300   14.698200   20.718400
  H    -40.752500   14.229400   17.953700
  C    -42.539500   16.417700   18.712500
  H    -43.610400   16.352200   18.448200
  H    -42.030700   16.389500   17.748100
  C    -42.235400   17.667500   19.520200
  H    -41.218300   17.847300   19.625500
  H    -42.754300   17.617500   20.474300
  C    -42.782800   18.908400   18.795700
  H    -42.800700   19.751100   19.491900
  H    -43.847000   18.660500   18.574500
  H    -42.269200   19.243200   17.929300
  H    -46.097900   16.174900   24.177500
  H    -40.648200   12.122200   19.322000

 Total Charge           Charge          ....    0
 Multiplicity           Mult            ....    1
 Number of Electrons    NEL             ....  134
 Basis Dimension        Dim             ....  322

ORBITAL ENERGIES
----------------

  NO   OCC          E(Eh)            E(eV)
   0   2.0000     -88.969417     -2420.9809
   1   2.0000     -88.966027     -2420.8887
   2   2.0000     -10.329449      -281.0786
   3   2.0000     -10.328955      -281.0652
   4   2.0000     -10.316234      -280.7190
   5   2.0000     -10.314162      -280.6626
   6   2.0000     -10.310598      -280.5656
   7   2.0000     -10.297585      -280.2115
   8   2.0000     -10.293545      -280.1016
   9   2.0000     -10.291344      -280.0417
  10   2.0000     -10.290770      -280.0261
  11   2.0000     -10.289651      -279.9956
  12   2.0000     -10.288671      -279.9690
  13   2.0000     -10.278536      -279.6932
  14   2.0000     -10.276864      -279.6477
  15   2.0000     -10.272835      -279.5380
  16   2.0000      -8.083871      -219.9733
  17   2.0000      -8.081415      -219.9065
  18   2.0000      -6.042336      -164.4203
  19   2.0000      -6.039747      -164.3499
  20   2.0000      -6.038293      -164.3103
  21   2.0000      -6.035749      -164.2411
  22   2.0000      -6.034819      -164.2158
  23   2.0000      -6.032408      -164.1502
  24   2.0000      -1.008752       -27.4495
  25   2.0000      -0.986811       -26.8525
  26   2.0000      -0.918070       -24.9820
  27   2.0000      -0.912063       -24.8185
  28   2.0000      -0.870493       -23.6873
  29   2.0000      -0.852365       -23.1940
  30   2.0000      -0.848570       -23.0908
  31   2.0000      -0.815768       -22.1982
  32   2.0000      -0.780659       -21.2428
  33   2.0000      -0.764598       -20.8058
  34   2.0000      -0.707645       -19.2560
  35   2.0000      -0.696394       -18.9498
  36   2.0000      -0.688218       -18.7274
  37   2.0000      -0.659162       -17.9367
  38   2.0000      -0.639410       -17.3992
  39   2.0000      -0.617982       -16.8161
  40   2.0000      -0.592579       -16.1249
  41   2.0000      -0.574277       -15.6269
  42   2.0000      -0.573936       -15.6176
  43   2.0000      -0.561475       -15.2785
  44   2.0000      -0.528060       -14.3692
  45   2.0000      -0.521501       -14.1908
  46   2.0000      -0.520485       -14.1631
  47   2.0000      -0.511131       -13.9086
  48   2.0000      -0.503098       -13.6900
  49   2.0000      -0.496648       -13.5145
  50   2.0000      -0.493777       -13.4364
  51   2.0000      -0.486585       -13.2406
  52   2.0000      -0.474141       -12.9020
  53   2.0000      -0.458930       -12.4881
  54   2.0000      -0.457131       -12.4392
  55   2.0000      -0.448691       -12.2095
  56   2.0000      -0.446862       -12.1597
  57   2.0000      -0.437820       -11.9137
  58   2.0000      -0.433815       -11.8047
  59   2.0000      -0.424565       -11.5530
  60   2.0000      -0.420613       -11.4454
  61   2.0000      -0.417130       -11.3507
  62   2.0000      -0.408900       -11.1267
  63   2.0000      -0.349575        -9.5124
  64   2.0000      -0.332293        -9.0422
  65   2.0000      -0.325449        -8.8559
  66   2.0000      -0.288909        -7.8616
  67   0.0000       0.025945         0.7060
  68   0.0000       0.066717         1.8155
  69   0.0000       0.111730         3.0403
  70   0.0000       0.121644         3.3101
  71   0.0000       0.135740         3.6937

MULLIKEN ATOMIC CHARGES
-----------------------
   0 S :    0.125557
   1 C :   -0.135890
   2 C :   -0.073948
   3 C :    0.032405
   4 C :   -0.169417
   5 H :    0.014891
   6 C :    0.071177
   7 H :    0.007708
   8 H :    0.034256
   9 C :   -0.129402
  10 H :    0.039546
  11 H :    0.027572
  12 C :   -0.024064
  13 H :    0.018229
  14 H :    0.055070
  15 H :    0.019187
  16 S :    0.117397
  17 C :   -0.103851
  18 C :   -0.032513
  19 C :   -0.065537
  20 C :   -0.154457
  21 H :    0.022882
  22 C :    0.071810
  23 H :    0.020433
  24 H :    0.010276
  25 C :   -0.027038
  26 H :    0.021227
  27 H :    0.045838
  28 C :   -0.056609
  29 H :    0.028479
  30 H :    0.022906
  31 H :    0.030037
  32 H :    0.064606
  33 H :    0.071236
Sum of atomic charges:   -0.0000000

LOEWDIN ATOMIC CHARGES
----------------------
   0 S :    0.417574
   1 C :   -0.206750
   2 C :   -0.065525
   3 C :   -0.066642
   4 C :   -0.204273
   5 H :    0.031005
   6 C :   -0.043990
   7 H :    0.027039
   8 H :    0.036521
   9 C :   -0.044933
  10 H :    0.027207
  11 H :    0.022535
  12 C :   -0.060424
  13 H :    0.014493
  14 H :    0.036804
  15 H :    0.020288
  16 S :    0.438030
  17 C :   -0.201947
  18 C :   -0.078632
  19 C :   -0.047070
  20 C :   -0.215873
  21 H :    0.034954
  22 C :   -0.036524
  23 H :    0.031473
  24 H :    0.029641
  25 C :   -0.027876
  26 H :    0.017736
  27 H :    0.031737
  28 C :   -0.061782
  29 H :    0.025678
  30 H :    0.025599
  31 H :    0.016897
  32 H :    0.038143
  33 H :    0.038886

  Mayer bond orders larger than 0.100000
B(  0-S ,  1-C ) :   1.1420 B(  0-S ,  4-C ) :   1.1616 B(  1-C ,  2-C ) :   1.5776
B(  1-C , 32-H ) :   0.9666 B(  2-C ,  3-C ) :   1.2687 B(  2-C ,  6-C ) :   1.0347
B(  3-C ,  4-C ) :   1.5517 B(  3-C ,  5-H ) :   0.9917 B(  4-C , 20-C ) :   1.0269
B(  6-C ,  7-H ) :   0.9355 B(  6-C ,  8-H ) :   0.9287 B(  6-C ,  9-C ) :   1.0736
B(  9-C , 10-H ) :   0.9559 B(  9-C , 11-H ) :   0.9525 B(  9-C , 12-C ) :   1.0766
B( 12-C , 13-H ) :   0.9764 B( 12-C , 14-H ) :   0.9752 B( 12-C , 15-H ) :   0.9736
B( 16-S , 17-C ) :   1.1770 B( 16-S , 20-C ) :   1.1807 B( 17-C , 18-C ) :   1.5803
B( 17-C , 20-C ) :   0.1050 B( 17-C , 33-H ) :   0.9588 B( 18-C , 19-C ) :   1.2888
B( 18-C , 21-H ) :   0.9856 B( 19-C , 20-C ) :   1.5050 B( 19-C , 22-C ) :   1.0497
B( 22-C , 23-H ) :   0.9211 B( 22-C , 24-H ) :   0.9301 B( 22-C , 25-C ) :   1.0786
B( 25-C , 26-H ) :   0.9554 B( 25-C , 27-H ) :   0.9493 B( 25-C , 28-C ) :   1.0850
B( 28-C , 29-H ) :   0.9744 B( 28-C , 30-H ) :   0.9753 B( 28-C , 31-H ) :   0.9778

Dispersion correction           -0.014159892
FINAL SINGLE POINT ENERGY     -1339.876319012591

DIPOLE MOMENT
-------------
                                X             Y             Z
Electronic contribution:     18.43761     -16.47179       9.85364
Nuclear contribution   :    -18.78631      16.69966     -10.35922
                        -----------------------------------------
Total Dipole Moment    :     -0.34870       0.22787      -0.50558
                        -----------------------------------------
Magnitude (a.u.)       :      0.65508
Magnitude (Debye)      :      1.66507

Rotational constants in cm-1:     0.018467     0.008189     0.006856
Rotational constants in MHz :   553.628847   245.494189   205.524945

                             ****ORCA TERMINATED NORMALLY****
TOTAL RUN TIME: 0 days 0 hours 0 minutes 21 seconds 625 msec
