                         Program Version 4.2.1 -  RELEASE  -
|  1> ! wB97X-D3 SP def2-SVP
|  2> %pal
|  3> nprocs 24
|  4> end
|  5>
|  6> * xyz 0 1
|  7> S 	 -67.1609 	 18.8084 	 -107.866
|  8> C 	 -67.9056 	 17.2024 	 -107.468
|  9> C 	 -67.235 	 16.1814 	 -108.083
| 10> C 	 -66.1929 	 16.6631 	 -108.956
| 11> C 	 -66.1377 	 18.0843 	 -109.12
| 12> H 	 -65.4127 	 16.0629 	 -109.406
| 13> C 	 -67.4353 	 14.6893 	 -107.722
| 14> H 	 -68.4124 	 14.376 	 -108.033
| 15> H 	 -67.3929 	 14.5729 	 -106.607
| 16> C 	 -66.5675 	 13.6465 	 -108.405
| 17> H 	 -66.7893 	 13.6485 	 -109.487
| 18> H 	 -65.5564 	 14.028 	 -108.414
| 19> C 	 -66.6544 	 12.214 	 -107.868
| 20> H 	 -66.0772 	 11.6283 	 -108.542
| 21> H 	 -66.4138 	 12.0886 	 -106.759
| 22> H 	 -67.6654 	 11.8986 	 -107.945
| 23> S 	 -64.1666 	 19.8865 	 -109.452
| 24> C 	 -63.4892 	 20.2674 	 -111.022
| 25> C 	 -64.1137 	 19.4847 	 -111.991
| 26> C 	 -65.2203 	 18.7357 	 -111.466
| 27> C 	 -65.36 	 18.8703 	 -110.075
| 28> H 	 -63.8345 	 19.431 	 -113.012
| 29> C 	 -66.1624 	 17.9632 	 -112.379
| 30> H 	 -66.6514 	 18.6325 	 -113.083
| 31> H 	 -66.9694 	 17.7141 	 -111.701
| 32> C 	 -65.5128 	 16.8103 	 -113.164
| 33> H 	 -64.9409 	 17.2431 	 -114.077
| 34> H 	 -66.3432 	 16.2475 	 -113.615
| 35> C 	 -64.5461 	 15.8799 	 -112.469
| 36> H 	 -63.7549 	 16.3145 	 -111.839
| 37> H 	 -64.0201 	 15.2928 	 -113.31
| 38> H 	 -65.1569 	 15.1336 	 -111.876
| 39> H 	 -68.715 	 17.1763 	 -106.693
| 40> H 	 -62.7271 	 20.9327 	 -111.113
| 41> *
| 42>
| 43>                          ****END OF INPUT****

CARTESIAN COORDINATES (ANGSTROEM)
---------------------------------
  S    -67.160900   18.808400  -107.866000
  C    -67.905600   17.202400  -107.468000
  C    -67.235000   16.181400  -108.083000
  C    -66.192900   16.663100  -108.956000
  C    -66.137700   18.084300  -109.120000
  H    -65.412700   16.062900  -109.406000
  C    -67.435300   14.689300  -107.722000
  H    -68.412400   14.376000  -108.033000
  H    -67.392900   14.572900  -106.607000
  C    -66.567500   13.646500  -108.405000
  H    -66.789300   13.648500  -109.487000
  H    -65.556400   14.028000  -108.414000
  C    -66.654400   12.214000  -107.868000
  H    -66.077200   11.628300  -108.542000
  H    -66.413800   12.088600  -106.759000
  H    -67.665400   11.898600  -107.945000
  S    -64.166600   19.886500  -109.452000
  C    -63.489200   20.267400  -111.022000
  C    -64.113700   19.484700  -111.991000
  C    -65.220300   18.735700  -111.466000
  C    -65.360000   18.870300  -110.075000
  H    -63.834500   19.431000  -113.012000
  C    -66.162400   17.963200  -112.379000
  H    -66.651400   18.632500  -113.083000
  H    -66.969400   17.714100  -111.701000
  C    -65.512800   16.810300  -113.164000
  H    -64.940900   17.243100  -114.077000
  H    -66.343200   16.247500  -113.615000
  C    -64.546100   15.879900  -112.469000
  H    -63.754900   16.314500  -111.839000
  H    -64.020100   15.292800  -113.310000
  H    -65.156900   15.133600  -111.876000
  H    -68.715000   17.176300  -106.693000
  H    -62.727100   20.932700  -111.113000

 Total Charge           Charge          ....    0
 Multiplicity           Mult            ....    1
 Number of Electrons    NEL             ....  134
 Basis Dimension        Dim             ....  322

ORBITAL ENERGIES
----------------

  NO   OCC          E(Eh)            E(eV)
   0   2.0000     -88.964105     -2420.8364
   1   2.0000     -88.963650     -2420.8240
   2   2.0000     -10.337200      -281.2895
   3   2.0000     -10.323921      -280.9282
   4   2.0000     -10.322813      -280.8980
   5   2.0000     -10.315298      -280.6935
   6   2.0000     -10.308614      -280.5116
   7   2.0000     -10.302841      -280.3546
   8   2.0000     -10.301640      -280.3219
   9   2.0000     -10.295850      -280.1643
  10   2.0000     -10.294849      -280.1371
  11   2.0000     -10.294787      -280.1354
  12   2.0000     -10.287750      -279.9439
  13   2.0000     -10.287147      -279.9275
  14   2.0000     -10.286919      -279.9213
  15   2.0000     -10.282713      -279.8068
  16   2.0000      -8.079759      -219.8614
  17   2.0000      -8.077714      -219.8058
  18   2.0000      -6.038123      -164.3057
  19   2.0000      -6.036282      -164.2556
  20   2.0000      -6.033882      -164.1903
  21   2.0000      -6.032427      -164.1507
  22   2.0000      -6.030780      -164.1059
  23   2.0000      -6.028441      -164.0422
  24   2.0000      -1.006494       -27.3881
  25   2.0000      -0.977375       -26.5957
  26   2.0000      -0.911670       -24.8078
  27   2.0000      -0.906587       -24.6695
  28   2.0000      -0.871855       -23.7244
  29   2.0000      -0.846657       -23.0387
  30   2.0000      -0.840916       -22.8825
  31   2.0000      -0.812217       -22.1016
  32   2.0000      -0.784534       -21.3482
  33   2.0000      -0.775520       -21.1030
  34   2.0000      -0.711389       -19.3579
  35   2.0000      -0.694873       -18.9085
  36   2.0000      -0.689113       -18.7517
  37   2.0000      -0.660661       -17.9775
  38   2.0000      -0.639260       -17.3951
  39   2.0000      -0.615814       -16.7571
  40   2.0000      -0.597258       -16.2522
  41   2.0000      -0.569845       -15.5063
  42   2.0000      -0.565465       -15.3871
  43   2.0000      -0.548289       -14.9197
  44   2.0000      -0.543371       -14.7859
  45   2.0000      -0.528367       -14.3776
  46   2.0000      -0.523935       -14.2570
  47   2.0000      -0.507134       -13.7998
  48   2.0000      -0.502950       -13.6860
  49   2.0000      -0.495585       -13.4856
  50   2.0000      -0.491759       -13.3815
  51   2.0000      -0.490838       -13.3564
  52   2.0000      -0.474642       -12.9157
  53   2.0000      -0.459082       -12.4923
  54   2.0000      -0.453133       -12.3304
  55   2.0000      -0.449211       -12.2236
  56   2.0000      -0.448175       -12.1955
  57   2.0000      -0.435620       -11.8538
  58   2.0000      -0.433876       -11.8064
  59   2.0000      -0.421780       -11.4772
  60   2.0000      -0.416349       -11.3294
  61   2.0000      -0.413830       -11.2609
  62   2.0000      -0.403620       -10.9831
  63   2.0000      -0.342933        -9.3317
  64   2.0000      -0.329908        -8.9773
  65   2.0000      -0.323848        -8.8124
  66   2.0000      -0.294279        -8.0077
  67   0.0000       0.025661         0.6983
  68   0.0000       0.063574         1.7299
  69   0.0000       0.104121         2.8333
  70   0.0000       0.120685         3.2840
  71   0.0000       0.128279         3.4906

MULLIKEN ATOMIC CHARGES
-----------------------
   0 S :    0.088954
   1 C :   -0.158023
   2 C :   -0.049057
   3 C :    0.022633
   4 C :   -0.169005
   5 H :    0.018348
   6 C :    0.060384
   7 H :    0.024141
   8 H :    0.044873
   9 C :   -0.127722
  10 H :    0.028704
  11 H :    0.025822
  12 C :   -0.005499
  13 H :    0.033131
  14 H :    0.047345
  15 H :    0.016576
  16 S :    0.108181
  17 C :   -0.057374
  18 C :   -0.002233
  19 C :   -0.092232
  20 C :   -0.143105
  21 H :    0.007944
  22 C :    0.109172
  23 H :    0.031875
  24 H :    0.023763
  25 C :   -0.113106
  26 H :    0.034198
  27 H :    0.036377
  28 C :   -0.080339
  29 H :    0.058418
  30 H :    0.042486
  31 H :    0.040646
  32 H :    0.070019
  33 H :    0.023705
Sum of atomic charges:   -0.0000000

LOEWDIN ATOMIC CHARGES
----------------------
   0 S :    0.368759
   1 C :   -0.177056
   2 C :   -0.065439
   3 C :   -0.062462
   4 C :   -0.189658
   5 H :    0.029466
   6 C :   -0.033448
   7 H :    0.029110
   8 H :    0.036738
   9 C :   -0.049901
  10 H :    0.026595
  11 H :    0.016263
  12 C :   -0.057196
  13 H :    0.027054
  14 H :    0.036038
  15 H :    0.019566
  16 S :    0.439147
  17 C :   -0.164774
  18 C :   -0.060364
  19 C :   -0.055429
  20 C :   -0.231895
  21 H :    0.025941
  22 C :   -0.036125
  23 H :    0.035126
  24 H :    0.030690
  25 C :   -0.052127
  26 H :    0.027955
  27 H :    0.029874
  28 C :   -0.079665
  29 H :    0.028135
  30 H :    0.037619
  31 H :    0.027548
  32 H :    0.037168
  33 H :    0.006745

  Mayer bond orders larger than 0.100000
B(  0-S ,  1-C ) :   1.1300 B(  0-S ,  4-C ) :   1.1521 B(  1-C ,  2-C ) :   1.6143
B(  1-C ,  4-C ) :   0.1087 B(  1-C , 32-H ) :   0.9703 B(  2-C ,  3-C ) :   1.2490
B(  2-C ,  6-C ) :   0.9958 B(  3-C ,  4-C ) :   1.5470 B(  3-C ,  5-H ) :   0.9889
B(  4-C , 20-C ) :   1.0167 B(  6-C ,  7-H ) :   0.9356 B(  6-C ,  8-H ) :   0.9487
B(  6-C ,  9-C ) :   1.0818 B(  9-C , 10-H ) :   0.9495 B(  9-C , 11-H ) :   0.9488
B(  9-C , 12-C ) :   1.0832 B( 12-C , 13-H ) :   0.9700 B( 12-C , 14-H ) :   0.9735
B( 12-C , 15-H ) :   0.9724 B( 16-S , 17-C ) :   1.1742 B( 16-S , 20-C ) :   1.1760
B( 17-C , 18-C ) :   1.5448 B( 17-C , 20-C ) :   0.1012 B( 17-C , 33-H ) :   0.9904
B( 18-C , 19-C ) :   1.2721 B( 18-C , 21-H ) :   1.0005 B( 19-C , 20-C ) :   1.5580
B( 19-C , 22-C ) :   1.0402 B( 22-C , 23-H ) :   0.9368 B( 22-C , 24-H ) :   0.9318
B( 22-C , 25-C ) :   1.0571 B( 25-C , 26-H ) :   0.9566 B( 25-C , 27-H ) :   0.9537
B( 25-C , 28-C ) :   1.0813 B( 28-C , 29-H ) :   0.9672 B( 28-C , 30-H ) :   0.9701
B( 28-C , 31-H ) :   0.9717

Dispersion correction           -0.014901096
FINAL SINGLE POINT ENERGY     -1339.868632182443

DIPOLE MOMENT
-------------
                                X             Y             Z
Electronic contribution:      1.64979      29.07576      10.16125
Nuclear contribution   :     -1.63730     -29.71924     -10.50232
                        -----------------------------------------
Total Dipole Moment    :      0.01249      -0.64348      -0.34106
                        -----------------------------------------
Magnitude (a.u.)       :      0.72839
Magnitude (Debye)      :      1.85141

Rotational constants in cm-1:     0.018004     0.009165     0.006903
Rotational constants in MHz :   539.748949   274.771501   206.947893

                             ****ORCA TERMINATED NORMALLY****
TOTAL RUN TIME: 0 days 0 hours 0 minutes 22 seconds 192 msec
