                         Program Version 4.2.1 -  RELEASE  -
|  1> ! wB97X-D3 SP def2-SVP
|  2> %pal
|  3> nprocs 24
|  4> end
|  5>
|  6> * xyz 0 1
|  7> S 	 -132.764 	 12.949 	 -6.30092
|  8> C 	 -131.105 	 13.4721 	 -6.1363
|  9> C 	 -130.289 	 13.2622 	 -7.18523
| 10> C 	 -131.064 	 12.7296 	 -8.29358
| 11> C 	 -132.401 	 12.6189 	 -8.04133
| 12> H 	 -130.731 	 12.4456 	 -9.30353
| 13> C 	 -128.735 	 13.5862 	 -7.2647
| 14> H 	 -128.69 	 14.6237 	 -7.58419
| 15> H 	 -128.295 	 12.9674 	 -8.0186
| 16> C 	 -127.821 	 13.521 	 -6.01309
| 17> H 	 -126.839 	 13.9021 	 -6.31575
| 18> H 	 -128.163 	 14.2336 	 -5.22878
| 19> C 	 -127.856 	 12.1938 	 -5.35537
| 20> H 	 -127.306 	 11.4056 	 -5.91333
| 21> H 	 -127.434 	 12.2154 	 -4.30585
| 22> H 	 -128.959 	 11.7943 	 -5.29996
| 23> S 	 -134.208 	 13.3072 	 -10.0407
| 24> C 	 -134.874 	 12.1238 	 -11.0271
| 25> C 	 -134.325 	 10.9264 	 -10.788
| 26> C 	 -133.467 	 10.9039 	 -9.62859
| 27> C 	 -133.385 	 12.1446 	 -9.00176
| 28> H 	 -134.609 	 10.0646 	 -11.39
| 29> C 	 -132.893 	 9.62265 	 -9.13981
| 30> H 	 -133.812 	 9.06383 	 -8.75353
| 31> H 	 -132.353 	 9.85458 	 -8.28547
| 32> C 	 -132 	 8.72152 	 -10.0898
| 33> H 	 -131.128 	 9.32 	 -10.4223
| 34> H 	 -132.565 	 8.397 	 -10.975
| 35> C 	 -131.472 	 7.56684 	 -9.30824
| 36> H 	 -130.824 	 7.89553 	 -8.52222
| 37> H 	 -130.786 	 6.92298 	 -9.93738
| 38> H 	 -132.222 	 6.9846 	 -8.93378
| 39> H 	 -130.719 	 13.9147 	 -5.26877
| 40> H 	 -135.78 	 12.3042 	 -11.651
| 41> *
| 42>
| 43>                          ****END OF INPUT****

CARTESIAN COORDINATES (ANGSTROEM)
---------------------------------
  S    -132.764000   12.949000   -6.300920
  C    -131.105000   13.472100   -6.136300
  C    -130.289000   13.262200   -7.185230
  C    -131.064000   12.729600   -8.293580
  C    -132.401000   12.618900   -8.041330
  H    -130.731000   12.445600   -9.303530
  C    -128.735000   13.586200   -7.264700
  H    -128.690000   14.623700   -7.584190
  H    -128.295000   12.967400   -8.018600
  C    -127.821000   13.521000   -6.013090
  H    -126.839000   13.902100   -6.315750
  H    -128.163000   14.233600   -5.228780
  C    -127.856000   12.193800   -5.355370
  H    -127.306000   11.405600   -5.913330
  H    -127.434000   12.215400   -4.305850
  H    -128.959000   11.794300   -5.299960
  S    -134.208000   13.307200  -10.040700
  C    -134.874000   12.123800  -11.027100
  C    -134.325000   10.926400  -10.788000
  C    -133.467000   10.903900   -9.628590
  C    -133.385000   12.144600   -9.001760
  H    -134.609000   10.064600  -11.390000
  C    -132.893000    9.622650   -9.139810
  H    -133.812000    9.063830   -8.753530
  H    -132.353000    9.854580   -8.285470
  C    -132.000000    8.721520  -10.089800
  H    -131.128000    9.320000  -10.422300
  H    -132.565000    8.397000  -10.975000
  C    -131.472000    7.566840   -9.308240
  H    -130.824000    7.895530   -8.522220
  H    -130.786000    6.922980   -9.937380
  H    -132.222000    6.984600   -8.933780
  H    -130.719000   13.914700   -5.268770
  H    -135.780000   12.304200  -11.651000

 Total Charge           Charge          ....    0
 Multiplicity           Mult            ....    1
 Number of Electrons    NEL             ....  134
 Basis Dimension        Dim             ....  322

ORBITAL ENERGIES
----------------

  NO   OCC          E(Eh)            E(eV)
   0   2.0000     -88.965274     -2420.8682
   1   2.0000     -88.955678     -2420.6071
   2   2.0000     -10.327923      -281.0371
   3   2.0000     -10.320462      -280.8340
   4   2.0000     -10.310365      -280.5593
   5   2.0000     -10.307054      -280.4692
   6   2.0000     -10.304784      -280.4074
   7   2.0000     -10.301974      -280.3310
   8   2.0000     -10.298762      -280.2436
   9   2.0000     -10.298457      -280.2353
  10   2.0000     -10.292112      -280.0626
  11   2.0000     -10.292049      -280.0609
  12   2.0000     -10.288066      -279.9525
  13   2.0000     -10.286192      -279.9015
  14   2.0000     -10.286098      -279.8990
  15   2.0000     -10.270760      -279.4816
  16   2.0000      -8.079372      -219.8509
  17   2.0000      -8.072196      -219.6556
  18   2.0000      -6.037887      -164.2993
  19   2.0000      -6.034304      -164.2018
  20   2.0000      -6.030581      -164.1005
  21   2.0000      -6.029822      -164.0798
  22   2.0000      -6.026459      -163.9883
  23   2.0000      -6.022947      -163.8927
  24   2.0000      -1.008144       -27.4330
  25   2.0000      -0.985672       -26.8215
  26   2.0000      -0.911271       -24.7969
  27   2.0000      -0.909371       -24.7453
  28   2.0000      -0.873928       -23.7808
  29   2.0000      -0.854832       -23.2612
  30   2.0000      -0.845558       -23.0088
  31   2.0000      -0.812940       -22.1212
  32   2.0000      -0.782744       -21.2996
  33   2.0000      -0.771581       -20.9958
  34   2.0000      -0.706416       -19.2226
  35   2.0000      -0.698512       -19.0075
  36   2.0000      -0.693490       -18.8708
  37   2.0000      -0.650161       -17.6918
  38   2.0000      -0.641897       -17.4669
  39   2.0000      -0.609237       -16.5782
  40   2.0000      -0.595338       -16.2000
  41   2.0000      -0.575082       -15.6488
  42   2.0000      -0.570501       -15.5241
  43   2.0000      -0.554021       -15.0757
  44   2.0000      -0.539509       -14.6808
  45   2.0000      -0.523120       -14.2348
  46   2.0000      -0.520288       -14.1577
  47   2.0000      -0.512451       -13.9445
  48   2.0000      -0.510224       -13.8839
  49   2.0000      -0.491855       -13.3841
  50   2.0000      -0.484385       -13.1808
  51   2.0000      -0.478197       -13.0124
  52   2.0000      -0.472248       -12.8505
  53   2.0000      -0.465837       -12.6761
  54   2.0000      -0.459519       -12.5041
  55   2.0000      -0.450107       -12.2480
  56   2.0000      -0.441864       -12.0237
  57   2.0000      -0.433640       -11.8000
  58   2.0000      -0.430863       -11.7244
  59   2.0000      -0.427153       -11.6234
  60   2.0000      -0.423314       -11.5190
  61   2.0000      -0.414693       -11.2844
  62   2.0000      -0.412875       -11.2349
  63   2.0000      -0.336100        -9.1457
  64   2.0000      -0.325615        -8.8604
  65   2.0000      -0.317124        -8.6294
  66   2.0000      -0.316236        -8.6052
  67   0.0000       0.041852         1.1388
  68   0.0000       0.062053         1.6885
  69   0.0000       0.106762         2.9051
  70   0.0000       0.117845         3.2067
  71   0.0000       0.135120         3.6768

MULLIKEN ATOMIC CHARGES
-----------------------
   0 S :    0.107238
   1 C :   -0.094688
   2 C :   -0.088381
   3 C :    0.025714
   4 C :   -0.187779
   5 H :    0.022596
   6 C :    0.079613
   7 H :    0.044992
   8 H :    0.022938
   9 C :   -0.063906
  10 H :    0.034276
  11 H :    0.028217
  12 C :   -0.105926
  13 H :    0.032562
  14 H :    0.045498
  15 H :    0.056009
  16 S :    0.099509
  17 C :   -0.097056
  18 C :   -0.030001
  19 C :   -0.039104
  20 C :   -0.152761
  21 H :    0.017514
  22 C :    0.046525
  23 H :    0.047444
  24 H :   -0.002886
  25 C :   -0.069827
  26 H :    0.032761
  27 H :    0.034991
  28 C :   -0.013340
  29 H :    0.025290
  30 H :    0.032955
  31 H :    0.013063
  32 H :    0.018479
  33 H :    0.077470
Sum of atomic charges:   -0.0000000

LOEWDIN ATOMIC CHARGES
----------------------
   0 S :    0.373794
   1 C :   -0.181442
   2 C :   -0.065103
   3 C :   -0.049055
   4 C :   -0.184949
   5 H :    0.036649
   6 C :   -0.023148
   7 H :    0.037356
   8 H :    0.026213
   9 C :   -0.051314
  10 H :    0.029310
  11 H :    0.026286
  12 C :   -0.084952
  13 H :    0.023126
  14 H :    0.030569
  15 H :    0.040334
  16 S :    0.421044
  17 C :   -0.203963
  18 C :   -0.083502
  19 C :   -0.048484
  20 C :   -0.213153
  21 H :    0.031001
  22 C :   -0.035383
  23 H :    0.045352
  24 H :    0.017503
  25 C :   -0.034479
  26 H :    0.028520
  27 H :    0.023106
  28 C :   -0.057799
  29 H :    0.024724
  30 H :    0.032919
  31 H :    0.011342
  32 H :    0.014900
  33 H :    0.042680

  Mayer bond orders larger than 0.100000
B(  0-S ,  1-C ) :   1.1273 B(  0-S ,  4-C ) :   1.1024 B(  1-C ,  2-C ) :   1.6818
B(  1-C , 32-H ) :   0.9642 B(  2-C ,  3-C ) :   1.1855 B(  2-C ,  6-C ) :   0.9887
B(  3-C ,  4-C ) :   1.6572 B(  3-C ,  5-H ) :   0.9923 B(  4-C , 20-C ) :   1.0157
B(  6-C ,  7-H ) :   0.9374 B(  6-C ,  8-H ) :   0.9487 B(  6-C ,  9-C ) :   1.0828
B(  9-C , 10-H ) :   0.9499 B(  9-C , 11-H ) :   0.9502 B(  9-C , 12-C ) :   1.0770
B( 12-C , 13-H ) :   0.9737 B( 12-C , 14-H ) :   0.9739 B( 12-C , 15-H ) :   0.9683
B( 16-S , 17-C ) :   1.1830 B( 16-S , 20-C ) :   1.1321 B( 17-C , 18-C ) :   1.5999
B( 17-C , 33-H ) :   0.9575 B( 18-C , 19-C ) :   1.2354 B( 18-C , 21-H ) :   0.9948
B( 19-C , 20-C ) :   1.5823 B( 19-C , 22-C ) :   1.0550 B( 22-C , 23-H ) :   0.9332
B( 22-C , 24-H ) :   0.9296 B( 22-C , 25-C ) :   1.0538 B( 25-C , 26-H ) :   0.9542
B( 25-C , 27-H ) :   0.9537 B( 25-C , 28-C ) :   1.0977 B( 28-C , 29-H ) :   0.9714
B( 28-C , 30-H ) :   0.9707 B( 28-C , 31-H ) :   0.9728

Dispersion correction           -0.014229650
FINAL SINGLE POINT ENERGY     -1339.867962231628

DIPOLE MOMENT
-------------
                                X             Y             Z
Electronic contribution:    -22.43897      16.21675      -3.34675
Nuclear contribution   :     22.96734     -16.60637       3.16607
                        -----------------------------------------
Total Dipole Moment    :      0.52837      -0.38962      -0.18067
                        -----------------------------------------
Magnitude (a.u.)       :      0.68089
Magnitude (Debye)      :      1.73069

Rotational constants in cm-1:     0.018112     0.008353     0.006565
Rotational constants in MHz :   542.994506   250.429287   196.809154

                             ****ORCA TERMINATED NORMALLY****
TOTAL RUN TIME: 0 days 0 hours 0 minutes 21 seconds 320 msec
