                         Program Version 4.2.1 -  RELEASE  -
|  1> ! wB97X-D3 SP def2-SVP
|  2> %pal
|  3> nprocs 24
|  4> end
|  5>
|  6> * xyz 0 1
|  7> S 	 -114.959 	 62.1292 	 -81.0274
|  8> C 	 -114.779 	 63.0839 	 -79.6368
|  9> C 	 -114.804 	 62.3397 	 -78.4149
| 10> C 	 -114.86 	 60.8934 	 -78.6635
| 11> C 	 -114.842 	 60.6381 	 -80.0092
| 12> H 	 -114.818 	 60.1351 	 -77.9182
| 13> C 	 -114.508 	 62.9558 	 -77.0792
| 14> H 	 -114 	 63.8679 	 -77.379
| 15> H 	 -113.8 	 62.2697 	 -76.479
| 16> C 	 -115.719 	 63.1631 	 -76.1501
| 17> H 	 -115.532 	 63.7608 	 -75.2432
| 18> H 	 -116.382 	 63.894 	 -76.5908
| 19> C 	 -116.498 	 61.9119 	 -75.5861
| 20> H 	 -115.713 	 61.2402 	 -75.2721
| 21> H 	 -117.108 	 62.0364 	 -74.6498
| 22> H 	 -117.072 	 61.445 	 -76.3591
| 23> S 	 -113.665 	 59.1653 	 -81.9955
| 24> C 	 -114.094 	 57.4932 	 -82.1558
| 25> C 	 -115.124 	 57.1057 	 -81.3092
| 26> C 	 -115.35 	 58.0945 	 -80.2825
| 27> C 	 -114.744 	 59.3034 	 -80.6185
| 28> H 	 -115.57 	 56.092 	 -81.3859
| 29> C 	 -116.336 	 57.9645 	 -79.181
| 30> H 	 -117.158 	 57.3339 	 -79.5709
| 31> H 	 -116.811 	 58.9412 	 -79.1721
| 32> C 	 -115.829 	 57.4176 	 -77.9026
| 33> H 	 -114.779 	 57.6766 	 -77.7667
| 34> H 	 -115.912 	 56.3333 	 -77.8359
| 35> C 	 -116.595 	 58.083 	 -76.7209
| 36> H 	 -116.643 	 59.136 	 -76.9072
| 37> H 	 -116.062 	 57.8688 	 -75.7541
| 38> H 	 -117.603 	 57.6858 	 -76.702
| 39> H 	 -114.878 	 64.1231 	 -79.7773
| 40> H 	 -113.936 	 56.9798 	 -83.0516
| 41> *
| 42>
| 43>                          ****END OF INPUT****

CARTESIAN COORDINATES (ANGSTROEM)
---------------------------------
  S    -114.959000   62.129200  -81.027400
  C    -114.779000   63.083900  -79.636800
  C    -114.804000   62.339700  -78.414900
  C    -114.860000   60.893400  -78.663500
  C    -114.842000   60.638100  -80.009200
  H    -114.818000   60.135100  -77.918200
  C    -114.508000   62.955800  -77.079200
  H    -114.000000   63.867900  -77.379000
  H    -113.800000   62.269700  -76.479000
  C    -115.719000   63.163100  -76.150100
  H    -115.532000   63.760800  -75.243200
  H    -116.382000   63.894000  -76.590800
  C    -116.498000   61.911900  -75.586100
  H    -115.713000   61.240200  -75.272100
  H    -117.108000   62.036400  -74.649800
  H    -117.072000   61.445000  -76.359100
  S    -113.665000   59.165300  -81.995500
  C    -114.094000   57.493200  -82.155800
  C    -115.124000   57.105700  -81.309200
  C    -115.350000   58.094500  -80.282500
  C    -114.744000   59.303400  -80.618500
  H    -115.570000   56.092000  -81.385900
  C    -116.336000   57.964500  -79.181000
  H    -117.158000   57.333900  -79.570900
  H    -116.811000   58.941200  -79.172100
  C    -115.829000   57.417600  -77.902600
  H    -114.779000   57.676600  -77.766700
  H    -115.912000   56.333300  -77.835900
  C    -116.595000   58.083000  -76.720900
  H    -116.643000   59.136000  -76.907200
  H    -116.062000   57.868800  -75.754100
  H    -117.603000   57.685800  -76.702000
  H    -114.878000   64.123100  -79.777300
  H    -113.936000   56.979800  -83.051600

 Total Charge           Charge          ....    0
 Multiplicity           Mult            ....    1
 Number of Electrons    NEL             ....  134
 Basis Dimension        Dim             ....  322

ORBITAL ENERGIES
----------------

  NO   OCC          E(Eh)            E(eV)
   0   2.0000     -88.969859     -2420.9930
   1   2.0000     -88.964396     -2420.8443
   2   2.0000     -10.333795      -281.1969
   3   2.0000     -10.325018      -280.9580
   4   2.0000     -10.314327      -280.6671
   5   2.0000     -10.310148      -280.5534
   6   2.0000     -10.307764      -280.4885
   7   2.0000     -10.301624      -280.3214
   8   2.0000     -10.300869      -280.3009
   9   2.0000     -10.299063      -280.2517
  10   2.0000     -10.297985      -280.2224
  11   2.0000     -10.288823      -279.9731
  12   2.0000     -10.284492      -279.8553
  13   2.0000     -10.284175      -279.8466
  14   2.0000     -10.283069      -279.8165
  15   2.0000     -10.279573      -279.7214
  16   2.0000      -8.084706      -219.9960
  17   2.0000      -8.079402      -219.8517
  18   2.0000      -6.043152      -164.4425
  19   2.0000      -6.039291      -164.3375
  20   2.0000      -6.037790      -164.2966
  21   2.0000      -6.035440      -164.2327
  22   2.0000      -6.033968      -164.1926
  23   2.0000      -6.030192      -164.0899
  24   2.0000      -1.004752       -27.3407
  25   2.0000      -0.981914       -26.7192
  26   2.0000      -0.918813       -25.0022
  27   2.0000      -0.905950       -24.6522
  28   2.0000      -0.869859       -23.6701
  29   2.0000      -0.853065       -23.2131
  30   2.0000      -0.847160       -23.0524
  31   2.0000      -0.816923       -22.2296
  32   2.0000      -0.779708       -21.2169
  33   2.0000      -0.766655       -20.8617
  34   2.0000      -0.705975       -19.2106
  35   2.0000      -0.703850       -19.1527
  36   2.0000      -0.694375       -18.8949
  37   2.0000      -0.664872       -18.0921
  38   2.0000      -0.646761       -17.5993
  39   2.0000      -0.615772       -16.7560
  40   2.0000      -0.593623       -16.1533
  41   2.0000      -0.571329       -15.5467
  42   2.0000      -0.566827       -15.4241
  43   2.0000      -0.549535       -14.9536
  44   2.0000      -0.537472       -14.6254
  45   2.0000      -0.530554       -14.4371
  46   2.0000      -0.517945       -14.0940
  47   2.0000      -0.509319       -13.8593
  48   2.0000      -0.506972       -13.7954
  49   2.0000      -0.493957       -13.4412
  50   2.0000      -0.486514       -13.2387
  51   2.0000      -0.483986       -13.1699
  52   2.0000      -0.470956       -12.8154
  53   2.0000      -0.461993       -12.5715
  54   2.0000      -0.459303       -12.4983
  55   2.0000      -0.451764       -12.2931
  56   2.0000      -0.450576       -12.2608
  57   2.0000      -0.444530       -12.0963
  58   2.0000      -0.437658       -11.9093
  59   2.0000      -0.421674       -11.4743
  60   2.0000      -0.415417       -11.3041
  61   2.0000      -0.413479       -11.2513
  62   2.0000      -0.407053       -11.0765
  63   2.0000      -0.356183        -9.6922
  64   2.0000      -0.330702        -8.9989
  65   2.0000      -0.327255        -8.9051
  66   2.0000      -0.285406        -7.7663
  67   0.0000       0.025738         0.7004
  68   0.0000       0.066824         1.8184
  69   0.0000       0.105303         2.8654
  70   0.0000       0.114677         3.1205
  71   0.0000       0.122407         3.3309

MULLIKEN ATOMIC CHARGES
-----------------------
   0 S :    0.116094
   1 C :   -0.112909
   2 C :   -0.080016
   3 C :    0.033857
   4 C :   -0.126011
   5 H :   -0.004683
   6 C :    0.044806
   7 H :    0.032421
   8 H :    0.045587
   9 C :   -0.074211
  10 H :    0.023687
  11 H :    0.013061
  12 C :   -0.076876
  13 H :    0.020362
  14 H :    0.049236
  15 H :    0.058468
  16 S :    0.103969
  17 C :   -0.063990
  18 C :   -0.055579
  19 C :   -0.057320
  20 C :   -0.157253
  21 H :    0.037693
  22 C :    0.031005
  23 H :    0.022013
  24 H :    0.034347
  25 C :   -0.047884
  26 H :    0.036016
  27 H :    0.034780
  28 C :   -0.052487
  29 H :    0.010410
  30 H :    0.042690
  31 H :    0.032338
  32 H :    0.043767
  33 H :    0.042613
Sum of atomic charges:   -0.0000000

LOEWDIN ATOMIC CHARGES
----------------------
   0 S :    0.404869
   1 C :   -0.209480
   2 C :   -0.056602
   3 C :   -0.053669
   4 C :   -0.172673
   5 H :    0.028094
   6 C :   -0.036291
   7 H :    0.037305
   8 H :    0.039411
   9 C :   -0.052189
  10 H :    0.027326
  11 H :    0.018309
  12 C :   -0.068420
  13 H :    0.021288
  14 H :    0.037559
  15 H :    0.019632
  16 S :    0.408008
  17 C :   -0.191674
  18 C :   -0.065946
  19 C :   -0.056693
  20 C :   -0.195707
  21 H :    0.039151
  22 C :   -0.043654
  23 H :    0.036136
  24 H :    0.034130
  25 C :   -0.040103
  26 H :    0.022088
  27 H :    0.027359
  28 C :   -0.059366
  29 H :    0.014419
  30 H :    0.030514
  31 H :    0.024414
  32 H :    0.016869
  33 H :    0.015585

  Mayer bond orders larger than 0.100000
B(  0-S ,  1-C ) :   1.1527 B(  0-S ,  4-C ) :   1.1387 B(  1-C ,  2-C ) :   1.5929
B(  1-C , 32-H ) :   0.9706 B(  2-C ,  3-C ) :   1.2159 B(  2-C ,  6-C ) :   1.0209
B(  3-C ,  4-C ) :   1.5838 B(  3-C ,  5-H ) :   0.9965 B(  4-C , 20-C ) :   1.0464
B(  6-C ,  7-H ) :   0.9415 B(  6-C ,  8-H ) :   0.9488 B(  6-C ,  9-C ) :   1.0633
B(  9-C , 10-H ) :   0.9560 B(  9-C , 11-H ) :   0.9540 B(  9-C , 12-C ) :   1.0612
B( 12-C , 13-H ) :   0.9740 B( 12-C , 14-H ) :   0.9741 B( 12-C , 15-H ) :   0.9718
B( 16-S , 17-C ) :   1.1516 B( 16-S , 20-C ) :   1.1450 B( 17-C , 18-C ) :   1.6306
B( 17-C , 33-H ) :   0.9627 B( 18-C , 19-C ) :   1.2351 B( 18-C , 21-H ) :   0.9790
B( 19-C , 20-C ) :   1.5832 B( 19-C , 22-C ) :   1.0505 B( 22-C , 23-H ) :   0.9248
B( 22-C , 24-H ) :   0.9450 B( 22-C , 25-C ) :   1.0391 B( 25-C , 26-H ) :   0.9622
B( 25-C , 27-H ) :   0.9486 B( 25-C , 28-C ) :   1.0778 B( 28-C , 29-H ) :   0.9756
B( 28-C , 30-H ) :   0.9752 B( 28-C , 31-H ) :   0.9723

Dispersion correction           -0.015764370
FINAL SINGLE POINT ENERGY     -1339.865814621034

DIPOLE MOMENT
-------------
                                X             Y             Z
Electronic contribution:     11.36740       2.38217     -29.69644
Nuclear contribution   :    -11.70154      -2.47464      30.17097
                        -----------------------------------------
Total Dipole Moment    :     -0.33413      -0.09246       0.47453
                        -----------------------------------------
Magnitude (a.u.)       :      0.58769
Magnitude (Debye)      :      1.49378

Rotational constants in cm-1:     0.018615     0.010349     0.007035
Rotational constants in MHz :   558.049545   310.263562   210.890956

                             ****ORCA TERMINATED NORMALLY****
TOTAL RUN TIME: 0 days 0 hours 0 minutes 21 seconds 916 msec
