                         Program Version 4.2.1 -  RELEASE  -
|  1> ! wB97X-D3 SP def2-SVP
|  2> %pal
|  3> nprocs 24
|  4> end
|  5>
|  6> * xyz 0 1
|  7> S 	 -87.2009 	 -7.53097 	 -60.1537
|  8> C 	 -86.8189 	 -5.94414 	 -60.8791
|  9> C 	 -85.7743 	 -5.30231 	 -60.1515
| 10> C 	 -85.2064 	 -6.19086 	 -59.1781
| 11> C 	 -85.7723 	 -7.41399 	 -59.0615
| 12> H 	 -84.2998 	 -6.05253 	 -58.6564
| 13> C 	 -85.1272 	 -3.96782 	 -60.486
| 14> H 	 -84.9595 	 -3.57078 	 -59.5204
| 15> H 	 -85.8126 	 -3.2875 	 -60.9654
| 16> C 	 -83.5948 	 -3.92711 	 -60.8363
| 17> H 	 -83.2333 	 -2.91915 	 -60.9086
| 18> H 	 -83.0435 	 -4.39963 	 -60.0261
| 19> C 	 -83.2948 	 -4.6406 	 -62.115
| 20> H 	 -83.9393 	 -4.37493 	 -62.9438
| 21> H 	 -82.4036 	 -4.4104 	 -62.6654
| 22> H 	 -83.2084 	 -5.6616 	 -62.0177
| 23> S 	 -84.9005 	 -10.0084 	 -59.2312
| 24> C 	 -84.1936 	 -10.7438 	 -57.7899
| 25> C 	 -84.0267 	 -9.83508 	 -56.7945
| 26> C 	 -84.6376 	 -8.57856 	 -57.0863
| 27> C 	 -85.2784 	 -8.59146 	 -58.3903
| 28> H 	 -83.6323 	 -10.0439 	 -55.8228
| 29> C 	 -84.7001 	 -7.44616 	 -56.1061
| 30> H 	 -85.6309 	 -6.89981 	 -56.3254
| 31> H 	 -83.9637 	 -6.77551 	 -56.5784
| 32> C 	 -84.4425 	 -7.58885 	 -54.5343
| 33> H 	 -84.0092 	 -6.62492 	 -54.0894
| 34> H 	 -83.6142 	 -8.27931 	 -54.5399
| 35> C 	 -85.5317 	 -8.18855 	 -53.6545
| 36> H 	 -85.4681 	 -7.79516 	 -52.6769
| 37> H 	 -85.3585 	 -9.3093 	 -53.632
| 38> H 	 -86.592 	 -7.93247 	 -54.0321
| 39> H 	 -87.3024 	 -5.46945 	 -61.7589
| 40> H 	 -83.7188 	 -11.7315 	 -57.8779
| 41> *
| 42>
| 43>                          ****END OF INPUT****

CARTESIAN COORDINATES (ANGSTROEM)
---------------------------------
  S    -87.200900   -7.530970  -60.153700
  C    -86.818900   -5.944140  -60.879100
  C    -85.774300   -5.302310  -60.151500
  C    -85.206400   -6.190860  -59.178100
  C    -85.772300   -7.413990  -59.061500
  H    -84.299800   -6.052530  -58.656400
  C    -85.127200   -3.967820  -60.486000
  H    -84.959500   -3.570780  -59.520400
  H    -85.812600   -3.287500  -60.965400
  C    -83.594800   -3.927110  -60.836300
  H    -83.233300   -2.919150  -60.908600
  H    -83.043500   -4.399630  -60.026100
  C    -83.294800   -4.640600  -62.115000
  H    -83.939300   -4.374930  -62.943800
  H    -82.403600   -4.410400  -62.665400
  H    -83.208400   -5.661600  -62.017700
  S    -84.900500  -10.008400  -59.231200
  C    -84.193600  -10.743800  -57.789900
  C    -84.026700   -9.835080  -56.794500
  C    -84.637600   -8.578560  -57.086300
  C    -85.278400   -8.591460  -58.390300
  H    -83.632300  -10.043900  -55.822800
  C    -84.700100   -7.446160  -56.106100
  H    -85.630900   -6.899810  -56.325400
  H    -83.963700   -6.775510  -56.578400
  C    -84.442500   -7.588850  -54.534300
  H    -84.009200   -6.624920  -54.089400
  H    -83.614200   -8.279310  -54.539900
  C    -85.531700   -8.188550  -53.654500
  H    -85.468100   -7.795160  -52.676900
  H    -85.358500   -9.309300  -53.632000
  H    -86.592000   -7.932470  -54.032100
  H    -87.302400   -5.469450  -61.758900
  H    -83.718800  -11.731500  -57.877900

 Total Charge           Charge          ....    0
 Multiplicity           Mult            ....    1
 Number of Electrons    NEL             ....  134
 Basis Dimension        Dim             ....  322

ORBITAL ENERGIES
----------------

  NO   OCC          E(Eh)            E(eV)
   0   2.0000     -88.967702     -2420.9343
   1   2.0000     -88.962504     -2420.7928
   2   2.0000     -10.328114      -281.0423
   3   2.0000     -10.323507      -280.9169
   4   2.0000     -10.322551      -280.8909
   5   2.0000     -10.318985      -280.7939
   6   2.0000     -10.308253      -280.5018
   7   2.0000     -10.307901      -280.4923
   8   2.0000     -10.300223      -280.2833
   9   2.0000     -10.296568      -280.1839
  10   2.0000     -10.293058      -280.0884
  11   2.0000     -10.290901      -280.0296
  12   2.0000     -10.290173      -280.0098
  13   2.0000     -10.290059      -280.0067
  14   2.0000     -10.287518      -279.9376
  15   2.0000     -10.259459      -279.1741
  16   2.0000      -8.083110      -219.9526
  17   2.0000      -8.075943      -219.7576
  18   2.0000      -6.041449      -164.3962
  19   2.0000      -6.037498      -164.2887
  20   2.0000      -6.034588      -164.2095
  21   2.0000      -6.034016      -164.1939
  22   2.0000      -6.030647      -164.1023
  23   2.0000      -6.026626      -163.9928
  24   2.0000      -1.006502       -27.3883
  25   2.0000      -0.977514       -26.5995
  26   2.0000      -0.912241       -24.8233
  27   2.0000      -0.904052       -24.6005
  28   2.0000      -0.871445       -23.7132
  29   2.0000      -0.854343       -23.2479
  30   2.0000      -0.844785       -22.9878
  31   2.0000      -0.818714       -22.2783
  32   2.0000      -0.787304       -21.4236
  33   2.0000      -0.768996       -20.9254
  34   2.0000      -0.711801       -19.3691
  35   2.0000      -0.701443       -19.0872
  36   2.0000      -0.695432       -18.9237
  37   2.0000      -0.652707       -17.7611
  38   2.0000      -0.640058       -17.4169
  39   2.0000      -0.621838       -16.9211
  40   2.0000      -0.598157       -16.2767
  41   2.0000      -0.565231       -15.3807
  42   2.0000      -0.552512       -15.0346
  43   2.0000      -0.549696       -14.9580
  44   2.0000      -0.541671       -14.7396
  45   2.0000      -0.539305       -14.6752
  46   2.0000      -0.524245       -14.2654
  47   2.0000      -0.516260       -14.0481
  48   2.0000      -0.500746       -13.6260
  49   2.0000      -0.493037       -13.4162
  50   2.0000      -0.489247       -13.3131
  51   2.0000      -0.478615       -13.0238
  52   2.0000      -0.469296       -12.7702
  53   2.0000      -0.466248       -12.6873
  54   2.0000      -0.462517       -12.5857
  55   2.0000      -0.449036       -12.2189
  56   2.0000      -0.446053       -12.1377
  57   2.0000      -0.438563       -11.9339
  58   2.0000      -0.431256       -11.7351
  59   2.0000      -0.421327       -11.4649
  60   2.0000      -0.415970       -11.3191
  61   2.0000      -0.414765       -11.2863
  62   2.0000      -0.409022       -11.1301
  63   2.0000      -0.354287        -9.6406
  64   2.0000      -0.329098        -8.9552
  65   2.0000      -0.320070        -8.7096
  66   2.0000      -0.284653        -7.7458
  67   0.0000       0.022712         0.6180
  68   0.0000       0.072872         1.9830
  69   0.0000       0.111452         3.0328
  70   0.0000       0.117484         3.1969
  71   0.0000       0.132462         3.6045

MULLIKEN ATOMIC CHARGES
-----------------------
   0 S :    0.088181
   1 C :   -0.129562
   2 C :   -0.085426
   3 C :    0.028525
   4 C :   -0.168954
   5 H :   -0.007722
   6 C :    0.086126
   7 H :    0.014860
   8 H :    0.026413
   9 C :   -0.055697
  10 H :    0.030068
  11 H :    0.027654
  12 C :   -0.015710
  13 H :    0.013801
  14 H :    0.005345
  15 H :    0.022700
  16 S :    0.121988
  17 C :   -0.103023
  18 C :   -0.012740
  19 C :   -0.087828
  20 C :   -0.115747
  21 H :    0.010082
  22 C :    0.031048
  23 H :    0.039008
  24 H :    0.037548
  25 C :   -0.076777
  26 H :    0.044551
  27 H :    0.019612
  28 C :   -0.050166
  29 H :    0.032203
  30 H :    0.047297
  31 H :    0.050957
  32 H :    0.062842
  33 H :    0.068544
Sum of atomic charges:    0.0000000

LOEWDIN ATOMIC CHARGES
----------------------
   0 S :    0.359756
   1 C :   -0.192185
   2 C :   -0.057552
   3 C :   -0.060094
   4 C :   -0.173418
   5 H :    0.022938
   6 C :   -0.033490
   7 H :    0.034227
   8 H :    0.029302
   9 C :   -0.028037
  10 H :    0.026749
  11 H :    0.025252
  12 C :   -0.074466
  13 H :    0.026685
  14 H :    0.024191
  15 H :    0.017800
  16 S :    0.437987
  17 C :   -0.182298
  18 C :   -0.073254
  19 C :   -0.048227
  20 C :   -0.236838
  21 H :    0.027867
  22 C :   -0.046085
  23 H :    0.034614
  24 H :    0.038286
  25 C :   -0.047127
  26 H :    0.036537
  27 H :    0.017939
  28 C :   -0.071229
  29 H :    0.021808
  30 H :    0.035065
  31 H :    0.037501
  32 H :    0.036932
  33 H :    0.032862

  Mayer bond orders larger than 0.100000
B(  0-S ,  1-C ) :   1.1280 B(  0-S ,  4-C ) :   1.1141 B(  1-C ,  2-C ) :   1.6099
B(  1-C , 32-H ) :   0.9651 B(  2-C ,  3-C ) :   1.2061 B(  2-C ,  6-C ) :   1.0375
B(  3-C ,  4-C ) :   1.6241 B(  3-C ,  5-H ) :   0.9887 B(  4-C , 20-C ) :   1.0455
B(  6-C ,  7-H ) :   0.9256 B(  6-C ,  8-H ) :   0.9490 B(  6-C ,  9-C ) :   1.0580
B(  9-C , 10-H ) :   0.9550 B(  9-C , 11-H ) :   0.9554 B(  9-C , 12-C ) :   1.0812
B( 12-C , 13-H ) :   0.9703 B( 12-C , 14-H ) :   0.9670 B( 12-C , 15-H ) :   0.9747
B( 16-S , 17-C ) :   1.1701 B( 16-S , 20-C ) :   1.1732 B( 17-C , 18-C ) :   1.5618
B( 17-C , 33-H ) :   0.9649 B( 18-C , 19-C ) :   1.3011 B( 18-C , 21-H ) :   0.9887
B( 19-C , 20-C ) :   1.5076 B( 19-C , 22-C ) :   1.0327 B( 22-C , 23-H ) :   0.9348
B( 22-C , 24-H ) :   0.9177 B( 22-C , 25-C ) :   1.0560 B( 25-C , 26-H ) :   0.9579
B( 25-C , 27-H ) :   0.9566 B( 25-C , 28-C ) :   1.0656 B( 28-C , 29-H ) :   0.9742
B( 28-C , 30-H ) :   0.9777 B( 28-C , 31-H ) :   0.9769

Dispersion correction           -0.014250578
FINAL SINGLE POINT ENERGY     -1339.839428557572

DIPOLE MOMENT
-------------
                                X             Y             Z
Electronic contribution:    -11.17215     -16.64703     -10.23098
Nuclear contribution   :     11.83527      17.12496      10.57512
                        -----------------------------------------
Total Dipole Moment    :      0.66312       0.47793       0.34414
                        -----------------------------------------
Magnitude (a.u.)       :      0.88690
Magnitude (Debye)      :      2.25431

Rotational constants in cm-1:     0.018399     0.008147     0.007127
Rotational constants in MHz :   551.596386   244.249300   213.672335

                             ****ORCA TERMINATED NORMALLY****
TOTAL RUN TIME: 0 days 0 hours 0 minutes 21 seconds 494 msec
