                         Program Version 4.2.1 -  RELEASE  -
|  1> ! wB97X-D3 SP def2-SVP
|  2> %pal
|  3> nprocs 24
|  4> end
|  5>
|  6> * xyz 0 1
|  7> S 	 -99.5084 	 2.21316 	 -115.91
|  8> C 	 -99.5176 	 3.27025 	 -117.266
|  9> C 	 -99.9907 	 4.53171 	 -116.96
| 10> C 	 -100.094 	 4.69033 	 -115.527
| 11> C 	 -99.8074 	 3.54069 	 -114.842
| 12> H 	 -100.472 	 5.50673 	 -115.071
| 13> C 	 -100.347 	 5.64264 	 -117.96
| 14> H 	 -101.079 	 6.27496 	 -117.478
| 15> H 	 -101.014 	 5.24719 	 -118.793
| 16> C 	 -99.1275 	 6.40444 	 -118.506
| 17> H 	 -98.598 	 6.84656 	 -117.661
| 18> H 	 -98.5214 	 5.78993 	 -119.083
| 19> C 	 -99.5593 	 7.67104 	 -119.298
| 20> H 	 -98.7038 	 8.25911 	 -119.385
| 21> H 	 -100.036 	 7.5355 	 -120.315
| 22> H 	 -100.254 	 8.36503 	 -118.848
| 23> S 	 -98.7596 	 4.19 	 -112.31
| 24> C 	 -99.6371 	 3.6826 	 -110.858
| 25> C 	 -100.749 	 2.96197 	 -111.221
| 26> C 	 -100.975 	 2.7918 	 -112.633
| 27> C 	 -99.9461 	 3.36463 	 -113.401
| 28> H 	 -101.387 	 2.54105 	 -110.42
| 29> C 	 -102.192 	 2.01608 	 -113.083
| 30> H 	 -102.3 	 2.18775 	 -114.08
| 31> H 	 -102.964 	 2.55443 	 -112.625
| 32> C 	 -102.267 	 0.492026 	 -112.727
| 33> H 	 -102.247 	 0.395737 	 -111.632
| 34> H 	 -101.271 	 0.161814 	 -113.026
| 35> C 	 -103.262 	 -0.339986 	 -113.466
| 36> H 	 -103.276 	 -1.33012 	 -113.036
| 37> H 	 -103.108 	 -0.47185 	 -114.572
| 38> H 	 -104.228 	 0.0773806 	 -113.342
| 39> H 	 -99.4504 	 2.95341 	 -118.264
| 40> H 	 -99.2848 	 3.7987 	 -109.927
| 41> *
| 42>
| 43>                          ****END OF INPUT****

CARTESIAN COORDINATES (ANGSTROEM)
---------------------------------
  S    -99.508400    2.213160  -115.910000
  C    -99.517600    3.270250  -117.266000
  C    -99.990700    4.531710  -116.960000
  C    -100.094000    4.690330  -115.527000
  C    -99.807400    3.540690  -114.842000
  H    -100.472000    5.506730  -115.071000
  C    -100.347000    5.642640  -117.960000
  H    -101.079000    6.274960  -117.478000
  H    -101.014000    5.247190  -118.793000
  C    -99.127500    6.404440  -118.506000
  H    -98.598000    6.846560  -117.661000
  H    -98.521400    5.789930  -119.083000
  C    -99.559300    7.671040  -119.298000
  H    -98.703800    8.259110  -119.385000
  H    -100.036000    7.535500  -120.315000
  H    -100.254000    8.365030  -118.848000
  S    -98.759600    4.190000  -112.310000
  C    -99.637100    3.682600  -110.858000
  C    -100.749000    2.961970  -111.221000
  C    -100.975000    2.791800  -112.633000
  C    -99.946100    3.364630  -113.401000
  H    -101.387000    2.541050  -110.420000
  C    -102.192000    2.016080  -113.083000
  H    -102.300000    2.187750  -114.080000
  H    -102.964000    2.554430  -112.625000
  C    -102.267000    0.492026  -112.727000
  H    -102.247000    0.395737  -111.632000
  H    -101.271000    0.161814  -113.026000
  C    -103.262000   -0.339986  -113.466000
  H    -103.276000   -1.330120  -113.036000
  H    -103.108000   -0.471850  -114.572000
  H    -104.228000    0.077381  -113.342000
  H    -99.450400    2.953410  -118.264000
  H    -99.284800    3.798700  -109.927000

 Total Charge           Charge          ....    0
 Multiplicity           Mult            ....    1
 Number of Electrons    NEL             ....  134
 Basis Dimension        Dim             ....  322

ORBITAL ENERGIES
----------------

  NO   OCC          E(Eh)            E(eV)
   0   2.0000     -88.967123     -2420.9185
   1   2.0000     -88.961261     -2420.7590
   2   2.0000     -10.330741      -281.1137
   3   2.0000     -10.324372      -280.9405
   4   2.0000     -10.311066      -280.5784
   5   2.0000     -10.306630      -280.4577
   6   2.0000     -10.305297      -280.4214
   7   2.0000     -10.300671      -280.2955
   8   2.0000     -10.296724      -280.1881
   9   2.0000     -10.293731      -280.1067
  10   2.0000     -10.287484      -279.9367
  11   2.0000     -10.286605      -279.9128
  12   2.0000     -10.285908      -279.8938
  13   2.0000     -10.277970      -279.6778
  14   2.0000     -10.276509      -279.6380
  15   2.0000     -10.275642      -279.6144
  16   2.0000      -8.082549      -219.9373
  17   2.0000      -8.074868      -219.7283
  18   2.0000      -6.040957      -164.3828
  19   2.0000      -6.037039      -164.2762
  20   2.0000      -6.033530      -164.1807
  21   2.0000      -6.033309      -164.1747
  22   2.0000      -6.029482      -164.0706
  23   2.0000      -6.025586      -163.9645
  24   2.0000      -1.005606       -27.3639
  25   2.0000      -0.978203       -26.6183
  26   2.0000      -0.908509       -24.7218
  27   2.0000      -0.908216       -24.7138
  28   2.0000      -0.869435       -23.6585
  29   2.0000      -0.852218       -23.1900
  30   2.0000      -0.850155       -23.1339
  31   2.0000      -0.812958       -22.1217
  32   2.0000      -0.785140       -21.3647
  33   2.0000      -0.773306       -21.0427
  34   2.0000      -0.708713       -19.2850
  35   2.0000      -0.706528       -19.2256
  36   2.0000      -0.701476       -19.0881
  37   2.0000      -0.659822       -17.9547
  38   2.0000      -0.650795       -17.7090
  39   2.0000      -0.615587       -16.7510
  40   2.0000      -0.598217       -16.2783
  41   2.0000      -0.570166       -15.5150
  42   2.0000      -0.563370       -15.3301
  43   2.0000      -0.560648       -15.2560
  44   2.0000      -0.530674       -14.4404
  45   2.0000      -0.527670       -14.3586
  46   2.0000      -0.519315       -14.1313
  47   2.0000      -0.513422       -13.9709
  48   2.0000      -0.504041       -13.7157
  49   2.0000      -0.500301       -13.6139
  50   2.0000      -0.494234       -13.4488
  51   2.0000      -0.483636       -13.1604
  52   2.0000      -0.467653       -12.7255
  53   2.0000      -0.465030       -12.6541
  54   2.0000      -0.455594       -12.3973
  55   2.0000      -0.453530       -12.3412
  56   2.0000      -0.446178       -12.1411
  57   2.0000      -0.439231       -11.9521
  58   2.0000      -0.430389       -11.7115
  59   2.0000      -0.424221       -11.5436
  60   2.0000      -0.421531       -11.4704
  61   2.0000      -0.418463       -11.3870
  62   2.0000      -0.409485       -11.1427
  63   2.0000      -0.337933        -9.1956
  64   2.0000      -0.329779        -8.9737
  65   2.0000      -0.324244        -8.8231
  66   2.0000      -0.301785        -8.2120
  67   0.0000       0.040936         1.1139
  68   0.0000       0.059491         1.6188
  69   0.0000       0.104129         2.8335
  70   0.0000       0.120575         3.2810
  71   0.0000       0.135034         3.6745

MULLIKEN ATOMIC CHARGES
-----------------------
   0 S :    0.125879
   1 C :   -0.087566
   2 C :   -0.102453
   3 C :    0.088169
   4 C :   -0.171590
   5 H :   -0.033775
   6 C :    0.040018
   7 H :    0.011137
   8 H :    0.033915
   9 C :   -0.013864
  10 H :    0.034647
  11 H :    0.024888
  12 C :   -0.060023
  13 H :    0.018346
  14 H :    0.035653
  15 H :    0.020146
  16 S :    0.085947
  17 C :   -0.042894
  18 C :   -0.046826
  19 C :   -0.048274
  20 C :   -0.179614
  21 H :    0.029706
  22 C :    0.158323
  23 H :   -0.015868
  24 H :    0.009429
  25 C :   -0.077196
  26 H :    0.028094
  27 H :    0.021667
  28 C :   -0.021735
  29 H :    0.032909
  30 H :    0.044719
  31 H :    0.019001
  32 H :    0.025612
  33 H :    0.013474
Sum of atomic charges:   -0.0000000

LOEWDIN ATOMIC CHARGES
----------------------
   0 S :    0.430780
   1 C :   -0.199522
   2 C :   -0.057716
   3 C :   -0.041615
   4 C :   -0.206520
   5 H :    0.012929
   6 C :   -0.038080
   7 H :    0.026493
   8 H :    0.035933
   9 C :   -0.022573
  10 H :    0.032418
  11 H :    0.017958
  12 C :   -0.072033
  13 H :    0.018173
  14 H :    0.028908
  15 H :    0.023152
  16 S :    0.370101
  17 C :   -0.156121
  18 C :   -0.073366
  19 C :   -0.048285
  20 C :   -0.185581
  21 H :    0.034536
  22 C :   -0.022111
  23 H :    0.013507
  24 H :    0.026048
  25 C :   -0.039226
  26 H :    0.024865
  27 H :    0.025184
  28 C :   -0.064184
  29 H :    0.030118
  30 H :    0.035613
  31 H :    0.018715
  32 H :    0.016530
  33 H :    0.004969

  Mayer bond orders larger than 0.100000
B(  0-S ,  1-C ) :   1.1517 B(  0-S ,  4-C ) :   1.1548 B(  1-C ,  2-C ) :   1.6136
B(  1-C , 32-H ) :   0.9711 B(  2-C ,  3-C ) :   1.2438 B(  2-C ,  6-C ) :   1.0199
B(  3-C ,  4-C ) :   1.5787 B(  3-C ,  5-H ) :   1.0129 B(  4-C , 20-C ) :   1.0142
B(  6-C ,  7-H ) :   0.9429 B(  6-C ,  8-H ) :   0.9417 B(  6-C ,  9-C ) :   1.0642
B(  9-C , 10-H ) :   0.9565 B(  9-C , 11-H ) :   0.9588 B(  9-C , 12-C ) :   1.0743
B( 12-C , 13-H ) :   0.9762 B( 12-C , 14-H ) :   0.9750 B( 12-C , 15-H ) :   0.9750
B( 16-S , 17-C ) :   1.1415 B( 16-S , 20-C ) :   1.1273 B( 17-C , 18-C ) :   1.6255
B( 17-C , 33-H ) :   0.9833 B( 18-C , 19-C ) :   1.2210 B( 18-C , 21-H ) :   0.9819
B( 19-C , 20-C ) :   1.6013 B( 19-C , 22-C ) :   1.0484 B( 22-C , 23-H ) :   0.9217
B( 22-C , 24-H ) :   0.9165 B( 22-C , 25-C ) :   1.0494 B( 25-C , 26-H ) :   0.9538
B( 25-C , 27-H ) :   0.9547 B( 25-C , 28-C ) :   1.0932 B( 28-C , 29-H ) :   0.9697
B( 28-C , 30-H ) :   0.9719 B( 28-C , 31-H ) :   0.9734

Dispersion correction           -0.013828870
FINAL SINGLE POINT ENERGY     -1339.860112787467

DIPOLE MOMENT
-------------
                                X             Y             Z
Electronic contribution:     13.03551      -3.04554      12.13125
Nuclear contribution   :    -13.58778       3.12945     -12.28324
                        -----------------------------------------
Total Dipole Moment    :     -0.55226       0.08391      -0.15199
                        -----------------------------------------
Magnitude (a.u.)       :      0.57891
Magnitude (Debye)      :      1.47147

Rotational constants in cm-1:     0.020459     0.007245     0.005990
Rotational constants in MHz :   613.336571   217.196685   179.576453

                             ****ORCA TERMINATED NORMALLY****
TOTAL RUN TIME: 0 days 0 hours 0 minutes 20 seconds 610 msec
