                         Program Version 4.2.1 -  RELEASE  -
|  1> ! wB97X-D3 SP def2-SVP
|  2> %pal
|  3> nprocs 24
|  4> end
|  5>
|  6> * xyz 0 1
|  7> S 	 -106.583 	 55.6781 	 -104.447
|  8> C 	 -108.385 	 55.6823 	 -104.453
|  9> C 	 -108.873 	 56.7668 	 -103.759
| 10> C 	 -107.791 	 57.6255 	 -103.225
| 11> C 	 -106.496 	 57.1867 	 -103.515
| 12> H 	 -107.844 	 58.4866 	 -102.68
| 13> C 	 -110.317 	 57.1103 	 -103.547
| 14> H 	 -110.434 	 57.5089 	 -102.612
| 15> H 	 -110.946 	 56.1701 	 -103.621
| 16> C 	 -111.027 	 58.1186 	 -104.509
| 17> H 	 -111.822 	 58.5463 	 -103.787
| 18> H 	 -110.382 	 58.9941 	 -104.697
| 19> C 	 -111.516 	 57.5426 	 -105.842
| 20> H 	 -110.706 	 56.993 	 -106.347
| 21> H 	 -112.299 	 56.8163 	 -105.44
| 22> H 	 -111.789 	 58.3426 	 -106.52
| 23> S 	 -104.263 	 57.0309 	 -101.96
| 24> C 	 -103.295 	 58.5285 	 -101.813
| 25> C 	 -103.778 	 59.5526 	 -102.537
| 26> C 	 -104.952 	 59.2514 	 -103.294
| 27> C 	 -105.309 	 57.9233 	 -103.078
| 28> H 	 -103.339 	 60.5072 	 -102.636
| 29> C 	 -105.505 	 60.2546 	 -104.245
| 30> H 	 -106.448 	 59.8416 	 -104.597
| 31> H 	 -104.777 	 60.3105 	 -105.088
| 32> C 	 -105.777 	 61.654 	 -103.713
| 33> H 	 -106.204 	 62.3498 	 -104.474
| 34> H 	 -104.822 	 62.0757 	 -103.467
| 35> C 	 -106.706 	 61.6341 	 -102.503
| 36> H 	 -107.714 	 61.4041 	 -102.78
| 37> H 	 -106.678 	 62.5973 	 -102.005
| 38> H 	 -106.413 	 60.9192 	 -101.696
| 39> H 	 -109.184 	 55.2163 	 -105.028
| 40> H 	 -102.455 	 58.6055 	 -101.152
| 41> *
| 42>
| 43>                          ****END OF INPUT****

CARTESIAN COORDINATES (ANGSTROEM)
---------------------------------
  S    -106.583000   55.678100  -104.447000
  C    -108.385000   55.682300  -104.453000
  C    -108.873000   56.766800  -103.759000
  C    -107.791000   57.625500  -103.225000
  C    -106.496000   57.186700  -103.515000
  H    -107.844000   58.486600  -102.680000
  C    -110.317000   57.110300  -103.547000
  H    -110.434000   57.508900  -102.612000
  H    -110.946000   56.170100  -103.621000
  C    -111.027000   58.118600  -104.509000
  H    -111.822000   58.546300  -103.787000
  H    -110.382000   58.994100  -104.697000
  C    -111.516000   57.542600  -105.842000
  H    -110.706000   56.993000  -106.347000
  H    -112.299000   56.816300  -105.440000
  H    -111.789000   58.342600  -106.520000
  S    -104.263000   57.030900  -101.960000
  C    -103.295000   58.528500  -101.813000
  C    -103.778000   59.552600  -102.537000
  C    -104.952000   59.251400  -103.294000
  C    -105.309000   57.923300  -103.078000
  H    -103.339000   60.507200  -102.636000
  C    -105.505000   60.254600  -104.245000
  H    -106.448000   59.841600  -104.597000
  H    -104.777000   60.310500  -105.088000
  C    -105.777000   61.654000  -103.713000
  H    -106.204000   62.349800  -104.474000
  H    -104.822000   62.075700  -103.467000
  C    -106.706000   61.634100  -102.503000
  H    -107.714000   61.404100  -102.780000
  H    -106.678000   62.597300  -102.005000
  H    -106.413000   60.919200  -101.696000
  H    -109.184000   55.216300  -105.028000
  H    -102.455000   58.605500  -101.152000

 Total Charge           Charge          ....    0
 Multiplicity           Mult            ....    1
 Number of Electrons    NEL             ....  134
 Basis Dimension        Dim             ....  322

ORBITAL ENERGIES
----------------

  NO   OCC          E(Eh)            E(eV)
   0   2.0000     -88.968638     -2420.9597
   1   2.0000     -88.966925     -2420.9131
   2   2.0000     -10.331654      -281.1386
   3   2.0000     -10.330871      -281.1173
   4   2.0000     -10.317562      -280.7551
   5   2.0000     -10.316083      -280.7149
   6   2.0000     -10.304119      -280.3893
   7   2.0000     -10.303261      -280.3660
   8   2.0000     -10.295937      -280.1667
   9   2.0000     -10.292936      -280.0850
  10   2.0000     -10.291026      -280.0331
  11   2.0000     -10.291015      -280.0327
  12   2.0000     -10.290129      -280.0086
  13   2.0000     -10.288755      -279.9713
  14   2.0000     -10.288428      -279.9623
  15   2.0000     -10.277990      -279.6783
  16   2.0000      -8.081603      -219.9116
  17   2.0000      -8.081081      -219.8974
  18   2.0000      -6.040546      -164.3716
  19   2.0000      -6.039661      -164.3475
  20   2.0000      -6.036328      -164.2568
  21   2.0000      -6.035863      -164.2442
  22   2.0000      -6.031997      -164.1390
  23   2.0000      -6.031597      -164.1281
  24   2.0000      -1.001249       -27.2454
  25   2.0000      -0.975656       -26.5489
  26   2.0000      -0.916710       -24.9450
  27   2.0000      -0.909880       -24.7591
  28   2.0000      -0.870108       -23.6768
  29   2.0000      -0.851333       -23.1659
  30   2.0000      -0.842614       -22.9287
  31   2.0000      -0.815013       -22.1776
  32   2.0000      -0.785093       -21.3635
  33   2.0000      -0.778334       -21.1796
  34   2.0000      -0.712016       -19.3749
  35   2.0000      -0.697570       -18.9819
  36   2.0000      -0.691473       -18.8159
  37   2.0000      -0.665117       -18.0988
  38   2.0000      -0.636828       -17.3290
  39   2.0000      -0.612499       -16.6670
  40   2.0000      -0.599508       -16.3134
  41   2.0000      -0.571676       -15.5561
  42   2.0000      -0.560086       -15.2407
  43   2.0000      -0.557135       -15.1604
  44   2.0000      -0.548772       -14.9329
  45   2.0000      -0.533092       -14.5062
  46   2.0000      -0.519515       -14.1367
  47   2.0000      -0.515297       -14.0219
  48   2.0000      -0.500223       -13.6118
  49   2.0000      -0.493653       -13.4330
  50   2.0000      -0.490109       -13.3366
  51   2.0000      -0.481029       -13.0895
  52   2.0000      -0.468418       -12.7463
  53   2.0000      -0.465698       -12.6723
  54   2.0000      -0.455289       -12.3890
  55   2.0000      -0.450129       -12.2486
  56   2.0000      -0.444023       -12.0825
  57   2.0000      -0.437784       -11.9127
  58   2.0000      -0.435587       -11.8529
  59   2.0000      -0.428133       -11.6501
  60   2.0000      -0.421827       -11.4785
  61   2.0000      -0.416314       -11.3285
  62   2.0000      -0.408243       -11.1088
  63   2.0000      -0.345657        -9.4058
  64   2.0000      -0.331203        -9.0125
  65   2.0000      -0.325293        -8.8517
  66   2.0000      -0.297411        -8.0930
  67   0.0000       0.034190         0.9304
  68   0.0000       0.063329         1.7233
  69   0.0000       0.103397         2.8136
  70   0.0000       0.118243         3.2176
  71   0.0000       0.122580         3.3356

MULLIKEN ATOMIC CHARGES
-----------------------
   0 S :    0.107554
   1 C :   -0.094283
   2 C :   -0.102218
   3 C :    0.074487
   4 C :   -0.156052
   5 H :   -0.037701
   6 C :    0.076612
   7 H :    0.005289
   8 H :    0.023502
   9 C :   -0.114636
  10 H :    0.038385
  11 H :    0.021736
  12 C :   -0.050966
  13 H :    0.039077
  14 H :    0.048300
  15 H :    0.048022
  16 S :    0.102215
  17 C :   -0.067022
  18 C :   -0.007321
  19 C :   -0.054477
  20 C :   -0.182189
  21 H :    0.000524
  22 C :    0.088049
  23 H :    0.017992
  24 H :    0.051429
  25 C :   -0.075661
  26 H :    0.041828
  27 H :    0.017419
  28 C :   -0.063192
  29 H :    0.030479
  30 H :    0.031213
  31 H :    0.048829
  32 H :    0.045408
  33 H :    0.047371
Sum of atomic charges:    0.0000000

LOEWDIN ATOMIC CHARGES
----------------------
   0 S :    0.374301
   1 C :   -0.198311
   2 C :   -0.057905
   3 C :   -0.050865
   4 C :   -0.188933
   5 H :    0.010938
   6 C :   -0.032895
   7 H :    0.020221
   8 H :    0.035234
   9 C :   -0.048556
  10 H :    0.031887
  11 H :    0.017734
  12 C :   -0.072251
  13 H :    0.027954
  14 H :    0.037779
  15 H :    0.030208
  16 S :    0.379482
  17 C :   -0.159189
  18 C :   -0.064212
  19 C :   -0.052828
  20 C :   -0.186232
  21 H :    0.025512
  22 C :   -0.032707
  23 H :    0.028828
  24 H :    0.042542
  25 C :   -0.041366
  26 H :    0.034268
  27 H :    0.015239
  28 C :   -0.067981
  29 H :    0.020436
  30 H :    0.027326
  31 H :    0.031891
  32 H :    0.037905
  33 H :    0.024546

  Mayer bond orders larger than 0.100000
B(  0-S ,  1-C ) :   1.0997 B(  0-S ,  4-C ) :   1.1214 B(  1-C ,  2-C ) :   1.6685
B(  1-C , 32-H ) :   0.9547 B(  2-C ,  3-C ) :   1.1787 B(  2-C ,  6-C ) :   1.0437
B(  3-C ,  4-C ) :   1.6089 B(  3-C ,  5-H ) :   1.0063 B(  4-C , 20-C ) :   1.0259
B(  6-C ,  7-H ) :   0.9329 B(  6-C ,  8-H ) :   0.9405 B(  6-C ,  9-C ) :   1.0576
B(  9-C , 10-H ) :   0.9612 B(  9-C , 11-H ) :   0.9555 B(  9-C , 12-C ) :   1.0603
B( 12-C , 13-H ) :   0.9741 B( 12-C , 14-H ) :   0.9755 B( 12-C , 15-H ) :   0.9727
B( 16-S , 17-C ) :   1.1231 B( 16-S , 20-C ) :   1.1361 B( 17-C , 18-C ) :   1.6480
B( 17-C , 33-H ) :   0.9687 B( 18-C , 19-C ) :   1.2047 B( 18-C , 21-H ) :   0.9932
B( 19-C , 20-C ) :   1.6259 B( 19-C , 22-C ) :   1.0414 B( 22-C , 23-H ) :   0.9265
B( 22-C , 24-H ) :   0.9338 B( 22-C , 25-C ) :   1.0703 B( 25-C , 26-H ) :   0.9534
B( 25-C , 27-H ) :   0.9533 B( 25-C , 28-C ) :   1.0801 B( 28-C , 29-H ) :   0.9745
B( 28-C , 30-H ) :   0.9714 B( 28-C , 31-H ) :   0.9697

Dispersion correction           -0.015001575
FINAL SINGLE POINT ENERGY     -1339.861642398143

DIPOLE MOMENT
-------------
                                X             Y             Z
Electronic contribution:     21.06366     -19.68533       5.33502
Nuclear contribution   :    -21.38348      20.54726      -5.35893
                        -----------------------------------------
Total Dipole Moment    :     -0.31982       0.86193      -0.02391
                        -----------------------------------------
Magnitude (a.u.)       :      0.91966
Magnitude (Debye)      :      2.33760

Rotational constants in cm-1:     0.019130     0.008960     0.006745
Rotational constants in MHz :   573.493949   268.613058   202.209292

                             ****ORCA TERMINATED NORMALLY****
TOTAL RUN TIME: 0 days 0 hours 0 minutes 22 seconds 122 msec
