                         Program Version 4.2.1 -  RELEASE  -
|  1> ! wB97X-D3 SP def2-SVP
|  2> %pal
|  3> nprocs 24
|  4> end
|  5>
|  6> * xyz 0 1
|  7> S 	 -56.1201 	 16.5629 	 -100.764
|  8> C 	 -55.0052 	 16.4177 	 -99.4073
|  9> C 	 -54.9045 	 15.0792 	 -98.9231
| 10> C 	 -55.8245 	 14.253 	 -99.6153
| 11> C 	 -56.52 	 14.918 	 -100.621
| 12> H 	 -56.0253 	 13.2344 	 -99.4362
| 13> C 	 -54.1133 	 14.693 	 -97.6988
| 14> H 	 -54.9015 	 14.3636 	 -96.9696
| 15> H 	 -53.56 	 15.5133 	 -97.2835
| 16> C 	 -53.1138 	 13.5548 	 -97.8573
| 17> H 	 -53.5758 	 12.7646 	 -98.5043
| 18> H 	 -52.2852 	 14.0143 	 -98.4714
| 19> C 	 -52.6547 	 13.1308 	 -96.4986
| 20> H 	 -52.0129 	 13.8527 	 -96.0347
| 21> H 	 -53.324 	 12.7949 	 -95.7527
| 22> H 	 -52.0897 	 12.2818 	 -96.7412
| 23> S 	 -56.8806 	 13.8717 	 -103.182
| 24> C 	 -58.4848 	 13.2322 	 -103.57
| 25> C 	 -59.2014 	 12.9413 	 -102.421
| 26> C 	 -58.5816 	 13.4674 	 -101.229
| 27> C 	 -57.4076 	 14.1668 	 -101.507
| 28> H 	 -60.0358 	 12.3757 	 -102.599
| 29> C 	 -59.1612 	 13.4706 	 -99.8214
| 30> H 	 -58.3973 	 13.273 	 -99.057
| 31> H 	 -59.9548 	 12.7049 	 -99.6418
| 32> C 	 -59.7629 	 14.9251 	 -99.5274
| 33> H 	 -59.0134 	 15.7491 	 -99.6023
| 34> H 	 -60.1665 	 14.8789 	 -98.5179
| 35> C 	 -60.8589 	 15.3499 	 -100.471
| 36> H 	 -60.4004 	 15.5392 	 -101.499
| 37> H 	 -61.343 	 16.3041 	 -100.051
| 38> H 	 -61.6045 	 14.5718 	 -100.65
| 39> H 	 -54.2895 	 17.234 	 -99.1589
| 40> H 	 -58.8088 	 12.7375 	 -104.5
| 41> *
| 42>
| 43>                          ****END OF INPUT****

CARTESIAN COORDINATES (ANGSTROEM)
---------------------------------
  S    -56.120100   16.562900  -100.764000
  C    -55.005200   16.417700  -99.407300
  C    -54.904500   15.079200  -98.923100
  C    -55.824500   14.253000  -99.615300
  C    -56.520000   14.918000  -100.621000
  H    -56.025300   13.234400  -99.436200
  C    -54.113300   14.693000  -97.698800
  H    -54.901500   14.363600  -96.969600
  H    -53.560000   15.513300  -97.283500
  C    -53.113800   13.554800  -97.857300
  H    -53.575800   12.764600  -98.504300
  H    -52.285200   14.014300  -98.471400
  C    -52.654700   13.130800  -96.498600
  H    -52.012900   13.852700  -96.034700
  H    -53.324000   12.794900  -95.752700
  H    -52.089700   12.281800  -96.741200
  S    -56.880600   13.871700  -103.182000
  C    -58.484800   13.232200  -103.570000
  C    -59.201400   12.941300  -102.421000
  C    -58.581600   13.467400  -101.229000
  C    -57.407600   14.166800  -101.507000
  H    -60.035800   12.375700  -102.599000
  C    -59.161200   13.470600  -99.821400
  H    -58.397300   13.273000  -99.057000
  H    -59.954800   12.704900  -99.641800
  C    -59.762900   14.925100  -99.527400
  H    -59.013400   15.749100  -99.602300
  H    -60.166500   14.878900  -98.517900
  C    -60.858900   15.349900  -100.471000
  H    -60.400400   15.539200  -101.499000
  H    -61.343000   16.304100  -100.051000
  H    -61.604500   14.571800  -100.650000
  H    -54.289500   17.234000  -99.158900
  H    -58.808800   12.737500  -104.500000

 Total Charge           Charge          ....    0
 Multiplicity           Mult            ....    1
 Number of Electrons    NEL             ....  134
 Basis Dimension        Dim             ....  322

ORBITAL ENERGIES
----------------

  NO   OCC          E(Eh)            E(eV)
   0   2.0000     -88.973042     -2421.0796
   1   2.0000     -88.963611     -2420.8229
   2   2.0000     -10.325773      -280.9786
   3   2.0000     -10.324911      -280.9551
   4   2.0000     -10.319335      -280.8034
   5   2.0000     -10.316651      -280.7303
   6   2.0000     -10.307102      -280.4705
   7   2.0000     -10.305135      -280.4170
   8   2.0000     -10.297528      -280.2100
   9   2.0000     -10.291891      -280.0566
  10   2.0000     -10.290565      -280.0205
  11   2.0000     -10.290298      -280.0133
  12   2.0000     -10.290289      -280.0130
  13   2.0000     -10.283915      -279.8396
  14   2.0000     -10.277725      -279.6711
  15   2.0000     -10.269208      -279.4394
  16   2.0000      -8.087802      -220.0803
  17   2.0000      -8.077508      -219.8002
  18   2.0000      -6.046079      -164.5222
  19   2.0000      -6.042208      -164.4168
  20   2.0000      -6.038909      -164.3271
  21   2.0000      -6.036036      -164.2489
  22   2.0000      -6.032356      -164.1487
  23   2.0000      -6.028075      -164.0323
  24   2.0000      -1.005815       -27.3696
  25   2.0000      -0.979450       -26.6522
  26   2.0000      -0.919937       -25.0328
  27   2.0000      -0.898959       -24.4619
  28   2.0000      -0.868811       -23.6415
  29   2.0000      -0.856782       -23.3142
  30   2.0000      -0.839608       -22.8469
  31   2.0000      -0.813286       -22.1306
  32   2.0000      -0.784453       -21.3461
  33   2.0000      -0.765511       -20.8306
  34   2.0000      -0.706035       -19.2122
  35   2.0000      -0.693778       -18.8787
  36   2.0000      -0.677229       -18.4283
  37   2.0000      -0.657201       -17.8833
  38   2.0000      -0.643565       -17.5123
  39   2.0000      -0.624096       -16.9825
  40   2.0000      -0.588440       -16.0123
  41   2.0000      -0.570811       -15.5326
  42   2.0000      -0.568507       -15.4699
  43   2.0000      -0.543961       -14.8019
  44   2.0000      -0.539504       -14.6806
  45   2.0000      -0.527043       -14.3416
  46   2.0000      -0.518432       -14.1073
  47   2.0000      -0.512110       -13.9352
  48   2.0000      -0.502306       -13.6684
  49   2.0000      -0.493461       -13.4277
  50   2.0000      -0.482064       -13.1176
  51   2.0000      -0.478283       -13.0147
  52   2.0000      -0.473767       -12.8919
  53   2.0000      -0.468231       -12.7412
  54   2.0000      -0.459472       -12.5029
  55   2.0000      -0.451594       -12.2885
  56   2.0000      -0.441085       -12.0025
  57   2.0000      -0.432160       -11.7597
  58   2.0000      -0.427746       -11.6395
  59   2.0000      -0.425459       -11.5773
  60   2.0000      -0.418472       -11.3872
  61   2.0000      -0.412888       -11.2353
  62   2.0000      -0.409986       -11.1563
  63   2.0000      -0.338583        -9.2133
  64   2.0000      -0.326705        -8.8901
  65   2.0000      -0.324078        -8.8186
  66   2.0000      -0.296769        -8.0755
  67   0.0000       0.031185         0.8486
  68   0.0000       0.059807         1.6274
  69   0.0000       0.106057         2.8859
  70   0.0000       0.115443         3.1414
  71   0.0000       0.125472         3.4143

MULLIKEN ATOMIC CHARGES
-----------------------
   0 S :    0.139938
   1 C :   -0.154243
   2 C :   -0.053130
   3 C :    0.047637
   4 C :   -0.178732
   5 H :    0.001950
   6 C :    0.048486
   7 H :    0.041566
   8 H :    0.011948
   9 C :   -0.124096
  10 H :    0.039510
  11 H :    0.039618
  12 C :    0.014349
  13 H :    0.026334
  14 H :    0.024763
  15 H :    0.017977
  16 S :    0.106026
  17 C :   -0.098435
  18 C :   -0.029943
  19 C :    0.003448
  20 C :   -0.185156
  21 H :   -0.012888
  22 C :    0.061581
  23 H :    0.027528
  24 H :    0.031383
  25 C :   -0.086351
  26 H :    0.046681
  27 H :    0.027278
  28 C :   -0.089263
  29 H :    0.052241
  30 H :    0.049583
  31 H :    0.024100
  32 H :    0.066012
  33 H :    0.062300
Sum of atomic charges:    0.0000000

LOEWDIN ATOMIC CHARGES
----------------------
   0 S :    0.437886
   1 C :   -0.210781
   2 C :   -0.056996
   3 C :   -0.053540
   4 C :   -0.219102
   5 H :    0.023496
   6 C :   -0.036462
   7 H :    0.037907
   8 H :    0.025075
   9 C :   -0.043314
  10 H :    0.026065
  11 H :    0.034143
  12 C :   -0.060705
  13 H :    0.027059
  14 H :    0.022861
  15 H :    0.026306
  16 S :    0.382184
  17 C :   -0.185180
  18 C :   -0.063099
  19 C :   -0.052569
  20 C :   -0.188356
  21 H :    0.018181
  22 C :   -0.034684
  23 H :    0.029524
  24 H :    0.032445
  25 C :   -0.041033
  26 H :    0.027919
  27 H :    0.019233
  28 C :   -0.078713
  29 H :    0.033348
  30 H :    0.036249
  31 H :    0.016719
  32 H :    0.032960
  33 H :    0.034973

  Mayer bond orders larger than 0.100000
B(  0-S ,  1-C ) :   1.1509 B(  0-S ,  4-C ) :   1.1739 B(  1-C ,  2-C ) :   1.5650
B(  1-C , 32-H ) :   0.9619 B(  2-C ,  3-C ) :   1.2635 B(  2-C ,  6-C ) :   1.0257
B(  3-C ,  4-C ) :   1.5418 B(  3-C ,  5-H ) :   0.9952 B(  4-C , 20-C ) :   1.0368
B(  6-C ,  7-H ) :   0.9445 B(  6-C ,  8-H ) :   0.9424 B(  6-C ,  9-C ) :   1.0558
B(  9-C , 10-H ) :   0.9628 B(  9-C , 11-H ) :   0.9493 B(  9-C , 12-C ) :   1.0780
B( 12-C , 13-H ) :   0.9686 B( 12-C , 14-H ) :   0.9748 B( 12-C , 15-H ) :   0.9678
B( 16-S , 17-C ) :   1.1375 B( 16-S , 20-C ) :   1.1423 B( 17-C , 18-C ) :   1.6422
B( 17-C , 33-H ) :   0.9594 B( 18-C , 19-C ) :   1.1996 B( 18-C , 21-H ) :   1.0075
B( 19-C , 20-C ) :   1.5892 B( 19-C , 22-C ) :   1.0559 B( 22-C , 23-H ) :   0.9304
B( 22-C , 24-H ) :   0.9409 B( 22-C , 25-C ) :   1.0616 B( 25-C , 26-H ) :   0.9566
B( 25-C , 27-H ) :   0.9580 B( 25-C , 28-C ) :   1.0727 B( 28-C , 29-H ) :   0.9694
B( 28-C , 30-H ) :   0.9714 B( 28-C , 31-H ) :   0.9752

Dispersion correction           -0.015161085
FINAL SINGLE POINT ENERGY     -1339.864562285135

DIPOLE MOMENT
-------------
                                X             Y             Z
Electronic contribution:      0.56044       5.92574     -20.88466
Nuclear contribution   :     -0.45788      -6.31744      21.46220
                        -----------------------------------------
Total Dipole Moment    :      0.10256      -0.39170       0.57755
                        -----------------------------------------
Magnitude (a.u.)       :      0.70534
Magnitude (Debye)      :      1.79284

Rotational constants in cm-1:     0.020839     0.007794     0.007432
Rotational constants in MHz :   624.747536   233.666042   222.805079

                             ****ORCA TERMINATED NORMALLY****
TOTAL RUN TIME: 0 days 0 hours 0 minutes 20 seconds 919 msec
