                         Program Version 4.2.1 -  RELEASE  -
|  1> ! wB97X-D3 SP def2-SVP
|  2> %pal
|  3> nprocs 24
|  4> end
|  5>
|  6> * xyz 0 1
|  7> S 	 -133.731 	 5.69361 	 4.51353
|  8> C 	 -134.23 	 4.3029 	 3.61994
|  9> C 	 -135.042 	 3.4561 	 4.30843
| 10> C 	 -134.943 	 3.76679 	 5.72964
| 11> C 	 -134.195 	 4.87774 	 5.96766
| 12> H 	 -135.37 	 3.11955 	 6.44748
| 13> C 	 -135.841 	 2.33275 	 3.74316
| 14> H 	 -135.909 	 2.42905 	 2.6538
| 15> H 	 -136.886 	 2.41933 	 4.13182
| 16> C 	 -135.357 	 0.979554 	 4.14374
| 17> H 	 -134.235 	 1.00318 	 4.31864
| 18> H 	 -135.834 	 0.656733 	 5.07085
| 19> C 	 -135.441 	 -0.115919 	 3.03262
| 20> H 	 -136.506 	 -0.373087 	 2.97186
| 21> H 	 -135.033 	 0.140423 	 2.03249
| 22> H 	 -134.998 	 -1.05044 	 3.35717
| 23> S 	 -132.412 	 6.401 	 7.3523
| 24> C 	 -132.884 	 7.0472 	 9.01917
| 25> C 	 -134.04 	 6.46911 	 9.45235
| 26> C 	 -134.626 	 5.67352 	 8.41042
| 27> C 	 -133.915 	 5.59614 	 7.21252
| 28> H 	 -134.438 	 6.60298 	 10.498
| 29> C 	 -136.049 	 5.16741 	 8.61356
| 30> H 	 -136.462 	 4.63981 	 7.68944
| 31> H 	 -136.601 	 6.10546 	 8.6446
| 32> C 	 -136.352 	 4.32197 	 9.83908
| 33> H 	 -137.396 	 3.97213 	 9.79831
| 34> H 	 -136.19 	 4.87048 	 10.7214
| 35> C 	 -135.542 	 3.00187 	 9.91449
| 36> H 	 -135.758 	 2.66723 	 10.8931
| 37> H 	 -134.503 	 3.27131 	 10.0488
| 38> H 	 -135.756 	 2.27407 	 9.06871
| 39> H 	 -134.158 	 4.07891 	 2.51694
| 40> H 	 -132.242 	 7.6355 	 9.60137
| 41> *
| 42>
| 43>                          ****END OF INPUT****

CARTESIAN COORDINATES (ANGSTROEM)
---------------------------------
  S    -133.731000    5.693610    4.513530
  C    -134.230000    4.302900    3.619940
  C    -135.042000    3.456100    4.308430
  C    -134.943000    3.766790    5.729640
  C    -134.195000    4.877740    5.967660
  H    -135.370000    3.119550    6.447480
  C    -135.841000    2.332750    3.743160
  H    -135.909000    2.429050    2.653800
  H    -136.886000    2.419330    4.131820
  C    -135.357000    0.979554    4.143740
  H    -134.235000    1.003180    4.318640
  H    -135.834000    0.656733    5.070850
  C    -135.441000   -0.115919    3.032620
  H    -136.506000   -0.373087    2.971860
  H    -135.033000    0.140423    2.032490
  H    -134.998000   -1.050440    3.357170
  S    -132.412000    6.401000    7.352300
  C    -132.884000    7.047200    9.019170
  C    -134.040000    6.469110    9.452350
  C    -134.626000    5.673520    8.410420
  C    -133.915000    5.596140    7.212520
  H    -134.438000    6.602980   10.498000
  C    -136.049000    5.167410    8.613560
  H    -136.462000    4.639810    7.689440
  H    -136.601000    6.105460    8.644600
  C    -136.352000    4.321970    9.839080
  H    -137.396000    3.972130    9.798310
  H    -136.190000    4.870480   10.721400
  C    -135.542000    3.001870    9.914490
  H    -135.758000    2.667230   10.893100
  H    -134.503000    3.271310   10.048800
  H    -135.756000    2.274070    9.068710
  H    -134.158000    4.078910    2.516940
  H    -132.242000    7.635500    9.601370

 Total Charge           Charge          ....    0
 Multiplicity           Mult            ....    1
 Number of Electrons    NEL             ....  134
 Basis Dimension        Dim             ....  322

ORBITAL ENERGIES
----------------

  NO   OCC          E(Eh)            E(eV)
   0   2.0000     -88.965621     -2420.8776
   1   2.0000     -88.963556     -2420.8214
   2   2.0000     -10.326913      -281.0096
   3   2.0000     -10.324275      -280.9378
   4   2.0000     -10.321026      -280.8494
   5   2.0000     -10.308833      -280.5176
   6   2.0000     -10.302406      -280.3427
   7   2.0000     -10.302144      -280.3356
   8   2.0000     -10.296206      -280.1740
   9   2.0000     -10.293756      -280.1073
  10   2.0000     -10.290735      -280.0251
  11   2.0000     -10.290342      -280.0144
  12   2.0000     -10.289011      -279.9782
  13   2.0000     -10.284027      -279.8426
  14   2.0000     -10.283243      -279.8213
  15   2.0000     -10.276601      -279.6405
  16   2.0000      -8.081171      -219.8998
  17   2.0000      -8.077763      -219.8071
  18   2.0000      -6.039746      -164.3498
  19   2.0000      -6.036389      -164.2585
  20   2.0000      -6.035871      -164.2444
  21   2.0000      -6.032426      -164.1506
  22   2.0000      -6.031487      -164.1251
  23   2.0000      -6.028313      -164.0387
  24   2.0000      -1.011427       -27.5223
  25   2.0000      -0.984073       -26.7780
  26   2.0000      -0.918846       -25.0031
  27   2.0000      -0.906768       -24.6744
  28   2.0000      -0.872479       -23.7414
  29   2.0000      -0.849508       -23.1163
  30   2.0000      -0.843146       -22.9432
  31   2.0000      -0.819060       -22.2878
  32   2.0000      -0.783697       -21.3255
  33   2.0000      -0.770910       -20.9775
  34   2.0000      -0.709253       -19.2998
  35   2.0000      -0.691963       -18.8293
  36   2.0000      -0.690289       -18.7837
  37   2.0000      -0.660428       -17.9711
  38   2.0000      -0.634805       -17.2739
  39   2.0000      -0.626601       -17.0507
  40   2.0000      -0.596740       -16.2381
  41   2.0000      -0.576452       -15.6860
  42   2.0000      -0.560316       -15.2470
  43   2.0000      -0.553981       -15.0746
  44   2.0000      -0.543053       -14.7772
  45   2.0000      -0.528501       -14.3812
  46   2.0000      -0.520302       -14.1581
  47   2.0000      -0.510865       -13.9014
  48   2.0000      -0.502160       -13.6645
  49   2.0000      -0.494278       -13.4500
  50   2.0000      -0.489786       -13.3277
  51   2.0000      -0.477277       -12.9874
  52   2.0000      -0.472801       -12.8656
  53   2.0000      -0.466538       -12.6951
  54   2.0000      -0.461512       -12.5584
  55   2.0000      -0.450235       -12.2515
  56   2.0000      -0.444048       -12.0832
  57   2.0000      -0.437089       -11.8938
  58   2.0000      -0.431175       -11.7329
  59   2.0000      -0.427719       -11.6388
  60   2.0000      -0.421696       -11.4749
  61   2.0000      -0.408109       -11.1052
  62   2.0000      -0.404741       -11.0136
  63   2.0000      -0.355976        -9.6866
  64   2.0000      -0.328823        -8.9477
  65   2.0000      -0.326832        -8.8935
  66   2.0000      -0.287217        -7.8156
  67   0.0000       0.027327         0.7436
  68   0.0000       0.082297         2.2394
  69   0.0000       0.096541         2.6270
  70   0.0000       0.104851         2.8532
  71   0.0000       0.126599         3.4449

MULLIKEN ATOMIC CHARGES
-----------------------
   0 S :    0.116845
   1 C :   -0.117551
   2 C :   -0.123626
   3 C :    0.018700
   4 C :   -0.094709
   5 H :   -0.013336
   6 C :    0.091125
   7 H :    0.017270
   8 H :    0.040148
   9 C :   -0.112568
  10 H :    0.047447
  11 H :    0.033642
  12 C :   -0.062718
  13 H :    0.024473
  14 H :    0.046626
  15 H :    0.030584
  16 S :    0.084619
  17 C :   -0.076726
  18 C :   -0.036363
  19 C :   -0.054255
  20 C :   -0.120448
  21 H :    0.049909
  22 C :    0.031196
  23 H :    0.024598
  24 H :    0.038636
  25 C :   -0.078399
  26 H :    0.033572
  27 H :    0.014673
  28 C :   -0.044363
  29 H :    0.016022
  30 H :    0.030387
  31 H :    0.056973
  32 H :    0.049741
  33 H :    0.037876
Sum of atomic charges:   -0.0000000

LOEWDIN ATOMIC CHARGES
----------------------
   0 S :    0.416746
   1 C :   -0.215419
   2 C :   -0.059757
   3 C :   -0.057739
   4 C :   -0.185445
   5 H :    0.020868
   6 C :   -0.038925
   7 H :    0.030402
   8 H :    0.041766
   9 C :   -0.048362
  10 H :    0.031840
  11 H :    0.023831
  12 C :   -0.068377
  13 H :    0.022864
  14 H :    0.028777
  15 H :    0.024949
  16 S :    0.378187
  17 C :   -0.142749
  18 C :   -0.069479
  19 C :   -0.062165
  20 C :   -0.214259
  21 H :    0.046816
  22 C :   -0.042960
  23 H :    0.033809
  24 H :    0.034367
  25 C :   -0.038914
  26 H :    0.029305
  27 H :    0.012863
  28 C :   -0.066279
  29 H :    0.021367
  30 H :    0.025062
  31 H :    0.033329
  32 H :    0.037542
  33 H :    0.016139

  Mayer bond orders larger than 0.100000
B(  0-S ,  1-C ) :   1.1168 B(  0-S ,  4-C ) :   1.1475 B(  1-C ,  2-C ) :   1.6696
B(  1-C , 32-H ) :   0.9517 B(  2-C ,  3-C ) :   1.1934 B(  2-C ,  6-C ) :   1.0517
B(  3-C ,  4-C ) :   1.6008 B(  3-C ,  5-H ) :   1.0052 B(  4-C , 20-C ) :   1.0283
B(  6-C ,  7-H ) :   0.9407 B(  6-C ,  8-H ) :   0.9299 B(  6-C ,  9-C ) :   1.0354
B(  9-C , 10-H ) :   0.9676 B(  9-C , 11-H ) :   0.9533 B(  9-C , 12-C ) :   1.0848
B( 12-C , 13-H ) :   0.9747 B( 12-C , 14-H ) :   0.9762 B( 12-C , 15-H ) :   0.9756
B( 16-S , 17-C ) :   1.1259 B( 16-S , 20-C ) :   1.1322 B( 17-C , 18-C ) :   1.6327
B( 17-C , 33-H ) :   0.9758 B( 18-C , 19-C ) :   1.2202 B( 18-C , 21-H ) :   0.9789
B( 19-C , 20-C ) :   1.6119 B( 19-C , 22-C ) :   1.0226 B( 22-C , 23-H ) :   0.9404
B( 22-C , 24-H ) :   0.9373 B( 22-C , 25-C ) :   1.0761 B( 25-C , 26-H ) :   0.9554
B( 25-C , 27-H ) :   0.9539 B( 25-C , 28-C ) :   1.0830 B( 28-C , 29-H ) :   0.9704
B( 28-C , 30-H ) :   0.9698 B( 28-C , 31-H ) :   0.9727

Dispersion correction           -0.014321812
FINAL SINGLE POINT ENERGY     -1339.863099600481

DIPOLE MOMENT
-------------
                                X             Y             Z
Electronic contribution:     16.31235      24.46421      -3.54717
Nuclear contribution   :    -16.87023     -24.91387       3.87250
                        -----------------------------------------
Total Dipole Moment    :     -0.55788      -0.44966       0.32533
                        -----------------------------------------
Magnitude (a.u.)       :      0.78693
Magnitude (Debye)      :      2.00023

Rotational constants in cm-1:     0.019535     0.008633     0.006485
Rotational constants in MHz :   585.657146   258.821445   194.406493

                             ****ORCA TERMINATED NORMALLY****
TOTAL RUN TIME: 0 days 0 hours 0 minutes 22 seconds 66 msec
