                         Program Version 4.2.1 -  RELEASE  -
|  1> ! wB97X-D3 SP def2-SVP
|  2> %pal
|  3> nprocs 24
|  4> end
|  5>
|  6> * xyz 0 1
|  7> S 	 -70.082 	 9.53228 	 -73.5664
|  8> C 	 -70.0869 	 10.252 	 -75.1326
|  9> C 	 -68.8152 	 10.3636 	 -75.6023
| 10> C 	 -67.8447 	 9.87046 	 -74.6425
| 11> C 	 -68.3705 	 9.29751 	 -73.4812
| 12> H 	 -66.7464 	 9.87696 	 -74.691
| 13> C 	 -68.3984 	 10.7314 	 -77.0428
| 14> H 	 -69.1987 	 10.8047 	 -77.7883
| 15> H 	 -67.8172 	 9.84341 	 -77.4344
| 16> C 	 -67.4505 	 11.9093 	 -77.138
| 17> H 	 -66.5799 	 11.7062 	 -76.5084
| 18> H 	 -67.0324 	 11.9892 	 -78.1366
| 19> C 	 -68.0352 	 13.2274 	 -76.6054
| 20> H 	 -68.9129 	 13.4414 	 -77.1779
| 21> H 	 -68.4334 	 13.0823 	 -75.6155
| 22> H 	 -67.2606 	 14.0851 	 -76.6627
| 23> S 	 -66.9434 	 9.58023 	 -71.1243
| 24> C 	 -66.6817 	 8.23197 	 -70.1568
| 25> C 	 -67.2356 	 7.12064 	 -70.6415
| 26> C 	 -67.9486 	 7.34712 	 -71.8863
| 27> C 	 -67.7291 	 8.64393 	 -72.3565
| 28> H 	 -67.0467 	 6.13948 	 -70.1405
| 29> C 	 -68.5525 	 6.19354 	 -72.6594
| 30> H 	 -67.9162 	 5.3653 	 -72.6302
| 31> H 	 -68.4731 	 6.46397 	 -73.6933
| 32> C 	 -69.8979 	 5.67962 	 -72.2149
| 33> H 	 -70.196 	 4.80891 	 -72.7857
| 34> H 	 -70.6936 	 6.4234 	 -72.3352
| 35> C 	 -70.0588 	 5.41 	 -70.6881
| 36> H 	 -69.842 	 6.30527 	 -70.1471
| 37> H 	 -69.4222 	 4.59218 	 -70.4039
| 38> H 	 -71.0549 	 5.12163 	 -70.3824
| 39> H 	 -70.9504 	 10.4015 	 -75.7361
| 40> H 	 -66.0436 	 8.15607 	 -69.3786
| 41> *
| 42>
| 43>                          ****END OF INPUT****

CARTESIAN COORDINATES (ANGSTROEM)
---------------------------------
  S    -70.082000    9.532280  -73.566400
  C    -70.086900   10.252000  -75.132600
  C    -68.815200   10.363600  -75.602300
  C    -67.844700    9.870460  -74.642500
  C    -68.370500    9.297510  -73.481200
  H    -66.746400    9.876960  -74.691000
  C    -68.398400   10.731400  -77.042800
  H    -69.198700   10.804700  -77.788300
  H    -67.817200    9.843410  -77.434400
  C    -67.450500   11.909300  -77.138000
  H    -66.579900   11.706200  -76.508400
  H    -67.032400   11.989200  -78.136600
  C    -68.035200   13.227400  -76.605400
  H    -68.912900   13.441400  -77.177900
  H    -68.433400   13.082300  -75.615500
  H    -67.260600   14.085100  -76.662700
  S    -66.943400    9.580230  -71.124300
  C    -66.681700    8.231970  -70.156800
  C    -67.235600    7.120640  -70.641500
  C    -67.948600    7.347120  -71.886300
  C    -67.729100    8.643930  -72.356500
  H    -67.046700    6.139480  -70.140500
  C    -68.552500    6.193540  -72.659400
  H    -67.916200    5.365300  -72.630200
  H    -68.473100    6.463970  -73.693300
  C    -69.897900    5.679620  -72.214900
  H    -70.196000    4.808910  -72.785700
  H    -70.693600    6.423400  -72.335200
  C    -70.058800    5.410000  -70.688100
  H    -69.842000    6.305270  -70.147100
  H    -69.422200    4.592180  -70.403900
  H    -71.054900    5.121630  -70.382400
  H    -70.950400   10.401500  -75.736100
  H    -66.043600    8.156070  -69.378600

 Total Charge           Charge          ....    0
 Multiplicity           Mult            ....    1
 Number of Electrons    NEL             ....  134
 Basis Dimension        Dim             ....  322

ORBITAL ENERGIES
----------------

  NO   OCC          E(Eh)            E(eV)
   0   2.0000     -88.964719     -2420.8531
   1   2.0000     -88.961763     -2420.7727
   2   2.0000     -10.329305      -281.0747
   3   2.0000     -10.327004      -281.0121
   4   2.0000     -10.311044      -280.5778
   5   2.0000     -10.306894      -280.4648
   6   2.0000     -10.305698      -280.4323
   7   2.0000     -10.301329      -280.3134
   8   2.0000     -10.299456      -280.2625
   9   2.0000     -10.298421      -280.2343
  10   2.0000     -10.291515      -280.0464
  11   2.0000     -10.282537      -279.8021
  12   2.0000     -10.281860      -279.7836
  13   2.0000     -10.281163      -279.7647
  14   2.0000     -10.275425      -279.6085
  15   2.0000     -10.269174      -279.4384
  16   2.0000      -8.081227      -219.9014
  17   2.0000      -8.077318      -219.7950
  18   2.0000      -6.039664      -164.3476
  19   2.0000      -6.035787      -164.2421
  20   2.0000      -6.035437      -164.2326
  21   2.0000      -6.031988      -164.1387
  22   2.0000      -6.031538      -164.1265
  23   2.0000      -6.028201      -164.0357
  24   2.0000      -1.015566       -27.6350
  25   2.0000      -0.994038       -27.0492
  26   2.0000      -0.913357       -24.8537
  27   2.0000      -0.910461       -24.7749
  28   2.0000      -0.877308       -23.8728
  29   2.0000      -0.846402       -23.0318
  30   2.0000      -0.839109       -22.8333
  31   2.0000      -0.820599       -22.3296
  32   2.0000      -0.788506       -21.4563
  33   2.0000      -0.777563       -21.1586
  34   2.0000      -0.714113       -19.4320
  35   2.0000      -0.695130       -18.9154
  36   2.0000      -0.690459       -18.7883
  37   2.0000      -0.662029       -18.0147
  38   2.0000      -0.641965       -17.4688
  39   2.0000      -0.619181       -16.8488
  40   2.0000      -0.600722       -16.3465
  41   2.0000      -0.577114       -15.7041
  42   2.0000      -0.556982       -15.1563
  43   2.0000      -0.547179       -14.8895
  44   2.0000      -0.546458       -14.8699
  45   2.0000      -0.534170       -14.5355
  46   2.0000      -0.517880       -14.0922
  47   2.0000      -0.513172       -13.9641
  48   2.0000      -0.507981       -13.8229
  49   2.0000      -0.499195       -13.5838
  50   2.0000      -0.488181       -13.2841
  51   2.0000      -0.480510       -13.0753
  52   2.0000      -0.474570       -12.9137
  53   2.0000      -0.470149       -12.7934
  54   2.0000      -0.461171       -12.5491
  55   2.0000      -0.447966       -12.1898
  56   2.0000      -0.441808       -12.0222
  57   2.0000      -0.440248       -11.9797
  58   2.0000      -0.433769       -11.8034
  59   2.0000      -0.421512       -11.4699
  60   2.0000      -0.413211       -11.2440
  61   2.0000      -0.411842       -11.2068
  62   2.0000      -0.401880       -10.9357
  63   2.0000      -0.340161        -9.2563
  64   2.0000      -0.331313        -9.0155
  65   2.0000      -0.324059        -8.8181
  66   2.0000      -0.313319        -8.5258
  67   0.0000       0.037090         1.0093
  68   0.0000       0.069738         1.8977
  69   0.0000       0.113633         3.0921
  70   0.0000       0.117412         3.1949
  71   0.0000       0.136131         3.7043

MULLIKEN ATOMIC CHARGES
-----------------------
   0 S :    0.116582
   1 C :   -0.111421
   2 C :   -0.069303
   3 C :    0.017802
   4 C :   -0.176073
   5 H :    0.018725
   6 C :    0.038372
   7 H :    0.022950
   8 H :    0.043022
   9 C :   -0.076147
  10 H :    0.023339
  11 H :    0.026588
  12 C :   -0.050380
  13 H :    0.014160
  14 H :    0.037943
  15 H :    0.052478
  16 S :    0.126683
  17 C :   -0.021179
  18 C :   -0.060359
  19 C :   -0.059001
  20 C :   -0.163674
  21 H :    0.036628
  22 C :    0.117090
  23 H :    0.005496
  24 H :    0.021127
  25 C :   -0.066019
  26 H :    0.028564
  27 H :    0.022852
  28 C :   -0.053718
  29 H :    0.041905
  30 H :    0.017030
  31 H :    0.026941
  32 H :    0.042396
  33 H :    0.008601
Sum of atomic charges:    0.0000000

LOEWDIN ATOMIC CHARGES
----------------------
   0 S :    0.426620
   1 C :   -0.198676
   2 C :   -0.068282
   3 C :   -0.064305
   4 C :   -0.206583
   5 H :    0.032452
   6 C :   -0.034127
   7 H :    0.026653
   8 H :    0.041895
   9 C :   -0.047233
  10 H :    0.021539
  11 H :    0.022826
  12 C :   -0.067914
  13 H :    0.017098
  14 H :    0.025001
  15 H :    0.037327
  16 S :    0.441125
  17 C :   -0.188753
  18 C :   -0.073869
  19 C :   -0.043314
  20 C :   -0.216686
  21 H :    0.040415
  22 C :   -0.031707
  23 H :    0.025793
  24 H :    0.033295
  25 C :   -0.036591
  26 H :    0.023067
  27 H :    0.021305
  28 C :   -0.061044
  29 H :    0.023615
  30 H :    0.015469
  31 H :    0.025163
  32 H :    0.027385
  33 H :    0.011042

  Mayer bond orders larger than 0.100000
B(  0-S ,  1-C ) :   1.1520 B(  0-S ,  4-C ) :   1.1548 B(  1-C ,  2-C ) :   1.6086
B(  1-C , 32-H ) :   0.9728 B(  2-C ,  3-C ) :   1.2235 B(  2-C ,  6-C ) :   1.0107
B(  3-C ,  4-C ) :   1.5938 B(  3-C ,  5-H ) :   0.9910 B(  4-C , 20-C ) :   1.0267
B(  6-C ,  7-H ) :   0.9513 B(  6-C ,  8-H ) :   0.9428 B(  6-C ,  9-C ) :   1.0757
B(  9-C , 10-H ) :   0.9557 B(  9-C , 11-H ) :   0.9541 B(  9-C , 12-C ) :   1.0697
B( 12-C , 13-H ) :   0.9743 B( 12-C , 14-H ) :   0.9713 B( 12-C , 15-H ) :   0.9743
B( 16-S , 17-C ) :   1.1636 B( 16-S , 20-C ) :   1.1497 B( 17-C , 18-C ) :   1.6324
B( 17-C , 33-H ) :   0.9692 B( 18-C , 19-C ) :   1.2236 B( 18-C , 21-H ) :   0.9818
B( 19-C , 20-C ) :   1.5927 B( 19-C , 22-C ) :   1.0346 B( 22-C , 23-H ) :   0.9371
B( 22-C , 24-H ) :   0.9311 B( 22-C , 25-C ) :   1.0668 B( 25-C , 26-H ) :   0.9571
B( 25-C , 27-H ) :   0.9536 B( 25-C , 28-C ) :   1.0821 B( 28-C , 29-H ) :   0.9685
B( 28-C , 30-H ) :   0.9762 B( 28-C , 31-H ) :   0.9738

Dispersion correction           -0.014929823
FINAL SINGLE POINT ENERGY     -1339.876836403358

DIPOLE MOMENT
-------------
                                X             Y             Z
Electronic contribution:      2.18737       3.59002      11.27162
Nuclear contribution   :     -2.01353      -3.99301     -11.56215
                        -----------------------------------------
Total Dipole Moment    :      0.17384      -0.40298      -0.29052
                        -----------------------------------------
Magnitude (a.u.)       :      0.52633
Magnitude (Debye)      :      1.33782

Rotational constants in cm-1:     0.024892     0.007756     0.006583
Rotational constants in MHz :   746.252064   232.508323   197.343694

                             ****ORCA TERMINATED NORMALLY****
TOTAL RUN TIME: 0 days 0 hours 0 minutes 21 seconds 594 msec
