                         Program Version 4.2.1 -  RELEASE  -
|  1> ! wB97X-D3 SP def2-SVP
|  2> %pal
|  3> nprocs 24
|  4> end
|  5>
|  6> * xyz 0 1
|  7> S 	 -35.5113 	 -9.11404 	 7.44943
|  8> C 	 -35.0773 	 -9.61006 	 9.07259
|  9> C 	 -36.1996 	 -9.43407 	 9.90299
| 10> C 	 -37.3724 	 -9.02246 	 9.19358
| 11> C 	 -37.2178 	 -8.77499 	 7.81821
| 12> H 	 -38.341 	 -9.04301 	 9.73975
| 13> C 	 -36.1865 	 -9.77167 	 11.4075
| 14> H 	 -35.5305 	 -10.5948 	 11.7422
| 15> H 	 -37.1673 	 -10.0966 	 11.7445
| 16> C 	 -35.7118 	 -8.58968 	 12.3395
| 17> H 	 -36.4097 	 -7.69552 	 12.1625
| 18> H 	 -35.8894 	 -8.83605 	 13.3995
| 19> C 	 -34.3045 	 -8.20358 	 12.1973
| 20> H 	 -34.2948 	 -7.59021 	 11.2698
| 21> H 	 -33.9089 	 -7.45808 	 12.8783
| 22> H 	 -33.6717 	 -9.10214 	 12.1126
| 23> S 	 -39.8076 	 -9.23282 	 6.54128
| 24> C 	 -40.3433 	 -7.98738 	 5.44806
| 25> C 	 -39.4087 	 -6.97185 	 5.30926
| 26> C 	 -38.1988 	 -7.21867 	 6.05742
| 27> C 	 -38.193 	 -8.38287 	 6.782
| 28> H 	 -39.7321 	 -6.09589 	 4.69131
| 29> C 	 -37.1171 	 -6.12937 	 6.23196
| 30> H 	 -36.9226 	 -5.64931 	 5.18951
| 31> H 	 -36.2328 	 -6.66323 	 6.63372
| 32> C 	 -37.437 	 -4.99431 	 7.18445
| 33> H 	 -37.8266 	 -5.37294 	 8.15228
| 34> H 	 -38.257 	 -4.36043 	 6.83576
| 35> C 	 -36.2618 	 -4.09515 	 7.4648
| 36> H 	 -35.9748 	 -3.61817 	 6.56857
| 37> H 	 -35.4043 	 -4.60546 	 7.93786
| 38> H 	 -36.599 	 -3.32771 	 8.1204
| 39> H 	 -34.0312 	 -9.70486 	 9.37109
| 40> H 	 -41.2907 	 -7.96971 	 4.91765
| 41> *
| 42>
| 43>                          ****END OF INPUT****

CARTESIAN COORDINATES (ANGSTROEM)
---------------------------------
  S    -35.511300   -9.114040    7.449430
  C    -35.077300   -9.610060    9.072590
  C    -36.199600   -9.434070    9.902990
  C    -37.372400   -9.022460    9.193580
  C    -37.217800   -8.774990    7.818210
  H    -38.341000   -9.043010    9.739750
  C    -36.186500   -9.771670   11.407500
  H    -35.530500  -10.594800   11.742200
  H    -37.167300  -10.096600   11.744500
  C    -35.711800   -8.589680   12.339500
  H    -36.409700   -7.695520   12.162500
  H    -35.889400   -8.836050   13.399500
  C    -34.304500   -8.203580   12.197300
  H    -34.294800   -7.590210   11.269800
  H    -33.908900   -7.458080   12.878300
  H    -33.671700   -9.102140   12.112600
  S    -39.807600   -9.232820    6.541280
  C    -40.343300   -7.987380    5.448060
  C    -39.408700   -6.971850    5.309260
  C    -38.198800   -7.218670    6.057420
  C    -38.193000   -8.382870    6.782000
  H    -39.732100   -6.095890    4.691310
  C    -37.117100   -6.129370    6.231960
  H    -36.922600   -5.649310    5.189510
  H    -36.232800   -6.663230    6.633720
  C    -37.437000   -4.994310    7.184450
  H    -37.826600   -5.372940    8.152280
  H    -38.257000   -4.360430    6.835760
  C    -36.261800   -4.095150    7.464800
  H    -35.974800   -3.618170    6.568570
  H    -35.404300   -4.605460    7.937860
  H    -36.599000   -3.327710    8.120400
  H    -34.031200   -9.704860    9.371090
  H    -41.290700   -7.969710    4.917650

 Total Charge           Charge          ....    0
 Multiplicity           Mult            ....    1
 Number of Electrons    NEL             ....  134
 Basis Dimension        Dim             ....  322

ORBITAL ENERGIES
----------------

  NO   OCC          E(Eh)            E(eV)
   0   2.0000     -88.968444     -2420.9544
   1   2.0000     -88.968000     -2420.9424
   2   2.0000     -10.341973      -281.4194
   3   2.0000     -10.335728      -281.2495
   4   2.0000     -10.323248      -280.9099
   5   2.0000     -10.321989      -280.8756
   6   2.0000     -10.310010      -280.5496
   7   2.0000     -10.309430      -280.5338
   8   2.0000     -10.304500      -280.3997
   9   2.0000     -10.300962      -280.3034
  10   2.0000     -10.299781      -280.2713
  11   2.0000     -10.297350      -280.2051
  12   2.0000     -10.289727      -279.9977
  13   2.0000     -10.281530      -279.7747
  14   2.0000     -10.276171      -279.6288
  15   2.0000     -10.268528      -279.4209
  16   2.0000      -8.081933      -219.9206
  17   2.0000      -8.081751      -219.9156
  18   2.0000      -6.040637      -164.3741
  19   2.0000      -6.040302      -164.3650
  20   2.0000      -6.036638      -164.2653
  21   2.0000      -6.036092      -164.2504
  22   2.0000      -6.032785      -164.1604
  23   2.0000      -6.032523      -164.1533
  24   2.0000      -0.999269       -27.1915
  25   2.0000      -0.979735       -26.6599
  26   2.0000      -0.910738       -24.7825
  27   2.0000      -0.907315       -24.6893
  28   2.0000      -0.869678       -23.6651
  29   2.0000      -0.848687       -23.0939
  30   2.0000      -0.846783       -23.0421
  31   2.0000      -0.812337       -22.1048
  32   2.0000      -0.782459       -21.2918
  33   2.0000      -0.772619       -21.0240
  34   2.0000      -0.705180       -19.1889
  35   2.0000      -0.691204       -18.8086
  36   2.0000      -0.684681       -18.6311
  37   2.0000      -0.658529       -17.9195
  38   2.0000      -0.636781       -17.3277
  39   2.0000      -0.619135       -16.8475
  40   2.0000      -0.592142       -16.1130
  41   2.0000      -0.572366       -15.5749
  42   2.0000      -0.566475       -15.4146
  43   2.0000      -0.554867       -15.0987
  44   2.0000      -0.542223       -14.7546
  45   2.0000      -0.523770       -14.2525
  46   2.0000      -0.518972       -14.1219
  47   2.0000      -0.511625       -13.9220
  48   2.0000      -0.509317       -13.8592
  49   2.0000      -0.492824       -13.4104
  50   2.0000      -0.485540       -13.2122
  51   2.0000      -0.476052       -12.9540
  52   2.0000      -0.473333       -12.8800
  53   2.0000      -0.466661       -12.6985
  54   2.0000      -0.461638       -12.5618
  55   2.0000      -0.446426       -12.1479
  56   2.0000      -0.443381       -12.0650
  57   2.0000      -0.436274       -11.8716
  58   2.0000      -0.427319       -11.6280
  59   2.0000      -0.418343       -11.3837
  60   2.0000      -0.416001       -11.3200
  61   2.0000      -0.410760       -11.1773
  62   2.0000      -0.402672       -10.9573
  63   2.0000      -0.346302        -9.4234
  64   2.0000      -0.331537        -9.0216
  65   2.0000      -0.330535        -8.9943
  66   2.0000      -0.298979        -8.1356
  67   0.0000       0.024707         0.6723
  68   0.0000       0.059716         1.6250
  69   0.0000       0.101582         2.7642
  70   0.0000       0.117982         3.2105
  71   0.0000       0.129135         3.5140

MULLIKEN ATOMIC CHARGES
-----------------------
   0 S :    0.099453
   1 C :   -0.119408
   2 C :   -0.100572
   3 C :    0.032490
   4 C :   -0.176185
   5 H :    0.028537
   6 C :    0.049512
   7 H :    0.033670
   8 H :    0.021417
   9 C :   -0.110456
  10 H :    0.031233
  11 H :    0.028411
  12 C :   -0.044864
  13 H :    0.032096
  14 H :    0.035855
  15 H :    0.032614
  16 S :    0.101866
  17 C :   -0.100195
  18 C :   -0.050843
  19 C :   -0.022246
  20 C :   -0.123024
  21 H :    0.040769
  22 C :    0.050999
  23 H :    0.040552
  24 H :    0.021119
  25 C :   -0.079442
  26 H :    0.025550
  27 H :    0.019377
  28 C :   -0.011044
  29 H :    0.014576
  30 H :    0.039290
  31 H :    0.023536
  32 H :    0.070841
  33 H :    0.064516
Sum of atomic charges:    0.0000000

LOEWDIN ATOMIC CHARGES
----------------------
   0 S :    0.411357
   1 C :   -0.195944
   2 C :   -0.067639
   3 C :   -0.067059
   4 C :   -0.183791
   5 H :    0.038265
   6 C :   -0.030053
   7 H :    0.032756
   8 H :    0.029160
   9 C :   -0.050850
  10 H :    0.026937
  11 H :    0.020228
  12 C :   -0.077352
  13 H :    0.032121
  14 H :    0.028887
  15 H :    0.024600
  16 S :    0.372228
  17 C :   -0.178686
  18 C :   -0.083532
  19 C :   -0.046739
  20 C :   -0.183708
  21 H :    0.042509
  22 C :   -0.037677
  23 H :    0.039433
  24 H :    0.020342
  25 C :   -0.045994
  26 H :    0.025769
  27 H :    0.021728
  28 C :   -0.056809
  29 H :    0.017553
  30 H :    0.028979
  31 H :    0.024762
  32 H :    0.033933
  33 H :    0.034288

  Mayer bond orders larger than 0.100000
B(  0-S ,  1-C ) :   1.1579 B(  0-S ,  4-C ) :   1.1595 B(  1-C ,  2-C ) :   1.5630
B(  1-C ,  4-C ) :   0.1096 B(  1-C , 32-H ) :   0.9661 B(  2-C ,  3-C ) :   1.2930
B(  2-C ,  6-C ) :   1.0153 B(  3-C ,  4-C ) :   1.5374 B(  3-C ,  5-H ) :   0.9841
B(  4-C , 20-C ) :   1.0347 B(  6-C ,  7-H ) :   0.9537 B(  6-C ,  8-H ) :   0.9436
B(  6-C ,  9-C ) :   1.0634 B(  9-C , 10-H ) :   0.9553 B(  9-C , 11-H ) :   0.9572
B(  9-C , 12-C ) :   1.0847 B( 12-C , 13-H ) :   0.9685 B( 12-C , 14-H ) :   0.9683
B( 12-C , 15-H ) :   0.9705 B( 16-S , 17-C ) :   1.1583 B( 16-S , 20-C ) :   1.0961
B( 17-C , 18-C ) :   1.6357 B( 17-C , 33-H ) :   0.9621 B( 18-C , 19-C ) :   1.2141
B( 18-C , 21-H ) :   0.9853 B( 19-C , 20-C ) :   1.6229 B( 19-C , 22-C ) :   1.0480
B( 22-C , 23-H ) :   0.9324 B( 22-C , 24-H ) :   0.9208 B( 22-C , 25-C ) :   1.0724
B( 25-C , 26-H ) :   0.9509 B( 25-C , 27-H ) :   0.9491 B( 25-C , 28-C ) :   1.0972
B( 28-C , 29-H ) :   0.9710 B( 28-C , 30-H ) :   0.9741 B( 28-C , 31-H ) :   0.9702

Dispersion correction           -0.014539026
FINAL SINGLE POINT ENERGY     -1339.878300148812

DIPOLE MOMENT
-------------
                                X             Y             Z
Electronic contribution:    -11.19239     -16.46736     -17.38419
Nuclear contribution   :     11.12322      16.96794      17.77292
                        -----------------------------------------
Total Dipole Moment    :     -0.06917       0.50058       0.38873
                        -----------------------------------------
Magnitude (a.u.)       :      0.63756
Magnitude (Debye)      :      1.62054

Rotational constants in cm-1:     0.019142     0.008450     0.007001
Rotational constants in MHz :   573.864294   253.332090   209.870161

                             ****ORCA TERMINATED NORMALLY****
TOTAL RUN TIME: 0 days 0 hours 0 minutes 22 seconds 500 msec
