                         Program Version 4.2.1 -  RELEASE  -
|  1> ! wB97X-D3 SP def2-SVP
|  2> %pal
|  3> nprocs 24
|  4> end
|  5>
|  6> * xyz 0 1
|  7> S 	 -114.688 	 21.5271 	 -115.564
|  8> C 	 -114.269 	 20.0491 	 -114.622
|  9> C 	 -113.167 	 20.2439 	 -113.853
| 10> C 	 -112.46 	 21.4556 	 -114.18
| 11> C 	 -113.228 	 22.3067 	 -115.023
| 12> H 	 -111.512 	 21.5989 	 -113.771
| 13> C 	 -112.537 	 19.2455 	 -112.896
| 14> H 	 -111.427 	 19.3338 	 -113.125
| 15> H 	 -112.896 	 18.2833 	 -113.271
| 16> C 	 -112.867 	 19.3765 	 -111.35
| 17> H 	 -113.911 	 19.0255 	 -111.252
| 18> H 	 -112.208 	 18.7233 	 -110.781
| 19> C 	 -112.874 	 20.805 	 -110.734
| 20> H 	 -113.685 	 21.4442 	 -111.07
| 21> H 	 -112.948 	 20.9205 	 -109.616
| 22> H 	 -111.928 	 21.1957 	 -111.057
| 23> S 	 -114.16 	 24.8866 	 -115.261
| 24> C 	 -113.237 	 26.0891 	 -115.942
| 25> C 	 -111.94 	 25.7541 	 -116.15
| 26> C 	 -111.71 	 24.3307 	 -115.95
| 27> C 	 -112.828 	 23.6492 	 -115.443
| 28> H 	 -111.234 	 26.4471 	 -116.551
| 29> C 	 -110.496 	 23.5623 	 -116.289
| 30> H 	 -110.225 	 23.9074 	 -117.272
| 31> H 	 -110.799 	 22.5234 	 -116.449
| 32> C 	 -109.401 	 23.6869 	 -115.253
| 33> H 	 -109.811 	 23.1997 	 -114.331
| 34> H 	 -109.2 	 24.7593 	 -114.89
| 35> C 	 -108.06 	 22.9966 	 -115.616
| 36> H 	 -107.526 	 23.6288 	 -116.277
| 37> H 	 -108.073 	 21.9316 	 -115.899
| 38> H 	 -107.556 	 23.0666 	 -114.673
| 39> H 	 -114.939 	 19.2568 	 -114.557
| 40> H 	 -113.613 	 27.015 	 -116.175
| 41> *
| 42>
| 43>                          ****END OF INPUT****

CARTESIAN COORDINATES (ANGSTROEM)
---------------------------------
  S    -114.688000   21.527100  -115.564000
  C    -114.269000   20.049100  -114.622000
  C    -113.167000   20.243900  -113.853000
  C    -112.460000   21.455600  -114.180000
  C    -113.228000   22.306700  -115.023000
  H    -111.512000   21.598900  -113.771000
  C    -112.537000   19.245500  -112.896000
  H    -111.427000   19.333800  -113.125000
  H    -112.896000   18.283300  -113.271000
  C    -112.867000   19.376500  -111.350000
  H    -113.911000   19.025500  -111.252000
  H    -112.208000   18.723300  -110.781000
  C    -112.874000   20.805000  -110.734000
  H    -113.685000   21.444200  -111.070000
  H    -112.948000   20.920500  -109.616000
  H    -111.928000   21.195700  -111.057000
  S    -114.160000   24.886600  -115.261000
  C    -113.237000   26.089100  -115.942000
  C    -111.940000   25.754100  -116.150000
  C    -111.710000   24.330700  -115.950000
  C    -112.828000   23.649200  -115.443000
  H    -111.234000   26.447100  -116.551000
  C    -110.496000   23.562300  -116.289000
  H    -110.225000   23.907400  -117.272000
  H    -110.799000   22.523400  -116.449000
  C    -109.401000   23.686900  -115.253000
  H    -109.811000   23.199700  -114.331000
  H    -109.200000   24.759300  -114.890000
  C    -108.060000   22.996600  -115.616000
  H    -107.526000   23.628800  -116.277000
  H    -108.073000   21.931600  -115.899000
  H    -107.556000   23.066600  -114.673000
  H    -114.939000   19.256800  -114.557000
  H    -113.613000   27.015000  -116.175000

 Total Charge           Charge          ....    0
 Multiplicity           Mult            ....    1
 Number of Electrons    NEL             ....  134
 Basis Dimension        Dim             ....  322

ORBITAL ENERGIES
----------------

  NO   OCC          E(Eh)            E(eV)
   0   2.0000     -88.969042     -2420.9707
   1   2.0000     -88.955900     -2420.6131
   2   2.0000     -10.338037      -281.3123
   3   2.0000     -10.328295      -281.0472
   4   2.0000     -10.312250      -280.6106
   5   2.0000     -10.304800      -280.4079
   6   2.0000     -10.303706      -280.3781
   7   2.0000     -10.303632      -280.3761
   8   2.0000     -10.300094      -280.2798
   9   2.0000     -10.296379      -280.1787
  10   2.0000     -10.295604      -280.1576
  11   2.0000     -10.295018      -280.1417
  12   2.0000     -10.289443      -279.9900
  13   2.0000     -10.283038      -279.8157
  14   2.0000     -10.279254      -279.7127
  15   2.0000     -10.275906      -279.6216
  16   2.0000      -8.083066      -219.9514
  17   2.0000      -8.071981      -219.6498
  18   2.0000      -6.041748      -164.4043
  19   2.0000      -6.037652      -164.2929
  20   2.0000      -6.033693      -164.1851
  21   2.0000      -6.030340      -164.0939
  22   2.0000      -6.026254      -163.9827
  23   2.0000      -6.022855      -163.8902
  24   2.0000      -1.002783       -27.2871
  25   2.0000      -0.983002       -26.7489
  26   2.0000      -0.913879       -24.8679
  27   2.0000      -0.905625       -24.6433
  28   2.0000      -0.866918       -23.5900
  29   2.0000      -0.852468       -23.1968
  30   2.0000      -0.842682       -22.9306
  31   2.0000      -0.813230       -22.1291
  32   2.0000      -0.785808       -21.3829
  33   2.0000      -0.774332       -21.0707
  34   2.0000      -0.708092       -19.2682
  35   2.0000      -0.702134       -19.1060
  36   2.0000      -0.695106       -18.9148
  37   2.0000      -0.661702       -18.0058
  38   2.0000      -0.641884       -17.4666
  39   2.0000      -0.616462       -16.7748
  40   2.0000      -0.597541       -16.2599
  41   2.0000      -0.568608       -15.4726
  42   2.0000      -0.563988       -15.3469
  43   2.0000      -0.548046       -14.9131
  44   2.0000      -0.540390       -14.7048
  45   2.0000      -0.529624       -14.4118
  46   2.0000      -0.516086       -14.0434
  47   2.0000      -0.512303       -13.9405
  48   2.0000      -0.510259       -13.8849
  49   2.0000      -0.501438       -13.6448
  50   2.0000      -0.490667       -13.3517
  51   2.0000      -0.477821       -13.0022
  52   2.0000      -0.472809       -12.8658
  53   2.0000      -0.463806       -12.6208
  54   2.0000      -0.460417       -12.5286
  55   2.0000      -0.448961       -12.2169
  56   2.0000      -0.442205       -12.0330
  57   2.0000      -0.441459       -12.0127
  58   2.0000      -0.440678       -11.9915
  59   2.0000      -0.420866       -11.4523
  60   2.0000      -0.416810       -11.3420
  61   2.0000      -0.412422       -11.2226
  62   2.0000      -0.403667       -10.9843
  63   2.0000      -0.345608        -9.4045
  64   2.0000      -0.331851        -9.0301
  65   2.0000      -0.324913        -8.8413
  66   2.0000      -0.290413        -7.9026
  67   0.0000       0.026319         0.7162
  68   0.0000       0.073150         1.9905
  69   0.0000       0.108930         2.9641
  70   0.0000       0.118149         3.2150
  71   0.0000       0.127575         3.4715

MULLIKEN ATOMIC CHARGES
-----------------------
   0 S :    0.112901
   1 C :   -0.108722
   2 C :   -0.086568
   3 C :    0.049442
   4 C :   -0.117553
   5 H :   -0.017239
   6 C :    0.029842
   7 H :    0.040468
   8 H :    0.027669
   9 C :   -0.052820
  10 H :    0.030048
  11 H :    0.040392
  12 C :   -0.072533
  13 H :    0.046954
  14 H :    0.044537
  15 H :    0.019998
  16 S :    0.081254
  17 C :   -0.034345
  18 C :   -0.023262
  19 C :   -0.060334
  20 C :   -0.164055
  21 H :    0.006485
  22 C :    0.101342
  23 H :    0.011560
  24 H :    0.028097
  25 C :   -0.137822
  26 H :    0.022671
  27 H :    0.040543
  28 C :   -0.001891
  29 H :    0.027844
  30 H :    0.043875
  31 H :    0.022930
  32 H :    0.024230
  33 H :    0.024061
Sum of atomic charges:    0.0000000

LOEWDIN ATOMIC CHARGES
----------------------
   0 S :    0.395217
   1 C :   -0.172515
   2 C :   -0.062843
   3 C :   -0.050726
   4 C :   -0.197183
   5 H :    0.015692
   6 C :   -0.033017
   7 H :    0.036412
   8 H :    0.032791
   9 C :   -0.036557
  10 H :    0.025441
  11 H :    0.025773
  12 C :   -0.074138
  13 H :    0.028804
  14 H :    0.034634
  15 H :    0.017985
  16 S :    0.398617
  17 C :   -0.186528
  18 C :   -0.077318
  19 C :   -0.045235
  20 C :   -0.178500
  21 H :    0.027776
  22 C :   -0.038799
  23 H :    0.026429
  24 H :    0.035103
  25 C :   -0.044443
  26 H :    0.022547
  27 H :    0.033662
  28 C :   -0.063501
  29 H :    0.020267
  30 H :    0.030165
  31 H :    0.027535
  32 H :    0.012604
  33 H :    0.013848

  Mayer bond orders larger than 0.100000
B(  0-S ,  1-C ) :   1.1130 B(  0-S ,  4-C ) :   1.1617 B(  1-C ,  2-C ) :   1.6348
B(  1-C , 32-H ) :   0.9737 B(  2-C ,  3-C ) :   1.2364 B(  2-C ,  6-C ) :   1.0059
B(  3-C ,  4-C ) :   1.5306 B(  3-C ,  5-H ) :   1.0001 B(  4-C , 20-C ) :   1.0511
B(  6-C ,  7-H ) :   0.9450 B(  6-C ,  8-H ) :   0.9475 B(  6-C ,  9-C ) :   1.0555
B(  9-C , 10-H ) :   0.9577 B(  9-C , 11-H ) :   0.9603 B(  9-C , 12-C ) :   1.0731
B( 12-C , 13-H ) :   0.9723 B( 12-C , 14-H ) :   0.9753 B( 12-C , 15-H ) :   0.9785
B( 16-S , 17-C ) :   1.1822 B( 16-S , 20-C ) :   1.1100 B( 17-C , 18-C ) :   1.6014
B( 17-C , 33-H ) :   0.9731 B( 18-C , 19-C ) :   1.2175 B( 18-C , 21-H ) :   0.9986
B( 19-C , 20-C ) :   1.6096 B( 19-C , 22-C ) :   1.0495 B( 22-C , 23-H ) :   0.9263
B( 22-C , 24-H ) :   0.9308 B( 22-C , 25-C ) :   1.0560 B( 25-C , 26-H ) :   0.9529
B( 25-C , 27-H ) :   0.9556 B( 25-C , 28-C ) :   1.0758 B( 28-C , 29-H ) :   0.9751
B( 28-C , 30-H ) :   0.9736 B( 28-C , 31-H ) :   0.9722

Dispersion correction           -0.014503568
FINAL SINGLE POINT ENERGY     -1339.864634959719

DIPOLE MOMENT
-------------
                                X             Y             Z
Electronic contribution:    -21.79117       9.34038     -12.71810
Nuclear contribution   :     22.34096      -9.52421      12.91746
                        -----------------------------------------
Total Dipole Moment    :      0.54979      -0.18383       0.19936
                        -----------------------------------------
Magnitude (a.u.)       :      0.61303
Magnitude (Debye)      :      1.55820

Rotational constants in cm-1:     0.016562     0.009351     0.007234
Rotational constants in MHz :   496.517056   280.335639   216.882282

                             ****ORCA TERMINATED NORMALLY****
TOTAL RUN TIME: 0 days 0 hours 0 minutes 21 seconds 771 msec
