                         Program Version 4.2.1 -  RELEASE  -
|  1> ! wB97X-D3 SP def2-SVP
|  2> %pal
|  3> nprocs 24
|  4> end
|  5>
|  6> * xyz 0 1
|  7> S 	 -41.9708 	 -2.80554 	 -10.6324
|  8> C 	 -43.0572 	 -1.44624 	 -10.3676
|  9> C 	 -44.3319 	 -1.67883 	 -10.8297
| 10> C 	 -44.4293 	 -2.98191 	 -11.3466
| 11> C 	 -43.3025 	 -3.73164 	 -11.2558
| 12> H 	 -45.256 	 -3.47973 	 -11.8547
| 13> C 	 -45.5548 	 -0.816931 	 -10.7641
| 14> H 	 -46.0895 	 -0.847345 	 -11.709
| 15> H 	 -45.3534 	 0.235744 	 -10.6974
| 16> C 	 -46.3758 	 -1.19339 	 -9.52807
| 17> H 	 -46.8276 	 -2.16404 	 -9.47679
| 18> H 	 -45.7624 	 -1.19737 	 -8.59837
| 19> C 	 -47.5052 	 -0.139686 	 -9.27233
| 20> H 	 -47.9852 	 0.00416472 	 -10.2481
| 21> H 	 -48.174 	 -0.461294 	 -8.4863
| 22> H 	 -47.1709 	 0.894517 	 -9.05756
| 23> S 	 -42.5925 	 -5.55795 	 -13.2677
| 24> C 	 -42.8109 	 -7.244 	 -12.9898
| 25> C 	 -43.3112 	 -7.43205 	 -11.7523
| 26> C 	 -43.5079 	 -6.32449 	 -10.9749
| 27> C 	 -43.0709 	 -5.14717 	 -11.6209
| 28> H 	 -43.6234 	 -8.43521 	 -11.5747
| 29> C 	 -44.3022 	 -6.34843 	 -9.6381
| 30> H 	 -45.1026 	 -7.05872 	 -9.49364
| 31> H 	 -44.7504 	 -5.39255 	 -9.59209
| 32> C 	 -43.4837 	 -6.74364 	 -8.37962
| 33> H 	 -42.5641 	 -6.09004 	 -8.31834
| 34> H 	 -43.0609 	 -7.73818 	 -8.4974
| 35> C 	 -44.3517 	 -6.62992 	 -7.1132
| 36> H 	 -43.7161 	 -6.86559 	 -6.30313
| 37> H 	 -45.1676 	 -7.38092 	 -7.05724
| 38> H 	 -44.6502 	 -5.6301 	 -6.89626
| 39> H 	 -42.6968 	 -0.453818 	 -10.0567
| 40> H 	 -42.5589 	 -8.00428 	 -13.6626
| 41> *
| 42>
| 43>                          ****END OF INPUT****

CARTESIAN COORDINATES (ANGSTROEM)
---------------------------------
  S    -41.970800   -2.805540  -10.632400
  C    -43.057200   -1.446240  -10.367600
  C    -44.331900   -1.678830  -10.829700
  C    -44.429300   -2.981910  -11.346600
  C    -43.302500   -3.731640  -11.255800
  H    -45.256000   -3.479730  -11.854700
  C    -45.554800   -0.816931  -10.764100
  H    -46.089500   -0.847345  -11.709000
  H    -45.353400    0.235744  -10.697400
  C    -46.375800   -1.193390   -9.528070
  H    -46.827600   -2.164040   -9.476790
  H    -45.762400   -1.197370   -8.598370
  C    -47.505200   -0.139686   -9.272330
  H    -47.985200    0.004165  -10.248100
  H    -48.174000   -0.461294   -8.486300
  H    -47.170900    0.894517   -9.057560
  S    -42.592500   -5.557950  -13.267700
  C    -42.810900   -7.244000  -12.989800
  C    -43.311200   -7.432050  -11.752300
  C    -43.507900   -6.324490  -10.974900
  C    -43.070900   -5.147170  -11.620900
  H    -43.623400   -8.435210  -11.574700
  C    -44.302200   -6.348430   -9.638100
  H    -45.102600   -7.058720   -9.493640
  H    -44.750400   -5.392550   -9.592090
  C    -43.483700   -6.743640   -8.379620
  H    -42.564100   -6.090040   -8.318340
  H    -43.060900   -7.738180   -8.497400
  C    -44.351700   -6.629920   -7.113200
  H    -43.716100   -6.865590   -6.303130
  H    -45.167600   -7.380920   -7.057240
  H    -44.650200   -5.630100   -6.896260
  H    -42.696800   -0.453818  -10.056700
  H    -42.558900   -8.004280  -13.662600

 Total Charge           Charge          ....    0
 Multiplicity           Mult            ....    1
 Number of Electrons    NEL             ....  134
 Basis Dimension        Dim             ....  322

ORBITAL ENERGIES
----------------

  NO   OCC          E(Eh)            E(eV)
   0   2.0000     -88.963769     -2420.8272
   1   2.0000     -88.963725     -2420.8260
   2   2.0000     -10.327232      -281.0183
   3   2.0000     -10.323715      -280.9226
   4   2.0000     -10.314909      -280.6829
   5   2.0000     -10.307535      -280.4823
   6   2.0000     -10.302321      -280.3404
   7   2.0000     -10.299453      -280.2624
   8   2.0000     -10.293436      -280.0986
   9   2.0000     -10.289135      -279.9816
  10   2.0000     -10.288903      -279.9753
  11   2.0000     -10.286499      -279.9099
  12   2.0000     -10.285081      -279.8713
  13   2.0000     -10.280081      -279.7352
  14   2.0000     -10.279735      -279.7258
  15   2.0000     -10.273226      -279.5487
  16   2.0000      -8.078753      -219.8340
  17   2.0000      -8.078744      -219.8338
  18   2.0000      -6.037162      -164.2795
  19   2.0000      -6.037069      -164.2770
  20   2.0000      -6.033250      -164.1731
  21   2.0000      -6.033119      -164.1695
  22   2.0000      -6.029781      -164.0787
  23   2.0000      -6.029569      -164.0729
  24   2.0000      -1.009878       -27.4802
  25   2.0000      -0.991364       -26.9764
  26   2.0000      -0.914751       -24.8917
  27   2.0000      -0.903143       -24.5758
  28   2.0000      -0.867771       -23.6133
  29   2.0000      -0.850215       -23.1355
  30   2.0000      -0.848545       -23.0901
  31   2.0000      -0.815321       -22.1860
  32   2.0000      -0.784149       -21.3378
  33   2.0000      -0.773225       -21.0405
  34   2.0000      -0.706804       -19.2331
  35   2.0000      -0.700228       -19.0542
  36   2.0000      -0.694757       -18.9053
  37   2.0000      -0.656209       -17.8563
  38   2.0000      -0.649207       -17.6658
  39   2.0000      -0.622866       -16.9490
  40   2.0000      -0.602204       -16.3868
  41   2.0000      -0.573679       -15.6106
  42   2.0000      -0.563157       -15.3243
  43   2.0000      -0.554223       -15.0812
  44   2.0000      -0.533970       -14.5301
  45   2.0000      -0.528235       -14.3740
  46   2.0000      -0.513078       -13.9616
  47   2.0000      -0.507106       -13.7991
  48   2.0000      -0.502679       -13.6786
  49   2.0000      -0.495168       -13.4742
  50   2.0000      -0.492353       -13.3976
  51   2.0000      -0.482065       -13.1177
  52   2.0000      -0.473009       -12.8712
  53   2.0000      -0.465434       -12.6651
  54   2.0000      -0.456920       -12.4334
  55   2.0000      -0.451127       -12.2758
  56   2.0000      -0.439659       -11.9637
  57   2.0000      -0.438155       -11.9228
  58   2.0000      -0.435379       -11.8473
  59   2.0000      -0.429774       -11.6947
  60   2.0000      -0.420776       -11.4499
  61   2.0000      -0.412016       -11.2115
  62   2.0000      -0.407465       -11.0877
  63   2.0000      -0.338024        -9.1981
  64   2.0000      -0.330961        -9.0059
  65   2.0000      -0.318260        -8.6603
  66   2.0000      -0.313228        -8.5234
  67   0.0000       0.045798         1.2462
  68   0.0000       0.054039         1.4705
  69   0.0000       0.115746         3.1496
  70   0.0000       0.122772         3.3408
  71   0.0000       0.136351         3.7103

MULLIKEN ATOMIC CHARGES
-----------------------
   0 S :    0.113634
   1 C :   -0.131963
   2 C :   -0.071936
   3 C :    0.042794
   4 C :   -0.200386
   5 H :    0.014719
   6 C :    0.101341
   7 H :    0.030094
   8 H :    0.006615
   9 C :   -0.079764
  10 H :    0.028317
  11 H :    0.032748
  12 C :   -0.058013
  13 H :    0.023009
  14 H :    0.041243
  15 H :    0.030313
  16 S :    0.112135
  17 C :   -0.079542
  18 C :   -0.030022
  19 C :    0.024598
  20 C :   -0.178475
  21 H :    0.003116
  22 C :    0.094367
  23 H :    0.013466
  24 H :    0.011456
  25 C :   -0.111271
  26 H :    0.032939
  27 H :    0.026819
  28 C :   -0.015169
  29 H :    0.017218
  30 H :    0.035945
  31 H :    0.030332
  32 H :    0.051285
  33 H :    0.038039
Sum of atomic charges:   -0.0000000

LOEWDIN ATOMIC CHARGES
----------------------
   0 S :    0.408709
   1 C :   -0.194192
   2 C :   -0.063538
   3 C :   -0.061717
   4 C :   -0.201788
   5 H :    0.036757
   6 C :   -0.029244
   7 H :    0.034068
   8 H :    0.028130
   9 C :   -0.037099
  10 H :    0.021352
  11 H :    0.029518
  12 C :   -0.070048
  13 H :    0.023318
  14 H :    0.025032
  15 H :    0.024241
  16 S :    0.419065
  17 C :   -0.181642
  18 C :   -0.078265
  19 C :   -0.047911
  20 C :   -0.209281
  21 H :    0.028723
  22 C :   -0.027035
  23 H :    0.028597
  24 H :    0.022256
  25 C :   -0.039130
  26 H :    0.026053
  27 H :    0.021009
  28 C :   -0.063782
  29 H :    0.023677
  30 H :    0.028470
  31 H :    0.024314
  32 H :    0.029864
  33 H :    0.021519

  Mayer bond orders larger than 0.100000
B(  0-S ,  1-C ) :   1.1446 B(  0-S ,  4-C ) :   1.1571 B(  1-C ,  2-C ) :   1.6198
B(  1-C , 32-H ) :   0.9651 B(  2-C ,  3-C ) :   1.2152 B(  2-C ,  6-C ) :   1.0367
B(  3-C ,  4-C ) :   1.6201 B(  3-C ,  5-H ) :   0.9974 B(  4-C , 20-C ) :   0.9814
B(  6-C ,  7-H ) :   0.9328 B(  6-C ,  8-H ) :   0.9371 B(  6-C ,  9-C ) :   1.0494
B(  9-C , 10-H ) :   0.9592 B(  9-C , 11-H ) :   0.9567 B(  9-C , 12-C ) :   1.0770
B( 12-C , 13-H ) :   0.9734 B( 12-C , 14-H ) :   0.9757 B( 12-C , 15-H ) :   0.9767
B( 16-S , 17-C ) :   1.1726 B( 16-S , 20-C ) :   1.1728 B( 17-C , 18-C ) :   1.5815
B( 17-C , 20-C ) :   0.1126 B( 17-C , 33-H ) :   0.9732 B( 18-C , 19-C ) :   1.2846
B( 18-C , 21-H ) :   0.9972 B( 19-C , 20-C ) :   1.5458 B( 19-C , 22-C ) :   1.0263
B( 22-C , 23-H ) :   0.9490 B( 22-C , 24-H ) :   0.9324 B( 22-C , 25-C ) :   1.0500
B( 25-C , 26-H ) :   0.9539 B( 25-C , 27-H ) :   0.9581 B( 25-C , 28-C ) :   1.0886
B( 28-C , 29-H ) :   0.9693 B( 28-C , 30-H ) :   0.9712 B( 28-C , 31-H ) :   0.9738

Dispersion correction           -0.014018462
FINAL SINGLE POINT ENERGY     -1339.872821831331

DIPOLE MOMENT
-------------
                                X             Y             Z
Electronic contribution:     20.29179      -4.03051     -20.32597
Nuclear contribution   :    -20.87529       3.97822      20.55317
                        -----------------------------------------
Total Dipole Moment    :     -0.58350      -0.05228       0.22720
                        -----------------------------------------
Magnitude (a.u.)       :      0.62835
Magnitude (Debye)      :      1.59715

Rotational constants in cm-1:     0.017024     0.008580     0.006967
Rotational constants in MHz :   510.373821   257.226581   208.875730

                             ****ORCA TERMINATED NORMALLY****
TOTAL RUN TIME: 0 days 0 hours 0 minutes 21 seconds 343 msec
