                         Program Version 4.2.1 -  RELEASE  -
|  1> ! wB97X-D3 SP def2-SVP
|  2> %pal
|  3> nprocs 24
|  4> end
|  5>
|  6> * xyz 0 1
|  7> S 	 -37.9205 	 -48.9218 	 -73.6879
|  8> C 	 -38.468 	 -47.4241 	 -73.0628
|  9> C 	 -39.3399 	 -47.537 	 -71.9557
| 10> C 	 -39.3315 	 -48.9056 	 -71.5406
| 11> C 	 -38.5641 	 -49.7908 	 -72.2891
| 12> H 	 -39.9422 	 -49.3674 	 -70.7331
| 13> C 	 -40.4056 	 -46.5964 	 -71.3166
| 14> H 	 -40.1788 	 -45.5345 	 -71.6036
| 15> H 	 -40.3382 	 -46.5929 	 -70.2184
| 16> C 	 -41.9096 	 -46.9895 	 -71.6525
| 17> H 	 -42.058 	 -48.0411 	 -71.3205
| 18> H 	 -42.5761 	 -46.5182 	 -71.0304
| 19> C 	 -42.2308 	 -46.8355 	 -73.1112
| 20> H 	 -43.1687 	 -47.156 	 -73.553
| 21> H 	 -41.9956 	 -45.7717 	 -73.4281
| 22> H 	 -41.4885 	 -47.2737 	 -73.7892
| 23> S 	 -39.2313 	 -52.1987 	 -73.3147
| 24> C 	 -38.7015 	 -53.6973 	 -72.6347
| 25> C 	 -37.9884 	 -53.4724 	 -71.456
| 26> C 	 -37.954 	 -52.0445 	 -71.1235
| 27> C 	 -38.5025 	 -51.2455 	 -72.1124
| 28> H 	 -37.75 	 -54.3176 	 -70.8286
| 29> C 	 -37.3483 	 -51.4141 	 -69.8427
| 30> H 	 -37.1698 	 -52.1401 	 -69.1011
| 31> H 	 -38.0599 	 -50.8182 	 -69.3145
| 32> C 	 -36.0082 	 -50.615 	 -70.0535
| 33> H 	 -35.7797 	 -49.8173 	 -69.2793
| 34> H 	 -36.103 	 -50.2144 	 -71.0285
| 35> C 	 -34.8314 	 -51.555 	 -69.9044
| 36> H 	 -34.7418 	 -51.9364 	 -68.884
| 37> H 	 -33.9565 	 -50.9515 	 -70.0742
| 38> H 	 -34.8109 	 -52.343 	 -70.6701
| 39> H 	 -38.5046 	 -46.5807 	 -73.7443
| 40> H 	 -38.843 	 -54.6871 	 -73.0283
| 41> *
| 42>
| 43>                          ****END OF INPUT****

CARTESIAN COORDINATES (ANGSTROEM)
---------------------------------
  S    -37.920500  -48.921800  -73.687900
  C    -38.468000  -47.424100  -73.062800
  C    -39.339900  -47.537000  -71.955700
  C    -39.331500  -48.905600  -71.540600
  C    -38.564100  -49.790800  -72.289100
  H    -39.942200  -49.367400  -70.733100
  C    -40.405600  -46.596400  -71.316600
  H    -40.178800  -45.534500  -71.603600
  H    -40.338200  -46.592900  -70.218400
  C    -41.909600  -46.989500  -71.652500
  H    -42.058000  -48.041100  -71.320500
  H    -42.576100  -46.518200  -71.030400
  C    -42.230800  -46.835500  -73.111200
  H    -43.168700  -47.156000  -73.553000
  H    -41.995600  -45.771700  -73.428100
  H    -41.488500  -47.273700  -73.789200
  S    -39.231300  -52.198700  -73.314700
  C    -38.701500  -53.697300  -72.634700
  C    -37.988400  -53.472400  -71.456000
  C    -37.954000  -52.044500  -71.123500
  C    -38.502500  -51.245500  -72.112400
  H    -37.750000  -54.317600  -70.828600
  C    -37.348300  -51.414100  -69.842700
  H    -37.169800  -52.140100  -69.101100
  H    -38.059900  -50.818200  -69.314500
  C    -36.008200  -50.615000  -70.053500
  H    -35.779700  -49.817300  -69.279300
  H    -36.103000  -50.214400  -71.028500
  C    -34.831400  -51.555000  -69.904400
  H    -34.741800  -51.936400  -68.884000
  H    -33.956500  -50.951500  -70.074200
  H    -34.810900  -52.343000  -70.670100
  H    -38.504600  -46.580700  -73.744300
  H    -38.843000  -54.687100  -73.028300

 Total Charge           Charge          ....    0
 Multiplicity           Mult            ....    1
 Number of Electrons    NEL             ....  134
 Basis Dimension        Dim             ....  322

ORBITAL ENERGIES
----------------

  NO   OCC          E(Eh)            E(eV)
   0   2.0000     -88.971280     -2421.0316
   1   2.0000     -88.965360     -2420.8705
   2   2.0000     -10.331525      -281.1351
   3   2.0000     -10.322932      -280.9013
   4   2.0000     -10.320059      -280.8231
   5   2.0000     -10.317432      -280.7516
   6   2.0000     -10.312297      -280.6119
   7   2.0000     -10.309957      -280.5482
   8   2.0000     -10.308910      -280.5197
   9   2.0000     -10.299421      -280.2615
  10   2.0000     -10.297800      -280.2174
  11   2.0000     -10.290249      -280.0119
  12   2.0000     -10.282585      -279.8034
  13   2.0000     -10.280186      -279.7381
  14   2.0000     -10.278446      -279.6907
  15   2.0000     -10.267902      -279.4038
  16   2.0000      -8.086100      -220.0340
  17   2.0000      -8.081322      -219.9040
  18   2.0000      -6.044547      -164.4805
  19   2.0000      -6.040592      -164.3729
  20   2.0000      -6.039760      -164.3502
  21   2.0000      -6.036908      -164.2726
  22   2.0000      -6.035413      -164.2320
  23   2.0000      -6.032321      -164.1478
  24   2.0000      -1.010251       -27.4903
  25   2.0000      -0.987185       -26.8627
  26   2.0000      -0.907065       -24.6825
  27   2.0000      -0.902001       -24.5447
  28   2.0000      -0.870441       -23.6859
  29   2.0000      -0.850190       -23.1348
  30   2.0000      -0.843817       -22.9614
  31   2.0000      -0.812697       -22.1146
  32   2.0000      -0.781171       -21.2567
  33   2.0000      -0.771416       -20.9913
  34   2.0000      -0.711580       -19.3631
  35   2.0000      -0.699098       -19.0234
  36   2.0000      -0.684732       -18.6325
  37   2.0000      -0.663612       -18.0578
  38   2.0000      -0.644027       -17.5249
  39   2.0000      -0.619573       -16.8594
  40   2.0000      -0.594064       -16.1653
  41   2.0000      -0.567499       -15.4424
  42   2.0000      -0.552940       -15.0463
  43   2.0000      -0.547994       -14.9117
  44   2.0000      -0.538935       -14.6652
  45   2.0000      -0.535566       -14.5735
  46   2.0000      -0.514760       -14.0073
  47   2.0000      -0.512052       -13.9337
  48   2.0000      -0.499527       -13.5928
  49   2.0000      -0.488807       -13.3011
  50   2.0000      -0.486624       -13.2417
  51   2.0000      -0.481679       -13.1071
  52   2.0000      -0.470616       -12.8061
  53   2.0000      -0.467008       -12.7079
  54   2.0000      -0.455027       -12.3819
  55   2.0000      -0.446506       -12.1500
  56   2.0000      -0.443047       -12.0559
  57   2.0000      -0.439066       -11.9476
  58   2.0000      -0.434877       -11.8336
  59   2.0000      -0.420692       -11.4476
  60   2.0000      -0.418926       -11.3996
  61   2.0000      -0.413036       -11.2393
  62   2.0000      -0.409022       -11.1300
  63   2.0000      -0.343018        -9.3340
  64   2.0000      -0.329768        -8.9734
  65   2.0000      -0.328509        -8.9392
  66   2.0000      -0.301680        -8.2091
  67   0.0000       0.032532         0.8853
  68   0.0000       0.060231         1.6390
  69   0.0000       0.110792         3.0148
  70   0.0000       0.120487         3.2786
  71   0.0000       0.127643         3.4733

MULLIKEN ATOMIC CHARGES
-----------------------
   0 S :    0.126076
   1 C :   -0.110971
   2 C :   -0.074705
   3 C :    0.020854
   4 C :   -0.178547
   5 H :    0.033037
   6 C :    0.017670
   7 H :    0.033999
   8 H :    0.038904
   9 C :   -0.014661
  10 H :    0.024934
  11 H :    0.013284
  12 C :   -0.058182
  13 H :    0.042601
  14 H :    0.015886
  15 H :    0.024989
  16 S :    0.121714
  17 C :   -0.094257
  18 C :   -0.033498
  19 C :   -0.056327
  20 C :   -0.173133
  21 H :    0.026043
  22 C :    0.110740
  23 H :   -0.014391
  24 H :    0.014502
  25 C :   -0.073813
  26 H :    0.037174
  27 H :    0.032356
  28 C :   -0.047782
  29 H :    0.029502
  30 H :    0.021107
  31 H :    0.033536
  32 H :    0.055995
  33 H :    0.055365
Sum of atomic charges:   -0.0000000

LOEWDIN ATOMIC CHARGES
----------------------
   0 S :    0.422990
   1 C :   -0.208137
   2 C :   -0.064442
   3 C :   -0.056449
   4 C :   -0.204236
   5 H :    0.036485
   6 C :   -0.026043
   7 H :    0.031326
   8 H :    0.034479
   9 C :   -0.033395
  10 H :    0.028389
  11 H :    0.014005
  12 C :   -0.079733
  13 H :    0.026594
  14 H :    0.029283
  15 H :    0.028618
  16 S :    0.441002
  17 C :   -0.193846
  18 C :   -0.072612
  19 C :   -0.052550
  20 C :   -0.222758
  21 H :    0.032675
  22 C :   -0.030392
  23 H :    0.018427
  24 H :    0.025847
  25 C :   -0.033632
  26 H :    0.032577
  27 H :    0.017513
  28 C :   -0.065951
  29 H :    0.023190
  30 H :    0.022114
  31 H :    0.023980
  32 H :    0.024995
  33 H :    0.029690

  Mayer bond orders larger than 0.100000
B(  0-S ,  1-C ) :   1.1740 B(  0-S ,  4-C ) :   1.1403 B(  1-C ,  2-C ) :   1.5825
B(  1-C ,  4-C ) :   0.1008 B(  1-C , 32-H ) :   0.9597 B(  2-C ,  3-C ) :   1.2528
B(  2-C ,  6-C ) :   1.0240 B(  3-C ,  4-C ) :   1.5846 B(  3-C ,  5-H ) :   0.9797
B(  4-C , 20-C ) :   1.0234 B(  6-C ,  7-H ) :   0.9492 B(  6-C ,  8-H ) :   0.9426
B(  6-C ,  9-C ) :   1.0663 B(  9-C , 10-H ) :   0.9496 B(  9-C , 11-H ) :   0.9560
B(  9-C , 12-C ) :   1.0630 B( 12-C , 13-H ) :   0.9762 B( 12-C , 14-H ) :   0.9700
B( 12-C , 15-H ) :   0.9723 B( 16-S , 17-C ) :   1.1689 B( 16-S , 20-C ) :   1.1691
B( 17-C , 18-C ) :   1.5977 B( 17-C , 33-H ) :   0.9694 B( 18-C , 19-C ) :   1.2514
B( 18-C , 21-H ) :   0.9886 B( 19-C , 20-C ) :   1.5860 B( 19-C , 22-C ) :   1.0446
B( 22-C , 23-H ) :   0.9306 B( 22-C , 24-H ) :   0.9364 B( 22-C , 25-C ) :   1.0459
B( 25-C , 26-H ) :   0.9575 B( 25-C , 27-H ) :   0.9608 B( 25-C , 28-C ) :   1.0875
B( 28-C , 29-H ) :   0.9739 B( 28-C , 30-H ) :   0.9725 B( 28-C , 31-H ) :   0.9757

Dispersion correction           -0.015133702
FINAL SINGLE POINT ENERGY     -1339.864821428725

DIPOLE MOMENT
-------------
                                X             Y             Z
Electronic contribution:      1.12604      -9.50892     -13.88805
Nuclear contribution   :     -1.46966       9.58185      14.26689
                        -----------------------------------------
Total Dipole Moment    :     -0.34362       0.07293       0.37885
                        -----------------------------------------
Magnitude (a.u.)       :      0.51664
Magnitude (Debye)      :      1.31319

Rotational constants in cm-1:     0.020362     0.008598     0.007462
Rotational constants in MHz :   610.428385   257.761360   223.695133

                             ****ORCA TERMINATED NORMALLY****
TOTAL RUN TIME: 0 days 0 hours 0 minutes 21 seconds 941 msec
