                         Program Version 4.2.1 -  RELEASE  -
|  1> ! wB97X-D3 SP def2-SVP
|  2> %pal
|  3> nprocs 24
|  4> end
|  5>
|  6> * xyz 0 1
|  7> S 	 -137.212 	 4.25963 	 -0.179865
|  8> C 	 -136.528 	 5.24772 	 -1.44396
|  9> C 	 -135.364 	 5.85191 	 -0.997491
| 10> C 	 -135.169 	 5.61399 	 0.387783
| 11> C 	 -136.07 	 4.80811 	 1.03667
| 12> H 	 -134.335 	 5.94989 	 0.897497
| 13> C 	 -134.401 	 6.62998 	 -1.90813
| 14> H 	 -134.302 	 6.0441 	 -2.84687
| 15> H 	 -133.462 	 6.54305 	 -1.37144
| 16> C 	 -134.755 	 8.11714 	 -2.14226
| 17> H 	 -134.058 	 8.53656 	 -2.86616
| 18> H 	 -135.746 	 8.13132 	 -2.55157
| 19> C 	 -134.795 	 9.02888 	 -0.878068
| 20> H 	 -135.744 	 8.94464 	 -0.396128
| 21> H 	 -134.033 	 8.75056 	 -0.192147
| 22> H 	 -134.615 	 10.0852 	 -1.11588
| 23> S 	 -135.469 	 5.25662 	 3.75514
| 24> C 	 -135.652 	 3.90183 	 4.81828
| 25> C 	 -136.142 	 2.83553 	 4.19339
| 26> C 	 -136.088 	 2.9614 	 2.80119
| 27> C 	 -136.032 	 4.29809 	 2.38153
| 28> H 	 -136.358 	 1.86609 	 4.66944
| 29> C 	 -136.417 	 1.82369 	 1.93816
| 30> H 	 -135.98 	 2.04579 	 0.979993
| 31> H 	 -137.525 	 1.87462 	 1.69427
| 32> C 	 -136.009 	 0.383047 	 2.37932
| 33> H 	 -136.698 	 -0.288596 	 1.76939
| 34> H 	 -136.255 	 0.0391873 	 3.47461
| 35> C 	 -134.565 	 -0.139049 	 2.15271
| 36> H 	 -134.178 	 0.307102 	 1.2251
| 37> H 	 -134.643 	 -1.18508 	 2.02879
| 38> H 	 -133.788 	 0.0256686 	 2.92303
| 39> H 	 -137.024 	 5.35772 	 -2.41298
| 40> H 	 -135.692 	 3.92637 	 5.90721
| 41> *
| 42>
| 43>                          ****END OF INPUT****

CARTESIAN COORDINATES (ANGSTROEM)
---------------------------------
  S    -137.212000    4.259630   -0.179865
  C    -136.528000    5.247720   -1.443960
  C    -135.364000    5.851910   -0.997491
  C    -135.169000    5.613990    0.387783
  C    -136.070000    4.808110    1.036670
  H    -134.335000    5.949890    0.897497
  C    -134.401000    6.629980   -1.908130
  H    -134.302000    6.044100   -2.846870
  H    -133.462000    6.543050   -1.371440
  C    -134.755000    8.117140   -2.142260
  H    -134.058000    8.536560   -2.866160
  H    -135.746000    8.131320   -2.551570
  C    -134.795000    9.028880   -0.878068
  H    -135.744000    8.944640   -0.396128
  H    -134.033000    8.750560   -0.192147
  H    -134.615000   10.085200   -1.115880
  S    -135.469000    5.256620    3.755140
  C    -135.652000    3.901830    4.818280
  C    -136.142000    2.835530    4.193390
  C    -136.088000    2.961400    2.801190
  C    -136.032000    4.298090    2.381530
  H    -136.358000    1.866090    4.669440
  C    -136.417000    1.823690    1.938160
  H    -135.980000    2.045790    0.979993
  H    -137.525000    1.874620    1.694270
  C    -136.009000    0.383047    2.379320
  H    -136.698000   -0.288596    1.769390
  H    -136.255000    0.039187    3.474610
  C    -134.565000   -0.139049    2.152710
  H    -134.178000    0.307102    1.225100
  H    -134.643000   -1.185080    2.028790
  H    -133.788000    0.025669    2.923030
  H    -137.024000    5.357720   -2.412980
  H    -135.692000    3.926370    5.907210

 Total Charge           Charge          ....    0
 Multiplicity           Mult            ....    1
 Number of Electrons    NEL             ....  134
 Basis Dimension        Dim             ....  322

ORBITAL ENERGIES
----------------

  NO   OCC          E(Eh)            E(eV)
   0   2.0000     -88.965687     -2420.8794
   1   2.0000     -88.965363     -2420.8706
   2   2.0000     -10.328467      -281.0519
   3   2.0000     -10.325240      -280.9641
   4   2.0000     -10.315960      -280.7115
   5   2.0000     -10.309889      -280.5463
   6   2.0000     -10.304573      -280.4017
   7   2.0000     -10.301076      -280.3065
   8   2.0000     -10.296277      -280.1759
   9   2.0000     -10.294144      -280.1179
  10   2.0000     -10.291764      -280.0531
  11   2.0000     -10.286932      -279.9217
  12   2.0000     -10.286172      -279.9010
  13   2.0000     -10.283177      -279.8195
  14   2.0000     -10.277520      -279.6655
  15   2.0000     -10.272639      -279.5327
  16   2.0000      -8.080284      -219.8757
  17   2.0000      -8.079746      -219.8611
  18   2.0000      -6.038924      -164.3275
  19   2.0000      -6.038304      -164.3106
  20   2.0000      -6.034893      -164.2178
  21   2.0000      -6.034136      -164.1972
  22   2.0000      -6.030838      -164.1074
  23   2.0000      -6.030649      -164.1023
  24   2.0000      -1.011602       -27.5271
  25   2.0000      -0.990155       -26.9435
  26   2.0000      -0.908615       -24.7247
  27   2.0000      -0.904488       -24.6124
  28   2.0000      -0.873512       -23.7695
  29   2.0000      -0.851275       -23.1644
  30   2.0000      -0.843547       -22.9541
  31   2.0000      -0.818528       -22.2733
  32   2.0000      -0.785824       -21.3833
  33   2.0000      -0.772519       -21.0213
  34   2.0000      -0.706790       -19.2327
  35   2.0000      -0.704956       -19.1828
  36   2.0000      -0.694695       -18.9036
  37   2.0000      -0.656890       -17.8749
  38   2.0000      -0.641702       -17.4616
  39   2.0000      -0.612362       -16.6632
  40   2.0000      -0.598494       -16.2858
  41   2.0000      -0.574622       -15.6363
  42   2.0000      -0.551043       -14.9946
  43   2.0000      -0.547192       -14.8899
  44   2.0000      -0.543709       -14.7951
  45   2.0000      -0.526925       -14.3384
  46   2.0000      -0.521871       -14.2008
  47   2.0000      -0.512439       -13.9442
  48   2.0000      -0.507687       -13.8149
  49   2.0000      -0.496484       -13.5100
  50   2.0000      -0.493295       -13.4233
  51   2.0000      -0.478695       -13.0259
  52   2.0000      -0.467076       -12.7098
  53   2.0000      -0.466556       -12.6956
  54   2.0000      -0.460860       -12.5406
  55   2.0000      -0.447378       -12.1738
  56   2.0000      -0.444883       -12.1059
  57   2.0000      -0.440289       -11.9809
  58   2.0000      -0.434102       -11.8125
  59   2.0000      -0.424622       -11.5546
  60   2.0000      -0.420749       -11.4492
  61   2.0000      -0.411305       -11.1922
  62   2.0000      -0.404276       -11.0009
  63   2.0000      -0.355343        -9.6694
  64   2.0000      -0.332019        -9.0347
  65   2.0000      -0.327535        -8.9127
  66   2.0000      -0.285022        -7.7558
  67   0.0000       0.024226         0.6592
  68   0.0000       0.074297         2.0217
  69   0.0000       0.109315         2.9746
  70   0.0000       0.125011         3.4017
  71   0.0000       0.128938         3.5086

MULLIKEN ATOMIC CHARGES
-----------------------
   0 S :    0.087319
   1 C :   -0.139512
   2 C :   -0.099607
   3 C :    0.040015
   4 C :   -0.147225
   5 H :   -0.025122
   6 C :    0.062876
   7 H :    0.041500
   8 H :    0.018612
   9 C :   -0.053421
  10 H :    0.034830
  11 H :    0.021411
  12 C :   -0.046600
  13 H :    0.041261
  14 H :    0.019126
  15 H :    0.036052
  16 S :    0.105637
  17 C :   -0.065192
  18 C :   -0.025701
  19 C :   -0.068859
  20 C :   -0.111245
  21 H :    0.025737
  22 C :    0.033449
  23 H :    0.025829
  24 H :    0.059085
  25 C :   -0.133521
  26 H :    0.037730
  27 H :    0.040623
  28 C :   -0.031420
  29 H :    0.027572
  30 H :    0.027047
  31 H :    0.043882
  32 H :    0.062020
  33 H :    0.055813
Sum of atomic charges:   -0.0000000

LOEWDIN ATOMIC CHARGES
----------------------
   0 S :    0.414552
   1 C :   -0.199204
   2 C :   -0.066632
   3 C :   -0.060935
   4 C :   -0.188423
   5 H :    0.014550
   6 C :   -0.029574
   7 H :    0.037579
   8 H :    0.027301
   9 C :   -0.035743
  10 H :    0.024171
  11 H :    0.020627
  12 C :   -0.061625
  13 H :    0.026056
  14 H :    0.017975
  15 H :    0.030563
  16 S :    0.404315
  17 C :   -0.188687
  18 C :   -0.073196
  19 C :   -0.059506
  20 C :   -0.197666
  21 H :    0.035969
  22 C :   -0.050650
  23 H :    0.024719
  24 H :    0.045148
  25 C :   -0.051944
  26 H :    0.033761
  27 H :    0.030650
  28 C :   -0.068387
  29 H :    0.025799
  30 H :    0.022876
  31 H :    0.028312
  32 H :    0.032436
  33 H :    0.034811

  Mayer bond orders larger than 0.100000
B(  0-S ,  1-C ) :   1.1563 B(  0-S ,  4-C ) :   1.1466 B(  1-C ,  2-C ) :   1.5735
B(  1-C , 32-H ) :   0.9711 B(  2-C ,  3-C ) :   1.2811 B(  2-C ,  6-C ) :   1.0029
B(  3-C ,  4-C ) :   1.5528 B(  3-C ,  5-H ) :   1.0038 B(  4-C , 20-C ) :   1.0573
B(  6-C ,  7-H ) :   0.9466 B(  6-C ,  8-H ) :   0.9409 B(  6-C ,  9-C ) :   1.0713
B(  9-C , 10-H ) :   0.9602 B(  9-C , 11-H ) :   0.9600 B(  9-C , 12-C ) :   1.0691
B( 12-C , 13-H ) :   0.9763 B( 12-C , 14-H ) :   0.9788 B( 12-C , 15-H ) :   0.9758
B( 16-S , 17-C ) :   1.1491 B( 16-S , 20-C ) :   1.1237 B( 17-C , 18-C ) :   1.6357
B( 17-C , 33-H ) :   0.9557 B( 18-C , 19-C ) :   1.2506 B( 18-C , 21-H ) :   0.9748
B( 19-C , 20-C ) :   1.5550 B( 19-C , 22-C ) :   1.0629 B( 22-C , 23-H ) :   0.9167
B( 22-C , 24-H ) :   0.9323 B( 22-C , 25-C ) :   1.0664 B( 25-C , 26-H ) :   0.9553
B( 25-C , 27-H ) :   0.9530 B( 25-C , 28-C ) :   1.0675 B( 28-C , 29-H ) :   0.9737
B( 28-C , 30-H ) :   0.9750 B( 28-C , 31-H ) :   0.9776

Dispersion correction           -0.014129781
FINAL SINGLE POINT ENERGY     -1339.868110371537

DIPOLE MOMENT
-------------
                                X             Y             Z
Electronic contribution:     -8.24529       3.08878       9.15323
Nuclear contribution   :      8.43988      -3.32689      -9.40277
                        -----------------------------------------
Total Dipole Moment    :      0.19460      -0.23810      -0.24954
                        -----------------------------------------
Magnitude (a.u.)       :      0.39602
Magnitude (Debye)      :      1.00661

Rotational constants in cm-1:     0.022338     0.007771     0.006502
Rotational constants in MHz :   669.685911   232.961247   194.917417

                             ****ORCA TERMINATED NORMALLY****
TOTAL RUN TIME: 0 days 0 hours 0 minutes 21 seconds 378 msec
