                         Program Version 4.2.1 -  RELEASE  -
|  1> ! wB97X-D3 SP def2-SVP
|  2> %pal
|  3> nprocs 24
|  4> end
|  5>
|  6> * xyz 0 1
|  7> S 	 -40.9268 	 -9.30317 	 5.34595
|  8> C 	 -41.5358 	 -10.6233 	 6.32031
|  9> C 	 -42.3577 	 -10.1867 	 7.35553
| 10> C 	 -42.4601 	 -8.73604 	 7.3134
| 11> C 	 -41.65 	 -8.10034 	 6.37839
| 12> H 	 -43.1415 	 -8.27899 	 8.01262
| 13> C 	 -43.0336 	 -11.0411 	 8.47256
| 14> H 	 -43.1528 	 -11.9736 	 8.01931
| 15> H 	 -44.0481 	 -10.6471 	 8.70674
| 16> C 	 -42.231 	 -11.1496 	 9.76964
| 17> H 	 -42.8368 	 -11.7024 	 10.4568
| 18> H 	 -41.3347 	 -11.6945 	 9.54607
| 19> C 	 -41.887 	 -9.75503 	 10.3621
| 20> H 	 -42.7055 	 -9.28333 	 10.8973
| 21> H 	 -41.0874 	 -9.99236 	 11.1074
| 22> H 	 -41.3759 	 -9.1023 	 9.65056
| 23> S 	 -42.3579 	 -6.11758 	 4.55511
| 24> C 	 -41.9108 	 -4.43979 	 4.8581
| 25> C 	 -41.543 	 -4.3488 	 6.20256
| 26> C 	 -41.3307 	 -5.59069 	 6.88286
| 27> C 	 -41.6074 	 -6.67885 	 6.101
| 28> H 	 -41.4584 	 -3.40912 	 6.70567
| 29> C 	 -40.7804 	 -5.56457 	 8.31025
| 30> H 	 -39.9257 	 -4.96844 	 8.387
| 31> H 	 -40.5838 	 -6.57442 	 8.61234
| 32> C 	 -41.7828 	 -5.20126 	 9.36434
| 33> H 	 -42.7128 	 -5.84478 	 9.23056
| 34> H 	 -42.2281 	 -4.26493 	 9.08542
| 35> C 	 -41.2439 	 -5.18433 	 10.7687
| 36> H 	 -40.2933 	 -4.66041 	 10.83
| 37> H 	 -41.1318 	 -6.11593 	 11.1996
| 38> H 	 -41.956 	 -4.72566 	 11.4134
| 39> H 	 -41.2886 	 -11.7191 	 6.08114
| 40> H 	 -41.923 	 -3.61467 	 4.2452
| 41> *
| 42>
| 43>                          ****END OF INPUT****

CARTESIAN COORDINATES (ANGSTROEM)
---------------------------------
  S    -40.926800   -9.303170    5.345950
  C    -41.535800  -10.623300    6.320310
  C    -42.357700  -10.186700    7.355530
  C    -42.460100   -8.736040    7.313400
  C    -41.650000   -8.100340    6.378390
  H    -43.141500   -8.278990    8.012620
  C    -43.033600  -11.041100    8.472560
  H    -43.152800  -11.973600    8.019310
  H    -44.048100  -10.647100    8.706740
  C    -42.231000  -11.149600    9.769640
  H    -42.836800  -11.702400   10.456800
  H    -41.334700  -11.694500    9.546070
  C    -41.887000   -9.755030   10.362100
  H    -42.705500   -9.283330   10.897300
  H    -41.087400   -9.992360   11.107400
  H    -41.375900   -9.102300    9.650560
  S    -42.357900   -6.117580    4.555110
  C    -41.910800   -4.439790    4.858100
  C    -41.543000   -4.348800    6.202560
  C    -41.330700   -5.590690    6.882860
  C    -41.607400   -6.678850    6.101000
  H    -41.458400   -3.409120    6.705670
  C    -40.780400   -5.564570    8.310250
  H    -39.925700   -4.968440    8.387000
  H    -40.583800   -6.574420    8.612340
  C    -41.782800   -5.201260    9.364340
  H    -42.712800   -5.844780    9.230560
  H    -42.228100   -4.264930    9.085420
  C    -41.243900   -5.184330   10.768700
  H    -40.293300   -4.660410   10.830000
  H    -41.131800   -6.115930   11.199600
  H    -41.956000   -4.725660   11.413400
  H    -41.288600  -11.719100    6.081140
  H    -41.923000   -3.614670    4.245200

 Total Charge           Charge          ....    0
 Multiplicity           Mult            ....    1
 Number of Electrons    NEL             ....  134
 Basis Dimension        Dim             ....  322

ORBITAL ENERGIES
----------------

  NO   OCC          E(Eh)            E(eV)
   0   2.0000     -88.967731     -2420.9350
   1   2.0000     -88.961127     -2420.7553
   2   2.0000     -10.329940      -281.0920
   3   2.0000     -10.328042      -281.0403
   4   2.0000     -10.324647      -280.9479
   5   2.0000     -10.315703      -280.7045
   6   2.0000     -10.305740      -280.4334
   7   2.0000     -10.301515      -280.3185
   8   2.0000     -10.297757      -280.2162
   9   2.0000     -10.293872      -280.1105
  10   2.0000     -10.290819      -280.0274
  11   2.0000     -10.286667      -279.9145
  12   2.0000     -10.283140      -279.8185
  13   2.0000     -10.281231      -279.7665
  14   2.0000     -10.280697      -279.7520
  15   2.0000     -10.269713      -279.4531
  16   2.0000      -8.082487      -219.9357
  17   2.0000      -8.074958      -219.7308
  18   2.0000      -6.041091      -164.3864
  19   2.0000      -6.036897      -164.2723
  20   2.0000      -6.033691      -164.1851
  21   2.0000      -6.033234      -164.1726
  22   2.0000      -6.029696      -164.0764
  23   2.0000      -6.025404      -163.9596
  24   2.0000      -1.002463       -27.2784
  25   2.0000      -0.979388       -26.6505
  26   2.0000      -0.916432       -24.9374
  27   2.0000      -0.911551       -24.8046
  28   2.0000      -0.868019       -23.6200
  29   2.0000      -0.850043       -23.1308
  30   2.0000      -0.840893       -22.8819
  31   2.0000      -0.810478       -22.0542
  32   2.0000      -0.787808       -21.4374
  33   2.0000      -0.778486       -21.1837
  34   2.0000      -0.704735       -19.1768
  35   2.0000      -0.700386       -19.0585
  36   2.0000      -0.698490       -19.0069
  37   2.0000      -0.664243       -18.0750
  38   2.0000      -0.635864       -17.3027
  39   2.0000      -0.617498       -16.8030
  40   2.0000      -0.599924       -16.3248
  41   2.0000      -0.578080       -15.7303
  42   2.0000      -0.572110       -15.5679
  43   2.0000      -0.548524       -14.9261
  44   2.0000      -0.544865       -14.8265
  45   2.0000      -0.524731       -14.2786
  46   2.0000      -0.518181       -14.1004
  47   2.0000      -0.513068       -13.9613
  48   2.0000      -0.507306       -13.8045
  49   2.0000      -0.497867       -13.5477
  50   2.0000      -0.493161       -13.4196
  51   2.0000      -0.482860       -13.1393
  52   2.0000      -0.471009       -12.8168
  53   2.0000      -0.464910       -12.6508
  54   2.0000      -0.462049       -12.5730
  55   2.0000      -0.449489       -12.2312
  56   2.0000      -0.444752       -12.1023
  57   2.0000      -0.435584       -11.8528
  58   2.0000      -0.430947       -11.7267
  59   2.0000      -0.427772       -11.6403
  60   2.0000      -0.419845       -11.4246
  61   2.0000      -0.416800       -11.3417
  62   2.0000      -0.405473       -11.0335
  63   2.0000      -0.337070        -9.1721
  64   2.0000      -0.331663        -9.0250
  65   2.0000      -0.323200        -8.7947
  66   2.0000      -0.301109        -8.1936
  67   0.0000       0.028715         0.7814
  68   0.0000       0.064906         1.7662
  69   0.0000       0.110565         3.0086
  70   0.0000       0.117533         3.1982
  71   0.0000       0.125469         3.4142

MULLIKEN ATOMIC CHARGES
-----------------------
   0 S :    0.120782
   1 C :   -0.156759
   2 C :   -0.131813
   3 C :    0.043836
   4 C :   -0.173005
   5 H :    0.009267
   6 C :    0.088684
   7 H :    0.007252
   8 H :    0.030471
   9 C :   -0.034109
  10 H :    0.028912
  11 H :    0.024527
  12 C :   -0.089139
  13 H :    0.039262
  14 H :    0.032059
  15 H :    0.058785
  16 S :    0.090526
  17 C :   -0.046111
  18 C :   -0.041629
  19 C :   -0.033911
  20 C :   -0.141704
  21 H :    0.011525
  22 C :    0.130785
  23 H :    0.015233
  24 H :    0.005625
  25 C :   -0.113741
  26 H :    0.023076
  27 H :    0.003350
  28 C :    0.026333
  29 H :    0.027526
  30 H :    0.014616
  31 H :    0.022338
  32 H :    0.078311
  33 H :    0.028840
Sum of atomic charges:    0.0000000

LOEWDIN ATOMIC CHARGES
----------------------
   0 S :    0.416321
   1 C :   -0.206841
   2 C :   -0.067674
   3 C :   -0.049744
   4 C :   -0.212251
   5 H :    0.026562
   6 C :   -0.026314
   7 H :    0.020193
   8 H :    0.033030
   9 C :   -0.030549
  10 H :    0.023216
  11 H :    0.022440
  12 C :   -0.071020
  13 H :    0.023745
  14 H :    0.032715
  15 H :    0.027484
  16 S :    0.373299
  17 C :   -0.164975
  18 C :   -0.066660
  19 C :   -0.051686
  20 C :   -0.179742
  21 H :    0.024169
  22 C :   -0.022129
  23 H :    0.021907
  24 H :    0.027941
  25 C :   -0.044427
  26 H :    0.028576
  27 H :    0.012365
  28 C :   -0.054861
  29 H :    0.028705
  30 H :    0.017373
  31 H :    0.028323
  32 H :    0.044082
  33 H :    0.016426

  Mayer bond orders larger than 0.100000
B(  0-S ,  1-C ) :   1.1542 B(  0-S ,  4-C ) :   1.1479 B(  1-C ,  2-C ) :   1.6099
B(  1-C , 32-H ) :   0.9548 B(  2-C ,  3-C ) :   1.2574 B(  2-C ,  6-C ) :   1.0131
B(  3-C ,  4-C ) :   1.5483 B(  3-C ,  5-H ) :   0.9935 B(  4-C , 20-C ) :   1.0370
B(  6-C ,  7-H ) :   0.9363 B(  6-C ,  8-H ) :   0.9428 B(  6-C ,  9-C ) :   1.0767
B(  9-C , 10-H ) :   0.9542 B(  9-C , 11-H ) :   0.9552 B(  9-C , 12-C ) :   1.0835
B( 12-C , 13-H ) :   0.9754 B( 12-C , 14-H ) :   0.9717 B( 12-C , 15-H ) :   0.9680
B( 16-S , 17-C ) :   1.1397 B( 16-S , 20-C ) :   1.1214 B( 17-C , 18-C ) :   1.6099
B( 17-C , 20-C ) :   0.1017 B( 17-C , 33-H ) :   0.9803 B( 18-C , 19-C ) :   1.2301
B( 18-C , 21-H ) :   0.9872 B( 19-C , 20-C ) :   1.6285 B( 19-C , 22-C ) :   1.0498
B( 22-C , 23-H ) :   0.9330 B( 22-C , 24-H ) :   0.9278 B( 22-C , 25-C ) :   1.0659
B( 25-C , 26-H ) :   0.9441 B( 25-C , 27-H ) :   0.9542 B( 25-C , 28-C ) :   1.0871
B( 28-C , 29-H ) :   0.9689 B( 28-C , 30-H ) :   0.9711 B( 28-C , 31-H ) :   0.9671

Dispersion correction           -0.015313004
FINAL SINGLE POINT ENERGY     -1339.868389582522

DIPOLE MOMENT
-------------
                                X             Y             Z
Electronic contribution:      1.12470       0.83769     -31.19413
Nuclear contribution   :     -1.24659      -0.89867      32.00562
                        -----------------------------------------
Total Dipole Moment    :     -0.12190      -0.06098       0.81149
                        -----------------------------------------
Magnitude (a.u.)       :      0.82286
Magnitude (Debye)      :      2.09154

Rotational constants in cm-1:     0.016599     0.010657     0.007023
Rotational constants in MHz :   497.634200   319.484287   210.551716

                             ****ORCA TERMINATED NORMALLY****
TOTAL RUN TIME: 0 days 0 hours 0 minutes 22 seconds 644 msec
