                         Program Version 4.2.1 -  RELEASE  -
|  1> ! wB97X-D3 SP def2-SVP
|  2> %pal
|  3> nprocs 24
|  4> end
|  5>
|  6> * xyz 0 1
|  7> S 	 -132.915 	 9.49016 	 -3.11021
|  8> C 	 -132.465 	 10.2761 	 -1.65858
|  9> C 	 -132.936 	 9.58774 	 -0.569997
| 10> C 	 -133.841 	 8.52902 	 -0.955539
| 11> C 	 -133.971 	 8.38671 	 -2.31106
| 12> H 	 -134.461 	 7.93893 	 -0.326021
| 13> C 	 -132.421 	 9.82638 	 0.867387
| 14> H 	 -132.336 	 10.8988 	 0.916736
| 15> H 	 -131.416 	 9.36156 	 0.914576
| 16> C 	 -133.461 	 9.45996 	 1.99701
| 17> H 	 -134.376 	 9.95903 	 1.82011
| 18> H 	 -133.871 	 8.43313 	 2.0085
| 19> C 	 -132.874 	 9.70647 	 3.44573
| 20> H 	 -132.012 	 9.05458 	 3.61373
| 21> H 	 -132.429 	 10.6958 	 3.40468
| 22> H 	 -133.6 	 9.62402 	 4.23328
| 23> S 	 -133.921 	 6.61688 	 -4.42526
| 24> C 	 -135.192 	 5.4735 	 -4.52212
| 25> C 	 -136.25 	 5.69847 	 -3.66898
| 26> C 	 -135.988 	 6.82004 	 -2.83653
| 27> C 	 -134.747 	 7.43509 	 -3.0752
| 28> H 	 -137.109 	 4.96833 	 -3.60823
| 29> C 	 -137.102 	 7.15678 	 -1.76237
| 30> H 	 -136.773 	 8.05061 	 -1.21409
| 31> H 	 -137.148 	 6.30998 	 -1.07597
| 32> C 	 -138.576 	 7.38471 	 -2.24176
| 33> H 	 -138.728 	 6.67843 	 -3.01016
| 34> H 	 -138.711 	 8.40124 	 -2.69195
| 35> C 	 -139.639 	 7.29192 	 -1.13978
| 36> H 	 -139.456 	 6.3116 	 -0.630006
| 37> H 	 -140.582 	 7.31871 	 -1.66537
| 38> H 	 -139.587 	 8.07303 	 -0.393656
| 39> H 	 -131.621 	 10.9906 	 -1.63816
| 40> H 	 -135.342 	 4.70939 	 -5.2294
| 41> *
| 42>
| 43>                          ****END OF INPUT****

CARTESIAN COORDINATES (ANGSTROEM)
---------------------------------
  S    -132.915000    9.490160   -3.110210
  C    -132.465000   10.276100   -1.658580
  C    -132.936000    9.587740   -0.569997
  C    -133.841000    8.529020   -0.955539
  C    -133.971000    8.386710   -2.311060
  H    -134.461000    7.938930   -0.326021
  C    -132.421000    9.826380    0.867387
  H    -132.336000   10.898800    0.916736
  H    -131.416000    9.361560    0.914576
  C    -133.461000    9.459960    1.997010
  H    -134.376000    9.959030    1.820110
  H    -133.871000    8.433130    2.008500
  C    -132.874000    9.706470    3.445730
  H    -132.012000    9.054580    3.613730
  H    -132.429000   10.695800    3.404680
  H    -133.600000    9.624020    4.233280
  S    -133.921000    6.616880   -4.425260
  C    -135.192000    5.473500   -4.522120
  C    -136.250000    5.698470   -3.668980
  C    -135.988000    6.820040   -2.836530
  C    -134.747000    7.435090   -3.075200
  H    -137.109000    4.968330   -3.608230
  C    -137.102000    7.156780   -1.762370
  H    -136.773000    8.050610   -1.214090
  H    -137.148000    6.309980   -1.075970
  C    -138.576000    7.384710   -2.241760
  H    -138.728000    6.678430   -3.010160
  H    -138.711000    8.401240   -2.691950
  C    -139.639000    7.291920   -1.139780
  H    -139.456000    6.311600   -0.630006
  H    -140.582000    7.318710   -1.665370
  H    -139.587000    8.073030   -0.393656
  H    -131.621000   10.990600   -1.638160
  H    -135.342000    4.709390   -5.229400

 Total Charge           Charge          ....    0
 Multiplicity           Mult            ....    1
 Number of Electrons    NEL             ....  134
 Basis Dimension        Dim             ....  322

ORBITAL ENERGIES
----------------

  NO   OCC          E(Eh)            E(eV)
   0   2.0000     -88.970090     -2420.9992
   1   2.0000     -88.960424     -2420.7362
   2   2.0000     -10.331349      -281.1303
   3   2.0000     -10.325400      -280.9684
   4   2.0000     -10.312341      -280.6131
   5   2.0000     -10.310709      -280.5686
   6   2.0000     -10.309527      -280.5365
   7   2.0000     -10.302176      -280.3365
   8   2.0000     -10.300435      -280.2891
   9   2.0000     -10.298015      -280.2232
  10   2.0000     -10.296077      -280.1705
  11   2.0000     -10.291354      -280.0420
  12   2.0000     -10.289886      -280.0020
  13   2.0000     -10.287043      -279.9247
  14   2.0000     -10.282377      -279.7977
  15   2.0000     -10.280504      -279.7467
  16   2.0000      -8.084855      -220.0001
  17   2.0000      -8.076741      -219.7793
  18   2.0000      -6.043340      -164.4476
  19   2.0000      -6.039385      -164.3400
  20   2.0000      -6.035613      -164.2374
  21   2.0000      -6.035228      -164.2269
  22   2.0000      -6.030968      -164.1110
  23   2.0000      -6.027509      -164.0169
  24   2.0000      -1.011604       -27.5272
  25   2.0000      -0.988155       -26.8891
  26   2.0000      -0.904418       -24.6105
  27   2.0000      -0.902483       -24.5578
  28   2.0000      -0.871776       -23.7222
  29   2.0000      -0.853830       -23.2339
  30   2.0000      -0.842616       -22.9287
  31   2.0000      -0.816519       -22.2186
  32   2.0000      -0.782075       -21.2814
  33   2.0000      -0.770022       -20.9534
  34   2.0000      -0.715653       -19.4739
  35   2.0000      -0.696310       -18.9475
  36   2.0000      -0.692506       -18.8441
  37   2.0000      -0.658238       -17.9116
  38   2.0000      -0.641923       -17.4676
  39   2.0000      -0.618929       -16.8419
  40   2.0000      -0.593180       -16.1412
  41   2.0000      -0.564840       -15.3701
  42   2.0000      -0.564020       -15.3478
  43   2.0000      -0.560070       -15.2403
  44   2.0000      -0.529916       -14.4198
  45   2.0000      -0.525115       -14.2891
  46   2.0000      -0.515068       -14.0157
  47   2.0000      -0.510084       -13.8801
  48   2.0000      -0.503443       -13.6994
  49   2.0000      -0.498919       -13.5763
  50   2.0000      -0.492959       -13.4141
  51   2.0000      -0.485902       -13.2221
  52   2.0000      -0.473172       -12.8757
  53   2.0000      -0.466831       -12.7031
  54   2.0000      -0.457815       -12.4578
  55   2.0000      -0.455188       -12.3863
  56   2.0000      -0.444777       -12.1030
  57   2.0000      -0.443836       -12.0774
  58   2.0000      -0.428727       -11.6663
  59   2.0000      -0.422124       -11.4866
  60   2.0000      -0.419018       -11.4021
  61   2.0000      -0.415896       -11.3171
  62   2.0000      -0.411796       -11.2055
  63   2.0000      -0.355499        -9.6736
  64   2.0000      -0.335775        -9.1369
  65   2.0000      -0.327117        -8.9013
  66   2.0000      -0.287518        -7.8238
  67   0.0000       0.027677         0.7531
  68   0.0000       0.074801         2.0354
  69   0.0000       0.110449         3.0055
  70   0.0000       0.122249         3.3266
  71   0.0000       0.131262         3.5718

MULLIKEN ATOMIC CHARGES
-----------------------
   0 S :    0.095779
   1 C :   -0.118729
   2 C :   -0.119094
   3 C :    0.033304
   4 C :   -0.144631
   5 H :   -0.007002
   6 C :    0.070270
   7 H :    0.029321
   8 H :    0.060435
   9 C :   -0.106540
  10 H :    0.019503
  11 H :    0.032454
  12 C :   -0.028459
  13 H :    0.033020
  14 H :    0.020640
  15 H :    0.039979
  16 S :    0.116113
  17 C :   -0.050242
  18 C :   -0.088799
  19 C :   -0.033376
  20 C :   -0.135473
  21 H :    0.048891
  22 C :    0.047376
  23 H :    0.028605
  24 H :    0.027701
  25 C :   -0.079937
  26 H :    0.014552
  27 H :    0.038211
  28 C :   -0.046767
  29 H :    0.029587
  30 H :    0.041581
  31 H :    0.038376
  32 H :    0.058969
  33 H :    0.034383
Sum of atomic charges:    0.0000000

LOEWDIN ATOMIC CHARGES
----------------------
   0 S :    0.421608
   1 C :   -0.217176
   2 C :   -0.063907
   3 C :   -0.065606
   4 C :   -0.196991
   5 H :    0.023615
   6 C :   -0.026576
   7 H :    0.031891
   8 H :    0.039718
   9 C :   -0.043894
  10 H :    0.019061
  11 H :    0.022620
  12 C :   -0.061081
  13 H :    0.026972
  14 H :    0.022481
  15 H :    0.024050
  16 S :    0.413501
  17 C :   -0.186477
  18 C :   -0.083195
  19 C :   -0.049908
  20 C :   -0.195236
  21 H :    0.043903
  22 C :   -0.031989
  23 H :    0.026705
  24 H :    0.027894
  25 C :   -0.039680
  26 H :    0.012747
  27 H :    0.030129
  28 C :   -0.060572
  29 H :    0.026717
  30 H :    0.029874
  31 H :    0.023671
  32 H :    0.033632
  33 H :    0.021499

  Mayer bond orders larger than 0.100000
B(  0-S ,  1-C ) :   1.1424 B(  0-S ,  4-C ) :   1.1601 B(  1-C ,  2-C ) :   1.6226
B(  1-C , 32-H ) :   0.9667 B(  2-C ,  3-C ) :   1.2350 B(  2-C ,  6-C ) :   1.0001
B(  3-C ,  4-C ) :   1.5734 B(  3-C ,  5-H ) :   1.0016 B(  4-C , 20-C ) :   1.0415
B(  6-C ,  7-H ) :   0.9409 B(  6-C ,  8-H ) :   0.9452 B(  6-C ,  9-C ) :   1.0567
B(  9-C , 10-H ) :   0.9599 B(  9-C , 11-H ) :   0.9547 B(  9-C , 12-C ) :   1.0741
B( 12-C , 13-H ) :   0.9778 B( 12-C , 14-H ) :   0.9760 B( 12-C , 15-H ) :   0.9759
B( 16-S , 17-C ) :   1.1668 B( 16-S , 20-C ) :   1.1249 B( 17-C , 18-C ) :   1.6251
B( 17-C , 33-H ) :   0.9623 B( 18-C , 19-C ) :   1.2441 B( 18-C , 21-H ) :   0.9761
B( 19-C , 20-C ) :   1.6091 B( 19-C , 22-C ) :   1.0260 B( 22-C , 23-H ) :   0.9399
B( 22-C , 24-H ) :   0.9414 B( 22-C , 25-C ) :   1.0579 B( 25-C , 26-H ) :   0.9584
B( 25-C , 27-H ) :   0.9540 B( 25-C , 28-C ) :   1.0799 B( 28-C , 29-H ) :   0.9742
B( 28-C , 30-H ) :   0.9735 B( 28-C , 31-H ) :   0.9786

Dispersion correction           -0.013092146
FINAL SINGLE POINT ENERGY     -1339.873177466857

DIPOLE MOMENT
-------------
                                X             Y             Z
Electronic contribution:     15.34564      -2.41278     -26.81279
Nuclear contribution   :    -15.66177       2.22083      27.35292
                        -----------------------------------------
Total Dipole Moment    :     -0.31613      -0.19195       0.54013
                        -----------------------------------------
Magnitude (a.u.)       :      0.65461
Magnitude (Debye)      :      1.66390

Rotational constants in cm-1:     0.015651     0.008476     0.006093
Rotational constants in MHz :   469.200142   254.118683   182.658248

                             ****ORCA TERMINATED NORMALLY****
TOTAL RUN TIME: 0 days 0 hours 0 minutes 20 seconds 847 msec
