                         Program Version 4.2.1 -  RELEASE  -
|  1> ! wB97X-D3 SP def2-SVP
|  2> %pal
|  3> nprocs 24
|  4> end
|  5>
|  6> * xyz 0 1
|  7> S 	 -41.4126 	 0.27219 	 -7.29383
|  8> C 	 -41.2756 	 1.01123 	 -5.68114
|  9> C 	 -42.2244 	 2.00609 	 -5.52275
| 10> C 	 -43.1673 	 1.96889 	 -6.59858
| 11> C 	 -42.839 	 1.16169 	 -7.65891
| 12> H 	 -44.0206 	 2.70923 	 -6.69471
| 13> C 	 -42.1848 	 3.15 	 -4.5578
| 14> H 	 -41.4609 	 2.90102 	 -3.74254
| 15> H 	 -43.2075 	 3.01895 	 -4.17793
| 16> C 	 -41.9558 	 4.56246 	 -5.08443
| 17> H 	 -40.9878 	 4.74187 	 -5.46518
| 18> H 	 -42.695 	 4.76324 	 -5.84948
| 19> C 	 -42.2676 	 5.59424 	 -4.01644
| 20> H 	 -41.666 	 5.34117 	 -3.11253
| 21> H 	 -42.083 	 6.66455 	 -4.26872
| 22> H 	 -43.3176 	 5.47515 	 -3.77793
| 23> S 	 -42.7136 	 1.71903 	 -10.2812
| 24> C 	 -43.9295 	 1.29506 	 -11.4314
| 25> C 	 -45.0613 	 0.942235 	 -10.7368
| 26> C 	 -44.9397 	 0.80038 	 -9.31039
| 27> C 	 -43.5747 	 1.1077 	 -8.92959
| 28> H 	 -45.9541 	 0.642317 	 -11.346
| 29> C 	 -46.0234 	 0.361553 	 -8.35655
| 30> H 	 -45.4767 	 0.0113407 	 -7.45664
| 31> H 	 -46.6374 	 -0.417517 	 -8.79163
| 32> C 	 -46.9662 	 1.4661 	 -7.95803
| 33> H 	 -47.4737 	 1.79123 	 -8.8143
| 34> H 	 -46.2977 	 2.27048 	 -7.58561
| 35> C 	 -47.9306 	 1.02997 	 -6.8508
| 36> H 	 -47.4834 	 0.551784 	 -6.05974
| 37> H 	 -48.532 	 0.201853 	 -7.25043
| 38> H 	 -48.7735 	 1.71521 	 -6.49864
| 39> H 	 -40.3216 	 0.91315 	 -5.09996
| 40> H 	 -43.8907 	 1.44245 	 -12.5117
| 41> *
| 42>
| 43>                          ****END OF INPUT****

CARTESIAN COORDINATES (ANGSTROEM)
---------------------------------
  S    -41.412600    0.272190   -7.293830
  C    -41.275600    1.011230   -5.681140
  C    -42.224400    2.006090   -5.522750
  C    -43.167300    1.968890   -6.598580
  C    -42.839000    1.161690   -7.658910
  H    -44.020600    2.709230   -6.694710
  C    -42.184800    3.150000   -4.557800
  H    -41.460900    2.901020   -3.742540
  H    -43.207500    3.018950   -4.177930
  C    -41.955800    4.562460   -5.084430
  H    -40.987800    4.741870   -5.465180
  H    -42.695000    4.763240   -5.849480
  C    -42.267600    5.594240   -4.016440
  H    -41.666000    5.341170   -3.112530
  H    -42.083000    6.664550   -4.268720
  H    -43.317600    5.475150   -3.777930
  S    -42.713600    1.719030  -10.281200
  C    -43.929500    1.295060  -11.431400
  C    -45.061300    0.942235  -10.736800
  C    -44.939700    0.800380   -9.310390
  C    -43.574700    1.107700   -8.929590
  H    -45.954100    0.642317  -11.346000
  C    -46.023400    0.361553   -8.356550
  H    -45.476700    0.011341   -7.456640
  H    -46.637400   -0.417517   -8.791630
  C    -46.966200    1.466100   -7.958030
  H    -47.473700    1.791230   -8.814300
  H    -46.297700    2.270480   -7.585610
  C    -47.930600    1.029970   -6.850800
  H    -47.483400    0.551784   -6.059740
  H    -48.532000    0.201853   -7.250430
  H    -48.773500    1.715210   -6.498640
  H    -40.321600    0.913150   -5.099960
  H    -43.890700    1.442450  -12.511700

 Total Charge           Charge          ....    0
 Multiplicity           Mult            ....    1
 Number of Electrons    NEL             ....  134
 Basis Dimension        Dim             ....  322

ORBITAL ENERGIES
----------------

  NO   OCC          E(Eh)            E(eV)
   0   2.0000     -88.966625     -2420.9049
   1   2.0000     -88.964092     -2420.8360
   2   2.0000     -10.330825      -281.1160
   3   2.0000     -10.329993      -281.0934
   4   2.0000     -10.319649      -280.8119
   5   2.0000     -10.315289      -280.6933
   6   2.0000     -10.311404      -280.5876
   7   2.0000     -10.303597      -280.3751
   8   2.0000     -10.298144      -280.2267
   9   2.0000     -10.297385      -280.2061
  10   2.0000     -10.297223      -280.2017
  11   2.0000     -10.290010      -280.0054
  12   2.0000     -10.284689      -279.8606
  13   2.0000     -10.282678      -279.8059
  14   2.0000     -10.281738      -279.7803
  15   2.0000     -10.276458      -279.6366
  16   2.0000      -8.081435      -219.9070
  17   2.0000      -8.079815      -219.8630
  18   2.0000      -6.039996      -164.3567
  19   2.0000      -6.038190      -164.3075
  20   2.0000      -6.035925      -164.2459
  21   2.0000      -6.034011      -164.1938
  22   2.0000      -6.032112      -164.1421
  23   2.0000      -6.030813      -164.1068
  24   2.0000      -1.009647       -27.4739
  25   2.0000      -0.987405       -26.8687
  26   2.0000      -0.919822       -25.0296
  27   2.0000      -0.916651       -24.9433
  28   2.0000      -0.872771       -23.7493
  29   2.0000      -0.850135       -23.1334
  30   2.0000      -0.847463       -23.0606
  31   2.0000      -0.813878       -22.1468
  32   2.0000      -0.781212       -21.2579
  33   2.0000      -0.771040       -20.9811
  34   2.0000      -0.708060       -19.2673
  35   2.0000      -0.702411       -19.1136
  36   2.0000      -0.694654       -18.9025
  37   2.0000      -0.653906       -17.7937
  38   2.0000      -0.637195       -17.3390
  39   2.0000      -0.622348       -16.9350
  40   2.0000      -0.594862       -16.1870
  41   2.0000      -0.575934       -15.6720
  42   2.0000      -0.572931       -15.5902
  43   2.0000      -0.564303       -15.3555
  44   2.0000      -0.525444       -14.2981
  45   2.0000      -0.524502       -14.2724
  46   2.0000      -0.519991       -14.1497
  47   2.0000      -0.511919       -13.9300
  48   2.0000      -0.506417       -13.7803
  49   2.0000      -0.501533       -13.6474
  50   2.0000      -0.492180       -13.3929
  51   2.0000      -0.479910       -13.0590
  52   2.0000      -0.467281       -12.7154
  53   2.0000      -0.461341       -12.5537
  54   2.0000      -0.459911       -12.5148
  55   2.0000      -0.451756       -12.2929
  56   2.0000      -0.447410       -12.1746
  57   2.0000      -0.437996       -11.9185
  58   2.0000      -0.434593       -11.8259
  59   2.0000      -0.424076       -11.5397
  60   2.0000      -0.421438       -11.4679
  61   2.0000      -0.419292       -11.4095
  62   2.0000      -0.414662       -11.2835
  63   2.0000      -0.341959        -9.3052
  64   2.0000      -0.328827        -8.9478
  65   2.0000      -0.325255        -8.8506
  66   2.0000      -0.300230        -8.1697
  67   0.0000       0.030774         0.8374
  68   0.0000       0.067104         1.8260
  69   0.0000       0.112713         3.0671
  70   0.0000       0.122151         3.3239
  71   0.0000       0.124417         3.3856

MULLIKEN ATOMIC CHARGES
-----------------------
   0 S :    0.114785
   1 C :   -0.144773
   2 C :   -0.079552
   3 C :    0.000279
   4 C :   -0.153765
   5 H :    0.037363
   6 C :    0.025216
   7 H :    0.027462
   8 H :    0.034495
   9 C :   -0.009124
  10 H :    0.027870
  11 H :    0.021778
  12 C :   -0.072732
  13 H :    0.029562
  14 H :    0.047208
  15 H :    0.025457
  16 S :    0.113695
  17 C :   -0.094521
  18 C :   -0.066987
  19 C :   -0.015508
  20 C :   -0.187226
  21 H :    0.033928
  22 C :    0.051989
  23 H :    0.036345
  24 H :    0.020731
  25 C :   -0.046065
  26 H :    0.017225
  27 H :    0.023920
  28 C :   -0.019468
  29 H :    0.009142
  30 H :    0.006645
  31 H :    0.048884
  32 H :    0.071022
  33 H :    0.064721
Sum of atomic charges:    0.0000000

LOEWDIN ATOMIC CHARGES
----------------------
   0 S :    0.410398
   1 C :   -0.200506
   2 C :   -0.066920
   3 C :   -0.071969
   4 C :   -0.215706
   5 H :    0.036721
   6 C :   -0.034016
   7 H :    0.033496
   8 H :    0.038813
   9 C :   -0.033466
  10 H :    0.020519
  11 H :    0.024881
  12 C :   -0.065793
  13 H :    0.025084
  14 H :    0.030655
  15 H :    0.022102
  16 S :    0.438669
  17 C :   -0.204190
  18 C :   -0.082857
  19 C :   -0.051834
  20 C :   -0.210492
  21 H :    0.037189
  22 C :   -0.031347
  23 H :    0.037426
  24 H :    0.027739
  25 C :   -0.033669
  26 H :    0.016811
  27 H :    0.023011
  28 C :   -0.071075
  29 H :    0.013206
  30 H :    0.025951
  31 H :    0.037552
  32 H :    0.037378
  33 H :    0.036236

  Mayer bond orders larger than 0.100000
B(  0-S ,  1-C ) :   1.1313 B(  0-S ,  4-C ) :   1.1626 B(  1-C ,  2-C ) :   1.6178
B(  1-C , 32-H ) :   0.9585 B(  2-C ,  3-C ) :   1.2380 B(  2-C ,  6-C ) :   1.0158
B(  3-C ,  4-C ) :   1.5804 B(  3-C ,  5-H ) :   0.9765 B(  4-C , 20-C ) :   1.0121
B(  6-C ,  7-H ) :   0.9405 B(  6-C ,  8-H ) :   0.9343 B(  6-C ,  9-C ) :   1.0694
B(  9-C , 10-H ) :   0.9558 B(  9-C , 11-H ) :   0.9502 B(  9-C , 12-C ) :   1.0767
B( 12-C , 13-H ) :   0.9746 B( 12-C , 14-H ) :   0.9746 B( 12-C , 15-H ) :   0.9776
B( 16-S , 17-C ) :   1.1595 B( 16-S , 20-C ) :   1.1968 B( 17-C , 18-C ) :   1.5884
B( 17-C , 20-C ) :   0.1092 B( 17-C , 33-H ) :   0.9684 B( 18-C , 19-C ) :   1.2679
B( 18-C , 21-H ) :   0.9780 B( 19-C , 20-C ) :   1.5254 B( 19-C , 22-C ) :   1.0572
B( 22-C , 23-H ) :   0.9297 B( 22-C , 24-H ) :   0.9318 B( 22-C , 25-C ) :   1.0680
B( 25-C , 26-H ) :   0.9548 B( 25-C , 27-H ) :   0.9517 B( 25-C , 28-C ) :   1.0801
B( 28-C , 29-H ) :   0.9719 B( 28-C , 30-H ) :   0.9643 B( 28-C , 31-H ) :   0.9743

Dispersion correction           -0.013901004
FINAL SINGLE POINT ENERGY     -1339.870857527560

DIPOLE MOMENT
-------------
                                X             Y             Z
Electronic contribution:     16.65615     -12.84146     -17.93743
Nuclear contribution   :    -17.00510      13.23666      18.11992
                        -----------------------------------------
Total Dipole Moment    :     -0.34895       0.39520       0.18249
                        -----------------------------------------
Magnitude (a.u.)       :      0.55790
Magnitude (Debye)      :      1.41806

Rotational constants in cm-1:     0.016201     0.008746     0.007115
Rotational constants in MHz :   485.681039   262.203607   213.289233

                             ****ORCA TERMINATED NORMALLY****
TOTAL RUN TIME: 0 days 0 hours 0 minutes 21 seconds 338 msec
