                         Program Version 4.2.1 -  RELEASE  -
|  1> ! wB97X-D3 SP def2-SVP
|  2> %pal
|  3> nprocs 24
|  4> end
|  5>
|  6> * xyz 0 1
|  7> S 	 14.9664 	 -11.5731 	 -127.849
|  8> C 	 13.6981 	 -11.4806 	 -126.599
|  9> C 	 14.0604 	 -12.1737 	 -125.453
| 10> C 	 15.3874 	 -12.6088 	 -125.471
| 11> C 	 16.094 	 -12.1322 	 -126.592
| 12> H 	 15.8998 	 -13.1963 	 -124.654
| 13> C 	 13.1266 	 -12.6502 	 -124.356
| 14> H 	 12.2652 	 -12.0751 	 -124.305
| 15> H 	 13.454 	 -12.4239 	 -123.358
| 16> C 	 12.7763 	 -14.2212 	 -124.271
| 17> H 	 12.4731 	 -14.5595 	 -125.248
| 18> H 	 13.6943 	 -14.7052 	 -124.116
| 19> C 	 11.7455 	 -14.535 	 -123.189
| 20> H 	 10.9169 	 -13.8553 	 -123.388
| 21> H 	 11.3783 	 -15.5497 	 -123.243
| 22> H 	 12.1002 	 -14.3804 	 -122.142
| 23> S 	 17.9264 	 -13.0327 	 -128.387
| 24> C 	 19.6361 	 -12.9186 	 -128.103
| 25> C 	 19.9224 	 -12.4142 	 -126.852
| 26> C 	 18.7145 	 -12.0742 	 -126.155
| 27> C 	 17.524 	 -12.3247 	 -126.865
| 28> H 	 20.9005 	 -12.3148 	 -126.45
| 29> C 	 18.7249 	 -11.3365 	 -124.778
| 30> H 	 19.5135 	 -11.6969 	 -124.164
| 31> H 	 17.8173 	 -11.6164 	 -124.239
| 32> C 	 19.0053 	 -9.8214 	 -124.829
| 33> H 	 20.0033 	 -9.72396 	 -125.362
| 34> H 	 19.3334 	 -9.55935 	 -123.793
| 35> C 	 17.7834 	 -8.95582 	 -125.236
| 36> H 	 17.9294 	 -7.91164 	 -125.012
| 37> H 	 17.0063 	 -9.17631 	 -124.583
| 38> H 	 17.5521 	 -9.02745 	 -126.331
| 39> H 	 12.6619 	 -11.2324 	 -126.682
| 40> H 	 20.3922 	 -13.182 	 -128.83
| 41> *
| 42>
| 43>                          ****END OF INPUT****

CARTESIAN COORDINATES (ANGSTROEM)
---------------------------------
  S     14.966400  -11.573100  -127.849000
  C     13.698100  -11.480600  -126.599000
  C     14.060400  -12.173700  -125.453000
  C     15.387400  -12.608800  -125.471000
  C     16.094000  -12.132200  -126.592000
  H     15.899800  -13.196300  -124.654000
  C     13.126600  -12.650200  -124.356000
  H     12.265200  -12.075100  -124.305000
  H     13.454000  -12.423900  -123.358000
  C     12.776300  -14.221200  -124.271000
  H     12.473100  -14.559500  -125.248000
  H     13.694300  -14.705200  -124.116000
  C     11.745500  -14.535000  -123.189000
  H     10.916900  -13.855300  -123.388000
  H     11.378300  -15.549700  -123.243000
  H     12.100200  -14.380400  -122.142000
  S     17.926400  -13.032700  -128.387000
  C     19.636100  -12.918600  -128.103000
  C     19.922400  -12.414200  -126.852000
  C     18.714500  -12.074200  -126.155000
  C     17.524000  -12.324700  -126.865000
  H     20.900500  -12.314800  -126.450000
  C     18.724900  -11.336500  -124.778000
  H     19.513500  -11.696900  -124.164000
  H     17.817300  -11.616400  -124.239000
  C     19.005300   -9.821400  -124.829000
  H     20.003300   -9.723960  -125.362000
  H     19.333400   -9.559350  -123.793000
  C     17.783400   -8.955820  -125.236000
  H     17.929400   -7.911640  -125.012000
  H     17.006300   -9.176310  -124.583000
  H     17.552100   -9.027450  -126.331000
  H     12.661900  -11.232400  -126.682000
  H     20.392200  -13.182000  -128.830000

 Total Charge           Charge          ....    0
 Multiplicity           Mult            ....    1
 Number of Electrons    NEL             ....  134
 Basis Dimension        Dim             ....  322

ORBITAL ENERGIES
----------------

  NO   OCC          E(Eh)            E(eV)
   0   2.0000     -88.973800     -2421.1002
   1   2.0000     -88.964197     -2420.8389
   2   2.0000     -10.336970      -281.2833
   3   2.0000     -10.326657      -281.0026
   4   2.0000     -10.317023      -280.7405
   5   2.0000     -10.315347      -280.6949
   6   2.0000     -10.306083      -280.4428
   7   2.0000     -10.300588      -280.2933
   8   2.0000     -10.298619      -280.2397
   9   2.0000     -10.294101      -280.1167
  10   2.0000     -10.291155      -280.0366
  11   2.0000     -10.287814      -279.9457
  12   2.0000     -10.287053      -279.9250
  13   2.0000     -10.286022      -279.8969
  14   2.0000     -10.283515      -279.8287
  15   2.0000     -10.269737      -279.4537
  16   2.0000      -8.087035      -220.0594
  17   2.0000      -8.079708      -219.8600
  18   2.0000      -6.045674      -164.5111
  19   2.0000      -6.042047      -164.4125
  20   2.0000      -6.038139      -164.3061
  21   2.0000      -6.037445      -164.2872
  22   2.0000      -6.034004      -164.1936
  23   2.0000      -6.030617      -164.1014
  24   2.0000      -1.005422       -27.3589
  25   2.0000      -0.983131       -26.7524
  26   2.0000      -0.906483       -24.6667
  27   2.0000      -0.899249       -24.4698
  28   2.0000      -0.869807       -23.6687
  29   2.0000      -0.849159       -23.1068
  30   2.0000      -0.841406       -22.8958
  31   2.0000      -0.812645       -22.1132
  32   2.0000      -0.783281       -21.3142
  33   2.0000      -0.773511       -21.0483
  34   2.0000      -0.711846       -19.3703
  35   2.0000      -0.702421       -19.1139
  36   2.0000      -0.690718       -18.7954
  37   2.0000      -0.660876       -17.9833
  38   2.0000      -0.637082       -17.3359
  39   2.0000      -0.619749       -16.8642
  40   2.0000      -0.592923       -16.1343
  41   2.0000      -0.570605       -15.5270
  42   2.0000      -0.558410       -15.1951
  43   2.0000      -0.542884       -14.7726
  44   2.0000      -0.537455       -14.6249
  45   2.0000      -0.522557       -14.2195
  46   2.0000      -0.512674       -13.9506
  47   2.0000      -0.507898       -13.8206
  48   2.0000      -0.500853       -13.6289
  49   2.0000      -0.496092       -13.4994
  50   2.0000      -0.490640       -13.3510
  51   2.0000      -0.479074       -13.0363
  52   2.0000      -0.472301       -12.8520
  53   2.0000      -0.462043       -12.5728
  54   2.0000      -0.460640       -12.5346
  55   2.0000      -0.452957       -12.3256
  56   2.0000      -0.442866       -12.0510
  57   2.0000      -0.438563       -11.9339
  58   2.0000      -0.427307       -11.6276
  59   2.0000      -0.425845       -11.5878
  60   2.0000      -0.424290       -11.5455
  61   2.0000      -0.422025       -11.4839
  62   2.0000      -0.403038       -10.9672
  63   2.0000      -0.347107        -9.4453
  64   2.0000      -0.333848        -9.0845
  65   2.0000      -0.329372        -8.9627
  66   2.0000      -0.287172        -7.8143
  67   0.0000       0.021300         0.5796
  68   0.0000       0.065912         1.7935
  69   0.0000       0.098735         2.6867
  70   0.0000       0.123732         3.3669
  71   0.0000       0.135066         3.6753

MULLIKEN ATOMIC CHARGES
-----------------------
   0 S :    0.113632
   1 C :   -0.080320
   2 C :   -0.079291
   3 C :    0.006446
   4 C :   -0.143596
   5 H :    0.047757
   6 C :    0.070623
   7 H :   -0.017366
   8 H :    0.007347
   9 C :   -0.039576
  10 H :    0.025473
  11 H :    0.013974
  12 C :   -0.056405
  13 H :    0.031215
  14 H :    0.039865
  15 H :    0.039886
  16 S :    0.099051
  17 C :   -0.089680
  18 C :   -0.015052
  19 C :   -0.059120
  20 C :   -0.154252
  21 H :    0.010239
  22 C :    0.080745
  23 H :    0.003672
  24 H :    0.010670
  25 C :   -0.098225
  26 H :    0.027490
  27 H :    0.020830
  28 C :   -0.003216
  29 H :    0.019888
  30 H :    0.016451
  31 H :    0.058552
  32 H :    0.033093
  33 H :    0.059197
Sum of atomic charges:   -0.0000000

LOEWDIN ATOMIC CHARGES
----------------------
   0 S :    0.388901
   1 C :   -0.186640
   2 C :   -0.064455
   3 C :   -0.062324
   4 C :   -0.180337
   5 H :    0.043199
   6 C :   -0.031483
   7 H :    0.015147
   8 H :    0.026860
   9 C :   -0.026040
  10 H :    0.022003
  11 H :    0.013539
  12 C :   -0.065597
  13 H :    0.026703
  14 H :    0.028234
  15 H :    0.030033
  16 S :    0.418766
  17 C :   -0.186306
  18 C :   -0.067832
  19 C :   -0.055025
  20 C :   -0.212124
  21 H :    0.028872
  22 C :   -0.033247
  23 H :    0.024043
  24 H :    0.024227
  25 C :   -0.044232
  26 H :    0.027442
  27 H :    0.023857
  28 C :   -0.063330
  29 H :    0.024579
  30 H :    0.020150
  31 H :    0.037335
  32 H :    0.025414
  33 H :    0.029669

  Mayer bond orders larger than 0.100000
B(  0-S ,  1-C ) :   1.1200 B(  0-S ,  4-C ) :   1.1461 B(  1-C ,  2-C ) :   1.6165
B(  1-C ,  4-C ) :   0.1075 B(  1-C , 32-H ) :   0.9629 B(  2-C ,  3-C ) :   1.2539
B(  2-C ,  6-C ) :   1.0402 B(  3-C ,  4-C ) :   1.5502 B(  3-C ,  5-H ) :   0.9800
B(  4-C , 20-C ) :   1.0491 B(  6-C ,  7-H ) :   0.9332 B(  6-C ,  8-H ) :   0.9361
B(  6-C ,  9-C ) :   1.0419 B(  9-C , 10-H ) :   0.9584 B(  9-C , 11-H ) :   0.9554
B(  9-C , 12-C ) :   1.0790 B( 12-C , 13-H ) :   0.9768 B( 12-C , 14-H ) :   0.9735
B( 12-C , 15-H ) :   0.9756 B( 16-S , 17-C ) :   1.1688 B( 16-S , 20-C ) :   1.1480
B( 17-C , 18-C ) :   1.5795 B( 17-C , 33-H ) :   0.9683 B( 18-C , 19-C ) :   1.2633
B( 18-C , 21-H ) :   0.9983 B( 19-C , 20-C ) :   1.5791 B( 19-C , 22-C ) :   1.0407
B( 22-C , 23-H ) :   0.9292 B( 22-C , 24-H ) :   0.9378 B( 22-C , 25-C ) :   1.0795
B( 25-C , 26-H ) :   0.9534 B( 25-C , 27-H ) :   0.9546 B( 25-C , 28-C ) :   1.0682
B( 28-C , 29-H ) :   0.9722 B( 28-C , 30-H ) :   0.9700 B( 28-C , 31-H ) :   0.9760

Dispersion correction           -0.014566114
FINAL SINGLE POINT ENERGY     -1339.863152635601

DIPOLE MOMENT
-------------
                                X             Y             Z
Electronic contribution:      7.68987      -2.61919     -23.61959
Nuclear contribution   :     -7.69619       2.48990      24.24745
                        -----------------------------------------
Total Dipole Moment    :     -0.00632      -0.12928       0.62786
                        -----------------------------------------
Magnitude (a.u.)       :      0.64106
Magnitude (Debye)      :      1.62945

Rotational constants in cm-1:     0.019956     0.007831     0.007102
Rotational constants in MHz :   598.264297   234.776290   212.923604

                             ****ORCA TERMINATED NORMALLY****
TOTAL RUN TIME: 0 days 0 hours 0 minutes 21 seconds 671 msec
