                         Program Version 4.2.1 -  RELEASE  -
|  1> ! wB97X-D3 SP def2-SVP
|  2> %pal
|  3> nprocs 24
|  4> end
|  5>
|  6> * xyz 0 1
|  7> S 	 -60.9535 	 -58.3121 	 -76.5016
|  8> C 	 -61.6045 	 -57.7204 	 -75.0485
|  9> C 	 -62.0001 	 -56.398 	 -75.0801
| 10> C 	 -61.6109 	 -55.7841 	 -76.3016
| 11> C 	 -60.9942 	 -56.6822 	 -77.1577
| 12> H 	 -61.7873 	 -54.7482 	 -76.7029
| 13> C 	 -62.5743 	 -55.6847 	 -73.8302
| 14> H 	 -61.9572 	 -55.8926 	 -72.958
| 15> H 	 -63.4724 	 -56.3266 	 -73.511
| 16> C 	 -62.6613 	 -54.1569 	 -73.8087
| 17> H 	 -63.0178 	 -53.8438 	 -74.8636
| 18> H 	 -63.4399 	 -53.8099 	 -73.149
| 19> C 	 -61.3617 	 -53.3753 	 -73.4442
| 20> H 	 -61.4228 	 -52.3247 	 -73.6375
| 21> H 	 -61.1036 	 -53.5787 	 -72.4006
| 22> H 	 -60.5148 	 -53.6383 	 -74.0295
| 23> S 	 -60.9826 	 -57.1354 	 -79.8797
| 24> C 	 -59.9348 	 -56.3052 	 -80.9383
| 25> C 	 -59.1743 	 -55.4428 	 -80.1537
| 26> C 	 -59.4951 	 -55.3661 	 -78.7814
| 27> C 	 -60.4557 	 -56.3106 	 -78.4543
| 28> H 	 -58.3626 	 -54.9668 	 -80.6567
| 29> C 	 -58.7323 	 -54.6275 	 -77.7149
| 30> H 	 -59.0607 	 -54.964 	 -76.7023
| 31> H 	 -59.264 	 -53.7117 	 -77.7366
| 32> C 	 -57.2379 	 -54.4062 	 -77.838
| 33> H 	 -56.8793 	 -53.7424 	 -77.0359
| 34> H 	 -57.0373 	 -53.89 	 -78.6881
| 35> C 	 -56.5608 	 -55.7766 	 -77.8628
| 36> H 	 -55.4688 	 -55.699 	 -77.896
| 37> H 	 -56.7795 	 -56.3442 	 -78.7536
| 38> H 	 -56.9734 	 -56.3945 	 -77.0755
| 39> H 	 -61.9043 	 -58.4398 	 -74.3028
| 40> H 	 -59.6775 	 -56.5253 	 -81.9498
| 41> *
| 42>
| 43>                          ****END OF INPUT****

CARTESIAN COORDINATES (ANGSTROEM)
---------------------------------
  S    -60.953500  -58.312100  -76.501600
  C    -61.604500  -57.720400  -75.048500
  C    -62.000100  -56.398000  -75.080100
  C    -61.610900  -55.784100  -76.301600
  C    -60.994200  -56.682200  -77.157700
  H    -61.787300  -54.748200  -76.702900
  C    -62.574300  -55.684700  -73.830200
  H    -61.957200  -55.892600  -72.958000
  H    -63.472400  -56.326600  -73.511000
  C    -62.661300  -54.156900  -73.808700
  H    -63.017800  -53.843800  -74.863600
  H    -63.439900  -53.809900  -73.149000
  C    -61.361700  -53.375300  -73.444200
  H    -61.422800  -52.324700  -73.637500
  H    -61.103600  -53.578700  -72.400600
  H    -60.514800  -53.638300  -74.029500
  S    -60.982600  -57.135400  -79.879700
  C    -59.934800  -56.305200  -80.938300
  C    -59.174300  -55.442800  -80.153700
  C    -59.495100  -55.366100  -78.781400
  C    -60.455700  -56.310600  -78.454300
  H    -58.362600  -54.966800  -80.656700
  C    -58.732300  -54.627500  -77.714900
  H    -59.060700  -54.964000  -76.702300
  H    -59.264000  -53.711700  -77.736600
  C    -57.237900  -54.406200  -77.838000
  H    -56.879300  -53.742400  -77.035900
  H    -57.037300  -53.890000  -78.688100
  C    -56.560800  -55.776600  -77.862800
  H    -55.468800  -55.699000  -77.896000
  H    -56.779500  -56.344200  -78.753600
  H    -56.973400  -56.394500  -77.075500
  H    -61.904300  -58.439800  -74.302800
  H    -59.677500  -56.525300  -81.949800

 Total Charge           Charge          ....    0
 Multiplicity           Mult            ....    1
 Number of Electrons    NEL             ....  134
 Basis Dimension        Dim             ....  322

ORBITAL ENERGIES
----------------

  NO   OCC          E(Eh)            E(eV)
   0   2.0000     -88.969382     -2420.9800
   1   2.0000     -88.960938     -2420.7502
   2   2.0000     -10.326302      -280.9930
   3   2.0000     -10.318859      -280.7904
   4   2.0000     -10.310820      -280.5717
   5   2.0000     -10.308788      -280.5164
   6   2.0000     -10.305514      -280.4273
   7   2.0000     -10.301191      -280.3097
   8   2.0000     -10.299748      -280.2704
   9   2.0000     -10.298974      -280.2493
  10   2.0000     -10.298057      -280.2244
  11   2.0000     -10.288073      -279.9527
  12   2.0000     -10.283161      -279.8190
  13   2.0000     -10.278486      -279.6918
  14   2.0000     -10.278423      -279.6901
  15   2.0000     -10.269245      -279.4404
  16   2.0000      -8.084899      -220.0013
  17   2.0000      -8.076717      -219.7787
  18   2.0000      -6.043137      -164.4421
  19   2.0000      -6.039373      -164.3397
  20   2.0000      -6.035833      -164.2434
  21   2.0000      -6.035126      -164.2241
  22   2.0000      -6.030804      -164.1065
  23   2.0000      -6.027800      -164.0248
  24   2.0000      -1.012754       -27.5584
  25   2.0000      -0.991536       -26.9811
  26   2.0000      -0.914362       -24.8811
  27   2.0000      -0.906559       -24.6687
  28   2.0000      -0.873144       -23.7595
  29   2.0000      -0.852262       -23.1912
  30   2.0000      -0.845459       -23.0061
  31   2.0000      -0.815892       -22.2015
  32   2.0000      -0.785265       -21.3682
  33   2.0000      -0.774586       -21.0776
  34   2.0000      -0.713243       -19.4083
  35   2.0000      -0.706586       -19.2272
  36   2.0000      -0.691325       -18.8119
  37   2.0000      -0.653011       -17.7693
  38   2.0000      -0.644035       -17.5251
  39   2.0000      -0.622290       -16.9334
  40   2.0000      -0.597773       -16.2662
  41   2.0000      -0.568102       -15.4588
  42   2.0000      -0.560809       -15.2604
  43   2.0000      -0.547796       -14.9063
  44   2.0000      -0.537619       -14.6294
  45   2.0000      -0.534112       -14.5339
  46   2.0000      -0.524288       -14.2666
  47   2.0000      -0.508242       -13.8300
  48   2.0000      -0.501737       -13.6530
  49   2.0000      -0.492840       -13.4109
  50   2.0000      -0.487758       -13.2726
  51   2.0000      -0.484798       -13.1920
  52   2.0000      -0.471677       -12.8350
  53   2.0000      -0.469468       -12.7749
  54   2.0000      -0.460976       -12.5438
  55   2.0000      -0.451207       -12.2780
  56   2.0000      -0.446277       -12.1438
  57   2.0000      -0.438820       -11.9409
  58   2.0000      -0.432567       -11.7707
  59   2.0000      -0.421568       -11.4715
  60   2.0000      -0.420523       -11.4430
  61   2.0000      -0.416797       -11.3416
  62   2.0000      -0.412264       -11.2183
  63   2.0000      -0.344725        -9.3805
  64   2.0000      -0.330374        -8.9899
  65   2.0000      -0.325743        -8.8639
  66   2.0000      -0.292177        -7.9505
  67   0.0000       0.032014         0.8712
  68   0.0000       0.070344         1.9142
  69   0.0000       0.123124         3.3504
  70   0.0000       0.126015         3.4291
  71   0.0000       0.132293         3.5999

MULLIKEN ATOMIC CHARGES
-----------------------
   0 S :    0.136968
   1 C :   -0.128871
   2 C :   -0.047869
   3 C :   -0.015620
   4 C :   -0.165824
   5 H :    0.043307
   6 C :    0.034688
   7 H :    0.024445
   8 H :    0.044231
   9 C :   -0.082847
  10 H :    0.033211
  11 H :    0.033846
  12 C :   -0.036361
  13 H :    0.033362
  14 H :    0.034983
  15 H :    0.022698
  16 S :    0.113642
  17 C :   -0.080708
  18 C :   -0.074745
  19 C :   -0.008548
  20 C :   -0.199566
  21 H :    0.005092
  22 C :    0.049598
  23 H :    0.036694
  24 H :    0.011726
  25 C :    0.009110
  26 H :    0.029176
  27 H :   -0.000979
  28 C :   -0.043454
  29 H :    0.033028
  30 H :    0.024948
  31 H :    0.031645
  32 H :    0.047644
  33 H :    0.051349
Sum of atomic charges:   -0.0000000

LOEWDIN ATOMIC CHARGES
----------------------
   0 S :    0.432073
   1 C :   -0.210514
   2 C :   -0.064184
   3 C :   -0.066574
   4 C :   -0.198019
   5 H :    0.044952
   6 C :   -0.046526
   7 H :    0.031535
   8 H :    0.044367
   9 C :   -0.045666
  10 H :    0.027963
  11 H :    0.027144
  12 C :   -0.063066
  13 H :    0.027385
  14 H :    0.026924
  15 H :    0.020997
  16 S :    0.432784
  17 C :   -0.205067
  18 C :   -0.074911
  19 C :   -0.057019
  20 C :   -0.212891
  21 H :    0.023361
  22 C :   -0.037256
  23 H :    0.035607
  24 H :    0.029155
  25 C :   -0.030938
  26 H :    0.032005
  27 H :    0.008332
  28 C :   -0.063862
  29 H :    0.025196
  30 H :    0.025290
  31 H :    0.027482
  32 H :    0.023795
  33 H :    0.030149

  Mayer bond orders larger than 0.100000
B(  0-S ,  1-C ) :   1.1634 B(  0-S ,  4-C ) :   1.1629 B(  1-C ,  2-C ) :   1.5951
B(  1-C ,  4-C ) :   0.1004 B(  1-C , 32-H ) :   0.9689 B(  2-C ,  3-C ) :   1.2528
B(  2-C ,  6-C ) :   1.0014 B(  3-C ,  4-C ) :   1.5589 B(  3-C ,  5-H ) :   0.9851
B(  4-C , 20-C ) :   1.0401 B(  6-C ,  7-H ) :   0.9495 B(  6-C ,  8-H ) :   0.9361
B(  6-C ,  9-C ) :   1.0571 B(  9-C , 10-H ) :   0.9556 B(  9-C , 11-H ) :   0.9539
B(  9-C , 12-C ) :   1.0744 B( 12-C , 13-H ) :   0.9739 B( 12-C , 14-H ) :   0.9727
B( 12-C , 15-H ) :   0.9769 B( 16-S , 17-C ) :   1.1708 B( 16-S , 20-C ) :   1.1704
B( 17-C , 18-C ) :   1.5765 B( 17-C , 20-C ) :   0.1066 B( 17-C , 33-H ) :   0.9709
B( 18-C , 19-C ) :   1.2674 B( 18-C , 21-H ) :   0.9925 B( 19-C , 20-C ) :   1.5467
B( 19-C , 22-C ) :   1.0223 B( 22-C , 23-H ) :   0.9313 B( 22-C , 24-H ) :   0.9100
B( 22-C , 25-C ) :   1.0899 B( 25-C , 26-H ) :   0.9481 B( 25-C , 27-H ) :   0.9423
B( 25-C , 28-C ) :   1.0812 B( 28-C , 29-H ) :   0.9739 B( 28-C , 30-H ) :   0.9689
B( 28-C , 31-H ) :   0.9759

Dispersion correction           -0.015112257
FINAL SINGLE POINT ENERGY     -1339.868668081604

DIPOLE MOMENT
-------------
                                X             Y             Z
Electronic contribution:     -9.21113     -18.96048     -15.68544
Nuclear contribution   :      9.41114      19.39118      16.06283
                        -----------------------------------------
Total Dipole Moment    :      0.20001       0.43070       0.37739
                        -----------------------------------------
Magnitude (a.u.)       :      0.60657
Magnitude (Debye)      :      1.54179

Rotational constants in cm-1:     0.018467     0.009213     0.007515
Rotational constants in MHz :   553.612228   276.202008   225.283053

                             ****ORCA TERMINATED NORMALLY****
TOTAL RUN TIME: 0 days 0 hours 0 minutes 21 seconds 126 msec
