                         Program Version 4.2.1 -  RELEASE  -
|  1> ! wB97X-D3 SP def2-SVP
|  2> %pal
|  3> nprocs 24
|  4> end
|  5>
|  6> * xyz 0 1
|  7> S 	 -89.3882 	 -5.41314 	 -112.026
|  8> C 	 -88.5396 	 -5.0016 	 -113.481
|  9> C 	 -89.2864 	 -4.21305 	 -114.341
| 10> C 	 -90.6889 	 -4.1849 	 -113.986
| 11> C 	 -90.9511 	 -4.7683 	 -112.776
| 12> H 	 -91.3918 	 -3.79856 	 -114.623
| 13> C 	 -88.7949 	 -3.7214 	 -115.666
| 14> H 	 -88.0222 	 -4.41826 	 -115.975
| 15> H 	 -88.2097 	 -2.78342 	 -115.601
| 16> C 	 -89.7552 	 -3.84319 	 -116.816
| 17> H 	 -90.0463 	 -4.87089 	 -116.77
| 18> H 	 -90.6545 	 -3.19844 	 -116.795
| 19> C 	 -89.0686 	 -3.49856 	 -118.121
| 20> H 	 -88.54 	 -2.54094 	 -118.204
| 21> H 	 -88.3538 	 -4.30146 	 -118.35
| 22> H 	 -89.7389 	 -3.48512 	 -119.007
| 23> S 	 -92.446 	 -6.01432 	 -110.762
| 24> C 	 -94.0653 	 -5.56692 	 -110.512
| 25> C 	 -94.4116 	 -4.40187 	 -111.198
| 26> C 	 -93.3885 	 -4.04276 	 -112.099
| 27> C 	 -92.2264 	 -4.77958 	 -111.967
| 28> H 	 -95.3961 	 -3.95046 	 -111.017
| 29> C 	 -93.4948 	 -2.91906 	 -113.035
| 30> H 	 -92.5173 	 -2.52011 	 -113.166
| 31> H 	 -94.0941 	 -2.07143 	 -112.609
| 32> C 	 -94.1505 	 -3.23631 	 -114.377
| 33> H 	 -93.5873 	 -3.90303 	 -114.947
| 34> H 	 -94.1604 	 -2.37263 	 -115.014
| 35> C 	 -95.5461 	 -3.87676 	 -114.325
| 36> H 	 -95.9505 	 -4.1703 	 -115.26
| 37> H 	 -96.2471 	 -3.07145 	 -113.925
| 38> H 	 -95.5533 	 -4.74351 	 -113.7
| 39> H 	 -87.4504 	 -5.09099 	 -113.486
| 40> H 	 -94.7362 	 -5.92768 	 -109.768
| 41> *
| 42>
| 43>                          ****END OF INPUT****

CARTESIAN COORDINATES (ANGSTROEM)
---------------------------------
  S    -89.388200   -5.413140  -112.026000
  C    -88.539600   -5.001600  -113.481000
  C    -89.286400   -4.213050  -114.341000
  C    -90.688900   -4.184900  -113.986000
  C    -90.951100   -4.768300  -112.776000
  H    -91.391800   -3.798560  -114.623000
  C    -88.794900   -3.721400  -115.666000
  H    -88.022200   -4.418260  -115.975000
  H    -88.209700   -2.783420  -115.601000
  C    -89.755200   -3.843190  -116.816000
  H    -90.046300   -4.870890  -116.770000
  H    -90.654500   -3.198440  -116.795000
  C    -89.068600   -3.498560  -118.121000
  H    -88.540000   -2.540940  -118.204000
  H    -88.353800   -4.301460  -118.350000
  H    -89.738900   -3.485120  -119.007000
  S    -92.446000   -6.014320  -110.762000
  C    -94.065300   -5.566920  -110.512000
  C    -94.411600   -4.401870  -111.198000
  C    -93.388500   -4.042760  -112.099000
  C    -92.226400   -4.779580  -111.967000
  H    -95.396100   -3.950460  -111.017000
  C    -93.494800   -2.919060  -113.035000
  H    -92.517300   -2.520110  -113.166000
  H    -94.094100   -2.071430  -112.609000
  C    -94.150500   -3.236310  -114.377000
  H    -93.587300   -3.903030  -114.947000
  H    -94.160400   -2.372630  -115.014000
  C    -95.546100   -3.876760  -114.325000
  H    -95.950500   -4.170300  -115.260000
  H    -96.247100   -3.071450  -113.925000
  H    -95.553300   -4.743510  -113.700000
  H    -87.450400   -5.090990  -113.486000
  H    -94.736200   -5.927680  -109.768000

 Total Charge           Charge          ....    0
 Multiplicity           Mult            ....    1
 Number of Electrons    NEL             ....  134
 Basis Dimension        Dim             ....  322

ORBITAL ENERGIES
----------------

  NO   OCC          E(Eh)            E(eV)
   0   2.0000     -88.967785     -2420.9365
   1   2.0000     -88.965067     -2420.8625
   2   2.0000     -10.342042      -281.4213
   3   2.0000     -10.328264      -281.0464
   4   2.0000     -10.314206      -280.6638
   5   2.0000     -10.313302      -280.6392
   6   2.0000     -10.301472      -280.3173
   7   2.0000     -10.298402      -280.2338
   8   2.0000     -10.294520      -280.1281
   9   2.0000     -10.291364      -280.0423
  10   2.0000     -10.289584      -279.9938
  11   2.0000     -10.287497      -279.9370
  12   2.0000     -10.286168      -279.9009
  13   2.0000     -10.281853      -279.7834
  14   2.0000     -10.278715      -279.6981
  15   2.0000     -10.274941      -279.5954
  16   2.0000      -8.083442      -219.9616
  17   2.0000      -8.078878      -219.8374
  18   2.0000      -6.041766      -164.4048
  19   2.0000      -6.037797      -164.2968
  20   2.0000      -6.037572      -164.2907
  21   2.0000      -6.034380      -164.2038
  22   2.0000      -6.033691      -164.1851
  23   2.0000      -6.029342      -164.0667
  24   2.0000      -1.009421       -27.4678
  25   2.0000      -0.984144       -26.7799
  26   2.0000      -0.919762       -25.0280
  27   2.0000      -0.917031       -24.9537
  28   2.0000      -0.867731       -23.6122
  29   2.0000      -0.854825       -23.2610
  30   2.0000      -0.847705       -23.0672
  31   2.0000      -0.820360       -22.3231
  32   2.0000      -0.785669       -21.3791
  33   2.0000      -0.768709       -20.9176
  34   2.0000      -0.713106       -19.4046
  35   2.0000      -0.702457       -19.1148
  36   2.0000      -0.688728       -18.7412
  37   2.0000      -0.664674       -18.0867
  38   2.0000      -0.642058       -17.4713
  39   2.0000      -0.632745       -17.2179
  40   2.0000      -0.596194       -16.2233
  41   2.0000      -0.578258       -15.7352
  42   2.0000      -0.567422       -15.4403
  43   2.0000      -0.556120       -15.1328
  44   2.0000      -0.551837       -15.0162
  45   2.0000      -0.522378       -14.2146
  46   2.0000      -0.516877       -14.0649
  47   2.0000      -0.510036       -13.8788
  48   2.0000      -0.503806       -13.7093
  49   2.0000      -0.495428       -13.4813
  50   2.0000      -0.488513       -13.2931
  51   2.0000      -0.483850       -13.1662
  52   2.0000      -0.471351       -12.8261
  53   2.0000      -0.463448       -12.6111
  54   2.0000      -0.459892       -12.5143
  55   2.0000      -0.453486       -12.3400
  56   2.0000      -0.450507       -12.2589
  57   2.0000      -0.439061       -11.9474
  58   2.0000      -0.433448       -11.7947
  59   2.0000      -0.426020       -11.5926
  60   2.0000      -0.420799       -11.4505
  61   2.0000      -0.417585       -11.3631
  62   2.0000      -0.409870       -11.1531
  63   2.0000      -0.359894        -9.7932
  64   2.0000      -0.334745        -9.1089
  65   2.0000      -0.329118        -8.9558
  66   2.0000      -0.283977        -7.7274
  67   0.0000       0.022428         0.6103
  68   0.0000       0.076851         2.0912
  69   0.0000       0.097127         2.6430
  70   0.0000       0.119666         3.2563
  71   0.0000       0.134671         3.6646

MULLIKEN ATOMIC CHARGES
-----------------------
   0 S :    0.076989
   1 C :   -0.112807
   2 C :   -0.081620
   3 C :    0.014151
   4 C :   -0.053101
   5 H :   -0.039484
   6 C :    0.049855
   7 H :    0.012626
   8 H :    0.039264
   9 C :   -0.080135
  10 H :    0.034444
  11 H :    0.040415
  12 C :   -0.064372
  13 H :    0.037183
  14 H :    0.027146
  15 H :    0.031478
  16 S :    0.118166
  17 C :   -0.077610
  18 C :   -0.050020
  19 C :   -0.070282
  20 C :   -0.118875
  21 H :    0.030016
  22 C :    0.056056
  23 H :    0.021644
  24 H :    0.026101
  25 C :   -0.045935
  26 H :    0.012329
  27 H :    0.019093
  28 C :   -0.052563
  29 H :    0.024327
  30 H :    0.026594
  31 H :    0.043312
  32 H :    0.059392
  33 H :    0.046225
Sum of atomic charges:   -0.0000000

LOEWDIN ATOMIC CHARGES
----------------------
   0 S :    0.360493
   1 C :   -0.198073
   2 C :   -0.060951
   3 C :   -0.056607
   4 C :   -0.142568
   5 H :    0.014816
   6 C :   -0.041228
   7 H :    0.034586
   8 H :    0.033816
   9 C :   -0.043250
  10 H :    0.028839
  11 H :    0.022831
  12 C :   -0.070082
  13 H :    0.027442
  14 H :    0.024951
  15 H :    0.028367
  16 S :    0.435350
  17 C :   -0.196689
  18 C :   -0.070686
  19 C :   -0.061206
  20 C :   -0.202693
  21 H :    0.038085
  22 C :   -0.032702
  23 H :    0.027961
  24 H :    0.036282
  25 C :   -0.037200
  26 H :    0.010861
  27 H :    0.022285
  28 C :   -0.060254
  29 H :    0.020756
  30 H :    0.028335
  31 H :    0.022888
  32 H :    0.029666
  33 H :    0.025576

  Mayer bond orders larger than 0.100000
B(  0-S ,  1-C ) :   1.1311 B(  0-S ,  4-C ) :   1.1218 B(  1-C ,  2-C ) :   1.6386
B(  1-C , 32-H ) :   0.9608 B(  2-C ,  3-C ) :   1.2191 B(  2-C ,  6-C ) :   1.0222
B(  3-C ,  4-C ) :   1.5885 B(  3-C ,  5-H ) :   1.0017 B(  4-C , 20-C ) :   1.0354
B(  6-C ,  7-H ) :   0.9469 B(  6-C ,  8-H ) :   0.9255 B(  6-C ,  9-C ) :   1.0696
B(  9-C , 10-H ) :   0.9550 B(  9-C , 11-H ) :   0.9459 B(  9-C , 12-C ) :   1.0872
B( 12-C , 13-H ) :   0.9747 B( 12-C , 14-H ) :   0.9727 B( 12-C , 15-H ) :   0.9732
B( 16-S , 17-C ) :   1.1884 B( 16-S , 20-C ) :   1.1383 B( 17-C , 18-C ) :   1.5774
B( 17-C , 33-H ) :   0.9651 B( 18-C , 19-C ) :   1.2620 B( 18-C , 21-H ) :   0.9908
B( 19-C , 20-C ) :   1.5818 B( 19-C , 22-C ) :   1.0480 B( 22-C , 23-H ) :   0.9285
B( 22-C , 24-H ) :   0.9340 B( 22-C , 25-C ) :   1.0724 B( 25-C , 26-H ) :   0.9430
B( 25-C , 27-H ) :   0.9541 B( 25-C , 28-C ) :   1.0848 B( 28-C , 29-H ) :   0.9722
B( 28-C , 30-H ) :   0.9756 B( 28-C , 31-H ) :   0.9705

Dispersion correction           -0.014521888
FINAL SINGLE POINT ENERGY     -1339.874195662160

DIPOLE MOMENT
-------------
                                X             Y             Z
Electronic contribution:      6.29827     -12.90534      27.62019
Nuclear contribution   :     -6.48574      13.30399     -28.16015
                        -----------------------------------------
Total Dipole Moment    :     -0.18747       0.39865      -0.53996
                        -----------------------------------------
Magnitude (a.u.)       :      0.69686
Magnitude (Debye)      :      1.77129

Rotational constants in cm-1:     0.018796     0.009339     0.006543
Rotational constants in MHz :   563.501658   279.963852   196.142791

                             ****ORCA TERMINATED NORMALLY****
TOTAL RUN TIME: 0 days 0 hours 0 minutes 22 seconds 328 msec
