                         Program Version 4.2.1 -  RELEASE  -
|  1> ! wB97X-D3 SP def2-SVP
|  2> %pal
|  3> nprocs 24
|  4> end
|  5>
|  6> * xyz 0 1
|  7> S 	 -88.4143 	 -30.2444 	 -58.4124
|  8> C 	 -87.3127 	 -31.6341 	 -58.422
|  9> C 	 -86.7324 	 -31.7422 	 -57.15
| 10> C 	 -87.3325 	 -30.8213 	 -56.1704
| 11> C 	 -88.342 	 -30.0241 	 -56.6841
| 12> H 	 -86.8935 	 -30.6635 	 -55.1231
| 13> C 	 -85.5183 	 -32.5508 	 -56.7589
| 14> H 	 -84.835 	 -31.7957 	 -56.3416
| 15> H 	 -85.102 	 -32.8494 	 -57.6448
| 16> C 	 -85.7073 	 -33.7703 	 -55.8262
| 17> H 	 -85.9773 	 -34.6606 	 -56.3653
| 18> H 	 -84.6924 	 -33.9274 	 -55.5112
| 19> C 	 -86.4833 	 -33.6219 	 -54.485
| 20> H 	 -86.4889 	 -32.566 	 -54.0562
| 21> H 	 -87.5361 	 -34.0142 	 -54.6425
| 22> H 	 -85.8991 	 -34.3178 	 -53.8785
| 23> S 	 -88.6749 	 -27.3196 	 -56.5421
| 24> C 	 -89.6624 	 -26.6497 	 -55.2748
| 25> C 	 -90.0503 	 -27.5824 	 -54.3401
| 26> C 	 -89.6565 	 -28.9146 	 -54.6751
| 27> C 	 -88.9691 	 -28.9485 	 -55.9237
| 28> H 	 -90.5643 	 -27.2353 	 -53.5123
| 29> C 	 -89.8503 	 -30.1012 	 -53.7565
| 30> H 	 -89.2623 	 -30.9285 	 -54.13
| 31> H 	 -90.8292 	 -30.3586 	 -53.8389
| 32> C 	 -89.5209 	 -29.9065 	 -52.2594
| 33> H 	 -90.0511 	 -28.9937 	 -52.0275
| 34> H 	 -88.4635 	 -29.5911 	 -52.2862
| 35> C 	 -89.7636 	 -31.2058 	 -51.3541
| 36> H 	 -89.1946 	 -32.1045 	 -51.7498
| 37> H 	 -90.8187 	 -31.3495 	 -51.3238
| 38> H 	 -89.2367 	 -31.0269 	 -50.3798
| 39> H 	 -87.0788 	 -32.176 	 -59.2846
| 40> H 	 -90.0002 	 -25.6326 	 -55.1735
| 41> *
| 42>
| 43>                          ****END OF INPUT****

CARTESIAN COORDINATES (ANGSTROEM)
---------------------------------
  S    -88.414300  -30.244400  -58.412400
  C    -87.312700  -31.634100  -58.422000
  C    -86.732400  -31.742200  -57.150000
  C    -87.332500  -30.821300  -56.170400
  C    -88.342000  -30.024100  -56.684100
  H    -86.893500  -30.663500  -55.123100
  C    -85.518300  -32.550800  -56.758900
  H    -84.835000  -31.795700  -56.341600
  H    -85.102000  -32.849400  -57.644800
  C    -85.707300  -33.770300  -55.826200
  H    -85.977300  -34.660600  -56.365300
  H    -84.692400  -33.927400  -55.511200
  C    -86.483300  -33.621900  -54.485000
  H    -86.488900  -32.566000  -54.056200
  H    -87.536100  -34.014200  -54.642500
  H    -85.899100  -34.317800  -53.878500
  S    -88.674900  -27.319600  -56.542100
  C    -89.662400  -26.649700  -55.274800
  C    -90.050300  -27.582400  -54.340100
  C    -89.656500  -28.914600  -54.675100
  C    -88.969100  -28.948500  -55.923700
  H    -90.564300  -27.235300  -53.512300
  C    -89.850300  -30.101200  -53.756500
  H    -89.262300  -30.928500  -54.130000
  H    -90.829200  -30.358600  -53.838900
  C    -89.520900  -29.906500  -52.259400
  H    -90.051100  -28.993700  -52.027500
  H    -88.463500  -29.591100  -52.286200
  C    -89.763600  -31.205800  -51.354100
  H    -89.194600  -32.104500  -51.749800
  H    -90.818700  -31.349500  -51.323800
  H    -89.236700  -31.026900  -50.379800
  H    -87.078800  -32.176000  -59.284600
  H    -90.000200  -25.632600  -55.173500

 Total Charge           Charge          ....    0
 Multiplicity           Mult            ....    1
 Number of Electrons    NEL             ....  134
 Basis Dimension        Dim             ....  322

ORBITAL ENERGIES
----------------

  NO   OCC          E(Eh)            E(eV)
   0   2.0000     -88.966139     -2420.8917
   1   2.0000     -88.964245     -2420.8402
   2   2.0000     -10.329585      -281.0823
   3   2.0000     -10.329420      -281.0778
   4   2.0000     -10.316371      -280.7227
   5   2.0000     -10.312847      -280.6268
   6   2.0000     -10.307706      -280.4869
   7   2.0000     -10.304884      -280.4101
   8   2.0000     -10.300109      -280.2802
   9   2.0000     -10.293801      -280.1086
  10   2.0000     -10.290992      -280.0321
  11   2.0000     -10.290549      -280.0201
  12   2.0000     -10.287436      -279.9354
  13   2.0000     -10.286725      -279.9160
  14   2.0000     -10.286271      -279.9037
  15   2.0000     -10.277373      -279.6615
  16   2.0000      -8.080619      -219.8848
  17   2.0000      -8.078648      -219.8312
  18   2.0000      -6.039111      -164.3326
  19   2.0000      -6.037323      -164.2839
  20   2.0000      -6.035191      -164.2259
  21   2.0000      -6.033171      -164.1709
  22   2.0000      -6.031398      -164.1227
  23   2.0000      -6.029264      -164.0646
  24   2.0000      -1.001149       -27.2426
  25   2.0000      -0.978236       -26.6192
  26   2.0000      -0.910032       -24.7632
  27   2.0000      -0.905276       -24.6338
  28   2.0000      -0.868998       -23.6466
  29   2.0000      -0.844592       -22.9825
  30   2.0000      -0.840495       -22.8710
  31   2.0000      -0.813752       -22.1433
  32   2.0000      -0.784519       -21.3478
  33   2.0000      -0.772411       -21.0184
  34   2.0000      -0.706967       -19.2375
  35   2.0000      -0.700602       -19.0644
  36   2.0000      -0.697032       -18.9672
  37   2.0000      -0.655454       -17.8358
  38   2.0000      -0.638183       -17.3659
  39   2.0000      -0.614376       -16.7180
  40   2.0000      -0.592013       -16.1095
  41   2.0000      -0.570887       -15.5346
  42   2.0000      -0.569257       -15.4903
  43   2.0000      -0.552581       -15.0365
  44   2.0000      -0.540398       -14.7050
  45   2.0000      -0.520267       -14.1572
  46   2.0000      -0.516184       -14.0461
  47   2.0000      -0.513788       -13.9809
  48   2.0000      -0.507505       -13.8099
  49   2.0000      -0.498754       -13.5718
  50   2.0000      -0.488374       -13.2893
  51   2.0000      -0.482634       -13.1331
  52   2.0000      -0.470362       -12.7992
  53   2.0000      -0.462664       -12.5897
  54   2.0000      -0.458058       -12.4644
  55   2.0000      -0.449729       -12.2377
  56   2.0000      -0.440248       -11.9798
  57   2.0000      -0.435639       -11.8543
  58   2.0000      -0.429457       -11.6861
  59   2.0000      -0.428317       -11.6551
  60   2.0000      -0.423118       -11.5136
  61   2.0000      -0.415186       -11.2978
  62   2.0000      -0.404916       -11.0183
  63   2.0000      -0.343401        -9.3444
  64   2.0000      -0.329729        -8.9724
  65   2.0000      -0.321736        -8.7549
  66   2.0000      -0.291121        -7.9218
  67   0.0000       0.029038         0.7902
  68   0.0000       0.068049         1.8517
  69   0.0000       0.106268         2.8917
  70   0.0000       0.117145         3.1877
  71   0.0000       0.122128         3.3233

MULLIKEN ATOMIC CHARGES
-----------------------
   0 S :    0.099224
   1 C :   -0.105291
   2 C :   -0.107305
   3 C :   -0.006854
   4 C :   -0.138951
   5 H :    0.051101
   6 C :    0.098246
   7 H :    0.037647
   8 H :   -0.012035
   9 C :   -0.060704
  10 H :    0.029814
  11 H :    0.019307
  12 C :   -0.083467
  13 H :    0.044967
  14 H :    0.057527
  15 H :    0.039175
  16 S :    0.112725
  17 C :   -0.081841
  18 C :   -0.036969
  19 C :   -0.027657
  20 C :   -0.176453
  21 H :   -0.005850
  22 C :    0.133487
  23 H :    0.007895
  24 H :    0.002551
  25 C :   -0.114653
  26 H :    0.025962
  27 H :    0.026272
  28 C :   -0.053232
  29 H :    0.046573
  30 H :    0.046638
  31 H :    0.050402
  32 H :    0.033075
  33 H :    0.048672
Sum of atomic charges:    0.0000000

LOEWDIN ATOMIC CHARGES
----------------------
   0 S :    0.397675
   1 C :   -0.186176
   2 C :   -0.057933
   3 C :   -0.071796
   4 C :   -0.207153
   5 H :    0.041581
   6 C :   -0.029913
   7 H :    0.039169
   8 H :    0.017847
   9 C :   -0.038619
  10 H :    0.024249
  11 H :    0.022498
  12 C :   -0.075229
  13 H :    0.030370
  14 H :    0.035507
  15 H :    0.029842
  16 S :    0.406587
  17 C :   -0.185107
  18 C :   -0.069166
  19 C :   -0.043978
  20 C :   -0.193107
  21 H :    0.019931
  22 C :   -0.028665
  23 H :    0.025716
  24 H :    0.016630
  25 C :   -0.040405
  26 H :    0.018157
  27 H :    0.023193
  28 C :   -0.064034
  29 H :    0.035980
  30 H :    0.023772
  31 H :    0.035983
  32 H :    0.018360
  33 H :    0.028236

  Mayer bond orders larger than 0.100000
B(  0-S ,  1-C ) :   1.1269 B(  0-S ,  4-C ) :   1.1511 B(  1-C ,  2-C ) :   1.5985
B(  1-C , 32-H ) :   0.9823 B(  2-C ,  3-C ) :   1.2369 B(  2-C ,  6-C ) :   1.0212
B(  3-C ,  4-C ) :   1.5641 B(  3-C ,  5-H ) :   0.9716 B(  4-C , 20-C ) :   1.0444
B(  6-C ,  7-H ) :   0.9429 B(  6-C ,  8-H ) :   0.9299 B(  6-C ,  9-C ) :   1.0748
B(  9-C , 10-H ) :   0.9559 B(  9-C , 11-H ) :   0.9623 B(  9-C , 12-C ) :   1.0631
B( 12-C , 13-H ) :   0.9721 B( 12-C , 14-H ) :   0.9758 B( 12-C , 15-H ) :   0.9781
B( 16-S , 17-C ) :   1.1527 B( 16-S , 20-C ) :   1.1508 B( 17-C , 18-C ) :   1.6261
B( 17-C , 20-C ) :   0.1006 B( 17-C , 33-H ) :   0.9640 B( 18-C , 19-C ) :   1.2267
B( 18-C , 21-H ) :   1.0000 B( 19-C , 20-C ) :   1.5808 B( 19-C , 22-C ) :   1.0423
B( 22-C , 23-H ) :   0.9312 B( 22-C , 24-H ) :   0.9171 B( 22-C , 25-C ) :   1.0532
B( 25-C , 26-H ) :   0.9583 B( 25-C , 27-H ) :   0.9612 B( 25-C , 28-C ) :   1.0626
B( 28-C , 29-H ) :   0.9749 B( 28-C , 30-H ) :   0.9782 B( 28-C , 31-H ) :   0.9757

Dispersion correction           -0.014433312
FINAL SINGLE POINT ENERGY     -1339.849929316147

DIPOLE MOMENT
-------------
                                X             Y             Z
Electronic contribution:     -5.30624      19.95212     -23.83995
Nuclear contribution   :      5.65731     -20.34352      24.38570
                        -----------------------------------------
Total Dipole Moment    :      0.35107      -0.39139       0.54574
                        -----------------------------------------
Magnitude (a.u.)       :      0.75781
Magnitude (Debye)      :      1.92620

Rotational constants in cm-1:     0.015319     0.010556     0.006744
Rotational constants in MHz :   459.246577   316.465261   202.186704

                             ****ORCA TERMINATED NORMALLY****
TOTAL RUN TIME: 0 days 0 hours 0 minutes 21 seconds 877 msec
