                         Program Version 4.2.1 -  RELEASE  -
|  1> ! wB97X-D3 SP def2-SVP
|  2> %pal
|  3> nprocs 24
|  4> end
|  5>
|  6> * xyz 0 1
|  7> S 	 -48.6156 	 26.4974 	 27.4201
|  8> C 	 -48.2056 	 27.5454 	 26.1028
|  9> C 	 -46.8243 	 27.4773 	 25.8982
| 10> C 	 -46.1595 	 26.6022 	 26.7862
| 11> C 	 -46.983 	 25.9168 	 27.6902
| 12> H 	 -45.1085 	 26.4138 	 26.7754
| 13> C 	 -46.1997 	 28.2543 	 24.7261
| 14> H 	 -46.6629 	 27.9872 	 23.79
| 15> H 	 -45.1068 	 27.9405 	 24.6691
| 16> C 	 -46.3342 	 29.7886 	 24.7217
| 17> H 	 -47.3084 	 30.0875 	 25.2618
| 18> H 	 -45.6014 	 30.222 	 25.3302
| 19> C 	 -46.0757 	 30.5316 	 23.418
| 20> H 	 -46.3468 	 31.6014 	 23.6264
| 21> H 	 -45.0957 	 30.3939 	 23.1293
| 22> H 	 -46.6737 	 30.0893 	 22.5767
| 23> S 	 -47.1663 	 23.1333 	 27.7747
| 24> C 	 -46.4482 	 22.3324 	 29.0546
| 25> C 	 -45.9033 	 23.1629 	 30.0459
| 26> C 	 -46.041 	 24.5299 	 29.6712
| 27> C 	 -46.6901 	 24.7357 	 28.434
| 28> H 	 -45.5756 	 22.8084 	 30.9901
| 29> C 	 -45.6075 	 25.6263 	 30.5716
| 30> H 	 -45.345 	 26.5423 	 29.9321
| 31> H 	 -44.5354 	 25.3945 	 30.8465
| 32> C 	 -46.5336 	 25.8795 	 31.8153
| 33> H 	 -46.2941 	 26.8036 	 32.3715
| 34> H 	 -46.2605 	 25.0607 	 32.4286
| 35> C 	 -48.0804 	 25.7886 	 31.6382
| 36> H 	 -48.394 	 26.3072 	 30.766
| 37> H 	 -48.6177 	 26.3752 	 32.4404
| 38> H 	 -48.4106 	 24.7704 	 31.6802
| 39> H 	 -48.9464 	 27.9006 	 25.4111
| 40> H 	 -46.774 	 21.2685 	 29.2454
| 41> *
| 42>
| 43>                          ****END OF INPUT****

CARTESIAN COORDINATES (ANGSTROEM)
---------------------------------
  S    -48.615600   26.497400   27.420100
  C    -48.205600   27.545400   26.102800
  C    -46.824300   27.477300   25.898200
  C    -46.159500   26.602200   26.786200
  C    -46.983000   25.916800   27.690200
  H    -45.108500   26.413800   26.775400
  C    -46.199700   28.254300   24.726100
  H    -46.662900   27.987200   23.790000
  H    -45.106800   27.940500   24.669100
  C    -46.334200   29.788600   24.721700
  H    -47.308400   30.087500   25.261800
  H    -45.601400   30.222000   25.330200
  C    -46.075700   30.531600   23.418000
  H    -46.346800   31.601400   23.626400
  H    -45.095700   30.393900   23.129300
  H    -46.673700   30.089300   22.576700
  S    -47.166300   23.133300   27.774700
  C    -46.448200   22.332400   29.054600
  C    -45.903300   23.162900   30.045900
  C    -46.041000   24.529900   29.671200
  C    -46.690100   24.735700   28.434000
  H    -45.575600   22.808400   30.990100
  C    -45.607500   25.626300   30.571600
  H    -45.345000   26.542300   29.932100
  H    -44.535400   25.394500   30.846500
  C    -46.533600   25.879500   31.815300
  H    -46.294100   26.803600   32.371500
  H    -46.260500   25.060700   32.428600
  C    -48.080400   25.788600   31.638200
  H    -48.394000   26.307200   30.766000
  H    -48.617700   26.375200   32.440400
  H    -48.410600   24.770400   31.680200
  H    -48.946400   27.900600   25.411100
  H    -46.774000   21.268500   29.245400

 Total Charge           Charge          ....    0
 Multiplicity           Mult            ....    1
 Number of Electrons    NEL             ....  134
 Basis Dimension        Dim             ....  322

ORBITAL ENERGIES
----------------

  NO   OCC          E(Eh)            E(eV)
   0   2.0000     -88.966085     -2420.8902
   1   2.0000     -88.964659     -2420.8514
   2   2.0000     -10.328246      -281.0459
   3   2.0000     -10.326480      -280.9978
   4   2.0000     -10.320082      -280.8237
   5   2.0000     -10.314330      -280.6672
   6   2.0000     -10.305163      -280.4177
   7   2.0000     -10.304038      -280.3871
   8   2.0000     -10.296898      -280.1928
   9   2.0000     -10.296554      -280.1835
  10   2.0000     -10.295885      -280.1653
  11   2.0000     -10.293689      -280.1055
  12   2.0000     -10.288001      -279.9507
  13   2.0000     -10.283769      -279.8356
  14   2.0000     -10.280239      -279.7395
  15   2.0000     -10.273100      -279.5453
  16   2.0000      -8.081714      -219.9146
  17   2.0000      -8.079413      -219.8520
  18   2.0000      -6.039995      -164.3566
  19   2.0000      -6.037676      -164.2935
  20   2.0000      -6.035935      -164.2461
  21   2.0000      -6.033620      -164.1831
  22   2.0000      -6.032800      -164.1608
  23   2.0000      -6.030700      -164.1037
  24   2.0000      -1.006637       -27.3920
  25   2.0000      -0.986160       -26.8348
  26   2.0000      -0.908908       -24.7326
  27   2.0000      -0.904359       -24.6089
  28   2.0000      -0.871291       -23.7090
  29   2.0000      -0.849926       -23.1277
  30   2.0000      -0.847150       -23.0521
  31   2.0000      -0.811764       -22.0892
  32   2.0000      -0.784305       -21.3420
  33   2.0000      -0.767569       -20.8866
  34   2.0000      -0.707306       -19.2468
  35   2.0000      -0.695652       -18.9297
  36   2.0000      -0.690843       -18.7988
  37   2.0000      -0.657481       -17.8910
  38   2.0000      -0.647462       -17.6183
  39   2.0000      -0.617582       -16.8053
  40   2.0000      -0.593761       -16.1571
  41   2.0000      -0.569073       -15.4853
  42   2.0000      -0.558123       -15.1873
  43   2.0000      -0.549412       -14.9503
  44   2.0000      -0.538737       -14.6598
  45   2.0000      -0.527073       -14.3424
  46   2.0000      -0.520925       -14.1751
  47   2.0000      -0.512119       -13.9355
  48   2.0000      -0.502775       -13.6812
  49   2.0000      -0.498489       -13.5646
  50   2.0000      -0.492293       -13.3960
  51   2.0000      -0.478998       -13.0342
  52   2.0000      -0.468672       -12.7532
  53   2.0000      -0.463245       -12.6055
  54   2.0000      -0.458149       -12.4669
  55   2.0000      -0.448730       -12.2106
  56   2.0000      -0.443418       -12.0660
  57   2.0000      -0.437296       -11.8994
  58   2.0000      -0.432006       -11.7555
  59   2.0000      -0.420838       -11.4516
  60   2.0000      -0.417345       -11.3565
  61   2.0000      -0.407590       -11.0911
  62   2.0000      -0.401427       -10.9234
  63   2.0000      -0.337359        -9.1800
  64   2.0000      -0.331179        -9.0118
  65   2.0000      -0.319566        -8.6958
  66   2.0000      -0.304678        -8.2907
  67   0.0000       0.027448         0.7469
  68   0.0000       0.052804         1.4369
  69   0.0000       0.112425         3.0592
  70   0.0000       0.125037         3.4024
  71   0.0000       0.128749         3.5034

MULLIKEN ATOMIC CHARGES
-----------------------
   0 S :    0.112117
   1 C :   -0.125253
   2 C :   -0.086870
   3 C :    0.066201
   4 C :   -0.190640
   5 H :    0.003368
   6 C :    0.065079
   7 H :    0.022061
   8 H :    0.028526
   9 C :   -0.102105
  10 H :    0.039090
  11 H :    0.013059
  12 C :   -0.041179
  13 H :    0.053807
  14 H :    0.020484
  15 H :    0.028456
  16 S :    0.130402
  17 C :   -0.108145
  18 C :   -0.028853
  19 C :   -0.033775
  20 C :   -0.171360
  21 H :    0.009178
  22 C :    0.024040
  23 H :    0.032798
  24 H :    0.033560
  25 C :   -0.058991
  26 H :    0.041264
  27 H :    0.017147
  28 C :   -0.035377
  29 H :    0.021839
  30 H :    0.034097
  31 H :    0.038537
  32 H :    0.062868
  33 H :    0.084569
Sum of atomic charges:   -0.0000000

LOEWDIN ATOMIC CHARGES
----------------------
   0 S :    0.423181
   1 C :   -0.200860
   2 C :   -0.066628
   3 C :   -0.052114
   4 C :   -0.207875
   5 H :    0.028707
   6 C :   -0.035393
   7 H :    0.026944
   8 H :    0.034076
   9 C :   -0.051871
  10 H :    0.030392
  11 H :    0.016466
  12 C :   -0.059952
  13 H :    0.040326
  14 H :    0.013589
  15 H :    0.024409
  16 S :    0.433093
  17 C :   -0.212295
  18 C :   -0.075460
  19 C :   -0.046343
  20 C :   -0.205859
  21 H :    0.026319
  22 C :   -0.048578
  23 H :    0.035234
  24 H :    0.037393
  25 C :   -0.037640
  26 H :    0.029970
  27 H :    0.018136
  28 C :   -0.064472
  29 H :    0.017291
  30 H :    0.035200
  31 H :    0.024127
  32 H :    0.030085
  33 H :    0.040404

  Mayer bond orders larger than 0.100000
B(  0-S ,  1-C ) :   1.1735 B(  0-S ,  4-C ) :   1.1696 B(  1-C ,  2-C ) :   1.5402
B(  1-C ,  4-C ) :   0.1088 B(  1-C , 32-H ) :   0.9718 B(  2-C ,  3-C ) :   1.3045
B(  2-C ,  6-C ) :   1.0221 B(  3-C ,  4-C ) :   1.5208 B(  3-C ,  5-H ) :   0.9988
B(  4-C , 20-C ) :   1.0595 B(  6-C ,  7-H ) :   0.9450 B(  6-C ,  8-H ) :   0.9434
B(  6-C ,  9-C ) :   1.0501 B(  9-C , 10-H ) :   0.9601 B(  9-C , 11-H ) :   0.9516
B(  9-C , 12-C ) :   1.0746 B( 12-C , 13-H ) :   0.9725 B( 12-C , 14-H ) :   0.9760
B( 12-C , 15-H ) :   0.9749 B( 16-S , 17-C ) :   1.2154 B( 16-S , 20-C ) :   1.1346
B( 17-C , 18-C ) :   1.5483 B( 17-C , 20-C ) :   0.1021 B( 17-C , 33-H ) :   0.9513
B( 18-C , 19-C ) :   1.2750 B( 18-C , 21-H ) :   0.9996 B( 19-C , 20-C ) :   1.5536
B( 19-C , 22-C ) :   1.0588 B( 22-C , 23-H ) :   0.9298 B( 22-C , 24-H ) :   0.9429
B( 22-C , 25-C ) :   1.0348 B( 25-C , 26-H ) :   0.9627 B( 25-C , 27-H ) :   0.9595
B( 25-C , 28-C ) :   1.0776 B( 28-C , 29-H ) :   0.9765 B( 28-C , 30-H ) :   0.9741
B( 28-C , 31-H ) :   0.9747

Dispersion correction           -0.014529174
FINAL SINGLE POINT ENERGY     -1339.861221365865

DIPOLE MOMENT
-------------
                                X             Y             Z
Electronic contribution:     -6.65785     -19.03631      -0.49963
Nuclear contribution   :      6.90102      19.18618       0.53365
                        -----------------------------------------
Total Dipole Moment    :      0.24317       0.14987       0.03402
                        -----------------------------------------
Magnitude (a.u.)       :      0.28766
Magnitude (Debye)      :      0.73118

Rotational constants in cm-1:     0.024487     0.006950     0.006392
Rotational constants in MHz :   734.094214   208.369878   191.631136

                             ****ORCA TERMINATED NORMALLY****
TOTAL RUN TIME: 0 days 0 hours 0 minutes 21 seconds 187 msec
