                         Program Version 4.2.1 -  RELEASE  -
|  1> ! wB97X-D3 SP def2-SVP
|  2> %pal
|  3> nprocs 24
|  4> end
|  5>
|  6> * xyz 0 1
|  7> S 	 -56.0815 	 14.2014 	 -94.7235
|  8> C 	 -55.8267 	 12.7045 	 -93.828
|  9> C 	 -55.6293 	 12.9295 	 -92.4898
| 10> C 	 -55.6241 	 14.3232 	 -92.2076
| 11> C 	 -55.8302 	 15.1165 	 -93.2668
| 12> H 	 -55.4511 	 14.7813 	 -91.2676
| 13> C 	 -55.3524 	 11.8869 	 -91.394
| 14> H 	 -56.1826 	 11.0822 	 -91.3934
| 15> H 	 -55.3086 	 12.3962 	 -90.3639
| 16> C 	 -53.9133 	 11.2037 	 -91.3913
| 17> H 	 -53.8132 	 10.8651 	 -92.4098
| 18> H 	 -53.163 	 11.8843 	 -91.1124
| 19> C 	 -53.6386 	 10.063 	 -90.439
| 20> H 	 -54.4367 	 9.30493 	 -90.6164
| 21> H 	 -52.6429 	 9.56289 	 -90.509
| 22> H 	 -53.7271 	 10.3265 	 -89.3841
| 23> S 	 -57.9502 	 16.9015 	 -93.2677
| 24> C 	 -57.6163 	 18.5124 	 -92.8049
| 25> C 	 -56.3384 	 18.8317 	 -92.9961
| 26> C 	 -55.4674 	 17.7374 	 -93.2518
| 27> C 	 -56.2164 	 16.5583 	 -93.2517
| 28> H 	 -56.0576 	 19.8303 	 -92.8557
| 29> C 	 -53.9127 	 17.8091 	 -93.0589
| 30> H 	 -53.5616 	 17.0928 	 -92.3625
| 31> H 	 -53.764 	 18.6846 	 -92.5146
| 32> C 	 -52.9795 	 17.8731 	 -94.2845
| 33> H 	 -53.0984 	 18.8289 	 -94.8341
| 34> H 	 -53.45 	 17.1297 	 -94.9109
| 35> C 	 -51.5385 	 17.5632 	 -93.982
| 36> H 	 -51.1232 	 18.3991 	 -93.4281
| 37> H 	 -50.9601 	 17.3484 	 -94.851
| 38> H 	 -51.5314 	 16.6781 	 -93.4149
| 39> H 	 -55.8599 	 11.7877 	 -94.2938
| 40> H 	 -58.3976 	 19.2545 	 -92.6872
| 41> *
| 42>
| 43>                          ****END OF INPUT****

CARTESIAN COORDINATES (ANGSTROEM)
---------------------------------
  S    -56.081500   14.201400  -94.723500
  C    -55.826700   12.704500  -93.828000
  C    -55.629300   12.929500  -92.489800
  C    -55.624100   14.323200  -92.207600
  C    -55.830200   15.116500  -93.266800
  H    -55.451100   14.781300  -91.267600
  C    -55.352400   11.886900  -91.394000
  H    -56.182600   11.082200  -91.393400
  H    -55.308600   12.396200  -90.363900
  C    -53.913300   11.203700  -91.391300
  H    -53.813200   10.865100  -92.409800
  H    -53.163000   11.884300  -91.112400
  C    -53.638600   10.063000  -90.439000
  H    -54.436700    9.304930  -90.616400
  H    -52.642900    9.562890  -90.509000
  H    -53.727100   10.326500  -89.384100
  S    -57.950200   16.901500  -93.267700
  C    -57.616300   18.512400  -92.804900
  C    -56.338400   18.831700  -92.996100
  C    -55.467400   17.737400  -93.251800
  C    -56.216400   16.558300  -93.251700
  H    -56.057600   19.830300  -92.855700
  C    -53.912700   17.809100  -93.058900
  H    -53.561600   17.092800  -92.362500
  H    -53.764000   18.684600  -92.514600
  C    -52.979500   17.873100  -94.284500
  H    -53.098400   18.828900  -94.834100
  H    -53.450000   17.129700  -94.910900
  C    -51.538500   17.563200  -93.982000
  H    -51.123200   18.399100  -93.428100
  H    -50.960100   17.348400  -94.851000
  H    -51.531400   16.678100  -93.414900
  H    -55.859900   11.787700  -94.293800
  H    -58.397600   19.254500  -92.687200

 Total Charge           Charge          ....    0
 Multiplicity           Mult            ....    1
 Number of Electrons    NEL             ....  134
 Basis Dimension        Dim             ....  322

ORBITAL ENERGIES
----------------

  NO   OCC          E(Eh)            E(eV)
   0   2.0000     -88.964900     -2420.8580
   1   2.0000     -88.961274     -2420.7593
   2   2.0000     -10.328238      -281.0456
   3   2.0000     -10.323246      -280.9098
   4   2.0000     -10.311284      -280.5843
   5   2.0000     -10.311214      -280.5824
   6   2.0000     -10.306941      -280.4661
   7   2.0000     -10.306624      -280.4575
   8   2.0000     -10.304091      -280.3886
   9   2.0000     -10.286931      -279.9216
  10   2.0000     -10.284586      -279.8578
  11   2.0000     -10.283955      -279.8407
  12   2.0000     -10.282915      -279.8124
  13   2.0000     -10.282756      -279.8080
  14   2.0000     -10.279668      -279.7240
  15   2.0000     -10.268963      -279.4327
  16   2.0000      -8.079919      -219.8658
  17   2.0000      -8.077034      -219.7873
  18   2.0000      -6.038391      -164.3130
  19   2.0000      -6.035405      -164.2317
  20   2.0000      -6.034421      -164.2049
  21   2.0000      -6.031594      -164.1280
  22   2.0000      -6.030671      -164.1029
  23   2.0000      -6.027668      -164.0212
  24   2.0000      -1.010855       -27.5068
  25   2.0000      -0.990999       -26.9665
  26   2.0000      -0.908470       -24.7207
  27   2.0000      -0.904505       -24.6128
  28   2.0000      -0.869895       -23.6710
  29   2.0000      -0.853520       -23.2255
  30   2.0000      -0.850897       -23.1541
  31   2.0000      -0.818831       -22.2815
  32   2.0000      -0.785343       -21.3703
  33   2.0000      -0.772630       -21.0243
  34   2.0000      -0.703603       -19.1460
  35   2.0000      -0.698275       -19.0010
  36   2.0000      -0.692324       -18.8391
  37   2.0000      -0.657449       -17.8901
  38   2.0000      -0.652321       -17.7505
  39   2.0000      -0.618461       -16.8292
  40   2.0000      -0.600565       -16.3422
  41   2.0000      -0.573007       -15.5923
  42   2.0000      -0.568090       -15.4585
  43   2.0000      -0.560440       -15.2504
  44   2.0000      -0.527443       -14.3524
  45   2.0000      -0.520245       -14.1566
  46   2.0000      -0.516994       -14.0681
  47   2.0000      -0.512340       -13.9415
  48   2.0000      -0.504865       -13.7381
  49   2.0000      -0.500474       -13.6186
  50   2.0000      -0.493532       -13.4297
  51   2.0000      -0.484161       -13.1747
  52   2.0000      -0.473717       -12.8905
  53   2.0000      -0.465066       -12.6551
  54   2.0000      -0.457680       -12.4541
  55   2.0000      -0.453150       -12.3309
  56   2.0000      -0.450784       -12.2664
  57   2.0000      -0.433576       -11.7982
  58   2.0000      -0.432667       -11.7735
  59   2.0000      -0.425859       -11.5882
  60   2.0000      -0.419461       -11.4141
  61   2.0000      -0.409471       -11.1423
  62   2.0000      -0.406675       -11.0662
  63   2.0000      -0.340853        -9.2751
  64   2.0000      -0.328947        -8.9511
  65   2.0000      -0.326091        -8.8734
  66   2.0000      -0.311058        -8.4643
  67   0.0000       0.047447         1.2911
  68   0.0000       0.050360         1.3704
  69   0.0000       0.114837         3.1249
  70   0.0000       0.121685         3.3112
  71   0.0000       0.127218         3.4618

MULLIKEN ATOMIC CHARGES
-----------------------
   0 S :    0.105132
   1 C :   -0.103907
   2 C :   -0.033376
   3 C :    0.053055
   4 C :   -0.151020
   5 H :   -0.003654
   6 C :   -0.008770
   7 H :    0.053255
   8 H :    0.035210
   9 C :   -0.041079
  10 H :    0.023905
  11 H :    0.023333
  12 C :   -0.073877
  13 H :    0.025023
  14 H :    0.049338
  15 H :    0.026733
  16 S :    0.115346
  17 C :   -0.077492
  18 C :   -0.028572
  19 C :    0.018906
  20 C :   -0.208146
  21 H :   -0.004893
  22 C :    0.081644
  23 H :    0.012096
  24 H :   -0.008948
  25 C :   -0.081033
  26 H :    0.028629
  27 H :    0.022164
  28 C :    0.000801
  29 H :    0.032028
  30 H :    0.031136
  31 H :    0.016662
  32 H :    0.017706
  33 H :    0.052666
Sum of atomic charges:    0.0000000

LOEWDIN ATOMIC CHARGES
----------------------
   0 S :    0.403407
   1 C :   -0.170608
   2 C :   -0.064675
   3 C :   -0.054208
   4 C :   -0.201327
   5 H :    0.028623
   6 C :   -0.038362
   7 H :    0.039193
   8 H :    0.036412
   9 C :   -0.039970
  10 H :    0.019487
  11 H :    0.018955
  12 C :   -0.073483
  13 H :    0.024491
  14 H :    0.035162
  15 H :    0.022039
  16 S :    0.409589
  17 C :   -0.191452
  18 C :   -0.070060
  19 C :   -0.049990
  20 C :   -0.188875
  21 H :    0.022635
  22 C :   -0.023642
  23 H :    0.026473
  24 H :    0.018671
  25 C :   -0.041971
  26 H :    0.024192
  27 H :    0.020674
  28 C :   -0.055125
  29 H :    0.026981
  30 H :    0.026822
  31 H :    0.020805
  32 H :    0.009882
  33 H :    0.029257

  Mayer bond orders larger than 0.100000
B(  0-S ,  1-C ) :   1.1418 B(  0-S ,  4-C ) :   1.1484 B(  1-C ,  2-C ) :   1.6120
B(  1-C , 32-H ) :   0.9838 B(  2-C ,  3-C ) :   1.2282 B(  2-C ,  6-C ) :   1.0165
B(  3-C ,  4-C ) :   1.6282 B(  3-C ,  5-H ) :   0.9999 B(  4-C , 20-C ) :   0.9823
B(  6-C ,  7-H ) :   0.9439 B(  6-C ,  8-H ) :   0.9484 B(  6-C ,  9-C ) :   1.0483
B(  9-C , 10-H ) :   0.9594 B(  9-C , 11-H ) :   0.9597 B(  9-C , 12-C ) :   1.0809
B( 12-C , 13-H ) :   0.9744 B( 12-C , 14-H ) :   0.9724 B( 12-C , 15-H ) :   0.9745
B( 16-S , 17-C ) :   1.1439 B( 16-S , 20-C ) :   1.1597 B( 17-C , 18-C ) :   1.6493
B( 17-C , 33-H ) :   0.9629 B( 18-C , 19-C ) :   1.2272 B( 18-C , 21-H ) :   0.9957
B( 19-C , 20-C ) :   1.6029 B( 19-C , 22-C ) :   1.0228 B( 22-C , 23-H ) :   0.9436
B( 22-C , 24-H ) :   0.9318 B( 22-C , 25-C ) :   1.0495 B( 25-C , 26-H ) :   0.9538
B( 25-C , 27-H ) :   0.9599 B( 25-C , 28-C ) :   1.0867 B( 28-C , 29-H ) :   0.9757
B( 28-C , 30-H ) :   0.9710 B( 28-C , 31-H ) :   0.9718

Dispersion correction           -0.013386885
FINAL SINGLE POINT ENERGY     -1339.856700415509

DIPOLE MOMENT
-------------
                                X             Y             Z
Electronic contribution:    -23.52160       9.06734     -10.63321
Nuclear contribution   :     23.91691      -9.06604      11.03334
                        -----------------------------------------
Total Dipole Moment    :      0.39531       0.00130       0.40013
                        -----------------------------------------
Magnitude (a.u.)       :      0.56247
Magnitude (Debye)      :      1.42970

Rotational constants in cm-1:     0.017766     0.007802     0.006404
Rotational constants in MHz :   532.601708   233.910946   191.996910

                             ****ORCA TERMINATED NORMALLY****
TOTAL RUN TIME: 0 days 0 hours 0 minutes 20 seconds 796 msec
