                         Program Version 4.2.1 -  RELEASE  -
|  1> ! wB97X-D3 SP def2-SVP
|  2> %pal
|  3> nprocs 24
|  4> end
|  5>
|  6> * xyz 0 1
|  7> S 	 -129.426 	 62.9475 	 -59.84
|  8> C 	 -128.752 	 61.5102 	 -60.6903
|  9> C 	 -128.587 	 60.4335 	 -59.8948
| 10> C 	 -129.068 	 60.6853 	 -58.6039
| 11> C 	 -129.524 	 61.9973 	 -58.4375
| 12> H 	 -129.087 	 59.9814 	 -57.7738
| 13> C 	 -127.862 	 59.1005 	 -60.1417
| 14> H 	 -127.133 	 58.8897 	 -59.3207
| 15> H 	 -127.294 	 59.1717 	 -61.0485
| 16> C 	 -128.697 	 57.8405 	 -60.2092
| 17> H 	 -129.267 	 57.7898 	 -59.2677
| 18> H 	 -129.418 	 57.9502 	 -61.092
| 19> C 	 -127.903 	 56.5376 	 -60.4317
| 20> H 	 -127.257 	 56.519 	 -61.3423
| 21> H 	 -127.247 	 56.2886 	 -59.6063
| 22> H 	 -128.526 	 55.6351 	 -60.3741
| 23> S 	 -131.463 	 63.7196 	 -57.3821
| 24> C 	 -131.615 	 63.9065 	 -55.6804
| 25> C 	 -130.669 	 63.2324 	 -55.0475
| 26> C 	 -129.824 	 62.4182 	 -55.8658
| 27> C 	 -130.018 	 62.632 	 -57.2128
| 28> H 	 -130.654 	 63.2564 	 -53.9512
| 29> C 	 -128.716 	 61.6002 	 -55.2169
| 30> H 	 -128.452 	 60.6624 	 -55.8065
| 31> H 	 -129.051 	 61.2508 	 -54.2541
| 32> C 	 -127.452 	 62.4153 	 -55.1614
| 33> H 	 -127.515 	 63.3467 	 -54.6359
| 34> H 	 -127.308 	 62.6064 	 -56.2106
| 35> C 	 -126.212 	 61.6369 	 -54.7494
| 36> H 	 -126.021 	 60.7845 	 -55.4393
| 37> H 	 -126.29 	 61.5037 	 -53.7169
| 38> H 	 -125.332 	 62.1913 	 -54.9155
| 39> H 	 -128.36 	 61.6585 	 -61.6809
| 40> H 	 -132.381 	 64.3508 	 -55.1762
| 41> *
| 42>
| 43>                          ****END OF INPUT****

CARTESIAN COORDINATES (ANGSTROEM)
---------------------------------
  S    -129.426000   62.947500  -59.840000
  C    -128.752000   61.510200  -60.690300
  C    -128.587000   60.433500  -59.894800
  C    -129.068000   60.685300  -58.603900
  C    -129.524000   61.997300  -58.437500
  H    -129.087000   59.981400  -57.773800
  C    -127.862000   59.100500  -60.141700
  H    -127.133000   58.889700  -59.320700
  H    -127.294000   59.171700  -61.048500
  C    -128.697000   57.840500  -60.209200
  H    -129.267000   57.789800  -59.267700
  H    -129.418000   57.950200  -61.092000
  C    -127.903000   56.537600  -60.431700
  H    -127.257000   56.519000  -61.342300
  H    -127.247000   56.288600  -59.606300
  H    -128.526000   55.635100  -60.374100
  S    -131.463000   63.719600  -57.382100
  C    -131.615000   63.906500  -55.680400
  C    -130.669000   63.232400  -55.047500
  C    -129.824000   62.418200  -55.865800
  C    -130.018000   62.632000  -57.212800
  H    -130.654000   63.256400  -53.951200
  C    -128.716000   61.600200  -55.216900
  H    -128.452000   60.662400  -55.806500
  H    -129.051000   61.250800  -54.254100
  C    -127.452000   62.415300  -55.161400
  H    -127.515000   63.346700  -54.635900
  H    -127.308000   62.606400  -56.210600
  C    -126.212000   61.636900  -54.749400
  H    -126.021000   60.784500  -55.439300
  H    -126.290000   61.503700  -53.716900
  H    -125.332000   62.191300  -54.915500
  H    -128.360000   61.658500  -61.680900
  H    -132.381000   64.350800  -55.176200

 Total Charge           Charge          ....    0
 Multiplicity           Mult            ....    1
 Number of Electrons    NEL             ....  134
 Basis Dimension        Dim             ....  322

ORBITAL ENERGIES
----------------

  NO   OCC          E(Eh)            E(eV)
   0   2.0000     -88.968762     -2420.9631
   1   2.0000     -88.959593     -2420.7136
   2   2.0000     -10.330284      -281.1013
   3   2.0000     -10.330052      -281.0950
   4   2.0000     -10.313907      -280.6557
   5   2.0000     -10.303950      -280.3847
   6   2.0000     -10.302993      -280.3587
   7   2.0000     -10.301427      -280.3161
   8   2.0000     -10.295940      -280.1668
   9   2.0000     -10.295250      -280.1480
  10   2.0000     -10.293558      -280.1020
  11   2.0000     -10.292335      -280.0687
  12   2.0000     -10.286922      -279.9214
  13   2.0000     -10.284670      -279.8601
  14   2.0000     -10.275002      -279.5970
  15   2.0000     -10.268923      -279.4316
  16   2.0000      -8.084005      -219.9770
  17   2.0000      -8.074425      -219.7163
  18   2.0000      -6.042393      -164.4219
  19   2.0000      -6.038616      -164.3191
  20   2.0000      -6.034675      -164.2119
  21   2.0000      -6.033038      -164.1673
  22   2.0000      -6.028978      -164.0568
  23   2.0000      -6.024994      -163.9484
  24   2.0000      -1.011264       -27.5179
  25   2.0000      -0.989837       -26.9348
  26   2.0000      -0.916414       -24.9369
  27   2.0000      -0.915345       -24.9078
  28   2.0000      -0.874222       -23.7888
  29   2.0000      -0.855167       -23.2703
  30   2.0000      -0.844117       -22.9696
  31   2.0000      -0.813821       -22.1452
  32   2.0000      -0.788310       -21.4510
  33   2.0000      -0.779158       -21.2020
  34   2.0000      -0.709850       -19.3160
  35   2.0000      -0.696536       -18.9537
  36   2.0000      -0.692500       -18.8439
  37   2.0000      -0.662982       -18.0407
  38   2.0000      -0.642376       -17.4800
  39   2.0000      -0.627244       -17.0682
  40   2.0000      -0.602160       -16.3856
  41   2.0000      -0.577853       -15.7242
  42   2.0000      -0.570414       -15.5218
  43   2.0000      -0.563986       -15.3468
  44   2.0000      -0.524943       -14.2844
  45   2.0000      -0.522482       -14.2175
  46   2.0000      -0.518320       -14.1042
  47   2.0000      -0.512219       -13.9382
  48   2.0000      -0.509214       -13.8564
  49   2.0000      -0.500643       -13.6232
  50   2.0000      -0.491438       -13.3727
  51   2.0000      -0.489192       -13.3116
  52   2.0000      -0.469209       -12.7678
  53   2.0000      -0.467681       -12.7262
  54   2.0000      -0.462505       -12.5854
  55   2.0000      -0.452682       -12.3181
  56   2.0000      -0.444951       -12.1077
  57   2.0000      -0.435401       -11.8479
  58   2.0000      -0.429522       -11.6879
  59   2.0000      -0.426193       -11.5973
  60   2.0000      -0.419701       -11.4206
  61   2.0000      -0.416940       -11.3455
  62   2.0000      -0.408713       -11.1216
  63   2.0000      -0.357339        -9.7237
  64   2.0000      -0.337812        -9.1923
  65   2.0000      -0.328965        -8.9516
  66   2.0000      -0.288512        -7.8508
  67   0.0000       0.027026         0.7354
  68   0.0000       0.076668         2.0862
  69   0.0000       0.095954         2.6110
  70   0.0000       0.118300         3.2191
  71   0.0000       0.141085         3.8391

MULLIKEN ATOMIC CHARGES
-----------------------
   0 S :    0.107787
   1 C :   -0.146475
   2 C :   -0.007725
   3 C :   -0.013681
   4 C :   -0.127827
   5 H :    0.013999
   6 C :    0.064499
   7 H :    0.032067
   8 H :    0.008836
   9 C :   -0.097078
  10 H :    0.033446
  11 H :    0.043521
  12 C :   -0.053451
  13 H :    0.042665
  14 H :    0.016962
  15 H :    0.036041
  16 S :    0.071827
  17 C :   -0.024524
  18 C :   -0.041840
  19 C :   -0.056136
  20 C :   -0.117184
  21 H :    0.017518
  22 C :    0.066731
  23 H :    0.015648
  24 H :    0.010803
  25 C :   -0.075515
  26 H :    0.025989
  27 H :    0.021377
  28 C :    0.005025
  29 H :    0.031085
  30 H :    0.022198
  31 H :    0.015277
  32 H :    0.040405
  33 H :    0.017734
Sum of atomic charges:   -0.0000000

LOEWDIN ATOMIC CHARGES
----------------------
   0 S :    0.412280
   1 C :   -0.177218
   2 C :   -0.059506
   3 C :   -0.068246
   4 C :   -0.199045
   5 H :    0.028193
   6 C :   -0.029419
   7 H :    0.035432
   8 H :    0.023208
   9 C :   -0.045664
  10 H :    0.024833
  11 H :    0.032281
  12 C :   -0.075743
  13 H :    0.030536
  14 H :    0.021802
  15 H :    0.031853
  16 S :    0.376384
  17 C :   -0.172071
  18 C :   -0.075444
  19 C :   -0.053782
  20 C :   -0.177341
  21 H :    0.033449
  22 C :   -0.028612
  23 H :    0.032692
  24 H :    0.020562
  25 C :   -0.038821
  26 H :    0.021557
  27 H :    0.026427
  28 C :   -0.059038
  29 H :    0.031850
  30 H :    0.017194
  31 H :    0.021842
  32 H :    0.021242
  33 H :    0.016328

  Mayer bond orders larger than 0.100000
B(  0-S ,  1-C ) :   1.1157 B(  0-S ,  4-C ) :   1.1779 B(  1-C ,  2-C ) :   1.6375
B(  1-C , 32-H ) :   0.9695 B(  2-C ,  3-C ) :   1.2292 B(  2-C ,  6-C ) :   1.0134
B(  3-C ,  4-C ) :   1.5708 B(  3-C ,  5-H ) :   0.9903 B(  4-C , 20-C ) :   1.0282
B(  6-C ,  7-H ) :   0.9444 B(  6-C ,  8-H ) :   0.9386 B(  6-C ,  9-C ) :   1.0629
B(  9-C , 10-H ) :   0.9550 B(  9-C , 11-H ) :   0.9535 B(  9-C , 12-C ) :   1.0840
B( 12-C , 13-H ) :   0.9748 B( 12-C , 14-H ) :   0.9696 B( 12-C , 15-H ) :   0.9723
B( 16-S , 17-C ) :   1.1394 B( 16-S , 20-C ) :   1.1109 B( 17-C , 18-C ) :   1.6483
B( 17-C , 33-H ) :   0.9737 B( 18-C , 19-C ) :   1.2184 B( 18-C , 21-H ) :   0.9854
B( 19-C , 20-C ) :   1.6314 B( 19-C , 22-C ) :   1.0534 B( 22-C , 23-H ) :   0.9362
B( 22-C , 24-H ) :   0.9258 B( 22-C , 25-C ) :   1.0628 B( 25-C , 26-H ) :   0.9553
B( 25-C , 27-H ) :   0.9537 B( 25-C , 28-C ) :   1.0964 B( 28-C , 29-H ) :   0.9687
B( 28-C , 30-H ) :   0.9741 B( 28-C , 31-H ) :   0.9689

Dispersion correction           -0.013757446
FINAL SINGLE POINT ENERGY     -1339.871001817879

DIPOLE MOMENT
-------------
                                X             Y             Z
Electronic contribution:    -18.40110      23.59661      -5.82755
Nuclear contribution   :     18.83028     -24.08985       6.21039
                        -----------------------------------------
Total Dipole Moment    :      0.42918      -0.49324       0.38284
                        -----------------------------------------
Magnitude (a.u.)       :      0.75766
Magnitude (Debye)      :      1.92581

Rotational constants in cm-1:     0.017771     0.008420     0.006672
Rotational constants in MHz :   532.759953   252.411035   200.019725

                             ****ORCA TERMINATED NORMALLY****
TOTAL RUN TIME: 0 days 0 hours 0 minutes 21 seconds 568 msec
