                         Program Version 4.2.1 -  RELEASE  -
|  1> ! wB97X-D3 SP def2-SVP
|  2> %pal
|  3> nprocs 24
|  4> end
|  5>
|  6> * xyz 0 1
|  7> S 	 -35.8355 	 -5.30103 	 5.93701
|  8> C 	 -36.2259 	 -4.48523 	 7.46981
|  9> C 	 -37.2384 	 -5.13633 	 8.12782
| 10> C 	 -37.737 	 -6.27421 	 7.39356
| 11> C 	 -37.1666 	 -6.48454 	 6.17117
| 12> H 	 -38.5768 	 -6.94899 	 7.57064
| 13> C 	 -37.7325 	 -4.71165 	 9.49509
| 14> H 	 -37.0333 	 -4.10149 	 10.0516
| 15> H 	 -37.8023 	 -5.64634 	 10.172
| 16> C 	 -38.9429 	 -3.82783 	 9.65546
| 17> H 	 -38.6543 	 -2.96254 	 9.11864
| 18> H 	 -39.7873 	 -4.33465 	 9.16301
| 19> C 	 -39.1785 	 -3.47285 	 11.1382
| 20> H 	 -39.4254 	 -4.27578 	 11.8624
| 21> H 	 -38.3448 	 -2.87106 	 11.4711
| 22> H 	 -39.9425 	 -2.70915 	 11.1577
| 23> S 	 -36.1629 	 -8.63322 	 4.74442
| 24> C 	 -37.3397 	 -9.37769 	 3.71858
| 25> C 	 -38.6553 	 -9.00877 	 3.93373
| 26> C 	 -38.7898 	 -7.94219 	 4.87916
| 27> C 	 -37.5037 	 -7.58587 	 5.28917
| 28> H 	 -39.4389 	 -9.44786 	 3.38018
| 29> C 	 -40.0983 	 -7.40085 	 5.28477
| 30> H 	 -40.2671 	 -7.45824 	 6.35307
| 31> H 	 -40.9656 	 -7.87463 	 4.85171
| 32> C 	 -40.4255 	 -5.96324 	 4.86618
| 33> H 	 -40.336 	 -5.88743 	 3.74417
| 34> H 	 -39.596 	 -5.32683 	 5.25725
| 35> C 	 -41.7478 	 -5.32417 	 5.41618
| 36> H 	 -41.8933 	 -5.59723 	 6.41714
| 37> H 	 -42.6271 	 -5.6683 	 4.86281
| 38> H 	 -41.7242 	 -4.21223 	 5.35714
| 39> H 	 -35.6703 	 -3.69475 	 7.95317
| 40> H 	 -37.1063 	 -10.134 	 2.93087
| 41> *
| 42>
| 43>                          ****END OF INPUT****

CARTESIAN COORDINATES (ANGSTROEM)
---------------------------------
  S    -35.835500   -5.301030    5.937010
  C    -36.225900   -4.485230    7.469810
  C    -37.238400   -5.136330    8.127820
  C    -37.737000   -6.274210    7.393560
  C    -37.166600   -6.484540    6.171170
  H    -38.576800   -6.948990    7.570640
  C    -37.732500   -4.711650    9.495090
  H    -37.033300   -4.101490   10.051600
  H    -37.802300   -5.646340   10.172000
  C    -38.942900   -3.827830    9.655460
  H    -38.654300   -2.962540    9.118640
  H    -39.787300   -4.334650    9.163010
  C    -39.178500   -3.472850   11.138200
  H    -39.425400   -4.275780   11.862400
  H    -38.344800   -2.871060   11.471100
  H    -39.942500   -2.709150   11.157700
  S    -36.162900   -8.633220    4.744420
  C    -37.339700   -9.377690    3.718580
  C    -38.655300   -9.008770    3.933730
  C    -38.789800   -7.942190    4.879160
  C    -37.503700   -7.585870    5.289170
  H    -39.438900   -9.447860    3.380180
  C    -40.098300   -7.400850    5.284770
  H    -40.267100   -7.458240    6.353070
  H    -40.965600   -7.874630    4.851710
  C    -40.425500   -5.963240    4.866180
  H    -40.336000   -5.887430    3.744170
  H    -39.596000   -5.326830    5.257250
  C    -41.747800   -5.324170    5.416180
  H    -41.893300   -5.597230    6.417140
  H    -42.627100   -5.668300    4.862810
  H    -41.724200   -4.212230    5.357140
  H    -35.670300   -3.694750    7.953170
  H    -37.106300  -10.134000    2.930870

 Total Charge           Charge          ....    0
 Multiplicity           Mult            ....    1
 Number of Electrons    NEL             ....  134
 Basis Dimension        Dim             ....  322

ORBITAL ENERGIES
----------------

  NO   OCC          E(Eh)            E(eV)
   0   2.0000     -88.974197     -2421.1110
   1   2.0000     -88.964175     -2420.8383
   2   2.0000     -10.330011      -281.0939
   3   2.0000     -10.327084      -281.0142
   4   2.0000     -10.318173      -280.7718
   5   2.0000     -10.315439      -280.6974
   6   2.0000     -10.308070      -280.4968
   7   2.0000     -10.303250      -280.3657
   8   2.0000     -10.292272      -280.0670
   9   2.0000     -10.291869      -280.0560
  10   2.0000     -10.291314      -280.0409
  11   2.0000     -10.290961      -280.0313
  12   2.0000     -10.290056      -280.0067
  13   2.0000     -10.284660      -279.8598
  14   2.0000     -10.282288      -279.7953
  15   2.0000     -10.280512      -279.7470
  16   2.0000      -8.088532      -220.1001
  17   2.0000      -8.077696      -219.8053
  18   2.0000      -6.046832      -164.5427
  19   2.0000      -6.043456      -164.4508
  20   2.0000      -6.039174      -164.3343
  21   2.0000      -6.036399      -164.2588
  22   2.0000      -6.032394      -164.1498
  23   2.0000      -6.028293      -164.0382
  24   2.0000      -1.004996       -27.3473
  25   2.0000      -0.980255       -26.6741
  26   2.0000      -0.915169       -24.9030
  27   2.0000      -0.913310       -24.8524
  28   2.0000      -0.870606       -23.6904
  29   2.0000      -0.855305       -23.2740
  30   2.0000      -0.842155       -22.9162
  31   2.0000      -0.812683       -22.1142
  32   2.0000      -0.788549       -21.4575
  33   2.0000      -0.772597       -21.0234
  34   2.0000      -0.707734       -19.2584
  35   2.0000      -0.697404       -18.9773
  36   2.0000      -0.687660       -18.7122
  37   2.0000      -0.663823       -18.0635
  38   2.0000      -0.641761       -17.4632
  39   2.0000      -0.617952       -16.8153
  40   2.0000      -0.604720       -16.4553
  41   2.0000      -0.572072       -15.5669
  42   2.0000      -0.568638       -15.4734
  43   2.0000      -0.558886       -15.2081
  44   2.0000      -0.522395       -14.2151
  45   2.0000      -0.519271       -14.1301
  46   2.0000      -0.515310       -14.0223
  47   2.0000      -0.507244       -13.8028
  48   2.0000      -0.500970       -13.6321
  49   2.0000      -0.496680       -13.5153
  50   2.0000      -0.494148       -13.4465
  51   2.0000      -0.485892       -13.2218
  52   2.0000      -0.471267       -12.8238
  53   2.0000      -0.465429       -12.6650
  54   2.0000      -0.462920       -12.5967
  55   2.0000      -0.456161       -12.4128
  56   2.0000      -0.441797       -12.0219
  57   2.0000      -0.440611       -11.9896
  58   2.0000      -0.432788       -11.7768
  59   2.0000      -0.429606       -11.6902
  60   2.0000      -0.423376       -11.5207
  61   2.0000      -0.410418       -11.1680
  62   2.0000      -0.403876       -10.9900
  63   2.0000      -0.344385        -9.3712
  64   2.0000      -0.338697        -9.2164
  65   2.0000      -0.327321        -8.9069
  66   2.0000      -0.290915        -7.9162
  67   0.0000       0.024358         0.6628
  68   0.0000       0.069753         1.8981
  69   0.0000       0.100114         2.7242
  70   0.0000       0.119817         3.2604
  71   0.0000       0.126623         3.4456

MULLIKEN ATOMIC CHARGES
-----------------------
   0 S :    0.093841
   1 C :   -0.108063
   2 C :   -0.043653
   3 C :    0.029493
   4 C :   -0.162582
   5 H :    0.008432
   6 C :    0.005896
   7 H :   -0.005356
   8 H :    0.035205
   9 C :   -0.033906
  10 H :    0.015292
  11 H :    0.028124
  12 C :   -0.043534
  13 H :    0.052746
  14 H :    0.020695
  15 H :    0.024692
  16 S :    0.138139
  17 C :   -0.097701
  18 C :   -0.021955
  19 C :    0.013797
  20 C :   -0.185169
  21 H :    0.000517
  22 C :    0.079522
  23 H :    0.022646
  24 H :    0.012460
  25 C :   -0.144416
  26 H :    0.038520
  27 H :    0.047267
  28 C :   -0.025924
  29 H :    0.015709
  30 H :    0.031136
  31 H :    0.046971
  32 H :    0.046821
  33 H :    0.064343
Sum of atomic charges:   -0.0000000

LOEWDIN ATOMIC CHARGES
----------------------
   0 S :    0.363901
   1 C :   -0.182712
   2 C :   -0.065143
   3 C :   -0.064606
   4 C :   -0.182208
   5 H :    0.033309
   6 C :   -0.045692
   7 H :    0.022257
   8 H :    0.035152
   9 C :   -0.034868
  10 H :    0.021853
  11 H :    0.020908
  12 C :   -0.065950
  13 H :    0.032489
  14 H :    0.025300
  15 H :    0.027239
  16 S :    0.408000
  17 C :   -0.195469
  18 C :   -0.061591
  19 C :   -0.044094
  20 C :   -0.182048
  21 H :    0.025175
  22 C :   -0.039123
  23 H :    0.027689
  24 H :    0.032375
  25 C :   -0.044834
  26 H :    0.027517
  27 H :    0.026040
  28 C :   -0.063202
  29 H :    0.015596
  30 H :    0.024312
  31 H :    0.036301
  32 H :    0.030912
  33 H :    0.035213

  Mayer bond orders larger than 0.100000
B(  0-S ,  1-C ) :   1.1158 B(  0-S ,  4-C ) :   1.1130 B(  1-C ,  2-C ) :   1.6450
B(  1-C , 32-H ) :   0.9659 B(  2-C ,  3-C ) :   1.1922 B(  2-C ,  6-C ) :   1.0259
B(  3-C ,  4-C ) :   1.6099 B(  3-C ,  5-H ) :   0.9925 B(  4-C , 20-C ) :   1.0714
B(  6-C ,  7-H ) :   0.9424 B(  6-C ,  8-H ) :   0.9416 B(  6-C ,  9-C ) :   1.0584
B(  9-C , 10-H ) :   0.9488 B(  9-C , 11-H ) :   0.9562 B(  9-C , 12-C ) :   1.0857
B( 12-C , 13-H ) :   0.9764 B( 12-C , 14-H ) :   0.9674 B( 12-C , 15-H ) :   0.9710
B( 16-S , 17-C ) :   1.1393 B( 16-S , 20-C ) :   1.1428 B( 17-C , 18-C ) :   1.6358
B( 17-C , 33-H ) :   0.9581 B( 18-C , 19-C ) :   1.2275 B( 18-C , 21-H ) :   0.9938
B( 19-C , 20-C ) :   1.5872 B( 19-C , 22-C ) :   1.0546 B( 22-C , 23-H ) :   0.9242
B( 22-C , 24-H ) :   0.9302 B( 22-C , 25-C ) :   1.0496 B( 25-C , 26-H ) :   0.9568
B( 25-C , 27-H ) :   0.9580 B( 25-C , 28-C ) :   1.0731 B( 28-C , 29-H ) :   0.9729
B( 28-C , 30-H ) :   0.9755 B( 28-C , 31-H ) :   0.9760

Dispersion correction           -0.014398815
FINAL SINGLE POINT ENERGY     -1339.867334315119

DIPOLE MOMENT
-------------
                                X             Y             Z
Electronic contribution:     24.57451     -14.26704     -16.05609
Nuclear contribution   :    -25.19084      14.34343      16.35161
                        -----------------------------------------
Total Dipole Moment    :     -0.61633       0.07639       0.29552
                        -----------------------------------------
Magnitude (a.u.)       :      0.68777
Magnitude (Debye)      :      1.74818

Rotational constants in cm-1:     0.018941     0.008737     0.006713
Rotational constants in MHz :   567.845053   261.941237   201.246016

                             ****ORCA TERMINATED NORMALLY****
TOTAL RUN TIME: 0 days 0 hours 0 minutes 20 seconds 768 msec
