                         Program Version 4.2.1 -  RELEASE  -
|  1> ! wB97X-D3 SP def2-SVP
|  2> %pal
|  3> nprocs 24
|  4> end
|  5>
|  6> * xyz 0 1
|  7> S 	 -2.94104 	 -20.6518 	 -106.172
|  8> C 	 -2.64893 	 -22.3939 	 -106.004
|  9> C 	 -3.61616 	 -23.0382 	 -105.183
| 10> C 	 -4.66217 	 -22.1245 	 -104.867
| 11> C 	 -4.39195 	 -20.8239 	 -105.248
| 12> H 	 -5.54836 	 -22.3933 	 -104.412
| 13> C 	 -3.67094 	 -24.4972 	 -104.859
| 14> H 	 -3.52976 	 -24.9728 	 -105.862
| 15> H 	 -4.63375 	 -24.8541 	 -104.45
| 16> C 	 -2.52091 	 -24.9436 	 -103.972
| 17> H 	 -1.56746 	 -24.7191 	 -104.456
| 18> H 	 -2.65107 	 -24.377 	 -103.005
| 19> C 	 -2.57673 	 -26.4413 	 -103.727
| 20> H 	 -1.89335 	 -26.6743 	 -102.935
| 21> H 	 -3.61227 	 -26.7539 	 -103.514
| 22> H 	 -2.22054 	 -26.7929 	 -104.722
| 23> S 	 -5.28093 	 -18.5258 	 -106.384
| 24> C 	 -6.24956 	 -17.4622 	 -105.475
| 25> C 	 -6.70531 	 -18.0715 	 -104.31
| 26> C 	 -6.22979 	 -19.3665 	 -104.075
| 27> C 	 -5.28107 	 -19.6529 	 -105.097
| 28> H 	 -7.31813 	 -17.4965 	 -103.647
| 29> C 	 -6.68172 	 -20.158 	 -102.879
| 30> H 	 -6.90509 	 -21.1792 	 -103.205
| 31> H 	 -7.62785 	 -19.8275 	 -102.472
| 32> C 	 -5.58009 	 -20.1256 	 -101.786
| 33> H 	 -4.713 	 -20.6418 	 -102.121
| 34> H 	 -5.93933 	 -20.7724 	 -100.97
| 35> C 	 -5.22479 	 -18.7792 	 -101.135
| 36> H 	 -4.24504 	 -18.9439 	 -100.572
| 37> H 	 -6.04299 	 -18.4039 	 -100.475
| 38> H 	 -4.92861 	 -18.0323 	 -101.822
| 39> H 	 -1.6894 	 -22.9249 	 -106.138
| 40> H 	 -6.56171 	 -16.4731 	 -105.765
| 41> *
| 42>
| 43>                          ****END OF INPUT****

CARTESIAN COORDINATES (ANGSTROEM)
---------------------------------
  S     -2.941040  -20.651800  -106.172000
  C     -2.648930  -22.393900  -106.004000
  C     -3.616160  -23.038200  -105.183000
  C     -4.662170  -22.124500  -104.867000
  C     -4.391950  -20.823900  -105.248000
  H     -5.548360  -22.393300  -104.412000
  C     -3.670940  -24.497200  -104.859000
  H     -3.529760  -24.972800  -105.862000
  H     -4.633750  -24.854100  -104.450000
  C     -2.520910  -24.943600  -103.972000
  H     -1.567460  -24.719100  -104.456000
  H     -2.651070  -24.377000  -103.005000
  C     -2.576730  -26.441300  -103.727000
  H     -1.893350  -26.674300  -102.935000
  H     -3.612270  -26.753900  -103.514000
  H     -2.220540  -26.792900  -104.722000
  S     -5.280930  -18.525800  -106.384000
  C     -6.249560  -17.462200  -105.475000
  C     -6.705310  -18.071500  -104.310000
  C     -6.229790  -19.366500  -104.075000
  C     -5.281070  -19.652900  -105.097000
  H     -7.318130  -17.496500  -103.647000
  C     -6.681720  -20.158000  -102.879000
  H     -6.905090  -21.179200  -103.205000
  H     -7.627850  -19.827500  -102.472000
  C     -5.580090  -20.125600  -101.786000
  H     -4.713000  -20.641800  -102.121000
  H     -5.939330  -20.772400  -100.970000
  C     -5.224790  -18.779200  -101.135000
  H     -4.245040  -18.943900  -100.572000
  H     -6.042990  -18.403900  -100.475000
  H     -4.928610  -18.032300  -101.822000
  H     -1.689400  -22.924900  -106.138000
  H     -6.561710  -16.473100  -105.765000

 Total Charge           Charge          ....    0
 Multiplicity           Mult            ....    1
 Number of Electrons    NEL             ....  134
 Basis Dimension        Dim             ....  322

ORBITAL ENERGIES
----------------

  NO   OCC          E(Eh)            E(eV)
   0   2.0000     -88.971328     -2421.0329
   1   2.0000     -88.968889     -2420.9665
   2   2.0000     -10.327585      -281.0279
   3   2.0000     -10.325836      -280.9803
   4   2.0000     -10.314029      -280.6590
   5   2.0000     -10.308212      -280.5007
   6   2.0000     -10.302588      -280.3477
   7   2.0000     -10.301442      -280.3165
   8   2.0000     -10.295414      -280.1525
   9   2.0000     -10.294784      -280.1353
  10   2.0000     -10.287951      -279.9494
  11   2.0000     -10.286447      -279.9085
  12   2.0000     -10.285045      -279.8703
  13   2.0000     -10.283671      -279.8329
  14   2.0000     -10.280590      -279.7491
  15   2.0000     -10.279683      -279.7244
  16   2.0000      -8.085498      -220.0176
  17   2.0000      -8.084823      -219.9992
  18   2.0000      -6.043988      -164.4653
  19   2.0000      -6.043062      -164.4401
  20   2.0000      -6.040122      -164.3601
  21   2.0000      -6.039103      -164.3324
  22   2.0000      -6.036281      -164.2556
  23   2.0000      -6.035890      -164.2449
  24   2.0000      -1.012001       -27.5379
  25   2.0000      -0.984717       -26.7955
  26   2.0000      -0.920128       -25.0379
  27   2.0000      -0.910751       -24.7828
  28   2.0000      -0.866737       -23.5851
  29   2.0000      -0.851763       -23.1776
  30   2.0000      -0.848529       -23.0897
  31   2.0000      -0.811086       -22.0708
  32   2.0000      -0.787164       -21.4198
  33   2.0000      -0.768687       -20.9170
  34   2.0000      -0.705430       -19.1957
  35   2.0000      -0.694838       -18.9075
  36   2.0000      -0.685355       -18.6495
  37   2.0000      -0.663548       -18.0561
  38   2.0000      -0.633344       -17.2342
  39   2.0000      -0.622347       -16.9349
  40   2.0000      -0.599308       -16.3080
  41   2.0000      -0.582424       -15.8486
  42   2.0000      -0.562332       -15.3018
  43   2.0000      -0.552458       -15.0332
  44   2.0000      -0.540759       -14.7148
  45   2.0000      -0.527785       -14.3618
  46   2.0000      -0.517859       -14.0917
  47   2.0000      -0.509130       -13.8541
  48   2.0000      -0.502118       -13.6633
  49   2.0000      -0.494749       -13.4628
  50   2.0000      -0.491269       -13.3681
  51   2.0000      -0.479430       -13.0459
  52   2.0000      -0.469324       -12.7710
  53   2.0000      -0.464697       -12.6450
  54   2.0000      -0.458645       -12.4804
  55   2.0000      -0.453994       -12.3538
  56   2.0000      -0.442560       -12.0427
  57   2.0000      -0.436088       -11.8666
  58   2.0000      -0.433245       -11.7892
  59   2.0000      -0.429891       -11.6979
  60   2.0000      -0.423867       -11.5340
  61   2.0000      -0.416926       -11.3451
  62   2.0000      -0.414262       -11.2726
  63   2.0000      -0.348504        -9.4833
  64   2.0000      -0.334135        -9.0923
  65   2.0000      -0.330893        -9.0041
  66   2.0000      -0.276953        -7.5363
  67   0.0000       0.021313         0.5800
  68   0.0000       0.075809         2.0629
  69   0.0000       0.104149         2.8340
  70   0.0000       0.117979         3.2104
  71   0.0000       0.132319         3.6006

MULLIKEN ATOMIC CHARGES
-----------------------
   0 S :    0.114509
   1 C :   -0.124374
   2 C :   -0.085089
   3 C :    0.037035
   4 C :   -0.114674
   5 H :   -0.037879
   6 C :    0.033931
   7 H :    0.040420
   8 H :    0.025519
   9 C :   -0.126786
  10 H :    0.030901
  11 H :    0.037494
  12 C :   -0.011930
  13 H :    0.039971
  14 H :    0.033172
  15 H :    0.030238
  16 S :    0.131599
  17 C :   -0.087487
  18 C :   -0.045926
  19 C :   -0.025179
  20 C :   -0.165705
  21 H :    0.003134
  22 C :    0.091972
  23 H :    0.025137
  24 H :    0.014996
  25 C :   -0.071468
  26 H :    0.028658
  27 H :    0.022488
  28 C :   -0.061606
  29 H :    0.040982
  30 H :    0.042384
  31 H :    0.033734
  32 H :    0.054641
  33 H :    0.045189
Sum of atomic charges:   -0.0000000

LOEWDIN ATOMIC CHARGES
----------------------
   0 S :    0.411226
   1 C :   -0.217573
   2 C :   -0.048532
   3 C :   -0.064178
   4 C :   -0.190027
   5 H :    0.014084
   6 C :   -0.039326
   7 H :    0.039472
   8 H :    0.030030
   9 C :   -0.044074
  10 H :    0.021645
  11 H :    0.025728
  12 C :   -0.061017
  13 H :    0.024669
  14 H :    0.025173
  15 H :    0.031062
  16 S :    0.448129
  17 C :   -0.211345
  18 C :   -0.067338
  19 C :   -0.055204
  20 C :   -0.209612
  21 H :    0.025074
  22 C :   -0.027484
  23 H :    0.030618
  24 H :    0.029733
  25 C :   -0.038777
  26 H :    0.020454
  27 H :    0.024510
  28 C :   -0.069654
  29 H :    0.039791
  30 H :    0.028888
  31 H :    0.018205
  32 H :    0.029456
  33 H :    0.026193

  Mayer bond orders larger than 0.100000
B(  0-S ,  1-C ) :   1.1275 B(  0-S ,  4-C ) :   1.1672 B(  1-C ,  2-C ) :   1.5979
B(  1-C ,  4-C ) :   0.1006 B(  1-C , 32-H ) :   0.9552 B(  2-C ,  3-C ) :   1.2637
B(  2-C ,  6-C ) :   1.0154 B(  3-C ,  4-C ) :   1.5377 B(  3-C ,  5-H ) :   1.0038
B(  4-C , 20-C ) :   1.0422 B(  6-C ,  7-H ) :   0.9366 B(  6-C ,  8-H ) :   0.9472
B(  6-C ,  9-C ) :   1.0618 B(  9-C , 10-H ) :   0.9592 B(  9-C , 11-H ) :   0.9546
B(  9-C , 12-C ) :   1.0734 B( 12-C , 13-H ) :   0.9742 B( 12-C , 14-H ) :   0.9730
B( 12-C , 15-H ) :   0.9767 B( 16-S , 17-C ) :   1.1618 B( 16-S , 20-C ) :   1.1903
B( 17-C , 18-C ) :   1.5675 B( 17-C , 20-C ) :   0.1061 B( 17-C , 33-H ) :   0.9713
B( 18-C , 19-C ) :   1.2905 B( 18-C , 21-H ) :   0.9932 B( 19-C , 20-C ) :   1.5150
B( 19-C , 22-C ) :   1.0397 B( 22-C , 23-H ) :   0.9305 B( 22-C , 24-H ) :   0.9340
B( 22-C , 25-C ) :   1.0711 B( 25-C , 26-H ) :   0.9580 B( 25-C , 27-H ) :   0.9539
B( 25-C , 28-C ) :   1.0762 B( 28-C , 29-H ) :   0.9707 B( 28-C , 30-H ) :   0.9757
B( 28-C , 31-H ) :   0.9741

Dispersion correction           -0.014420898
FINAL SINGLE POINT ENERGY     -1339.874811205341

DIPOLE MOMENT
-------------
                                X             Y             Z
Electronic contribution:     -0.42085      18.55097     -21.52297
Nuclear contribution   :      0.20874     -18.90263      22.03317
                        -----------------------------------------
Total Dipole Moment    :     -0.21211      -0.35166       0.51020
                        -----------------------------------------
Magnitude (a.u.)       :      0.65495
Magnitude (Debye)      :      1.66476

Rotational constants in cm-1:     0.021275     0.008260     0.006529
Rotational constants in MHz :   637.822589   247.632295   195.739631

                             ****ORCA TERMINATED NORMALLY****
TOTAL RUN TIME: 0 days 0 hours 0 minutes 20 seconds 799 msec
