                         Program Version 4.2.1 -  RELEASE  -
|  1> ! wB97X-D3 SP def2-SVP
|  2> %pal
|  3> nprocs 24
|  4> end
|  5>
|  6> * xyz 0 1
|  7> S 	 -66.0065 	 8.09411 	 -68.5282
|  8> C 	 -66.2653 	 8.18368 	 -70.2506
|  9> C 	 -66.3472 	 6.94841 	 -70.7759
| 10> C 	 -66.3064 	 5.97219 	 -69.776
| 11> C 	 -66.172 	 6.38549 	 -68.4478
| 12> H 	 -66.3384 	 4.92756 	 -69.9471
| 13> C 	 -66.2992 	 6.64019 	 -72.2653
| 14> H 	 -65.5854 	 5.85554 	 -72.402
| 15> H 	 -65.8431 	 7.37125 	 -72.9392
| 16> C 	 -67.6279 	 6.29843 	 -72.92
| 17> H 	 -68.3992 	 7.00122 	 -72.516
| 18> H 	 -67.6523 	 6.72563 	 -74.0122
| 19> C 	 -67.9323 	 4.77533 	 -72.9217
| 20> H 	 -67.688 	 4.21833 	 -71.9909
| 21> H 	 -68.9312 	 4.65315 	 -73.2569
| 22> H 	 -67.2273 	 4.22149 	 -73.6297
| 23> S 	 -65.0306 	 6.31977 	 -66.012
| 24> C 	 -65.0682 	 4.88194 	 -64.9716
| 25> C 	 -65.8505 	 3.879 	 -65.5596
| 26> C 	 -66.4131 	 4.30768 	 -66.8728
| 27> C 	 -66.0577 	 5.5956 	 -67.2364
| 28> H 	 -66.0034 	 2.98494 	 -64.9249
| 29> C 	 -67.452 	 3.43408 	 -67.564
| 30> H 	 -67.5931 	 3.62181 	 -68.5985
| 31> H 	 -68.4338 	 3.48916 	 -67.0551
| 32> C 	 -67.1145 	 1.9163 	 -67.585
| 33> H 	 -67.2654 	 1.49644 	 -66.6112
| 34> H 	 -66.1041 	 1.67746 	 -67.86
| 35> C 	 -68.0766 	 1.09776 	 -68.4092
| 36> H 	 -67.8014 	 1.27283 	 -69.4803
| 37> H 	 -69.0741 	 1.45192 	 -68.2135
| 38> H 	 -68.0339 	 0.0587676 	 -68.1829
| 39> H 	 -66.3119 	 9.11901 	 -70.7981
| 40> H 	 -64.6302 	 4.6884 	 -64.0672
| 41> *
| 42>
| 43>                          ****END OF INPUT****

CARTESIAN COORDINATES (ANGSTROEM)
---------------------------------
  S    -66.006500    8.094110  -68.528200
  C    -66.265300    8.183680  -70.250600
  C    -66.347200    6.948410  -70.775900
  C    -66.306400    5.972190  -69.776000
  C    -66.172000    6.385490  -68.447800
  H    -66.338400    4.927560  -69.947100
  C    -66.299200    6.640190  -72.265300
  H    -65.585400    5.855540  -72.402000
  H    -65.843100    7.371250  -72.939200
  C    -67.627900    6.298430  -72.920000
  H    -68.399200    7.001220  -72.516000
  H    -67.652300    6.725630  -74.012200
  C    -67.932300    4.775330  -72.921700
  H    -67.688000    4.218330  -71.990900
  H    -68.931200    4.653150  -73.256900
  H    -67.227300    4.221490  -73.629700
  S    -65.030600    6.319770  -66.012000
  C    -65.068200    4.881940  -64.971600
  C    -65.850500    3.879000  -65.559600
  C    -66.413100    4.307680  -66.872800
  C    -66.057700    5.595600  -67.236400
  H    -66.003400    2.984940  -64.924900
  C    -67.452000    3.434080  -67.564000
  H    -67.593100    3.621810  -68.598500
  H    -68.433800    3.489160  -67.055100
  C    -67.114500    1.916300  -67.585000
  H    -67.265400    1.496440  -66.611200
  H    -66.104100    1.677460  -67.860000
  C    -68.076600    1.097760  -68.409200
  H    -67.801400    1.272830  -69.480300
  H    -69.074100    1.451920  -68.213500
  H    -68.033900    0.058768  -68.182900
  H    -66.311900    9.119010  -70.798100
  H    -64.630200    4.688400  -64.067200

 Total Charge           Charge          ....    0
 Multiplicity           Mult            ....    1
 Number of Electrons    NEL             ....  134
 Basis Dimension        Dim             ....  322

ORBITAL ENERGIES
----------------

  NO   OCC          E(Eh)            E(eV)
   0   2.0000     -88.966006     -2420.8881
   1   2.0000     -88.964367     -2420.8435
   2   2.0000     -10.334514      -281.2164
   3   2.0000     -10.331556      -281.1359
   4   2.0000     -10.318378      -280.7773
   5   2.0000     -10.315358      -280.6952
   6   2.0000     -10.311507      -280.5904
   7   2.0000     -10.305648      -280.4310
   8   2.0000     -10.297767      -280.2165
   9   2.0000     -10.296856      -280.1917
  10   2.0000     -10.293845      -280.1098
  11   2.0000     -10.289513      -279.9919
  12   2.0000     -10.288951      -279.9766
  13   2.0000     -10.286846      -279.9193
  14   2.0000     -10.278446      -279.6907
  15   2.0000     -10.275797      -279.6186
  16   2.0000      -8.080394      -219.8787
  17   2.0000      -8.079884      -219.8648
  18   2.0000      -6.039174      -164.3343
  19   2.0000      -6.038360      -164.3121
  20   2.0000      -6.034874      -164.2173
  21   2.0000      -6.034217      -164.1994
  22   2.0000      -6.030943      -164.1103
  23   2.0000      -6.030681      -164.1032
  24   2.0000      -1.013389       -27.5757
  25   2.0000      -0.984253       -26.7829
  26   2.0000      -0.913966       -24.8703
  27   2.0000      -0.910798       -24.7841
  28   2.0000      -0.873996       -23.7827
  29   2.0000      -0.852730       -23.2040
  30   2.0000      -0.840859       -22.8809
  31   2.0000      -0.819347       -22.2956
  32   2.0000      -0.785417       -21.3723
  33   2.0000      -0.774938       -21.0871
  34   2.0000      -0.708939       -19.2912
  35   2.0000      -0.701245       -19.0819
  36   2.0000      -0.697204       -18.9719
  37   2.0000      -0.662233       -18.0203
  38   2.0000      -0.643482       -17.5100
  39   2.0000      -0.624796       -17.0016
  40   2.0000      -0.599156       -16.3039
  41   2.0000      -0.576794       -15.6954
  42   2.0000      -0.575010       -15.6468
  43   2.0000      -0.547728       -14.9044
  44   2.0000      -0.534253       -14.5378
  45   2.0000      -0.526284       -14.3209
  46   2.0000      -0.518709       -14.1148
  47   2.0000      -0.516665       -14.0592
  48   2.0000      -0.509466       -13.8633
  49   2.0000      -0.505910       -13.7665
  50   2.0000      -0.494433       -13.4542
  51   2.0000      -0.484268       -13.1776
  52   2.0000      -0.475404       -12.9364
  53   2.0000      -0.468297       -12.7430
  54   2.0000      -0.457971       -12.4620
  55   2.0000      -0.454788       -12.3754
  56   2.0000      -0.445526       -12.1234
  57   2.0000      -0.434974       -11.8363
  58   2.0000      -0.433780       -11.8037
  59   2.0000      -0.419958       -11.4276
  60   2.0000      -0.412581       -11.2269
  61   2.0000      -0.407878       -11.0989
  62   2.0000      -0.401901       -10.9363
  63   2.0000      -0.363339        -9.8869
  64   2.0000      -0.334332        -9.0976
  65   2.0000      -0.326372        -8.8810
  66   2.0000      -0.287713        -7.8291
  67   0.0000       0.021059         0.5730
  68   0.0000       0.080565         2.1923
  69   0.0000       0.103185         2.8078
  70   0.0000       0.115219         3.1353
  71   0.0000       0.125546         3.4163

MULLIKEN ATOMIC CHARGES
-----------------------
   0 S :    0.100171
   1 C :   -0.135211
   2 C :   -0.016091
   3 C :    0.007277
   4 C :   -0.121738
   5 H :   -0.016923
   6 C :    0.055872
   7 H :    0.016984
   8 H :    0.019577
   9 C :   -0.106001
  10 H :    0.035485
  11 H :    0.032882
  12 C :   -0.046732
  13 H :    0.034915
  14 H :    0.038288
  15 H :    0.034631
  16 S :    0.085537
  17 C :   -0.046720
  18 C :   -0.062015
  19 C :   -0.047814
  20 C :   -0.090296
  21 H :    0.043114
  22 C :    0.070244
  23 H :    0.005877
  24 H :    0.048079
  25 C :   -0.109509
  26 H :    0.015258
  27 H :    0.026415
  28 C :   -0.033381
  29 H :    0.033936
  30 H :    0.021002
  31 H :    0.032433
  32 H :    0.051140
  33 H :    0.023314
Sum of atomic charges:    0.0000000

LOEWDIN ATOMIC CHARGES
----------------------
   0 S :    0.418648
   1 C :   -0.187755
   2 C :   -0.068109
   3 C :   -0.064009
   4 C :   -0.202619
   5 H :    0.017299
   6 C :   -0.035869
   7 H :    0.028401
   8 H :    0.034910
   9 C :   -0.053505
  10 H :    0.027963
  11 H :    0.032109
  12 C :   -0.070312
  13 H :    0.026223
  14 H :    0.022053
  15 H :    0.033420
  16 S :    0.391104
  17 C :   -0.165000
  18 C :   -0.068663
  19 C :   -0.055877
  20 C :   -0.185943
  21 H :    0.040606
  22 C :   -0.027533
  23 H :    0.019548
  24 H :    0.041202
  25 C :   -0.042832
  26 H :    0.015480
  27 H :    0.019507
  28 C :   -0.058832
  29 H :    0.026874
  30 H :    0.021488
  31 H :    0.023483
  32 H :    0.031821
  33 H :    0.014720

  Mayer bond orders larger than 0.100000
B(  0-S ,  1-C ) :   1.1503 B(  0-S ,  4-C ) :   1.1601 B(  1-C ,  2-C ) :   1.5833
B(  1-C ,  4-C ) :   0.1005 B(  1-C , 32-H ) :   0.9726 B(  2-C ,  3-C ) :   1.2819
B(  2-C ,  6-C ) :   1.0142 B(  3-C ,  4-C ) :   1.5390 B(  3-C ,  5-H ) :   0.9978
B(  4-C , 20-C ) :   1.0661 B(  6-C ,  7-H ) :   0.9461 B(  6-C ,  8-H ) :   0.9467
B(  6-C ,  9-C ) :   1.0566 B(  9-C , 10-H ) :   0.9577 B(  9-C , 11-H ) :   0.9579
B(  9-C , 12-C ) :   1.0651 B( 12-C , 13-H ) :   0.9767 B( 12-C , 14-H ) :   0.9748
B( 12-C , 15-H ) :   0.9721 B( 16-S , 17-C ) :   1.1361 B( 16-S , 20-C ) :   1.1157
B( 17-C , 18-C ) :   1.6584 B( 17-C , 33-H ) :   0.9743 B( 18-C , 19-C ) :   1.1849
B( 18-C , 21-H ) :   0.9824 B( 19-C , 20-C ) :   1.6248 B( 19-C , 22-C ) :   1.0495
B( 22-C , 23-H ) :   0.9481 B( 22-C , 24-H ) :   0.9295 B( 22-C , 25-C ) :   1.0548
B( 25-C , 26-H ) :   0.9490 B( 25-C , 27-H ) :   0.9626 B( 25-C , 28-C ) :   1.0925
B( 28-C , 29-H ) :   0.9744 B( 28-C , 30-H ) :   0.9700 B( 28-C , 31-H ) :   0.9742

Dispersion correction           -0.013623327
FINAL SINGLE POINT ENERGY     -1339.857501718651

DIPOLE MOMENT
-------------
                                X             Y             Z
Electronic contribution:     12.88225      22.51696      20.17645
Nuclear contribution   :    -13.05773     -23.09321     -20.52191
                        -----------------------------------------
Total Dipole Moment    :     -0.17549      -0.57624      -0.34546
                        -----------------------------------------
Magnitude (a.u.)       :      0.69440
Magnitude (Debye)      :      1.76503

Rotational constants in cm-1:     0.015887     0.009934     0.006300
Rotational constants in MHz :   476.268287   297.812596   188.862714

                             ****ORCA TERMINATED NORMALLY****
TOTAL RUN TIME: 0 days 0 hours 0 minutes 21 seconds 467 msec
