                         Program Version 4.2.1 -  RELEASE  -
|  1> ! wB97X-D3 SP def2-SVP
|  2> %pal
|  3> nprocs 24
|  4> end
|  5>
|  6> * xyz 0 1
|  7> S 	 -56.8215 	 15.8978 	 -90.8688
|  8> C 	 -55.8924 	 17.2572 	 -90.2371
|  9> C 	 -55.2484 	 16.8629 	 -89.0348
| 10> C 	 -55.4469 	 15.4821 	 -88.8036
| 11> C 	 -56.0996 	 14.7733 	 -89.7314
| 12> H 	 -55.1981 	 14.9567 	 -87.9052
| 13> C 	 -54.6844 	 17.7638 	 -87.8785
| 14> H 	 -55.0555 	 17.4891 	 -86.8657
| 15> H 	 -55.0461 	 18.7724 	 -88.0492
| 16> C 	 -53.1989 	 17.9333 	 -88.068
| 17> H 	 -52.9117 	 18.4817 	 -89.0185
| 18> H 	 -52.6185 	 18.5071 	 -87.3295
| 19> C 	 -52.5403 	 16.6677 	 -88.0657
| 20> H 	 -52.5585 	 16.1583 	 -87.0965
| 21> H 	 -52.9624 	 15.9506 	 -88.7268
| 22> H 	 -51.4885 	 16.694 	 -88.293
| 23> S 	 -58.3117 	 13.03 	 -89.6664
| 24> C 	 -58.1477 	 11.3559 	 -89.0831
| 25> C 	 -56.8005 	 11.1436 	 -88.7681
| 26> C 	 -55.9249 	 12.2002 	 -89.15
| 27> C 	 -56.5644 	 13.3464 	 -89.5914
| 28> H 	 -56.619 	 10.1814 	 -88.2987
| 29> C 	 -54.4251 	 12.2497 	 -88.9077
| 30> H 	 -54.3775 	 12.5387 	 -87.8461
| 31> H 	 -54.0151 	 13.0592 	 -89.4594
| 32> C 	 -53.6255 	 11.071 	 -89.4561
| 33> H 	 -53.8258 	 10.9407 	 -90.4665
| 34> H 	 -53.7553 	 10.0276 	 -88.9174
| 35> C 	 -52.1006 	 11.1999 	 -89.1457
| 36> H 	 -51.9821 	 11.3037 	 -88.0746
| 37> H 	 -51.5655 	 11.9838 	 -89.7306
| 38> H 	 -51.6037 	 10.3208 	 -89.4088
| 39> H 	 -56.1538 	 18.2308 	 -90.3967
| 40> H 	 -58.9672 	 10.7329 	 -88.8645
| 41> *
| 42>
| 43>                          ****END OF INPUT****

CARTESIAN COORDINATES (ANGSTROEM)
---------------------------------
  S    -56.821500   15.897800  -90.868800
  C    -55.892400   17.257200  -90.237100
  C    -55.248400   16.862900  -89.034800
  C    -55.446900   15.482100  -88.803600
  C    -56.099600   14.773300  -89.731400
  H    -55.198100   14.956700  -87.905200
  C    -54.684400   17.763800  -87.878500
  H    -55.055500   17.489100  -86.865700
  H    -55.046100   18.772400  -88.049200
  C    -53.198900   17.933300  -88.068000
  H    -52.911700   18.481700  -89.018500
  H    -52.618500   18.507100  -87.329500
  C    -52.540300   16.667700  -88.065700
  H    -52.558500   16.158300  -87.096500
  H    -52.962400   15.950600  -88.726800
  H    -51.488500   16.694000  -88.293000
  S    -58.311700   13.030000  -89.666400
  C    -58.147700   11.355900  -89.083100
  C    -56.800500   11.143600  -88.768100
  C    -55.924900   12.200200  -89.150000
  C    -56.564400   13.346400  -89.591400
  H    -56.619000   10.181400  -88.298700
  C    -54.425100   12.249700  -88.907700
  H    -54.377500   12.538700  -87.846100
  H    -54.015100   13.059200  -89.459400
  C    -53.625500   11.071000  -89.456100
  H    -53.825800   10.940700  -90.466500
  H    -53.755300   10.027600  -88.917400
  C    -52.100600   11.199900  -89.145700
  H    -51.982100   11.303700  -88.074600
  H    -51.565500   11.983800  -89.730600
  H    -51.603700   10.320800  -89.408800
  H    -56.153800   18.230800  -90.396700
  H    -58.967200   10.732900  -88.864500

 Total Charge           Charge          ....    0
 Multiplicity           Mult            ....    1
 Number of Electrons    NEL             ....  134
 Basis Dimension        Dim             ....  322

ORBITAL ENERGIES
----------------

  NO   OCC          E(Eh)            E(eV)
   0   2.0000     -88.967839     -2420.9380
   1   2.0000     -88.962665     -2420.7972
   2   2.0000     -10.333138      -281.1790
   3   2.0000     -10.332138      -281.1518
   4   2.0000     -10.321764      -280.8695
   5   2.0000     -10.317369      -280.7499
   6   2.0000     -10.311014      -280.5770
   7   2.0000     -10.306163      -280.4450
   8   2.0000     -10.301561      -280.3197
   9   2.0000     -10.299794      -280.2716
  10   2.0000     -10.292059      -280.0612
  11   2.0000     -10.290165      -280.0096
  12   2.0000     -10.288804      -279.9726
  13   2.0000     -10.282395      -279.7982
  14   2.0000     -10.275088      -279.5994
  15   2.0000     -10.258004      -279.1345
  16   2.0000      -8.082223      -219.9285
  17   2.0000      -8.076657      -219.7770
  18   2.0000      -6.040840      -164.3796
  19   2.0000      -6.036846      -164.2709
  20   2.0000      -6.035227      -164.2269
  21   2.0000      -6.032810      -164.1611
  22   2.0000      -6.031182      -164.1168
  23   2.0000      -6.027471      -164.0158
  24   2.0000      -1.006832       -27.3973
  25   2.0000      -0.983258       -26.7558
  26   2.0000      -0.924653       -25.1611
  27   2.0000      -0.908038       -24.7090
  28   2.0000      -0.869951       -23.6726
  29   2.0000      -0.851759       -23.1775
  30   2.0000      -0.844110       -22.9694
  31   2.0000      -0.820975       -22.3399
  32   2.0000      -0.785726       -21.3807
  33   2.0000      -0.775181       -21.0938
  34   2.0000      -0.705569       -19.1995
  35   2.0000      -0.701439       -19.0871
  36   2.0000      -0.694118       -18.8879
  37   2.0000      -0.655955       -17.8494
  38   2.0000      -0.650939       -17.7129
  39   2.0000      -0.621011       -16.8986
  40   2.0000      -0.596293       -16.2260
  41   2.0000      -0.578120       -15.7314
  42   2.0000      -0.569359       -15.4930
  43   2.0000      -0.557966       -15.1830
  44   2.0000      -0.553266       -15.0551
  45   2.0000      -0.530847       -14.4451
  46   2.0000      -0.517980       -14.0950
  47   2.0000      -0.512752       -13.9527
  48   2.0000      -0.505056       -13.7433
  49   2.0000      -0.502719       -13.6797
  50   2.0000      -0.492709       -13.4073
  51   2.0000      -0.479526       -13.0486
  52   2.0000      -0.471539       -12.8312
  53   2.0000      -0.468691       -12.7537
  54   2.0000      -0.459944       -12.5157
  55   2.0000      -0.446363       -12.1462
  56   2.0000      -0.440350       -11.9825
  57   2.0000      -0.435662       -11.8550
  58   2.0000      -0.430283       -11.7086
  59   2.0000      -0.427766       -11.6401
  60   2.0000      -0.408854       -11.1255
  61   2.0000      -0.407079       -11.0772
  62   2.0000      -0.404411       -11.0046
  63   2.0000      -0.350452        -9.5363
  64   2.0000      -0.331504        -9.0207
  65   2.0000      -0.328495        -8.9388
  66   2.0000      -0.296786        -8.0760
  67   0.0000       0.022585         0.6146
  68   0.0000       0.064178         1.7464
  69   0.0000       0.100768         2.7420
  70   0.0000       0.126702         3.4477
  71   0.0000       0.128108         3.4860

MULLIKEN ATOMIC CHARGES
-----------------------
   0 S :    0.093630
   1 C :   -0.055645
   2 C :   -0.130202
   3 C :    0.019710
   4 C :   -0.129855
   5 H :    0.006813
   6 C :    0.080048
   7 H :    0.054211
   8 H :    0.017077
   9 C :   -0.063401
  10 H :    0.034865
  11 H :    0.025288
  12 C :   -0.046368
  13 H :    0.010238
  14 H :    0.028659
  15 H :    0.018912
  16 S :    0.077609
  17 C :   -0.092392
  18 C :   -0.037811
  19 C :   -0.056617
  20 C :   -0.121199
  21 H :    0.026547
  22 C :    0.071333
  23 H :    0.046942
  24 H :    0.026256
  25 C :   -0.093164
  26 H :    0.028486
  27 H :    0.036109
  28 C :   -0.035864
  29 H :    0.029828
  30 H :    0.034574
  31 H :    0.016660
  32 H :    0.026722
  33 H :    0.052003
Sum of atomic charges:   -0.0000000

LOEWDIN ATOMIC CHARGES
----------------------
   0 S :    0.402752
   1 C :   -0.177578
   2 C :   -0.051175
   3 C :   -0.065313
   4 C :   -0.191493
   5 H :    0.028558
   6 C :   -0.023296
   7 H :    0.039538
   8 H :    0.030131
   9 C :   -0.055178
  10 H :    0.033371
  11 H :    0.027114
  12 C :   -0.071527
  13 H :    0.022014
  14 H :    0.017855
  15 H :    0.022971
  16 S :    0.376711
  17 C :   -0.164944
  18 C :   -0.071109
  19 C :   -0.061468
  20 C :   -0.186489
  21 H :    0.034834
  22 C :   -0.033699
  23 H :    0.036509
  24 H :    0.030584
  25 C :   -0.036185
  26 H :    0.017195
  27 H :    0.033369
  28 C :   -0.063242
  29 H :    0.025338
  30 H :    0.024706
  31 H :    0.016458
  32 H :    0.009799
  33 H :    0.022889

  Mayer bond orders larger than 0.100000
B(  0-S ,  1-C ) :   1.1554 B(  0-S ,  4-C ) :   1.1446 B(  1-C ,  2-C ) :   1.6037
B(  1-C , 32-H ) :   0.9704 B(  2-C ,  3-C ) :   1.2487 B(  2-C ,  6-C ) :   1.0008
B(  3-C ,  4-C ) :   1.5812 B(  3-C ,  5-H ) :   0.9940 B(  4-C , 20-C ) :   1.0121
B(  6-C ,  7-H ) :   0.9579 B(  6-C ,  8-H ) :   0.9389 B(  6-C ,  9-C ) :   1.0612
B(  9-C , 10-H ) :   0.9510 B(  9-C , 11-H ) :   0.9512 B(  9-C , 12-C ) :   1.1026
B( 12-C , 13-H ) :   0.9644 B( 12-C , 14-H ) :   0.9636 B( 12-C , 15-H ) :   0.9631
B( 16-S , 17-C ) :   1.1567 B( 16-S , 20-C ) :   1.1340 B( 17-C , 18-C ) :   1.5977
B( 17-C , 20-C ) :   0.1017 B( 17-C , 33-H ) :   0.9756 B( 18-C , 19-C ) :   1.2258
B( 18-C , 21-H ) :   0.9973 B( 19-C , 20-C ) :   1.6057 B( 19-C , 22-C ) :   1.0443
B( 22-C , 23-H ) :   0.9334 B( 22-C , 24-H ) :   0.9321 B( 22-C , 25-C ) :   1.0523
B( 25-C , 26-H ) :   0.9598 B( 25-C , 27-H ) :   0.9579 B( 25-C , 28-C ) :   1.0781
B( 28-C , 29-H ) :   0.9764 B( 28-C , 30-H ) :   0.9734 B( 28-C , 31-H ) :   0.9762

Dispersion correction           -0.014405628
FINAL SINGLE POINT ENERGY     -1339.835050809217

DIPOLE MOMENT
-------------
                                X             Y             Z
Electronic contribution:    -28.19436       0.88563     -11.10557
Nuclear contribution   :     28.56886      -0.92674      11.78474
                        -----------------------------------------
Total Dipole Moment    :      0.37450      -0.04111       0.67916
                        -----------------------------------------
Magnitude (a.u.)       :      0.77666
Magnitude (Debye)      :      1.97412

Rotational constants in cm-1:     0.016237     0.009996     0.006871
Rotational constants in MHz :   486.759558   299.668605   205.988367

                             ****ORCA TERMINATED NORMALLY****
TOTAL RUN TIME: 0 days 0 hours 0 minutes 22 seconds 213 msec
