                         Program Version 4.2.1 -  RELEASE  -
|  1> ! wB97X-D3 SP def2-SVP
|  2> %pal
|  3> nprocs 24
|  4> end
|  5>
|  6> * xyz 0 1
|  7> S 	 -116.312 	 17.9688 	 -111.081
|  8> C 	 -116.994 	 19.2683 	 -110.24
|  9> C 	 -118.351 	 19.075 	 -109.976
| 10> C 	 -118.886 	 17.9264 	 -110.537
| 11> C 	 -117.89 	 17.1284 	 -111.125
| 12> H 	 -119.854 	 17.4486 	 -110.444
| 13> C 	 -119.207 	 20.0945 	 -109.184
| 14> H 	 -120.245 	 20.1334 	 -109.518
| 15> H 	 -118.779 	 21.0774 	 -109.432
| 16> C 	 -119.004 	 19.9131 	 -107.676
| 17> H 	 -119.293 	 18.8328 	 -107.463
| 18> H 	 -117.964 	 19.9305 	 -107.31
| 19> C 	 -119.801 	 20.9315 	 -106.841
| 20> H 	 -119.763 	 20.7524 	 -105.747
| 21> H 	 -119.392 	 21.9067 	 -107.019
| 22> H 	 -120.796 	 20.8687 	 -107.217
| 23> S 	 -119.244 	 14.6704 	 -110.995
| 24> C 	 -118.767 	 13.4215 	 -112.029
| 25> C 	 -117.806 	 13.8202 	 -112.96
| 26> C 	 -117.363 	 15.1839 	 -112.76
| 27> C 	 -118.081 	 15.8397 	 -111.75
| 28> H 	 -117.413 	 13.0567 	 -113.682
| 29> C 	 -116.22 	 15.801 	 -113.611
| 30> H 	 -116.291 	 16.8673 	 -113.659
| 31> H 	 -116.379 	 15.4511 	 -114.611
| 32> C 	 -114.803 	 15.4886 	 -113.173
| 33> H 	 -114.707 	 14.4277 	 -112.995
| 34> H 	 -114.584 	 15.9783 	 -112.239
| 35> C 	 -113.83 	 16.0619 	 -114.155
| 36> H 	 -113.873 	 15.5321 	 -115.126
| 37> H 	 -112.756 	 16.0656 	 -113.842
| 38> H 	 -114.022 	 17.1373 	 -114.37
| 39> H 	 -116.507 	 20.2416 	 -110.069
| 40> H 	 -119.013 	 12.4331 	 -111.953
| 41> *
| 42>
| 43>                          ****END OF INPUT****

CARTESIAN COORDINATES (ANGSTROEM)
---------------------------------
  S    -116.312000   17.968800  -111.081000
  C    -116.994000   19.268300  -110.240000
  C    -118.351000   19.075000  -109.976000
  C    -118.886000   17.926400  -110.537000
  C    -117.890000   17.128400  -111.125000
  H    -119.854000   17.448600  -110.444000
  C    -119.207000   20.094500  -109.184000
  H    -120.245000   20.133400  -109.518000
  H    -118.779000   21.077400  -109.432000
  C    -119.004000   19.913100  -107.676000
  H    -119.293000   18.832800  -107.463000
  H    -117.964000   19.930500  -107.310000
  C    -119.801000   20.931500  -106.841000
  H    -119.763000   20.752400  -105.747000
  H    -119.392000   21.906700  -107.019000
  H    -120.796000   20.868700  -107.217000
  S    -119.244000   14.670400  -110.995000
  C    -118.767000   13.421500  -112.029000
  C    -117.806000   13.820200  -112.960000
  C    -117.363000   15.183900  -112.760000
  C    -118.081000   15.839700  -111.750000
  H    -117.413000   13.056700  -113.682000
  C    -116.220000   15.801000  -113.611000
  H    -116.291000   16.867300  -113.659000
  H    -116.379000   15.451100  -114.611000
  C    -114.803000   15.488600  -113.173000
  H    -114.707000   14.427700  -112.995000
  H    -114.584000   15.978300  -112.239000
  C    -113.830000   16.061900  -114.155000
  H    -113.873000   15.532100  -115.126000
  H    -112.756000   16.065600  -113.842000
  H    -114.022000   17.137300  -114.370000
  H    -116.507000   20.241600  -110.069000
  H    -119.013000   12.433100  -111.953000

 Total Charge           Charge          ....    0
 Multiplicity           Mult            ....    1
 Number of Electrons    NEL             ....  134
 Basis Dimension        Dim             ....  322

ORBITAL ENERGIES
----------------

  NO   OCC          E(Eh)            E(eV)
   0   2.0000     -88.972983     -2421.0779
   1   2.0000     -88.968429     -2420.9540
   2   2.0000     -10.332770      -281.1690
   3   2.0000     -10.331895      -281.1451
   4   2.0000     -10.311571      -280.5921
   5   2.0000     -10.311031      -280.5774
   6   2.0000     -10.310936      -280.5748
   7   2.0000     -10.300336      -280.2864
   8   2.0000     -10.300204      -280.2828
   9   2.0000     -10.294129      -280.1175
  10   2.0000     -10.292683      -280.0781
  11   2.0000     -10.288161      -279.9551
  12   2.0000     -10.287733      -279.9434
  13   2.0000     -10.280239      -279.7395
  14   2.0000     -10.278711      -279.6979
  15   2.0000     -10.274671      -279.5880
  16   2.0000      -8.087058      -220.0600
  17   2.0000      -8.083173      -219.9543
  18   2.0000      -6.045436      -164.5047
  19   2.0000      -6.041696      -164.4029
  20   2.0000      -6.041587      -164.3999
  21   2.0000      -6.038079      -164.3045
  22   2.0000      -6.037648      -164.2927
  23   2.0000      -6.033961      -164.1924
  24   2.0000      -1.006344       -27.3840
  25   2.0000      -0.985360       -26.8130
  26   2.0000      -0.915490       -24.9117
  27   2.0000      -0.907224       -24.6868
  28   2.0000      -0.871288       -23.7090
  29   2.0000      -0.856498       -23.3065
  30   2.0000      -0.848157       -23.0795
  31   2.0000      -0.810029       -22.0420
  32   2.0000      -0.781541       -21.2668
  33   2.0000      -0.767664       -20.8892
  34   2.0000      -0.705464       -19.1966
  35   2.0000      -0.696960       -18.9652
  36   2.0000      -0.693721       -18.8771
  37   2.0000      -0.667476       -18.1630
  38   2.0000      -0.638277       -17.3684
  39   2.0000      -0.614538       -16.7224
  40   2.0000      -0.597915       -16.2701
  41   2.0000      -0.575345       -15.6559
  42   2.0000      -0.566577       -15.4173
  43   2.0000      -0.555406       -15.1134
  44   2.0000      -0.525600       -14.3023
  45   2.0000      -0.519067       -14.1245
  46   2.0000      -0.518264       -14.1027
  47   2.0000      -0.513226       -13.9656
  48   2.0000      -0.508307       -13.8317
  49   2.0000      -0.497300       -13.5322
  50   2.0000      -0.493157       -13.4195
  51   2.0000      -0.485462       -13.2101
  52   2.0000      -0.472112       -12.8468
  53   2.0000      -0.467375       -12.7179
  54   2.0000      -0.462112       -12.5747
  55   2.0000      -0.450747       -12.2655
  56   2.0000      -0.441035       -12.0012
  57   2.0000      -0.436697       -11.8831
  58   2.0000      -0.432851       -11.7785
  59   2.0000      -0.425433       -11.5766
  60   2.0000      -0.419112       -11.4046
  61   2.0000      -0.413599       -11.2546
  62   2.0000      -0.408842       -11.1252
  63   2.0000      -0.359012        -9.7692
  64   2.0000      -0.336541        -9.1578
  65   2.0000      -0.332267        -9.0414
  66   2.0000      -0.278509        -7.5786
  67   0.0000       0.019145         0.5210
  68   0.0000       0.074724         2.0333
  69   0.0000       0.106102         2.8872
  70   0.0000       0.112421         3.0591
  71   0.0000       0.137627         3.7450

MULLIKEN ATOMIC CHARGES
-----------------------
   0 S :    0.114967
   1 C :   -0.117763
   2 C :   -0.080553
   3 C :    0.006711
   4 C :   -0.145349
   5 H :    0.019699
   6 C :    0.069983
   7 H :    0.031473
   8 H :    0.011929
   9 C :   -0.111320
  10 H :    0.028406
  11 H :    0.031646
  12 C :   -0.013751
  13 H :    0.044182
  14 H :    0.023924
  15 H :    0.022661
  16 S :    0.101607
  17 C :   -0.048784
  18 C :   -0.060973
  19 C :   -0.049468
  20 C :   -0.130789
  21 H :    0.038174
  22 C :    0.047542
  23 H :    0.013451
  24 H :    0.016755
  25 C :   -0.022386
  26 H :    0.023594
  27 H :    0.020825
  28 C :   -0.072492
  29 H :    0.030693
  30 H :    0.039996
  31 H :    0.030650
  32 H :    0.058762
  33 H :    0.025997
Sum of atomic charges:    0.0000000

LOEWDIN ATOMIC CHARGES
----------------------
   0 S :    0.440845
   1 C :   -0.228380
   2 C :   -0.060956
   3 C :   -0.068762
   4 C :   -0.176003
   5 H :    0.032008
   6 C :   -0.028979
   7 H :    0.030243
   8 H :    0.026821
   9 C :   -0.048249
  10 H :    0.025583
  11 H :    0.024473
  12 C :   -0.062571
  13 H :    0.031613
  14 H :    0.021287
  15 H :    0.020100
  16 S :    0.408625
  17 C :   -0.188618
  18 C :   -0.079045
  19 C :   -0.048877
  20 C :   -0.184275
  21 H :    0.039963
  22 C :   -0.030080
  23 H :    0.017380
  24 H :    0.028086
  25 C :   -0.041789
  26 H :    0.022415
  27 H :    0.015817
  28 C :   -0.071570
  29 H :    0.024504
  30 H :    0.030131
  31 H :    0.028780
  32 H :    0.035186
  33 H :    0.014292

  Mayer bond orders larger than 0.100000
B(  0-S ,  1-C ) :   1.1595 B(  0-S ,  4-C ) :   1.1556 B(  1-C ,  2-C ) :   1.5683
B(  1-C ,  4-C ) :   0.1036 B(  1-C , 32-H ) :   0.9598 B(  2-C ,  3-C ) :   1.2934
B(  2-C ,  6-C ) :   1.0169 B(  3-C ,  4-C ) :   1.5100 B(  3-C ,  5-H ) :   0.9930
B(  4-C , 20-C ) :   1.1029 B(  6-C ,  7-H ) :   0.9498 B(  6-C ,  8-H ) :   0.9384
B(  6-C ,  9-C ) :   1.0493 B(  9-C , 10-H ) :   0.9566 B(  9-C , 11-H ) :   0.9594
B(  9-C , 12-C ) :   1.0736 B( 12-C , 13-H ) :   0.9749 B( 12-C , 14-H ) :   0.9746
B( 12-C , 15-H ) :   0.9748 B( 16-S , 17-C ) :   1.1733 B( 16-S , 20-C ) :   1.1145
B( 17-C , 18-C ) :   1.6025 B( 17-C , 33-H ) :   0.9735 B( 18-C , 19-C ) :   1.2393
B( 18-C , 21-H ) :   0.9823 B( 19-C , 20-C ) :   1.5780 B( 19-C , 22-C ) :   1.0344
B( 22-C , 23-H ) :   0.9325 B( 22-C , 24-H ) :   0.9360 B( 22-C , 25-C ) :   1.0686
B( 25-C , 26-H ) :   0.9532 B( 25-C , 27-H ) :   0.9452 B( 25-C , 28-C ) :   1.0856
B( 28-C , 29-H ) :   0.9740 B( 28-C , 30-H ) :   0.9734 B( 28-C , 31-H ) :   0.9694

Dispersion correction           -0.013847732
FINAL SINGLE POINT ENERGY     -1339.885439668124

DIPOLE MOMENT
-------------
                                X             Y             Z
Electronic contribution:     -5.64785     -11.90204      -2.97768
Nuclear contribution   :      5.76335      11.96229       2.92911
                        -----------------------------------------
Total Dipole Moment    :      0.11550       0.06025      -0.04857
                        -----------------------------------------
Magnitude (a.u.)       :      0.13903
Magnitude (Debye)      :      0.35339

Rotational constants in cm-1:     0.021873     0.007753     0.005932
Rotational constants in MHz :   655.738179   232.438174   177.846774

                             ****ORCA TERMINATED NORMALLY****
TOTAL RUN TIME: 0 days 0 hours 0 minutes 19 seconds 905 msec
