                         Program Version 4.2.1 -  RELEASE  -
|  1> ! wB97X-D3 SP def2-SVP
|  2> %pal
|  3> nprocs 24
|  4> end
|  5>
|  6> * xyz 0 1
|  7> S 	 -130.012 	 65.1072 	 -59.2135
|  8> C 	 -128.284 	 65.004 	 -58.9347
|  9> C 	 -127.627 	 65.9751 	 -59.6278
| 10> C 	 -128.437 	 66.643 	 -60.5956
| 11> C 	 -129.738 	 66.1591 	 -60.6175
| 12> H 	 -128.144 	 67.4447 	 -61.2469
| 13> C 	 -126.216 	 66.3536 	 -59.4121
| 14> H 	 -125.646 	 65.8693 	 -60.2905
| 15> H 	 -125.993 	 65.9795 	 -58.4348
| 16> C 	 -125.816 	 67.8231 	 -59.5326
| 17> H 	 -126 	 68.1285 	 -60.4452
| 18> H 	 -126.38 	 68.4886 	 -58.8924
| 19> C 	 -124.278 	 68.0739 	 -59.2592
| 20> H 	 -123.522 	 67.6194 	 -59.9487
| 21> H 	 -124.16 	 69.1255 	 -59.4843
| 22> H 	 -123.881 	 67.8383 	 -58.301
| 23> S 	 -131.264 	 68.2907 	 -61.4519
| 24> C 	 -132.657 	 68.0421 	 -62.4374
| 25> C 	 -132.84 	 66.7076 	 -62.7392
| 26> C 	 -131.797 	 65.8716 	 -62.2393
| 27> C 	 -130.857 	 66.5524 	 -61.456
| 28> H 	 -133.656 	 66.3905 	 -63.4232
| 29> C 	 -131.725 	 64.3905 	 -62.6127
| 30> H 	 -130.694 	 64.0792 	 -62.8802
| 31> H 	 -132.313 	 64.5069 	 -63.5107
| 32> C 	 -132.406 	 63.3911 	 -61.7672
| 33> H 	 -133.46 	 63.6355 	 -61.6384
| 34> H 	 -132.057 	 63.382 	 -60.7395
| 35> C 	 -132.184 	 61.9702 	 -62.3291
| 36> H 	 -131.133 	 61.6 	 -62.3237
| 37> H 	 -132.501 	 62.0194 	 -63.3633
| 38> H 	 -132.755 	 61.2439 	 -61.7549
| 39> H 	 -127.805 	 64.3261 	 -58.2314
| 40> H 	 -133.319 	 68.851 	 -62.722
| 41> *
| 42>
| 43>                          ****END OF INPUT****

CARTESIAN COORDINATES (ANGSTROEM)
---------------------------------
  S    -130.012000   65.107200  -59.213500
  C    -128.284000   65.004000  -58.934700
  C    -127.627000   65.975100  -59.627800
  C    -128.437000   66.643000  -60.595600
  C    -129.738000   66.159100  -60.617500
  H    -128.144000   67.444700  -61.246900
  C    -126.216000   66.353600  -59.412100
  H    -125.646000   65.869300  -60.290500
  H    -125.993000   65.979500  -58.434800
  C    -125.816000   67.823100  -59.532600
  H    -126.000000   68.128500  -60.445200
  H    -126.380000   68.488600  -58.892400
  C    -124.278000   68.073900  -59.259200
  H    -123.522000   67.619400  -59.948700
  H    -124.160000   69.125500  -59.484300
  H    -123.881000   67.838300  -58.301000
  S    -131.264000   68.290700  -61.451900
  C    -132.657000   68.042100  -62.437400
  C    -132.840000   66.707600  -62.739200
  C    -131.797000   65.871600  -62.239300
  C    -130.857000   66.552400  -61.456000
  H    -133.656000   66.390500  -63.423200
  C    -131.725000   64.390500  -62.612700
  H    -130.694000   64.079200  -62.880200
  H    -132.313000   64.506900  -63.510700
  C    -132.406000   63.391100  -61.767200
  H    -133.460000   63.635500  -61.638400
  H    -132.057000   63.382000  -60.739500
  C    -132.184000   61.970200  -62.329100
  H    -131.133000   61.600000  -62.323700
  H    -132.501000   62.019400  -63.363300
  H    -132.755000   61.243900  -61.754900
  H    -127.805000   64.326100  -58.231400
  H    -133.319000   68.851000  -62.722000

 Total Charge           Charge          ....    0
 Multiplicity           Mult            ....    1
 Number of Electrons    NEL             ....  134
 Basis Dimension        Dim             ....  322

ORBITAL ENERGIES
----------------

  NO   OCC          E(Eh)            E(eV)
   0   2.0000     -88.963884     -2420.8304
   1   2.0000     -88.963748     -2420.8267
   2   2.0000     -10.331335      -281.1299
   3   2.0000     -10.326922      -281.0098
   4   2.0000     -10.318473      -280.7799
   5   2.0000     -10.310290      -280.5573
   6   2.0000     -10.306356      -280.4502
   7   2.0000     -10.297284      -280.2033
   8   2.0000     -10.294826      -280.1365
   9   2.0000     -10.293443      -280.0988
  10   2.0000     -10.290527      -280.0195
  11   2.0000     -10.286007      -279.8965
  12   2.0000     -10.281344      -279.7696
  13   2.0000     -10.280631      -279.7502
  14   2.0000     -10.276635      -279.6415
  15   2.0000     -10.275607      -279.6135
  16   2.0000      -8.078536      -219.8281
  17   2.0000      -8.078025      -219.8142
  18   2.0000      -6.036920      -164.2729
  19   2.0000      -6.036554      -164.2630
  20   2.0000      -6.032935      -164.1645
  21   2.0000      -6.032816      -164.1613
  22   2.0000      -6.029530      -164.0719
  23   2.0000      -6.028577      -164.0459
  24   2.0000      -1.004170       -27.3249
  25   2.0000      -0.984479       -26.7890
  26   2.0000      -0.913674       -24.8623
  27   2.0000      -0.912941       -24.8424
  28   2.0000      -0.870227       -23.6801
  29   2.0000      -0.850076       -23.1317
  30   2.0000      -0.845319       -23.0023
  31   2.0000      -0.813705       -22.1420
  32   2.0000      -0.781270       -21.2594
  33   2.0000      -0.769428       -20.9372
  34   2.0000      -0.718990       -19.5647
  35   2.0000      -0.699492       -19.0341
  36   2.0000      -0.690600       -18.7922
  37   2.0000      -0.665369       -18.1056
  38   2.0000      -0.637496       -17.3472
  39   2.0000      -0.617646       -16.8070
  40   2.0000      -0.598923       -16.2975
  41   2.0000      -0.574290       -15.6272
  42   2.0000      -0.565786       -15.3958
  43   2.0000      -0.560693       -15.2572
  44   2.0000      -0.527009       -14.3407
  45   2.0000      -0.524588       -14.2748
  46   2.0000      -0.514526       -14.0010
  47   2.0000      -0.506459       -13.7815
  48   2.0000      -0.502473       -13.6730
  49   2.0000      -0.500223       -13.6118
  50   2.0000      -0.491151       -13.3649
  51   2.0000      -0.483377       -13.1533
  52   2.0000      -0.472267       -12.8510
  53   2.0000      -0.466709       -12.6998
  54   2.0000      -0.456175       -12.4131
  55   2.0000      -0.449339       -12.2271
  56   2.0000      -0.444319       -12.0905
  57   2.0000      -0.438184       -11.9236
  58   2.0000      -0.435755       -11.8575
  59   2.0000      -0.428565       -11.6618
  60   2.0000      -0.424730       -11.5575
  61   2.0000      -0.416593       -11.3361
  62   2.0000      -0.397621       -10.8198
  63   2.0000      -0.338284        -9.2052
  64   2.0000      -0.333001        -9.0614
  65   2.0000      -0.322589        -8.7781
  66   2.0000      -0.296261        -8.0617
  67   0.0000       0.026655         0.7253
  68   0.0000       0.066974         1.8225
  69   0.0000       0.102527         2.7899
  70   0.0000       0.117229         3.1900
  71   0.0000       0.134969         3.6727

MULLIKEN ATOMIC CHARGES
-----------------------
   0 S :    0.114208
   1 C :   -0.135729
   2 C :   -0.070416
   3 C :    0.020374
   4 C :   -0.136332
   5 H :    0.010585
   6 C :    0.068619
   7 H :    0.050987
   8 H :    0.013281
   9 C :   -0.022494
  10 H :   -0.009268
  11 H :    0.028515
  12 C :   -0.060901
  13 H :    0.027527
  14 H :    0.027465
  15 H :    0.030834
  16 S :    0.102846
  17 C :   -0.093707
  18 C :   -0.049880
  19 C :   -0.037060
  20 C :   -0.175256
  21 H :    0.036252
  22 C :    0.062361
  23 H :    0.040423
  24 H :    0.006773
  25 C :   -0.040824
  26 H :    0.018126
  27 H :    0.018146
  28 C :   -0.049544
  29 H :    0.040099
  30 H :    0.022156
  31 H :    0.033636
  32 H :    0.046475
  33 H :    0.061722
Sum of atomic charges:   -0.0000000

LOEWDIN ATOMIC CHARGES
----------------------
   0 S :    0.399580
   1 C :   -0.198078
   2 C :   -0.068944
   3 C :   -0.061765
   4 C :   -0.181691
   5 H :    0.029118
   6 C :   -0.033762
   7 H :    0.048245
   8 H :    0.024918
   9 C :   -0.021111
  10 H :    0.000729
  11 H :    0.026687
  12 C :   -0.064174
  13 H :    0.028798
  14 H :    0.027539
  15 H :    0.018795
  16 S :    0.404849
  17 C :   -0.187488
  18 C :   -0.084343
  19 C :   -0.049542
  20 C :   -0.199502
  21 H :    0.039296
  22 C :   -0.033732
  23 H :    0.037237
  24 H :    0.030610
  25 C :   -0.044765
  26 H :    0.024266
  27 H :    0.014404
  28 C :   -0.062810
  29 H :    0.030008
  30 H :    0.020900
  31 H :    0.025217
  32 H :    0.029808
  33 H :    0.030703

  Mayer bond orders larger than 0.100000
B(  0-S ,  1-C ) :   1.1238 B(  0-S ,  4-C ) :   1.1500 B(  1-C ,  2-C ) :   1.6235
B(  1-C , 32-H ) :   0.9697 B(  2-C ,  3-C ) :   1.2123 B(  2-C ,  6-C ) :   1.0321
B(  3-C ,  4-C ) :   1.5727 B(  3-C ,  5-H ) :   1.0006 B(  4-C , 20-C ) :   1.0563
B(  6-C ,  7-H ) :   0.9272 B(  6-C ,  8-H ) :   0.9438 B(  6-C ,  9-C ) :   1.0813
B(  9-C , 10-H ) :   0.9394 B(  9-C , 11-H ) :   0.9562 B(  9-C , 12-C ) :   1.0828
B( 12-C , 13-H ) :   0.9747 B( 12-C , 14-H ) :   0.9752 B( 12-C , 15-H ) :   0.9808
B( 16-S , 17-C ) :   1.1779 B( 16-S , 20-C ) :   1.1293 B( 17-C , 18-C ) :   1.5882
B( 17-C , 20-C ) :   0.1003 B( 17-C , 33-H ) :   0.9662 B( 18-C , 19-C ) :   1.2667
B( 18-C , 21-H ) :   0.9792 B( 19-C , 20-C ) :   1.5772 B( 19-C , 22-C ) :   1.0155
B( 22-C , 23-H ) :   0.9418 B( 22-C , 24-H ) :   0.9230 B( 22-C , 25-C ) :   1.0831
B( 25-C , 26-H ) :   0.9461 B( 25-C , 27-H ) :   0.9457 B( 25-C , 28-C ) :   1.0802
B( 28-C , 29-H ) :   0.9753 B( 28-C , 30-H ) :   0.9750 B( 28-C , 31-H ) :   0.9733

Dispersion correction           -0.013807337
FINAL SINGLE POINT ENERGY     -1339.865206407473

DIPOLE MOMENT
-------------
                                X             Y             Z
Electronic contribution:    -12.86024       8.73934       2.75236
Nuclear contribution   :     13.07148      -8.71432      -2.94788
                        -----------------------------------------
Total Dipole Moment    :      0.21124       0.02502      -0.19553
                        -----------------------------------------
Magnitude (a.u.)       :      0.28892
Magnitude (Debye)      :      0.73439

Rotational constants in cm-1:     0.020406     0.007823     0.006196
Rotational constants in MHz :   611.752338   234.531265   185.755826

                             ****ORCA TERMINATED NORMALLY****
TOTAL RUN TIME: 0 days 0 hours 0 minutes 20 seconds 904 msec
