                         Program Version 4.2.1 -  RELEASE  -
|  1> ! wB97X-D3 SP def2-SVP
|  2> %pal
|  3> nprocs 24
|  4> end
|  5>
|  6> * xyz 0 1
|  7> S 	 -51.9191 	 14.4712 	 24.2748
|  8> C 	 -50.311 	 13.932 	 24.7411
|  9> C 	 -49.7285 	 14.7392 	 25.6883
| 10> C 	 -50.6173 	 15.7026 	 26.1337
| 11> C 	 -51.8562 	 15.6514 	 25.5841
| 12> H 	 -50.4436 	 16.5333 	 26.8384
| 13> C 	 -48.3182 	 14.6447 	 26.1635
| 14> H 	 -47.684 	 14.3316 	 25.3043
| 15> H 	 -48.3667 	 13.8986 	 26.9166
| 16> C 	 -47.6428 	 15.7971 	 26.8242
| 17> H 	 -48.2506 	 16.2196 	 27.5836
| 18> H 	 -46.6877 	 15.4734 	 27.2412
| 19> C 	 -47.1163 	 16.9624 	 25.8861
| 20> H 	 -47.9592 	 17.0908 	 25.1612
| 21> H 	 -46.9303 	 17.8838 	 26.4217
| 22> H 	 -46.232 	 16.5841 	 25.4046
| 23> S 	 -53.6096 	 17.606 	 24.5372
| 24> C 	 -54.6127 	 18.5489 	 25.6413
| 25> C 	 -54.4091 	 18.0321 	 26.8912
| 26> C 	 -53.4807 	 16.9727 	 27.0061
| 27> C 	 -52.9331 	 16.5843 	 25.817
| 28> H 	 -54.9758 	 18.3621 	 27.7277
| 29> C 	 -53.0388 	 16.5013 	 28.3745
| 30> H 	 -52.4873 	 15.5885 	 28.2709
| 31> H 	 -54.0111 	 16.4913 	 28.8877
| 32> C 	 -52.0677 	 17.4324 	 29.1821
| 33> H 	 -52.4016 	 18.5037 	 29.1159
| 34> H 	 -51.0394 	 17.3258 	 28.7326
| 35> C 	 -51.9746 	 17.2179 	 30.6893
| 36> H 	 -52.8881 	 17.5165 	 31.2605
| 37> H 	 -51.0638 	 17.7644 	 30.9589
| 38> H 	 -51.7545 	 16.2161 	 30.9802
| 39> H 	 -49.8498 	 13.0275 	 24.4135
| 40> H 	 -55.389 	 19.3054 	 25.3803
| 41> *
| 42>
| 43>                          ****END OF INPUT****

CARTESIAN COORDINATES (ANGSTROEM)
---------------------------------
  S    -51.919100   14.471200   24.274800
  C    -50.311000   13.932000   24.741100
  C    -49.728500   14.739200   25.688300
  C    -50.617300   15.702600   26.133700
  C    -51.856200   15.651400   25.584100
  H    -50.443600   16.533300   26.838400
  C    -48.318200   14.644700   26.163500
  H    -47.684000   14.331600   25.304300
  H    -48.366700   13.898600   26.916600
  C    -47.642800   15.797100   26.824200
  H    -48.250600   16.219600   27.583600
  H    -46.687700   15.473400   27.241200
  C    -47.116300   16.962400   25.886100
  H    -47.959200   17.090800   25.161200
  H    -46.930300   17.883800   26.421700
  H    -46.232000   16.584100   25.404600
  S    -53.609600   17.606000   24.537200
  C    -54.612700   18.548900   25.641300
  C    -54.409100   18.032100   26.891200
  C    -53.480700   16.972700   27.006100
  C    -52.933100   16.584300   25.817000
  H    -54.975800   18.362100   27.727700
  C    -53.038800   16.501300   28.374500
  H    -52.487300   15.588500   28.270900
  H    -54.011100   16.491300   28.887700
  C    -52.067700   17.432400   29.182100
  H    -52.401600   18.503700   29.115900
  H    -51.039400   17.325800   28.732600
  C    -51.974600   17.217900   30.689300
  H    -52.888100   17.516500   31.260500
  H    -51.063800   17.764400   30.958900
  H    -51.754500   16.216100   30.980200
  H    -49.849800   13.027500   24.413500
  H    -55.389000   19.305400   25.380300

 Total Charge           Charge          ....    0
 Multiplicity           Mult            ....    1
 Number of Electrons    NEL             ....  134
 Basis Dimension        Dim             ....  322

ORBITAL ENERGIES
----------------

  NO   OCC          E(Eh)            E(eV)
   0   2.0000     -88.968925     -2420.9675
   1   2.0000     -88.961443     -2420.7639
   2   2.0000     -10.326930      -281.0100
   3   2.0000     -10.323203      -280.9086
   4   2.0000     -10.321570      -280.8642
   5   2.0000     -10.312239      -280.6103
   6   2.0000     -10.297584      -280.2115
   7   2.0000     -10.296253      -280.1753
   8   2.0000     -10.294646      -280.1316
   9   2.0000     -10.291496      -280.0458
  10   2.0000     -10.290440      -280.0171
  11   2.0000     -10.290203      -280.0106
  12   2.0000     -10.287313      -279.9320
  13   2.0000     -10.285180      -279.8740
  14   2.0000     -10.280457      -279.7455
  15   2.0000     -10.279347      -279.7152
  16   2.0000      -8.083294      -219.9576
  17   2.0000      -8.075722      -219.7516
  18   2.0000      -6.041705      -164.4032
  19   2.0000      -6.037952      -164.3010
  20   2.0000      -6.034394      -164.2042
  21   2.0000      -6.034085      -164.1958
  22   2.0000      -6.030228      -164.0908
  23   2.0000      -6.026374      -163.9860
  24   2.0000      -1.011801       -27.5325
  25   2.0000      -0.988796       -26.9065
  26   2.0000      -0.919892       -25.0315
  27   2.0000      -0.905130       -24.6298
  28   2.0000      -0.873969       -23.7819
  29   2.0000      -0.853886       -23.2354
  30   2.0000      -0.847646       -23.0656
  31   2.0000      -0.818967       -22.2852
  32   2.0000      -0.786234       -21.3945
  33   2.0000      -0.774350       -21.0711
  34   2.0000      -0.711767       -19.3682
  35   2.0000      -0.695658       -18.9298
  36   2.0000      -0.690031       -18.7767
  37   2.0000      -0.662781       -18.0352
  38   2.0000      -0.643262       -17.5041
  39   2.0000      -0.626538       -17.0490
  40   2.0000      -0.594325       -16.1724
  41   2.0000      -0.572712       -15.5843
  42   2.0000      -0.567520       -15.4430
  43   2.0000      -0.561219       -15.2715
  44   2.0000      -0.544017       -14.8035
  45   2.0000      -0.527849       -14.3635
  46   2.0000      -0.520548       -14.1648
  47   2.0000      -0.517285       -14.0760
  48   2.0000      -0.514159       -13.9910
  49   2.0000      -0.497869       -13.5477
  50   2.0000      -0.488746       -13.2994
  51   2.0000      -0.484781       -13.1916
  52   2.0000      -0.476249       -12.9594
  53   2.0000      -0.465535       -12.6679
  54   2.0000      -0.461443       -12.5565
  55   2.0000      -0.451214       -12.2782
  56   2.0000      -0.443478       -12.0676
  57   2.0000      -0.438348       -11.9281
  58   2.0000      -0.430615       -11.7176
  59   2.0000      -0.427918       -11.6442
  60   2.0000      -0.418497       -11.3879
  61   2.0000      -0.409914       -11.1543
  62   2.0000      -0.405974       -11.0471
  63   2.0000      -0.349410        -9.5079
  64   2.0000      -0.335671        -9.1341
  65   2.0000      -0.325336        -8.8528
  66   2.0000      -0.293546        -7.9878
  67   0.0000       0.029078         0.7912
  68   0.0000       0.066572         1.8115
  69   0.0000       0.111575         3.0361
  70   0.0000       0.121475         3.3055
  71   0.0000       0.131048         3.5660

MULLIKEN ATOMIC CHARGES
-----------------------
   0 S :    0.119379
   1 C :   -0.123574
   2 C :   -0.064492
   3 C :   -0.001834
   4 C :   -0.165935
   5 H :    0.013673
   6 C :    0.097117
   7 H :    0.032858
   8 H :    0.035207
   9 C :   -0.089525
  10 H :    0.019944
  11 H :    0.028183
  12 C :   -0.064035
  13 H :    0.041998
  14 H :    0.042407
  15 H :    0.031779
  16 S :    0.089027
  17 C :   -0.102269
  18 C :   -0.024877
  19 C :   -0.044106
  20 C :   -0.137817
  21 H :    0.002088
  22 C :    0.088289
  23 H :    0.027573
  24 H :    0.024707
  25 C :   -0.119158
  26 H :    0.035846
  27 H :    0.033402
  28 C :   -0.035548
  29 H :    0.045413
  30 H :    0.035094
  31 H :    0.016873
  32 H :    0.033798
  33 H :    0.078516
Sum of atomic charges:   -0.0000000

LOEWDIN ATOMIC CHARGES
----------------------
   0 S :    0.402285
   1 C :   -0.185676
   2 C :   -0.066534
   3 C :   -0.065248
   4 C :   -0.183410
   5 H :    0.035066
   6 C :   -0.033213
   7 H :    0.037934
   8 H :    0.037442
   9 C :   -0.040882
  10 H :    0.013838
  11 H :    0.028700
  12 C :   -0.063022
  13 H :    0.029576
  14 H :    0.025791
  15 H :    0.021010
  16 S :    0.383109
  17 C :   -0.185038
  18 C :   -0.072957
  19 C :   -0.065623
  20 C :   -0.193827
  21 H :    0.023585
  22 C :   -0.030695
  23 H :    0.027550
  24 H :    0.034190
  25 C :   -0.045710
  26 H :    0.028446
  27 H :    0.023136
  28 C :   -0.068560
  29 H :    0.030698
  30 H :    0.033352
  31 H :    0.016400
  32 H :    0.022634
  33 H :    0.045655

  Mayer bond orders larger than 0.100000
B(  0-S ,  1-C ) :   1.1414 B(  0-S ,  4-C ) :   1.1444 B(  1-C ,  2-C ) :   1.6119
B(  1-C ,  4-C ) :   0.1035 B(  1-C , 32-H ) :   0.9724 B(  2-C ,  3-C ) :   1.2462
B(  2-C ,  6-C ) :   1.0012 B(  3-C ,  4-C ) :   1.5773 B(  3-C ,  5-H ) :   0.9843
B(  4-C , 20-C ) :   1.0407 B(  6-C ,  7-H ) :   0.9419 B(  6-C ,  8-H ) :   0.9165
B(  6-C ,  9-C ) :   1.1071 B(  9-C , 10-H ) :   0.9461 B(  9-C , 11-H ) :   0.9545
B(  9-C , 12-C ) :   1.0662 B( 12-C , 13-H ) :   0.9821 B( 12-C , 14-H ) :   0.9773
B( 12-C , 15-H ) :   0.9791 B( 16-S , 17-C ) :   1.1420 B( 16-S , 20-C ) :   1.1242
B( 17-C , 18-C ) :   1.6047 B( 17-C , 33-H ) :   0.9635 B( 18-C , 19-C ) :   1.2480
B( 18-C , 21-H ) :   0.9895 B( 19-C , 20-C ) :   1.6047 B( 19-C , 22-C ) :   1.0572
B( 22-C , 23-H ) :   0.9248 B( 22-C , 24-H ) :   0.9295 B( 22-C , 25-C ) :   1.0648
B( 25-C , 26-H ) :   0.9556 B( 25-C , 27-H ) :   0.9504 B( 25-C , 28-C ) :   1.0827
B( 28-C , 29-H ) :   0.9746 B( 28-C , 30-H ) :   0.9711 B( 28-C , 31-H ) :   0.9735

Dispersion correction           -0.014591467
FINAL SINGLE POINT ENERGY     -1339.870776280159

DIPOLE MOMENT
-------------
                                X             Y             Z
Electronic contribution:    -18.94364      -4.76752     -22.60340
Nuclear contribution   :     19.36373       4.82802      23.28090
                        -----------------------------------------
Total Dipole Moment    :      0.42009       0.06049       0.67750
                        -----------------------------------------
Magnitude (a.u.)       :      0.79947
Magnitude (Debye)      :      2.03209

Rotational constants in cm-1:     0.015632     0.010193     0.007450
Rotational constants in MHz :   468.628462   305.585003   223.351272

                             ****ORCA TERMINATED NORMALLY****
TOTAL RUN TIME: 0 days 0 hours 0 minutes 21 seconds 58 msec
