                         Program Version 4.2.1 -  RELEASE  -
|  1> ! wB97X-D3 SP def2-SVP
|  2> %pal
|  3> nprocs 24
|  4> end
|  5>
|  6> * xyz 0 1
|  7> S 	 35.5498 	 -21.725 	 -115.371
|  8> C 	 37.162 	 -21.0678 	 -115.422
|  9> C 	 37.9798 	 -21.5017 	 -114.427
| 10> C 	 37.2143 	 -22.4048 	 -113.559
| 11> C 	 35.9084 	 -22.6824 	 -113.918
| 12> H 	 37.504 	 -22.9147 	 -112.681
| 13> C 	 39.4059 	 -21.1589 	 -114.135
| 14> H 	 39.4423 	 -20.6296 	 -113.142
| 15> H 	 39.5289 	 -20.4002 	 -114.842
| 16> C 	 40.5437 	 -22.2242 	 -114.232
| 17> H 	 41.5797 	 -21.8544 	 -114.163
| 18> H 	 40.3292 	 -22.8907 	 -113.422
| 19> C 	 40.4483 	 -23.1031 	 -115.5
| 20> H 	 41.1896 	 -24.0073 	 -115.51
| 21> H 	 39.4154 	 -23.5853 	 -115.646
| 22> H 	 40.6374 	 -22.5425 	 -116.465
| 23> S 	 33.3471 	 -23.0655 	 -113.028
| 24> C 	 32.8758 	 -24.4158 	 -112.01
| 25> C 	 33.9204 	 -25.3024 	 -111.994
| 26> C 	 35.18 	 -24.792 	 -112.554
| 27> C 	 35.0113 	 -23.6174 	 -113.235
| 28> H 	 33.6928 	 -26.2129 	 -111.433
| 29> C 	 36.3717 	 -25.7281 	 -112.439
| 30> H 	 36.7059 	 -25.6555 	 -111.39
| 31> H 	 37.1001 	 -25.23 	 -113.121
| 32> C 	 36.1677 	 -27.1713 	 -112.953
| 33> H 	 35.5621 	 -27.8012 	 -112.338
| 34> H 	 37.1196 	 -27.7075 	 -112.884
| 35> C 	 35.7923 	 -27.2658 	 -114.4
| 36> H 	 36.4741 	 -26.7206 	 -115.042
| 37> H 	 34.8336 	 -26.8088 	 -114.698
| 38> H 	 35.7752 	 -28.1699 	 -114.857
| 39> H 	 37.4642 	 -20.4128 	 -116.25
| 40> H 	 31.8901 	 -24.7396 	 -111.752
| 41> *
| 42>
| 43>                          ****END OF INPUT****

CARTESIAN COORDINATES (ANGSTROEM)
---------------------------------
  S     35.549800  -21.725000  -115.371000
  C     37.162000  -21.067800  -115.422000
  C     37.979800  -21.501700  -114.427000
  C     37.214300  -22.404800  -113.559000
  C     35.908400  -22.682400  -113.918000
  H     37.504000  -22.914700  -112.681000
  C     39.405900  -21.158900  -114.135000
  H     39.442300  -20.629600  -113.142000
  H     39.528900  -20.400200  -114.842000
  C     40.543700  -22.224200  -114.232000
  H     41.579700  -21.854400  -114.163000
  H     40.329200  -22.890700  -113.422000
  C     40.448300  -23.103100  -115.500000
  H     41.189600  -24.007300  -115.510000
  H     39.415400  -23.585300  -115.646000
  H     40.637400  -22.542500  -116.465000
  S     33.347100  -23.065500  -113.028000
  C     32.875800  -24.415800  -112.010000
  C     33.920400  -25.302400  -111.994000
  C     35.180000  -24.792000  -112.554000
  C     35.011300  -23.617400  -113.235000
  H     33.692800  -26.212900  -111.433000
  C     36.371700  -25.728100  -112.439000
  H     36.705900  -25.655500  -111.390000
  H     37.100100  -25.230000  -113.121000
  C     36.167700  -27.171300  -112.953000
  H     35.562100  -27.801200  -112.338000
  H     37.119600  -27.707500  -112.884000
  C     35.792300  -27.265800  -114.400000
  H     36.474100  -26.720600  -115.042000
  H     34.833600  -26.808800  -114.698000
  H     35.775200  -28.169900  -114.857000
  H     37.464200  -20.412800  -116.250000
  H     31.890100  -24.739600  -111.752000

 Total Charge           Charge          ....    0
 Multiplicity           Mult            ....    1
 Number of Electrons    NEL             ....  134
 Basis Dimension        Dim             ....  322

ORBITAL ENERGIES
----------------

  NO   OCC          E(Eh)            E(eV)
   0   2.0000     -88.966923     -2420.9130
   1   2.0000     -88.959301     -2420.7057
   2   2.0000     -10.333936      -281.2007
   3   2.0000     -10.333412      -281.1864
   4   2.0000     -10.318945      -280.7928
   5   2.0000     -10.315011      -280.6857
   6   2.0000     -10.308206      -280.5006
   7   2.0000     -10.306873      -280.4643
   8   2.0000     -10.299360      -280.2598
   9   2.0000     -10.295579      -280.1570
  10   2.0000     -10.295095      -280.1438
  11   2.0000     -10.294583      -280.1298
  12   2.0000     -10.293659      -280.1047
  13   2.0000     -10.293098      -280.0894
  14   2.0000     -10.287854      -279.9467
  15   2.0000     -10.264246      -279.3043
  16   2.0000      -8.081466      -219.9079
  17   2.0000      -8.074164      -219.7092
  18   2.0000      -6.040131      -164.3603
  19   2.0000      -6.036051      -164.2493
  20   2.0000      -6.032926      -164.1643
  21   2.0000      -6.032008      -164.1393
  22   2.0000      -6.028607      -164.0467
  23   2.0000      -6.024669      -163.9396
  24   2.0000      -1.005603       -27.3638
  25   2.0000      -0.984556       -26.7911
  26   2.0000      -0.911740       -24.8097
  27   2.0000      -0.910096       -24.7650
  28   2.0000      -0.874398       -23.7936
  29   2.0000      -0.849547       -23.1174
  30   2.0000      -0.841335       -22.8939
  31   2.0000      -0.819981       -22.3128
  32   2.0000      -0.781632       -21.2693
  33   2.0000      -0.775745       -21.1091
  34   2.0000      -0.715964       -19.4824
  35   2.0000      -0.703166       -19.1341
  36   2.0000      -0.696066       -18.9409
  37   2.0000      -0.660109       -17.9625
  38   2.0000      -0.644017       -17.5246
  39   2.0000      -0.618725       -16.8364
  40   2.0000      -0.588024       -16.0010
  41   2.0000      -0.565353       -15.3840
  42   2.0000      -0.564833       -15.3699
  43   2.0000      -0.550528       -14.9806
  44   2.0000      -0.544066       -14.8048
  45   2.0000      -0.533719       -14.5232
  46   2.0000      -0.518547       -14.1104
  47   2.0000      -0.513970       -13.9858
  48   2.0000      -0.507153       -13.8003
  49   2.0000      -0.496387       -13.5074
  50   2.0000      -0.494517       -13.4565
  51   2.0000      -0.478257       -13.0140
  52   2.0000      -0.472057       -12.8453
  53   2.0000      -0.453733       -12.3467
  54   2.0000      -0.452989       -12.3265
  55   2.0000      -0.446049       -12.1376
  56   2.0000      -0.441541       -12.0149
  57   2.0000      -0.437419       -11.9028
  58   2.0000      -0.434427       -11.8214
  59   2.0000      -0.428290       -11.6544
  60   2.0000      -0.417911       -11.3719
  61   2.0000      -0.417051       -11.3485
  62   2.0000      -0.402188       -10.9441
  63   2.0000      -0.359662        -9.7869
  64   2.0000      -0.329379        -8.9629
  65   2.0000      -0.324708        -8.8357
  66   2.0000      -0.298018        -8.1095
  67   0.0000       0.028981         0.7886
  68   0.0000       0.076861         2.0915
  69   0.0000       0.114623         3.1191
  70   0.0000       0.115758         3.1499
  71   0.0000       0.126191         3.4338

MULLIKEN ATOMIC CHARGES
-----------------------
   0 S :    0.107997
   1 C :   -0.132462
   2 C :   -0.099309
   3 C :    0.018656
   4 C :   -0.130548
   5 H :   -0.007767
   6 C :    0.096491
   7 H :    0.051544
   8 H :   -0.006905
   9 C :   -0.024305
  10 H :    0.048569
  11 H :    0.027417
  12 C :   -0.148907
  13 H :    0.048309
  14 H :    0.057308
  15 H :    0.039616
  16 S :    0.073408
  17 C :   -0.069379
  18 C :   -0.063285
  19 C :   -0.082665
  20 C :   -0.122695
  21 H :    0.029795
  22 C :    0.058710
  23 H :    0.048831
  24 H :    0.025201
  25 C :   -0.033047
  26 H :    0.019533
  27 H :    0.025527
  28 C :   -0.018588
  29 H :    0.011879
  30 H :    0.031066
  31 H :    0.005901
  32 H :    0.058603
  33 H :    0.055500
Sum of atomic charges:    0.0000000

LOEWDIN ATOMIC CHARGES
----------------------
   0 S :    0.391735
   1 C :   -0.190646
   2 C :   -0.065399
   3 C :   -0.056924
   4 C :   -0.187352
   5 H :    0.020708
   6 C :   -0.033453
   7 H :    0.044594
   8 H :    0.019858
   9 C :   -0.038542
  10 H :    0.033665
  11 H :    0.022694
  12 C :   -0.089322
  13 H :    0.033945
  14 H :    0.033751
  15 H :    0.025296
  16 S :    0.384175
  17 C :   -0.181043
  18 C :   -0.072198
  19 C :   -0.062437
  20 C :   -0.186874
  21 H :    0.033870
  22 C :   -0.032130
  23 H :    0.038222
  24 H :    0.032652
  25 C :   -0.039264
  26 H :    0.018329
  27 H :    0.032055
  28 C :   -0.064066
  29 H :    0.027085
  30 H :    0.029912
  31 H :    0.013103
  32 H :    0.033591
  33 H :    0.030411

  Mayer bond orders larger than 0.100000
B(  0-S ,  1-C ) :   1.1387 B(  0-S ,  4-C ) :   1.1190 B(  1-C ,  2-C ) :   1.6425
B(  1-C , 32-H ) :   0.9569 B(  2-C ,  3-C ) :   1.1814 B(  2-C ,  6-C ) :   1.0183
B(  3-C ,  4-C ) :   1.6224 B(  3-C ,  5-H ) :   0.9997 B(  4-C , 20-C ) :   1.0370
B(  6-C ,  7-H ) :   0.9399 B(  6-C ,  8-H ) :   0.9308 B(  6-C ,  9-C ) :   1.0511
B(  9-C , 10-H ) :   0.9591 B(  9-C , 11-H ) :   0.9548 B(  9-C , 12-C ) :   1.0712
B( 12-C , 13-H ) :   0.9747 B( 12-C , 14-H ) :   0.9692 B( 12-C , 15-H ) :   0.9768
B( 16-S , 17-C ) :   1.1365 B( 16-S , 20-C ) :   1.1178 B( 17-C , 18-C ) :   1.6707
B( 17-C , 33-H ) :   0.9625 B( 18-C , 19-C ) :   1.1834 B( 18-C , 21-H ) :   0.9838
B( 19-C , 20-C ) :   1.6413 B( 19-C , 22-C ) :   1.0323 B( 22-C , 23-H ) :   0.9293
B( 22-C , 24-H ) :   0.9378 B( 22-C , 25-C ) :   1.0786 B( 25-C , 26-H ) :   0.9508
B( 25-C , 27-H ) :   0.9487 B( 25-C , 28-C ) :   1.0796 B( 28-C , 29-H ) :   0.9682
B( 28-C , 30-H ) :   0.9699 B( 28-C , 31-H ) :   0.9713

Dispersion correction           -0.014780317
FINAL SINGLE POINT ENERGY     -1339.863698979391

DIPOLE MOMENT
-------------
                                X             Y             Z
Electronic contribution:    -22.72401      14.88182       1.45836
Nuclear contribution   :     23.30333     -15.35451      -1.28624
                        -----------------------------------------
Total Dipole Moment    :      0.57932      -0.47270       0.17212
                        -----------------------------------------
Magnitude (a.u.)       :      0.76725
Magnitude (Debye)      :      1.95021

Rotational constants in cm-1:     0.018920     0.009124     0.007040
Rotational constants in MHz :   567.209659   273.526810   211.055117

                             ****ORCA TERMINATED NORMALLY****
TOTAL RUN TIME: 0 days 0 hours 0 minutes 22 seconds 171 msec
