                         Program Version 4.2.1 -  RELEASE  -
|  1> ! wB97X-D3 SP def2-SVP
|  2> %pal
|  3> nprocs 24
|  4> end
|  5>
|  6> * xyz 0 1
|  7> S 	 -126.34 	 60.8347 	 -54.6716
|  8> C 	 -127.568 	 61.4064 	 -55.7338
|  9> C 	 -127.456 	 62.7781 	 -56.0368
| 10> C 	 -126.343 	 63.3927 	 -55.3364
| 11> C 	 -125.678 	 62.5019 	 -54.5033
| 12> H 	 -125.929 	 64.3826 	 -55.3382
| 13> C 	 -128.437 	 63.4963 	 -56.8435
| 14> H 	 -129.374 	 63.5469 	 -56.3215
| 15> H 	 -128.682 	 62.8412 	 -57.6719
| 16> C 	 -128.072 	 64.8822 	 -57.3241
| 17> H 	 -128.066 	 65.4675 	 -56.3996
| 18> H 	 -127.15 	 64.9342 	 -57.8366
| 19> C 	 -129.117 	 65.6071 	 -58.207
| 20> H 	 -129.161 	 65.0766 	 -59.1645
| 21> H 	 -130.057 	 65.7754 	 -57.66
| 22> H 	 -128.834 	 66.6349 	 -58.4169
| 23> S 	 -124.735 	 62.2587 	 -52.0126
| 24> C 	 -123.202 	 62.9694 	 -51.6207
| 25> C 	 -122.543 	 63.4932 	 -52.6776
| 26> C 	 -123.248 	 63.2098 	 -53.8989
| 27> C 	 -124.496 	 62.6627 	 -53.6701
| 28> H 	 -121.547 	 63.9532 	 -52.7101
| 29> C 	 -122.574 	 63.4288 	 -55.2455
| 30> H 	 -123.406 	 63.156 	 -55.9182
| 31> H 	 -121.907 	 62.6126 	 -55.448
| 32> C 	 -122.259 	 64.8775 	 -55.5817
| 33> H 	 -121.272 	 65.0654 	 -55.1186
| 34> H 	 -123.017 	 65.6298 	 -55.1137
| 35> C 	 -122.269 	 65.0258 	 -57.0788
| 36> H 	 -123.298 	 64.7757 	 -57.447
| 37> H 	 -121.488 	 64.4174 	 -57.5656
| 38> H 	 -121.933 	 66.104 	 -57.2751
| 39> H 	 -128.215 	 60.7682 	 -56.3096
| 40> H 	 -122.731 	 62.8948 	 -50.6918
| 41> *
| 42>
| 43>                          ****END OF INPUT****

CARTESIAN COORDINATES (ANGSTROEM)
---------------------------------
  S    -126.340000   60.834700  -54.671600
  C    -127.568000   61.406400  -55.733800
  C    -127.456000   62.778100  -56.036800
  C    -126.343000   63.392700  -55.336400
  C    -125.678000   62.501900  -54.503300
  H    -125.929000   64.382600  -55.338200
  C    -128.437000   63.496300  -56.843500
  H    -129.374000   63.546900  -56.321500
  H    -128.682000   62.841200  -57.671900
  C    -128.072000   64.882200  -57.324100
  H    -128.066000   65.467500  -56.399600
  H    -127.150000   64.934200  -57.836600
  C    -129.117000   65.607100  -58.207000
  H    -129.161000   65.076600  -59.164500
  H    -130.057000   65.775400  -57.660000
  H    -128.834000   66.634900  -58.416900
  S    -124.735000   62.258700  -52.012600
  C    -123.202000   62.969400  -51.620700
  C    -122.543000   63.493200  -52.677600
  C    -123.248000   63.209800  -53.898900
  C    -124.496000   62.662700  -53.670100
  H    -121.547000   63.953200  -52.710100
  C    -122.574000   63.428800  -55.245500
  H    -123.406000   63.156000  -55.918200
  H    -121.907000   62.612600  -55.448000
  C    -122.259000   64.877500  -55.581700
  H    -121.272000   65.065400  -55.118600
  H    -123.017000   65.629800  -55.113700
  C    -122.269000   65.025800  -57.078800
  H    -123.298000   64.775700  -57.447000
  H    -121.488000   64.417400  -57.565600
  H    -121.933000   66.104000  -57.275100
  H    -128.215000   60.768200  -56.309600
  H    -122.731000   62.894800  -50.691800

 Total Charge           Charge          ....    0
 Multiplicity           Mult            ....    1
 Number of Electrons    NEL             ....  134
 Basis Dimension        Dim             ....  322

ORBITAL ENERGIES
----------------

  NO   OCC          E(Eh)            E(eV)
   0   2.0000     -88.964093     -2420.8360
   1   2.0000     -88.962115     -2420.7822
   2   2.0000     -10.329878      -281.0903
   3   2.0000     -10.318932      -280.7924
   4   2.0000     -10.310579      -280.5651
   5   2.0000     -10.307947      -280.4935
   6   2.0000     -10.303325      -280.3677
   7   2.0000     -10.298070      -280.2247
   8   2.0000     -10.297689      -280.2144
   9   2.0000     -10.295137      -280.1449
  10   2.0000     -10.289296      -279.9860
  11   2.0000     -10.288032      -279.9516
  12   2.0000     -10.285140      -279.8729
  13   2.0000     -10.283753      -279.8351
  14   2.0000     -10.283509      -279.8285
  15   2.0000     -10.281563      -279.7756
  16   2.0000      -8.078543      -219.8283
  17   2.0000      -8.077976      -219.8129
  18   2.0000      -6.036907      -164.2726
  19   2.0000      -6.036418      -164.2593
  20   2.0000      -6.033123      -164.1696
  21   2.0000      -6.032413      -164.1503
  22   2.0000      -6.029448      -164.0696
  23   2.0000      -6.028645      -164.0478
  24   2.0000      -1.007507       -27.4157
  25   2.0000      -0.981803       -26.7162
  26   2.0000      -0.917513       -24.9668
  27   2.0000      -0.914189       -24.8763
  28   2.0000      -0.871065       -23.7029
  29   2.0000      -0.852266       -23.1913
  30   2.0000      -0.847383       -23.0585
  31   2.0000      -0.820304       -22.3216
  32   2.0000      -0.779647       -21.2153
  33   2.0000      -0.765921       -20.8418
  34   2.0000      -0.711834       -19.3700
  35   2.0000      -0.695961       -18.9381
  36   2.0000      -0.686348       -18.6765
  37   2.0000      -0.658662       -17.9231
  38   2.0000      -0.646927       -17.6038
  39   2.0000      -0.615500       -16.7486
  40   2.0000      -0.597907       -16.2699
  41   2.0000      -0.583452       -15.8765
  42   2.0000      -0.570953       -15.5364
  43   2.0000      -0.559854       -15.2344
  44   2.0000      -0.529606       -14.4113
  45   2.0000      -0.521528       -14.1915
  46   2.0000      -0.517374       -14.0785
  47   2.0000      -0.509603       -13.8670
  48   2.0000      -0.505326       -13.7506
  49   2.0000      -0.501633       -13.6501
  50   2.0000      -0.491983       -13.3875
  51   2.0000      -0.478572       -13.0226
  52   2.0000      -0.469882       -12.7861
  53   2.0000      -0.468747       -12.7553
  54   2.0000      -0.456140       -12.4122
  55   2.0000      -0.451489       -12.2856
  56   2.0000      -0.447606       -12.1800
  57   2.0000      -0.435505       -11.8507
  58   2.0000      -0.432975       -11.7819
  59   2.0000      -0.425706       -11.5840
  60   2.0000      -0.416340       -11.3292
  61   2.0000      -0.411704       -11.2030
  62   2.0000      -0.409702       -11.1486
  63   2.0000      -0.345165        -9.3924
  64   2.0000      -0.329750        -8.9730
  65   2.0000      -0.324420        -8.8279
  66   2.0000      -0.289067        -7.8659
  67   0.0000       0.035200         0.9578
  68   0.0000       0.066672         1.8142
  69   0.0000       0.114588         3.1181
  70   0.0000       0.116993         3.1835
  71   0.0000       0.125319         3.4101

MULLIKEN ATOMIC CHARGES
-----------------------
   0 S :    0.106152
   1 C :   -0.102872
   2 C :   -0.091930
   3 C :    0.041566
   4 C :   -0.165794
   5 H :    0.007499
   6 C :    0.080602
   7 H :    0.032811
   8 H :    0.010246
   9 C :   -0.097929
  10 H :    0.031873
  11 H :    0.027227
  12 C :   -0.036050
  13 H :    0.038742
  14 H :    0.031953
  15 H :    0.026599
  16 S :    0.115285
  17 C :   -0.052674
  18 C :   -0.026816
  19 C :   -0.080096
  20 C :   -0.166604
  21 H :    0.024438
  22 C :    0.069880
  23 H :    0.004200
  24 H :    0.043584
  25 C :   -0.098802
  26 H :    0.033312
  27 H :    0.055781
  28 C :   -0.069102
  29 H :    0.051316
  30 H :    0.038561
  31 H :    0.040973
  32 H :    0.042951
  33 H :    0.033120
Sum of atomic charges:   -0.0000000

LOEWDIN ATOMIC CHARGES
----------------------
   0 S :    0.395933
   1 C :   -0.207050
   2 C :   -0.058460
   3 C :   -0.060985
   4 C :   -0.178162
   5 H :    0.032617
   6 C :   -0.041038
   7 H :    0.036328
   8 H :    0.029414
   9 C :   -0.039898
  10 H :    0.027508
  11 H :    0.018200
  12 C :   -0.063388
  13 H :    0.026141
  14 H :    0.027271
  15 H :    0.026207
  16 S :    0.422230
  17 C :   -0.176655
  18 C :   -0.071291
  19 C :   -0.054622
  20 C :   -0.222131
  21 H :    0.035934
  22 C :   -0.042248
  23 H :    0.030534
  24 H :    0.035298
  25 C :   -0.050887
  26 H :    0.022516
  27 H :    0.038662
  28 C :   -0.071263
  29 H :    0.031257
  30 H :    0.027202
  31 H :    0.032987
  32 H :    0.024537
  33 H :    0.017303

  Mayer bond orders larger than 0.100000
B(  0-S ,  1-C ) :   1.1459 B(  0-S ,  4-C ) :   1.1481 B(  1-C ,  2-C ) :   1.6054
B(  1-C ,  4-C ) :   0.1027 B(  1-C , 32-H ) :   0.9698 B(  2-C ,  3-C ) :   1.2089
B(  2-C ,  6-C ) :   1.0328 B(  3-C ,  4-C ) :   1.5978 B(  3-C ,  5-H ) :   0.9991
B(  4-C , 20-C ) :   0.9970 B(  6-C ,  7-H ) :   0.9293 B(  6-C ,  8-H ) :   0.9243
B(  6-C ,  9-C ) :   1.0821 B(  9-C , 10-H ) :   0.9429 B(  9-C , 11-H ) :   0.9599
B(  9-C , 12-C ) :   1.0959 B( 12-C , 13-H ) :   0.9750 B( 12-C , 14-H ) :   0.9727
B( 12-C , 15-H ) :   0.9722 B( 16-S , 17-C ) :   1.1507 B( 16-S , 20-C ) :   1.1421
B( 17-C , 18-C ) :   1.6163 B( 17-C , 33-H ) :   0.9717 B( 18-C , 19-C ) :   1.2353
B( 18-C , 21-H ) :   0.9868 B( 19-C , 20-C ) :   1.6185 B( 19-C , 22-C ) :   1.0324
B( 22-C , 23-H ) :   0.9357 B( 22-C , 24-H ) :   0.9321 B( 22-C , 25-C ) :   1.0320
B( 25-C , 26-H ) :   0.9492 B( 25-C , 27-H ) :   0.9583 B( 25-C , 28-C ) :   1.0892
B( 28-C , 29-H ) :   0.9727 B( 28-C , 30-H ) :   0.9708 B( 28-C , 31-H ) :   0.9724

Dispersion correction           -0.014023153
FINAL SINGLE POINT ENERGY     -1339.866788812235

DIPOLE MOMENT
-------------
                                X             Y             Z
Electronic contribution:      0.50758     -20.57439      23.21956
Nuclear contribution   :     -0.30055      21.02760     -23.71028
                        -----------------------------------------
Total Dipole Moment    :      0.20703       0.45321      -0.49072
                        -----------------------------------------
Magnitude (a.u.)       :      0.69933
Magnitude (Debye)      :      1.77756

Rotational constants in cm-1:     0.016808     0.009047     0.006701
Rotational constants in MHz :   503.891449   271.231260   200.882584

                             ****ORCA TERMINATED NORMALLY****
TOTAL RUN TIME: 0 days 0 hours 0 minutes 21 seconds 495 msec
