                         Program Version 4.2.1 -  RELEASE  -
|  1> ! wB97X-D3 SP def2-SVP
|  2> %pal
|  3> nprocs 24
|  4> end
|  5>
|  6> * xyz 0 1
|  7> S 	 -62.5626 	 10.5705 	 -92.5406
|  8> C 	 -64.1639 	 11.1582 	 -92.8633
|  9> C 	 -64.5663 	 12.1854 	 -92.0253
| 10> C 	 -63.5112 	 12.4881 	 -91.1356
| 11> C 	 -62.3223 	 11.8383 	 -91.352
| 12> H 	 -63.488 	 13.1325 	 -90.2631
| 13> C 	 -65.9517 	 12.8223 	 -91.8694
| 14> H 	 -65.9935 	 13.1394 	 -90.8908
| 15> H 	 -66.7569 	 12.0875 	 -91.9237
| 16> C 	 -66.3123 	 13.9885 	 -92.7756
| 17> H 	 -66.1799 	 13.5909 	 -93.8295
| 18> H 	 -67.3771 	 14.2178 	 -92.6258
| 19> C 	 -65.5326 	 15.2258 	 -92.4327
| 20> H 	 -65.7752 	 16.0299 	 -93.1541
| 21> H 	 -65.9197 	 15.4773 	 -91.3886
| 22> H 	 -64.4842 	 14.9448 	 -92.2422
| 23> S 	 -60.0981 	 10.6449 	 -89.9949
| 24> C 	 -58.8524 	 11.6759 	 -89.411
| 25> C 	 -59.21 	 12.9658 	 -89.6296
| 26> C 	 -60.3502 	 13.1845 	 -90.4333
| 27> C 	 -61.0246 	 12.0221 	 -90.6549
| 28> H 	 -58.6147 	 13.7809 	 -89.2401
| 29> C 	 -60.7894 	 14.5477 	 -90.9917
| 30> H 	 -60.1791 	 15.2329 	 -90.3755
| 31> H 	 -61.7609 	 14.8505 	 -90.802
| 32> C 	 -60.4483 	 14.6236 	 -92.4441
| 33> H 	 -61.0802 	 14.052 	 -93.0321
| 34> H 	 -59.484 	 14.1387 	 -92.7272
| 35> C 	 -60.3127 	 16.1418 	 -92.7623
| 36> H 	 -59.5037 	 16.6137 	 -92.2121
| 37> H 	 -61.2606 	 16.5862 	 -92.5286
| 38> H 	 -60.0756 	 16.2509 	 -93.8263
| 39> H 	 -64.9051 	 10.4712 	 -93.3119
| 40> H 	 -58.0536 	 11.4269 	 -88.7847
| 41> *
| 42>
| 43>                          ****END OF INPUT****

CARTESIAN COORDINATES (ANGSTROEM)
---------------------------------
  S    -62.562600   10.570500  -92.540600
  C    -64.163900   11.158200  -92.863300
  C    -64.566300   12.185400  -92.025300
  C    -63.511200   12.488100  -91.135600
  C    -62.322300   11.838300  -91.352000
  H    -63.488000   13.132500  -90.263100
  C    -65.951700   12.822300  -91.869400
  H    -65.993500   13.139400  -90.890800
  H    -66.756900   12.087500  -91.923700
  C    -66.312300   13.988500  -92.775600
  H    -66.179900   13.590900  -93.829500
  H    -67.377100   14.217800  -92.625800
  C    -65.532600   15.225800  -92.432700
  H    -65.775200   16.029900  -93.154100
  H    -65.919700   15.477300  -91.388600
  H    -64.484200   14.944800  -92.242200
  S    -60.098100   10.644900  -89.994900
  C    -58.852400   11.675900  -89.411000
  C    -59.210000   12.965800  -89.629600
  C    -60.350200   13.184500  -90.433300
  C    -61.024600   12.022100  -90.654900
  H    -58.614700   13.780900  -89.240100
  C    -60.789400   14.547700  -90.991700
  H    -60.179100   15.232900  -90.375500
  H    -61.760900   14.850500  -90.802000
  C    -60.448300   14.623600  -92.444100
  H    -61.080200   14.052000  -93.032100
  H    -59.484000   14.138700  -92.727200
  C    -60.312700   16.141800  -92.762300
  H    -59.503700   16.613700  -92.212100
  H    -61.260600   16.586200  -92.528600
  H    -60.075600   16.250900  -93.826300
  H    -64.905100   10.471200  -93.311900
  H    -58.053600   11.426900  -88.784700

 Total Charge           Charge          ....    0
 Multiplicity           Mult            ....    1
 Number of Electrons    NEL             ....  134
 Basis Dimension        Dim             ....  322

ORBITAL ENERGIES
----------------

  NO   OCC          E(Eh)            E(eV)
   0   2.0000     -88.966271     -2420.8953
   1   2.0000     -88.964252     -2420.8404
   2   2.0000     -10.329474      -281.0793
   3   2.0000     -10.325806      -280.9795
   4   2.0000     -10.315196      -280.6908
   5   2.0000     -10.311194      -280.5818
   6   2.0000     -10.305279      -280.4209
   7   2.0000     -10.298177      -280.2277
   8   2.0000     -10.293021      -280.0873
   9   2.0000     -10.288257      -279.9577
  10   2.0000     -10.288110      -279.9537
  11   2.0000     -10.287459      -279.9360
  12   2.0000     -10.286579      -279.9120
  13   2.0000     -10.284833      -279.8645
  14   2.0000     -10.277045      -279.6526
  15   2.0000     -10.274975      -279.5963
  16   2.0000      -8.081291      -219.9031
  17   2.0000      -8.079060      -219.8424
  18   2.0000      -6.039606      -164.3460
  19   2.0000      -6.037631      -164.2923
  20   2.0000      -6.035813      -164.2428
  21   2.0000      -6.033541      -164.1810
  22   2.0000      -6.032186      -164.1441
  23   2.0000      -6.029757      -164.0780
  24   2.0000      -1.009831       -27.4789
  25   2.0000      -0.990895       -26.9636
  26   2.0000      -0.918631       -24.9972
  27   2.0000      -0.916202       -24.9311
  28   2.0000      -0.869522       -23.6609
  29   2.0000      -0.853048       -23.2126
  30   2.0000      -0.845282       -23.0013
  31   2.0000      -0.815387       -22.1878
  32   2.0000      -0.784467       -21.3464
  33   2.0000      -0.774726       -21.0814
  34   2.0000      -0.710446       -19.3322
  35   2.0000      -0.699637       -19.0381
  36   2.0000      -0.694018       -18.8852
  37   2.0000      -0.661732       -18.0066
  38   2.0000      -0.644251       -17.5310
  39   2.0000      -0.615811       -16.7571
  40   2.0000      -0.603529       -16.4229
  41   2.0000      -0.577487       -15.7142
  42   2.0000      -0.562801       -15.3146
  43   2.0000      -0.557282       -15.1644
  44   2.0000      -0.540804       -14.7160
  45   2.0000      -0.528339       -14.3768
  46   2.0000      -0.523099       -14.2342
  47   2.0000      -0.511144       -13.9089
  48   2.0000      -0.504666       -13.7326
  49   2.0000      -0.496579       -13.5126
  50   2.0000      -0.487892       -13.2762
  51   2.0000      -0.479677       -13.0527
  52   2.0000      -0.475129       -12.9289
  53   2.0000      -0.470376       -12.7996
  54   2.0000      -0.458058       -12.4644
  55   2.0000      -0.454295       -12.3620
  56   2.0000      -0.441341       -12.0095
  57   2.0000      -0.439004       -11.9459
  58   2.0000      -0.435093       -11.8395
  59   2.0000      -0.428316       -11.6551
  60   2.0000      -0.416879       -11.3438
  61   2.0000      -0.413446       -11.2504
  62   2.0000      -0.404431       -11.0051
  63   2.0000      -0.346355        -9.4248
  64   2.0000      -0.334910        -9.1134
  65   2.0000      -0.331690        -9.0257
  66   2.0000      -0.296043        -8.0557
  67   0.0000       0.026261         0.7146
  68   0.0000       0.071546         1.9469
  69   0.0000       0.109535         2.9806
  70   0.0000       0.123006         3.3472
  71   0.0000       0.127875         3.4796

MULLIKEN ATOMIC CHARGES
-----------------------
   0 S :    0.109359
   1 C :   -0.124476
   2 C :   -0.095733
   3 C :    0.020529
   4 C :   -0.179622
   5 H :    0.015222
   6 C :    0.095728
   7 H :   -0.011914
   8 H :    0.023796
   9 C :   -0.074828
  10 H :    0.037275
  11 H :    0.031432
  12 C :   -0.060471
  13 H :    0.056211
  14 H :    0.022502
  15 H :    0.042010
  16 S :    0.101861
  17 C :   -0.052770
  18 C :   -0.044519
  19 C :   -0.059741
  20 C :   -0.157721
  21 H :    0.011422
  22 C :    0.128144
  23 H :    0.005777
  24 H :    0.004619
  25 C :   -0.059510
  26 H :    0.023945
  27 H :    0.029214
  28 C :   -0.038460
  29 H :    0.036238
  30 H :    0.027115
  31 H :    0.031589
  32 H :    0.066149
  33 H :    0.039628
Sum of atomic charges:    0.0000000

LOEWDIN ATOMIC CHARGES
----------------------
   0 S :    0.409666
   1 C :   -0.206321
   2 C :   -0.062922
   3 C :   -0.067839
   4 C :   -0.190515
   5 H :    0.031887
   6 C :   -0.025641
   7 H :    0.016579
   8 H :    0.032509
   9 C :   -0.045772
  10 H :    0.026716
  11 H :    0.025143
  12 C :   -0.071626
  13 H :    0.033155
  14 H :    0.030938
  15 H :    0.026637
  16 S :    0.396695
  17 C :   -0.183079
  18 C :   -0.074185
  19 C :   -0.053540
  20 C :   -0.192520
  21 H :    0.028051
  22 C :   -0.018272
  23 H :    0.030444
  24 H :    0.016951
  25 C :   -0.033369
  26 H :    0.016913
  27 H :    0.030324
  28 C :   -0.056159
  29 H :    0.025099
  30 H :    0.020491
  31 H :    0.025235
  32 H :    0.033767
  33 H :    0.024559

  Mayer bond orders larger than 0.100000
B(  0-S ,  1-C ) :   1.1588 B(  0-S ,  4-C ) :   1.1497 B(  1-C ,  2-C ) :   1.6075
B(  1-C ,  4-C ) :   0.1017 B(  1-C , 32-H ) :   0.9550 B(  2-C ,  3-C ) :   1.2456
B(  2-C ,  6-C ) :   1.0119 B(  3-C ,  4-C ) :   1.5881 B(  3-C ,  5-H ) :   0.9895
B(  4-C , 20-C ) :   1.0327 B(  6-C ,  7-H ) :   0.9350 B(  6-C ,  8-H ) :   0.9376
B(  6-C ,  9-C ) :   1.0760 B(  9-C , 10-H ) :   0.9534 B(  9-C , 11-H ) :   0.9539
B(  9-C , 12-C ) :   1.0701 B( 12-C , 13-H ) :   0.9709 B( 12-C , 14-H ) :   0.9698
B( 12-C , 15-H ) :   0.9767 B( 16-S , 17-C ) :   1.1515 B( 16-S , 20-C ) :   1.1309
B( 17-C , 18-C ) :   1.6138 B( 17-C , 33-H ) :   0.9701 B( 18-C , 19-C ) :   1.2633
B( 18-C , 21-H ) :   0.9825 B( 19-C , 20-C ) :   1.6046 B( 19-C , 22-C ) :   1.0256
B( 22-C , 23-H ) :   0.9350 B( 22-C , 24-H ) :   0.9296 B( 22-C , 25-C ) :   1.0515
B( 25-C , 26-H ) :   0.9546 B( 25-C , 27-H ) :   0.9553 B( 25-C , 28-C ) :   1.0735
B( 28-C , 29-H ) :   0.9794 B( 28-C , 30-H ) :   0.9740 B( 28-C , 31-H ) :   0.9746

Dispersion correction           -0.015061472
FINAL SINGLE POINT ENERGY     -1339.868054521918

DIPOLE MOMENT
-------------
                                X             Y             Z
Electronic contribution:     11.29493     -26.75729       6.77469
Nuclear contribution   :    -11.57011      27.30273      -6.55158
                        -----------------------------------------
Total Dipole Moment    :     -0.27518       0.54545       0.22310
                        -----------------------------------------
Magnitude (a.u.)       :      0.65039
Magnitude (Debye)      :      1.65317

Rotational constants in cm-1:     0.018465     0.009735     0.007276
Rotational constants in MHz :   553.552318   291.849428   218.124013

                             ****ORCA TERMINATED NORMALLY****
TOTAL RUN TIME: 0 days 0 hours 0 minutes 22 seconds 788 msec
