                         Program Version 4.2.1 -  RELEASE  -
|  1> ! wB97X-D3 SP def2-SVP
|  2> %pal
|  3> nprocs 24
|  4> end
|  5>
|  6> * xyz 0 1
|  7> S 	 -96.2025 	 13.855 	 -117.788
|  8> C 	 -94.5299 	 14.4674 	 -117.749
|  9> C 	 -93.6817 	 13.4825 	 -118.229
| 10> C 	 -94.3906 	 12.2465 	 -118.462
| 11> C 	 -95.7248 	 12.3791 	 -118.452
| 12> H 	 -93.8786 	 11.2815 	 -118.769
| 13> C 	 -92.1859 	 13.6085 	 -118.283
| 14> H 	 -91.9128 	 14.4776 	 -118.824
| 15> H 	 -91.7186 	 12.7611 	 -118.8
| 16> C 	 -91.5333 	 13.7326 	 -116.878
| 17> H 	 -90.4588 	 14.1528 	 -116.954
| 18> H 	 -92.0735 	 14.4719 	 -116.332
| 19> C 	 -91.4415 	 12.4765 	 -116.052
| 20> H 	 -90.9272 	 11.6605 	 -116.661
| 21> H 	 -90.7869 	 12.672 	 -115.232
| 22> H 	 -92.4176 	 12.1844 	 -115.585
| 23> S 	 -97.7256 	 10.8257 	 -117.495
| 24> C 	 -98.5813 	 9.81903 	 -118.68
| 25> C 	 -97.9892 	 9.82963 	 -119.926
| 26> C 	 -96.8509 	 10.6674 	 -120.017
| 27> C 	 -96.6891 	 11.38 	 -118.797
| 28> H 	 -98.3346 	 9.2353 	 -120.742
| 29> C 	 -95.9489 	 10.7976 	 -121.235
| 30> H 	 -95.997 	 9.93371 	 -121.944
| 31> H 	 -94.9267 	 10.8119 	 -120.879
| 32> C 	 -96.1646 	 12.0826 	 -121.985
| 33> H 	 -95.9866 	 12.8913 	 -121.207
| 34> H 	 -97.1898 	 12.2334 	 -122.29
| 35> C 	 -95.2664 	 12.2146 	 -123.196
| 36> H 	 -95.666 	 11.607 	 -124.007
| 37> H 	 -94.3257 	 11.8536 	 -122.906
| 38> H 	 -95.0718 	 13.248 	 -123.46
| 39> H 	 -94.2869 	 15.3957 	 -117.453
| 40> H 	 -99.5171 	 9.31867 	 -118.476
| 41> *
| 42>
| 43>                          ****END OF INPUT****

CARTESIAN COORDINATES (ANGSTROEM)
---------------------------------
  S    -96.202500   13.855000  -117.788000
  C    -94.529900   14.467400  -117.749000
  C    -93.681700   13.482500  -118.229000
  C    -94.390600   12.246500  -118.462000
  C    -95.724800   12.379100  -118.452000
  H    -93.878600   11.281500  -118.769000
  C    -92.185900   13.608500  -118.283000
  H    -91.912800   14.477600  -118.824000
  H    -91.718600   12.761100  -118.800000
  C    -91.533300   13.732600  -116.878000
  H    -90.458800   14.152800  -116.954000
  H    -92.073500   14.471900  -116.332000
  C    -91.441500   12.476500  -116.052000
  H    -90.927200   11.660500  -116.661000
  H    -90.786900   12.672000  -115.232000
  H    -92.417600   12.184400  -115.585000
  S    -97.725600   10.825700  -117.495000
  C    -98.581300    9.819030  -118.680000
  C    -97.989200    9.829630  -119.926000
  C    -96.850900   10.667400  -120.017000
  C    -96.689100   11.380000  -118.797000
  H    -98.334600    9.235300  -120.742000
  C    -95.948900   10.797600  -121.235000
  H    -95.997000    9.933710  -121.944000
  H    -94.926700   10.811900  -120.879000
  C    -96.164600   12.082600  -121.985000
  H    -95.986600   12.891300  -121.207000
  H    -97.189800   12.233400  -122.290000
  C    -95.266400   12.214600  -123.196000
  H    -95.666000   11.607000  -124.007000
  H    -94.325700   11.853600  -122.906000
  H    -95.071800   13.248000  -123.460000
  H    -94.286900   15.395700  -117.453000
  H    -99.517100    9.318670  -118.476000

 Total Charge           Charge          ....    0
 Multiplicity           Mult            ....    1
 Number of Electrons    NEL             ....  134
 Basis Dimension        Dim             ....  322

ORBITAL ENERGIES
----------------

  NO   OCC          E(Eh)            E(eV)
   0   2.0000     -88.969342     -2420.9789
   1   2.0000     -88.963158     -2420.8106
   2   2.0000     -10.324366      -280.9403
   3   2.0000     -10.317517      -280.7539
   4   2.0000     -10.316232      -280.7189
   5   2.0000     -10.308482      -280.5081
   6   2.0000     -10.305731      -280.4332
   7   2.0000     -10.302780      -280.3529
   8   2.0000     -10.292817      -280.0818
   9   2.0000     -10.292243      -280.0662
  10   2.0000     -10.291468      -280.0451
  11   2.0000     -10.289698      -279.9969
  12   2.0000     -10.288287      -279.9585
  13   2.0000     -10.279550      -279.7208
  14   2.0000     -10.278891      -279.7029
  15   2.0000     -10.268844      -279.4294
  16   2.0000      -8.083440      -219.9616
  17   2.0000      -8.078803      -219.8354
  18   2.0000      -6.041809      -164.4060
  19   2.0000      -6.038182      -164.3073
  20   2.0000      -6.037273      -164.2825
  21   2.0000      -6.034252      -164.2003
  22   2.0000      -6.033143      -164.1702
  23   2.0000      -6.029574      -164.0731
  24   2.0000      -1.013093       -27.5677
  25   2.0000      -0.982609       -26.7382
  26   2.0000      -0.914734       -24.8912
  27   2.0000      -0.913151       -24.8481
  28   2.0000      -0.870427       -23.6855
  29   2.0000      -0.852579       -23.1999
  30   2.0000      -0.845072       -22.9956
  31   2.0000      -0.815178       -22.1821
  32   2.0000      -0.786573       -21.4037
  33   2.0000      -0.771701       -20.9991
  34   2.0000      -0.707236       -19.2449
  35   2.0000      -0.696317       -18.9478
  36   2.0000      -0.687541       -18.7089
  37   2.0000      -0.662490       -18.0273
  38   2.0000      -0.646736       -17.5986
  39   2.0000      -0.615167       -16.7395
  40   2.0000      -0.599032       -16.3005
  41   2.0000      -0.573871       -15.6158
  42   2.0000      -0.568152       -15.4602
  43   2.0000      -0.550320       -14.9750
  44   2.0000      -0.543235       -14.7822
  45   2.0000      -0.523891       -14.2558
  46   2.0000      -0.514180       -13.9916
  47   2.0000      -0.512637       -13.9496
  48   2.0000      -0.505775       -13.7628
  49   2.0000      -0.499298       -13.5866
  50   2.0000      -0.493791       -13.4367
  51   2.0000      -0.482235       -13.1223
  52   2.0000      -0.468944       -12.7606
  53   2.0000      -0.464894       -12.6504
  54   2.0000      -0.457571       -12.4512
  55   2.0000      -0.450329       -12.2541
  56   2.0000      -0.440872       -11.9967
  57   2.0000      -0.434749       -11.8301
  58   2.0000      -0.432936       -11.7808
  59   2.0000      -0.427978       -11.6459
  60   2.0000      -0.424357       -11.5473
  61   2.0000      -0.415133       -11.2963
  62   2.0000      -0.408843       -11.1252
  63   2.0000      -0.341030        -9.2799
  64   2.0000      -0.330912        -9.0046
  65   2.0000      -0.328380        -8.9357
  66   2.0000      -0.294161        -8.0045
  67   0.0000       0.030187         0.8214
  68   0.0000       0.065915         1.7936
  69   0.0000       0.106366         2.8944
  70   0.0000       0.119655         3.2560
  71   0.0000       0.130663         3.5555

MULLIKEN ATOMIC CHARGES
-----------------------
   0 S :    0.110234
   1 C :   -0.088330
   2 C :   -0.087878
   3 C :    0.010800
   4 C :   -0.162707
   5 H :    0.041474
   6 C :    0.105624
   7 H :    0.022467
   8 H :    0.016596
   9 C :   -0.105840
  10 H :    0.033379
  11 H :    0.016097
  12 C :   -0.053295
  13 H :    0.034567
  14 H :    0.025874
  15 H :    0.051345
  16 S :    0.120858
  17 C :   -0.085049
  18 C :   -0.028304
  19 C :   -0.004062
  20 C :   -0.186977
  21 H :    0.007073
  22 C :    0.082921
  23 H :    0.023082
  24 H :    0.008831
  25 C :   -0.120065
  26 H :    0.043546
  27 H :    0.023491
  28 C :    0.021951
  29 H :    0.034757
  30 H :   -0.000148
  31 H :    0.031917
  32 H :    0.001475
  33 H :    0.054296
Sum of atomic charges:   -0.0000000

LOEWDIN ATOMIC CHARGES
----------------------
   0 S :    0.419275
   1 C :   -0.169561
   2 C :   -0.054322
   3 C :   -0.074209
   4 C :   -0.223658
   5 H :    0.041162
   6 C :   -0.031376
   7 H :    0.029740
   8 H :    0.028520
   9 C :   -0.043397
  10 H :    0.029902
  11 H :    0.015595
  12 C :   -0.072056
  13 H :    0.030789
  14 H :    0.023006
  15 H :    0.032872
  16 S :    0.403032
  17 C :   -0.179786
  18 C :   -0.064574
  19 C :   -0.044097
  20 C :   -0.199265
  21 H :    0.029139
  22 C :   -0.033679
  23 H :    0.031054
  24 H :    0.027227
  25 C :   -0.045149
  26 H :    0.032330
  27 H :    0.019132
  28 C :   -0.057689
  29 H :    0.027735
  30 H :    0.015247
  31 H :    0.029533
  32 H :    0.000807
  33 H :    0.026721

  Mayer bond orders larger than 0.100000
B(  0-S ,  1-C ) :   1.1288 B(  0-S ,  4-C ) :   1.1588 B(  1-C ,  2-C ) :   1.5957
B(  1-C , 32-H ) :   0.9913 B(  2-C ,  3-C ) :   1.2303 B(  2-C ,  6-C ) :   1.0344
B(  3-C ,  4-C ) :   1.5912 B(  3-C ,  5-H ) :   0.9775 B(  4-C , 20-C ) :   1.0253
B(  6-C ,  7-H ) :   0.9293 B(  6-C ,  8-H ) :   0.9439 B(  6-C ,  9-C ) :   1.0692
B(  9-C , 10-H ) :   0.9558 B(  9-C , 11-H ) :   0.9543 B(  9-C , 12-C ) :   1.0877
B( 12-C , 13-H ) :   0.9722 B( 12-C , 14-H ) :   0.9709 B( 12-C , 15-H ) :   0.9728
B( 16-S , 17-C ) :   1.1382 B( 16-S , 20-C ) :   1.1678 B( 17-C , 18-C ) :   1.6047
B( 17-C , 20-C ) :   0.1115 B( 17-C , 33-H ) :   0.9675 B( 18-C , 19-C ) :   1.2605
B( 18-C , 21-H ) :   0.9914 B( 19-C , 20-C ) :   1.5634 B( 19-C , 22-C ) :   1.0419
B( 22-C , 23-H ) :   0.9376 B( 22-C , 24-H ) :   0.9176 B( 22-C , 25-C ) :   1.0670
B( 25-C , 26-H ) :   0.9524 B( 25-C , 27-H ) :   0.9570 B( 25-C , 28-C ) :   1.0827
B( 28-C , 29-H ) :   0.9730 B( 28-C , 30-H ) :   0.9681 B( 28-C , 31-H ) :   0.9708

Dispersion correction           -0.014780406
FINAL SINGLE POINT ENERGY     -1339.877267371091

DIPOLE MOMENT
-------------
                                X             Y             Z
Electronic contribution:    -21.53077      -1.27209      11.46973
Nuclear contribution   :     22.00867       1.20543     -11.78286
                        -----------------------------------------
Total Dipole Moment    :      0.47790      -0.06666      -0.31313
                        -----------------------------------------
Magnitude (a.u.)       :      0.57522
Magnitude (Debye)      :      1.46210

Rotational constants in cm-1:     0.018406     0.009129     0.007375
Rotational constants in MHz :   551.810700   273.674468   221.092150

                             ****ORCA TERMINATED NORMALLY****
TOTAL RUN TIME: 0 days 0 hours 0 minutes 20 seconds 979 msec
