                         Program Version 4.2.1 -  RELEASE  -
|  1> ! wB97X-D3 SP def2-SVP
|  2> %pal
|  3> nprocs 24
|  4> end
|  5>
|  6> * xyz 0 1
|  7> S 	 28.443 	 -29.6303 	 -132.059
|  8> C 	 29.1896 	 -28.234 	 -132.941
|  9> C 	 29.6939 	 -27.2976 	 -132.055
| 10> C 	 29.5692 	 -27.7733 	 -130.696
| 11> C 	 28.912 	 -28.9866 	 -130.512
| 12> H 	 29.9458 	 -27.2151 	 -129.938
| 13> C 	 30.3813 	 -25.9688 	 -132.426
| 14> H 	 30.639 	 -26.0414 	 -133.502
| 15> H 	 31.3405 	 -25.9054 	 -131.894
| 16> C 	 29.6444 	 -24.7075 	 -132.376
| 17> H 	 28.8637 	 -24.7388 	 -133.181
| 18> H 	 29.1518 	 -24.6082 	 -131.407
| 19> C 	 30.5073 	 -23.4156 	 -132.52
| 20> H 	 31.1384 	 -23.4931 	 -133.474
| 21> H 	 29.8096 	 -22.5352 	 -132.777
| 22> H 	 31.1978 	 -23.2335 	 -131.632
| 23> S 	 28.9733 	 -31.4988 	 -129.54
| 24> C 	 28.6991 	 -31.8742 	 -127.877
| 25> C 	 28.5454 	 -30.703 	 -127.173
| 26> C 	 28.7597 	 -29.4996 	 -127.94
| 27> C 	 28.8814 	 -29.788 	 -129.303
| 28> H 	 28.2946 	 -30.7734 	 -126.108
| 29> C 	 28.6575 	 -28.1393 	 -127.337
| 30> H 	 29.6662 	 -27.7221 	 -127.393
| 31> H 	 28.5247 	 -28.2649 	 -126.272
| 32> C 	 27.5021 	 -27.2156 	 -127.834
| 33> H 	 26.5592 	 -27.6814 	 -127.513
| 34> H 	 27.5084 	 -27.2055 	 -128.874
| 35> C 	 27.619 	 -25.759 	 -127.49
| 36> H 	 28.599 	 -25.5406 	 -127.859
| 37> H 	 27.6442 	 -25.6461 	 -126.456
| 38> H 	 26.9633 	 -25.2083 	 -128.015
| 39> H 	 29.0205 	 -27.9782 	 -134.007
| 40> H 	 28.8753 	 -32.8281 	 -127.533
| 41> *
| 42>
| 43>                          ****END OF INPUT****

CARTESIAN COORDINATES (ANGSTROEM)
---------------------------------
  S     28.443000  -29.630300  -132.059000
  C     29.189600  -28.234000  -132.941000
  C     29.693900  -27.297600  -132.055000
  C     29.569200  -27.773300  -130.696000
  C     28.912000  -28.986600  -130.512000
  H     29.945800  -27.215100  -129.938000
  C     30.381300  -25.968800  -132.426000
  H     30.639000  -26.041400  -133.502000
  H     31.340500  -25.905400  -131.894000
  C     29.644400  -24.707500  -132.376000
  H     28.863700  -24.738800  -133.181000
  H     29.151800  -24.608200  -131.407000
  C     30.507300  -23.415600  -132.520000
  H     31.138400  -23.493100  -133.474000
  H     29.809600  -22.535200  -132.777000
  H     31.197800  -23.233500  -131.632000
  S     28.973300  -31.498800  -129.540000
  C     28.699100  -31.874200  -127.877000
  C     28.545400  -30.703000  -127.173000
  C     28.759700  -29.499600  -127.940000
  C     28.881400  -29.788000  -129.303000
  H     28.294600  -30.773400  -126.108000
  C     28.657500  -28.139300  -127.337000
  H     29.666200  -27.722100  -127.393000
  H     28.524700  -28.264900  -126.272000
  C     27.502100  -27.215600  -127.834000
  H     26.559200  -27.681400  -127.513000
  H     27.508400  -27.205500  -128.874000
  C     27.619000  -25.759000  -127.490000
  H     28.599000  -25.540600  -127.859000
  H     27.644200  -25.646100  -126.456000
  H     26.963300  -25.208300  -128.015000
  H     29.020500  -27.978200  -134.007000
  H     28.875300  -32.828100  -127.533000

 Total Charge           Charge          ....    0
 Multiplicity           Mult            ....    1
 Number of Electrons    NEL             ....  134
 Basis Dimension        Dim             ....  322

ORBITAL ENERGIES
----------------

  NO   OCC          E(Eh)            E(eV)
   0   2.0000     -88.969911     -2420.9944
   1   2.0000     -88.961780     -2420.7731
   2   2.0000     -10.335076      -281.2317
   3   2.0000     -10.328375      -281.0494
   4   2.0000     -10.322162      -280.8803
   5   2.0000     -10.309713      -280.5416
   6   2.0000     -10.307716      -280.4872
   7   2.0000     -10.305711      -280.4326
   8   2.0000     -10.300791      -280.2988
   9   2.0000     -10.297010      -280.1959
  10   2.0000     -10.295483      -280.1543
  11   2.0000     -10.290754      -280.0257
  12   2.0000     -10.289859      -280.0013
  13   2.0000     -10.289603      -279.9943
  14   2.0000     -10.276217      -279.6301
  15   2.0000     -10.260141      -279.1926
  16   2.0000      -8.083625      -219.9666
  17   2.0000      -8.077661      -219.8043
  18   2.0000      -6.042420      -164.4226
  19   2.0000      -6.038198      -164.3077
  20   2.0000      -6.036082      -164.2501
  21   2.0000      -6.034193      -164.1987
  22   2.0000      -6.031827      -164.1343
  23   2.0000      -6.028606      -164.0467
  24   2.0000      -1.010170       -27.4881
  25   2.0000      -0.982422       -26.7331
  26   2.0000      -0.919042       -25.0084
  27   2.0000      -0.913899       -24.8685
  28   2.0000      -0.872598       -23.7446
  29   2.0000      -0.861201       -23.4345
  30   2.0000      -0.842489       -22.9253
  31   2.0000      -0.815567       -22.1927
  32   2.0000      -0.784121       -21.3370
  33   2.0000      -0.775753       -21.1093
  34   2.0000      -0.711455       -19.3597
  35   2.0000      -0.696657       -18.9570
  36   2.0000      -0.693638       -18.8748
  37   2.0000      -0.668619       -18.1940
  38   2.0000      -0.637196       -17.3390
  39   2.0000      -0.627451       -17.0738
  40   2.0000      -0.598350       -16.2819
  41   2.0000      -0.575855       -15.6698
  42   2.0000      -0.572339       -15.5741
  43   2.0000      -0.564744       -15.3675
  44   2.0000      -0.539336       -14.6761
  45   2.0000      -0.525630       -14.3031
  46   2.0000      -0.522527       -14.2187
  47   2.0000      -0.516722       -14.0607
  48   2.0000      -0.505997       -13.7689
  49   2.0000      -0.500908       -13.6304
  50   2.0000      -0.496759       -13.5175
  51   2.0000      -0.488831       -13.3018
  52   2.0000      -0.467786       -12.7291
  53   2.0000      -0.464779       -12.6473
  54   2.0000      -0.458789       -12.4843
  55   2.0000      -0.447497       -12.1770
  56   2.0000      -0.443060       -12.0563
  57   2.0000      -0.436171       -11.8688
  58   2.0000      -0.431499       -11.7417
  59   2.0000      -0.426341       -11.6013
  60   2.0000      -0.420405       -11.4398
  61   2.0000      -0.412657       -11.2290
  62   2.0000      -0.412537       -11.2257
  63   2.0000      -0.359057        -9.7704
  64   2.0000      -0.333420        -9.0728
  65   2.0000      -0.329388        -8.9631
  66   2.0000      -0.285939        -7.7808
  67   0.0000       0.020206         0.5498
  68   0.0000       0.075791         2.0624
  69   0.0000       0.106342         2.8937
  70   0.0000       0.117869         3.2074
  71   0.0000       0.124168         3.3788

MULLIKEN ATOMIC CHARGES
-----------------------
   0 S :    0.098528
   1 C :   -0.134551
   2 C :   -0.088283
   3 C :    0.055795
   4 C :   -0.099364
   5 H :   -0.045239
   6 C :    0.051888
   7 H :    0.015914
   8 H :    0.033498
   9 C :   -0.060280
  10 H :    0.033142
  11 H :    0.025131
  12 C :   -0.112700
  13 H :    0.035573
  14 H :    0.054665
  15 H :    0.058952
  16 S :    0.091963
  17 C :   -0.067595
  18 C :   -0.042969
  19 C :   -0.046807
  20 C :   -0.137168
  21 H :    0.028038
  22 C :    0.055866
  23 H :    0.030504
  24 H :    0.005380
  25 C :   -0.075678
  26 H :    0.027714
  27 H :    0.017203
  28 C :    0.065997
  29 H :   -0.002650
  30 H :    0.014423
  31 H :    0.013072
  32 H :    0.063088
  33 H :    0.036950
Sum of atomic charges:    0.0000000

LOEWDIN ATOMIC CHARGES
----------------------
   0 S :    0.388400
   1 C :   -0.188299
   2 C :   -0.055080
   3 C :   -0.055785
   4 C :   -0.188496
   5 H :    0.007516
   6 C :   -0.039688
   7 H :    0.033960
   8 H :    0.033195
   9 C :   -0.050913
  10 H :    0.029539
  11 H :    0.020538
  12 C :   -0.080850
  13 H :    0.027603
  14 H :    0.038765
  15 H :    0.034025
  16 S :    0.423421
  17 C :   -0.183476
  18 C :   -0.069609
  19 C :   -0.058670
  20 C :   -0.196695
  21 H :    0.034618
  22 C :   -0.037502
  23 H :    0.031525
  24 H :    0.028080
  25 C :   -0.030683
  26 H :    0.024330
  27 H :    0.013905
  28 C :   -0.038293
  29 H :    0.023436
  30 H :    0.016348
  31 H :    0.013922
  32 H :    0.036468
  33 H :    0.014448

  Mayer bond orders larger than 0.100000
B(  0-S ,  1-C ) :   1.1170 B(  0-S ,  4-C ) :   1.1439 B(  1-C ,  2-C ) :   1.6338
B(  1-C , 32-H ) :   0.9555 B(  2-C ,  3-C ) :   1.2521 B(  2-C ,  6-C ) :   1.0187
B(  3-C ,  4-C ) :   1.5335 B(  3-C ,  5-H ) :   1.0068 B(  4-C , 20-C ) :   1.0771
B(  6-C ,  7-H ) :   0.9345 B(  6-C ,  8-H ) :   0.9420 B(  6-C ,  9-C ) :   1.0731
B(  9-C , 10-H ) :   0.9519 B(  9-C , 11-H ) :   0.9536 B(  9-C , 12-C ) :   1.0733
B( 12-C , 13-H ) :   0.9736 B( 12-C , 14-H ) :   0.9734 B( 12-C , 15-H ) :   0.9724
B( 16-S , 17-C ) :   1.1629 B( 16-S , 20-C ) :   1.1600 B( 17-C , 18-C ) :   1.5737
B( 17-C , 33-H ) :   0.9822 B( 18-C , 19-C ) :   1.2718 B( 18-C , 21-H ) :   0.9872
B( 19-C , 20-C ) :   1.5398 B( 19-C , 22-C ) :   1.0559 B( 22-C , 23-H ) :   0.9245
B( 22-C , 24-H ) :   0.9251 B( 22-C , 25-C ) :   1.0568 B( 25-C , 26-H ) :   0.9515
B( 25-C , 27-H ) :   0.9597 B( 25-C , 28-C ) :   1.0823 B( 28-C , 29-H ) :   0.9692
B( 28-C , 30-H ) :   0.9751 B( 28-C , 31-H ) :   0.9691

Dispersion correction           -0.014297604
FINAL SINGLE POINT ENERGY     -1339.859759507618

DIPOLE MOMENT
-------------
                                X             Y             Z
Electronic contribution:     -2.19897     -32.27606      -3.90001
Nuclear contribution   :      2.33726      32.90335       4.14902
                        -----------------------------------------
Total Dipole Moment    :      0.13829       0.62729       0.24901
                        -----------------------------------------
Magnitude (a.u.)       :      0.68893
Magnitude (Debye)      :      1.75112

Rotational constants in cm-1:     0.019662     0.008769     0.006496
Rotational constants in MHz :   589.458196   262.893961   194.751482

                             ****ORCA TERMINATED NORMALLY****
TOTAL RUN TIME: 0 days 0 hours 0 minutes 20 seconds 935 msec
