                         Program Version 4.2.1 -  RELEASE  -
|  1> ! wB97X-D3 SP def2-SVP
|  2> %pal
|  3> nprocs 24
|  4> end
|  5>
|  6> * xyz 0 1
|  7> S 	 -117.149 	 49.603 	 -119.605
|  8> C 	 -116.487 	 47.9801 	 -119.708
|  9> C 	 -115.894 	 47.5056 	 -118.551
| 10> C 	 -116.02 	 48.4567 	 -117.521
| 11> C 	 -116.724 	 49.565 	 -117.914
| 12> H 	 -115.745 	 48.3579 	 -116.47
| 13> C 	 -115.331 	 46.1566 	 -118.337
| 14> H 	 -115.48 	 45.5905 	 -119.277
| 15> H 	 -115.962 	 45.7381 	 -117.601
| 16> C 	 -113.923 	 46.074 	 -117.63
| 17> H 	 -113.912 	 46.5564 	 -116.696
| 18> H 	 -113.771 	 45.0806 	 -117.284
| 19> C 	 -112.731 	 46.5005 	 -118.538
| 20> H 	 -112.753 	 47.5181 	 -118.811
| 21> H 	 -111.861 	 46.4662 	 -117.904
| 22> H 	 -112.587 	 45.8716 	 -119.432
| 23> S 	 -115.918 	 52.0464 	 -116.93
| 24> C 	 -117.175 	 52.9738 	 -116.105
| 25> C 	 -118.332 	 52.2227 	 -115.769
| 26> C 	 -118.254 	 50.9102 	 -116.289
| 27> C 	 -117.108 	 50.7553 	 -117.075
| 28> H 	 -119.131 	 52.6545 	 -115.271
| 29> C 	 -119.438 	 50.0579 	 -116.332
| 30> H 	 -119.459 	 49.3322 	 -117.17
| 31> H 	 -120.199 	 50.7487 	 -116.667
| 32> C 	 -119.991 	 49.4512 	 -114.964
| 33> H 	 -120.715 	 48.7188 	 -115.191
| 34> H 	 -120.418 	 50.1997 	 -114.334
| 35> C 	 -118.833 	 48.6874 	 -114.214
| 36> H 	 -118.005 	 49.2291 	 -113.904
| 37> H 	 -118.48 	 47.9959 	 -114.987
| 38> H 	 -119.106 	 48.2309 	 -113.271
| 39> H 	 -116.513 	 47.4024 	 -120.614
| 40> H 	 -117.085 	 54.0464 	 -116.12
| 41> *
| 42>
| 43>                          ****END OF INPUT****

CARTESIAN COORDINATES (ANGSTROEM)
---------------------------------
  S    -117.149000   49.603000  -119.605000
  C    -116.487000   47.980100  -119.708000
  C    -115.894000   47.505600  -118.551000
  C    -116.020000   48.456700  -117.521000
  C    -116.724000   49.565000  -117.914000
  H    -115.745000   48.357900  -116.470000
  C    -115.331000   46.156600  -118.337000
  H    -115.480000   45.590500  -119.277000
  H    -115.962000   45.738100  -117.601000
  C    -113.923000   46.074000  -117.630000
  H    -113.912000   46.556400  -116.696000
  H    -113.771000   45.080600  -117.284000
  C    -112.731000   46.500500  -118.538000
  H    -112.753000   47.518100  -118.811000
  H    -111.861000   46.466200  -117.904000
  H    -112.587000   45.871600  -119.432000
  S    -115.918000   52.046400  -116.930000
  C    -117.175000   52.973800  -116.105000
  C    -118.332000   52.222700  -115.769000
  C    -118.254000   50.910200  -116.289000
  C    -117.108000   50.755300  -117.075000
  H    -119.131000   52.654500  -115.271000
  C    -119.438000   50.057900  -116.332000
  H    -119.459000   49.332200  -117.170000
  H    -120.199000   50.748700  -116.667000
  C    -119.991000   49.451200  -114.964000
  H    -120.715000   48.718800  -115.191000
  H    -120.418000   50.199700  -114.334000
  C    -118.833000   48.687400  -114.214000
  H    -118.005000   49.229100  -113.904000
  H    -118.480000   47.995900  -114.987000
  H    -119.106000   48.230900  -113.271000
  H    -116.513000   47.402400  -120.614000
  H    -117.085000   54.046400  -116.120000

 Total Charge           Charge          ....    0
 Multiplicity           Mult            ....    1
 Number of Electrons    NEL             ....  134
 Basis Dimension        Dim             ....  322

ORBITAL ENERGIES
----------------

  NO   OCC          E(Eh)            E(eV)
   0   2.0000     -88.965974     -2420.8872
   1   2.0000     -88.965423     -2420.8722
   2   2.0000     -10.323252      -280.9100
   3   2.0000     -10.323035      -280.9041
   4   2.0000     -10.318732      -280.7870
   5   2.0000     -10.307569      -280.4832
   6   2.0000     -10.299793      -280.2716
   7   2.0000     -10.294601      -280.1303
   8   2.0000     -10.292970      -280.0860
   9   2.0000     -10.290001      -280.0052
  10   2.0000     -10.288994      -279.9778
  11   2.0000     -10.288238      -279.9572
  12   2.0000     -10.287967      -279.9498
  13   2.0000     -10.286569      -279.9118
  14   2.0000     -10.272329      -279.5243
  15   2.0000     -10.268495      -279.4200
  16   2.0000      -8.080637      -219.8853
  17   2.0000      -8.079888      -219.8649
  18   2.0000      -6.038922      -164.3274
  19   2.0000      -6.038145      -164.3063
  20   2.0000      -6.035399      -164.2316
  21   2.0000      -6.034669      -164.2117
  22   2.0000      -6.031408      -164.1230
  23   2.0000      -6.030718      -164.1042
  24   2.0000      -1.002657       -27.2837
  25   2.0000      -0.981657       -26.7122
  26   2.0000      -0.909348       -24.7446
  27   2.0000      -0.904748       -24.6194
  28   2.0000      -0.858786       -23.3687
  29   2.0000      -0.850656       -23.1475
  30   2.0000      -0.846943       -23.0465
  31   2.0000      -0.810866       -22.0648
  32   2.0000      -0.784855       -21.3570
  33   2.0000      -0.769976       -20.9521
  34   2.0000      -0.714526       -19.4433
  35   2.0000      -0.706721       -19.2309
  36   2.0000      -0.685740       -18.6599
  37   2.0000      -0.664620       -18.0852
  38   2.0000      -0.639120       -17.3913
  39   2.0000      -0.617393       -16.8001
  40   2.0000      -0.594587       -16.1795
  41   2.0000      -0.562126       -15.2962
  42   2.0000      -0.554469       -15.0879
  43   2.0000      -0.548911       -14.9366
  44   2.0000      -0.539479       -14.6800
  45   2.0000      -0.536130       -14.5888
  46   2.0000      -0.521955       -14.2031
  47   2.0000      -0.513529       -13.9738
  48   2.0000      -0.489237       -13.3128
  49   2.0000      -0.487024       -13.2526
  50   2.0000      -0.485074       -13.1995
  51   2.0000      -0.475231       -12.9317
  52   2.0000      -0.464983       -12.6528
  53   2.0000      -0.461901       -12.5690
  54   2.0000      -0.456487       -12.4216
  55   2.0000      -0.451324       -12.2812
  56   2.0000      -0.446911       -12.1611
  57   2.0000      -0.441278       -12.0078
  58   2.0000      -0.437848       -11.9144
  59   2.0000      -0.427233       -11.6256
  60   2.0000      -0.424321       -11.5464
  61   2.0000      -0.421745       -11.4763
  62   2.0000      -0.416099       -11.3226
  63   2.0000      -0.335978        -9.1424
  64   2.0000      -0.329123        -8.9559
  65   2.0000      -0.309731        -8.4282
  66   2.0000      -0.303511        -8.2589
  67   0.0000       0.043355         1.1797
  68   0.0000       0.055650         1.5143
  69   0.0000       0.108666         2.9570
  70   0.0000       0.116684         3.1751
  71   0.0000       0.121344         3.3020

MULLIKEN ATOMIC CHARGES
-----------------------
   0 S :    0.121516
   1 C :   -0.131069
   2 C :   -0.062578
   3 C :    0.037503
   4 C :   -0.197069
   5 H :    0.016724
   6 C :    0.082522
   7 H :    0.022002
   8 H :    0.024290
   9 C :   -0.051693
  10 H :    0.013189
  11 H :    0.013448
  12 C :   -0.028345
  13 H :    0.029125
  14 H :    0.020227
  15 H :    0.039889
  16 S :    0.115410
  17 C :   -0.104449
  18 C :   -0.009549
  19 C :    0.051974
  20 C :   -0.206919
  21 H :   -0.001478
  22 C :    0.001257
  23 H :    0.036104
  24 H :    0.027762
  25 C :   -0.031929
  26 H :    0.028128
  27 H :    0.025347
  28 C :   -0.055192
  29 H :    0.021854
  30 H :    0.031068
  31 H :    0.027932
  32 H :    0.031606
  33 H :    0.061392
Sum of atomic charges:    0.0000000

LOEWDIN ATOMIC CHARGES
----------------------
   0 S :    0.405330
   1 C :   -0.198350
   2 C :   -0.063799
   3 C :   -0.063908
   4 C :   -0.194544
   5 H :    0.035070
   6 C :   -0.028658
   7 H :    0.033709
   8 H :    0.032118
   9 C :   -0.030713
  10 H :    0.019494
  11 H :    0.021916
  12 C :   -0.061337
  13 H :    0.020910
  14 H :    0.024994
  15 H :    0.028975
  16 S :    0.393681
  17 C :   -0.174147
  18 C :   -0.052155
  19 C :   -0.055366
  20 C :   -0.202774
  21 H :    0.020854
  22 C :   -0.038714
  23 H :    0.034876
  24 H :    0.036055
  25 C :   -0.021996
  26 H :    0.022499
  27 H :    0.015889
  28 C :   -0.067322
  29 H :    0.014509
  30 H :    0.028695
  31 H :    0.023956
  32 H :    0.018816
  33 H :    0.021437

  Mayer bond orders larger than 0.100000
B(  0-S ,  1-C ) :   1.1302 B(  0-S ,  4-C ) :   1.1600 B(  1-C ,  2-C ) :   1.6239
B(  1-C , 32-H ) :   0.9648 B(  2-C ,  3-C ) :   1.2066 B(  2-C ,  6-C ) :   1.0319
B(  3-C ,  4-C ) :   1.6274 B(  3-C ,  5-H ) :   0.9926 B(  4-C , 20-C ) :   0.9736
B(  6-C ,  7-H ) :   0.9426 B(  6-C ,  8-H ) :   0.9262 B(  6-C ,  9-C ) :   1.0747
B(  9-C , 10-H ) :   0.9498 B(  9-C , 11-H ) :   0.9528 B(  9-C , 12-C ) :   1.0734
B( 12-C , 13-H ) :   0.9777 B( 12-C , 14-H ) :   0.9720 B( 12-C , 15-H ) :   0.9777
B( 16-S , 17-C ) :   1.1546 B( 16-S , 20-C ) :   1.1551 B( 17-C , 18-C ) :   1.6034
B( 17-C , 20-C ) :   0.1022 B( 17-C , 33-H ) :   0.9692 B( 18-C , 19-C ) :   1.2187
B( 18-C , 21-H ) :   1.0018 B( 19-C , 20-C ) :   1.5882 B( 19-C , 22-C ) :   1.0496
B( 22-C , 23-H ) :   0.9377 B( 22-C , 24-H ) :   0.9385 B( 22-C , 25-C ) :   1.0619
B( 25-C , 26-H ) :   0.9585 B( 25-C , 27-H ) :   0.9600 B( 25-C , 28-C ) :   1.0695
B( 28-C , 29-H ) :   0.9743 B( 28-C , 30-H ) :   0.9778 B( 28-C , 31-H ) :   0.9755

Dispersion correction           -0.015076985
FINAL SINGLE POINT ENERGY     -1339.855561311975

DIPOLE MOMENT
-------------
                                X             Y             Z
Electronic contribution:     -0.93374      19.34732     -10.38056
Nuclear contribution   :      0.73666     -19.68878      10.64836
                        -----------------------------------------
Total Dipole Moment    :     -0.19709      -0.34146       0.26780
                        -----------------------------------------
Magnitude (a.u.)       :      0.47661
Magnitude (Debye)      :      1.21145

Rotational constants in cm-1:     0.019259     0.008451     0.007570
Rotational constants in MHz :   577.356482   253.362955   226.940298

                             ****ORCA TERMINATED NORMALLY****
TOTAL RUN TIME: 0 days 0 hours 0 minutes 21 seconds 934 msec
