                         Program Version 4.2.1 -  RELEASE  -
|  1> ! wB97X-D3 SP def2-SVP
|  2> %pal
|  3> nprocs 24
|  4> end
|  5>
|  6> * xyz 0 1
|  7> S 	 -84.3432 	 3.82405 	 -114.302
|  8> C 	 -84.287 	 2.54546 	 -113.037
|  9> C 	 -85.4279 	 1.69824 	 -113.186
| 10> C 	 -86.2562 	 2.05772 	 -114.329
| 11> C 	 -85.8693 	 3.17593 	 -114.968
| 12> H 	 -87.1973 	 1.50054 	 -114.649
| 13> C 	 -85.6783 	 0.460065 	 -112.433
| 14> H 	 -84.7654 	 -0.168757 	 -112.354
| 15> H 	 -86.4309 	 -0.219015 	 -112.88
| 16> C 	 -86.1176 	 0.743902 	 -111.018
| 17> H 	 -85.9181 	 -0.218906 	 -110.457
| 18> H 	 -85.6072 	 1.56617 	 -110.555
| 19> C 	 -87.602 	 1.07588 	 -110.984
| 20> H 	 -88.213 	 0.492298 	 -111.659
| 21> H 	 -88.0112 	 0.878047 	 -110.002
| 22> H 	 -87.7604 	 2.16229 	 -111.154
| 23> S 	 -87.1127 	 2.67874 	 -117.361
| 24> C 	 -87.7444 	 4.06782 	 -118.216
| 25> C 	 -87.6144 	 5.3085 	 -117.613
| 26> C 	 -86.8288 	 5.1596 	 -116.44
| 27> C 	 -86.5919 	 3.81922 	 -116.094
| 28> H 	 -88.0739 	 6.20597 	 -117.987
| 29> C 	 -86.4376 	 6.31886 	 -115.555
| 30> H 	 -86.2802 	 7.13145 	 -116.289
| 31> H 	 -85.319 	 6.16057 	 -115.219
| 32> C 	 -87.3729 	 6.74104 	 -114.354
| 33> H 	 -86.972 	 7.45464 	 -113.625
| 34> H 	 -87.5364 	 5.85849 	 -113.814
| 35> C 	 -88.7384 	 7.18988 	 -114.953
| 36> H 	 -89.5184 	 7.2501 	 -114.193
| 37> H 	 -89.0471 	 6.49637 	 -115.754
| 38> H 	 -88.5532 	 8.16144 	 -115.501
| 39> H 	 -83.5377 	 2.51979 	 -112.267
| 40> H 	 -88.3997 	 4.05188 	 -119.081
| 41> *
| 42>
| 43>                          ****END OF INPUT****

CARTESIAN COORDINATES (ANGSTROEM)
---------------------------------
  S    -84.343200    3.824050  -114.302000
  C    -84.287000    2.545460  -113.037000
  C    -85.427900    1.698240  -113.186000
  C    -86.256200    2.057720  -114.329000
  C    -85.869300    3.175930  -114.968000
  H    -87.197300    1.500540  -114.649000
  C    -85.678300    0.460065  -112.433000
  H    -84.765400   -0.168757  -112.354000
  H    -86.430900   -0.219015  -112.880000
  C    -86.117600    0.743902  -111.018000
  H    -85.918100   -0.218906  -110.457000
  H    -85.607200    1.566170  -110.555000
  C    -87.602000    1.075880  -110.984000
  H    -88.213000    0.492298  -111.659000
  H    -88.011200    0.878047  -110.002000
  H    -87.760400    2.162290  -111.154000
  S    -87.112700    2.678740  -117.361000
  C    -87.744400    4.067820  -118.216000
  C    -87.614400    5.308500  -117.613000
  C    -86.828800    5.159600  -116.440000
  C    -86.591900    3.819220  -116.094000
  H    -88.073900    6.205970  -117.987000
  C    -86.437600    6.318860  -115.555000
  H    -86.280200    7.131450  -116.289000
  H    -85.319000    6.160570  -115.219000
  C    -87.372900    6.741040  -114.354000
  H    -86.972000    7.454640  -113.625000
  H    -87.536400    5.858490  -113.814000
  C    -88.738400    7.189880  -114.953000
  H    -89.518400    7.250100  -114.193000
  H    -89.047100    6.496370  -115.754000
  H    -88.553200    8.161440  -115.501000
  H    -83.537700    2.519790  -112.267000
  H    -88.399700    4.051880  -119.081000

 Total Charge           Charge          ....    0
 Multiplicity           Mult            ....    1
 Number of Electrons    NEL             ....  134
 Basis Dimension        Dim             ....  322

ORBITAL ENERGIES
----------------

  NO   OCC          E(Eh)            E(eV)
   0   2.0000     -88.974053     -2421.1071
   1   2.0000     -88.966527     -2420.9023
   2   2.0000     -10.332140      -281.1518
   3   2.0000     -10.331865      -281.1443
   4   2.0000     -10.323221      -280.9091
   5   2.0000     -10.317848      -280.7629
   6   2.0000     -10.308210      -280.5007
   7   2.0000     -10.306784      -280.4619
   8   2.0000     -10.299469      -280.2628
   9   2.0000     -10.297933      -280.2210
  10   2.0000     -10.296513      -280.1824
  11   2.0000     -10.288739      -279.9708
  12   2.0000     -10.286130      -279.8998
  13   2.0000     -10.283963      -279.8409
  14   2.0000     -10.280864      -279.7565
  15   2.0000     -10.272773      -279.5364
  16   2.0000      -8.087878      -220.0823
  17   2.0000      -8.079540      -219.8554
  18   2.0000      -6.046361      -164.5299
  19   2.0000      -6.042680      -164.4297
  20   2.0000      -6.038556      -164.3175
  21   2.0000      -6.038293      -164.3103
  22   2.0000      -6.034255      -164.2004
  23   2.0000      -6.030179      -164.0895
  24   2.0000      -1.001487       -27.2519
  25   2.0000      -0.977763       -26.6063
  26   2.0000      -0.918240       -24.9866
  27   2.0000      -0.901826       -24.5399
  28   2.0000      -0.866349       -23.5745
  29   2.0000      -0.848939       -23.1008
  30   2.0000      -0.840814       -22.8797
  31   2.0000      -0.814481       -22.1631
  32   2.0000      -0.777335       -21.1524
  33   2.0000      -0.763673       -20.7806
  34   2.0000      -0.709171       -19.2975
  35   2.0000      -0.700860       -19.0714
  36   2.0000      -0.685649       -18.6575
  37   2.0000      -0.666477       -18.1358
  38   2.0000      -0.637196       -17.3390
  39   2.0000      -0.612898       -16.6778
  40   2.0000      -0.587872       -15.9968
  41   2.0000      -0.578154       -15.7324
  42   2.0000      -0.550679       -14.9847
  43   2.0000      -0.547909       -14.9094
  44   2.0000      -0.537716       -14.6320
  45   2.0000      -0.532881       -14.5004
  46   2.0000      -0.520549       -14.1648
  47   2.0000      -0.514403       -13.9976
  48   2.0000      -0.493746       -13.4355
  49   2.0000      -0.489525       -13.3207
  50   2.0000      -0.481226       -13.0948
  51   2.0000      -0.474058       -12.8998
  52   2.0000      -0.469148       -12.7662
  53   2.0000      -0.466377       -12.6908
  54   2.0000      -0.460929       -12.5425
  55   2.0000      -0.445948       -12.1348
  56   2.0000      -0.440004       -11.9731
  57   2.0000      -0.438802       -11.9404
  58   2.0000      -0.436231       -11.8704
  59   2.0000      -0.422411       -11.4944
  60   2.0000      -0.419942       -11.4272
  61   2.0000      -0.413256       -11.2453
  62   2.0000      -0.406175       -11.0526
  63   2.0000      -0.348805        -9.4915
  64   2.0000      -0.337679        -9.1887
  65   2.0000      -0.325750        -8.8641
  66   2.0000      -0.287336        -7.8188
  67   0.0000       0.022602         0.6150
  68   0.0000       0.068393         1.8611
  69   0.0000       0.096776         2.6334
  70   0.0000       0.108080         2.9410
  71   0.0000       0.117923         3.2089

MULLIKEN ATOMIC CHARGES
-----------------------
   0 S :    0.089216
   1 C :   -0.120039
   2 C :   -0.064123
   3 C :   -0.026662
   4 C :   -0.094792
   5 H :    0.044716
   6 C :    0.031929
   7 H :    0.038643
   8 H :    0.028670
   9 C :   -0.082361
  10 H :    0.032489
  11 H :    0.030576
  12 C :   -0.051448
  13 H :    0.019109
  14 H :    0.025432
  15 H :    0.043796
  16 S :    0.118035
  17 C :   -0.070844
  18 C :   -0.045611
  19 C :   -0.061054
  20 C :   -0.150966
  21 H :    0.024380
  22 C :   -0.019835
  23 H :    0.020847
  24 H :    0.049030
  25 C :    0.008388
  26 H :    0.040850
  27 H :    0.020881
  28 C :   -0.090260
  29 H :    0.042038
  30 H :    0.037465
  31 H :    0.031888
  32 H :    0.050973
  33 H :    0.048643
Sum of atomic charges:   -0.0000000

LOEWDIN ATOMIC CHARGES
----------------------
   0 S :    0.377995
   1 C :   -0.182586
   2 C :   -0.053655
   3 C :   -0.081529
   4 C :   -0.180774
   5 H :    0.043049
   6 C :   -0.043039
   7 H :    0.036286
   8 H :    0.032417
   9 C :   -0.040452
  10 H :    0.027339
  11 H :    0.021951
  12 C :   -0.067622
  13 H :    0.018463
  14 H :    0.024023
  15 H :    0.032038
  16 S :    0.406355
  17 C :   -0.183516
  18 C :   -0.067689
  19 C :   -0.060053
  20 C :   -0.181061
  21 H :    0.034293
  22 C :   -0.049285
  23 H :    0.027340
  24 H :    0.032622
  25 C :   -0.030437
  26 H :    0.028853
  27 H :    0.018513
  28 C :   -0.070872
  29 H :    0.024400
  30 H :    0.027237
  31 H :    0.027923
  32 H :    0.024937
  33 H :    0.026534

  Mayer bond orders larger than 0.100000
B(  0-S ,  1-C ) :   1.1192 B(  0-S ,  4-C ) :   1.1240 B(  1-C ,  2-C ) :   1.6062
B(  1-C , 32-H ) :   0.9735 B(  2-C ,  3-C ) :   1.2217 B(  2-C ,  6-C ) :   1.0291
B(  3-C ,  4-C ) :   1.6024 B(  3-C ,  5-H ) :   0.9774 B(  4-C , 20-C ) :   1.0358
B(  6-C ,  7-H ) :   0.9401 B(  6-C ,  8-H ) :   0.9505 B(  6-C ,  9-C ) :   1.0673
B(  9-C , 10-H ) :   0.9563 B(  9-C , 11-H ) :   0.9600 B(  9-C , 12-C ) :   1.0758
B( 12-C , 13-H ) :   0.9763 B( 12-C , 14-H ) :   0.9742 B( 12-C , 15-H ) :   0.9748
B( 16-S , 17-C ) :   1.1535 B( 16-S , 20-C ) :   1.1332 B( 17-C , 18-C ) :   1.6318
B( 17-C , 33-H ) :   0.9567 B( 18-C , 19-C ) :   1.2311 B( 18-C , 21-H ) :   0.9866
B( 19-C , 20-C ) :   1.5915 B( 19-C , 22-C ) :   1.0453 B( 22-C , 23-H ) :   0.9358
B( 22-C , 24-H ) :   0.9321 B( 22-C , 25-C ) :   1.0392 B( 25-C , 26-H ) :   0.9599
B( 25-C , 27-H ) :   0.9561 B( 25-C , 28-C ) :   1.0658 B( 28-C , 29-H ) :   0.9739
B( 28-C , 30-H ) :   0.9749 B( 28-C , 31-H ) :   0.9769

Dispersion correction           -0.014836090
FINAL SINGLE POINT ENERGY     -1339.869458525953

DIPOLE MOMENT
-------------
                                X             Y             Z
Electronic contribution:     10.62508      -3.74497     -17.45684
Nuclear contribution   :    -10.93412       3.71457      17.76313
                        -----------------------------------------
Total Dipole Moment    :     -0.30904      -0.03041       0.30629
                        -----------------------------------------
Magnitude (a.u.)       :      0.43617
Magnitude (Debye)      :      1.10865

Rotational constants in cm-1:     0.019789     0.008336     0.007567
Rotational constants in MHz :   593.273276   249.897099   226.849222

                             ****ORCA TERMINATED NORMALLY****
TOTAL RUN TIME: 0 days 0 hours 0 minutes 20 seconds 685 msec
