                         Program Version 4.2.1 -  RELEASE  -
|  1> ! wB97X-D3 SP def2-SVP
|  2> %pal
|  3> nprocs 24
|  4> end
|  5>
|  6> * xyz 0 1
|  7> S 	 -125.32 	 61.7506 	 -56.5124
|  8> C 	 -123.955 	 61.4259 	 -55.5142
|  9> C 	 -124.381 	 61.2973 	 -54.246
| 10> C 	 -125.805 	 61.3501 	 -54.0665
| 11> C 	 -126.48 	 61.5565 	 -55.2441
| 12> H 	 -126.335 	 61.1503 	 -53.1357
| 13> C 	 -123.491 	 61.0637 	 -53.0716
| 14> H 	 -122.437 	 60.8079 	 -53.5451
| 15> H 	 -123.815 	 60.2247 	 -52.4493
| 16> C 	 -123.236 	 62.3476 	 -52.2129
| 17> H 	 -124.168 	 62.7529 	 -51.8253
| 18> H 	 -122.518 	 62.0759 	 -51.4016
| 19> C 	 -122.736 	 63.61 	 -53
| 20> H 	 -123.638 	 64.0145 	 -53.4461
| 21> H 	 -122.372 	 64.3094 	 -52.2571
| 22> H 	 -121.998 	 63.3684 	 -53.7017
| 23> S 	 -128.355 	 60.3694 	 -56.702
| 24> C 	 -129.961 	 60.9105 	 -56.572
| 25> C 	 -130.126 	 61.7917 	 -55.5267
| 26> C 	 -128.91 	 62.1203 	 -54.8283
| 27> C 	 -127.879 	 61.5537 	 -55.4589
| 28> H 	 -131.12 	 62.0836 	 -55.2899
| 29> C 	 -128.85 	 63.0123 	 -53.5983
| 30> H 	 -129.335 	 63.8987 	 -53.7567
| 31> H 	 -127.832 	 63.2771 	 -53.454
| 32> C 	 -129.326 	 62.3696 	 -52.2736
| 33> H 	 -128.502 	 61.6269 	 -51.9146
| 34> H 	 -130.243 	 61.8809 	 -52.4078
| 35> C 	 -129.581 	 63.3489 	 -51.0965
| 36> H 	 -128.631 	 63.8163 	 -50.7835
| 37> H 	 -129.848 	 62.7899 	 -50.2215
| 38> H 	 -130.151 	 64.2296 	 -51.3615
| 39> H 	 -122.94 	 61.2917 	 -55.7798
| 40> H 	 -130.787 	 60.5416 	 -57.113
| 41> *
| 42>
| 43>                          ****END OF INPUT****

CARTESIAN COORDINATES (ANGSTROEM)
---------------------------------
  S    -125.320000   61.750600  -56.512400
  C    -123.955000   61.425900  -55.514200
  C    -124.381000   61.297300  -54.246000
  C    -125.805000   61.350100  -54.066500
  C    -126.480000   61.556500  -55.244100
  H    -126.335000   61.150300  -53.135700
  C    -123.491000   61.063700  -53.071600
  H    -122.437000   60.807900  -53.545100
  H    -123.815000   60.224700  -52.449300
  C    -123.236000   62.347600  -52.212900
  H    -124.168000   62.752900  -51.825300
  H    -122.518000   62.075900  -51.401600
  C    -122.736000   63.610000  -53.000000
  H    -123.638000   64.014500  -53.446100
  H    -122.372000   64.309400  -52.257100
  H    -121.998000   63.368400  -53.701700
  S    -128.355000   60.369400  -56.702000
  C    -129.961000   60.910500  -56.572000
  C    -130.126000   61.791700  -55.526700
  C    -128.910000   62.120300  -54.828300
  C    -127.879000   61.553700  -55.458900
  H    -131.120000   62.083600  -55.289900
  C    -128.850000   63.012300  -53.598300
  H    -129.335000   63.898700  -53.756700
  H    -127.832000   63.277100  -53.454000
  C    -129.326000   62.369600  -52.273600
  H    -128.502000   61.626900  -51.914600
  H    -130.243000   61.880900  -52.407800
  C    -129.581000   63.348900  -51.096500
  H    -128.631000   63.816300  -50.783500
  H    -129.848000   62.789900  -50.221500
  H    -130.151000   64.229600  -51.361500
  H    -122.940000   61.291700  -55.779800
  H    -130.787000   60.541600  -57.113000

 Total Charge           Charge          ....    0
 Multiplicity           Mult            ....    1
 Number of Electrons    NEL             ....  134
 Basis Dimension        Dim             ....  322

ORBITAL ENERGIES
----------------

  NO   OCC          E(Eh)            E(eV)
   0   2.0000     -88.962884     -2420.8031
   1   2.0000     -88.962159     -2420.7834
   2   2.0000     -10.323094      -280.9057
   3   2.0000     -10.320048      -280.8228
   4   2.0000     -10.309282      -280.5298
   5   2.0000     -10.305199      -280.4187
   6   2.0000     -10.303113      -280.3619
   7   2.0000     -10.298796      -280.2445
   8   2.0000     -10.294567      -280.1294
   9   2.0000     -10.292357      -280.0693
  10   2.0000     -10.290816      -280.0273
  11   2.0000     -10.289662      -279.9959
  12   2.0000     -10.289465      -279.9906
  13   2.0000     -10.285838      -279.8919
  14   2.0000     -10.280435      -279.7449
  15   2.0000     -10.270562      -279.4762
  16   2.0000      -8.078529      -219.8279
  17   2.0000      -8.077840      -219.8092
  18   2.0000      -6.037011      -164.2754
  19   2.0000      -6.036431      -164.2596
  20   2.0000      -6.033045      -164.1675
  21   2.0000      -6.032073      -164.1411
  22   2.0000      -6.029096      -164.0600
  23   2.0000      -6.028560      -164.0455
  24   2.0000      -1.017787       -27.6954
  25   2.0000      -0.992910       -27.0185
  26   2.0000      -0.911799       -24.8113
  27   2.0000      -0.908709       -24.7272
  28   2.0000      -0.875679       -23.8284
  29   2.0000      -0.856022       -23.2935
  30   2.0000      -0.842939       -22.9375
  31   2.0000      -0.816394       -22.2152
  32   2.0000      -0.790654       -21.5148
  33   2.0000      -0.775312       -21.0973
  34   2.0000      -0.712786       -19.3959
  35   2.0000      -0.701572       -19.0907
  36   2.0000      -0.690484       -18.7890
  37   2.0000      -0.666021       -18.1234
  38   2.0000      -0.641014       -17.4429
  39   2.0000      -0.620152       -16.8752
  40   2.0000      -0.601200       -16.3595
  41   2.0000      -0.573083       -15.5944
  42   2.0000      -0.568075       -15.4581
  43   2.0000      -0.548473       -14.9247
  44   2.0000      -0.545122       -14.8335
  45   2.0000      -0.534232       -14.5372
  46   2.0000      -0.520072       -14.1519
  47   2.0000      -0.517760       -14.0890
  48   2.0000      -0.511936       -13.9305
  49   2.0000      -0.508784       -13.8447
  50   2.0000      -0.491842       -13.3837
  51   2.0000      -0.477408       -12.9909
  52   2.0000      -0.473531       -12.8854
  53   2.0000      -0.461242       -12.5510
  54   2.0000      -0.458129       -12.4663
  55   2.0000      -0.452317       -12.3082
  56   2.0000      -0.440236       -11.9794
  57   2.0000      -0.436633       -11.8814
  58   2.0000      -0.435264       -11.8441
  59   2.0000      -0.426809       -11.6141
  60   2.0000      -0.420784       -11.4501
  61   2.0000      -0.413298       -11.2464
  62   2.0000      -0.409712       -11.1488
  63   2.0000      -0.349946        -9.5225
  64   2.0000      -0.335388        -9.1264
  65   2.0000      -0.323740        -8.8094
  66   2.0000      -0.298199        -8.1144
  67   0.0000       0.033325         0.9068
  68   0.0000       0.077810         2.1173
  69   0.0000       0.109856         2.9893
  70   0.0000       0.124335         3.3833
  71   0.0000       0.124767         3.3951

MULLIKEN ATOMIC CHARGES
-----------------------
   0 S :    0.113749
   1 C :   -0.094398
   2 C :   -0.094301
   3 C :    0.031718
   4 C :   -0.154795
   5 H :    0.006166
   6 C :    0.031914
   7 H :    0.024548
   8 H :    0.041864
   9 C :   -0.106147
  10 H :    0.024406
  11 H :    0.043152
  12 C :   -0.033407
  13 H :    0.042832
  14 H :    0.035144
  15 H :    0.020092
  16 S :    0.113989
  17 C :   -0.057997
  18 C :   -0.042673
  19 C :   -0.012365
  20 C :   -0.168724
  21 H :   -0.000945
  22 C :    0.149902
  23 H :   -0.001514
  24 H :    0.004795
  25 C :   -0.105196
  26 H :    0.044129
  27 H :    0.025197
  28 C :   -0.035265
  29 H :    0.013574
  30 H :    0.038991
  31 H :    0.033906
  32 H :    0.029621
  33 H :    0.038039
Sum of atomic charges:   -0.0000000

LOEWDIN ATOMIC CHARGES
----------------------
   0 S :    0.422403
   1 C :   -0.200322
   2 C :   -0.074352
   3 C :   -0.067169
   4 C :   -0.202891
   5 H :    0.030210
   6 C :   -0.037352
   7 H :    0.035014
   8 H :    0.031123
   9 C :   -0.041804
  10 H :    0.019769
  11 H :    0.025114
  12 C :   -0.056437
  13 H :    0.028566
  14 H :    0.028318
  15 H :    0.011748
  16 S :    0.411957
  17 C :   -0.188826
  18 C :   -0.067297
  19 C :   -0.046089
  20 C :   -0.182594
  21 H :    0.023156
  22 C :   -0.018695
  23 H :    0.018657
  24 H :    0.027062
  25 C :   -0.033680
  26 H :    0.033216
  27 H :    0.013916
  28 C :   -0.068112
  29 H :    0.024459
  30 H :    0.028242
  31 H :    0.024562
  32 H :    0.026208
  33 H :    0.021919

  Mayer bond orders larger than 0.100000
B(  0-S ,  1-C ) :   1.1228 B(  0-S ,  4-C ) :   1.1611 B(  1-C ,  2-C ) :   1.6205
B(  1-C , 32-H ) :   0.9720 B(  2-C ,  3-C ) :   1.2290 B(  2-C ,  6-C ) :   1.0305
B(  3-C ,  4-C ) :   1.5583 B(  3-C ,  5-H ) :   0.9980 B(  4-C , 20-C ) :   1.0432
B(  6-C ,  7-H ) :   0.9428 B(  6-C ,  8-H ) :   0.9448 B(  6-C ,  9-C ) :   1.0605
B(  9-C , 10-H ) :   0.9623 B(  9-C , 11-H ) :   0.9630 B(  9-C , 12-C ) :   1.0644
B( 12-C , 13-H ) :   0.9772 B( 12-C , 14-H ) :   0.9744 B( 12-C , 15-H ) :   0.9800
B( 16-S , 17-C ) :   1.1471 B( 16-S , 20-C ) :   1.1329 B( 17-C , 18-C ) :   1.6381
B( 17-C , 33-H ) :   0.9711 B( 18-C , 19-C ) :   1.1818 B( 18-C , 21-H ) :   0.9964
B( 19-C , 20-C ) :   1.6536 B( 19-C , 22-C ) :   1.0515 B( 22-C , 23-H ) :   0.9279
B( 22-C , 24-H ) :   0.9188 B( 22-C , 25-C ) :   1.0603 B( 25-C , 26-H ) :   0.9521
B( 25-C , 27-H ) :   0.9619 B( 25-C , 28-C ) :   1.0841 B( 28-C , 29-H ) :   0.9719
B( 28-C , 30-H ) :   0.9728 B( 28-C , 31-H ) :   0.9742

Dispersion correction           -0.014559769
FINAL SINGLE POINT ENERGY     -1339.869627930552

DIPOLE MOMENT
-------------
                                X             Y             Z
Electronic contribution:     -4.91385     -11.26889     -27.09509
Nuclear contribution   :      4.76148      11.38590      27.76203
                        -----------------------------------------
Total Dipole Moment    :     -0.15238       0.11701       0.66694
                        -----------------------------------------
Magnitude (a.u.)       :      0.69406
Magnitude (Debye)      :      1.76416

Rotational constants in cm-1:     0.017270     0.009916     0.006816
Rotational constants in MHz :   517.750626   297.269638   204.329519

                             ****ORCA TERMINATED NORMALLY****
TOTAL RUN TIME: 0 days 0 hours 0 minutes 20 seconds 950 msec
