                         Program Version 4.2.1 -  RELEASE  -
|  1> ! wB97X-D3 SP def2-SVP
|  2> %pal
|  3> nprocs 24
|  4> end
|  5>
|  6> * xyz 0 1
|  7> S 	 -47.1163 	 15.2457 	 25.1501
|  8> C 	 -48.107 	 13.8343 	 24.8149
|  9> C 	 -47.426 	 12.7713 	 24.2707
| 10> C 	 -46.0801 	 13.1166 	 24.0928
| 11> C 	 -45.6404 	 14.3369 	 24.6089
| 12> H 	 -45.3533 	 12.6152 	 23.5488
| 13> C 	 -48.0779 	 11.5205 	 23.693
| 14> H 	 -47.197 	 10.8675 	 23.4445
| 15> H 	 -48.5943 	 11.7073 	 22.6771
| 16> C 	 -48.9598 	 10.6685 	 24.5762
| 17> H 	 -48.5678 	 10.382 	 25.5638
| 18> H 	 -49.8954 	 11.2398 	 24.6462
| 19> C 	 -49.377 	 9.32595 	 23.8831
| 20> H 	 -49.8556 	 9.31619 	 22.9136
| 21> H 	 -48.4682 	 8.79528 	 23.5878
| 22> H 	 -49.8378 	 8.59045 	 24.5156
| 23> S 	 -44.3776 	 16.6596 	 23.9365
| 24> C 	 -42.6467 	 16.632 	 23.7538
| 25> C 	 -42.0373 	 15.407 	 24.039
| 26> C 	 -43.0359 	 14.4962 	 24.4639
| 27> C 	 -44.3425 	 14.9622 	 24.4073
| 28> H 	 -40.9822 	 15.3203 	 23.8261
| 29> C 	 -42.6822 	 13.0428 	 24.805
| 30> H 	 -41.6861 	 12.8269 	 24.5425
| 31> H 	 -43.2665 	 12.4882 	 24.0768
| 32> C 	 -42.9578 	 12.641 	 26.2102
| 33> H 	 -42.7403 	 11.5556 	 26.3625
| 34> H 	 -44.0158 	 12.743 	 26.3821
| 35> C 	 -42.3305 	 13.4893 	 27.3529
| 36> H 	 -41.4364 	 13.8713 	 26.936
| 37> H 	 -42.1826 	 12.8691 	 28.2409
| 38> H 	 -43.0376 	 14.256 	 27.6812
| 39> H 	 -49.0964 	 13.5859 	 25.0996
| 40> H 	 -42.2155 	 17.5455 	 23.3223
| 41> *
| 42>
| 43>                          ****END OF INPUT****

CARTESIAN COORDINATES (ANGSTROEM)
---------------------------------
  S    -47.116300   15.245700   25.150100
  C    -48.107000   13.834300   24.814900
  C    -47.426000   12.771300   24.270700
  C    -46.080100   13.116600   24.092800
  C    -45.640400   14.336900   24.608900
  H    -45.353300   12.615200   23.548800
  C    -48.077900   11.520500   23.693000
  H    -47.197000   10.867500   23.444500
  H    -48.594300   11.707300   22.677100
  C    -48.959800   10.668500   24.576200
  H    -48.567800   10.382000   25.563800
  H    -49.895400   11.239800   24.646200
  C    -49.377000    9.325950   23.883100
  H    -49.855600    9.316190   22.913600
  H    -48.468200    8.795280   23.587800
  H    -49.837800    8.590450   24.515600
  S    -44.377600   16.659600   23.936500
  C    -42.646700   16.632000   23.753800
  C    -42.037300   15.407000   24.039000
  C    -43.035900   14.496200   24.463900
  C    -44.342500   14.962200   24.407300
  H    -40.982200   15.320300   23.826100
  C    -42.682200   13.042800   24.805000
  H    -41.686100   12.826900   24.542500
  H    -43.266500   12.488200   24.076800
  C    -42.957800   12.641000   26.210200
  H    -42.740300   11.555600   26.362500
  H    -44.015800   12.743000   26.382100
  C    -42.330500   13.489300   27.352900
  H    -41.436400   13.871300   26.936000
  H    -42.182600   12.869100   28.240900
  H    -43.037600   14.256000   27.681200
  H    -49.096400   13.585900   25.099600
  H    -42.215500   17.545500   23.322300

 Total Charge           Charge          ....    0
 Multiplicity           Mult            ....    1
 Number of Electrons    NEL             ....  134
 Basis Dimension        Dim             ....  322

ORBITAL ENERGIES
----------------

  NO   OCC          E(Eh)            E(eV)
   0   2.0000     -88.971593     -2421.0401
   1   2.0000     -88.966627     -2420.9050
   2   2.0000     -10.335387      -281.2402
   3   2.0000     -10.328110      -281.0422
   4   2.0000     -10.320908      -280.8462
   5   2.0000     -10.311206      -280.5822
   6   2.0000     -10.306379      -280.4508
   7   2.0000     -10.304475      -280.3990
   8   2.0000     -10.299491      -280.2634
   9   2.0000     -10.298894      -280.2471
  10   2.0000     -10.296344      -280.1778
  11   2.0000     -10.289154      -279.9821
  12   2.0000     -10.284058      -279.8434
  13   2.0000     -10.278706      -279.6978
  14   2.0000     -10.276539      -279.6389
  15   2.0000     -10.269196      -279.4390
  16   2.0000      -8.084745      -219.9971
  17   2.0000      -8.081687      -219.9139
  18   2.0000      -6.043429      -164.4501
  19   2.0000      -6.040008      -164.3570
  20   2.0000      -6.039564      -164.3449
  21   2.0000      -6.036220      -164.2539
  22   2.0000      -6.035327      -164.2296
  23   2.0000      -6.032567      -164.1545
  24   2.0000      -1.005878       -27.3713
  25   2.0000      -0.983577       -26.7645
  26   2.0000      -0.911719       -24.8091
  27   2.0000      -0.910779       -24.7836
  28   2.0000      -0.870884       -23.6980
  29   2.0000      -0.851707       -23.1761
  30   2.0000      -0.846075       -23.0229
  31   2.0000      -0.813546       -22.1377
  32   2.0000      -0.786699       -21.4072
  33   2.0000      -0.774873       -21.0854
  34   2.0000      -0.712429       -19.3862
  35   2.0000      -0.704230       -19.1631
  36   2.0000      -0.685259       -18.6469
  37   2.0000      -0.669093       -18.2070
  38   2.0000      -0.639250       -17.3949
  39   2.0000      -0.616195       -16.7675
  40   2.0000      -0.592537       -16.1237
  41   2.0000      -0.573592       -15.6082
  42   2.0000      -0.567599       -15.4452
  43   2.0000      -0.558940       -15.2095
  44   2.0000      -0.545424       -14.8417
  45   2.0000      -0.525577       -14.3017
  46   2.0000      -0.521803       -14.1990
  47   2.0000      -0.505700       -13.7608
  48   2.0000      -0.499456       -13.5909
  49   2.0000      -0.495093       -13.4722
  50   2.0000      -0.488257       -13.2862
  51   2.0000      -0.473205       -12.8766
  52   2.0000      -0.472754       -12.8643
  53   2.0000      -0.467059       -12.7093
  54   2.0000      -0.456104       -12.4112
  55   2.0000      -0.452810       -12.3216
  56   2.0000      -0.448295       -12.1987
  57   2.0000      -0.443169       -12.0592
  58   2.0000      -0.436630       -11.8813
  59   2.0000      -0.428063       -11.6482
  60   2.0000      -0.409905       -11.1541
  61   2.0000      -0.407357       -11.0848
  62   2.0000      -0.404717       -11.0129
  63   2.0000      -0.354846        -9.6559
  64   2.0000      -0.338152        -9.2016
  65   2.0000      -0.333566        -9.0768
  66   2.0000      -0.281908        -7.6711
  67   0.0000       0.019855         0.5403
  68   0.0000       0.065484         1.7819
  69   0.0000       0.097202         2.6450
  70   0.0000       0.122186         3.3249
  71   0.0000       0.131473         3.5776

MULLIKEN ATOMIC CHARGES
-----------------------
   0 S :    0.103481
   1 C :   -0.079185
   2 C :   -0.060471
   3 C :    0.037227
   4 C :   -0.134010
   5 H :   -0.020557
   6 C :    0.002900
   7 H :    0.022218
   8 H :    0.065039
   9 C :   -0.063779
  10 H :    0.046021
  11 H :    0.036635
  12 C :   -0.055483
  13 H :    0.027284
  14 H :    0.006858
  15 H :    0.033486
  16 S :    0.100499
  17 C :   -0.117698
  18 C :   -0.026341
  19 C :   -0.064821
  20 C :   -0.150798
  21 H :    0.028368
  22 C :    0.120546
  23 H :   -0.004979
  24 H :    0.020805
  25 C :   -0.097094
  26 H :    0.031661
  27 H :    0.028667
  28 C :   -0.022467
  29 H :    0.019763
  30 H :    0.032255
  31 H :    0.040643
  32 H :    0.027224
  33 H :    0.066105
Sum of atomic charges:   -0.0000000

LOEWDIN ATOMIC CHARGES
----------------------
   0 S :    0.377776
   1 C :   -0.183692
   2 C :   -0.071859
   3 C :   -0.051517
   4 C :   -0.173721
   5 H :    0.016963
   6 C :   -0.040827
   7 H :    0.030697
   8 H :    0.047078
   9 C :   -0.040560
  10 H :    0.032870
  11 H :    0.024332
  12 C :   -0.075250
  13 H :    0.024870
  14 H :    0.023313
  15 H :    0.025437
  16 S :    0.406090
  17 C :   -0.179391
  18 C :   -0.072819
  19 C :   -0.051880
  20 C :   -0.198244
  21 H :    0.038400
  22 C :   -0.028221
  23 H :    0.019421
  24 H :    0.032076
  25 C :   -0.047672
  26 H :    0.026364
  27 H :    0.022094
  28 C :   -0.058187
  29 H :    0.016686
  30 H :    0.028784
  31 H :    0.030779
  32 H :    0.023136
  33 H :    0.026673

  Mayer bond orders larger than 0.100000
B(  0-S ,  1-C ) :   1.1393 B(  0-S ,  4-C ) :   1.1182 B(  1-C ,  2-C ) :   1.6156
B(  1-C ,  4-C ) :   0.1014 B(  1-C , 32-H ) :   0.9594 B(  2-C ,  3-C ) :   1.2605
B(  2-C ,  6-C ) :   1.0060 B(  3-C ,  4-C ) :   1.5652 B(  3-C ,  5-H ) :   0.9943
B(  4-C , 20-C ) :   1.0762 B(  6-C ,  7-H ) :   0.9454 B(  6-C ,  8-H ) :   0.9399
B(  6-C ,  9-C ) :   1.0641 B(  9-C , 10-H ) :   0.9583 B(  9-C , 11-H ) :   0.9526
B(  9-C , 12-C ) :   1.0741 B( 12-C , 13-H ) :   0.9747 B( 12-C , 14-H ) :   0.9693
B( 12-C , 15-H ) :   0.9766 B( 16-S , 17-C ) :   1.1822 B( 16-S , 20-C ) :   1.1328
B( 17-C , 18-C ) :   1.5781 B( 17-C , 20-C ) :   0.1027 B( 17-C , 33-H ) :   0.9647
B( 18-C , 19-C ) :   1.2361 B( 18-C , 21-H ) :   1.0014 B( 19-C , 20-C ) :   1.5898
B( 19-C , 22-C ) :   1.0202 B( 22-C , 23-H ) :   0.9267 B( 22-C , 24-H ) :   0.9350
B( 22-C , 25-C ) :   1.0847 B( 25-C , 26-H ) :   0.9573 B( 25-C , 27-H ) :   0.9562
B( 25-C , 28-C ) :   1.0643 B( 28-C , 29-H ) :   0.9828 B( 28-C , 30-H ) :   0.9750
B( 28-C , 31-H ) :   0.9759

Dispersion correction           -0.014321548
FINAL SINGLE POINT ENERGY     -1339.857974513470

DIPOLE MOMENT
-------------
                                X             Y             Z
Electronic contribution:      1.25339      27.38699      -4.04368
Nuclear contribution   :     -1.08722     -28.00573       3.76176
                        -----------------------------------------
Total Dipole Moment    :      0.16617      -0.61874      -0.28192
                        -----------------------------------------
Magnitude (a.u.)       :      0.69995
Magnitude (Debye)      :      1.77913

Rotational constants in cm-1:     0.021443     0.007741     0.006490
Rotational constants in MHz :   642.856397   232.067549   194.551353

                             ****ORCA TERMINATED NORMALLY****
TOTAL RUN TIME: 0 days 0 hours 0 minutes 21 seconds 590 msec
