                         Program Version 4.2.1 -  RELEASE  -
|  1> ! wB97X-D3 SP def2-SVP
|  2> %pal
|  3> nprocs 24
|  4> end
|  5>
|  6> * xyz 0 1
|  7> S 	 -132.548 	 28.0441 	 -26.8842
|  8> C 	 -133.312 	 26.5833 	 -27.3943
|  9> C 	 -132.904 	 25.4715 	 -26.6939
| 10> C 	 -132.014 	 25.8302 	 -25.6355
| 11> C 	 -131.772 	 27.1946 	 -25.5823
| 12> H 	 -131.585 	 25.1141 	 -24.9799
| 13> C 	 -133.396 	 24.0656 	 -26.9656
| 14> H 	 -132.575 	 23.451 	 -26.7686
| 15> H 	 -133.567 	 23.9692 	 -28.0014
| 16> C 	 -134.658 	 23.7294 	 -26.1849
| 17> H 	 -134.546 	 24.2499 	 -25.2034
| 18> H 	 -135.385 	 24.2474 	 -26.7324
| 19> C 	 -135.003 	 22.2194 	 -26.0945
| 20> H 	 -135.031 	 21.9552 	 -27.117
| 21> H 	 -134.208 	 21.6509 	 -25.6647
| 22> H 	 -136.028 	 22.0245 	 -25.6104
| 23> S 	 -129.658 	 29.031 	 -25.2706
| 24> C 	 -128.811 	 29.1808 	 -23.7521
| 25> C 	 -129.505 	 28.4908 	 -22.7962
| 26> C 	 -130.647 	 27.7584 	 -23.2645
| 27> C 	 -130.905 	 27.8984 	 -24.6684
| 28> H 	 -129.129 	 28.4552 	 -21.76
| 29> C 	 -131.428 	 26.8466 	 -22.3393
| 30> H 	 -132.254 	 26.3482 	 -22.8697
| 31> H 	 -131.908 	 27.4813 	 -21.6517
| 32> C 	 -130.48 	 25.7493 	 -21.7404
| 33> H 	 -129.821 	 26.058 	 -20.9573
| 34> H 	 -129.846 	 25.3501 	 -22.5107
| 35> C 	 -131.194 	 24.5783 	 -21.062
| 36> H 	 -131.575 	 23.9277 	 -21.8199
| 37> H 	 -131.995 	 24.9701 	 -20.4013
| 38> H 	 -130.601 	 24.0095 	 -20.3782
| 39> H 	 -134.125 	 26.492 	 -28.1635
| 40> H 	 -127.837 	 29.527 	 -23.5181
| 41> *
| 42>
| 43>                          ****END OF INPUT****

CARTESIAN COORDINATES (ANGSTROEM)
---------------------------------
  S    -132.548000   28.044100  -26.884200
  C    -133.312000   26.583300  -27.394300
  C    -132.904000   25.471500  -26.693900
  C    -132.014000   25.830200  -25.635500
  C    -131.772000   27.194600  -25.582300
  H    -131.585000   25.114100  -24.979900
  C    -133.396000   24.065600  -26.965600
  H    -132.575000   23.451000  -26.768600
  H    -133.567000   23.969200  -28.001400
  C    -134.658000   23.729400  -26.184900
  H    -134.546000   24.249900  -25.203400
  H    -135.385000   24.247400  -26.732400
  C    -135.003000   22.219400  -26.094500
  H    -135.031000   21.955200  -27.117000
  H    -134.208000   21.650900  -25.664700
  H    -136.028000   22.024500  -25.610400
  S    -129.658000   29.031000  -25.270600
  C    -128.811000   29.180800  -23.752100
  C    -129.505000   28.490800  -22.796200
  C    -130.647000   27.758400  -23.264500
  C    -130.905000   27.898400  -24.668400
  H    -129.129000   28.455200  -21.760000
  C    -131.428000   26.846600  -22.339300
  H    -132.254000   26.348200  -22.869700
  H    -131.908000   27.481300  -21.651700
  C    -130.480000   25.749300  -21.740400
  H    -129.821000   26.058000  -20.957300
  H    -129.846000   25.350100  -22.510700
  C    -131.194000   24.578300  -21.062000
  H    -131.575000   23.927700  -21.819900
  H    -131.995000   24.970100  -20.401300
  H    -130.601000   24.009500  -20.378200
  H    -134.125000   26.492000  -28.163500
  H    -127.837000   29.527000  -23.518100

 Total Charge           Charge          ....    0
 Multiplicity           Mult            ....    1
 Number of Electrons    NEL             ....  134
 Basis Dimension        Dim             ....  322

ORBITAL ENERGIES
----------------

  NO   OCC          E(Eh)            E(eV)
   0   2.0000     -88.969611     -2420.9862
   1   2.0000     -88.963024     -2420.8070
   2   2.0000     -10.332506      -281.1618
   3   2.0000     -10.332018      -281.1485
   4   2.0000     -10.315042      -280.6866
   5   2.0000     -10.313754      -280.6515
   6   2.0000     -10.307126      -280.4712
   7   2.0000     -10.298306      -280.2312
   8   2.0000     -10.294849      -280.1371
   9   2.0000     -10.293270      -280.0941
  10   2.0000     -10.290694      -280.0240
  11   2.0000     -10.284634      -279.8591
  12   2.0000     -10.284192      -279.8471
  13   2.0000     -10.283001      -279.8147
  14   2.0000     -10.282946      -279.8132
  15   2.0000     -10.274398      -279.5806
  16   2.0000      -8.084903      -220.0014
  17   2.0000      -8.077178      -219.7912
  18   2.0000      -6.043339      -164.4476
  19   2.0000      -6.039379      -164.3399
  20   2.0000      -6.035846      -164.2437
  21   2.0000      -6.035667      -164.2389
  22   2.0000      -6.031627      -164.1289
  23   2.0000      -6.027905      -164.0276
  24   2.0000      -1.007995       -27.4289
  25   2.0000      -0.982918       -26.7466
  26   2.0000      -0.919045       -25.0085
  27   2.0000      -0.906628       -24.6706
  28   2.0000      -0.871517       -23.7152
  29   2.0000      -0.854155       -23.2427
  30   2.0000      -0.845947       -23.0194
  31   2.0000      -0.817061       -22.2334
  32   2.0000      -0.785391       -21.3716
  33   2.0000      -0.769145       -20.9295
  34   2.0000      -0.708946       -19.2914
  35   2.0000      -0.705412       -19.1952
  36   2.0000      -0.702349       -19.1119
  37   2.0000      -0.656412       -17.8619
  38   2.0000      -0.637050       -17.3350
  39   2.0000      -0.626059       -17.0359
  40   2.0000      -0.593017       -16.1368
  41   2.0000      -0.571408       -15.5488
  42   2.0000      -0.569134       -15.4869
  43   2.0000      -0.567471       -15.4417
  44   2.0000      -0.527761       -14.3611
  45   2.0000      -0.524740       -14.2789
  46   2.0000      -0.522242       -14.2109
  47   2.0000      -0.512345       -13.9416
  48   2.0000      -0.509726       -13.8703
  49   2.0000      -0.499554       -13.5935
  50   2.0000      -0.498115       -13.5544
  51   2.0000      -0.482920       -13.1409
  52   2.0000      -0.471793       -12.8381
  53   2.0000      -0.464834       -12.6488
  54   2.0000      -0.461098       -12.5471
  55   2.0000      -0.450360       -12.2549
  56   2.0000      -0.446559       -12.1515
  57   2.0000      -0.437693       -11.9102
  58   2.0000      -0.432685       -11.7739
  59   2.0000      -0.427573       -11.6349
  60   2.0000      -0.423284       -11.5181
  61   2.0000      -0.419354       -11.4112
  62   2.0000      -0.408527       -11.1166
  63   2.0000      -0.354208        -9.6385
  64   2.0000      -0.334972        -9.1151
  65   2.0000      -0.325992        -8.8707
  66   2.0000      -0.285305        -7.7635
  67   0.0000       0.026863         0.7310
  68   0.0000       0.067801         1.8450
  69   0.0000       0.111487         3.0337
  70   0.0000       0.125513         3.4154
  71   0.0000       0.127695         3.4748

MULLIKEN ATOMIC CHARGES
-----------------------
   0 S :    0.127512
   1 C :   -0.125451
   2 C :   -0.142060
   3 C :    0.041626
   4 C :   -0.151383
   5 H :   -0.004367
   6 C :    0.114561
   7 H :    0.001723
   8 H :    0.008010
   9 C :   -0.063092
  10 H :    0.035836
  11 H :    0.008787
  12 C :   -0.025390
  13 H :    0.016508
  14 H :    0.031338
  15 H :    0.057719
  16 S :    0.089224
  17 C :   -0.065698
  18 C :   -0.051077
  19 C :   -0.076123
  20 C :   -0.122637
  21 H :    0.028499
  22 C :    0.111699
  23 H :    0.019491
  24 H :    0.023903
  25 C :   -0.088449
  26 H :    0.023211
  27 H :    0.031749
  28 C :   -0.043448
  29 H :    0.027063
  30 H :    0.028676
  31 H :    0.024803
  32 H :    0.057443
  33 H :    0.049794
Sum of atomic charges:   -0.0000000

LOEWDIN ATOMIC CHARGES
----------------------
   0 S :    0.425953
   1 C :   -0.213227
   2 C :   -0.060523
   3 C :   -0.055382
   4 C :   -0.194076
   5 H :    0.025936
   6 C :   -0.024059
   7 H :    0.020185
   8 H :    0.023517
   9 C :   -0.035675
  10 H :    0.025499
  11 H :    0.016640
  12 C :   -0.063021
  13 H :    0.020452
  14 H :    0.021406
  15 H :    0.040425
  16 S :    0.389028
  17 C :   -0.184495
  18 C :   -0.077041
  19 C :   -0.052730
  20 C :   -0.194783
  21 H :    0.035068
  22 C :   -0.025767
  23 H :    0.031156
  24 H :    0.027378
  25 C :   -0.039334
  26 H :    0.020618
  27 H :    0.023004
  28 C :   -0.063858
  29 H :    0.018405
  30 H :    0.028665
  31 H :    0.021806
  32 H :    0.037034
  33 H :    0.031798

  Mayer bond orders larger than 0.100000
B(  0-S ,  1-C ) :   1.1394 B(  0-S ,  4-C ) :   1.1600 B(  1-C ,  2-C ) :   1.6232
B(  1-C , 32-H ) :   0.9565 B(  2-C ,  3-C ) :   1.2542 B(  2-C ,  6-C ) :   1.0278
B(  3-C ,  4-C ) :   1.5418 B(  3-C ,  5-H ) :   1.0024 B(  4-C , 20-C ) :   1.0597
B(  6-C ,  7-H ) :   0.9329 B(  6-C ,  8-H ) :   0.9318 B(  6-C ,  9-C ) :   1.0476
B(  9-C , 10-H ) :   0.9627 B(  9-C , 11-H ) :   0.9542 B(  9-C , 12-C ) :   1.0684
B( 12-C , 13-H ) :   0.9711 B( 12-C , 14-H ) :   0.9789 B( 12-C , 15-H ) :   0.9740
B( 16-S , 17-C ) :   1.1536 B( 16-S , 20-C ) :   1.1247 B( 17-C , 18-C ) :   1.6052
B( 17-C , 20-C ) :   0.1009 B( 17-C , 33-H ) :   0.9685 B( 18-C , 19-C ) :   1.2564
B( 18-C , 21-H ) :   0.9845 B( 19-C , 20-C ) :   1.5628 B( 19-C , 22-C ) :   1.0507
B( 22-C , 23-H ) :   0.9420 B( 22-C , 24-H ) :   0.9247 B( 22-C , 25-C ) :   1.0437
B( 25-C , 26-H ) :   0.9547 B( 25-C , 27-H ) :   0.9631 B( 25-C , 28-C ) :   1.0909
B( 28-C , 29-H ) :   0.9778 B( 28-C , 30-H ) :   0.9713 B( 28-C , 31-H ) :   0.9763

Dispersion correction           -0.014023846
FINAL SINGLE POINT ENERGY     -1339.871179478074

DIPOLE MOMENT
-------------
                                X             Y             Z
Electronic contribution:     10.66851      27.94654     -13.45366
Nuclear contribution   :    -10.74477     -28.66381      13.83504
                        -----------------------------------------
Total Dipole Moment    :     -0.07627      -0.71727       0.38137
                        -----------------------------------------
Magnitude (a.u.)       :      0.81593
Magnitude (Debye)      :      2.07393

Rotational constants in cm-1:     0.017446     0.009036     0.006240
Rotational constants in MHz :   523.019148   270.896278   187.070547

                             ****ORCA TERMINATED NORMALLY****
TOTAL RUN TIME: 0 days 0 hours 0 minutes 21 seconds 254 msec
