                         Program Version 4.2.1 -  RELEASE  -
|  1> ! wB97X-D3 SP def2-SVP
|  2> %pal
|  3> nprocs 24
|  4> end
|  5>
|  6> * xyz 0 1
|  7> S 	 -123.994 	 60.6 	 -60.3408
|  8> C 	 -123.678 	 62.2525 	 -60.5377
|  9> C 	 -124.187 	 62.9729 	 -59.5048
| 10> C 	 -124.851 	 62.1953 	 -58.5278
| 11> C 	 -124.781 	 60.8038 	 -58.7458
| 12> H 	 -125.07 	 62.5552 	 -57.537
| 13> C 	 -123.986 	 64.4229 	 -59.26
| 14> H 	 -124.809 	 64.7568 	 -58.6891
| 15> H 	 -124.132 	 65.0416 	 -60.0967
| 16> C 	 -122.611 	 64.6495 	 -58.6774
| 17> H 	 -122.463 	 63.9801 	 -57.7804
| 18> H 	 -121.863 	 64.4121 	 -59.4374
| 19> C 	 -122.258 	 66.0784 	 -58.2721
| 20> H 	 -122.61 	 66.3849 	 -57.284
| 21> H 	 -121.221 	 66.2661 	 -58.2154
| 22> H 	 -122.525 	 66.7642 	 -59.0821
| 23> S 	 -123.745 	 58.9199 	 -57.149
| 24> C 	 -124.795 	 57.9617 	 -56.0131
| 25> C 	 -126.1 	 58.3223 	 -56.2514
| 26> C 	 -126.288 	 59.3637 	 -57.2489
| 27> C 	 -125.122 	 59.7219 	 -57.8516
| 28> H 	 -126.842 	 57.8377 	 -55.6831
| 29> C 	 -127.721 	 59.8168 	 -57.6525
| 30> H 	 -127.676 	 60.8466 	 -58.128
| 31> H 	 -128.246 	 60.0104 	 -56.7502
| 32> C 	 -128.578 	 58.8188 	 -58.406
| 33> H 	 -128.685 	 57.8372 	 -57.8623
| 34> H 	 -128.041 	 58.5984 	 -59.3302
| 35> C 	 -129.924 	 59.434 	 -58.8329
| 36> H 	 -129.929 	 60.0553 	 -59.7011
| 37> H 	 -130.464 	 59.9567 	 -57.9764
| 38> H 	 -130.601 	 58.6042 	 -59.0031
| 39> H 	 -123.078 	 62.6243 	 -61.3953
| 40> H 	 -124.488 	 57.1895 	 -55.3733
| 41> *
| 42>
| 43>                          ****END OF INPUT****

CARTESIAN COORDINATES (ANGSTROEM)
---------------------------------
  S    -123.994000   60.600000  -60.340800
  C    -123.678000   62.252500  -60.537700
  C    -124.187000   62.972900  -59.504800
  C    -124.851000   62.195300  -58.527800
  C    -124.781000   60.803800  -58.745800
  H    -125.070000   62.555200  -57.537000
  C    -123.986000   64.422900  -59.260000
  H    -124.809000   64.756800  -58.689100
  H    -124.132000   65.041600  -60.096700
  C    -122.611000   64.649500  -58.677400
  H    -122.463000   63.980100  -57.780400
  H    -121.863000   64.412100  -59.437400
  C    -122.258000   66.078400  -58.272100
  H    -122.610000   66.384900  -57.284000
  H    -121.221000   66.266100  -58.215400
  H    -122.525000   66.764200  -59.082100
  S    -123.745000   58.919900  -57.149000
  C    -124.795000   57.961700  -56.013100
  C    -126.100000   58.322300  -56.251400
  C    -126.288000   59.363700  -57.248900
  C    -125.122000   59.721900  -57.851600
  H    -126.842000   57.837700  -55.683100
  C    -127.721000   59.816800  -57.652500
  H    -127.676000   60.846600  -58.128000
  H    -128.246000   60.010400  -56.750200
  C    -128.578000   58.818800  -58.406000
  H    -128.685000   57.837200  -57.862300
  H    -128.041000   58.598400  -59.330200
  C    -129.924000   59.434000  -58.832900
  H    -129.929000   60.055300  -59.701100
  H    -130.464000   59.956700  -57.976400
  H    -130.601000   58.604200  -59.003100
  H    -123.078000   62.624300  -61.395300
  H    -124.488000   57.189500  -55.373300

 Total Charge           Charge          ....    0
 Multiplicity           Mult            ....    1
 Number of Electrons    NEL             ....  134
 Basis Dimension        Dim             ....  322

ORBITAL ENERGIES
----------------

  NO   OCC          E(Eh)            E(eV)
   0   2.0000     -88.963016     -2420.8067
   1   2.0000     -88.960791     -2420.7462
   2   2.0000     -10.332476      -281.1610
   3   2.0000     -10.325310      -280.9660
   4   2.0000     -10.320070      -280.8234
   5   2.0000     -10.311154      -280.5808
   6   2.0000     -10.306080      -280.4427
   7   2.0000     -10.294281      -280.1216
   8   2.0000     -10.293593      -280.1029
   9   2.0000     -10.292625      -280.0766
  10   2.0000     -10.291433      -280.0441
  11   2.0000     -10.289301      -279.9861
  12   2.0000     -10.287240      -279.9300
  13   2.0000     -10.279784      -279.7271
  14   2.0000     -10.277897      -279.6758
  15   2.0000     -10.272304      -279.5236
  16   2.0000      -8.078285      -219.8213
  17   2.0000      -8.075057      -219.7335
  18   2.0000      -6.036639      -164.2653
  19   2.0000      -6.033832      -164.1889
  20   2.0000      -6.032558      -164.1542
  21   2.0000      -6.029556      -164.0726
  22   2.0000      -6.029327      -164.0663
  23   2.0000      -6.025591      -163.9647
  24   2.0000      -1.006755       -27.3952
  25   2.0000      -0.984441       -26.7880
  26   2.0000      -0.916276       -24.9331
  27   2.0000      -0.904583       -24.6149
  28   2.0000      -0.873930       -23.7809
  29   2.0000      -0.851304       -23.1652
  30   2.0000      -0.842477       -22.9250
  31   2.0000      -0.817624       -22.2487
  32   2.0000      -0.781615       -21.2688
  33   2.0000      -0.772125       -21.0106
  34   2.0000      -0.706410       -19.2224
  35   2.0000      -0.701056       -19.0767
  36   2.0000      -0.693837       -18.8803
  37   2.0000      -0.667033       -18.1509
  38   2.0000      -0.645323       -17.5601
  39   2.0000      -0.622246       -16.9322
  40   2.0000      -0.593191       -16.1415
  41   2.0000      -0.571613       -15.5544
  42   2.0000      -0.564336       -15.3564
  43   2.0000      -0.561152       -15.2697
  44   2.0000      -0.526376       -14.3234
  45   2.0000      -0.524594       -14.2749
  46   2.0000      -0.518682       -14.1140
  47   2.0000      -0.512951       -13.9581
  48   2.0000      -0.506920       -13.7940
  49   2.0000      -0.499978       -13.6051
  50   2.0000      -0.498818       -13.5735
  51   2.0000      -0.480186       -13.0665
  52   2.0000      -0.469249       -12.7689
  53   2.0000      -0.467953       -12.7337
  54   2.0000      -0.461358       -12.5542
  55   2.0000      -0.441900       -12.0247
  56   2.0000      -0.438947       -11.9443
  57   2.0000      -0.433729       -11.8024
  58   2.0000      -0.425062       -11.5665
  59   2.0000      -0.423213       -11.5162
  60   2.0000      -0.416935       -11.3454
  61   2.0000      -0.413404       -11.2493
  62   2.0000      -0.411436       -11.1957
  63   2.0000      -0.345211        -9.3937
  64   2.0000      -0.328065        -8.9271
  65   2.0000      -0.325285        -8.8514
  66   2.0000      -0.302599        -8.2341
  67   0.0000       0.033871         0.9217
  68   0.0000       0.064155         1.7457
  69   0.0000       0.117079         3.1859
  70   0.0000       0.125058         3.4030
  71   0.0000       0.132022         3.5925

MULLIKEN ATOMIC CHARGES
-----------------------
   0 S :    0.108282
   1 C :   -0.133839
   2 C :   -0.114546
   3 C :    0.068374
   4 C :   -0.190303
   5 H :    0.017696
   6 C :    0.139051
   7 H :    0.000853
   8 H :   -0.002875
   9 C :   -0.099940
  10 H :    0.040111
  11 H :    0.026887
  12 C :   -0.013607
  13 H :    0.032610
  14 H :    0.013814
  15 H :    0.019352
  16 S :    0.087554
  17 C :   -0.077385
  18 C :   -0.018918
  19 C :   -0.026559
  20 C :   -0.147286
  21 H :    0.005167
  22 C :    0.070973
  23 H :    0.036223
  24 H :    0.005265
  25 C :   -0.075326
  26 H :    0.039310
  27 H :    0.032882
  28 C :   -0.052868
  29 H :    0.044564
  30 H :    0.028813
  31 H :    0.025700
  32 H :    0.065937
  33 H :    0.044034
Sum of atomic charges:   -0.0000000

LOEWDIN ATOMIC CHARGES
----------------------
   0 S :    0.415441
   1 C :   -0.212220
   2 C :   -0.071596
   3 C :   -0.056069
   4 C :   -0.190375
   5 H :    0.031108
   6 C :   -0.031631
   7 H :    0.025489
   8 H :    0.022901
   9 C :   -0.038833
  10 H :    0.031575
  11 H :    0.026582
  12 C :   -0.069344
  13 H :    0.024723
  14 H :    0.020982
  15 H :    0.025679
  16 S :    0.379772
  17 C :   -0.153889
  18 C :   -0.060551
  19 C :   -0.054057
  20 C :   -0.202083
  21 H :    0.023733
  22 C :   -0.035270
  23 H :    0.038524
  24 H :    0.021380
  25 C :   -0.043915
  26 H :    0.030341
  27 H :    0.027560
  28 C :   -0.068476
  29 H :    0.024281
  30 H :    0.029554
  31 H :    0.027295
  32 H :    0.039050
  33 H :    0.022336

  Mayer bond orders larger than 0.100000
B(  0-S ,  1-C ) :   1.1587 B(  0-S ,  4-C ) :   1.1618 B(  1-C ,  2-C ) :   1.5819
B(  1-C , 32-H ) :   0.9663 B(  2-C ,  3-C ) :   1.2864 B(  2-C ,  6-C ) :   1.0354
B(  3-C ,  4-C ) :   1.5477 B(  3-C ,  5-H ) :   0.9866 B(  4-C , 20-C ) :   1.0227
B(  6-C ,  7-H ) :   0.9312 B(  6-C ,  8-H ) :   0.9229 B(  6-C ,  9-C ) :   1.0602
B(  9-C , 10-H ) :   0.9580 B(  9-C , 11-H ) :   0.9549 B(  9-C , 12-C ) :   1.0886
B( 12-C , 13-H ) :   0.9757 B( 12-C , 14-H ) :   0.9715 B( 12-C , 15-H ) :   0.9677
B( 16-S , 17-C ) :   1.1233 B( 16-S , 20-C ) :   1.1328 B( 17-C , 18-C ) :   1.6480
B( 17-C , 33-H ) :   0.9760 B( 18-C , 19-C ) :   1.1956 B( 18-C , 21-H ) :   0.9943
B( 19-C , 20-C ) :   1.6432 B( 19-C , 22-C ) :   1.0413 B( 22-C , 23-H ) :   0.9385
B( 22-C , 24-H ) :   0.9240 B( 22-C , 25-C ) :   1.0672 B( 25-C , 26-H ) :   0.9550
B( 25-C , 27-H ) :   0.9530 B( 25-C , 28-C ) :   1.0760 B( 28-C , 29-H ) :   0.9778
B( 28-C , 30-H ) :   0.9736 B( 28-C , 31-H ) :   0.9722

Dispersion correction           -0.013623747
FINAL SINGLE POINT ENERGY     -1339.872517875513

DIPOLE MOMENT
-------------
                                X             Y             Z
Electronic contribution:     11.80409     -16.51570      -1.46498
Nuclear contribution   :    -12.08979      16.82788       1.67070
                        -----------------------------------------
Total Dipole Moment    :     -0.28570       0.31218       0.20571
                        -----------------------------------------
Magnitude (a.u.)       :      0.47053
Magnitude (Debye)      :      1.19599

Rotational constants in cm-1:     0.019270     0.007443     0.006548
Rotational constants in MHz :   577.688170   223.132804   196.309821

                             ****ORCA TERMINATED NORMALLY****
TOTAL RUN TIME: 0 days 0 hours 0 minutes 21 seconds 23 msec
