                         Program Version 4.2.1 -  RELEASE  -
|  1> ! wB97X-D3 SP def2-SVP
|  2> %pal
|  3> nprocs 24
|  4> end
|  5>
|  6> * xyz 0 1
|  7> S 	 -83.5053 	 -16.0575 	 -52.4422
|  8> C 	 -85.0442 	 -15.4272 	 -51.8536
|  9> C 	 -85.4874 	 -16.1523 	 -50.7305
| 10> C 	 -84.4916 	 -17.0898 	 -50.3339
| 11> C 	 -83.372 	 -17.1675 	 -51.0782
| 12> H 	 -84.6836 	 -17.7698 	 -49.5416
| 13> C 	 -86.736 	 -15.7926 	 -50.0074
| 14> H 	 -87.0826 	 -16.7689 	 -49.4418
| 15> H 	 -87.4808 	 -15.4746 	 -50.6769
| 16> C 	 -86.6875 	 -14.7047 	 -48.9585
| 17> H 	 -85.7989 	 -14.7746 	 -48.3164
| 18> H 	 -86.2963 	 -13.8395 	 -49.5029
| 19> C 	 -88.0481 	 -14.4512 	 -48.2648
| 20> H 	 -88.4156 	 -15.2041 	 -47.5539
| 21> H 	 -87.7213 	 -13.5949 	 -47.6531
| 22> H 	 -88.9091 	 -14.2791 	 -48.9544
| 23> S 	 -82.5688 	 -19.7384 	 -50.7138
| 24> C 	 -80.8854 	 -20.1225 	 -50.5372
| 25> C 	 -80.0824 	 -19.056 	 -50.6408
| 26> C 	 -80.8265 	 -17.8284 	 -50.757
| 27> C 	 -82.1982 	 -18.0723 	 -50.7681
| 28> H 	 -78.9916 	 -19.1073 	 -50.6134
| 29> C 	 -80.1519 	 -16.5145 	 -51.053
| 30> H 	 -79.1727 	 -16.4618 	 -50.4549
| 31> H 	 -80.8752 	 -15.7194 	 -50.7089
| 32> C 	 -79.9826 	 -16.2981 	 -52.6563
| 33> H 	 -80.9352 	 -16.4994 	 -53.1356
| 34> H 	 -79.2443 	 -16.9327 	 -53.1384
| 35> C 	 -79.6333 	 -14.9013 	 -53.0517
| 36> H 	 -78.856 	 -14.5712 	 -52.3998
| 37> H 	 -80.485 	 -14.164 	 -53.097
| 38> H 	 -79.2556 	 -14.8488 	 -54.0625
| 39> H 	 -85.6096 	 -14.6846 	 -52.3528
| 40> H 	 -80.4368 	 -21.1177 	 -50.6058
| 41> *
| 42>
| 43>                          ****END OF INPUT****

CARTESIAN COORDINATES (ANGSTROEM)
---------------------------------
  S    -83.505300  -16.057500  -52.442200
  C    -85.044200  -15.427200  -51.853600
  C    -85.487400  -16.152300  -50.730500
  C    -84.491600  -17.089800  -50.333900
  C    -83.372000  -17.167500  -51.078200
  H    -84.683600  -17.769800  -49.541600
  C    -86.736000  -15.792600  -50.007400
  H    -87.082600  -16.768900  -49.441800
  H    -87.480800  -15.474600  -50.676900
  C    -86.687500  -14.704700  -48.958500
  H    -85.798900  -14.774600  -48.316400
  H    -86.296300  -13.839500  -49.502900
  C    -88.048100  -14.451200  -48.264800
  H    -88.415600  -15.204100  -47.553900
  H    -87.721300  -13.594900  -47.653100
  H    -88.909100  -14.279100  -48.954400
  S    -82.568800  -19.738400  -50.713800
  C    -80.885400  -20.122500  -50.537200
  C    -80.082400  -19.056000  -50.640800
  C    -80.826500  -17.828400  -50.757000
  C    -82.198200  -18.072300  -50.768100
  H    -78.991600  -19.107300  -50.613400
  C    -80.151900  -16.514500  -51.053000
  H    -79.172700  -16.461800  -50.454900
  H    -80.875200  -15.719400  -50.708900
  C    -79.982600  -16.298100  -52.656300
  H    -80.935200  -16.499400  -53.135600
  H    -79.244300  -16.932700  -53.138400
  C    -79.633300  -14.901300  -53.051700
  H    -78.856000  -14.571200  -52.399800
  H    -80.485000  -14.164000  -53.097000
  H    -79.255600  -14.848800  -54.062500
  H    -85.609600  -14.684600  -52.352800
  H    -80.436800  -21.117700  -50.605800

 Total Charge           Charge          ....    0
 Multiplicity           Mult            ....    1
 Number of Electrons    NEL             ....  134
 Basis Dimension        Dim             ....  322

ORBITAL ENERGIES
----------------

  NO   OCC          E(Eh)            E(eV)
   0   2.0000     -88.968981     -2420.9690
   1   2.0000     -88.966084     -2420.8902
   2   2.0000     -10.331068      -281.1227
   3   2.0000     -10.325723      -280.9772
   4   2.0000     -10.315680      -280.7039
   5   2.0000     -10.310576      -280.5650
   6   2.0000     -10.304189      -280.3912
   7   2.0000     -10.301286      -280.3123
   8   2.0000     -10.300801      -280.2990
   9   2.0000     -10.292067      -280.0614
  10   2.0000     -10.289807      -279.9999
  11   2.0000     -10.288637      -279.9680
  12   2.0000     -10.288069      -279.9526
  13   2.0000     -10.287476      -279.9365
  14   2.0000     -10.285081      -279.8713
  15   2.0000     -10.269854      -279.4569
  16   2.0000      -8.082435      -219.9343
  17   2.0000      -8.081740      -219.9153
  18   2.0000      -6.041027      -164.3847
  19   2.0000      -6.040211      -164.3625
  20   2.0000      -6.037036      -164.2761
  21   2.0000      -6.036200      -164.2534
  22   2.0000      -6.033288      -164.1741
  23   2.0000      -6.032393      -164.1498
  24   2.0000      -1.009468       -27.4690
  25   2.0000      -0.987772       -26.8786
  26   2.0000      -0.914485       -24.8844
  27   2.0000      -0.900826       -24.5127
  28   2.0000      -0.869178       -23.6515
  29   2.0000      -0.853712       -23.2307
  30   2.0000      -0.847931       -23.0734
  31   2.0000      -0.820645       -22.3309
  32   2.0000      -0.778960       -21.1966
  33   2.0000      -0.763871       -20.7860
  34   2.0000      -0.704161       -19.1612
  35   2.0000      -0.698401       -19.0045
  36   2.0000      -0.689957       -18.7747
  37   2.0000      -0.665277       -18.1031
  38   2.0000      -0.639360       -17.3979
  39   2.0000      -0.624792       -17.0014
  40   2.0000      -0.591751       -16.1024
  41   2.0000      -0.570444       -15.5226
  42   2.0000      -0.561382       -15.2760
  43   2.0000      -0.552912       -15.0455
  44   2.0000      -0.528637       -14.3849
  45   2.0000      -0.525547       -14.3009
  46   2.0000      -0.521792       -14.1987
  47   2.0000      -0.511700       -13.9241
  48   2.0000      -0.500273       -13.6131
  49   2.0000      -0.497632       -13.5412
  50   2.0000      -0.491527       -13.3751
  51   2.0000      -0.479009       -13.0345
  52   2.0000      -0.470912       -12.8142
  53   2.0000      -0.464198       -12.6315
  54   2.0000      -0.460484       -12.5304
  55   2.0000      -0.450151       -12.2492
  56   2.0000      -0.441932       -12.0256
  57   2.0000      -0.439425       -11.9574
  58   2.0000      -0.429027       -11.6744
  59   2.0000      -0.425208       -11.5705
  60   2.0000      -0.419014       -11.4019
  61   2.0000      -0.412874       -11.2349
  62   2.0000      -0.403270       -10.9735
  63   2.0000      -0.349170        -9.5014
  64   2.0000      -0.333903        -9.0860
  65   2.0000      -0.323127        -8.7927
  66   2.0000      -0.297208        -8.0874
  67   0.0000       0.035895         0.9768
  68   0.0000       0.070302         1.9130
  69   0.0000       0.108508         2.9527
  70   0.0000       0.118359         3.2207
  71   0.0000       0.126012         3.4290

MULLIKEN ATOMIC CHARGES
-----------------------
   0 S :    0.093099
   1 C :   -0.112847
   2 C :   -0.072236
   3 C :    0.026373
   4 C :   -0.110998
   5 H :   -0.001563
   6 C :    0.045753
   7 H :    0.033019
   8 H :    0.011903
   9 C :   -0.065647
  10 H :    0.021483
  11 H :    0.008230
  12 C :   -0.053751
  13 H :    0.041641
  14 H :    0.045288
  15 H :    0.046435
  16 S :    0.120413
  17 C :   -0.077818
  18 C :   -0.041632
  19 C :   -0.050063
  20 C :   -0.167169
  21 H :    0.022913
  22 C :    0.016710
  23 H :    0.046190
  24 H :    0.044202
  25 C :   -0.061180
  26 H :    0.025828
  27 H :    0.028519
  28 C :   -0.040757
  29 H :    0.022536
  30 H :    0.036310
  31 H :    0.023595
  32 H :    0.038363
  33 H :    0.056858
Sum of atomic charges:   -0.0000000

LOEWDIN ATOMIC CHARGES
----------------------
   0 S :    0.403869
   1 C :   -0.185301
   2 C :   -0.060997
   3 C :   -0.064187
   4 C :   -0.189755
   5 H :    0.025102
   6 C :   -0.039907
   7 H :    0.038103
   8 H :    0.022992
   9 C :   -0.049891
  10 H :    0.026959
  11 H :    0.023339
  12 C :   -0.070147
  13 H :    0.027866
  14 H :    0.037598
  15 H :    0.032132
  16 S :    0.433327
  17 C :   -0.194409
  18 C :   -0.069977
  19 C :   -0.062535
  20 C :   -0.209756
  21 H :    0.034980
  22 C :   -0.039378
  23 H :    0.038599
  24 H :    0.037372
  25 C :   -0.039797
  26 H :    0.012343
  27 H :    0.024191
  28 C :   -0.069644
  29 H :    0.019464
  30 H :    0.028301
  31 H :    0.025068
  32 H :    0.019611
  33 H :    0.034462

  Mayer bond orders larger than 0.100000
B(  0-S ,  1-C ) :   1.1433 B(  0-S ,  4-C ) :   1.1309 B(  1-C ,  2-C ) :   1.5808
B(  1-C , 32-H ) :   0.9742 B(  2-C ,  3-C ) :   1.2532 B(  2-C ,  6-C ) :   1.0442
B(  3-C ,  4-C ) :   1.5851 B(  3-C ,  5-H ) :   0.9997 B(  4-C , 20-C ) :   0.9919
B(  6-C ,  7-H ) :   0.9371 B(  6-C ,  8-H ) :   0.9327 B(  6-C ,  9-C ) :   1.0698
B(  9-C , 10-H ) :   0.9510 B(  9-C , 11-H ) :   0.9457 B(  9-C , 12-C ) :   1.0578
B( 12-C , 13-H ) :   0.9769 B( 12-C , 14-H ) :   0.9734 B( 12-C , 15-H ) :   0.9740
B( 16-S , 17-C ) :   1.1460 B( 16-S , 20-C ) :   1.1622 B( 17-C , 18-C ) :   1.6363
B( 17-C , 33-H ) :   0.9598 B( 18-C , 19-C ) :   1.2362 B( 18-C , 21-H ) :   0.9876
B( 19-C , 20-C ) :   1.5971 B( 19-C , 22-C ) :   1.0657 B( 22-C , 23-H ) :   0.9344
B( 22-C , 24-H ) :   0.9338 B( 22-C , 25-C ) :   1.0409 B( 25-C , 26-H ) :   0.9531
B( 25-C , 27-H ) :   0.9573 B( 25-C , 28-C ) :   1.0928 B( 28-C , 29-H ) :   0.9718
B( 28-C , 30-H ) :   0.9735 B( 28-C , 31-H ) :   0.9709

Dispersion correction           -0.014301338
FINAL SINGLE POINT ENERGY     -1339.868772809312

DIPOLE MOMENT
-------------
                                X             Y             Z
Electronic contribution:      3.97437     -17.70352      -4.82772
Nuclear contribution   :     -3.96520      17.92428       4.89288
                        -----------------------------------------
Total Dipole Moment    :      0.00917       0.22076       0.06516
                        -----------------------------------------
Magnitude (a.u.)       :      0.23036
Magnitude (Debye)      :      0.58552

Rotational constants in cm-1:     0.020638     0.007828     0.006338
Rotational constants in MHz :   618.726650   234.663011   190.012462

                             ****ORCA TERMINATED NORMALLY****
TOTAL RUN TIME: 0 days 0 hours 0 minutes 21 seconds 242 msec
