                         Program Version 4.2.1 -  RELEASE  -
|  1> ! wB97X-D3 SP def2-SVP
|  2> %pal
|  3> nprocs 24
|  4> end
|  5>
|  6> * xyz 0 1
|  7> S 	 -19.9223 	 -34.2723 	 -96.2007
|  8> C 	 -18.4468 	 -35.1837 	 -96.7071
|  9> C 	 -17.4684 	 -34.2899 	 -97.163
| 10> C 	 -17.8263 	 -32.9143 	 -97.1992
| 11> C 	 -19.1514 	 -32.7288 	 -96.7524
| 12> H 	 -17.2479 	 -32.0605 	 -97.4273
| 13> C 	 -16.154 	 -34.6406 	 -97.776
| 14> H 	 -16.1119 	 -34.1061 	 -98.7466
| 15> H 	 -16.3489 	 -35.5417 	 -98.2372
| 16> C 	 -14.8998 	 -34.7844 	 -96.8768
| 17> H 	 -14.9517 	 -33.9634 	 -96.1391
| 18> H 	 -15.0092 	 -35.6551 	 -96.2676
| 19> C 	 -13.702 	 -34.9066 	 -97.7182
| 20> H 	 -12.8469 	 -34.9622 	 -97.0141
| 21> H 	 -13.6124 	 -35.8145 	 -98.341
| 22> H 	 -13.7035 	 -34.073 	 -98.3759
| 23> S 	 -21.6167 	 -31.7687 	 -97.5661
| 24> C 	 -21.7554 	 -30.0477 	 -97.8556
| 25> C 	 -20.667 	 -29.3048 	 -97.3924
| 26> C 	 -19.6593 	 -30.1752 	 -96.8317
| 27> C 	 -19.9992 	 -31.5497 	 -96.9163
| 28> H 	 -20.6796 	 -28.2552 	 -97.4937
| 29> C 	 -18.348 	 -29.6838 	 -96.2878
| 30> H 	 -17.961 	 -30.458 	 -95.5866
| 31> H 	 -18.4567 	 -28.8083 	 -95.712
| 32> C 	 -17.2568 	 -29.2036 	 -97.318
| 33> H 	 -17.6762 	 -28.3533 	 -97.8844
| 34> H 	 -17.0398 	 -29.8178 	 -98.136
| 35> C 	 -15.8595 	 -28.7809 	 -96.7411
| 36> H 	 -15.2483 	 -28.2393 	 -97.4681
| 37> H 	 -15.1696 	 -29.6043 	 -96.4574
| 38> H 	 -15.8379 	 -28.0726 	 -95.8903
| 39> H 	 -18.3742 	 -36.2176 	 -96.735
| 40> H 	 -22.528 	 -29.6959 	 -98.5472
| 41> *
| 42>
| 43>                          ****END OF INPUT****

CARTESIAN COORDINATES (ANGSTROEM)
---------------------------------
  S    -19.922300  -34.272300  -96.200700
  C    -18.446800  -35.183700  -96.707100
  C    -17.468400  -34.289900  -97.163000
  C    -17.826300  -32.914300  -97.199200
  C    -19.151400  -32.728800  -96.752400
  H    -17.247900  -32.060500  -97.427300
  C    -16.154000  -34.640600  -97.776000
  H    -16.111900  -34.106100  -98.746600
  H    -16.348900  -35.541700  -98.237200
  C    -14.899800  -34.784400  -96.876800
  H    -14.951700  -33.963400  -96.139100
  H    -15.009200  -35.655100  -96.267600
  C    -13.702000  -34.906600  -97.718200
  H    -12.846900  -34.962200  -97.014100
  H    -13.612400  -35.814500  -98.341000
  H    -13.703500  -34.073000  -98.375900
  S    -21.616700  -31.768700  -97.566100
  C    -21.755400  -30.047700  -97.855600
  C    -20.667000  -29.304800  -97.392400
  C    -19.659300  -30.175200  -96.831700
  C    -19.999200  -31.549700  -96.916300
  H    -20.679600  -28.255200  -97.493700
  C    -18.348000  -29.683800  -96.287800
  H    -17.961000  -30.458000  -95.586600
  H    -18.456700  -28.808300  -95.712000
  C    -17.256800  -29.203600  -97.318000
  H    -17.676200  -28.353300  -97.884400
  H    -17.039800  -29.817800  -98.136000
  C    -15.859500  -28.780900  -96.741100
  H    -15.248300  -28.239300  -97.468100
  H    -15.169600  -29.604300  -96.457400
  H    -15.837900  -28.072600  -95.890300
  H    -18.374200  -36.217600  -96.735000
  H    -22.528000  -29.695900  -98.547200

 Total Charge           Charge          ....    0
 Multiplicity           Mult            ....    1
 Number of Electrons    NEL             ....  134
 Basis Dimension        Dim             ....  322

ORBITAL ENERGIES
----------------

  NO   OCC          E(Eh)            E(eV)
   0   2.0000     -88.967765     -2420.9360
   1   2.0000     -88.966465     -2420.9006
   2   2.0000     -10.337364      -281.2940
   3   2.0000     -10.330009      -281.0938
   4   2.0000     -10.321160      -280.8530
   5   2.0000     -10.315577      -280.7011
   6   2.0000     -10.309997      -280.5493
   7   2.0000     -10.301043      -280.3056
   8   2.0000     -10.299335      -280.2591
   9   2.0000     -10.294217      -280.1199
  10   2.0000     -10.293782      -280.1080
  11   2.0000     -10.293360      -280.0966
  12   2.0000     -10.287257      -279.9305
  13   2.0000     -10.284785      -279.8632
  14   2.0000     -10.279498      -279.7194
  15   2.0000     -10.276764      -279.6450
  16   2.0000      -8.082442      -219.9344
  17   2.0000      -8.079365      -219.8507
  18   2.0000      -6.040857      -164.3801
  19   2.0000      -6.038059      -164.3039
  20   2.0000      -6.036976      -164.2745
  21   2.0000      -6.034224      -164.1996
  22   2.0000      -6.033273      -164.1737
  23   2.0000      -6.029965      -164.0837
  24   2.0000      -0.998592       -27.1731
  25   2.0000      -0.973421       -26.4881
  26   2.0000      -0.915992       -24.9254
  27   2.0000      -0.903718       -24.5914
  28   2.0000      -0.869610       -23.6633
  29   2.0000      -0.851937       -23.1824
  30   2.0000      -0.847464       -23.0607
  31   2.0000      -0.815032       -22.1781
  32   2.0000      -0.783107       -21.3094
  33   2.0000      -0.767234       -20.8775
  34   2.0000      -0.712871       -19.3982
  35   2.0000      -0.707926       -19.2636
  36   2.0000      -0.698075       -18.9956
  37   2.0000      -0.665645       -18.1131
  38   2.0000      -0.643854       -17.5201
  39   2.0000      -0.619203       -16.8494
  40   2.0000      -0.597625       -16.2622
  41   2.0000      -0.569840       -15.5061
  42   2.0000      -0.565592       -15.3905
  43   2.0000      -0.551865       -15.0170
  44   2.0000      -0.533076       -14.5057
  45   2.0000      -0.521215       -14.1830
  46   2.0000      -0.520150       -14.1540
  47   2.0000      -0.512736       -13.9523
  48   2.0000      -0.505652       -13.7595
  49   2.0000      -0.496484       -13.5100
  50   2.0000      -0.491385       -13.3713
  51   2.0000      -0.479912       -13.0591
  52   2.0000      -0.472249       -12.8506
  53   2.0000      -0.465911       -12.6781
  54   2.0000      -0.458037       -12.4638
  55   2.0000      -0.448839       -12.2135
  56   2.0000      -0.446206       -12.1419
  57   2.0000      -0.438183       -11.9236
  58   2.0000      -0.435645       -11.8545
  59   2.0000      -0.426933       -11.6174
  60   2.0000      -0.420418       -11.4402
  61   2.0000      -0.416622       -11.3369
  62   2.0000      -0.402756       -10.9595
  63   2.0000      -0.349862        -9.5202
  64   2.0000      -0.333436        -9.0733
  65   2.0000      -0.328909        -8.9501
  66   2.0000      -0.280496        -7.6327
  67   0.0000       0.017375         0.4728
  68   0.0000       0.065868         1.7924
  69   0.0000       0.101390         2.7590
  70   0.0000       0.119298         3.2463
  71   0.0000       0.128732         3.5030

MULLIKEN ATOMIC CHARGES
-----------------------
   0 S :    0.079395
   1 C :   -0.085329
   2 C :   -0.091796
   3 C :    0.052341
   4 C :   -0.144975
   5 H :   -0.010039
   6 C :    0.042235
   7 H :    0.022336
   8 H :   -0.020125
   9 C :   -0.014616
  10 H :    0.029193
  11 H :    0.016113
  12 C :   -0.021782
  13 H :    0.036345
  14 H :    0.034017
  15 H :    0.023560
  16 S :    0.110642
  17 C :   -0.115346
  18 C :   -0.007590
  19 C :   -0.040163
  20 C :   -0.123419
  21 H :    0.011118
  22 C :    0.073123
  23 H :    0.042956
  24 H :    0.013487
  25 C :   -0.059900
  26 H :    0.020758
  27 H :    0.017280
  28 C :   -0.078993
  29 H :    0.028066
  30 H :    0.036132
  31 H :    0.030972
  32 H :    0.021970
  33 H :    0.072033
Sum of atomic charges:   -0.0000000

LOEWDIN ATOMIC CHARGES
----------------------
   0 S :    0.352478
   1 C :   -0.174078
   2 C :   -0.055320
   3 C :   -0.054894
   4 C :   -0.159781
   5 H :    0.027974
   6 C :   -0.046455
   7 H :    0.038311
   8 H :    0.019529
   9 C :   -0.034108
  10 H :    0.026654
  11 H :    0.022657
  12 C :   -0.061727
  13 H :    0.031897
  14 H :    0.030142
  15 H :    0.020573
  16 S :    0.407904
  17 C :   -0.184331
  18 C :   -0.061934
  19 C :   -0.052376
  20 C :   -0.201447
  21 H :    0.027693
  22 C :   -0.034492
  23 H :    0.036773
  24 H :    0.028074
  25 C :   -0.040134
  26 H :    0.028157
  27 H :    0.013452
  28 C :   -0.077770
  29 H :    0.028518
  30 H :    0.027514
  31 H :    0.025191
  32 H :    0.013940
  33 H :    0.031418

  Mayer bond orders larger than 0.100000
B(  0-S ,  1-C ) :   1.1047 B(  0-S ,  4-C ) :   1.1391 B(  1-C ,  2-C ) :   1.6180
B(  1-C , 32-H ) :   0.9785 B(  2-C ,  3-C ) :   1.2267 B(  2-C ,  6-C ) :   1.0203
B(  3-C ,  4-C ) :   1.5541 B(  3-C ,  5-H ) :   0.9969 B(  4-C , 20-C ) :   1.0605
B(  6-C ,  7-H ) :   0.9443 B(  6-C ,  8-H ) :   0.9200 B(  6-C ,  9-C ) :   1.0394
B(  9-C , 10-H ) :   0.9592 B(  9-C , 11-H ) :   0.9464 B(  9-C , 12-C ) :   1.0830
B( 12-C , 13-H ) :   0.9701 B( 12-C , 14-H ) :   0.9718 B( 12-C , 15-H ) :   0.9765
B( 16-S , 17-C ) :   1.1663 B( 16-S , 20-C ) :   1.1397 B( 17-C , 18-C ) :   1.5930
B( 17-C , 33-H ) :   0.9634 B( 18-C , 19-C ) :   1.2348 B( 18-C , 21-H ) :   1.0026
B( 19-C , 20-C ) :   1.5637 B( 19-C , 22-C ) :   1.0656 B( 22-C , 23-H ) :   0.9404
B( 22-C , 24-H ) :   0.9264 B( 22-C , 25-C ) :   1.0365 B( 25-C , 26-H ) :   0.9518
B( 25-C , 27-H ) :   0.9552 B( 25-C , 28-C ) :   1.0745 B( 28-C , 29-H ) :   0.9733
B( 28-C , 30-H ) :   0.9774 B( 28-C , 31-H ) :   0.9768

Dispersion correction           -0.013973059
FINAL SINGLE POINT ENERGY     -1339.850079842965

DIPOLE MOMENT
-------------
                                X             Y             Z
Electronic contribution:    -32.73893      -6.31352       2.76247
Nuclear contribution   :     33.37563       6.61623      -3.15137
                        -----------------------------------------
Total Dipole Moment    :      0.63670       0.30271      -0.38890
                        -----------------------------------------
Magnitude (a.u.)       :      0.80514
Magnitude (Debye)      :      2.04651

Rotational constants in cm-1:     0.016938     0.009240     0.006359
Rotational constants in MHz :   507.787119   277.019841   190.650118

                             ****ORCA TERMINATED NORMALLY****
TOTAL RUN TIME: 0 days 0 hours 0 minutes 21 seconds 515 msec
