                         Program Version 4.2.1 -  RELEASE  -
|  1> ! wB97X-D3 SP def2-SVP
|  2> %pal
|  3> nprocs 24
|  4> end
|  5>
|  6> * xyz 0 1
|  7> S 	 41.681 	 -18.0107 	 -113.631
|  8> C 	 40.2888 	 -16.9931 	 -113.809
|  9> C 	 40.2903 	 -15.9974 	 -112.845
| 10> C 	 41.4071 	 -16.0364 	 -112.002
| 11> C 	 42.2589 	 -17.0991 	 -112.256
| 12> H 	 41.6913 	 -15.4045 	 -111.128
| 13> C 	 39.2376 	 -14.8979 	 -112.674
| 14> H 	 39.054 	 -14.4448 	 -113.668
| 15> H 	 39.7097 	 -14.2093 	 -112.047
| 16> C 	 37.9335 	 -15.1987 	 -111.869
| 17> H 	 37.3574 	 -15.8622 	 -112.499
| 18> H 	 38.0299 	 -15.7713 	 -110.877
| 19> C 	 37.2041 	 -13.8446 	 -111.82
| 20> H 	 37.5386 	 -13.299 	 -110.983
| 21> H 	 37.2074 	 -13.2945 	 -112.764
| 22> H 	 36.1153 	 -13.9863 	 -111.703
| 23> S 	 44.8088 	 -18.274 	 -112.343
| 24> C 	 45.8703 	 -18.2397 	 -110.971
| 25> C 	 45.1397 	 -17.886 	 -109.861
| 26> C 	 43.8117 	 -17.3653 	 -110.188
| 27> C 	 43.4889 	 -17.5194 	 -111.518
| 28> H 	 45.6084 	 -17.8667 	 -108.889
| 29> C 	 43.0082 	 -16.9208 	 -109.027
| 30> H 	 42.323 	 -16.2187 	 -109.414
| 31> H 	 43.7129 	 -16.2549 	 -108.423
| 32> C 	 42.3768 	 -17.944 	 -108.131
| 33> H 	 43.0497 	 -18.7168 	 -107.862
| 34> H 	 41.5923 	 -18.4069 	 -108.684
| 35> C 	 41.8024 	 -17.3863 	 -106.762
| 36> H 	 40.9335 	 -16.7501 	 -106.938
| 37> H 	 42.5347 	 -16.8161 	 -106.22
| 38> H 	 41.446 	 -18.1965 	 -106.118
| 39> H 	 39.5288 	 -17.2416 	 -114.529
| 40> H 	 46.839 	 -18.6792 	 -111.012
| 41> *
| 42>
| 43>                          ****END OF INPUT****

CARTESIAN COORDINATES (ANGSTROEM)
---------------------------------
  S     41.681000  -18.010700  -113.631000
  C     40.288800  -16.993100  -113.809000
  C     40.290300  -15.997400  -112.845000
  C     41.407100  -16.036400  -112.002000
  C     42.258900  -17.099100  -112.256000
  H     41.691300  -15.404500  -111.128000
  C     39.237600  -14.897900  -112.674000
  H     39.054000  -14.444800  -113.668000
  H     39.709700  -14.209300  -112.047000
  C     37.933500  -15.198700  -111.869000
  H     37.357400  -15.862200  -112.499000
  H     38.029900  -15.771300  -110.877000
  C     37.204100  -13.844600  -111.820000
  H     37.538600  -13.299000  -110.983000
  H     37.207400  -13.294500  -112.764000
  H     36.115300  -13.986300  -111.703000
  S     44.808800  -18.274000  -112.343000
  C     45.870300  -18.239700  -110.971000
  C     45.139700  -17.886000  -109.861000
  C     43.811700  -17.365300  -110.188000
  C     43.488900  -17.519400  -111.518000
  H     45.608400  -17.866700  -108.889000
  C     43.008200  -16.920800  -109.027000
  H     42.323000  -16.218700  -109.414000
  H     43.712900  -16.254900  -108.423000
  C     42.376800  -17.944000  -108.131000
  H     43.049700  -18.716800  -107.862000
  H     41.592300  -18.406900  -108.684000
  C     41.802400  -17.386300  -106.762000
  H     40.933500  -16.750100  -106.938000
  H     42.534700  -16.816100  -106.220000
  H     41.446000  -18.196500  -106.118000
  H     39.528800  -17.241600  -114.529000
  H     46.839000  -18.679200  -111.012000

 Total Charge           Charge          ....    0
 Multiplicity           Mult            ....    1
 Number of Electrons    NEL             ....  134
 Basis Dimension        Dim             ....  322

ORBITAL ENERGIES
----------------

  NO   OCC          E(Eh)            E(eV)
   0   2.0000     -88.965684     -2420.8793
   1   2.0000     -88.961262     -2420.7590
   2   2.0000     -10.332473      -281.1609
   3   2.0000     -10.330271      -281.1010
   4   2.0000     -10.315777      -280.7066
   5   2.0000     -10.312797      -280.6255
   6   2.0000     -10.301566      -280.3199
   7   2.0000     -10.300326      -280.2861
   8   2.0000     -10.294695      -280.1329
   9   2.0000     -10.294461      -280.1265
  10   2.0000     -10.294406      -280.1250
  11   2.0000     -10.289786      -279.9993
  12   2.0000     -10.288142      -279.9546
  13   2.0000     -10.282713      -279.8068
  14   2.0000     -10.280914      -279.7579
  15   2.0000     -10.277627      -279.6684
  16   2.0000      -8.080784      -219.8893
  17   2.0000      -8.077012      -219.7867
  18   2.0000      -6.039160      -164.3339
  19   2.0000      -6.035606      -164.2372
  20   2.0000      -6.035142      -164.2246
  21   2.0000      -6.031781      -164.1331
  22   2.0000      -6.031332      -164.1209
  23   2.0000      -6.027663      -164.0211
  24   2.0000      -1.009427       -27.4679
  25   2.0000      -0.989218       -26.9180
  26   2.0000      -0.913263       -24.8512
  27   2.0000      -0.909704       -24.7543
  28   2.0000      -0.868943       -23.6452
  29   2.0000      -0.854035       -23.2395
  30   2.0000      -0.845371       -23.0037
  31   2.0000      -0.815931       -22.2026
  32   2.0000      -0.780685       -21.2435
  33   2.0000      -0.771916       -21.0049
  34   2.0000      -0.710721       -19.3397
  35   2.0000      -0.703901       -19.1541
  36   2.0000      -0.695076       -18.9140
  37   2.0000      -0.666312       -18.1313
  38   2.0000      -0.644524       -17.5384
  39   2.0000      -0.619207       -16.8495
  40   2.0000      -0.598811       -16.2945
  41   2.0000      -0.571775       -15.5588
  42   2.0000      -0.565598       -15.3907
  43   2.0000      -0.561295       -15.2736
  44   2.0000      -0.529806       -14.4168
  45   2.0000      -0.522866       -14.2279
  46   2.0000      -0.518146       -14.0995
  47   2.0000      -0.509226       -13.8567
  48   2.0000      -0.507800       -13.8179
  49   2.0000      -0.502371       -13.6702
  50   2.0000      -0.487261       -13.2590
  51   2.0000      -0.483328       -13.1520
  52   2.0000      -0.478993       -13.0341
  53   2.0000      -0.465549       -12.6682
  54   2.0000      -0.458269       -12.4701
  55   2.0000      -0.454819       -12.3763
  56   2.0000      -0.448533       -12.2052
  57   2.0000      -0.442198       -12.0328
  58   2.0000      -0.435373       -11.8471
  59   2.0000      -0.419667       -11.4197
  60   2.0000      -0.415640       -11.3101
  61   2.0000      -0.413315       -11.2469
  62   2.0000      -0.410393       -11.1674
  63   2.0000      -0.358750        -9.7621
  64   2.0000      -0.334643        -9.1061
  65   2.0000      -0.324210        -8.8222
  66   2.0000      -0.288572        -7.8524
  67   0.0000       0.027918         0.7597
  68   0.0000       0.078897         2.1469
  69   0.0000       0.111184         3.0255
  70   0.0000       0.117211         3.1895
  71   0.0000       0.135716         3.6930

MULLIKEN ATOMIC CHARGES
-----------------------
   0 S :    0.104107
   1 C :   -0.128721
   2 C :   -0.065613
   3 C :   -0.011598
   4 C :   -0.143371
   5 H :    0.037188
   6 C :    0.055968
   7 H :    0.044071
   8 H :    0.002041
   9 C :   -0.075279
  10 H :    0.017081
  11 H :    0.052938
  12 C :   -0.044105
  13 H :    0.036569
  14 H :    0.033452
  15 H :    0.026062
  16 S :    0.089424
  17 C :   -0.083395
  18 C :   -0.026176
  19 C :   -0.098677
  20 C :   -0.094753
  21 H :    0.021763
  22 C :    0.084656
  23 H :   -0.024973
  24 H :    0.021241
  25 C :   -0.018528
  26 H :    0.017520
  27 H :    0.025775
  28 C :   -0.057708
  29 H :    0.030333
  30 H :    0.028123
  31 H :    0.037913
  32 H :    0.049236
  33 H :    0.057435
Sum of atomic charges:    0.0000000

LOEWDIN ATOMIC CHARGES
----------------------
   0 S :    0.414309
   1 C :   -0.201483
   2 C :   -0.066511
   3 C :   -0.077084
   4 C :   -0.184902
   5 H :    0.039491
   6 C :   -0.028629
   7 H :    0.037019
   8 H :    0.019837
   9 C :   -0.041258
  10 H :    0.015931
  11 H :    0.037876
  12 C :   -0.065203
  13 H :    0.020288
  14 H :    0.029515
  15 H :    0.028116
  16 S :    0.409546
  17 C :   -0.181436
  18 C :   -0.065817
  19 C :   -0.062476
  20 C :   -0.203346
  21 H :    0.029948
  22 C :   -0.037664
  23 H :    0.016660
  24 H :    0.036588
  25 C :   -0.028976
  26 H :    0.019655
  27 H :    0.025355
  28 C :   -0.061519
  29 H :    0.023750
  30 H :    0.020192
  31 H :    0.029167
  32 H :    0.026788
  33 H :    0.026274

  Mayer bond orders larger than 0.100000
B(  0-S ,  1-C ) :   1.1498 B(  0-S ,  4-C ) :   1.1715 B(  1-C ,  2-C ) :   1.5734
B(  1-C ,  4-C ) :   0.1064 B(  1-C , 32-H ) :   0.9800 B(  2-C ,  3-C ) :   1.2733
B(  2-C ,  6-C ) :   1.0083 B(  3-C ,  4-C ) :   1.5731 B(  3-C ,  5-H ) :   0.9759
B(  4-C , 20-C ) :   1.0221 B(  6-C ,  7-H ) :   0.9439 B(  6-C ,  8-H ) :   0.9449
B(  6-C ,  9-C ) :   1.0526 B(  9-C , 10-H ) :   0.9574 B(  9-C , 11-H ) :   0.9581
B(  9-C , 12-C ) :   1.0709 B( 12-C , 13-H ) :   0.9794 B( 12-C , 14-H ) :   0.9707
B( 12-C , 15-H ) :   0.9724 B( 16-S , 17-C ) :   1.1565 B( 16-S , 20-C ) :   1.1342
B( 17-C , 18-C ) :   1.6039 B( 17-C , 33-H ) :   0.9727 B( 18-C , 19-C ) :   1.2271
B( 18-C , 21-H ) :   0.9914 B( 19-C , 20-C ) :   1.6010 B( 19-C , 22-C ) :   1.0576
B( 22-C , 23-H ) :   0.9194 B( 22-C , 24-H ) :   0.9254 B( 22-C , 25-C ) :   1.0680
B( 25-C , 26-H ) :   0.9558 B( 25-C , 27-H ) :   0.9504 B( 25-C , 28-C ) :   1.0776
B( 28-C , 29-H ) :   0.9784 B( 28-C , 30-H ) :   0.9771 B( 28-C , 31-H ) :   0.9763

Dispersion correction           -0.013347221
FINAL SINGLE POINT ENERGY     -1339.874866439844

DIPOLE MOMENT
-------------
                                X             Y             Z
Electronic contribution:     20.85241     -13.66581     -20.30319
Nuclear contribution   :    -21.21615      13.90951      20.85856
                        -----------------------------------------
Total Dipole Moment    :     -0.36373       0.24371       0.55537
                        -----------------------------------------
Magnitude (a.u.)       :      0.70720
Magnitude (Debye)      :      1.79756

Rotational constants in cm-1:     0.017425     0.008533     0.006138
Rotational constants in MHz :   522.384732   255.826007   184.004205

                             ****ORCA TERMINATED NORMALLY****
TOTAL RUN TIME: 0 days 0 hours 0 minutes 21 seconds 26 msec
