                         Program Version 4.2.1 -  RELEASE  -
|  1> ! wB97X-D3 SP def2-SVP
|  2> %pal
|  3> nprocs 24
|  4> end
|  5>
|  6> * xyz 0 1
|  7> S 	 -84.1192 	 -38.6371 	 -72.1386
|  8> C 	 -83.6466 	 -38.2449 	 -73.7852
|  9> C 	 -83.7924 	 -39.3871 	 -74.6169
| 10> C 	 -84.2271 	 -40.5972 	 -73.888
| 11> C 	 -84.3272 	 -40.3453 	 -72.5168
| 12> H 	 -84.392 	 -41.5847 	 -74.2299
| 13> C 	 -83.4441 	 -39.3991 	 -76.0589
| 14> H 	 -83.6936 	 -38.4513 	 -76.3155
| 15> H 	 -84.0488 	 -40.0585 	 -76.6759
| 16> C 	 -81.9578 	 -39.5987 	 -76.2926
| 17> H 	 -81.6461 	 -39.5076 	 -77.3146
| 18> H 	 -81.4897 	 -38.8086 	 -75.7049
| 19> C 	 -81.4298 	 -40.9957 	 -75.8249
| 20> H 	 -80.4813 	 -41.1615 	 -76.3305
| 21> H 	 -81.2875 	 -41.0664 	 -74.7283
| 22> H 	 -82.1776 	 -41.7553 	 -76.1484
| 23> S 	 -84.2915 	 -40.8951 	 -69.849
| 24> C 	 -84.8005 	 -42.3637 	 -69.1921
| 25> C 	 -85.4226 	 -43.1796 	 -70.1596
| 26> C 	 -85.1823 	 -42.6455 	 -71.5081
| 27> C 	 -84.7007 	 -41.3222 	 -71.4476
| 28> H 	 -85.8044 	 -44.1344 	 -69.9492
| 29> C 	 -85.7083 	 -43.3325 	 -72.7261
| 30> H 	 -85.8849 	 -42.7692 	 -73.6639
| 31> H 	 -86.7034 	 -43.596 	 -72.5179
| 32> C 	 -85.0528 	 -44.7283 	 -73.0525
| 33> H 	 -85.5941 	 -45.071 	 -73.9314
| 34> H 	 -85.092 	 -45.3875 	 -72.1493
| 35> C 	 -83.5812 	 -44.6987 	 -73.4914
| 36> H 	 -83.2927 	 -45.734 	 -73.5981
| 37> H 	 -83.0089 	 -44.1346 	 -72.7414
| 38> H 	 -83.4109 	 -44.0849 	 -74.4415
| 39> H 	 -83.2989 	 -37.2823 	 -74.02
| 40> H 	 -84.6409 	 -42.5833 	 -68.1496
| 41> *
| 42>
| 43>                          ****END OF INPUT****

CARTESIAN COORDINATES (ANGSTROEM)
---------------------------------
  S    -84.119200  -38.637100  -72.138600
  C    -83.646600  -38.244900  -73.785200
  C    -83.792400  -39.387100  -74.616900
  C    -84.227100  -40.597200  -73.888000
  C    -84.327200  -40.345300  -72.516800
  H    -84.392000  -41.584700  -74.229900
  C    -83.444100  -39.399100  -76.058900
  H    -83.693600  -38.451300  -76.315500
  H    -84.048800  -40.058500  -76.675900
  C    -81.957800  -39.598700  -76.292600
  H    -81.646100  -39.507600  -77.314600
  H    -81.489700  -38.808600  -75.704900
  C    -81.429800  -40.995700  -75.824900
  H    -80.481300  -41.161500  -76.330500
  H    -81.287500  -41.066400  -74.728300
  H    -82.177600  -41.755300  -76.148400
  S    -84.291500  -40.895100  -69.849000
  C    -84.800500  -42.363700  -69.192100
  C    -85.422600  -43.179600  -70.159600
  C    -85.182300  -42.645500  -71.508100
  C    -84.700700  -41.322200  -71.447600
  H    -85.804400  -44.134400  -69.949200
  C    -85.708300  -43.332500  -72.726100
  H    -85.884900  -42.769200  -73.663900
  H    -86.703400  -43.596000  -72.517900
  C    -85.052800  -44.728300  -73.052500
  H    -85.594100  -45.071000  -73.931400
  H    -85.092000  -45.387500  -72.149300
  C    -83.581200  -44.698700  -73.491400
  H    -83.292700  -45.734000  -73.598100
  H    -83.008900  -44.134600  -72.741400
  H    -83.410900  -44.084900  -74.441500
  H    -83.298900  -37.282300  -74.020000
  H    -84.640900  -42.583300  -68.149600

 Total Charge           Charge          ....    0
 Multiplicity           Mult            ....    1
 Number of Electrons    NEL             ....  134
 Basis Dimension        Dim             ....  322

ORBITAL ENERGIES
----------------

  NO   OCC          E(Eh)            E(eV)
   0   2.0000     -88.965933     -2420.8861
   1   2.0000     -88.965841     -2420.8836
   2   2.0000     -10.336098      -281.2595
   3   2.0000     -10.328893      -281.0635
   4   2.0000     -10.319097      -280.7969
   5   2.0000     -10.316138      -280.7164
   6   2.0000     -10.311311      -280.5850
   7   2.0000     -10.310058      -280.5509
   8   2.0000     -10.300542      -280.2920
   9   2.0000     -10.295349      -280.1507
  10   2.0000     -10.292867      -280.0832
  11   2.0000     -10.291052      -280.0338
  12   2.0000     -10.282231      -279.7937
  13   2.0000     -10.279734      -279.7258
  14   2.0000     -10.278154      -279.6828
  15   2.0000     -10.278018      -279.6791
  16   2.0000      -8.082746      -219.9427
  17   2.0000      -8.080193      -219.8732
  18   2.0000      -6.041069      -164.3858
  19   2.0000      -6.038813      -164.3245
  20   2.0000      -6.036751      -164.2683
  21   2.0000      -6.034767      -164.2144
  22   2.0000      -6.033813      -164.1884
  23   2.0000      -6.030875      -164.1084
  24   2.0000      -1.009403       -27.4672
  25   2.0000      -0.980892       -26.6914
  26   2.0000      -0.915922       -24.9235
  27   2.0000      -0.910722       -24.7820
  28   2.0000      -0.864042       -23.5118
  29   2.0000      -0.852282       -23.1918
  30   2.0000      -0.839024       -22.8310
  31   2.0000      -0.816529       -22.2189
  32   2.0000      -0.786122       -21.3915
  33   2.0000      -0.772040       -21.0083
  34   2.0000      -0.701390       -19.0858
  35   2.0000      -0.697691       -18.9851
  36   2.0000      -0.687598       -18.7105
  37   2.0000      -0.663331       -18.0502
  38   2.0000      -0.646071       -17.5805
  39   2.0000      -0.619456       -16.8563
  40   2.0000      -0.601972       -16.3805
  41   2.0000      -0.577553       -15.7160
  42   2.0000      -0.556208       -15.1352
  43   2.0000      -0.550289       -14.9741
  44   2.0000      -0.548600       -14.9282
  45   2.0000      -0.538101       -14.6425
  46   2.0000      -0.519927       -14.1479
  47   2.0000      -0.511368       -13.9150
  48   2.0000      -0.501484       -13.6461
  49   2.0000      -0.499763       -13.5992
  50   2.0000      -0.494743       -13.4626
  51   2.0000      -0.479127       -13.0377
  52   2.0000      -0.467541       -12.7224
  53   2.0000      -0.466549       -12.6954
  54   2.0000      -0.459957       -12.5161
  55   2.0000      -0.450552       -12.2601
  56   2.0000      -0.440976       -11.9996
  57   2.0000      -0.435896       -11.8613
  58   2.0000      -0.431087       -11.7305
  59   2.0000      -0.424938       -11.5632
  60   2.0000      -0.420484       -11.4419
  61   2.0000      -0.414640       -11.2829
  62   2.0000      -0.408573       -11.1178
  63   2.0000      -0.359129        -9.7724
  64   2.0000      -0.331202        -9.0125
  65   2.0000      -0.323758        -8.8099
  66   2.0000      -0.282564        -7.6890
  67   0.0000       0.023138         0.6296
  68   0.0000       0.079168         2.1543
  69   0.0000       0.100929         2.7464
  70   0.0000       0.108493         2.9522
  71   0.0000       0.130969         3.5638

MULLIKEN ATOMIC CHARGES
-----------------------
   0 S :    0.092131
   1 C :   -0.109738
   2 C :   -0.108696
   3 C :    0.022721
   4 C :   -0.099540
   5 H :   -0.020707
   6 C :    0.133414
   7 H :   -0.010305
   8 H :    0.020854
   9 C :   -0.063693
  10 H :    0.026552
  11 H :    0.020694
  12 C :   -0.076885
  13 H :    0.035160
  14 H :    0.055850
  15 H :    0.029324
  16 S :    0.110888
  17 C :   -0.091455
  18 C :    0.000818
  19 C :   -0.061754
  20 C :   -0.112245
  21 H :    0.006395
  22 C :    0.025444
  23 H :    0.033410
  24 H :    0.018983
  25 C :   -0.102269
  26 H :    0.032572
  27 H :    0.039634
  28 C :   -0.070777
  29 H :    0.043932
  30 H :    0.042906
  31 H :    0.036404
  32 H :    0.037296
  33 H :    0.062680
Sum of atomic charges:   -0.0000000

LOEWDIN ATOMIC CHARGES
----------------------
   0 S :    0.389282
   1 C :   -0.195441
   2 C :   -0.040758
   3 C :   -0.067149
   4 C :   -0.174941
   5 H :    0.019476
   6 C :   -0.032324
   7 H :    0.018986
   8 H :    0.028594
   9 C :   -0.032876
  10 H :    0.019671
  11 H :    0.022999
  12 C :   -0.068392
  13 H :    0.025162
  14 H :    0.030723
  15 H :    0.023651
  16 S :    0.451917
  17 C :   -0.199905
  18 C :   -0.060786
  19 C :   -0.054852
  20 C :   -0.214531
  21 H :    0.021206
  22 C :   -0.043901
  23 H :    0.035034
  24 H :    0.031421
  25 C :   -0.037602
  26 H :    0.024731
  27 H :    0.027283
  28 C :   -0.073298
  29 H :    0.026221
  30 H :    0.026761
  31 H :    0.027878
  32 H :    0.017551
  33 H :    0.028207

  Mayer bond orders larger than 0.100000
B(  0-S ,  1-C ) :   1.1240 B(  0-S ,  4-C ) :   1.1553 B(  1-C ,  2-C ) :   1.5959
B(  1-C , 32-H ) :   0.9802 B(  2-C ,  3-C ) :   1.2072 B(  2-C ,  6-C ) :   1.0289
B(  3-C ,  4-C ) :   1.5836 B(  3-C ,  5-H ) :   0.9934 B(  4-C , 20-C ) :   1.0437
B(  6-C ,  7-H ) :   0.9206 B(  6-C ,  8-H ) :   0.9404 B(  6-C ,  9-C ) :   1.0810
B(  9-C , 10-H ) :   0.9600 B(  9-C , 11-H ) :   0.9525 B(  9-C , 12-C ) :   1.0728
B( 12-C , 13-H ) :   0.9763 B( 12-C , 14-H ) :   0.9738 B( 12-C , 15-H ) :   0.9761
B( 16-S , 17-C ) :   1.1971 B( 16-S , 20-C ) :   1.1584 B( 17-C , 18-C ) :   1.5525
B( 17-C , 33-H ) :   0.9732 B( 18-C , 19-C ) :   1.2629 B( 18-C , 21-H ) :   0.9930
B( 19-C , 20-C ) :   1.5543 B( 19-C , 22-C ) :   1.0343 B( 22-C , 23-H ) :   0.9455
B( 22-C , 24-H ) :   0.9275 B( 22-C , 25-C ) :   1.0665 B( 25-C , 26-H ) :   0.9550
B( 25-C , 27-H ) :   0.9580 B( 25-C , 28-C ) :   1.0779 B( 28-C , 29-H ) :   0.9741
B( 28-C , 30-H ) :   0.9751 B( 28-C , 31-H ) :   0.9699

Dispersion correction           -0.015308587
FINAL SINGLE POINT ENERGY     -1339.868596657405

DIPOLE MOMENT
-------------
                                X             Y             Z
Electronic contribution:     -7.21019      16.11283      22.51012
Nuclear contribution   :      7.19279     -16.55569     -22.89326
                        -----------------------------------------
Total Dipole Moment    :     -0.01740      -0.44286      -0.38314
                        -----------------------------------------
Magnitude (a.u.)       :      0.58586
Magnitude (Debye)      :      1.48913

Rotational constants in cm-1:     0.018362     0.010139     0.007248
Rotational constants in MHz :   550.484219   303.950936   217.285815

                             ****ORCA TERMINATED NORMALLY****
TOTAL RUN TIME: 0 days 0 hours 0 minutes 22 seconds 634 msec
