                         Program Version 4.2.1 -  RELEASE  -
|  1> ! wB97X-D3 SP def2-SVP
|  2> %pal
|  3> nprocs 24
|  4> end
|  5>
|  6> * xyz 0 1
|  7> S 	 -40.5017 	 10.4499 	 25.06
|  8> C 	 -40.3984 	 11.6424 	 26.3762
|  9> C 	 -39.4829 	 11.2331 	 27.2908
| 10> C 	 -38.9597 	 9.9222 	 27.0658
| 11> C 	 -39.3676 	 9.33878 	 25.831
| 12> H 	 -38.2883 	 9.33188 	 27.7971
| 13> C 	 -39.1189 	 12.0002 	 28.5269
| 14> H 	 -39.271 	 11.2642 	 29.3714
| 15> H 	 -39.8978 	 12.7613 	 28.5827
| 16> C 	 -37.7141 	 12.6186 	 28.4506
| 17> H 	 -37.0638 	 11.851 	 28.0423
| 18> H 	 -37.5474 	 13.382 	 27.7013
| 19> C 	 -37.1416 	 13.1337 	 29.7902
| 20> H 	 -36.2537 	 13.7549 	 29.6381
| 21> H 	 -37.786 	 13.8171 	 30.3156
| 22> H 	 -36.9471 	 12.2164 	 30.4446
| 23> S 	 -38.255 	 7.62981 	 23.9474
| 24> C 	 -38.5075 	 5.93532 	 24.0991
| 25> C 	 -39.3937 	 5.63663 	 25.0951
| 26> C 	 -39.6754 	 6.76654 	 25.9263
| 27> C 	 -39.2179 	 7.94399 	 25.3504
| 28> H 	 -39.7304 	 4.59415 	 25.2561
| 29> C 	 -40.5334 	 6.6703 	 27.1574
| 30> H 	 -40.3926 	 7.62263 	 27.7144
| 31> H 	 -40.0174 	 6.04434 	 27.7804
| 32> C 	 -42.0425 	 6.39918 	 27.0819
| 33> H 	 -42.5236 	 7.07532 	 26.4103
| 34> H 	 -42.4604 	 6.41691 	 28.1175
| 35> C 	 -42.2061 	 4.95363 	 26.5692
| 36> H 	 -43.15 	 4.45677 	 26.6087
| 37> H 	 -41.6194 	 4.22954 	 27.1661
| 38> H 	 -41.9668 	 4.78113 	 25.5146
| 39> H 	 -41.0236 	 12.5107 	 26.2852
| 40> H 	 -37.982 	 5.10896 	 23.5381
| 41> *
| 42>
| 43>                          ****END OF INPUT****

CARTESIAN COORDINATES (ANGSTROEM)
---------------------------------
  S    -40.501700   10.449900   25.060000
  C    -40.398400   11.642400   26.376200
  C    -39.482900   11.233100   27.290800
  C    -38.959700    9.922200   27.065800
  C    -39.367600    9.338780   25.831000
  H    -38.288300    9.331880   27.797100
  C    -39.118900   12.000200   28.526900
  H    -39.271000   11.264200   29.371400
  H    -39.897800   12.761300   28.582700
  C    -37.714100   12.618600   28.450600
  H    -37.063800   11.851000   28.042300
  H    -37.547400   13.382000   27.701300
  C    -37.141600   13.133700   29.790200
  H    -36.253700   13.754900   29.638100
  H    -37.786000   13.817100   30.315600
  H    -36.947100   12.216400   30.444600
  S    -38.255000    7.629810   23.947400
  C    -38.507500    5.935320   24.099100
  C    -39.393700    5.636630   25.095100
  C    -39.675400    6.766540   25.926300
  C    -39.217900    7.943990   25.350400
  H    -39.730400    4.594150   25.256100
  C    -40.533400    6.670300   27.157400
  H    -40.392600    7.622630   27.714400
  H    -40.017400    6.044340   27.780400
  C    -42.042500    6.399180   27.081900
  H    -42.523600    7.075320   26.410300
  H    -42.460400    6.416910   28.117500
  C    -42.206100    4.953630   26.569200
  H    -43.150000    4.456770   26.608700
  H    -41.619400    4.229540   27.166100
  H    -41.966800    4.781130   25.514600
  H    -41.023600   12.510700   26.285200
  H    -37.982000    5.108960   23.538100

 Total Charge           Charge          ....    0
 Multiplicity           Mult            ....    1
 Number of Electrons    NEL             ....  134
 Basis Dimension        Dim             ....  322

ORBITAL ENERGIES
----------------

  NO   OCC          E(Eh)            E(eV)
   0   2.0000     -88.965729     -2420.8806
   1   2.0000     -88.961280     -2420.7595
   2   2.0000     -10.336177      -281.2617
   3   2.0000     -10.325451      -280.9698
   4   2.0000     -10.316451      -280.7249
   5   2.0000     -10.315744      -280.7057
   6   2.0000     -10.305963      -280.4395
   7   2.0000     -10.302103      -280.3345
   8   2.0000     -10.300082      -280.2795
   9   2.0000     -10.296249      -280.1752
  10   2.0000     -10.291536      -280.0469
  11   2.0000     -10.291328      -280.0413
  12   2.0000     -10.286192      -279.9015
  13   2.0000     -10.282910      -279.8122
  14   2.0000     -10.280439      -279.7450
  15   2.0000     -10.272961      -279.5415
  16   2.0000      -8.081314      -219.9037
  17   2.0000      -8.075680      -219.7504
  18   2.0000      -6.039739      -164.3496
  19   2.0000      -6.035664      -164.2388
  20   2.0000      -6.034215      -164.1993
  21   2.0000      -6.032144      -164.1430
  22   2.0000      -6.030064      -164.0864
  23   2.0000      -6.026605      -163.9923
  24   2.0000      -1.006707       -27.3939
  25   2.0000      -0.984792       -26.7976
  26   2.0000      -0.910528       -24.7767
  27   2.0000      -0.909760       -24.7558
  28   2.0000      -0.867003       -23.5924
  29   2.0000      -0.847527       -23.0624
  30   2.0000      -0.842241       -22.9185
  31   2.0000      -0.813120       -22.1261
  32   2.0000      -0.783459       -21.3190
  33   2.0000      -0.770326       -20.9616
  34   2.0000      -0.711945       -19.3730
  35   2.0000      -0.702568       -19.1179
  36   2.0000      -0.692243       -18.8369
  37   2.0000      -0.655356       -17.8331
  38   2.0000      -0.641445       -17.4546
  39   2.0000      -0.617117       -16.7926
  40   2.0000      -0.595835       -16.2135
  41   2.0000      -0.566817       -15.4239
  42   2.0000      -0.556728       -15.1493
  43   2.0000      -0.548716       -14.9313
  44   2.0000      -0.535474       -14.5710
  45   2.0000      -0.524355       -14.2684
  46   2.0000      -0.517888       -14.0925
  47   2.0000      -0.513317       -13.9681
  48   2.0000      -0.508646       -13.8409
  49   2.0000      -0.495578       -13.4854
  50   2.0000      -0.484384       -13.1808
  51   2.0000      -0.480332       -13.0705
  52   2.0000      -0.471165       -12.8211
  53   2.0000      -0.465076       -12.6554
  54   2.0000      -0.459016       -12.4905
  55   2.0000      -0.444940       -12.1074
  56   2.0000      -0.442248       -12.0342
  57   2.0000      -0.438301       -11.9268
  58   2.0000      -0.430509       -11.7147
  59   2.0000      -0.421650       -11.4737
  60   2.0000      -0.417489       -11.3605
  61   2.0000      -0.413216       -11.2442
  62   2.0000      -0.408581       -11.1180
  63   2.0000      -0.337639        -9.1876
  64   2.0000      -0.332378        -9.0445
  65   2.0000      -0.326070        -8.8728
  66   2.0000      -0.301313        -8.1991
  67   0.0000       0.041604         1.1321
  68   0.0000       0.058403         1.5892
  69   0.0000       0.119216         3.2440
  70   0.0000       0.122571         3.3353
  71   0.0000       0.127217         3.4617

MULLIKEN ATOMIC CHARGES
-----------------------
   0 S :    0.086728
   1 C :   -0.140502
   2 C :   -0.089273
   3 C :    0.013676
   4 C :   -0.154529
   5 H :    0.049617
   6 C :    0.077254
   7 H :    0.041682
   8 H :    0.014107
   9 C :   -0.063105
  10 H :    0.021326
  11 H :    0.022641
  12 C :   -0.054199
  13 H :    0.035134
  14 H :    0.025767
  15 H :    0.044188
  16 S :    0.127618
  17 C :   -0.107990
  18 C :   -0.053575
  19 C :   -0.052775
  20 C :   -0.175322
  21 H :    0.030772
  22 C :    0.094383
  23 H :    0.010860
  24 H :   -0.001395
  25 C :    0.006448
  26 H :    0.038075
  27 H :    0.042580
  28 C :   -0.087200
  29 H :    0.014589
  30 H :    0.016881
  31 H :    0.037865
  32 H :    0.051943
  33 H :    0.075732
Sum of atomic charges:   -0.0000000

LOEWDIN ATOMIC CHARGES
----------------------
   0 S :    0.385638
   1 C :   -0.181244
   2 C :   -0.073779
   3 C :   -0.072880
   4 C :   -0.191419
   5 H :    0.045680
   6 C :   -0.029165
   7 H :    0.039566
   8 H :    0.027254
   9 C :   -0.045551
  10 H :    0.024407
  11 H :    0.025859
  12 C :   -0.069960
  13 H :    0.028335
  14 H :    0.020018
  15 H :    0.033378
  16 S :    0.429887
  17 C :   -0.205220
  18 C :   -0.079932
  19 C :   -0.049320
  20 C :   -0.217052
  21 H :    0.036851
  22 C :   -0.034225
  23 H :    0.034667
  24 H :    0.018569
  25 C :   -0.021899
  26 H :    0.026470
  27 H :    0.035888
  28 C :   -0.080865
  29 H :    0.018912
  30 H :    0.023575
  31 H :    0.026079
  32 H :    0.026624
  33 H :    0.044857

  Mayer bond orders larger than 0.100000
B(  0-S ,  1-C ) :   1.1339 B(  0-S ,  4-C ) :   1.1668 B(  1-C ,  2-C ) :   1.6009
B(  1-C ,  4-C ) :   0.1024 B(  1-C , 32-H ) :   0.9789 B(  2-C ,  3-C ) :   1.2377
B(  2-C ,  6-C ) :   1.0193 B(  3-C ,  4-C ) :   1.5708 B(  3-C ,  5-H ) :   0.9779
B(  4-C , 20-C ) :   0.9952 B(  6-C ,  7-H ) :   0.9445 B(  6-C ,  8-H ) :   0.9374
B(  6-C ,  9-C ) :   1.0499 B(  9-C , 10-H ) :   0.9587 B(  9-C , 11-H ) :   0.9526
B(  9-C , 12-C ) :   1.0801 B( 12-C , 13-H ) :   0.9745 B( 12-C , 14-H ) :   0.9754
B( 12-C , 15-H ) :   0.9771 B( 16-S , 17-C ) :   1.1644 B( 16-S , 20-C ) :   1.1545
B( 17-C , 18-C ) :   1.6117 B( 17-C , 33-H ) :   0.9552 B( 18-C , 19-C ) :   1.2494
B( 18-C , 21-H ) :   0.9797 B( 19-C , 20-C ) :   1.5919 B( 19-C , 22-C ) :   1.0447
B( 22-C , 23-H ) :   0.9174 B( 22-C , 24-H ) :   0.9206 B( 22-C , 25-C ) :   1.0717
B( 25-C , 26-H ) :   0.9552 B( 25-C , 27-H ) :   0.9504 B( 25-C , 28-C ) :   1.0764
B( 28-C , 29-H ) :   0.9701 B( 28-C , 30-H ) :   0.9727 B( 28-C , 31-H ) :   0.9693

Dispersion correction           -0.014354478
FINAL SINGLE POINT ENERGY     -1339.871325350344

DIPOLE MOMENT
-------------
                                X             Y             Z
Electronic contribution:      2.38904      -0.74246     -21.98878
Nuclear contribution   :     -2.46083       0.60368      22.58916
                        -----------------------------------------
Total Dipole Moment    :     -0.07178      -0.13878       0.60037
                        -----------------------------------------
Magnitude (a.u.)       :      0.62037
Magnitude (Debye)      :      1.57685

Rotational constants in cm-1:     0.021065     0.007291     0.006654
Rotational constants in MHz :   631.521822   218.582068   199.478257

                             ****ORCA TERMINATED NORMALLY****
TOTAL RUN TIME: 0 days 0 hours 0 minutes 21 seconds 283 msec
