                         Program Version 4.2.1 -  RELEASE  -
|  1> ! wB97X-D3 SP def2-SVP
|  2> %pal
|  3> nprocs 24
|  4> end
|  5>
|  6> * xyz 0 1
|  7> S 	 45.172 	 -19.8271 	 -115.989
|  8> C 	 46.6465 	 -20.8213 	 -115.991
|  9> C 	 46.6553 	 -21.5766 	 -114.825
| 10> C 	 45.3955 	 -21.5142 	 -114.127
| 11> C 	 44.4992 	 -20.6624 	 -114.665
| 12> H 	 45.265 	 -22.0693 	 -113.22
| 13> C 	 47.8765 	 -22.3849 	 -114.336
| 14> H 	 47.8898 	 -22.332 	 -113.303
| 15> H 	 48.8991 	 -21.9868 	 -114.563
| 16> C 	 47.9607 	 -23.9285 	 -114.631
| 17> H 	 47.9591 	 -24.1853 	 -115.704
| 18> H 	 48.9025 	 -24.4272 	 -114.393
| 19> C 	 46.7617 	 -24.7249 	 -114.092
| 20> H 	 46.7407 	 -24.877 	 -113.003
| 21> H 	 45.9166 	 -24.1438 	 -114.365
| 22> H 	 46.6424 	 -25.7535 	 -114.542
| 23> S 	 42.7645 	 -18.564 	 -114.33
| 24> C 	 41.314 	 -18.7924 	 -113.454
| 25> C 	 41.1235 	 -20.0954 	 -113.052
| 26> C 	 42.1302 	 -21.0031 	 -113.573
| 27> C 	 43.2023 	 -20.2507 	 -114.17
| 28> H 	 40.2002 	 -20.2068 	 -112.594
| 29> C 	 42.0887 	 -22.5644 	 -113.394
| 30> H 	 41.0588 	 -22.786 	 -113.117
| 31> H 	 42.6695 	 -22.8871 	 -112.484
| 32> C 	 42.369 	 -23.3984 	 -114.649
| 33> H 	 43.3992 	 -23.2444 	 -114.824
| 34> H 	 41.8471 	 -23.0183 	 -115.563
| 35> C 	 41.9534 	 -24.8746 	 -114.411
| 36> H 	 42.3947 	 -25.1488 	 -113.395
| 37> H 	 42.4289 	 -25.4831 	 -115.167
| 38> H 	 40.8768 	 -25.0043 	 -114.453
| 39> H 	 47.521 	 -20.666 	 -116.524
| 40> H 	 40.5106 	 -18.0178 	 -113.292
| 41> *
| 42>
| 43>                          ****END OF INPUT****

CARTESIAN COORDINATES (ANGSTROEM)
---------------------------------
  S     45.172000  -19.827100  -115.989000
  C     46.646500  -20.821300  -115.991000
  C     46.655300  -21.576600  -114.825000
  C     45.395500  -21.514200  -114.127000
  C     44.499200  -20.662400  -114.665000
  H     45.265000  -22.069300  -113.220000
  C     47.876500  -22.384900  -114.336000
  H     47.889800  -22.332000  -113.303000
  H     48.899100  -21.986800  -114.563000
  C     47.960700  -23.928500  -114.631000
  H     47.959100  -24.185300  -115.704000
  H     48.902500  -24.427200  -114.393000
  C     46.761700  -24.724900  -114.092000
  H     46.740700  -24.877000  -113.003000
  H     45.916600  -24.143800  -114.365000
  H     46.642400  -25.753500  -114.542000
  S     42.764500  -18.564000  -114.330000
  C     41.314000  -18.792400  -113.454000
  C     41.123500  -20.095400  -113.052000
  C     42.130200  -21.003100  -113.573000
  C     43.202300  -20.250700  -114.170000
  H     40.200200  -20.206800  -112.594000
  C     42.088700  -22.564400  -113.394000
  H     41.058800  -22.786000  -113.117000
  H     42.669500  -22.887100  -112.484000
  C     42.369000  -23.398400  -114.649000
  H     43.399200  -23.244400  -114.824000
  H     41.847100  -23.018300  -115.563000
  C     41.953400  -24.874600  -114.411000
  H     42.394700  -25.148800  -113.395000
  H     42.428900  -25.483100  -115.167000
  H     40.876800  -25.004300  -114.453000
  H     47.521000  -20.666000  -116.524000
  H     40.510600  -18.017800  -113.292000

 Total Charge           Charge          ....    0
 Multiplicity           Mult            ....    1
 Number of Electrons    NEL             ....  134
 Basis Dimension        Dim             ....  322

ORBITAL ENERGIES
----------------

  NO   OCC          E(Eh)            E(eV)
   0   2.0000     -88.968717     -2420.9619
   1   2.0000     -88.966262     -2420.8951
   2   2.0000     -10.331752      -281.1413
   3   2.0000     -10.328204      -281.0447
   4   2.0000     -10.317889      -280.7640
   5   2.0000     -10.317209      -280.7455
   6   2.0000     -10.312688      -280.6225
   7   2.0000     -10.308698      -280.5139
   8   2.0000     -10.298876      -280.2467
   9   2.0000     -10.298039      -280.2239
  10   2.0000     -10.292554      -280.0746
  11   2.0000     -10.291765      -280.0532
  12   2.0000     -10.289481      -279.9910
  13   2.0000     -10.282327      -279.7963
  14   2.0000     -10.281626      -279.7773
  15   2.0000     -10.276380      -279.6345
  16   2.0000      -8.084040      -219.9779
  17   2.0000      -8.081564      -219.9105
  18   2.0000      -6.042465      -164.4238
  19   2.0000      -6.040145      -164.3607
  20   2.0000      -6.038400      -164.3132
  21   2.0000      -6.036024      -164.2486
  22   2.0000      -6.034924      -164.2186
  23   2.0000      -6.032157      -164.1433
  24   2.0000      -1.013440       -27.5771
  25   2.0000      -0.985959       -26.8293
  26   2.0000      -0.908115       -24.7111
  27   2.0000      -0.904273       -24.6065
  28   2.0000      -0.871906       -23.7258
  29   2.0000      -0.849844       -23.1254
  30   2.0000      -0.841919       -22.9098
  31   2.0000      -0.818610       -22.2755
  32   2.0000      -0.785482       -21.3741
  33   2.0000      -0.770843       -20.9757
  34   2.0000      -0.710539       -19.3348
  35   2.0000      -0.704113       -19.1599
  36   2.0000      -0.689299       -18.7568
  37   2.0000      -0.660535       -17.9741
  38   2.0000      -0.638995       -17.3879
  39   2.0000      -0.625062       -17.0088
  40   2.0000      -0.591430       -16.0936
  41   2.0000      -0.572498       -15.5785
  42   2.0000      -0.564368       -15.3572
  43   2.0000      -0.547997       -14.9118
  44   2.0000      -0.536393       -14.5960
  45   2.0000      -0.519124       -14.1261
  46   2.0000      -0.514307       -13.9950
  47   2.0000      -0.511716       -13.9245
  48   2.0000      -0.509254       -13.8575
  49   2.0000      -0.500335       -13.6148
  50   2.0000      -0.490279       -13.3412
  51   2.0000      -0.485169       -13.2021
  52   2.0000      -0.473873       -12.8948
  53   2.0000      -0.467252       -12.7146
  54   2.0000      -0.458431       -12.4745
  55   2.0000      -0.449469       -12.2307
  56   2.0000      -0.443015       -12.0550
  57   2.0000      -0.435049       -11.8383
  58   2.0000      -0.431367       -11.7381
  59   2.0000      -0.428213       -11.6523
  60   2.0000      -0.418571       -11.3899
  61   2.0000      -0.410727       -11.1765
  62   2.0000      -0.407636       -11.0923
  63   2.0000      -0.355458        -9.6725
  64   2.0000      -0.335333        -9.1249
  65   2.0000      -0.330161        -8.9841
  66   2.0000      -0.288699        -7.8559
  67   0.0000       0.021459         0.5839
  68   0.0000       0.075355         2.0505
  69   0.0000       0.104467         2.8427
  70   0.0000       0.116960         3.1826
  71   0.0000       0.128444         3.4951

MULLIKEN ATOMIC CHARGES
-----------------------
   0 S :    0.091825
   1 C :   -0.067013
   2 C :   -0.116335
   3 C :    0.017739
   4 C :   -0.108937
   5 H :    0.005713
   6 C :    0.080504
   7 H :    0.008912
   8 H :    0.032995
   9 C :   -0.065996
  10 H :    0.022695
  11 H :    0.023881
  12 C :   -0.080936
  13 H :    0.029608
  14 H :    0.024473
  15 H :    0.040215
  16 S :    0.115686
  17 C :   -0.120428
  18 C :   -0.012685
  19 C :   -0.028055
  20 C :   -0.142049
  21 H :   -0.005703
  22 C :    0.032540
  23 H :    0.008360
  24 H :    0.051000
  25 C :   -0.079636
  26 H :    0.033996
  27 H :    0.038997
  28 C :   -0.047414
  29 H :    0.034109
  30 H :    0.035837
  31 H :    0.043647
  32 H :    0.025494
  33 H :    0.076961
Sum of atomic charges:    0.0000000

LOEWDIN ATOMIC CHARGES
----------------------
   0 S :    0.411392
   1 C :   -0.177677
   2 C :   -0.053274
   3 C :   -0.069843
   4 C :   -0.200502
   5 H :    0.028574
   6 C :   -0.030920
   7 H :    0.021956
   8 H :    0.039340
   9 C :   -0.046035
  10 H :    0.025776
  11 H :    0.022831
  12 C :   -0.074024
  13 H :    0.020600
  14 H :    0.018806
  15 H :    0.033010
  16 S :    0.423426
  17 C :   -0.207293
  18 C :   -0.071767
  19 C :   -0.045100
  20 C :   -0.201879
  21 H :    0.022618
  22 C :   -0.036940
  23 H :    0.026008
  24 H :    0.036515
  25 C :   -0.043129
  26 H :    0.015095
  27 H :    0.032217
  28 C :   -0.062316
  29 H :    0.031237
  30 H :    0.025738
  31 H :    0.025224
  32 H :    0.016789
  33 H :    0.043548

  Mayer bond orders larger than 0.100000
B(  0-S ,  1-C ) :   1.1244 B(  0-S ,  4-C ) :   1.1554 B(  1-C ,  2-C ) :   1.6255
B(  1-C , 32-H ) :   0.9756 B(  2-C ,  3-C ) :   1.2385 B(  2-C ,  6-C ) :   1.0186
B(  3-C ,  4-C ) :   1.5530 B(  3-C ,  5-H ) :   1.0013 B(  4-C , 20-C ) :   1.0692
B(  6-C ,  7-H ) :   0.9396 B(  6-C ,  8-H ) :   0.9471 B(  6-C ,  9-C ) :   1.0571
B(  9-C , 10-H ) :   0.9571 B(  9-C , 11-H ) :   0.9579 B(  9-C , 12-C ) :   1.0716
B( 12-C , 13-H ) :   0.9754 B( 12-C , 14-H ) :   0.9763 B( 12-C , 15-H ) :   0.9727
B( 16-S , 17-C ) :   1.1623 B( 16-S , 20-C ) :   1.1527 B( 17-C , 18-C ) :   1.6198
B( 17-C , 33-H ) :   0.9562 B( 18-C , 19-C ) :   1.2406 B( 18-C , 21-H ) :   0.9972
B( 19-C , 20-C ) :   1.5432 B( 19-C , 22-C ) :   1.0296 B( 22-C , 23-H ) :   0.9391
B( 22-C , 24-H ) :   0.9339 B( 22-C , 25-C ) :   1.0538 B( 25-C , 26-H ) :   0.9539
B( 25-C , 27-H ) :   0.9529 B( 25-C , 28-C ) :   1.0820 B( 28-C , 29-H ) :   0.9725
B( 28-C , 30-H ) :   0.9741 B( 28-C , 31-H ) :   0.9766

Dispersion correction           -0.015068544
FINAL SINGLE POINT ENERGY     -1339.862502509635

DIPOLE MOMENT
-------------
                                X             Y             Z
Electronic contribution:     -4.85361      30.56789      -5.31496
Nuclear contribution   :      4.86894     -30.99932       5.60256
                        -----------------------------------------
Total Dipole Moment    :      0.01533      -0.43143       0.28759
                        -----------------------------------------
Magnitude (a.u.)       :      0.51873
Magnitude (Debye)      :      1.31850

Rotational constants in cm-1:     0.018013     0.010106     0.007135
Rotational constants in MHz :   540.012191   302.968487   213.909078

                             ****ORCA TERMINATED NORMALLY****
TOTAL RUN TIME: 0 days 0 hours 0 minutes 21 seconds 401 msec
