                         Program Version 4.2.1 -  RELEASE  -
|  1> ! wB97X-D3 SP def2-SVP
|  2> %pal
|  3> nprocs 24
|  4> end
|  5>
|  6> * xyz 0 1
|  7> S 	 -95.4938 	 8.58231 	 -1.36361
|  8> C 	 -94.2174 	 8.80393 	 -2.54402
|  9> C 	 -94.7401 	 8.42926 	 -3.78514
| 10> C 	 -96.0186 	 7.79502 	 -3.69838
| 11> C 	 -96.588 	 7.8724 	 -2.50539
| 12> H 	 -96.719 	 7.47984 	 -4.48068
| 13> C 	 -94.0589 	 8.46087 	 -5.14932
| 14> H 	 -94.3191 	 7.5851 	 -5.80965
| 15> H 	 -92.9916 	 8.26106 	 -5.07029
| 16> C 	 -94.2359 	 9.75735 	 -5.98069
| 17> H 	 -94.1002 	 10.6564 	 -5.41422
| 18> H 	 -93.6177 	 9.723 	 -6.80307
| 19> C 	 -95.6916 	 10.0264 	 -6.40298
| 20> H 	 -95.8585 	 10.9331 	 -6.97468
| 21> H 	 -95.9973 	 9.17834 	 -7.07491
| 22> H 	 -96.4699 	 10.1689 	 -5.63603
| 23> S 	 -98.1039 	 5.86243 	 -1.34603
| 24> C 	 -99.8067 	 5.98598 	 -1.31867
| 25> C 	 -100.229 	 7.11514 	 -1.96863
| 26> C 	 -99.2013 	 8.017 	 -2.42423
| 27> C 	 -97.9379 	 7.45361 	 -2.15767
| 28> H 	 -101.288 	 7.39171 	 -1.92639
| 29> C 	 -99.454 	 9.37333 	 -3.04768
| 30> H 	 -98.5128 	 9.94797 	 -2.88285
| 31> H 	 -100.263 	 9.85 	 -2.5453
| 32> C 	 -99.6629 	 9.18573 	 -4.56271
| 33> H 	 -100.038 	 8.21485 	 -4.82126
| 34> H 	 -98.7508 	 9.42422 	 -5.13727
| 35> C 	 -100.765 	 10.1641 	 -4.98829
| 36> H 	 -101.765 	 10.0961 	 -4.5013
| 37> H 	 -100.86 	 9.97858 	 -6.03028
| 38> H 	 -100.411 	 11.1984 	 -4.8201
| 39> H 	 -93.1723 	 9.11699 	 -2.43826
| 40> H 	 -100.484 	 5.17703 	 -1.01813
| 41> *
| 42>
| 43>                          ****END OF INPUT****

CARTESIAN COORDINATES (ANGSTROEM)
---------------------------------
  S    -95.493800    8.582310   -1.363610
  C    -94.217400    8.803930   -2.544020
  C    -94.740100    8.429260   -3.785140
  C    -96.018600    7.795020   -3.698380
  C    -96.588000    7.872400   -2.505390
  H    -96.719000    7.479840   -4.480680
  C    -94.058900    8.460870   -5.149320
  H    -94.319100    7.585100   -5.809650
  H    -92.991600    8.261060   -5.070290
  C    -94.235900    9.757350   -5.980690
  H    -94.100200   10.656400   -5.414220
  H    -93.617700    9.723000   -6.803070
  C    -95.691600   10.026400   -6.402980
  H    -95.858500   10.933100   -6.974680
  H    -95.997300    9.178340   -7.074910
  H    -96.469900   10.168900   -5.636030
  S    -98.103900    5.862430   -1.346030
  C    -99.806700    5.985980   -1.318670
  C    -100.229000    7.115140   -1.968630
  C    -99.201300    8.017000   -2.424230
  C    -97.937900    7.453610   -2.157670
  H    -101.288000    7.391710   -1.926390
  C    -99.454000    9.373330   -3.047680
  H    -98.512800    9.947970   -2.882850
  H    -100.263000    9.850000   -2.545300
  C    -99.662900    9.185730   -4.562710
  H    -100.038000    8.214850   -4.821260
  H    -98.750800    9.424220   -5.137270
  C    -100.765000   10.164100   -4.988290
  H    -101.765000   10.096100   -4.501300
  H    -100.860000    9.978580   -6.030280
  H    -100.411000   11.198400   -4.820100
  H    -93.172300    9.116990   -2.438260
  H    -100.484000    5.177030   -1.018130

 Total Charge           Charge          ....    0
 Multiplicity           Mult            ....    1
 Number of Electrons    NEL             ....  134
 Basis Dimension        Dim             ....  322

ORBITAL ENERGIES
----------------

  NO   OCC          E(Eh)            E(eV)
   0   2.0000     -88.963714     -2420.8257
   1   2.0000     -88.962688     -2420.7978
   2   2.0000     -10.326786      -281.0061
   3   2.0000     -10.319904      -280.8189
   4   2.0000     -10.319278      -280.8018
   5   2.0000     -10.315370      -280.6955
   6   2.0000     -10.307792      -280.4893
   7   2.0000     -10.303785      -280.3803
   8   2.0000     -10.295781      -280.1624
   9   2.0000     -10.292277      -280.0671
  10   2.0000     -10.291621      -280.0493
  11   2.0000     -10.286970      -279.9227
  12   2.0000     -10.285368      -279.8791
  13   2.0000     -10.281613      -279.7769
  14   2.0000     -10.279452      -279.7181
  15   2.0000     -10.277255      -279.6583
  16   2.0000      -8.078618      -219.8304
  17   2.0000      -8.077672      -219.8046
  18   2.0000      -6.037232      -164.2814
  19   2.0000      -6.036098      -164.2506
  20   2.0000      -6.032927      -164.1643
  21   2.0000      -6.032082      -164.1413
  22   2.0000      -6.029400      -164.0683
  23   2.0000      -6.028563      -164.0455
  24   2.0000      -1.008863       -27.4525
  25   2.0000      -0.985091       -26.8057
  26   2.0000      -0.914121       -24.8745
  27   2.0000      -0.908387       -24.7185
  28   2.0000      -0.870895       -23.6983
  29   2.0000      -0.850146       -23.1336
  30   2.0000      -0.844886       -22.9905
  31   2.0000      -0.814268       -22.1574
  32   2.0000      -0.782567       -21.2947
  33   2.0000      -0.770681       -20.9713
  34   2.0000      -0.703658       -19.1475
  35   2.0000      -0.703350       -19.1391
  36   2.0000      -0.693401       -18.8684
  37   2.0000      -0.655358       -17.8332
  38   2.0000      -0.646153       -17.5827
  39   2.0000      -0.612618       -16.6702
  40   2.0000      -0.598386       -16.2829
  41   2.0000      -0.576132       -15.6774
  42   2.0000      -0.564089       -15.3496
  43   2.0000      -0.546238       -14.8639
  44   2.0000      -0.540201       -14.6996
  45   2.0000      -0.531965       -14.4755
  46   2.0000      -0.524236       -14.2652
  47   2.0000      -0.515725       -14.0336
  48   2.0000      -0.506184       -13.7740
  49   2.0000      -0.496893       -13.5211
  50   2.0000      -0.488635       -13.2964
  51   2.0000      -0.477843       -13.0028
  52   2.0000      -0.467666       -12.7258
  53   2.0000      -0.463210       -12.6046
  54   2.0000      -0.460059       -12.5188
  55   2.0000      -0.450386       -12.2556
  56   2.0000      -0.442536       -12.0420
  57   2.0000      -0.437240       -11.8979
  58   2.0000      -0.433095       -11.7851
  59   2.0000      -0.425009       -11.5651
  60   2.0000      -0.419254       -11.4085
  61   2.0000      -0.410748       -11.1770
  62   2.0000      -0.404730       -11.0133
  63   2.0000      -0.337287        -9.1780
  64   2.0000      -0.326419        -8.8823
  65   2.0000      -0.322911        -8.7869
  66   2.0000      -0.311119        -8.4660
  67   0.0000       0.043397         1.1809
  68   0.0000       0.058823         1.6007
  69   0.0000       0.119860         3.2615
  70   0.0000       0.123457         3.3594
  71   0.0000       0.128851         3.5062

MULLIKEN ATOMIC CHARGES
-----------------------
   0 S :    0.115216
   1 C :   -0.112727
   2 C :   -0.080539
   3 C :    0.050686
   4 C :   -0.180770
   5 H :    0.019639
   6 C :    0.022879
   7 H :    0.032982
   8 H :    0.018535
   9 C :    0.008215
  10 H :    0.023105
  11 H :    0.018645
  12 C :   -0.114160
  13 H :    0.028251
  14 H :    0.025231
  15 H :    0.043361
  16 S :    0.111395
  17 C :   -0.088723
  18 C :   -0.056779
  19 C :   -0.036263
  20 C :   -0.204182
  21 H :    0.021669
  22 C :    0.104164
  23 H :    0.041038
  24 H :    0.027685
  25 C :   -0.070035
  26 H :    0.036439
  27 H :    0.044503
  28 C :   -0.078706
  29 H :    0.043670
  30 H :    0.025674
  31 H :    0.031962
  32 H :    0.058250
  33 H :    0.069693
Sum of atomic charges:    0.0000000

LOEWDIN ATOMIC CHARGES
----------------------
   0 S :    0.411219
   1 C :   -0.199922
   2 C :   -0.063493
   3 C :   -0.066284
   4 C :   -0.209965
   5 H :    0.039159
   6 C :   -0.038133
   7 H :    0.036484
   8 H :    0.027744
   9 C :   -0.029131
  10 H :    0.025252
  11 H :    0.015847
  12 C :   -0.077329
  13 H :    0.024393
  14 H :    0.022838
  15 H :    0.024334
  16 S :    0.408323
  17 C :   -0.198920
  18 C :   -0.086767
  19 C :   -0.041925
  20 C :   -0.197856
  21 H :    0.030686
  22 C :   -0.025221
  23 H :    0.041540
  24 H :    0.027208
  25 C :   -0.033125
  26 H :    0.021490
  27 H :    0.030158
  28 C :   -0.067192
  29 H :    0.027150
  30 H :    0.019260
  31 H :    0.024924
  32 H :    0.039691
  33 H :    0.037563

  Mayer bond orders larger than 0.100000
B(  0-S ,  1-C ) :   1.1364 B(  0-S ,  4-C ) :   1.1409 B(  1-C ,  2-C ) :   1.6135
B(  1-C , 32-H ) :   0.9688 B(  2-C ,  3-C ) :   1.2173 B(  2-C ,  6-C ) :   1.0165
B(  3-C ,  4-C ) :   1.6327 B(  3-C ,  5-H ) :   0.9865 B(  4-C , 20-C ) :   1.0005
B(  6-C ,  7-H ) :   0.9488 B(  6-C ,  8-H ) :   0.9416 B(  6-C ,  9-C ) :   1.0744
B(  9-C , 10-H ) :   0.9564 B(  9-C , 11-H ) :   0.9548 B(  9-C , 12-C ) :   1.0701
B( 12-C , 13-H ) :   0.9716 B( 12-C , 14-H ) :   0.9769 B( 12-C , 15-H ) :   0.9706
B( 16-S , 17-C ) :   1.1652 B( 16-S , 20-C ) :   1.1486 B( 17-C , 18-C ) :   1.6171
B( 17-C , 33-H ) :   0.9617 B( 18-C , 19-C ) :   1.2375 B( 18-C , 21-H ) :   0.9809
B( 19-C , 20-C ) :   1.5942 B( 19-C , 22-C ) :   1.0481 B( 22-C , 23-H ) :   0.9221
B( 22-C , 24-H ) :   0.9477 B( 22-C , 25-C ) :   1.0425 B( 25-C , 26-H ) :   0.9674
B( 25-C , 27-H ) :   0.9464 B( 25-C , 28-C ) :   1.0767 B( 28-C , 29-H ) :   0.9790
B( 28-C , 30-H ) :   0.9749 B( 28-C , 31-H ) :   0.9733

Dispersion correction           -0.015490112
FINAL SINGLE POINT ENERGY     -1339.868316633841

DIPOLE MOMENT
-------------
                                X             Y             Z
Electronic contribution:      5.33753     -15.66158      25.26378
Nuclear contribution   :     -5.53145      15.93835     -25.87358
                        -----------------------------------------
Total Dipole Moment    :     -0.19392       0.27677      -0.60979
                        -----------------------------------------
Magnitude (a.u.)       :      0.69718
Magnitude (Debye)      :      1.77208

Rotational constants in cm-1:     0.016887     0.010376     0.007297
Rotational constants in MHz :   506.272772   311.064899   218.761292

                             ****ORCA TERMINATED NORMALLY****
TOTAL RUN TIME: 0 days 0 hours 0 minutes 21 seconds 441 msec
