                         Program Version 4.2.1 -  RELEASE  -
|  1> ! wB97X-D3 SP def2-SVP
|  2> %pal
|  3> nprocs 24
|  4> end
|  5>
|  6> * xyz 0 1
|  7> S 	 -64.2773 	 15.5627 	 -106.313
|  8> C 	 -64.6557 	 15.076 	 -104.683
|  9> C 	 -64.5106 	 13.7199 	 -104.459
| 10> C 	 -64.1408 	 13.0507 	 -105.688
| 11> C 	 -64.0536 	 13.8997 	 -106.813
| 12> H 	 -63.9562 	 11.9536 	 -105.756
| 13> C 	 -64.6704 	 13.0358 	 -103.13
| 14> H 	 -64.3866 	 13.7002 	 -102.364
| 15> H 	 -63.8334 	 12.3833 	 -103.027
| 16> C 	 -66.0446 	 12.4813 	 -102.788
| 17> H 	 -66.7814 	 13.2577 	 -102.827
| 18> H 	 -66.4235 	 11.7446 	 -103.498
| 19> C 	 -66.1302 	 11.9045 	 -101.389
| 20> H 	 -67.1669 	 11.8637 	 -100.899
| 21> H 	 -65.7639 	 10.8533 	 -101.383
| 22> H 	 -65.447 	 12.4488 	 -100.814
| 23> S 	 -62.814 	 14.8721 	 -109.151
| 24> C 	 -62.3349 	 13.7009 	 -110.382
| 25> C 	 -62.6423 	 12.4491 	 -110.074
| 26> C 	 -63.2367 	 12.2927 	 -108.754
| 27> C 	 -63.5504 	 13.5792 	 -108.175
| 28> H 	 -62.3183 	 11.6855 	 -110.763
| 29> C 	 -63.7395 	 10.8996 	 -108.266
| 30> H 	 -64.6261 	 10.7194 	 -109.006
| 31> H 	 -64.2567 	 11.0507 	 -107.359
| 32> C 	 -62.734 	 9.7625 	 -108.28
| 33> H 	 -62.5208 	 9.43093 	 -109.251
| 34> H 	 -63.1909 	 8.90703 	 -107.878
| 35> C 	 -61.3809 	 10.1971 	 -107.627
| 36> H 	 -60.6712 	 9.41775 	 -107.806
| 37> H 	 -61.535 	 10.2177 	 -106.521
| 38> H 	 -60.9785 	 11.1124 	 -108.114
| 39> H 	 -64.9276 	 15.8276 	 -103.963
| 40> H 	 -61.7494 	 13.9723 	 -111.271
| 41> *
| 42>
| 43>                          ****END OF INPUT****

CARTESIAN COORDINATES (ANGSTROEM)
---------------------------------
  S    -64.277300   15.562700  -106.313000
  C    -64.655700   15.076000  -104.683000
  C    -64.510600   13.719900  -104.459000
  C    -64.140800   13.050700  -105.688000
  C    -64.053600   13.899700  -106.813000
  H    -63.956200   11.953600  -105.756000
  C    -64.670400   13.035800  -103.130000
  H    -64.386600   13.700200  -102.364000
  H    -63.833400   12.383300  -103.027000
  C    -66.044600   12.481300  -102.788000
  H    -66.781400   13.257700  -102.827000
  H    -66.423500   11.744600  -103.498000
  C    -66.130200   11.904500  -101.389000
  H    -67.166900   11.863700  -100.899000
  H    -65.763900   10.853300  -101.383000
  H    -65.447000   12.448800  -100.814000
  S    -62.814000   14.872100  -109.151000
  C    -62.334900   13.700900  -110.382000
  C    -62.642300   12.449100  -110.074000
  C    -63.236700   12.292700  -108.754000
  C    -63.550400   13.579200  -108.175000
  H    -62.318300   11.685500  -110.763000
  C    -63.739500   10.899600  -108.266000
  H    -64.626100   10.719400  -109.006000
  H    -64.256700   11.050700  -107.359000
  C    -62.734000    9.762500  -108.280000
  H    -62.520800    9.430930  -109.251000
  H    -63.190900    8.907030  -107.878000
  C    -61.380900   10.197100  -107.627000
  H    -60.671200    9.417750  -107.806000
  H    -61.535000   10.217700  -106.521000
  H    -60.978500   11.112400  -108.114000
  H    -64.927600   15.827600  -103.963000
  H    -61.749400   13.972300  -111.271000

 Total Charge           Charge          ....    0
 Multiplicity           Mult            ....    1
 Number of Electrons    NEL             ....  134
 Basis Dimension        Dim             ....  322

ORBITAL ENERGIES
----------------

  NO   OCC          E(Eh)            E(eV)
   0   2.0000     -88.966192     -2420.8931
   1   2.0000     -88.964682     -2420.8521
   2   2.0000     -10.337573      -281.2997
   3   2.0000     -10.335964      -281.2559
   4   2.0000     -10.315138      -280.6892
   5   2.0000     -10.314213      -280.6640
   6   2.0000     -10.312886      -280.6279
   7   2.0000     -10.303369      -280.3689
   8   2.0000     -10.300162      -280.2817
   9   2.0000     -10.298272      -280.2302
  10   2.0000     -10.290866      -280.0287
  11   2.0000     -10.287553      -279.9385
  12   2.0000     -10.283387      -279.8252
  13   2.0000     -10.282423      -279.7990
  14   2.0000     -10.281277      -279.7678
  15   2.0000     -10.280008      -279.7332
  16   2.0000      -8.081102      -219.8980
  17   2.0000      -8.078893      -219.8378
  18   2.0000      -6.039612      -164.3462
  19   2.0000      -6.037600      -164.2915
  20   2.0000      -6.035628      -164.2378
  21   2.0000      -6.033619      -164.1831
  22   2.0000      -6.031838      -164.1347
  23   2.0000      -6.029341      -164.0667
  24   2.0000      -1.000028       -27.2122
  25   2.0000      -0.979784       -26.6613
  26   2.0000      -0.917554       -24.9679
  27   2.0000      -0.908243       -24.7146
  28   2.0000      -0.870151       -23.6780
  29   2.0000      -0.849591       -23.1185
  30   2.0000      -0.840630       -22.8747
  31   2.0000      -0.813795       -22.1445
  32   2.0000      -0.784071       -21.3357
  33   2.0000      -0.771586       -20.9959
  34   2.0000      -0.712366       -19.3845
  35   2.0000      -0.706256       -19.2182
  36   2.0000      -0.693042       -18.8586
  37   2.0000      -0.655599       -17.8398
  38   2.0000      -0.635173       -17.2839
  39   2.0000      -0.623979       -16.9793
  40   2.0000      -0.594826       -16.1860
  41   2.0000      -0.567848       -15.4519
  42   2.0000      -0.561203       -15.2711
  43   2.0000      -0.551901       -15.0180
  44   2.0000      -0.544266       -14.8102
  45   2.0000      -0.532584       -14.4924
  46   2.0000      -0.518628       -14.1126
  47   2.0000      -0.509025       -13.8513
  48   2.0000      -0.496311       -13.5053
  49   2.0000      -0.492415       -13.3993
  50   2.0000      -0.491965       -13.3870
  51   2.0000      -0.480903       -13.0860
  52   2.0000      -0.473050       -12.8723
  53   2.0000      -0.460123       -12.5206
  54   2.0000      -0.454778       -12.3751
  55   2.0000      -0.451513       -12.2863
  56   2.0000      -0.448389       -12.2013
  57   2.0000      -0.441057       -12.0018
  58   2.0000      -0.435973       -11.8634
  59   2.0000      -0.428996       -11.6736
  60   2.0000      -0.418232       -11.3807
  61   2.0000      -0.413706       -11.2575
  62   2.0000      -0.410460       -11.1692
  63   2.0000      -0.363367        -9.8877
  64   2.0000      -0.334651        -9.1063
  65   2.0000      -0.325400        -8.8546
  66   2.0000      -0.279154        -7.5962
  67   0.0000       0.019399         0.5279
  68   0.0000       0.083999         2.2857
  69   0.0000       0.099493         2.7073
  70   0.0000       0.116813         3.1786
  71   0.0000       0.137114         3.7311

MULLIKEN ATOMIC CHARGES
-----------------------
   0 S :    0.095700
   1 C :   -0.121113
   2 C :   -0.087227
   3 C :   -0.016370
   4 C :   -0.120716
   5 H :    0.026816
   6 C :    0.095257
   7 H :   -0.003387
   8 H :    0.013201
   9 C :   -0.032623
  10 H :    0.017899
  11 H :    0.026150
  12 C :   -0.056803
  13 H :    0.051880
  14 H :    0.031246
  15 H :    0.011387
  16 S :    0.079090
  17 C :   -0.091165
  18 C :   -0.011660
  19 C :   -0.101669
  20 C :   -0.101640
  21 H :    0.018403
  22 C :    0.038061
  23 H :    0.056262
  24 H :    0.000512
  25 C :   -0.012921
  26 H :    0.007930
  27 H :    0.014500
  28 C :   -0.067475
  29 H :    0.023941
  30 H :    0.043086
  31 H :    0.065162
  32 H :    0.045726
  33 H :    0.062559
Sum of atomic charges:   -0.0000000

LOEWDIN ATOMIC CHARGES
----------------------
   0 S :    0.404559
   1 C :   -0.192437
   2 C :   -0.059233
   3 C :   -0.071218
   4 C :   -0.189010
   5 H :    0.033199
   6 C :   -0.032996
   7 H :    0.026857
   8 H :    0.030556
   9 C :   -0.038108
  10 H :    0.023292
  11 H :    0.023909
  12 C :   -0.067831
  13 H :    0.037420
  14 H :    0.027441
  15 H :    0.012996
  16 S :    0.372840
  17 C :   -0.175704
  18 C :   -0.077624
  19 C :   -0.050235
  20 C :   -0.190133
  21 H :    0.034158
  22 C :   -0.033761
  23 H :    0.049892
  24 H :    0.016124
  25 C :   -0.037381
  26 H :    0.016031
  27 H :    0.022076
  28 C :   -0.063061
  29 H :    0.020258
  30 H :    0.030633
  31 H :    0.036695
  32 H :    0.023982
  33 H :    0.035814

  Mayer bond orders larger than 0.100000
B(  0-S ,  1-C ) :   1.1451 B(  0-S ,  4-C ) :   1.1562 B(  1-C ,  2-C ) :   1.6016
B(  1-C , 32-H ) :   0.9704 B(  2-C ,  3-C ) :   1.2660 B(  2-C ,  6-C ) :   1.0278
B(  3-C ,  4-C ) :   1.5483 B(  3-C ,  5-H ) :   0.9716 B(  4-C , 20-C ) :   1.0770
B(  6-C ,  7-H ) :   0.9241 B(  6-C ,  8-H ) :   0.9330 B(  6-C ,  9-C ) :   1.0613
B(  9-C , 10-H ) :   0.9521 B(  9-C , 11-H ) :   0.9581 B(  9-C , 12-C ) :   1.0764
B( 12-C , 13-H ) :   0.9753 B( 12-C , 14-H ) :   0.9746 B( 12-C , 15-H ) :   0.9735
B( 16-S , 17-C ) :   1.1280 B( 16-S , 20-C ) :   1.1272 B( 17-C , 18-C ) :   1.6732
B( 17-C , 33-H ) :   0.9596 B( 18-C , 19-C ) :   1.2015 B( 18-C , 21-H ) :   0.9876
B( 19-C , 20-C ) :   1.5912 B( 19-C , 22-C ) :   1.0219 B( 22-C , 23-H ) :   0.9376
B( 22-C , 24-H ) :   0.9441 B( 22-C , 25-C ) :   1.0608 B( 25-C , 26-H ) :   0.9486
B( 25-C , 27-H ) :   0.9518 B( 25-C , 28-C ) :   1.0795 B( 28-C , 29-H ) :   0.9751
B( 28-C , 30-H ) :   0.9776 B( 28-C , 31-H ) :   0.9669

Dispersion correction           -0.014026660
FINAL SINGLE POINT ENERGY     -1339.866801666848

DIPOLE MOMENT
-------------
                                X             Y             Z
Electronic contribution:      2.59525      24.55941     -17.37345
Nuclear contribution   :     -2.46357     -25.29463      17.60438
                        -----------------------------------------
Total Dipole Moment    :      0.13168      -0.73521       0.23093
                        -----------------------------------------
Magnitude (a.u.)       :      0.78180
Magnitude (Debye)      :      1.98717

Rotational constants in cm-1:     0.019550     0.008281     0.006131
Rotational constants in MHz :   586.086918   248.250544   183.806249

                             ****ORCA TERMINATED NORMALLY****
TOTAL RUN TIME: 0 days 0 hours 0 minutes 21 seconds 482 msec
