                         Program Version 4.2.1 -  RELEASE  -
|  1> ! wB97X-D3 SP def2-SVP
|  2> %pal
|  3> nprocs 24
|  4> end
|  5>
|  6> * xyz 0 1
|  7> S 	 -140.318 	 6.25646 	 4.82415
|  8> C 	 -141.511 	 6.32535 	 3.5553
|  9> C 	 -141.956 	 7.62751 	 3.34076
| 10> C 	 -141.316 	 8.54236 	 4.25266
| 11> C 	 -140.413 	 7.9275 	 5.14045
| 12> H 	 -141.394 	 9.60988 	 4.39794
| 13> C 	 -143.093 	 8.06869 	 2.54312
| 14> H 	 -143.226 	 7.28499 	 1.73873
| 15> H 	 -142.9 	 8.93278 	 2.03244
| 16> C 	 -144.479 	 8.32736 	 3.28301
| 17> H 	 -144.783 	 7.4478 	 3.78251
| 18> H 	 -144.388 	 9.11775 	 4.05578
| 19> C 	 -145.572 	 8.8117 	 2.21542
| 20> H 	 -145.151 	 9.47496 	 1.46304
| 21> H 	 -146.007 	 7.93673 	 1.67153
| 22> H 	 -146.335 	 9.40824 	 2.73441
| 23> S 	 -138.198 	 7.7082 	 6.7583
| 24> C 	 -137.74 	 8.95078 	 7.85163
| 25> C 	 -138.64 	 9.93585 	 7.76705
| 26> C 	 -139.791 	 9.74087 	 6.94315
| 27> C 	 -139.568 	 8.58327 	 6.14004
| 28> H 	 -138.469 	 10.6498 	 8.53635
| 29> C 	 -140.941 	 10.6374 	 7.04939
| 30> H 	 -141.015 	 10.9674 	 8.07566
| 31> H 	 -141.798 	 9.9487 	 6.97277
| 32> C 	 -140.918 	 11.884 	 6.08474
| 33> H 	 -140.805 	 11.5971 	 5.0596
| 34> H 	 -140.109 	 12.5239 	 6.33048
| 35> C 	 -142.26 	 12.5357 	 6.12296
| 36> H 	 -142.243 	 13.4014 	 5.47451
| 37> H 	 -142.524 	 12.9181 	 7.10929
| 38> H 	 -143.025 	 11.7878 	 5.82578
| 39> H 	 -141.834 	 5.48751 	 2.95533
| 40> H 	 -136.749 	 9.06952 	 8.31424
| 41> *
| 42>
| 43>                          ****END OF INPUT****

CARTESIAN COORDINATES (ANGSTROEM)
---------------------------------
  S    -140.318000    6.256460    4.824150
  C    -141.511000    6.325350    3.555300
  C    -141.956000    7.627510    3.340760
  C    -141.316000    8.542360    4.252660
  C    -140.413000    7.927500    5.140450
  H    -141.394000    9.609880    4.397940
  C    -143.093000    8.068690    2.543120
  H    -143.226000    7.284990    1.738730
  H    -142.900000    8.932780    2.032440
  C    -144.479000    8.327360    3.283010
  H    -144.783000    7.447800    3.782510
  H    -144.388000    9.117750    4.055780
  C    -145.572000    8.811700    2.215420
  H    -145.151000    9.474960    1.463040
  H    -146.007000    7.936730    1.671530
  H    -146.335000    9.408240    2.734410
  S    -138.198000    7.708200    6.758300
  C    -137.740000    8.950780    7.851630
  C    -138.640000    9.935850    7.767050
  C    -139.791000    9.740870    6.943150
  C    -139.568000    8.583270    6.140040
  H    -138.469000   10.649800    8.536350
  C    -140.941000   10.637400    7.049390
  H    -141.015000   10.967400    8.075660
  H    -141.798000    9.948700    6.972770
  C    -140.918000   11.884000    6.084740
  H    -140.805000   11.597100    5.059600
  H    -140.109000   12.523900    6.330480
  C    -142.260000   12.535700    6.122960
  H    -142.243000   13.401400    5.474510
  H    -142.524000   12.918100    7.109290
  H    -143.025000   11.787800    5.825780
  H    -141.834000    5.487510    2.955330
  H    -136.749000    9.069520    8.314240

 Total Charge           Charge          ....    0
 Multiplicity           Mult            ....    1
 Number of Electrons    NEL             ....  134
 Basis Dimension        Dim             ....  322

ORBITAL ENERGIES
----------------

  NO   OCC          E(Eh)            E(eV)
   0   2.0000     -88.966573     -2420.9035
   1   2.0000     -88.961376     -2420.7621
   2   2.0000     -10.331655      -281.1386
   3   2.0000     -10.328110      -281.0422
   4   2.0000     -10.314280      -280.6658
   5   2.0000     -10.309607      -280.5387
   6   2.0000     -10.304055      -280.3876
   7   2.0000     -10.301445      -280.3166
   8   2.0000     -10.294719      -280.1335
   9   2.0000     -10.292924      -280.0847
  10   2.0000     -10.292155      -280.0638
  11   2.0000     -10.288304      -279.9590
  12   2.0000     -10.287415      -279.9348
  13   2.0000     -10.286187      -279.9014
  14   2.0000     -10.282726      -279.8072
  15   2.0000     -10.278350      -279.6881
  16   2.0000      -8.082105      -219.9253
  17   2.0000      -8.077192      -219.7916
  18   2.0000      -6.040583      -164.3726
  19   2.0000      -6.036367      -164.2579
  20   2.0000      -6.035688      -164.2394
  21   2.0000      -6.032992      -164.1660
  22   2.0000      -6.031500      -164.1255
  23   2.0000      -6.027952      -164.0289
  24   2.0000      -1.012018       -27.5384
  25   2.0000      -0.989596       -26.9283
  26   2.0000      -0.918017       -24.9805
  27   2.0000      -0.910086       -24.7647
  28   2.0000      -0.869551       -23.6617
  29   2.0000      -0.860315       -23.4104
  30   2.0000      -0.844582       -22.9822
  31   2.0000      -0.817508       -22.2455
  32   2.0000      -0.780209       -21.2306
  33   2.0000      -0.770902       -20.9773
  34   2.0000      -0.711639       -19.3647
  35   2.0000      -0.707952       -19.2644
  36   2.0000      -0.698007       -18.9937
  37   2.0000      -0.663791       -18.0627
  38   2.0000      -0.637994       -17.3607
  39   2.0000      -0.618354       -16.8263
  40   2.0000      -0.596735       -16.2380
  41   2.0000      -0.575600       -15.6629
  42   2.0000      -0.572572       -15.5805
  43   2.0000      -0.554883       -15.0991
  44   2.0000      -0.539708       -14.6862
  45   2.0000      -0.520622       -14.1669
  46   2.0000      -0.517489       -14.0816
  47   2.0000      -0.512766       -13.9531
  48   2.0000      -0.505592       -13.7579
  49   2.0000      -0.504637       -13.7319
  50   2.0000      -0.496497       -13.5104
  51   2.0000      -0.483724       -13.1628
  52   2.0000      -0.468009       -12.7352
  53   2.0000      -0.461669       -12.5627
  54   2.0000      -0.458978       -12.4894
  55   2.0000      -0.449455       -12.2303
  56   2.0000      -0.445622       -12.1260
  57   2.0000      -0.440441       -11.9850
  58   2.0000      -0.437479       -11.9044
  59   2.0000      -0.431287       -11.7359
  60   2.0000      -0.423068       -11.5123
  61   2.0000      -0.421664       -11.4741
  62   2.0000      -0.412206       -11.2167
  63   2.0000      -0.360430        -9.8078
  64   2.0000      -0.330750        -9.0002
  65   2.0000      -0.324128        -8.8200
  66   2.0000      -0.282143        -7.6775
  67   0.0000       0.021319         0.5801
  68   0.0000       0.088730         2.4145
  69   0.0000       0.104723         2.8497
  70   0.0000       0.118800         3.2327
  71   0.0000       0.123410         3.3582

MULLIKEN ATOMIC CHARGES
-----------------------
   0 S :    0.113142
   1 C :   -0.116065
   2 C :   -0.052787
   3 C :    0.010486
   4 C :   -0.133837
   5 H :   -0.025565
   6 C :    0.073731
   7 H :    0.020760
   8 H :    0.000494
   9 C :   -0.063890
  10 H :    0.027474
  11 H :    0.033624
  12 C :   -0.075702
  13 H :    0.029614
  14 H :    0.047835
  15 H :    0.040654
  16 S :    0.083575
  17 C :   -0.100437
  18 C :   -0.024534
  19 C :   -0.064421
  20 C :   -0.115068
  21 H :    0.005554
  22 C :    0.041677
  23 H :    0.018092
  24 H :    0.030868
  25 C :   -0.036332
  26 H :    0.029430
  27 H :    0.023572
  28 C :   -0.028421
  29 H :    0.031012
  30 H :    0.021755
  31 H :    0.034959
  32 H :    0.045663
  33 H :    0.073086
Sum of atomic charges:   -0.0000000

LOEWDIN ATOMIC CHARGES
----------------------
   0 S :    0.428317
   1 C :   -0.201032
   2 C :   -0.063296
   3 C :   -0.068820
   4 C :   -0.205177
   5 H :    0.025461
   6 C :   -0.032978
   7 H :    0.035058
   8 H :    0.016726
   9 C :   -0.024369
  10 H :    0.017478
  11 H :    0.024170
  12 C :   -0.069771
  13 H :    0.022345
  14 H :    0.031234
  15 H :    0.028093
  16 S :    0.412440
  17 C :   -0.202694
  18 C :   -0.077546
  19 C :   -0.057495
  20 C :   -0.195459
  21 H :    0.026546
  22 C :   -0.037351
  23 H :    0.033317
  24 H :    0.036796
  25 C :   -0.028211
  26 H :    0.020468
  27 H :    0.022530
  28 C :   -0.061455
  29 H :    0.024090
  30 H :    0.020980
  31 H :    0.029226
  32 H :    0.028730
  33 H :    0.041649

  Mayer bond orders larger than 0.100000
B(  0-S ,  1-C ) :   1.1392 B(  0-S ,  4-C ) :   1.1643 B(  1-C ,  2-C ) :   1.5830
B(  1-C , 32-H ) :   0.9704 B(  2-C ,  3-C ) :   1.2299 B(  2-C ,  6-C ) :   1.0647
B(  3-C ,  4-C ) :   1.5485 B(  3-C ,  5-H ) :   0.9969 B(  4-C , 20-C ) :   1.0800
B(  6-C ,  7-H ) :   0.9382 B(  6-C ,  8-H ) :   0.9262 B(  6-C ,  9-C ) :   1.0486
B(  9-C , 10-H ) :   0.9609 B(  9-C , 11-H ) :   0.9608 B(  9-C , 12-C ) :   1.0633
B( 12-C , 13-H ) :   0.9778 B( 12-C , 14-H ) :   0.9788 B( 12-C , 15-H ) :   0.9780
B( 16-S , 17-C ) :   1.1484 B( 16-S , 20-C ) :   1.1561 B( 17-C , 18-C ) :   1.6358
B( 17-C , 33-H ) :   0.9580 B( 18-C , 19-C ) :   1.2492 B( 18-C , 21-H ) :   0.9845
B( 19-C , 20-C ) :   1.5242 B( 19-C , 22-C ) :   1.0614 B( 22-C , 23-H ) :   0.9254
B( 22-C , 24-H ) :   0.9302 B( 22-C , 25-C ) :   1.0526 B( 25-C , 26-H ) :   0.9562
B( 25-C , 27-H ) :   0.9481 B( 25-C , 28-C ) :   1.0890 B( 28-C , 29-H ) :   0.9716
B( 28-C , 30-H ) :   0.9716 B( 28-C , 31-H ) :   0.9737

Dispersion correction           -0.014075223
FINAL SINGLE POINT ENERGY     -1339.869414176693

DIPOLE MOMENT
-------------
                                X             Y             Z
Electronic contribution:     25.34193     -20.20970       8.35417
Nuclear contribution   :    -25.76642      20.82672      -8.32362
                        -----------------------------------------
Total Dipole Moment    :     -0.42448       0.61702       0.03055
                        -----------------------------------------
Magnitude (a.u.)       :      0.74955
Magnitude (Debye)      :      1.90522

Rotational constants in cm-1:     0.017934     0.009380     0.006355
Rotational constants in MHz :   537.658295   281.207480   190.529485

                             ****ORCA TERMINATED NORMALLY****
TOTAL RUN TIME: 0 days 0 hours 0 minutes 21 seconds 744 msec
