                         Program Version 4.2.1 -  RELEASE  -
|  1> ! wB97X-D3 SP def2-SVP
|  2> %pal
|  3> nprocs 24
|  4> end
|  5>
|  6> * xyz 0 1
|  7> S 	 -111.581 	 49.1315 	 -72.269
|  8> C 	 -112.495 	 49.3182 	 -73.7508
|  9> C 	 -111.665 	 49.6322 	 -74.7928
| 10> C 	 -110.348 	 49.879 	 -74.2923
| 11> C 	 -110.07 	 49.5037 	 -73.0053
| 12> H 	 -109.634 	 50.3017 	 -75.0077
| 13> C 	 -112.093 	 50.0965 	 -76.1997
| 14> H 	 -112.594 	 49.3031 	 -76.7046
| 15> H 	 -111.3 	 50.5199 	 -76.783
| 16> C 	 -113.073 	 51.2205 	 -76.3131
| 17> H 	 -113.369 	 51.2955 	 -77.3496
| 18> H 	 -113.983 	 50.9047 	 -75.724
| 19> C 	 -112.611 	 52.603 	 -75.7385
| 20> H 	 -112.309 	 53.2217 	 -76.5718
| 21> H 	 -113.47 	 53.2669 	 -75.5431
| 22> H 	 -111.99 	 52.6559 	 -74.8276
| 23> S 	 -108.83 	 49.4622 	 -70.5187
| 24> C 	 -107.121 	 49.783 	 -70.4909
| 25> C 	 -106.59 	 50.0744 	 -71.7401
| 26> C 	 -107.465 	 49.9213 	 -72.7689
| 27> C 	 -108.802 	 49.6921 	 -72.2529
| 28> H 	 -105.52 	 50.4518 	 -71.7031
| 29> C 	 -106.966 	 50.1268 	 -74.2037
| 30> H 	 -107.528 	 49.5284 	 -74.8735
| 31> H 	 -105.977 	 49.7019 	 -74.3432
| 32> C 	 -107.002 	 51.5654 	 -74.6165
| 33> H 	 -106.341 	 52.0945 	 -73.9497
| 34> H 	 -107.972 	 52.1352 	 -74.485
| 35> C 	 -106.712 	 51.9015 	 -76.0929
| 36> H 	 -106.887 	 52.9704 	 -76.2138
| 37> H 	 -107.39 	 51.3267 	 -76.7714
| 38> H 	 -105.718 	 51.5752 	 -76.3129
| 39> H 	 -113.551 	 49.2427 	 -73.8413
| 40> H 	 -106.475 	 49.8157 	 -69.6831
| 41> *
| 42>
| 43>                          ****END OF INPUT****

CARTESIAN COORDINATES (ANGSTROEM)
---------------------------------
  S    -111.581000   49.131500  -72.269000
  C    -112.495000   49.318200  -73.750800
  C    -111.665000   49.632200  -74.792800
  C    -110.348000   49.879000  -74.292300
  C    -110.070000   49.503700  -73.005300
  H    -109.634000   50.301700  -75.007700
  C    -112.093000   50.096500  -76.199700
  H    -112.594000   49.303100  -76.704600
  H    -111.300000   50.519900  -76.783000
  C    -113.073000   51.220500  -76.313100
  H    -113.369000   51.295500  -77.349600
  H    -113.983000   50.904700  -75.724000
  C    -112.611000   52.603000  -75.738500
  H    -112.309000   53.221700  -76.571800
  H    -113.470000   53.266900  -75.543100
  H    -111.990000   52.655900  -74.827600
  S    -108.830000   49.462200  -70.518700
  C    -107.121000   49.783000  -70.490900
  C    -106.590000   50.074400  -71.740100
  C    -107.465000   49.921300  -72.768900
  C    -108.802000   49.692100  -72.252900
  H    -105.520000   50.451800  -71.703100
  C    -106.966000   50.126800  -74.203700
  H    -107.528000   49.528400  -74.873500
  H    -105.977000   49.701900  -74.343200
  C    -107.002000   51.565400  -74.616500
  H    -106.341000   52.094500  -73.949700
  H    -107.972000   52.135200  -74.485000
  C    -106.712000   51.901500  -76.092900
  H    -106.887000   52.970400  -76.213800
  H    -107.390000   51.326700  -76.771400
  H    -105.718000   51.575200  -76.312900
  H    -113.551000   49.242700  -73.841300
  H    -106.475000   49.815700  -69.683100

 Total Charge           Charge          ....    0
 Multiplicity           Mult            ....    1
 Number of Electrons    NEL             ....  134
 Basis Dimension        Dim             ....  322

ORBITAL ENERGIES
----------------

  NO   OCC          E(Eh)            E(eV)
   0   2.0000     -88.976439     -2421.1720
   1   2.0000     -88.964957     -2420.8595
   2   2.0000     -10.338048      -281.3126
   3   2.0000     -10.329083      -281.0686
   4   2.0000     -10.311819      -280.5989
   5   2.0000     -10.309585      -280.5381
   6   2.0000     -10.307104      -280.4705
   7   2.0000     -10.298523      -280.2371
   8   2.0000     -10.292016      -280.0600
   9   2.0000     -10.291032      -280.0332
  10   2.0000     -10.290161      -280.0095
  11   2.0000     -10.288286      -279.9585
  12   2.0000     -10.287567      -279.9389
  13   2.0000     -10.286065      -279.8980
  14   2.0000     -10.281228      -279.7664
  15   2.0000     -10.277986      -279.6782
  16   2.0000      -8.090705      -220.1593
  17   2.0000      -8.080168      -219.8725
  18   2.0000      -6.049003      -164.6017
  19   2.0000      -6.045374      -164.5030
  20   2.0000      -6.041650      -164.4017
  21   2.0000      -6.038823      -164.3247
  22   2.0000      -6.034615      -164.2102
  23   2.0000      -6.030755      -164.1052
  24   2.0000      -1.010235       -27.4899
  25   2.0000      -0.989883       -26.9361
  26   2.0000      -0.917133       -24.9565
  27   2.0000      -0.914289       -24.8791
  28   2.0000      -0.868501       -23.6331
  29   2.0000      -0.856517       -23.3070
  30   2.0000      -0.840724       -22.8773
  31   2.0000      -0.813387       -22.1334
  32   2.0000      -0.791255       -21.5311
  33   2.0000      -0.780191       -21.2301
  34   2.0000      -0.706835       -19.2340
  35   2.0000      -0.698566       -19.0089
  36   2.0000      -0.693897       -18.8819
  37   2.0000      -0.658657       -17.9230
  38   2.0000      -0.632569       -17.2131
  39   2.0000      -0.622895       -16.9498
  40   2.0000      -0.601041       -16.3551
  41   2.0000      -0.579389       -15.7660
  42   2.0000      -0.565388       -15.3850
  43   2.0000      -0.557679       -15.1752
  44   2.0000      -0.544847       -14.8260
  45   2.0000      -0.535949       -14.5839
  46   2.0000      -0.509972       -13.8771
  47   2.0000      -0.508369       -13.8334
  48   2.0000      -0.502523       -13.6743
  49   2.0000      -0.496286       -13.5046
  50   2.0000      -0.494125       -13.4458
  51   2.0000      -0.479232       -13.0406
  52   2.0000      -0.473756       -12.8916
  53   2.0000      -0.468378       -12.7452
  54   2.0000      -0.456151       -12.4125
  55   2.0000      -0.453197       -12.3321
  56   2.0000      -0.448911       -12.2155
  57   2.0000      -0.443434       -12.0665
  58   2.0000      -0.431489       -11.7414
  59   2.0000      -0.428765       -11.6673
  60   2.0000      -0.417947       -11.3729
  61   2.0000      -0.407863       -11.0985
  62   2.0000      -0.398811       -10.8522
  63   2.0000      -0.359600        -9.7852
  64   2.0000      -0.342959        -9.3324
  65   2.0000      -0.328899        -8.9498
  66   2.0000      -0.277166        -7.5421
  67   0.0000       0.017188         0.4677
  68   0.0000       0.089940         2.4474
  69   0.0000       0.092008         2.5037
  70   0.0000       0.122326         3.3287
  71   0.0000       0.128420         3.4945

MULLIKEN ATOMIC CHARGES
-----------------------
   0 S :    0.086609
   1 C :   -0.118715
   2 C :   -0.063966
   3 C :   -0.053129
   4 C :   -0.053866
   5 H :    0.001456
   6 C :    0.097867
   7 H :    0.026362
   8 H :    0.015449
   9 C :   -0.096444
  10 H :    0.029640
  11 H :    0.021439
  12 C :   -0.064503
  13 H :    0.018091
  14 H :    0.018843
  15 H :    0.065047
  16 S :    0.129925
  17 C :   -0.058772
  18 C :   -0.077243
  19 C :   -0.035780
  20 C :   -0.142942
  21 H :    0.043770
  22 C :    0.116701
  23 H :    0.002056
  24 H :    0.021573
  25 C :   -0.116057
  26 H :    0.014613
  27 H :    0.037502
  28 C :   -0.019468
  29 H :    0.044332
  30 H :    0.029388
  31 H :    0.021980
  32 H :    0.039484
  33 H :    0.018760
Sum of atomic charges:   -0.0000000

LOEWDIN ATOMIC CHARGES
----------------------
   0 S :    0.407681
   1 C :   -0.186219
   2 C :   -0.064328
   3 C :   -0.075350
   4 C :   -0.200210
   5 H :    0.027281
   6 C :   -0.029149
   7 H :    0.032118
   8 H :    0.027267
   9 C :   -0.038495
  10 H :    0.025437
  11 H :    0.019357
  12 C :   -0.087120
  13 H :    0.026050
  14 H :    0.032026
  15 H :    0.035145
  16 S :    0.426875
  17 C :   -0.186694
  18 C :   -0.077332
  19 C :   -0.048158
  20 C :   -0.191063
  21 H :    0.046667
  22 C :   -0.027873
  23 H :    0.020496
  24 H :    0.034124
  25 C :   -0.050129
  26 H :    0.019439
  27 H :    0.031709
  28 C :   -0.059419
  29 H :    0.030649
  30 H :    0.026305
  31 H :    0.016712
  32 H :    0.022649
  33 H :    0.013551

  Mayer bond orders larger than 0.100000
B(  0-S ,  1-C ) :   1.1468 B(  0-S ,  4-C ) :   1.1384 B(  1-C ,  2-C ) :   1.5930
B(  1-C , 32-H ) :   0.9724 B(  2-C ,  3-C ) :   1.2732 B(  2-C ,  6-C ) :   1.0262
B(  3-C ,  4-C ) :   1.5473 B(  3-C ,  5-H ) :   0.9852 B(  4-C , 20-C ) :   1.0795
B(  6-C ,  7-H ) :   0.9275 B(  6-C ,  8-H ) :   0.9489 B(  6-C ,  9-C ) :   1.0841
B(  9-C , 10-H ) :   0.9555 B(  9-C , 11-H ) :   0.9570 B(  9-C , 12-C ) :   1.0666
B( 12-C , 13-H ) :   0.9701 B( 12-C , 14-H ) :   0.9682 B( 12-C , 15-H ) :   0.9776
B( 16-S , 17-C ) :   1.1630 B( 16-S , 20-C ) :   1.1666 B( 17-C , 18-C ) :   1.5912
B( 17-C , 20-C ) :   0.1180 B( 17-C , 33-H ) :   0.9699 B( 18-C , 19-C ) :   1.3044
B( 18-C , 21-H ) :   0.9760 B( 19-C , 20-C ) :   1.5134 B( 19-C , 22-C ) :   1.0429
B( 22-C , 23-H ) :   0.9240 B( 22-C , 24-H ) :   0.9279 B( 22-C , 25-C ) :   1.0614
B( 25-C , 26-H ) :   0.9503 B( 25-C , 27-H ) :   0.9579 B( 25-C , 28-C ) :   1.0782
B( 28-C , 29-H ) :   0.9753 B( 28-C , 30-H ) :   0.9743 B( 28-C , 31-H ) :   0.9737

Dispersion correction           -0.014461465
FINAL SINGLE POINT ENERGY     -1339.851367491195

DIPOLE MOMENT
-------------
                                X             Y             Z
Electronic contribution:     -1.98438     -16.02824      26.87932
Nuclear contribution   :      2.21406      16.45853     -27.43967
                        -----------------------------------------
Total Dipole Moment    :      0.22968       0.43028      -0.56035
                        -----------------------------------------
Magnitude (a.u.)       :      0.74289
Magnitude (Debye)      :      1.88828

Rotational constants in cm-1:     0.017514     0.009856     0.006835
Rotational constants in MHz :   525.044356   295.489770   204.898169

                             ****ORCA TERMINATED NORMALLY****
TOTAL RUN TIME: 0 days 0 hours 0 minutes 23 seconds 380 msec
