                         Program Version 4.2.1 -  RELEASE  -
|  1> ! wB97X-D3 SP def2-SVP
|  2> %pal
|  3> nprocs 24
|  4> end
|  5>
|  6> * xyz 0 1
|  7> S 	 -65.1779 	 5.74785 	 19.9394
|  8> C 	 -63.6723 	 6.44352 	 20.4263
|  9> C 	 -62.6984 	 5.48687 	 20.5542
| 10> C 	 -63.1448 	 4.18056 	 20.4186
| 11> C 	 -64.5137 	 4.13397 	 20.1455
| 12> H 	 -62.7136 	 3.24283 	 20.658
| 13> C 	 -61.1947 	 5.69428 	 20.837
| 14> H 	 -60.7542 	 4.80018 	 21.2974
| 15> H 	 -61.0619 	 6.53572 	 21.4926
| 16> C 	 -60.4323 	 6.18867 	 19.5619
| 17> H 	 -60.6498 	 5.50345 	 18.7685
| 18> H 	 -60.767 	 7.0882 	 19.232
| 19> C 	 -58.9086 	 6.18418 	 19.8219
| 20> H 	 -58.3312 	 6.52571 	 18.9495
| 21> H 	 -58.636 	 6.92773 	 20.6291
| 22> H 	 -58.5986 	 5.20602 	 20.1168
| 23> S 	 -67.0642 	 3.13195 	 20.7752
| 24> C 	 -67.4405 	 1.44033 	 20.5958
| 25> C 	 -66.352 	 0.787549 	 20.0984
| 26> C 	 -65.2358 	 1.67494 	 19.8559
| 27> C 	 -65.4424 	 2.99333 	 20.1415
| 28> H 	 -66.4077 	 -0.28645 	 20.1671
| 29> C 	 -63.9115 	 1.10532 	 19.5067
| 30> H 	 -63.3833 	 1.84359 	 18.9003
| 31> H 	 -64.0698 	 0.189297 	 18.8706
| 32> C 	 -63.002 	 0.498497 	 20.5675
| 33> H 	 -63.3831 	 -0.362789 	 21.0841
| 34> H 	 -62.8163 	 1.25649 	 21.3597
| 35> C 	 -61.5673 	 0.302049 	 20.0421
| 36> H 	 -61.4796 	 -0.608989 	 19.369
| 37> H 	 -60.8511 	 0.0902164 	 20.762
| 38> H 	 -61.2638 	 1.27723 	 19.7123
| 39> H 	 -63.5189 	 7.48516 	 20.6032
| 40> H 	 -68.3678 	 0.946726 	 20.9189
| 41> *
| 42>
| 43>                          ****END OF INPUT****

CARTESIAN COORDINATES (ANGSTROEM)
---------------------------------
  S    -65.177900    5.747850   19.939400
  C    -63.672300    6.443520   20.426300
  C    -62.698400    5.486870   20.554200
  C    -63.144800    4.180560   20.418600
  C    -64.513700    4.133970   20.145500
  H    -62.713600    3.242830   20.658000
  C    -61.194700    5.694280   20.837000
  H    -60.754200    4.800180   21.297400
  H    -61.061900    6.535720   21.492600
  C    -60.432300    6.188670   19.561900
  H    -60.649800    5.503450   18.768500
  H    -60.767000    7.088200   19.232000
  C    -58.908600    6.184180   19.821900
  H    -58.331200    6.525710   18.949500
  H    -58.636000    6.927730   20.629100
  H    -58.598600    5.206020   20.116800
  S    -67.064200    3.131950   20.775200
  C    -67.440500    1.440330   20.595800
  C    -66.352000    0.787549   20.098400
  C    -65.235800    1.674940   19.855900
  C    -65.442400    2.993330   20.141500
  H    -66.407700   -0.286450   20.167100
  C    -63.911500    1.105320   19.506700
  H    -63.383300    1.843590   18.900300
  H    -64.069800    0.189297   18.870600
  C    -63.002000    0.498497   20.567500
  H    -63.383100   -0.362789   21.084100
  H    -62.816300    1.256490   21.359700
  C    -61.567300    0.302049   20.042100
  H    -61.479600   -0.608989   19.369000
  H    -60.851100    0.090216   20.762000
  H    -61.263800    1.277230   19.712300
  H    -63.518900    7.485160   20.603200
  H    -68.367800    0.946726   20.918900

 Total Charge           Charge          ....    0
 Multiplicity           Mult            ....    1
 Number of Electrons    NEL             ....  134
 Basis Dimension        Dim             ....  322

ORBITAL ENERGIES
----------------

  NO   OCC          E(Eh)            E(eV)
   0   2.0000     -88.969140     -2420.9734
   1   2.0000     -88.962068     -2420.7809
   2   2.0000     -10.334344      -281.2118
   3   2.0000     -10.326977      -281.0113
   4   2.0000     -10.318679      -280.7855
   5   2.0000     -10.311813      -280.5987
   6   2.0000     -10.300322      -280.2860
   7   2.0000     -10.299964      -280.2763
   8   2.0000     -10.293988      -280.1136
   9   2.0000     -10.292657      -280.0774
  10   2.0000     -10.292138      -280.0633
  11   2.0000     -10.289594      -279.9941
  12   2.0000     -10.289462      -279.9905
  13   2.0000     -10.281864      -279.7838
  14   2.0000     -10.279093      -279.7083
  15   2.0000     -10.278600      -279.6949
  16   2.0000      -8.084087      -219.9792
  17   2.0000      -8.077220      -219.7923
  18   2.0000      -6.042505      -164.4249
  19   2.0000      -6.038524      -164.3166
  20   2.0000      -6.035876      -164.2445
  21   2.0000      -6.034981      -164.2202
  22   2.0000      -6.031561      -164.1271
  23   2.0000      -6.027870      -164.0267
  24   2.0000      -1.012753       -27.5584
  25   2.0000      -0.991418       -26.9778
  26   2.0000      -0.914318       -24.8798
  27   2.0000      -0.909784       -24.7565
  28   2.0000      -0.872952       -23.7542
  29   2.0000      -0.857676       -23.3385
  30   2.0000      -0.849397       -23.1133
  31   2.0000      -0.819114       -22.2892
  32   2.0000      -0.780500       -21.2385
  33   2.0000      -0.771880       -21.0039
  34   2.0000      -0.708288       -19.2735
  35   2.0000      -0.707222       -19.2445
  36   2.0000      -0.696640       -18.9565
  37   2.0000      -0.667687       -18.1687
  38   2.0000      -0.646646       -17.5961
  39   2.0000      -0.624417       -16.9913
  40   2.0000      -0.597414       -16.2565
  41   2.0000      -0.575898       -15.6710
  42   2.0000      -0.572983       -15.5917
  43   2.0000      -0.565102       -15.3772
  44   2.0000      -0.529106       -14.3977
  45   2.0000      -0.520662       -14.1679
  46   2.0000      -0.518616       -14.1123
  47   2.0000      -0.517954       -14.0943
  48   2.0000      -0.506448       -13.7811
  49   2.0000      -0.502624       -13.6771
  50   2.0000      -0.495671       -13.4879
  51   2.0000      -0.481940       -13.1142
  52   2.0000      -0.476464       -12.9652
  53   2.0000      -0.467823       -12.7301
  54   2.0000      -0.459839       -12.5128
  55   2.0000      -0.454694       -12.3729
  56   2.0000      -0.449196       -12.2232
  57   2.0000      -0.443635       -12.0719
  58   2.0000      -0.432229       -11.7616
  59   2.0000      -0.423128       -11.5139
  60   2.0000      -0.420445       -11.4409
  61   2.0000      -0.417125       -11.3505
  62   2.0000      -0.403073       -10.9682
  63   2.0000      -0.358881        -9.7656
  64   2.0000      -0.336789        -9.1645
  65   2.0000      -0.326091        -8.8734
  66   2.0000      -0.289380        -7.8744
  67   0.0000       0.022261         0.6058
  68   0.0000       0.081273         2.2115
  69   0.0000       0.108785         2.9602
  70   0.0000       0.120956         3.2914
  71   0.0000       0.129051         3.5117

MULLIKEN ATOMIC CHARGES
-----------------------
   0 S :    0.117645
   1 C :   -0.117460
   2 C :   -0.047628
   3 C :    0.044014
   4 C :   -0.161889
   5 H :   -0.037249
   6 C :    0.057529
   7 H :    0.028510
   8 H :    0.015064
   9 C :   -0.024956
  10 H :    0.018489
  11 H :    0.002336
  12 C :   -0.053723
  13 H :    0.038757
  14 H :    0.031196
  15 H :    0.026493
  16 S :    0.090890
  17 C :   -0.106774
  18 C :   -0.018671
  19 C :   -0.042732
  20 C :   -0.086450
  21 H :    0.021228
  22 C :    0.013688
  23 H :    0.029399
  24 H :    0.026018
  25 C :   -0.064835
  26 H :    0.023580
  27 H :    0.022606
  28 C :   -0.030137
  29 H :    0.043611
  30 H :    0.012477
  31 H :    0.022596
  32 H :    0.037510
  33 H :    0.068866
Sum of atomic charges:   -0.0000000

LOEWDIN ATOMIC CHARGES
----------------------
   0 S :    0.417953
   1 C :   -0.200769
   2 C :   -0.060737
   3 C :   -0.063269
   4 C :   -0.173953
   5 H :    0.025297
   6 C :   -0.022039
   7 H :    0.029394
   8 H :    0.025447
   9 C :   -0.025352
  10 H :    0.020120
  11 H :    0.008216
  12 C :   -0.064642
  13 H :    0.027912
  14 H :    0.028437
  15 H :    0.018980
  16 S :    0.401382
  17 C :   -0.183362
  18 C :   -0.074828
  19 C :   -0.063713
  20 C :   -0.201508
  21 H :    0.033191
  22 C :   -0.044898
  23 H :    0.030139
  24 H :    0.037833
  25 C :   -0.039925
  26 H :    0.020292
  27 H :    0.019435
  28 C :   -0.061673
  29 H :    0.033046
  30 H :    0.016653
  31 H :    0.023521
  32 H :    0.024807
  33 H :    0.038613

  Mayer bond orders larger than 0.100000
B(  0-S ,  1-C ) :   1.1408 B(  0-S ,  4-C ) :   1.1681 B(  1-C ,  2-C ) :   1.5953
B(  1-C ,  4-C ) :   0.1026 B(  1-C , 32-H ) :   0.9738 B(  2-C ,  3-C ) :   1.2480
B(  2-C ,  6-C ) :   1.0221 B(  3-C ,  4-C ) :   1.5466 B(  3-C ,  5-H ) :   0.9960
B(  4-C , 20-C ) :   1.0507 B(  6-C ,  7-H ) :   0.9513 B(  6-C ,  8-H ) :   0.9387
B(  6-C ,  9-C ) :   1.0525 B(  9-C , 10-H ) :   0.9561 B(  9-C , 11-H ) :   0.9568
B(  9-C , 12-C ) :   1.0833 B( 12-C , 13-H ) :   0.9744 B( 12-C , 14-H ) :   0.9747
B( 12-C , 15-H ) :   0.9766 B( 16-S , 17-C ) :   1.1568 B( 16-S , 20-C ) :   1.1190
B( 17-C , 18-C ) :   1.6200 B( 17-C , 33-H ) :   0.9633 B( 18-C , 19-C ) :   1.2200
B( 18-C , 21-H ) :   0.9946 B( 19-C , 20-C ) :   1.6012 B( 19-C , 22-C ) :   1.0750
B( 22-C , 23-H ) :   0.9305 B( 22-C , 24-H ) :   0.9262 B( 22-C , 25-C ) :   1.0579
B( 25-C , 26-H ) :   0.9511 B( 25-C , 27-H ) :   0.9497 B( 25-C , 28-C ) :   1.0810
B( 28-C , 29-H ) :   0.9740 B( 28-C , 30-H ) :   0.9710 B( 28-C , 31-H ) :   0.9720

Dispersion correction           -0.014184025
FINAL SINGLE POINT ENERGY     -1339.867640538966

DIPOLE MOMENT
-------------
                                X             Y             Z
Electronic contribution:    -32.25935       6.88407       1.34600
Nuclear contribution   :     32.83321      -7.23012      -1.12100
                        -----------------------------------------
Total Dipole Moment    :      0.57386      -0.34606       0.22500
                        -----------------------------------------
Magnitude (a.u.)       :      0.70689
Magnitude (Debye)      :      1.79676

Rotational constants in cm-1:     0.019211     0.008984     0.006343
Rotational constants in MHz :   575.916609   269.325642   190.160709

                             ****ORCA TERMINATED NORMALLY****
TOTAL RUN TIME: 0 days 0 hours 0 minutes 22 seconds 322 msec
