                         Program Version 4.2.1 -  RELEASE  -
|  1> ! wB97X-D3 SP def2-SVP
|  2> %pal
|  3> nprocs 24
|  4> end
|  5>
|  6> * xyz 0 1
|  7> S 	 -78.6886 	 -6.59793 	 -58.8322
|  8> C 	 -78.5888 	 -7.46094 	 -57.2612
|  9> C 	 -79.727 	 -7.20832 	 -56.5314
| 10> C 	 -80.7514 	 -6.56461 	 -57.2912
| 11> C 	 -80.3399 	 -6.12086 	 -58.5345
| 12> H 	 -81.7567 	 -6.27653 	 -56.9931
| 13> C 	 -79.8801 	 -7.73121 	 -55.0889
| 14> H 	 -78.869 	 -7.65068 	 -54.6861
| 15> H 	 -80.2247 	 -8.79244 	 -55.0541
| 16> C 	 -80.7531 	 -6.96536 	 -54.0618
| 17> H 	 -80.2683 	 -6.0198 	 -53.9426
| 18> H 	 -81.6861 	 -6.79574 	 -54.5041
| 19> C 	 -80.7988 	 -7.8217 	 -52.7713
| 20> H 	 -80.7973 	 -7.24362 	 -51.8622
| 21> H 	 -81.7339 	 -8.34563 	 -52.7182
| 22> H 	 -80.0706 	 -8.66165 	 -52.7357
| 23> S 	 -80.1508 	 -3.8332 	 -60.0825
| 24> C 	 -81.4353 	 -3.34951 	 -61.0632
| 25> C 	 -82.524 	 -4.17838 	 -60.928
| 26> C 	 -82.309 	 -5.33816 	 -60.1269
| 27> C 	 -81.0445 	 -5.26638 	 -59.5447
| 28> H 	 -83.3946 	 -4.0308 	 -61.5591
| 29> C 	 -83.2906 	 -6.37697 	 -59.7358
| 30> H 	 -82.7282 	 -6.97053 	 -59.1009
| 31> H 	 -83.4932 	 -6.85259 	 -60.7278
| 32> C 	 -84.5611 	 -6.04206 	 -59.0846
| 33> H 	 -85.1193 	 -5.42317 	 -59.7854
| 34> H 	 -84.2723 	 -5.33981 	 -58.2942
| 35> C 	 -85.2133 	 -7.18754 	 -58.3388
| 36> H 	 -86.2105 	 -6.90468 	 -58.0039
| 37> H 	 -84.5275 	 -7.3314 	 -57.5044
| 38> H 	 -85.3142 	 -8.09361 	 -58.8936
| 39> H 	 -77.7033 	 -7.88188 	 -56.7479
| 40> H 	 -81.3429 	 -2.54512 	 -61.8385
| 41> *
| 42>
| 43>                          ****END OF INPUT****

CARTESIAN COORDINATES (ANGSTROEM)
---------------------------------
  S    -78.688600   -6.597930  -58.832200
  C    -78.588800   -7.460940  -57.261200
  C    -79.727000   -7.208320  -56.531400
  C    -80.751400   -6.564610  -57.291200
  C    -80.339900   -6.120860  -58.534500
  H    -81.756700   -6.276530  -56.993100
  C    -79.880100   -7.731210  -55.088900
  H    -78.869000   -7.650680  -54.686100
  H    -80.224700   -8.792440  -55.054100
  C    -80.753100   -6.965360  -54.061800
  H    -80.268300   -6.019800  -53.942600
  H    -81.686100   -6.795740  -54.504100
  C    -80.798800   -7.821700  -52.771300
  H    -80.797300   -7.243620  -51.862200
  H    -81.733900   -8.345630  -52.718200
  H    -80.070600   -8.661650  -52.735700
  S    -80.150800   -3.833200  -60.082500
  C    -81.435300   -3.349510  -61.063200
  C    -82.524000   -4.178380  -60.928000
  C    -82.309000   -5.338160  -60.126900
  C    -81.044500   -5.266380  -59.544700
  H    -83.394600   -4.030800  -61.559100
  C    -83.290600   -6.376970  -59.735800
  H    -82.728200   -6.970530  -59.100900
  H    -83.493200   -6.852590  -60.727800
  C    -84.561100   -6.042060  -59.084600
  H    -85.119300   -5.423170  -59.785400
  H    -84.272300   -5.339810  -58.294200
  C    -85.213300   -7.187540  -58.338800
  H    -86.210500   -6.904680  -58.003900
  H    -84.527500   -7.331400  -57.504400
  H    -85.314200   -8.093610  -58.893600
  H    -77.703300   -7.881880  -56.747900
  H    -81.342900   -2.545120  -61.838500

 Total Charge           Charge          ....    0
 Multiplicity           Mult            ....    1
 Number of Electrons    NEL             ....  134
 Basis Dimension        Dim             ....  322

ORBITAL ENERGIES
----------------

  NO   OCC          E(Eh)            E(eV)
   0   2.0000     -88.966554     -2420.9030
   1   2.0000     -88.965466     -2420.8734
   2   2.0000     -10.333920      -281.2003
   3   2.0000     -10.329435      -281.0782
   4   2.0000     -10.317223      -280.7459
   5   2.0000     -10.316927      -280.7379
   6   2.0000     -10.303943      -280.3846
   7   2.0000     -10.303036      -280.3599
   8   2.0000     -10.296716      -280.1879
   9   2.0000     -10.295561      -280.1565
  10   2.0000     -10.291894      -280.0567
  11   2.0000     -10.283901      -279.8392
  12   2.0000     -10.281724      -279.7799
  13   2.0000     -10.280651      -279.7507
  14   2.0000     -10.280253      -279.7399
  15   2.0000     -10.279847      -279.7289
  16   2.0000      -8.081165      -219.8997
  17   2.0000      -8.080552      -219.8830
  18   2.0000      -6.039498      -164.3431
  19   2.0000      -6.039204      -164.3351
  20   2.0000      -6.035492      -164.2341
  21   2.0000      -6.035083      -164.2229
  22   2.0000      -6.032085      -164.1414
  23   2.0000      -6.031254      -164.1188
  24   2.0000      -1.008293       -27.4370
  25   2.0000      -0.985727       -26.8230
  26   2.0000      -0.927425       -25.2365
  27   2.0000      -0.910402       -24.7733
  28   2.0000      -0.868751       -23.6399
  29   2.0000      -0.860211       -23.4075
  30   2.0000      -0.840195       -22.8629
  31   2.0000      -0.816096       -22.2071
  32   2.0000      -0.787982       -21.4421
  33   2.0000      -0.772756       -21.0278
  34   2.0000      -0.713008       -19.4019
  35   2.0000      -0.703876       -19.1535
  36   2.0000      -0.690224       -18.7820
  37   2.0000      -0.655332       -17.8325
  38   2.0000      -0.640282       -17.4230
  39   2.0000      -0.618424       -16.8282
  40   2.0000      -0.599593       -16.3157
  41   2.0000      -0.581036       -15.8108
  42   2.0000      -0.573885       -15.6162
  43   2.0000      -0.563009       -15.3203
  44   2.0000      -0.529728       -14.4146
  45   2.0000      -0.522898       -14.2288
  46   2.0000      -0.519632       -14.1399
  47   2.0000      -0.507953       -13.8221
  48   2.0000      -0.504995       -13.7416
  49   2.0000      -0.499714       -13.5979
  50   2.0000      -0.495552       -13.4846
  51   2.0000      -0.480963       -13.0877
  52   2.0000      -0.474299       -12.9063
  53   2.0000      -0.467732       -12.7276
  54   2.0000      -0.461878       -12.5683
  55   2.0000      -0.452681       -12.3181
  56   2.0000      -0.448702       -12.2098
  57   2.0000      -0.435126       -11.8404
  58   2.0000      -0.432114       -11.7584
  59   2.0000      -0.428645       -11.6640
  60   2.0000      -0.424529       -11.5520
  61   2.0000      -0.415635       -11.3100
  62   2.0000      -0.410361       -11.1665
  63   2.0000      -0.343876        -9.3573
  64   2.0000      -0.333120        -9.0646
  65   2.0000      -0.330715        -8.9992
  66   2.0000      -0.295891        -8.0516
  67   0.0000       0.029802         0.8110
  68   0.0000       0.070231         1.9111
  69   0.0000       0.114703         3.1212
  70   0.0000       0.120237         3.2718
  71   0.0000       0.125699         3.4204

MULLIKEN ATOMIC CHARGES
-----------------------
   0 S :    0.103009
   1 C :   -0.123778
   2 C :   -0.076333
   3 C :    0.039490
   4 C :   -0.156276
   5 H :    0.006003
   6 C :   -0.014537
   7 H :    0.027698
   8 H :    0.054748
   9 C :   -0.037137
  10 H :    0.029124
  11 H :    0.020934
  12 C :   -0.047644
  13 H :    0.034753
  14 H :    0.023290
  15 H :    0.037183
  16 S :    0.116399
  17 C :   -0.101463
  18 C :   -0.047524
  19 C :   -0.044254
  20 C :   -0.178544
  21 H :    0.016777
  22 C :    0.107442
  23 H :   -0.014629
  24 H :    0.033325
  25 C :   -0.066647
  26 H :    0.020169
  27 H :    0.017508
  28 C :   -0.011950
  29 H :    0.036876
  30 H :    0.029195
  31 H :    0.029745
  32 H :    0.059775
  33 H :    0.077272
Sum of atomic charges:    0.0000000

LOEWDIN ATOMIC CHARGES
----------------------
   0 S :    0.393088
   1 C :   -0.194447
   2 C :   -0.064729
   3 C :   -0.074715
   4 C :   -0.189761
   5 H :    0.028349
   6 C :   -0.034844
   7 H :    0.029597
   8 H :    0.034805
   9 C :   -0.031810
  10 H :    0.022850
  11 H :    0.013179
  12 C :   -0.065835
  13 H :    0.026447
  14 H :    0.026723
  15 H :    0.030375
  16 S :    0.424140
  17 C :   -0.208341
  18 C :   -0.081332
  19 C :   -0.049232
  20 C :   -0.196950
  21 H :    0.029106
  22 C :   -0.033200
  23 H :    0.018403
  24 H :    0.040168
  25 C :   -0.045294
  26 H :    0.019496
  27 H :    0.025253
  28 C :   -0.051873
  29 H :    0.030269
  30 H :    0.029198
  31 H :    0.020811
  32 H :    0.038346
  33 H :    0.041758

  Mayer bond orders larger than 0.100000
B(  0-S ,  1-C ) :   1.1180 B(  0-S ,  4-C ) :   1.1607 B(  1-C ,  2-C ) :   1.6397
B(  1-C , 32-H ) :   0.9621 B(  2-C ,  3-C ) :   1.2222 B(  2-C ,  6-C ) :   1.0037
B(  3-C ,  4-C ) :   1.5837 B(  3-C ,  5-H ) :   0.9892 B(  4-C , 20-C ) :   1.0022
B(  6-C ,  7-H ) :   0.9457 B(  6-C ,  8-H ) :   0.9488 B(  6-C ,  9-C ) :   1.0656
B(  9-C , 10-H ) :   0.9632 B(  9-C , 11-H ) :   0.9594 B(  9-C , 12-C ) :   1.0632
B( 12-C , 13-H ) :   0.9757 B( 12-C , 14-H ) :   0.9729 B( 12-C , 15-H ) :   0.9776
B( 16-S , 17-C ) :   1.1748 B( 16-S , 20-C ) :   1.1511 B( 17-C , 18-C ) :   1.5924
B( 17-C , 33-H ) :   0.9593 B( 18-C , 19-C ) :   1.2442 B( 18-C , 21-H ) :   0.9887
B( 19-C , 20-C ) :   1.5803 B( 19-C , 22-C ) :   1.0549 B( 22-C , 23-H ) :   0.9256
B( 22-C , 24-H ) :   0.9010 B( 22-C , 25-C ) :   1.0827 B( 25-C , 26-H ) :   0.9454
B( 25-C , 27-H ) :   0.9550 B( 25-C , 28-C ) :   1.0730 B( 28-C , 29-H ) :   0.9720
B( 28-C , 30-H ) :   0.9742 B( 28-C , 31-H ) :   0.9781

Dispersion correction           -0.013706048
FINAL SINGLE POINT ENERGY     -1339.866695546202

DIPOLE MOMENT
-------------
                                X             Y             Z
Electronic contribution:     19.27150      11.86274     -21.24396
Nuclear contribution   :    -19.80112     -11.96472      21.62260
                        -----------------------------------------
Total Dipole Moment    :     -0.52962      -0.10198       0.37865
                        -----------------------------------------
Magnitude (a.u.)       :      0.65899
Magnitude (Debye)      :      1.67502

Rotational constants in cm-1:     0.016941     0.008798     0.006485
Rotational constants in MHz :   507.870656   263.748172   194.409396

                             ****ORCA TERMINATED NORMALLY****
TOTAL RUN TIME: 0 days 0 hours 0 minutes 21 seconds 389 msec
