                         Program Version 4.2.1 -  RELEASE  -
|  1> ! wB97X-D3 SP def2-SVP
|  2> %pal
|  3> nprocs 24
|  4> end
|  5>
|  6> * xyz 0 1
|  7> S 	 27.3488 	 -23.4649 	 -121.467
|  8> C 	 27.9004 	 -22.0859 	 -122.304
|  9> C 	 26.8546 	 -21.4717 	 -123.02
| 10> C 	 25.5825 	 -22.2056 	 -122.998
| 11> C 	 25.7272 	 -23.3436 	 -122.208
| 12> H 	 24.6042 	 -22.0333 	 -123.435
| 13> C 	 26.9191 	 -20.1572 	 -123.741
| 14> H 	 27.7648 	 -19.5962 	 -123.408
| 15> H 	 26.1576 	 -19.5223 	 -123.275
| 16> C 	 26.7883 	 -20.2047 	 -125.303
| 17> H 	 25.8718 	 -20.6769 	 -125.5
| 18> H 	 26.5793 	 -19.1475 	 -125.704
| 19> C 	 27.9564 	 -20.8693 	 -125.921
| 20> H 	 28.7505 	 -20.3435 	 -125.487
| 21> H 	 28.1142 	 -21.8605 	 -125.537
| 22> H 	 28.056 	 -20.7841 	 -127.032
| 23> S 	 25.0738 	 -26.0608 	 -122.356
| 24> C 	 23.428 	 -26.6112 	 -122.001
| 25> C 	 22.675 	 -25.5232 	 -121.597
| 26> C 	 23.2568 	 -24.2421 	 -121.831
| 27> C 	 24.6827 	 -24.3786 	 -122.01
| 28> H 	 21.6167 	 -25.6386 	 -121.341
| 29> C 	 22.5159 	 -23.021 	 -121.474
| 30> H 	 21.5785 	 -23.1179 	 -121.997
| 31> H 	 23.0069 	 -22.2658 	 -121.957
| 32> C 	 22.3654 	 -22.7101 	 -119.891
| 33> H 	 22.0091 	 -23.555 	 -119.328
| 34> H 	 21.5935 	 -21.8999 	 -119.724
| 35> C 	 23.6892 	 -22.2451 	 -119.289
| 36> H 	 23.9954 	 -21.3475 	 -119.87
| 37> H 	 24.4007 	 -23.1091 	 -119.471
| 38> H 	 23.4388 	 -22.0534 	 -118.206
| 39> H 	 28.9174 	 -21.6238 	 -122.275
| 40> H 	 23.036 	 -27.6595 	 -121.918
| 41> *
| 42>
| 43>                          ****END OF INPUT****

CARTESIAN COORDINATES (ANGSTROEM)
---------------------------------
  S     27.348800  -23.464900  -121.467000
  C     27.900400  -22.085900  -122.304000
  C     26.854600  -21.471700  -123.020000
  C     25.582500  -22.205600  -122.998000
  C     25.727200  -23.343600  -122.208000
  H     24.604200  -22.033300  -123.435000
  C     26.919100  -20.157200  -123.741000
  H     27.764800  -19.596200  -123.408000
  H     26.157600  -19.522300  -123.275000
  C     26.788300  -20.204700  -125.303000
  H     25.871800  -20.676900  -125.500000
  H     26.579300  -19.147500  -125.704000
  C     27.956400  -20.869300  -125.921000
  H     28.750500  -20.343500  -125.487000
  H     28.114200  -21.860500  -125.537000
  H     28.056000  -20.784100  -127.032000
  S     25.073800  -26.060800  -122.356000
  C     23.428000  -26.611200  -122.001000
  C     22.675000  -25.523200  -121.597000
  C     23.256800  -24.242100  -121.831000
  C     24.682700  -24.378600  -122.010000
  H     21.616700  -25.638600  -121.341000
  C     22.515900  -23.021000  -121.474000
  H     21.578500  -23.117900  -121.997000
  H     23.006900  -22.265800  -121.957000
  C     22.365400  -22.710100  -119.891000
  H     22.009100  -23.555000  -119.328000
  H     21.593500  -21.899900  -119.724000
  C     23.689200  -22.245100  -119.289000
  H     23.995400  -21.347500  -119.870000
  H     24.400700  -23.109100  -119.471000
  H     23.438800  -22.053400  -118.206000
  H     28.917400  -21.623800  -122.275000
  H     23.036000  -27.659500  -121.918000

 Total Charge           Charge          ....    0
 Multiplicity           Mult            ....    1
 Number of Electrons    NEL             ....  134
 Basis Dimension        Dim             ....  322

ORBITAL ENERGIES
----------------

  NO   OCC          E(Eh)            E(eV)
   0   2.0000     -88.971383     -2421.0344
   1   2.0000     -88.968175     -2420.9471
   2   2.0000     -10.336831      -281.2795
   3   2.0000     -10.335968      -281.2560
   4   2.0000     -10.323007      -280.9033
   5   2.0000     -10.319958      -280.8203
   6   2.0000     -10.308822      -280.5173
   7   2.0000     -10.305404      -280.4243
   8   2.0000     -10.302034      -280.3326
   9   2.0000     -10.293709      -280.1061
  10   2.0000     -10.292692      -280.0784
  11   2.0000     -10.288664      -279.9688
  12   2.0000     -10.286678      -279.9147
  13   2.0000     -10.285703      -279.8882
  14   2.0000     -10.281773      -279.7813
  15   2.0000     -10.268035      -279.4074
  16   2.0000      -8.085895      -220.0284
  17   2.0000      -8.082045      -219.9236
  18   2.0000      -6.044446      -164.4777
  19   2.0000      -6.040692      -164.3756
  20   2.0000      -6.040422      -164.3682
  21   2.0000      -6.036623      -164.2649
  22   2.0000      -6.036522      -164.2621
  23   2.0000      -6.032850      -164.1622
  24   2.0000      -1.001420       -27.2500
  25   2.0000      -0.980914       -26.6920
  26   2.0000      -0.913350       -24.8535
  27   2.0000      -0.905995       -24.6534
  28   2.0000      -0.868202       -23.6250
  29   2.0000      -0.852998       -23.2112
  30   2.0000      -0.847070       -23.0499
  31   2.0000      -0.814373       -22.1602
  32   2.0000      -0.780104       -21.2277
  33   2.0000      -0.766233       -20.8503
  34   2.0000      -0.706625       -19.2283
  35   2.0000      -0.693286       -18.8653
  36   2.0000      -0.691150       -18.8072
  37   2.0000      -0.655766       -17.8443
  38   2.0000      -0.641460       -17.4550
  39   2.0000      -0.618216       -16.8225
  40   2.0000      -0.592926       -16.1343
  41   2.0000      -0.564545       -15.3620
  42   2.0000      -0.552590       -15.0367
  43   2.0000      -0.550956       -14.9923
  44   2.0000      -0.538647       -14.6573
  45   2.0000      -0.534891       -14.5551
  46   2.0000      -0.522470       -14.2171
  47   2.0000      -0.507825       -13.8186
  48   2.0000      -0.500119       -13.6089
  49   2.0000      -0.494649       -13.4601
  50   2.0000      -0.493315       -13.4238
  51   2.0000      -0.476795       -12.9743
  52   2.0000      -0.468476       -12.7479
  53   2.0000      -0.461783       -12.5658
  54   2.0000      -0.454114       -12.3571
  55   2.0000      -0.448105       -12.1936
  56   2.0000      -0.438154       -11.9228
  57   2.0000      -0.436299       -11.8723
  58   2.0000      -0.431228       -11.7343
  59   2.0000      -0.427621       -11.6362
  60   2.0000      -0.422445       -11.4953
  61   2.0000      -0.414128       -11.2690
  62   2.0000      -0.413202       -11.2438
  63   2.0000      -0.353318        -9.6143
  64   2.0000      -0.329716        -8.9720
  65   2.0000      -0.325060        -8.8453
  66   2.0000      -0.288586        -7.8528
  67   0.0000       0.023508         0.6397
  68   0.0000       0.070551         1.9198
  69   0.0000       0.106091         2.8869
  70   0.0000       0.113329         3.0839
  71   0.0000       0.123053         3.3485

MULLIKEN ATOMIC CHARGES
-----------------------
   0 S :    0.125801
   1 C :   -0.116937
   2 C :   -0.115553
   3 C :    0.029439
   4 C :   -0.163884
   5 H :    0.036805
   6 C :    0.039363
   7 H :    0.001796
   8 H :    0.028404
   9 C :   -0.050566
  10 H :    0.009547
  11 H :    0.031873
  12 C :   -0.001726
  13 H :   -0.003087
  14 H :    0.034823
  15 H :    0.047109
  16 S :    0.108100
  17 C :   -0.107184
  18 C :   -0.035341
  19 C :   -0.102764
  20 C :   -0.145039
  21 H :    0.026327
  22 C :    0.136241
  23 H :    0.021975
  24 H :   -0.035382
  25 C :   -0.083396
  26 H :    0.026762
  27 H :    0.034526
  28 C :   -0.075607
  29 H :    0.042105
  30 H :    0.057923
  31 H :    0.050870
  32 H :    0.067595
  33 H :    0.079082
Sum of atomic charges:    0.0000000

LOEWDIN ATOMIC CHARGES
----------------------
   0 S :    0.412375
   1 C :   -0.226155
   2 C :   -0.060295
   3 C :   -0.058475
   4 C :   -0.182868
   5 H :    0.036108
   6 C :   -0.039387
   7 H :    0.021086
   8 H :    0.036165
   9 C :   -0.037184
  10 H :    0.010386
  11 H :    0.031785
  12 C :   -0.065671
  13 H :    0.018390
  14 H :    0.028351
  15 H :    0.034054
  16 S :    0.401329
  17 C :   -0.195837
  18 C :   -0.072665
  19 C :   -0.059593
  20 C :   -0.201255
  21 H :    0.032517
  22 C :   -0.030393
  23 H :    0.033681
  24 H :    0.011537
  25 C :   -0.034408
  26 H :    0.017797
  27 H :    0.025520
  28 C :   -0.072516
  29 H :    0.028045
  30 H :    0.034563
  31 H :    0.034419
  32 H :    0.043113
  33 H :    0.045481

  Mayer bond orders larger than 0.100000
B(  0-S ,  1-C ) :   1.1332 B(  0-S ,  4-C ) :   1.1481 B(  1-C ,  2-C ) :   1.6129
B(  1-C , 32-H ) :   0.9600 B(  2-C ,  3-C ) :   1.2023 B(  2-C ,  6-C ) :   1.0335
B(  3-C ,  4-C ) :   1.5919 B(  3-C ,  5-H ) :   0.9830 B(  4-C , 20-C ) :   1.0380
B(  6-C ,  7-H ) :   0.9419 B(  6-C ,  8-H ) :   0.9356 B(  6-C ,  9-C ) :   1.0609
B(  9-C , 10-H ) :   0.9568 B(  9-C , 11-H ) :   0.9526 B(  9-C , 12-C ) :   1.0692
B( 12-C , 13-H ) :   0.9682 B( 12-C , 14-H ) :   0.9697 B( 12-C , 15-H ) :   0.9716
B( 16-S , 17-C ) :   1.1440 B( 16-S , 20-C ) :   1.1575 B( 17-C , 18-C ) :   1.6078
B( 17-C , 20-C ) :   0.1069 B( 17-C , 33-H ) :   0.9601 B( 18-C , 19-C ) :   1.2623
B( 18-C , 21-H ) :   0.9775 B( 19-C , 20-C ) :   1.5224 B( 19-C , 22-C ) :   1.0753
B( 22-C , 23-H ) :   0.9183 B( 22-C , 24-H ) :   0.9224 B( 22-C , 25-C ) :   1.0417
B( 25-C , 26-H ) :   0.9623 B( 25-C , 27-H ) :   0.9574 B( 25-C , 28-C ) :   1.0672
B( 28-C , 29-H ) :   0.9758 B( 28-C , 30-H ) :   0.9731 B( 28-C , 31-H ) :   0.9704

Dispersion correction           -0.015488552
FINAL SINGLE POINT ENERGY     -1339.858961655883

DIPOLE MOMENT
-------------
                                X             Y             Z
Electronic contribution:      5.59024     -20.32708       4.07108
Nuclear contribution   :     -6.00819      20.79627      -4.11453
                        -----------------------------------------
Total Dipole Moment    :     -0.41794       0.46919      -0.04345
                        -----------------------------------------
Magnitude (a.u.)       :      0.62984
Magnitude (Debye)      :      1.60093

Rotational constants in cm-1:     0.020209     0.008464     0.007608
Rotational constants in MHz :   605.840187   253.730551   228.078441

                             ****ORCA TERMINATED NORMALLY****
TOTAL RUN TIME: 0 days 0 hours 0 minutes 22 seconds 407 msec
