                         Program Version 4.2.1 -  RELEASE  -
|  1> ! wB97X-D3 SP def2-SVP
|  2> %pal
|  3> nprocs 24
|  4> end
|  5>
|  6> * xyz 0 1
|  7> S 	 -58.1794 	 -4.57787 	 -27.1518
|  8> C 	 -57.4121 	 -4.6859 	 -25.5494
|  9> C 	 -56.1416 	 -4.09452 	 -25.5748
| 10> C 	 -55.9859 	 -3.31419 	 -26.8012
| 11> C 	 -56.9972 	 -3.35829 	 -27.7754
| 12> H 	 -55.1704 	 -2.71217 	 -26.983
| 13> C 	 -55.0942 	 -4.247 	 -24.5675
| 14> H 	 -54.2838 	 -3.57881 	 -24.8594
| 15> H 	 -54.7415 	 -5.31903 	 -24.5924
| 16> C 	 -55.5624 	 -3.86471 	 -23.1695
| 17> H 	 -56.0779 	 -2.93367 	 -23.3439
| 18> H 	 -56.3232 	 -4.48277 	 -22.8379
| 19> C 	 -54.4946 	 -3.8061 	 -22.1323
| 20> H 	 -53.8415 	 -4.66004 	 -21.9632
| 21> H 	 -54.0012 	 -2.82324 	 -22.3333
| 22> H 	 -54.9145 	 -3.77363 	 -21.1477
| 23> S 	 -57.4684 	 -3.44486 	 -30.4997
| 24> C 	 -57.4356 	 -1.98373 	 -31.4489
| 25> C 	 -57.1583 	 -0.899158 	 -30.6245
| 26> C 	 -57.0163 	 -1.19979 	 -29.2315
| 27> C 	 -57.1335 	 -2.57723 	 -28.9832
| 28> H 	 -57.1049 	 0.0505434 	 -31.0553
| 29> C 	 -56.7133 	 -0.0989854 	 -28.1766
| 30> H 	 -56.1161 	 0.689945 	 -28.598
| 31> H 	 -56.0107 	 -0.506934 	 -27.3925
| 32> C 	 -57.9896 	 0.446373 	 -27.5318
| 33> H 	 -57.6394 	 1.03069 	 -26.735
| 34> H 	 -58.5399 	 -0.323105 	 -27.0244
| 35> C 	 -59.0001 	 1.23605 	 -28.3757
| 36> H 	 -59.6081 	 0.571418 	 -29.0585
| 37> H 	 -58.4674 	 1.83536 	 -29.1114
| 38> H 	 -59.7021 	 1.77506 	 -27.8098
| 39> H 	 -57.6657 	 -5.30366 	 -24.6795
| 40> H 	 -57.6888 	 -2.03924 	 -32.5019
| 41> *
| 42>
| 43>                          ****END OF INPUT****

CARTESIAN COORDINATES (ANGSTROEM)
---------------------------------
  S    -58.179400   -4.577870  -27.151800
  C    -57.412100   -4.685900  -25.549400
  C    -56.141600   -4.094520  -25.574800
  C    -55.985900   -3.314190  -26.801200
  C    -56.997200   -3.358290  -27.775400
  H    -55.170400   -2.712170  -26.983000
  C    -55.094200   -4.247000  -24.567500
  H    -54.283800   -3.578810  -24.859400
  H    -54.741500   -5.319030  -24.592400
  C    -55.562400   -3.864710  -23.169500
  H    -56.077900   -2.933670  -23.343900
  H    -56.323200   -4.482770  -22.837900
  C    -54.494600   -3.806100  -22.132300
  H    -53.841500   -4.660040  -21.963200
  H    -54.001200   -2.823240  -22.333300
  H    -54.914500   -3.773630  -21.147700
  S    -57.468400   -3.444860  -30.499700
  C    -57.435600   -1.983730  -31.448900
  C    -57.158300   -0.899158  -30.624500
  C    -57.016300   -1.199790  -29.231500
  C    -57.133500   -2.577230  -28.983200
  H    -57.104900    0.050543  -31.055300
  C    -56.713300   -0.098985  -28.176600
  H    -56.116100    0.689945  -28.598000
  H    -56.010700   -0.506934  -27.392500
  C    -57.989600    0.446373  -27.531800
  H    -57.639400    1.030690  -26.735000
  H    -58.539900   -0.323105  -27.024400
  C    -59.000100    1.236050  -28.375700
  H    -59.608100    0.571418  -29.058500
  H    -58.467400    1.835360  -29.111400
  H    -59.702100    1.775060  -27.809800
  H    -57.665700   -5.303660  -24.679500
  H    -57.688800   -2.039240  -32.501900

 Total Charge           Charge          ....    0
 Multiplicity           Mult            ....    1
 Number of Electrons    NEL             ....  134
 Basis Dimension        Dim             ....  322

ORBITAL ENERGIES
----------------

  NO   OCC          E(Eh)            E(eV)
   0   2.0000     -88.965238     -2420.8672
   1   2.0000     -88.964057     -2420.8351
   2   2.0000     -10.336330      -281.2658
   3   2.0000     -10.332832      -281.1706
   4   2.0000     -10.321401      -280.8596
   5   2.0000     -10.319161      -280.7986
   6   2.0000     -10.311006      -280.5767
   7   2.0000     -10.301646      -280.3220
   8   2.0000     -10.299164      -280.2545
   9   2.0000     -10.294254      -280.1209
  10   2.0000     -10.293890      -280.1110
  11   2.0000     -10.292292      -280.0675
  12   2.0000     -10.278735      -279.6986
  13   2.0000     -10.278533      -279.6931
  14   2.0000     -10.277289      -279.6593
  15   2.0000     -10.275269      -279.6043
  16   2.0000      -8.078772      -219.8346
  17   2.0000      -8.078326      -219.8224
  18   2.0000      -6.037260      -164.2822
  19   2.0000      -6.037212      -164.2809
  20   2.0000      -6.033171      -164.1709
  21   2.0000      -6.033016      -164.1667
  22   2.0000      -6.029673      -164.0757
  23   2.0000      -6.028794      -164.0518
  24   2.0000      -0.998169       -27.1616
  25   2.0000      -0.976419       -26.5697
  26   2.0000      -0.921978       -25.0883
  27   2.0000      -0.906082       -24.6557
  28   2.0000      -0.871004       -23.7012
  29   2.0000      -0.849147       -23.1065
  30   2.0000      -0.844100       -22.9691
  31   2.0000      -0.813082       -22.1251
  32   2.0000      -0.786635       -21.4054
  33   2.0000      -0.772661       -21.0252
  34   2.0000      -0.713796       -19.4234
  35   2.0000      -0.707410       -19.2496
  36   2.0000      -0.692286       -18.8380
  37   2.0000      -0.665511       -18.1095
  38   2.0000      -0.636231       -17.3127
  39   2.0000      -0.616128       -16.7657
  40   2.0000      -0.596644       -16.2355
  41   2.0000      -0.583468       -15.8770
  42   2.0000      -0.566918       -15.4266
  43   2.0000      -0.551083       -14.9957
  44   2.0000      -0.545488       -14.8435
  45   2.0000      -0.524068       -14.2606
  46   2.0000      -0.519326       -14.1316
  47   2.0000      -0.515060       -14.0155
  48   2.0000      -0.508687       -13.8421
  49   2.0000      -0.505023       -13.7424
  50   2.0000      -0.484762       -13.1910
  51   2.0000      -0.482585       -13.1318
  52   2.0000      -0.476515       -12.9666
  53   2.0000      -0.465935       -12.6787
  54   2.0000      -0.455770       -12.4021
  55   2.0000      -0.450289       -12.2530
  56   2.0000      -0.445589       -12.1251
  57   2.0000      -0.432449       -11.7675
  58   2.0000      -0.426332       -11.6011
  59   2.0000      -0.421317       -11.4646
  60   2.0000      -0.420072       -11.4307
  61   2.0000      -0.416253       -11.3268
  62   2.0000      -0.407582       -11.0909
  63   2.0000      -0.346046        -9.4164
  64   2.0000      -0.332432        -9.0459
  65   2.0000      -0.323036        -8.7903
  66   2.0000      -0.289533        -7.8786
  67   0.0000       0.022386         0.6091
  68   0.0000       0.060687         1.6514
  69   0.0000       0.108088         2.9412
  70   0.0000       0.122103         3.3226
  71   0.0000       0.127068         3.4577

MULLIKEN ATOMIC CHARGES
-----------------------
   0 S :    0.101390
   1 C :   -0.119312
   2 C :   -0.123230
   3 C :    0.051533
   4 C :   -0.127910
   5 H :   -0.021809
   6 C :    0.086394
   7 H :    0.014123
   8 H :    0.051643
   9 C :   -0.082639
  10 H :    0.026390
  11 H :    0.004544
  12 C :   -0.018893
  13 H :    0.032976
  14 H :    0.040315
  15 H :    0.017590
  16 S :    0.095609
  17 C :   -0.100202
  18 C :   -0.017419
  19 C :   -0.017255
  20 C :   -0.176084
  21 H :   -0.001344
  22 C :    0.057641
  23 H :    0.020098
  24 H :    0.029086
  25 C :   -0.036577
  26 H :    0.011516
  27 H :    0.027787
  28 C :   -0.035639
  29 H :    0.035791
  30 H :    0.015270
  31 H :    0.032438
  32 H :    0.056546
  33 H :    0.069632
Sum of atomic charges:    0.0000000

LOEWDIN ATOMIC CHARGES
----------------------
   0 S :    0.371225
   1 C :   -0.192613
   2 C :   -0.065416
   3 C :   -0.051546
   4 C :   -0.180930
   5 H :    0.011335
   6 C :   -0.034269
   7 H :    0.029637
   8 H :    0.042387
   9 C :   -0.040736
  10 H :    0.028317
  11 H :    0.010506
  12 C :   -0.068684
  13 H :    0.029058
  14 H :    0.034913
  15 H :    0.025621
  16 S :    0.399290
  17 C :   -0.181748
  18 C :   -0.068120
  19 C :   -0.047220
  20 C :   -0.193780
  21 H :    0.021233
  22 C :   -0.027213
  23 H :    0.026575
  24 H :    0.038397
  25 C :   -0.037763
  26 H :    0.017948
  27 H :    0.026891
  28 C :   -0.062966
  29 H :    0.032627
  30 H :    0.019932
  31 H :    0.021327
  32 H :    0.033996
  33 H :    0.031789

  Mayer bond orders larger than 0.100000
B(  0-S ,  1-C ) :   1.1342 B(  0-S ,  4-C ) :   1.1135 B(  1-C ,  2-C ) :   1.5971
B(  1-C ,  4-C ) :   0.1007 B(  1-C , 32-H ) :   0.9640 B(  2-C ,  3-C ) :   1.2334
B(  2-C ,  6-C ) :   1.0395 B(  3-C ,  4-C ) :   1.5744 B(  3-C ,  5-H ) :   0.9998
B(  4-C , 20-C ) :   1.0721 B(  6-C ,  7-H ) :   0.9405 B(  6-C ,  8-H ) :   0.9217
B(  6-C ,  9-C ) :   1.0645 B(  9-C , 10-H ) :   0.9566 B(  9-C , 11-H ) :   0.9494
B(  9-C , 12-C ) :   1.0956 B( 12-C , 13-H ) :   0.9701 B( 12-C , 14-H ) :   0.9747
B( 12-C , 15-H ) :   0.9683 B( 16-S , 17-C ) :   1.1660 B( 16-S , 20-C ) :   1.1447
B( 17-C , 18-C ) :   1.5717 B( 17-C , 20-C ) :   0.1069 B( 17-C , 33-H ) :   0.9717
B( 18-C , 19-C ) :   1.2515 B( 18-C , 21-H ) :   1.0022 B( 19-C , 20-C ) :   1.5724
B( 19-C , 22-C ) :   1.0293 B( 22-C , 23-H ) :   0.9369 B( 22-C , 24-H ) :   0.9360
B( 22-C , 25-C ) :   1.0813 B( 25-C , 26-H ) :   0.9520 B( 25-C , 27-H ) :   0.9526
B( 25-C , 28-C ) :   1.0750 B( 28-C , 29-H ) :   0.9718 B( 28-C , 30-H ) :   0.9756
B( 28-C , 31-H ) :   0.9746

Dispersion correction           -0.014167201
FINAL SINGLE POINT ENERGY     -1339.861415485678

DIPOLE MOMENT
-------------
                                X             Y             Z
Electronic contribution:     -7.16589     -14.96098     -21.25797
Nuclear contribution   :      7.53101      15.41717      21.70348
                        -----------------------------------------
Total Dipole Moment    :      0.36512       0.45619       0.44551
                        -----------------------------------------
Magnitude (a.u.)       :      0.73478
Magnitude (Debye)      :      1.86766

Rotational constants in cm-1:     0.020913     0.007573     0.006339
Rotational constants in MHz :   626.946836   227.021229   190.041422

                             ****ORCA TERMINATED NORMALLY****
TOTAL RUN TIME: 0 days 0 hours 0 minutes 21 seconds 359 msec
