                         Program Version 4.2.1 -  RELEASE  -
|  1> ! wB97X-D3 SP def2-SVP
|  2> %pal
|  3> nprocs 24
|  4> end
|  5>
|  6> * xyz 0 1
|  7> S 	 -45.383 	 14.0047 	 -101.624
|  8> C 	 -46.2759 	 15.5071 	 -101.656
|  9> C 	 -45.4328 	 16.5611 	 -101.454
| 10> C 	 -44.1038 	 16.1797 	 -101.263
| 11> C 	 -43.8832 	 14.8174 	 -101.368
| 12> H 	 -43.316 	 16.821 	 -101.154
| 13> C 	 -45.8251 	 18.0051 	 -101.599
| 14> H 	 -46.8992 	 18.1492 	 -101.432
| 15> H 	 -45.6348 	 18.3792 	 -102.682
| 16> C 	 -45.0423 	 19.0425 	 -100.774
| 17> H 	 -43.9777 	 18.9891 	 -100.863
| 18> H 	 -45.3861 	 20.0227 	 -101.059
| 19> C 	 -45.4328 	 19.0478 	 -99.2629
| 20> H 	 -46.4449 	 19.3532 	 -99.1131
| 21> H 	 -45.4814 	 18.0618 	 -98.7613
| 22> H 	 -44.936 	 19.7481 	 -98.6322
| 23> S 	 -41.6652 	 14.1215 	 -99.7837
| 24> C 	 -40.2866 	 13.4527 	 -100.525
| 25> C 	 -40.4822 	 13.1884 	 -101.847
| 26> C 	 -41.7948 	 13.5438 	 -102.279
| 27> C 	 -42.5496 	 14.1578 	 -101.253
| 28> H 	 -39.723 	 12.6459 	 -102.369
| 29> C 	 -42.2854 	 13.3011 	 -103.715
| 30> H 	 -42.9801 	 14.1928 	 -103.868
| 31> H 	 -42.8382 	 12.3377 	 -103.774
| 32> C 	 -41.1457 	 13.4002 	 -104.756
| 33> H 	 -41.5408 	 13.1862 	 -105.773
| 34> H 	 -40.4361 	 12.6589 	 -104.574
| 35> C 	 -40.4803 	 14.8149 	 -104.774
| 36> H 	 -39.855 	 14.8233 	 -105.685
| 37> H 	 -39.894 	 14.9744 	 -103.863
| 38> H 	 -41.2268 	 15.6496 	 -104.953
| 39> H 	 -47.3215 	 15.6041 	 -101.76
| 40> H 	 -39.4265 	 12.9856 	 -99.9901
| 41> *
| 42>
| 43>                          ****END OF INPUT****

CARTESIAN COORDINATES (ANGSTROEM)
---------------------------------
  S    -45.383000   14.004700  -101.624000
  C    -46.275900   15.507100  -101.656000
  C    -45.432800   16.561100  -101.454000
  C    -44.103800   16.179700  -101.263000
  C    -43.883200   14.817400  -101.368000
  H    -43.316000   16.821000  -101.154000
  C    -45.825100   18.005100  -101.599000
  H    -46.899200   18.149200  -101.432000
  H    -45.634800   18.379200  -102.682000
  C    -45.042300   19.042500  -100.774000
  H    -43.977700   18.989100  -100.863000
  H    -45.386100   20.022700  -101.059000
  C    -45.432800   19.047800  -99.262900
  H    -46.444900   19.353200  -99.113100
  H    -45.481400   18.061800  -98.761300
  H    -44.936000   19.748100  -98.632200
  S    -41.665200   14.121500  -99.783700
  C    -40.286600   13.452700  -100.525000
  C    -40.482200   13.188400  -101.847000
  C    -41.794800   13.543800  -102.279000
  C    -42.549600   14.157800  -101.253000
  H    -39.723000   12.645900  -102.369000
  C    -42.285400   13.301100  -103.715000
  H    -42.980100   14.192800  -103.868000
  H    -42.838200   12.337700  -103.774000
  C    -41.145700   13.400200  -104.756000
  H    -41.540800   13.186200  -105.773000
  H    -40.436100   12.658900  -104.574000
  C    -40.480300   14.814900  -104.774000
  H    -39.855000   14.823300  -105.685000
  H    -39.894000   14.974400  -103.863000
  H    -41.226800   15.649600  -104.953000
  H    -47.321500   15.604100  -101.760000
  H    -39.426500   12.985600  -99.990100

 Total Charge           Charge          ....    0
 Multiplicity           Mult            ....    1
 Number of Electrons    NEL             ....  134
 Basis Dimension        Dim             ....  322

ORBITAL ENERGIES
----------------

  NO   OCC          E(Eh)            E(eV)
   0   2.0000     -88.967297     -2420.9232
   1   2.0000     -88.966414     -2420.8992
   2   2.0000     -10.329084      -281.0687
   3   2.0000     -10.325695      -280.9764
   4   2.0000     -10.313119      -280.6342
   5   2.0000     -10.308934      -280.5203
   6   2.0000     -10.303465      -280.3715
   7   2.0000     -10.299969      -280.2764
   8   2.0000     -10.295161      -280.1456
   9   2.0000     -10.294469      -280.1267
  10   2.0000     -10.288237      -279.9572
  11   2.0000     -10.287557      -279.9387
  12   2.0000     -10.284596      -279.8581
  13   2.0000     -10.282577      -279.8032
  14   2.0000     -10.281659      -279.7782
  15   2.0000     -10.269476      -279.4466
  16   2.0000      -8.082343      -219.9317
  17   2.0000      -8.082156      -219.9266
  18   2.0000      -6.040660      -164.3747
  19   2.0000      -6.040603      -164.3732
  20   2.0000      -6.036587      -164.2639
  21   2.0000      -6.036523      -164.2621
  22   2.0000      -6.033322      -164.1750
  23   2.0000      -6.033093      -164.1688
  24   2.0000      -1.011432       -27.5225
  25   2.0000      -0.993509       -27.0348
  26   2.0000      -0.910080       -24.7645
  27   2.0000      -0.903856       -24.5952
  28   2.0000      -0.869256       -23.6537
  29   2.0000      -0.848498       -23.0888
  30   2.0000      -0.841250       -22.8916
  31   2.0000      -0.818175       -22.2637
  32   2.0000      -0.781485       -21.2653
  33   2.0000      -0.769255       -20.9325
  34   2.0000      -0.710443       -19.3321
  35   2.0000      -0.699413       -19.0320
  36   2.0000      -0.690887       -18.8000
  37   2.0000      -0.653464       -17.7817
  38   2.0000      -0.643366       -17.5069
  39   2.0000      -0.626477       -17.0473
  40   2.0000      -0.594930       -16.1889
  41   2.0000      -0.572775       -15.5860
  42   2.0000      -0.549832       -14.9617
  43   2.0000      -0.545893       -14.8545
  44   2.0000      -0.537568       -14.6280
  45   2.0000      -0.535998       -14.5853
  46   2.0000      -0.517687       -14.0870
  47   2.0000      -0.516041       -14.0422
  48   2.0000      -0.504853       -13.7377
  49   2.0000      -0.491224       -13.3669
  50   2.0000      -0.489270       -13.3137
  51   2.0000      -0.477534       -12.9944
  52   2.0000      -0.472902       -12.8683
  53   2.0000      -0.460021       -12.5178
  54   2.0000      -0.457873       -12.4593
  55   2.0000      -0.446669       -12.1545
  56   2.0000      -0.443706       -12.0739
  57   2.0000      -0.432874       -11.7791
  58   2.0000      -0.431778       -11.7493
  59   2.0000      -0.429254       -11.6806
  60   2.0000      -0.420331       -11.4378
  61   2.0000      -0.414458       -11.2780
  62   2.0000      -0.412887       -11.2352
  63   2.0000      -0.337789        -9.1917
  64   2.0000      -0.335248        -9.1225
  65   2.0000      -0.326016        -8.8714
  66   2.0000      -0.301821        -8.2130
  67   0.0000       0.041482         1.1288
  68   0.0000       0.064346         1.7510
  69   0.0000       0.120928         3.2906
  70   0.0000       0.125801         3.4232
  71   0.0000       0.134521         3.6605

MULLIKEN ATOMIC CHARGES
-----------------------
   0 S :    0.124946
   1 C :   -0.118429
   2 C :   -0.034046
   3 C :    0.063673
   4 C :   -0.178036
   5 H :   -0.032390
   6 C :    0.023561
   7 H :    0.020939
   8 H :    0.058210
   9 C :   -0.054047
  10 H :    0.037123
  11 H :    0.024178
  12 C :   -0.056628
  13 H :    0.003179
  14 H :    0.033862
  15 H :    0.025502
  16 S :    0.136616
  17 C :   -0.104854
  18 C :   -0.045442
  19 C :   -0.055050
  20 C :   -0.170302
  21 H :    0.012843
  22 C :    0.058730
  23 H :    0.046918
  24 H :    0.056248
  25 C :   -0.074289
  26 H :    0.031098
  27 H :    0.016689
  28 C :   -0.082663
  29 H :    0.035303
  30 H :    0.054100
  31 H :    0.042376
  32 H :    0.029199
  33 H :    0.070882
Sum of atomic charges:   -0.0000000

LOEWDIN ATOMIC CHARGES
----------------------
   0 S :    0.425577
   1 C :   -0.190162
   2 C :   -0.069769
   3 C :   -0.051636
   4 C :   -0.199998
   5 H :    0.015285
   6 C :   -0.033329
   7 H :    0.029306
   8 H :    0.046493
   9 C :   -0.036148
  10 H :    0.019901
  11 H :    0.027424
  12 C :   -0.075236
  13 H :    0.019013
  14 H :    0.027603
  15 H :    0.021175
  16 S :    0.448001
  17 C :   -0.210118
  18 C :   -0.079995
  19 C :   -0.054519
  20 C :   -0.223312
  21 H :    0.029028
  22 C :   -0.038738
  23 H :    0.039140
  24 H :    0.037153
  25 C :   -0.041168
  26 H :    0.028307
  27 H :    0.010799
  28 C :   -0.069411
  29 H :    0.027627
  30 H :    0.026895
  31 H :    0.031897
  32 H :    0.021594
  33 H :    0.041320

  Mayer bond orders larger than 0.100000
B(  0-S ,  1-C ) :   1.1463 B(  0-S ,  4-C ) :   1.1715 B(  1-C ,  2-C ) :   1.5889
B(  1-C , 32-H ) :   0.9763 B(  2-C ,  3-C ) :   1.2599 B(  2-C ,  6-C ) :   1.0256
B(  3-C ,  4-C ) :   1.5586 B(  3-C ,  5-H ) :   1.0134 B(  4-C , 20-C ) :   0.9972
B(  6-C ,  7-H ) :   0.9430 B(  6-C ,  8-H ) :   0.9373 B(  6-C ,  9-C ) :   1.0793
B(  9-C , 10-H ) :   0.9561 B(  9-C , 11-H ) :   0.9537 B(  9-C , 12-C ) :   1.0665
B( 12-C , 13-H ) :   0.9710 B( 12-C , 14-H ) :   0.9778 B( 12-C , 15-H ) :   0.9765
B( 16-S , 17-C ) :   1.1820 B( 16-S , 20-C ) :   1.1706 B( 17-C , 18-C ) :   1.5905
B( 17-C , 33-H ) :   0.9538 B( 18-C , 19-C ) :   1.2745 B( 18-C , 21-H ) :   0.9921
B( 19-C , 20-C ) :   1.5623 B( 19-C , 22-C ) :   1.0117 B( 22-C , 23-H ) :   0.9373
B( 22-C , 24-H ) :   0.9379 B( 22-C , 25-C ) :   1.0788 B( 25-C , 26-H ) :   0.9573
B( 25-C , 27-H ) :   0.9486 B( 25-C , 28-C ) :   1.0737 B( 28-C , 29-H ) :   0.9754
B( 28-C , 30-H ) :   0.9726 B( 28-C , 31-H ) :   0.9754

Dispersion correction           -0.014627668
FINAL SINGLE POINT ENERGY     -1339.882412587650

DIPOLE MOMENT
-------------
                                X             Y             Z
Electronic contribution:     -1.75959     -15.99039      10.26442
Nuclear contribution   :      1.83873      16.21480     -10.59809
                        -----------------------------------------
Total Dipole Moment    :      0.07914       0.22441      -0.33367
                        -----------------------------------------
Magnitude (a.u.)       :      0.40983
Magnitude (Debye)      :      1.04170

Rotational constants in cm-1:     0.019918     0.007994     0.007462
Rotational constants in MHz :   597.120627   239.641182   223.692758

                             ****ORCA TERMINATED NORMALLY****
TOTAL RUN TIME: 0 days 0 hours 0 minutes 21 seconds 779 msec
