                         Program Version 4.2.1 -  RELEASE  -
|  1> ! wB97X-D3 SP def2-SVP
|  2> %pal
|  3> nprocs 24
|  4> end
|  5>
|  6> * xyz 0 1
|  7> S 	 -72.1108 	 0.313624 	 -67.5471
|  8> C 	 -71.9099 	 1.91725 	 -66.8707
|  9> C 	 -72.9837 	 2.70243 	 -67.3735
| 10> C 	 -73.7763 	 1.97018 	 -68.3203
| 11> C 	 -73.5332 	 0.607056 	 -68.4232
| 12> H 	 -74.4395 	 2.61748 	 -68.8881
| 13> C 	 -73.2737 	 4.15586 	 -66.9
| 14> H 	 -72.4194 	 4.77853 	 -67.1364
| 15> H 	 -73.1976 	 3.96721 	 -65.7959
| 16> C 	 -74.5893 	 4.85242 	 -67.3306
| 17> H 	 -74.499 	 5.24632 	 -68.3023
| 18> H 	 -75.4192 	 4.23898 	 -67.2443
| 19> C 	 -74.8907 	 6.04864 	 -66.3931
| 20> H 	 -75.0769 	 5.77298 	 -65.3477
| 21> H 	 -74.1578 	 6.83806 	 -66.3046
| 22> H 	 -75.8013 	 6.47035 	 -66.6866
| 23> S 	 -73.3448 	 -1.81273 	 -69.6516
| 24> C 	 -74.8909 	 -2.62183 	 -70.1324
| 25> C 	 -75.964 	 -1.80706 	 -69.9027
| 26> C 	 -75.681 	 -0.622488 	 -69.1573
| 27> C 	 -74.3017 	 -0.466849 	 -69.0053
| 28> H 	 -76.9909 	 -2.112 	 -70.1378
| 29> C 	 -76.7166 	 0.253089 	 -68.6245
| 30> H 	 -77.5696 	 0.375778 	 -69.3186
| 31> H 	 -76.4584 	 1.27974 	 -68.547
| 32> C 	 -77.2495 	 -0.253053 	 -67.2289
| 33> H 	 -76.5263 	 -0.871885 	 -66.704
| 34> H 	 -77.8902 	 -1.158 	 -67.3916
| 35> C 	 -77.8909 	 0.764178 	 -66.3497
| 36> H 	 -78.4001 	 0.247927 	 -65.5918
| 37> H 	 -78.5779 	 1.34932 	 -66.9645
| 38> H 	 -77.1676 	 1.47691 	 -65.858
| 39> H 	 -71.0203 	 2.18494 	 -66.3279
| 40> H 	 -74.9081 	 -3.50986 	 -70.7019
| 41> *
| 42>
| 43>                          ****END OF INPUT****

CARTESIAN COORDINATES (ANGSTROEM)
---------------------------------
  S    -72.110800    0.313624  -67.547100
  C    -71.909900    1.917250  -66.870700
  C    -72.983700    2.702430  -67.373500
  C    -73.776300    1.970180  -68.320300
  C    -73.533200    0.607056  -68.423200
  H    -74.439500    2.617480  -68.888100
  C    -73.273700    4.155860  -66.900000
  H    -72.419400    4.778530  -67.136400
  H    -73.197600    3.967210  -65.795900
  C    -74.589300    4.852420  -67.330600
  H    -74.499000    5.246320  -68.302300
  H    -75.419200    4.238980  -67.244300
  C    -74.890700    6.048640  -66.393100
  H    -75.076900    5.772980  -65.347700
  H    -74.157800    6.838060  -66.304600
  H    -75.801300    6.470350  -66.686600
  S    -73.344800   -1.812730  -69.651600
  C    -74.890900   -2.621830  -70.132400
  C    -75.964000   -1.807060  -69.902700
  C    -75.681000   -0.622488  -69.157300
  C    -74.301700   -0.466849  -69.005300
  H    -76.990900   -2.112000  -70.137800
  C    -76.716600    0.253089  -68.624500
  H    -77.569600    0.375778  -69.318600
  H    -76.458400    1.279740  -68.547000
  C    -77.249500   -0.253053  -67.228900
  H    -76.526300   -0.871885  -66.704000
  H    -77.890200   -1.158000  -67.391600
  C    -77.890900    0.764178  -66.349700
  H    -78.400100    0.247927  -65.591800
  H    -78.577900    1.349320  -66.964500
  H    -77.167600    1.476910  -65.858000
  H    -71.020300    2.184940  -66.327900
  H    -74.908100   -3.509860  -70.701900

 Total Charge           Charge          ....    0
 Multiplicity           Mult            ....    1
 Number of Electrons    NEL             ....  134
 Basis Dimension        Dim             ....  322

ORBITAL ENERGIES
----------------

  NO   OCC          E(Eh)            E(eV)
   0   2.0000     -88.965933     -2420.8861
   1   2.0000     -88.960381     -2420.7350
   2   2.0000     -10.330028      -281.0944
   3   2.0000     -10.326176      -280.9895
   4   2.0000     -10.318356      -280.7767
   5   2.0000     -10.314136      -280.6619
   6   2.0000     -10.306419      -280.4519
   7   2.0000     -10.303159      -280.3632
   8   2.0000     -10.298611      -280.2395
   9   2.0000     -10.296321      -280.1771
  10   2.0000     -10.291265      -280.0396
  11   2.0000     -10.289362      -279.9878
  12   2.0000     -10.286876      -279.9201
  13   2.0000     -10.284597      -279.8581
  14   2.0000     -10.276626      -279.6412
  15   2.0000     -10.275049      -279.5983
  16   2.0000      -8.079590      -219.8568
  17   2.0000      -8.076080      -219.7613
  18   2.0000      -6.038193      -164.3076
  19   2.0000      -6.034453      -164.2058
  20   2.0000      -6.034421      -164.2049
  21   2.0000      -6.030192      -164.0899
  22   2.0000      -6.030149      -164.0887
  23   2.0000      -6.027162      -164.0074
  24   2.0000      -1.007413       -27.4131
  25   2.0000      -0.980636       -26.6845
  26   2.0000      -0.911238       -24.7961
  27   2.0000      -0.908265       -24.7151
  28   2.0000      -0.871768       -23.7220
  29   2.0000      -0.855833       -23.2884
  30   2.0000      -0.841663       -22.9028
  31   2.0000      -0.815213       -22.1831
  32   2.0000      -0.782837       -21.3021
  33   2.0000      -0.771599       -20.9963
  34   2.0000      -0.718797       -19.5595
  35   2.0000      -0.703062       -19.1313
  36   2.0000      -0.696781       -18.9604
  37   2.0000      -0.661173       -17.9914
  38   2.0000      -0.637194       -17.3389
  39   2.0000      -0.625073       -17.0091
  40   2.0000      -0.606224       -16.4962
  41   2.0000      -0.576793       -15.6953
  42   2.0000      -0.558540       -15.1986
  43   2.0000      -0.548322       -14.9206
  44   2.0000      -0.535698       -14.5771
  45   2.0000      -0.531377       -14.4595
  46   2.0000      -0.514343       -13.9960
  47   2.0000      -0.510721       -13.8974
  48   2.0000      -0.503805       -13.7092
  49   2.0000      -0.496988       -13.5237
  50   2.0000      -0.494796       -13.4641
  51   2.0000      -0.487163       -13.2564
  52   2.0000      -0.475774       -12.9465
  53   2.0000      -0.464876       -12.6499
  54   2.0000      -0.456267       -12.4157
  55   2.0000      -0.449128       -12.2214
  56   2.0000      -0.443964       -12.0809
  57   2.0000      -0.440940       -11.9986
  58   2.0000      -0.438133       -11.9222
  59   2.0000      -0.433492       -11.7959
  60   2.0000      -0.428025       -11.6471
  61   2.0000      -0.405232       -11.0269
  62   2.0000      -0.395657       -10.7664
  63   2.0000      -0.351229        -9.5574
  64   2.0000      -0.331860        -9.0304
  65   2.0000      -0.322156        -8.7663
  66   2.0000      -0.282028        -7.6744
  67   0.0000       0.019413         0.5282
  68   0.0000       0.079272         2.1571
  69   0.0000       0.094731         2.5778
  70   0.0000       0.118547         3.2258
  71   0.0000       0.134805         3.6682

MULLIKEN ATOMIC CHARGES
-----------------------
   0 S :    0.096965
   1 C :   -0.137170
   2 C :   -0.130336
   3 C :   -0.003914
   4 C :   -0.093109
   5 H :    0.018457
   6 C :    0.023842
   7 H :    0.038425
   8 H :    0.046834
   9 C :   -0.021956
  10 H :    0.033757
  11 H :    0.019814
  12 C :   -0.043446
  13 H :    0.023601
  14 H :    0.027792
  15 H :    0.013664
  16 S :    0.087469
  17 C :   -0.072664
  18 C :   -0.021535
  19 C :   -0.050937
  20 C :   -0.123093
  21 H :    0.024083
  22 C :    0.092474
  23 H :    0.022628
  24 H :   -0.002935
  25 C :   -0.101648
  26 H :    0.025465
  27 H :    0.014292
  28 C :   -0.006891
  29 H :    0.024838
  30 H :    0.025289
  31 H :    0.046761
  32 H :    0.056126
  33 H :    0.047056
Sum of atomic charges:   -0.0000000

LOEWDIN ATOMIC CHARGES
----------------------
   0 S :    0.432817
   1 C :   -0.210592
   2 C :   -0.059465
   3 C :   -0.082966
   4 C :   -0.214756
   5 H :    0.027858
   6 C :   -0.036470
   7 H :    0.031881
   8 H :    0.042735
   9 C :   -0.027356
  10 H :    0.023214
  11 H :    0.017626
  12 C :   -0.058532
  13 H :    0.025875
  14 H :    0.022228
  15 H :    0.017878
  16 S :    0.368226
  17 C :   -0.158285
  18 C :   -0.062293
  19 C :   -0.053286
  20 C :   -0.178467
  21 H :    0.035188
  22 C :   -0.034824
  23 H :    0.035620
  24 H :    0.023146
  25 C :   -0.048810
  26 H :    0.026083
  27 H :    0.026803
  28 C :   -0.060915
  29 H :    0.023102
  30 H :    0.024376
  31 H :    0.033654
  32 H :    0.027592
  33 H :    0.021113

  Mayer bond orders larger than 0.100000
B(  0-S ,  1-C ) :   1.1580 B(  0-S ,  4-C ) :   1.1877 B(  1-C ,  2-C ) :   1.5308
B(  1-C ,  4-C ) :   0.1169 B(  1-C , 32-H ) :   0.9832 B(  2-C ,  3-C ) :   1.3401
B(  2-C ,  6-C ) :   0.9845 B(  3-C ,  4-C ) :   1.4743 B(  3-C ,  5-H ) :   0.9873
B(  4-C , 20-C ) :   1.0579 B(  6-C ,  7-H ) :   0.9404 B(  6-C ,  8-H ) :   0.9525
B(  6-C ,  9-C ) :   1.0778 B(  9-C , 10-H ) :   0.9492 B(  9-C , 11-H ) :   0.9538
B(  9-C , 12-C ) :   1.0881 B( 12-C , 13-H ) :   0.9752 B( 12-C , 14-H ) :   0.9775
B( 12-C , 15-H ) :   0.9727 B( 16-S , 17-C ) :   1.1214 B( 16-S , 20-C ) :   1.1320
B( 17-C , 18-C ) :   1.6337 B( 17-C , 20-C ) :   0.1012 B( 17-C , 33-H ) :   0.9735
B( 18-C , 19-C ) :   1.2247 B( 18-C , 21-H ) :   0.9804 B( 19-C , 20-C ) :   1.5955
B( 19-C , 22-C ) :   1.0780 B( 22-C , 23-H ) :   0.9183 B( 22-C , 24-H ) :   0.9315
B( 22-C , 25-C ) :   1.0266 B( 25-C , 26-H ) :   0.9558 B( 25-C , 27-H ) :   0.9474
B( 25-C , 28-C ) :   1.0883 B( 28-C , 29-H ) :   0.9682 B( 28-C , 30-H ) :   0.9719
B( 28-C , 31-H ) :   0.9728

Dispersion correction           -0.014089762
FINAL SINGLE POINT ENERGY     -1339.858507116179

DIPOLE MOMENT
-------------
                                X             Y             Z
Electronic contribution:     20.35966     -22.74515     -11.84284
Nuclear contribution   :    -20.97568      23.26229      11.98529
                        -----------------------------------------
Total Dipole Moment    :     -0.61602       0.51714       0.14245
                        -----------------------------------------
Magnitude (a.u.)       :      0.81683
Magnitude (Debye)      :      2.07620

Rotational constants in cm-1:     0.018372     0.009184     0.006775
Rotational constants in MHz :   550.784023   275.325308   203.118678

                             ****ORCA TERMINATED NORMALLY****
TOTAL RUN TIME: 0 days 0 hours 0 minutes 20 seconds 809 msec
