                         Program Version 4.2.1 -  RELEASE  -
|  1> ! wB97X-D3 SP def2-SVP
|  2> %pal
|  3> nprocs 24
|  4> end
|  5>
|  6> * xyz 0 1
|  7> S 	 -55.8835 	 -5.23196 	 -28.5284
|  8> C 	 -54.3225 	 -5.3225 	 -27.6817
|  9> C 	 -54.1575 	 -4.12713 	 -26.9298
| 10> C 	 -55.2945 	 -3.27746 	 -27.0692
| 11> C 	 -56.2111 	 -3.66542 	 -27.9844
| 12> H 	 -55.4267 	 -2.31901 	 -26.5649
| 13> C 	 -52.9255 	 -3.69772 	 -26.1116
| 14> H 	 -52.8326 	 -2.6255 	 -25.9891
| 15> H 	 -52.1102 	 -3.99885 	 -26.7226
| 16> C 	 -52.7787 	 -4.33883 	 -24.712
| 17> H 	 -53.5365 	 -3.92896 	 -24.0384
| 18> H 	 -52.9793 	 -5.35399 	 -24.6147
| 19> C 	 -51.3544 	 -4.05759 	 -24.2299
| 20> H 	 -51.1712 	 -4.4071 	 -23.1535
| 21> H 	 -50.499 	 -4.60511 	 -24.6807
| 22> H 	 -51.1773 	 -2.9576 	 -24.2851
| 23> S 	 -58.8751 	 -3.92525 	 -28.7592
| 24> C 	 -59.6611 	 -2.58699 	 -29.5349
| 25> C 	 -58.8565 	 -1.44804 	 -29.5902
| 26> C 	 -57.5334 	 -1.61775 	 -29.0094
| 27> C 	 -57.3302 	 -2.94736 	 -28.6578
| 28> H 	 -59.1944 	 -0.491368 	 -30.0648
| 29> C 	 -56.5179 	 -0.554351 	 -28.8929
| 30> H 	 -56.1573 	 -0.241683 	 -29.9161
| 31> H 	 -55.5829 	 -1.01825 	 -28.437
| 32> C 	 -56.7255 	 0.606518 	 -27.9171
| 33> H 	 -55.7639 	 1.13542 	 -27.6755
| 34> H 	 -57.0676 	 0.202771 	 -26.9717
| 35> C 	 -57.7523 	 1.63693 	 -28.376
| 36> H 	 -58.795 	 1.34286 	 -28.1883
| 37> H 	 -57.6626 	 1.77478 	 -29.4705
| 38> H 	 -57.5374 	 2.61025 	 -27.8945
| 39> H 	 -53.4697 	 -6.00546 	 -27.6961
| 40> H 	 -60.5287 	 -2.66109 	 -29.9909
| 41> *
| 42>
| 43>                          ****END OF INPUT****

CARTESIAN COORDINATES (ANGSTROEM)
---------------------------------
  S    -55.883500   -5.231960  -28.528400
  C    -54.322500   -5.322500  -27.681700
  C    -54.157500   -4.127130  -26.929800
  C    -55.294500   -3.277460  -27.069200
  C    -56.211100   -3.665420  -27.984400
  H    -55.426700   -2.319010  -26.564900
  C    -52.925500   -3.697720  -26.111600
  H    -52.832600   -2.625500  -25.989100
  H    -52.110200   -3.998850  -26.722600
  C    -52.778700   -4.338830  -24.712000
  H    -53.536500   -3.928960  -24.038400
  H    -52.979300   -5.353990  -24.614700
  C    -51.354400   -4.057590  -24.229900
  H    -51.171200   -4.407100  -23.153500
  H    -50.499000   -4.605110  -24.680700
  H    -51.177300   -2.957600  -24.285100
  S    -58.875100   -3.925250  -28.759200
  C    -59.661100   -2.586990  -29.534900
  C    -58.856500   -1.448040  -29.590200
  C    -57.533400   -1.617750  -29.009400
  C    -57.330200   -2.947360  -28.657800
  H    -59.194400   -0.491368  -30.064800
  C    -56.517900   -0.554351  -28.892900
  H    -56.157300   -0.241683  -29.916100
  H    -55.582900   -1.018250  -28.437000
  C    -56.725500    0.606518  -27.917100
  H    -55.763900    1.135420  -27.675500
  H    -57.067600    0.202771  -26.971700
  C    -57.752300    1.636930  -28.376000
  H    -58.795000    1.342860  -28.188300
  H    -57.662600    1.774780  -29.470500
  H    -57.537400    2.610250  -27.894500
  H    -53.469700   -6.005460  -27.696100
  H    -60.528700   -2.661090  -29.990900

 Total Charge           Charge          ....    0
 Multiplicity           Mult            ....    1
 Number of Electrons    NEL             ....  134
 Basis Dimension        Dim             ....  322

ORBITAL ENERGIES
----------------

  NO   OCC          E(Eh)            E(eV)
   0   2.0000     -88.967340     -2420.9244
   1   2.0000     -88.966266     -2420.8952
   2   2.0000     -10.337007      -281.2843
   3   2.0000     -10.325031      -280.9584
   4   2.0000     -10.319820      -280.8166
   5   2.0000     -10.311799      -280.5983
   6   2.0000     -10.309876      -280.5460
   7   2.0000     -10.305755      -280.4339
   8   2.0000     -10.302447      -280.3438
   9   2.0000     -10.297483      -280.2087
  10   2.0000     -10.294034      -280.1149
  11   2.0000     -10.291845      -280.0553
  12   2.0000     -10.289474      -279.9908
  13   2.0000     -10.288716      -279.9702
  14   2.0000     -10.284736      -279.8619
  15   2.0000     -10.280204      -279.7386
  16   2.0000      -8.082428      -219.9340
  17   2.0000      -8.080298      -219.8761
  18   2.0000      -6.041001      -164.3840
  19   2.0000      -6.038909      -164.3271
  20   2.0000      -6.036721      -164.2675
  21   2.0000      -6.035029      -164.2215
  22   2.0000      -6.033206      -164.1719
  23   2.0000      -6.030866      -164.1082
  24   2.0000      -1.007889       -27.4261
  25   2.0000      -0.980573       -26.6828
  26   2.0000      -0.913314       -24.8525
  27   2.0000      -0.912035       -24.8177
  28   2.0000      -0.866367       -23.5750
  29   2.0000      -0.854429       -23.2502
  30   2.0000      -0.840656       -22.8754
  31   2.0000      -0.812965       -22.1219
  32   2.0000      -0.784313       -21.3423
  33   2.0000      -0.771828       -21.0025
  34   2.0000      -0.709671       -19.3111
  35   2.0000      -0.705094       -19.1866
  36   2.0000      -0.694833       -18.9074
  37   2.0000      -0.661853       -18.0099
  38   2.0000      -0.643488       -17.5102
  39   2.0000      -0.617669       -16.8076
  40   2.0000      -0.599085       -16.3019
  41   2.0000      -0.576153       -15.6779
  42   2.0000      -0.554885       -15.0992
  43   2.0000      -0.552788       -15.0421
  44   2.0000      -0.542868       -14.7722
  45   2.0000      -0.522649       -14.2220
  46   2.0000      -0.516275       -14.0486
  47   2.0000      -0.508105       -13.8262
  48   2.0000      -0.506230       -13.7752
  49   2.0000      -0.498495       -13.5647
  50   2.0000      -0.497124       -13.5274
  51   2.0000      -0.487095       -13.2545
  52   2.0000      -0.469748       -12.7825
  53   2.0000      -0.466394       -12.6912
  54   2.0000      -0.455269       -12.3885
  55   2.0000      -0.448109       -12.1937
  56   2.0000      -0.444398       -12.0927
  57   2.0000      -0.437379       -11.9017
  58   2.0000      -0.429973       -11.7002
  59   2.0000      -0.427859       -11.6426
  60   2.0000      -0.420487       -11.4420
  61   2.0000      -0.414290       -11.2734
  62   2.0000      -0.408484       -11.1154
  63   2.0000      -0.345787        -9.4093
  64   2.0000      -0.331863        -9.0304
  65   2.0000      -0.330539        -8.9944
  66   2.0000      -0.291478        -7.9315
  67   0.0000       0.026056         0.7090
  68   0.0000       0.067308         1.8316
  69   0.0000       0.099244         2.7006
  70   0.0000       0.111323         3.0293
  71   0.0000       0.128797         3.5048

MULLIKEN ATOMIC CHARGES
-----------------------
   0 S :    0.115881
   1 C :   -0.097069
   2 C :   -0.127533
   3 C :    0.011679
   4 C :   -0.124383
   5 H :    0.009842
   6 C :    0.061674
   7 H :    0.024877
   8 H :    0.020510
   9 C :   -0.017223
  10 H :    0.028182
  11 H :    0.013026
  12 C :   -0.104971
  13 H :    0.035364
  14 H :    0.041984
  15 H :    0.036900
  16 S :    0.086330
  17 C :   -0.011610
  18 C :   -0.053387
  19 C :   -0.018645
  20 C :   -0.126734
  21 H :    0.036283
  22 C :   -0.004757
  23 H :    0.049040
  24 H :    0.026565
  25 C :   -0.065290
  26 H :    0.039681
  27 H :    0.026319
  28 C :   -0.069337
  29 H :    0.045067
  30 H :    0.026128
  31 H :    0.038361
  32 H :    0.046714
  33 H :    0.000533
Sum of atomic charges:    0.0000000

LOEWDIN ATOMIC CHARGES
----------------------
   0 S :    0.430874
   1 C :   -0.206145
   2 C :   -0.055303
   3 C :   -0.079360
   4 C :   -0.212059
   5 H :    0.030080
   6 C :   -0.025903
   7 H :    0.030703
   8 H :    0.028205
   9 C :   -0.036500
  10 H :    0.028797
  11 H :    0.015563
  12 C :   -0.079582
  13 H :    0.031734
  14 H :    0.028343
  15 H :    0.026600
  16 S :    0.375010
  17 C :   -0.160276
  18 C :   -0.069579
  19 C :   -0.056209
  20 C :   -0.165232
  21 H :    0.038329
  22 C :   -0.047404
  23 H :    0.038362
  24 H :    0.041328
  25 C :   -0.042220
  26 H :    0.031941
  27 H :    0.024176
  28 C :   -0.075303
  29 H :    0.026202
  30 H :    0.022609
  31 H :    0.030028
  32 H :    0.034964
  33 H :   -0.002774

  Mayer bond orders larger than 0.100000
B(  0-S ,  1-C ) :   1.1329 B(  0-S ,  4-C ) :   1.1719 B(  1-C ,  2-C ) :   1.6014
B(  1-C ,  4-C ) :   0.1035 B(  1-C , 32-H ) :   0.9676 B(  2-C ,  3-C ) :   1.2551
B(  2-C ,  6-C ) :   1.0140 B(  3-C ,  4-C ) :   1.5756 B(  3-C ,  5-H ) :   0.9915
B(  4-C , 20-C ) :   0.9838 B(  6-C ,  7-H ) :   0.9462 B(  6-C ,  8-H ) :   0.9439
B(  6-C ,  9-C ) :   1.0560 B(  9-C , 10-H ) :   0.9513 B(  9-C , 11-H ) :   0.9584
B(  9-C , 12-C ) :   1.0744 B( 12-C , 13-H ) :   0.9717 B( 12-C , 14-H ) :   0.9763
B( 12-C , 15-H ) :   0.9743 B( 16-S , 17-C ) :   1.1447 B( 16-S , 20-C ) :   1.1227
B( 17-C , 18-C ) :   1.6229 B( 17-C , 33-H ) :   0.9828 B( 18-C , 19-C ) :   1.2016
B( 18-C , 21-H ) :   0.9784 B( 19-C , 20-C ) :   1.6403 B( 19-C , 22-C ) :   1.0514
B( 22-C , 23-H ) :   0.9338 B( 22-C , 24-H ) :   0.9288 B( 22-C , 25-C ) :   1.0717
B( 25-C , 26-H ) :   0.9601 B( 25-C , 27-H ) :   0.9484 B( 25-C , 28-C ) :   1.0766
B( 28-C , 29-H ) :   0.9736 B( 28-C , 30-H ) :   0.9759 B( 28-C , 31-H ) :   0.9723

Dispersion correction           -0.013849426
FINAL SINGLE POINT ENERGY     -1339.859108810969

DIPOLE MOMENT
-------------
                                X             Y             Z
Electronic contribution:    -17.88107     -18.79943     -13.67977
Nuclear contribution   :     18.31068      19.36673      13.89021
                        -----------------------------------------
Total Dipole Moment    :      0.42961       0.56730       0.21043
                        -----------------------------------------
Magnitude (a.u.)       :      0.74207
Magnitude (Debye)      :      1.88619

Rotational constants in cm-1:     0.019815     0.007790     0.005904
Rotational constants in MHz :   594.031252   233.531318   177.011770

                             ****ORCA TERMINATED NORMALLY****
TOTAL RUN TIME: 0 days 0 hours 0 minutes 21 seconds 134 msec
