                         Program Version 4.2.1 -  RELEASE  -
|  1> ! wB97X-D3 SP def2-SVP
|  2> %pal
|  3> nprocs 24
|  4> end
|  5>
|  6> * xyz 0 1
|  7> S 	 -116.614 	 17.4649 	 -111.109
|  8> C 	 -117.233 	 18.956 	 -110.343
|  9> C 	 -118.529 	 18.783 	 -109.848
| 10> C 	 -118.88 	 17.4285 	 -109.949
| 11> C 	 -117.938 	 16.575 	 -110.539
| 12> H 	 -119.803 	 16.9287 	 -109.665
| 13> C 	 -119.413 	 19.7263 	 -109.176
| 14> H 	 -120.365 	 19.1243 	 -109.261
| 15> H 	 -119.669 	 20.662 	 -109.765
| 16> C 	 -119.063 	 20.0363 	 -107.714
| 17> H 	 -119.274 	 19.1306 	 -107.135
| 18> H 	 -117.989 	 20.2728 	 -107.662
| 19> C 	 -119.975 	 21.1366 	 -107.098
| 20> H 	 -119.796 	 22.1441 	 -107.407
| 21> H 	 -121.045 	 20.8805 	 -107.271
| 22> H 	 -119.91 	 21.1681 	 -105.999
| 23> S 	 -117.999 	 14.056 	 -109.468
| 24> C 	 -117.746 	 12.609 	 -110.431
| 25> C 	 -117.694 	 13.0022 	 -111.74
| 26> C 	 -117.958 	 14.3927 	 -111.978
| 27> C 	 -118.007 	 15.1398 	 -110.832
| 28> H 	 -117.587 	 12.2918 	 -112.5
| 29> C 	 -117.886 	 14.9783 	 -113.407
| 30> H 	 -116.947 	 15.5521 	 -113.52
| 31> H 	 -118.63 	 15.7637 	 -113.599
| 32> C 	 -117.938 	 14.0175 	 -114.638
| 33> H 	 -118.906 	 13.5616 	 -114.643
| 34> H 	 -117.169 	 13.2304 	 -114.46
| 35> C 	 -117.726 	 14.7587 	 -116.005
| 36> H 	 -118.633 	 15.4181 	 -116.106
| 37> H 	 -117.841 	 14.0535 	 -116.846
| 38> H 	 -116.818 	 15.3624 	 -116.145
| 39> H 	 -116.767 	 19.8939 	 -110.531
| 40> H 	 -117.505 	 11.5598 	 -110.093
| 41> *
| 42>
| 43>                          ****END OF INPUT****

CARTESIAN COORDINATES (ANGSTROEM)
---------------------------------
  S    -116.614000   17.464900  -111.109000
  C    -117.233000   18.956000  -110.343000
  C    -118.529000   18.783000  -109.848000
  C    -118.880000   17.428500  -109.949000
  C    -117.938000   16.575000  -110.539000
  H    -119.803000   16.928700  -109.665000
  C    -119.413000   19.726300  -109.176000
  H    -120.365000   19.124300  -109.261000
  H    -119.669000   20.662000  -109.765000
  C    -119.063000   20.036300  -107.714000
  H    -119.274000   19.130600  -107.135000
  H    -117.989000   20.272800  -107.662000
  C    -119.975000   21.136600  -107.098000
  H    -119.796000   22.144100  -107.407000
  H    -121.045000   20.880500  -107.271000
  H    -119.910000   21.168100  -105.999000
  S    -117.999000   14.056000  -109.468000
  C    -117.746000   12.609000  -110.431000
  C    -117.694000   13.002200  -111.740000
  C    -117.958000   14.392700  -111.978000
  C    -118.007000   15.139800  -110.832000
  H    -117.587000   12.291800  -112.500000
  C    -117.886000   14.978300  -113.407000
  H    -116.947000   15.552100  -113.520000
  H    -118.630000   15.763700  -113.599000
  C    -117.938000   14.017500  -114.638000
  H    -118.906000   13.561600  -114.643000
  H    -117.169000   13.230400  -114.460000
  C    -117.726000   14.758700  -116.005000
  H    -118.633000   15.418100  -116.106000
  H    -117.841000   14.053500  -116.846000
  H    -116.818000   15.362400  -116.145000
  H    -116.767000   19.893900  -110.531000
  H    -117.505000   11.559800  -110.093000

 Total Charge           Charge          ....    0
 Multiplicity           Mult            ....    1
 Number of Electrons    NEL             ....  134
 Basis Dimension        Dim             ....  322

ORBITAL ENERGIES
----------------

  NO   OCC          E(Eh)            E(eV)
   0   2.0000     -88.968653     -2420.9601
   1   2.0000     -88.961528     -2420.7662
   2   2.0000     -10.327451      -281.0242
   3   2.0000     -10.325726      -280.9773
   4   2.0000     -10.321364      -280.8586
   5   2.0000     -10.315607      -280.7019
   6   2.0000     -10.305031      -280.4141
   7   2.0000     -10.301275      -280.3119
   8   2.0000     -10.296187      -280.1735
   9   2.0000     -10.293242      -280.0934
  10   2.0000     -10.292757      -280.0801
  11   2.0000     -10.292512      -280.0735
  12   2.0000     -10.292328      -280.0685
  13   2.0000     -10.288548      -279.9656
  14   2.0000     -10.288453      -279.9631
  15   2.0000     -10.281703      -279.7794
  16   2.0000      -8.083495      -219.9631
  17   2.0000      -8.076429      -219.7708
  18   2.0000      -6.041865      -164.4075
  19   2.0000      -6.037849      -164.2982
  20   2.0000      -6.035061      -164.2223
  21   2.0000      -6.034536      -164.2081
  22   2.0000      -6.030725      -164.1044
  23   2.0000      -6.027203      -164.0085
  24   2.0000      -1.010665       -27.5016
  25   2.0000      -0.988053       -26.8863
  26   2.0000      -0.917445       -24.9649
  27   2.0000      -0.899385       -24.4735
  28   2.0000      -0.869413       -23.6579
  29   2.0000      -0.850912       -23.1545
  30   2.0000      -0.842461       -22.9245
  31   2.0000      -0.812779       -22.1168
  32   2.0000      -0.782727       -21.2991
  33   2.0000      -0.770136       -20.9565
  34   2.0000      -0.707755       -19.2590
  35   2.0000      -0.703220       -19.1356
  36   2.0000      -0.696281       -18.9468
  37   2.0000      -0.656793       -17.8723
  38   2.0000      -0.643359       -17.5067
  39   2.0000      -0.617002       -16.7895
  40   2.0000      -0.597001       -16.2452
  41   2.0000      -0.572827       -15.5874
  42   2.0000      -0.563598       -15.3363
  43   2.0000      -0.560166       -15.2429
  44   2.0000      -0.524452       -14.2711
  45   2.0000      -0.519323       -14.1315
  46   2.0000      -0.513982       -13.9862
  47   2.0000      -0.509166       -13.8551
  48   2.0000      -0.508514       -13.8374
  49   2.0000      -0.504213       -13.7203
  50   2.0000      -0.485759       -13.2182
  51   2.0000      -0.475921       -12.9505
  52   2.0000      -0.468779       -12.7561
  53   2.0000      -0.463350       -12.6084
  54   2.0000      -0.459549       -12.5050
  55   2.0000      -0.450371       -12.2552
  56   2.0000      -0.446192       -12.1415
  57   2.0000      -0.437770       -11.9123
  58   2.0000      -0.431970       -11.7545
  59   2.0000      -0.429370       -11.6838
  60   2.0000      -0.417821       -11.3695
  61   2.0000      -0.412319       -11.2198
  62   2.0000      -0.411984       -11.2106
  63   2.0000      -0.340190        -9.2570
  64   2.0000      -0.334377        -9.0989
  65   2.0000      -0.325888        -8.8679
  66   2.0000      -0.300022        -8.1640
  67   0.0000       0.033000         0.8980
  68   0.0000       0.060767         1.6536
  69   0.0000       0.106672         2.9027
  70   0.0000       0.123933         3.3724
  71   0.0000       0.136740         3.7209

MULLIKEN ATOMIC CHARGES
-----------------------
   0 S :    0.119720
   1 C :   -0.121068
   2 C :   -0.050058
   3 C :    0.022778
   4 C :   -0.174348
   5 H :    0.009835
   6 C :    0.012814
   7 H :    0.025861
   8 H :    0.042350
   9 C :   -0.046196
  10 H :    0.033836
  11 H :    0.039635
  12 C :   -0.055617
  13 H :    0.032158
  14 H :    0.031275
  15 H :    0.033147
  16 S :    0.101635
  17 C :   -0.098422
  18 C :   -0.038268
  19 C :   -0.000550
  20 C :   -0.153451
  21 H :    0.002482
  22 C :    0.016185
  23 H :    0.033641
  24 H :    0.028326
  25 C :   -0.100223
  26 H :    0.033816
  27 H :    0.040795
  28 C :   -0.066013
  29 H :    0.033942
  30 H :    0.038669
  31 H :    0.049496
  32 H :    0.041497
  33 H :    0.080320
Sum of atomic charges:    0.0000000

LOEWDIN ATOMIC CHARGES
----------------------
   0 S :    0.434996
   1 C :   -0.182817
   2 C :   -0.065062
   3 C :   -0.067219
   4 C :   -0.215763
   5 H :    0.031444
   6 C :   -0.046830
   7 H :    0.038562
   8 H :    0.036568
   9 C :   -0.034038
  10 H :    0.030704
  11 H :    0.027148
  12 C :   -0.070163
  13 H :    0.019289
  14 H :    0.029728
  15 H :    0.028666
  16 S :    0.408753
  17 C :   -0.193002
  18 C :   -0.071654
  19 C :   -0.060172
  20 C :   -0.204752
  21 H :    0.019556
  22 C :   -0.042650
  23 H :    0.029609
  24 H :    0.030325
  25 C :   -0.041612
  26 H :    0.021759
  27 H :    0.022233
  28 C :   -0.070101
  29 H :    0.031367
  30 H :    0.029426
  31 H :    0.027728
  32 H :    0.018954
  33 H :    0.049021

  Mayer bond orders larger than 0.100000
B(  0-S ,  1-C ) :   1.1574 B(  0-S ,  4-C ) :   1.1849 B(  1-C ,  2-C ) :   1.5545
B(  1-C ,  4-C ) :   0.1083 B(  1-C , 32-H ) :   0.9751 B(  2-C ,  3-C ) :   1.2746
B(  2-C ,  6-C ) :   1.0273 B(  3-C ,  4-C ) :   1.5593 B(  3-C ,  5-H ) :   0.9889
B(  4-C , 20-C ) :   0.9987 B(  6-C ,  7-H ) :   0.9352 B(  6-C ,  8-H ) :   0.9376
B(  6-C ,  9-C ) :   1.0563 B(  9-C , 10-H ) :   0.9524 B(  9-C , 11-H ) :   0.9616
B(  9-C , 12-C ) :   1.0749 B( 12-C , 13-H ) :   0.9781 B( 12-C , 14-H ) :   0.9733
B( 12-C , 15-H ) :   0.9757 B( 16-S , 17-C ) :   1.1503 B( 16-S , 20-C ) :   1.1487
B( 17-C , 18-C ) :   1.6097 B( 17-C , 33-H ) :   0.9586 B( 18-C , 19-C ) :   1.2464
B( 18-C , 21-H ) :   0.9892 B( 19-C , 20-C ) :   1.6054 B( 19-C , 22-C ) :   1.0279
B( 22-C , 23-H ) :   0.9380 B( 22-C , 24-H ) :   0.9379 B( 22-C , 25-C ) :   1.0686
B( 25-C , 26-H ) :   0.9595 B( 25-C , 27-H ) :   0.9485 B( 25-C , 28-C ) :   1.0771
B( 28-C , 29-H ) :   0.9739 B( 28-C , 30-H ) :   0.9739 B( 28-C , 31-H ) :   0.9774

Dispersion correction           -0.013399088
FINAL SINGLE POINT ENERGY     -1339.876144846273

DIPOLE MOMENT
-------------
                                X             Y             Z
Electronic contribution:      8.88421     -11.33530       7.07322
Nuclear contribution   :     -9.08468      11.49681      -7.36190
                        -----------------------------------------
Total Dipole Moment    :     -0.20047       0.16151      -0.28868
                        -----------------------------------------
Magnitude (a.u.)       :      0.38679
Magnitude (Debye)      :      0.98314

Rotational constants in cm-1:     0.022644     0.006835     0.005757
Rotational constants in MHz :   678.847673   204.898376   172.595606

                             ****ORCA TERMINATED NORMALLY****
TOTAL RUN TIME: 0 days 0 hours 0 minutes 20 seconds 688 msec
