                         Program Version 4.2.1 -  RELEASE  -
|  1> ! wB97X-D3 SP def2-SVP
|  2> %pal
|  3> nprocs 24
|  4> end
|  5>
|  6> * xyz 0 1
|  7> S 	 -126.383 	 70.2776 	 -53.3835
|  8> C 	 -126.172 	 70.0757 	 -55.0738
|  9> C 	 -124.845 	 70.3538 	 -55.431
| 10> C 	 -123.992 	 70.6846 	 -54.2996
| 11> C 	 -124.656 	 70.5692 	 -53.1238
| 12> H 	 -122.944 	 70.9768 	 -54.219
| 13> C 	 -124.241 	 70.3549 	 -56.8201
| 14> H 	 -123.29 	 70.8924 	 -56.7877
| 15> H 	 -124.879 	 70.9874 	 -57.4056
| 16> C 	 -124.005 	 69.0669 	 -57.5888
| 17> H 	 -124.999 	 68.7413 	 -57.8523
| 18> H 	 -123.507 	 69.2907 	 -58.5444
| 19> C 	 -123.321 	 67.9448 	 -56.8119
| 20> H 	 -122.288 	 68.2318 	 -56.5811
| 21> H 	 -123.727 	 67.6588 	 -55.8637
| 22> H 	 -123.326 	 67.0458 	 -57.479
| 23> S 	 -125.349 	 72.1073 	 -51.0859
| 24> C 	 -124.334 	 72.0899 	 -49.6552
| 25> C 	 -123.138 	 71.3658 	 -49.8296
| 26> C 	 -122.971 	 70.8455 	 -51.1457
| 27> C 	 -124.217 	 70.9771 	 -51.8124
| 28> H 	 -122.297 	 71.4712 	 -49.1304
| 29> C 	 -121.698 	 70.1363 	 -51.7227
| 30> H 	 -121.108 	 70.9669 	 -52.2012
| 31> H 	 -121.969 	 69.4686 	 -52.551
| 32> C 	 -120.985 	 69.2757 	 -50.634
| 33> H 	 -121.749 	 68.6859 	 -50.1005
| 34> H 	 -120.637 	 69.8373 	 -49.7719
| 35> C 	 -119.857 	 68.401 	 -51.1337
| 36> H 	 -118.906 	 68.8685 	 -51.4116
| 37> H 	 -120.316 	 67.8942 	 -51.9578
| 38> H 	 -119.376 	 67.7206 	 -50.4202
| 39> H 	 -126.811 	 69.8359 	 -55.8993
| 40> H 	 -124.565 	 72.6669 	 -48.7801
| 41> *
| 42>
| 43>                          ****END OF INPUT****

CARTESIAN COORDINATES (ANGSTROEM)
---------------------------------
  S    -126.383000   70.277600  -53.383500
  C    -126.172000   70.075700  -55.073800
  C    -124.845000   70.353800  -55.431000
  C    -123.992000   70.684600  -54.299600
  C    -124.656000   70.569200  -53.123800
  H    -122.944000   70.976800  -54.219000
  C    -124.241000   70.354900  -56.820100
  H    -123.290000   70.892400  -56.787700
  H    -124.879000   70.987400  -57.405600
  C    -124.005000   69.066900  -57.588800
  H    -124.999000   68.741300  -57.852300
  H    -123.507000   69.290700  -58.544400
  C    -123.321000   67.944800  -56.811900
  H    -122.288000   68.231800  -56.581100
  H    -123.727000   67.658800  -55.863700
  H    -123.326000   67.045800  -57.479000
  S    -125.349000   72.107300  -51.085900
  C    -124.334000   72.089900  -49.655200
  C    -123.138000   71.365800  -49.829600
  C    -122.971000   70.845500  -51.145700
  C    -124.217000   70.977100  -51.812400
  H    -122.297000   71.471200  -49.130400
  C    -121.698000   70.136300  -51.722700
  H    -121.108000   70.966900  -52.201200
  H    -121.969000   69.468600  -52.551000
  C    -120.985000   69.275700  -50.634000
  H    -121.749000   68.685900  -50.100500
  H    -120.637000   69.837300  -49.771900
  C    -119.857000   68.401000  -51.133700
  H    -118.906000   68.868500  -51.411600
  H    -120.316000   67.894200  -51.957800
  H    -119.376000   67.720600  -50.420200
  H    -126.811000   69.835900  -55.899300
  H    -124.565000   72.666900  -48.780100

 Total Charge           Charge          ....    0
 Multiplicity           Mult            ....    1
 Number of Electrons    NEL             ....  134
 Basis Dimension        Dim             ....  322

ORBITAL ENERGIES
----------------

  NO   OCC          E(Eh)            E(eV)
   0   2.0000     -88.969966     -2420.9959
   1   2.0000     -88.966841     -2420.9108
   2   2.0000     -10.326187      -280.9898
   3   2.0000     -10.322968      -280.9022
   4   2.0000     -10.317493      -280.7533
   5   2.0000     -10.311882      -280.6006
   6   2.0000     -10.311407      -280.5877
   7   2.0000     -10.309801      -280.5440
   8   2.0000     -10.303086      -280.3612
   9   2.0000     -10.299121      -280.2533
  10   2.0000     -10.291590      -280.0484
  11   2.0000     -10.291290      -280.0402
  12   2.0000     -10.284944      -279.8675
  13   2.0000     -10.284237      -279.8483
  14   2.0000     -10.278117      -279.6818
  15   2.0000     -10.275906      -279.6216
  16   2.0000      -8.084378      -219.9871
  17   2.0000      -8.081597      -219.9114
  18   2.0000      -6.042715      -164.4306
  19   2.0000      -6.040237      -164.3632
  20   2.0000      -6.039104      -164.3324
  21   2.0000      -6.036086      -164.2502
  22   2.0000      -6.035143      -164.2246
  23   2.0000      -6.032195      -164.1444
  24   2.0000      -1.008278       -27.4366
  25   2.0000      -0.979963       -26.6661
  26   2.0000      -0.911591       -24.8057
  27   2.0000      -0.906823       -24.6759
  28   2.0000      -0.869291       -23.6546
  29   2.0000      -0.856492       -23.3063
  30   2.0000      -0.844229       -22.9727
  31   2.0000      -0.811423       -22.0799
  32   2.0000      -0.785024       -21.3616
  33   2.0000      -0.771710       -20.9993
  34   2.0000      -0.710096       -19.3227
  35   2.0000      -0.703426       -19.1412
  36   2.0000      -0.695883       -18.9359
  37   2.0000      -0.657386       -17.8884
  38   2.0000      -0.637699       -17.3527
  39   2.0000      -0.609236       -16.5782
  40   2.0000      -0.595486       -16.2040
  41   2.0000      -0.571037       -15.5387
  42   2.0000      -0.565022       -15.3750
  43   2.0000      -0.548384       -14.9223
  44   2.0000      -0.543410       -14.7869
  45   2.0000      -0.528017       -14.3681
  46   2.0000      -0.512240       -13.9388
  47   2.0000      -0.508708       -13.8426
  48   2.0000      -0.505133       -13.7454
  49   2.0000      -0.499558       -13.5937
  50   2.0000      -0.492668       -13.4062
  51   2.0000      -0.477351       -12.9894
  52   2.0000      -0.469775       -12.7832
  53   2.0000      -0.466794       -12.7021
  54   2.0000      -0.462397       -12.5825
  55   2.0000      -0.453892       -12.3510
  56   2.0000      -0.443635       -12.0719
  57   2.0000      -0.433690       -11.8013
  58   2.0000      -0.431702       -11.7472
  59   2.0000      -0.427457       -11.6317
  60   2.0000      -0.420339       -11.4380
  61   2.0000      -0.412296       -11.2191
  62   2.0000      -0.407372       -11.0852
  63   2.0000      -0.353706        -9.6248
  64   2.0000      -0.335364        -9.1257
  65   2.0000      -0.324087        -8.8189
  66   2.0000      -0.282805        -7.6955
  67   0.0000       0.025124         0.6836
  68   0.0000       0.066980         1.8226
  69   0.0000       0.100349         2.7306
  70   0.0000       0.124629         3.3913
  71   0.0000       0.129138         3.5140

MULLIKEN ATOMIC CHARGES
-----------------------
   0 S :    0.109324
   1 C :   -0.072712
   2 C :   -0.131123
   3 C :    0.017135
   4 C :   -0.146020
   5 H :    0.017695
   6 C :    0.064698
   7 H :    0.015011
   8 H :    0.020903
   9 C :   -0.046898
  10 H :    0.009827
  11 H :    0.033846
  12 C :   -0.052419
  13 H :    0.021842
  14 H :    0.039459
  15 H :    0.039138
  16 S :    0.116414
  17 C :   -0.086671
  18 C :   -0.043301
  19 C :   -0.057587
  20 C :   -0.157639
  21 H :    0.029158
  22 C :    0.053676
  23 H :    0.058075
  24 H :    0.036105
  25 C :   -0.088929
  26 H :    0.039657
  27 H :    0.020890
  28 C :   -0.032059
  29 H :    0.026544
  30 H :    0.029140
  31 H :    0.030653
  32 H :    0.034136
  33 H :    0.052033
Sum of atomic charges:    0.0000000

LOEWDIN ATOMIC CHARGES
----------------------
   0 S :    0.408994
   1 C :   -0.215396
   2 C :   -0.057730
   3 C :   -0.068561
   4 C :   -0.190411
   5 H :    0.035631
   6 C :   -0.039674
   7 H :    0.027906
   8 H :    0.028929
   9 C :   -0.040122
  10 H :    0.016941
  11 H :    0.030073
  12 C :   -0.066851
  13 H :    0.022702
  14 H :    0.024026
  15 H :    0.032596
  16 S :    0.411676
  17 C :   -0.186821
  18 C :   -0.073970
  19 C :   -0.053172
  20 C :   -0.193367
  21 H :    0.033810
  22 C :   -0.029323
  23 H :    0.040547
  24 H :    0.031998
  25 C :   -0.048729
  26 H :    0.033900
  27 H :    0.019716
  28 C :   -0.072655
  29 H :    0.027649
  30 H :    0.023550
  31 H :    0.031884
  32 H :    0.031580
  33 H :    0.022674

  Mayer bond orders larger than 0.100000
B(  0-S ,  1-C ) :   1.1244 B(  0-S ,  4-C ) :   1.1347 B(  1-C ,  2-C ) :   1.6214
B(  1-C , 32-H ) :   0.9687 B(  2-C ,  3-C ) :   1.2117 B(  2-C ,  6-C ) :   1.0204
B(  3-C ,  4-C ) :   1.5927 B(  3-C ,  5-H ) :   0.9883 B(  4-C , 20-C ) :   1.0511
B(  6-C ,  7-H ) :   0.9422 B(  6-C ,  8-H ) :   0.9343 B(  6-C ,  9-C ) :   1.0807
B(  9-C , 10-H ) :   0.9526 B(  9-C , 11-H ) :   0.9516 B(  9-C , 12-C ) :   1.0807
B( 12-C , 13-H ) :   0.9757 B( 12-C , 14-H ) :   0.9725 B( 12-C , 15-H ) :   0.9742
B( 16-S , 17-C ) :   1.1496 B( 16-S , 20-C ) :   1.1629 B( 17-C , 18-C ) :   1.5928
B( 17-C , 20-C ) :   0.1085 B( 17-C , 33-H ) :   0.9696 B( 18-C , 19-C ) :   1.2650
B( 18-C , 21-H ) :   0.9778 B( 19-C , 20-C ) :   1.5689 B( 19-C , 22-C ) :   1.0284
B( 22-C , 23-H ) :   0.9313 B( 22-C , 24-H ) :   0.9384 B( 22-C , 25-C ) :   1.0529
B( 25-C , 26-H ) :   0.9563 B( 25-C , 27-H ) :   0.9489 B( 25-C , 28-C ) :   1.0833
B( 28-C , 29-H ) :   0.9723 B( 28-C , 30-H ) :   0.9763 B( 28-C , 31-H ) :   0.9702

Dispersion correction           -0.013999285
FINAL SINGLE POINT ENERGY     -1339.861884797903

DIPOLE MOMENT
-------------
                                X             Y             Z
Electronic contribution:    -23.42072      14.57765      11.88964
Nuclear contribution   :     24.06729     -14.56001     -12.13214
                        -----------------------------------------
Total Dipole Moment    :      0.64657       0.01764      -0.24250
                        -----------------------------------------
Magnitude (a.u.)       :      0.69077
Magnitude (Debye)      :      1.75581

Rotational constants in cm-1:     0.016624     0.009468     0.006453
Rotational constants in MHz :   498.363072   283.830871   193.466948

                             ****ORCA TERMINATED NORMALLY****
TOTAL RUN TIME: 0 days 0 hours 0 minutes 20 seconds 299 msec
