                         Program Version 4.2.1 -  RELEASE  -
|  1> ! wB97X-D3 SP def2-SVP
|  2> %pal
|  3> nprocs 24
|  4> end
|  5>
|  6> * xyz 0 1
|  7> S 	 -83.1737 	 -40.6767 	 -74.2451
|  8> C 	 -83.0128 	 -42.4054 	 -74.7121
|  9> C 	 -84.1399 	 -43.1309 	 -74.2843
| 10> C 	 -85.2198 	 -42.2442 	 -73.8305
| 11> C 	 -84.7781 	 -40.9251 	 -73.6131
| 12> H 	 -86.1855 	 -42.6079 	 -73.5381
| 13> C 	 -84.2335 	 -44.6375 	 -74.3643
| 14> H 	 -84.2098 	 -44.9295 	 -73.3476
| 15> H 	 -83.3492 	 -45.0843 	 -74.7636
| 16> C 	 -85.4055 	 -45.2517 	 -75.0973
| 17> H 	 -85.5281 	 -46.3089 	 -74.8039
| 18> H 	 -86.2791 	 -44.7283 	 -74.6441
| 19> C 	 -85.3737 	 -45.1032 	 -76.6286
| 20> H 	 -86.272 	 -45.3887 	 -77.0842
| 21> H 	 -85.1553 	 -44.0477 	 -76.8721
| 22> H 	 -84.5102 	 -45.6414 	 -77.1493
| 23> S 	 -86.3434 	 -38.6116 	 -74.2306
| 24> C 	 -87.2599 	 -37.9177 	 -72.9244
| 25> C 	 -86.9925 	 -38.5365 	 -71.7409
| 26> C 	 -86.2097 	 -39.707 	 -71.8781
| 27> C 	 -85.6608 	 -39.8485 	 -73.1244
| 28> H 	 -87.4681 	 -38.1749 	 -70.7824
| 29> C 	 -85.9116 	 -40.5498 	 -70.6897
| 30> H 	 -85.1815 	 -41.2004 	 -71.0591
| 31> H 	 -86.7677 	 -41.1318 	 -70.2905
| 32> C 	 -85.4384 	 -39.6221 	 -69.5231
| 33> H 	 -86.2764 	 -38.8846 	 -69.2886
| 34> H 	 -84.5926 	 -38.9192 	 -69.7272
| 35> C 	 -85.0163 	 -40.4343 	 -68.2268
| 36> H 	 -85.8582 	 -40.8052 	 -67.5481
| 37> H 	 -84.6563 	 -39.7654 	 -67.473
| 38> H 	 -84.2314 	 -41.1393 	 -68.3893
| 39> H 	 -82.1492 	 -42.8396 	 -75.211
| 40> H 	 -87.9567 	 -37.1063 	 -73.0126
| 41> *
| 42>
| 43>                          ****END OF INPUT****

CARTESIAN COORDINATES (ANGSTROEM)
---------------------------------
  S    -83.173700  -40.676700  -74.245100
  C    -83.012800  -42.405400  -74.712100
  C    -84.139900  -43.130900  -74.284300
  C    -85.219800  -42.244200  -73.830500
  C    -84.778100  -40.925100  -73.613100
  H    -86.185500  -42.607900  -73.538100
  C    -84.233500  -44.637500  -74.364300
  H    -84.209800  -44.929500  -73.347600
  H    -83.349200  -45.084300  -74.763600
  C    -85.405500  -45.251700  -75.097300
  H    -85.528100  -46.308900  -74.803900
  H    -86.279100  -44.728300  -74.644100
  C    -85.373700  -45.103200  -76.628600
  H    -86.272000  -45.388700  -77.084200
  H    -85.155300  -44.047700  -76.872100
  H    -84.510200  -45.641400  -77.149300
  S    -86.343400  -38.611600  -74.230600
  C    -87.259900  -37.917700  -72.924400
  C    -86.992500  -38.536500  -71.740900
  C    -86.209700  -39.707000  -71.878100
  C    -85.660800  -39.848500  -73.124400
  H    -87.468100  -38.174900  -70.782400
  C    -85.911600  -40.549800  -70.689700
  H    -85.181500  -41.200400  -71.059100
  H    -86.767700  -41.131800  -70.290500
  C    -85.438400  -39.622100  -69.523100
  H    -86.276400  -38.884600  -69.288600
  H    -84.592600  -38.919200  -69.727200
  C    -85.016300  -40.434300  -68.226800
  H    -85.858200  -40.805200  -67.548100
  H    -84.656300  -39.765400  -67.473000
  H    -84.231400  -41.139300  -68.389300
  H    -82.149200  -42.839600  -75.211000
  H    -87.956700  -37.106300  -73.012600

 Total Charge           Charge          ....    0
 Multiplicity           Mult            ....    1
 Number of Electrons    NEL             ....  134
 Basis Dimension        Dim             ....  322

ORBITAL ENERGIES
----------------

  NO   OCC          E(Eh)            E(eV)
   0   2.0000     -88.968534     -2420.9569
   1   2.0000     -88.963354     -2420.8159
   2   2.0000     -10.334755      -281.2230
   3   2.0000     -10.326095      -280.9873
   4   2.0000     -10.321310      -280.8571
   5   2.0000     -10.314931      -280.6835
   6   2.0000     -10.309528      -280.5365
   7   2.0000     -10.301474      -280.3174
   8   2.0000     -10.299811      -280.2721
   9   2.0000     -10.297100      -280.1983
  10   2.0000     -10.291134      -280.0360
  11   2.0000     -10.290992      -280.0321
  12   2.0000     -10.287456      -279.9359
  13   2.0000     -10.286318      -279.9050
  14   2.0000     -10.279975      -279.7323
  15   2.0000     -10.279430      -279.7175
  16   2.0000      -8.082379      -219.9327
  17   2.0000      -8.077765      -219.8071
  18   2.0000      -6.040969      -164.3831
  19   2.0000      -6.036972      -164.2744
  20   2.0000      -6.036334      -164.2570
  21   2.0000      -6.033147      -164.1703
  22   2.0000      -6.032380      -164.1494
  23   2.0000      -6.028408      -164.0413
  24   2.0000      -1.002528       -27.2802
  25   2.0000      -0.979037       -26.6410
  26   2.0000      -0.914559       -24.8864
  27   2.0000      -0.904849       -24.6222
  28   2.0000      -0.865277       -23.5454
  29   2.0000      -0.844241       -22.9730
  30   2.0000      -0.839793       -22.8519
  31   2.0000      -0.811908       -22.0931
  32   2.0000      -0.785593       -21.3771
  33   2.0000      -0.774003       -21.0617
  34   2.0000      -0.707489       -19.2518
  35   2.0000      -0.704189       -19.1620
  36   2.0000      -0.692520       -18.8444
  37   2.0000      -0.651512       -17.7285
  38   2.0000      -0.637905       -17.3583
  39   2.0000      -0.619502       -16.8575
  40   2.0000      -0.598686       -16.2911
  41   2.0000      -0.566011       -15.4020
  42   2.0000      -0.559487       -15.2244
  43   2.0000      -0.558091       -15.1864
  44   2.0000      -0.537501       -14.6262
  45   2.0000      -0.527689       -14.3592
  46   2.0000      -0.514719       -14.0062
  47   2.0000      -0.505950       -13.7676
  48   2.0000      -0.500464       -13.6183
  49   2.0000      -0.499070       -13.5804
  50   2.0000      -0.484378       -13.1806
  51   2.0000      -0.474338       -12.9074
  52   2.0000      -0.472015       -12.8442
  53   2.0000      -0.466846       -12.7035
  54   2.0000      -0.459393       -12.5007
  55   2.0000      -0.448105       -12.1936
  56   2.0000      -0.447202       -12.1690
  57   2.0000      -0.441053       -12.0017
  58   2.0000      -0.428567       -11.6619
  59   2.0000      -0.420708       -11.4480
  60   2.0000      -0.417481       -11.3602
  61   2.0000      -0.413871       -11.2620
  62   2.0000      -0.412490       -11.2244
  63   2.0000      -0.336069        -9.1449
  64   2.0000      -0.327442        -8.9101
  65   2.0000      -0.326148        -8.8750
  66   2.0000      -0.304081        -8.2745
  67   0.0000       0.036811         1.0017
  68   0.0000       0.060829         1.6552
  69   0.0000       0.114559         3.1173
  70   0.0000       0.123959         3.3731
  71   0.0000       0.126584         3.4445

MULLIKEN ATOMIC CHARGES
-----------------------
   0 S :    0.111289
   1 C :   -0.133406
   2 C :   -0.109280
   3 C :    0.047715
   4 C :   -0.186791
   5 H :    0.015453
   6 C :    0.101880
   7 H :    0.028574
   8 H :   -0.000433
   9 C :   -0.083768
  10 H :    0.032214
  11 H :    0.025111
  12 C :   -0.044421
  13 H :    0.031910
  14 H :    0.036452
  15 H :    0.033394
  16 S :    0.105801
  17 C :   -0.079652
  18 C :   -0.055349
  19 C :   -0.044316
  20 C :   -0.152471
  21 H :    0.040223
  22 C :    0.143783
  23 H :    0.013999
  24 H :    0.041431
  25 C :   -0.155153
  26 H :    0.037320
  27 H :    0.047023
  28 C :   -0.043075
  29 H :    0.033078
  30 H :    0.014267
  31 H :    0.040502
  32 H :    0.057040
  33 H :    0.049658
Sum of atomic charges:    0.0000000

LOEWDIN ATOMIC CHARGES
----------------------
   0 S :    0.394186
   1 C :   -0.190622
   2 C :   -0.054049
   3 C :   -0.054442
   4 C :   -0.199764
   5 H :    0.026838
   6 C :   -0.032655
   7 H :    0.033612
   8 H :    0.023977
   9 C :   -0.043600
  10 H :    0.026723
  11 H :    0.025059
  12 C :   -0.066822
  13 H :    0.018485
  14 H :    0.030475
  15 H :    0.032006
  16 S :    0.387838
  17 C :   -0.176350
  18 C :   -0.083123
  19 C :   -0.053287
  20 C :   -0.195153
  21 H :    0.040151
  22 C :   -0.026052
  23 H :    0.022049
  24 H :    0.039698
  25 C :   -0.041928
  26 H :    0.027308
  27 H :    0.031370
  28 C :   -0.081100
  29 H :    0.034253
  30 H :    0.023314
  31 H :    0.022859
  32 H :    0.030579
  33 H :    0.028166

  Mayer bond orders larger than 0.100000
B(  0-S ,  1-C ) :   1.1245 B(  0-S ,  4-C ) :   1.1558 B(  1-C ,  2-C ) :   1.6090
B(  1-C , 32-H ) :   0.9687 B(  2-C ,  3-C ) :   1.2226 B(  2-C ,  6-C ) :   1.0259
B(  3-C ,  4-C ) :   1.5739 B(  3-C ,  5-H ) :   0.9883 B(  4-C , 20-C ) :   1.0225
B(  6-C ,  7-H ) :   0.9267 B(  6-C ,  8-H ) :   0.9385 B(  6-C ,  9-C ) :   1.0766
B(  9-C , 10-H ) :   0.9522 B(  9-C , 11-H ) :   0.9544 B(  9-C , 12-C ) :   1.0706
B( 12-C , 13-H ) :   0.9757 B( 12-C , 14-H ) :   0.9753 B( 12-C , 15-H ) :   0.9728
B( 16-S , 17-C ) :   1.1560 B( 16-S , 20-C ) :   1.1140 B( 17-C , 18-C ) :   1.6328
B( 17-C , 33-H ) :   0.9655 B( 18-C , 19-C ) :   1.2209 B( 18-C , 21-H ) :   0.9766
B( 19-C , 20-C ) :   1.6336 B( 19-C , 22-C ) :   1.0512 B( 22-C , 23-H ) :   0.9265
B( 22-C , 24-H ) :   0.9268 B( 22-C , 25-C ) :   1.0490 B( 25-C , 26-H ) :   0.9514
B( 25-C , 27-H ) :   0.9607 B( 25-C , 28-C ) :   1.0805 B( 28-C , 29-H ) :   0.9716
B( 28-C , 30-H ) :   0.9695 B( 28-C , 31-H ) :   0.9773

Dispersion correction           -0.013988984
FINAL SINGLE POINT ENERGY     -1339.869781208081

DIPOLE MOMENT
-------------
                                X             Y             Z
Electronic contribution:      2.84775      18.39026     -11.71789
Nuclear contribution   :     -3.06758     -18.84548      12.15327
                        -----------------------------------------
Total Dipole Moment    :     -0.21983      -0.45522       0.43538
                        -----------------------------------------
Magnitude (a.u.)       :      0.66716
Magnitude (Debye)      :      1.69580

Rotational constants in cm-1:     0.018435     0.007830     0.006781
Rotational constants in MHz :   552.669229   234.727703   203.289847

                             ****ORCA TERMINATED NORMALLY****
TOTAL RUN TIME: 0 days 0 hours 0 minutes 21 seconds 184 msec
