                         Program Version 4.2.1 -  RELEASE  -
|  1> ! wB97X-D3 SP def2-SVP
|  2> %pal
|  3> nprocs 24
|  4> end
|  5>
|  6> * xyz 0 1
|  7> S 	 -100.648 	 3.14558 	 -108.788
|  8> C 	 -102.115 	 3.10887 	 -107.758
|  9> C 	 -101.832 	 2.8266 	 -106.453
| 10> C 	 -100.537 	 2.21544 	 -106.341
| 11> C 	 -99.6962 	 2.43302 	 -107.428
| 12> H 	 -100.119 	 1.6568 	 -105.586
| 13> C 	 -102.848 	 2.61309 	 -105.297
| 14> H 	 -103.836 	 2.90601 	 -105.794
| 15> H 	 -102.559 	 3.36625 	 -104.546
| 16> C 	 -103.034 	 1.25551 	 -104.664
| 17> H 	 -103.551 	 0.704118 	 -105.435
| 18> H 	 -102.092 	 0.820191 	 -104.397
| 19> C 	 -103.898 	 1.518 	 -103.387
| 20> H 	 -103.967 	 0.504142 	 -102.897
| 21> H 	 -103.467 	 2.1783 	 -102.698
| 22> H 	 -104.932 	 1.80786 	 -103.616
| 23> S 	 -98.2454 	 0.277594 	 -108.16
| 24> C 	 -96.5902 	 0.186534 	 -107.733
| 25> C 	 -96.1134 	 1.31407 	 -107.216
| 26> C 	 -97.123 	 2.31688 	 -107.12
| 27> C 	 -98.3701 	 1.86564 	 -107.549
| 28> H 	 -95.1268 	 1.30344 	 -106.853
| 29> C 	 -96.8502 	 3.6286 	 -106.416
| 30> H 	 -97.5662 	 4.36478 	 -106.865
| 31> H 	 -95.8482 	 3.87648 	 -106.815
| 32> C 	 -96.9765 	 3.58463 	 -104.931
| 33> H 	 -96.5649 	 2.71231 	 -104.49
| 34> H 	 -98.021 	 3.49978 	 -104.654
| 35> C 	 -96.1979 	 4.7706 	 -104.25
| 36> H 	 -95.1746 	 4.56448 	 -104.383
| 37> H 	 -96.2464 	 4.9304 	 -103.217
| 38> H 	 -96.5297 	 5.78504 	 -104.624
| 39> H 	 -103.145 	 3.31225 	 -108.023
| 40> H 	 -95.913 	 -0.631853 	 -107.973
| 41> *
| 42>
| 43>                          ****END OF INPUT****

CARTESIAN COORDINATES (ANGSTROEM)
---------------------------------
  S    -100.648000    3.145580  -108.788000
  C    -102.115000    3.108870  -107.758000
  C    -101.832000    2.826600  -106.453000
  C    -100.537000    2.215440  -106.341000
  C    -99.696200    2.433020  -107.428000
  H    -100.119000    1.656800  -105.586000
  C    -102.848000    2.613090  -105.297000
  H    -103.836000    2.906010  -105.794000
  H    -102.559000    3.366250  -104.546000
  C    -103.034000    1.255510  -104.664000
  H    -103.551000    0.704118  -105.435000
  H    -102.092000    0.820191  -104.397000
  C    -103.898000    1.518000  -103.387000
  H    -103.967000    0.504142  -102.897000
  H    -103.467000    2.178300  -102.698000
  H    -104.932000    1.807860  -103.616000
  S    -98.245400    0.277594  -108.160000
  C    -96.590200    0.186534  -107.733000
  C    -96.113400    1.314070  -107.216000
  C    -97.123000    2.316880  -107.120000
  C    -98.370100    1.865640  -107.549000
  H    -95.126800    1.303440  -106.853000
  C    -96.850200    3.628600  -106.416000
  H    -97.566200    4.364780  -106.865000
  H    -95.848200    3.876480  -106.815000
  C    -96.976500    3.584630  -104.931000
  H    -96.564900    2.712310  -104.490000
  H    -98.021000    3.499780  -104.654000
  C    -96.197900    4.770600  -104.250000
  H    -95.174600    4.564480  -104.383000
  H    -96.246400    4.930400  -103.217000
  H    -96.529700    5.785040  -104.624000
  H    -103.145000    3.312250  -108.023000
  H    -95.913000   -0.631853  -107.973000

 Total Charge           Charge          ....    0
 Multiplicity           Mult            ....    1
 Number of Electrons    NEL             ....  134
 Basis Dimension        Dim             ....  322

ORBITAL ENERGIES
----------------

  NO   OCC          E(Eh)            E(eV)
   0   2.0000     -88.966261     -2420.8950
   1   2.0000     -88.961236     -2420.7583
   2   2.0000     -10.328881      -281.0631
   3   2.0000     -10.318302      -280.7753
   4   2.0000     -10.317995      -280.7669
   5   2.0000     -10.306719      -280.4601
   6   2.0000     -10.300233      -280.2836
   7   2.0000     -10.299419      -280.2614
   8   2.0000     -10.298011      -280.2231
   9   2.0000     -10.290480      -280.0182
  10   2.0000     -10.289536      -279.9925
  11   2.0000     -10.288954      -279.9767
  12   2.0000     -10.283785      -279.8360
  13   2.0000     -10.282167      -279.7920
  14   2.0000     -10.281590      -279.7763
  15   2.0000     -10.273837      -279.5653
  16   2.0000      -8.079325      -219.8496
  17   2.0000      -8.077719      -219.8059
  18   2.0000      -6.038097      -164.3050
  19   2.0000      -6.036030      -164.2487
  20   2.0000      -6.034190      -164.1987
  21   2.0000      -6.031984      -164.1386
  22   2.0000      -6.029770      -164.0784
  23   2.0000      -6.028564      -164.0456
  24   2.0000      -1.011947       -27.5365
  25   2.0000      -0.981816       -26.7166
  26   2.0000      -0.913025       -24.8447
  27   2.0000      -0.910450       -24.7746
  28   2.0000      -0.876247       -23.8439
  29   2.0000      -0.848101       -23.0780
  30   2.0000      -0.843200       -22.9446
  31   2.0000      -0.817922       -22.2568
  32   2.0000      -0.779701       -21.2167
  33   2.0000      -0.770334       -20.9618
  34   2.0000      -0.714622       -19.4459
  35   2.0000      -0.703688       -19.1483
  36   2.0000      -0.695805       -18.9338
  37   2.0000      -0.660267       -17.9668
  38   2.0000      -0.643085       -17.4992
  39   2.0000      -0.618215       -16.8225
  40   2.0000      -0.594325       -16.1724
  41   2.0000      -0.577370       -15.7110
  42   2.0000      -0.570145       -15.5144
  43   2.0000      -0.559395       -15.2219
  44   2.0000      -0.524583       -14.2746
  45   2.0000      -0.517712       -14.0877
  46   2.0000      -0.516665       -14.0592
  47   2.0000      -0.511152       -13.9091
  48   2.0000      -0.508262       -13.8305
  49   2.0000      -0.502868       -13.6837
  50   2.0000      -0.491738       -13.3809
  51   2.0000      -0.474093       -12.9007
  52   2.0000      -0.470911       -12.8141
  53   2.0000      -0.468581       -12.7507
  54   2.0000      -0.461212       -12.5502
  55   2.0000      -0.451903       -12.2969
  56   2.0000      -0.443234       -12.0610
  57   2.0000      -0.435633       -11.8542
  58   2.0000      -0.434511       -11.8237
  59   2.0000      -0.428581       -11.6623
  60   2.0000      -0.416803       -11.3418
  61   2.0000      -0.413479       -11.2513
  62   2.0000      -0.410393       -11.1674
  63   2.0000      -0.339124        -9.2280
  64   2.0000      -0.327429        -8.9098
  65   2.0000      -0.316680        -8.6173
  66   2.0000      -0.312988        -8.5168
  67   0.0000       0.041617         1.1325
  68   0.0000       0.059844         1.6284
  69   0.0000       0.114157         3.1064
  70   0.0000       0.123398         3.3578
  71   0.0000       0.131031         3.5655

MULLIKEN ATOMIC CHARGES
-----------------------
   0 S :    0.102786
   1 C :   -0.116471
   2 C :   -0.036891
   3 C :    0.047845
   4 C :   -0.165931
   5 H :   -0.011222
   6 C :   -0.010844
   7 H :    0.022859
   8 H :    0.038616
   9 C :   -0.035947
  10 H :    0.037746
  11 H :    0.033347
  12 C :   -0.055773
  13 H :    0.037014
  14 H :    0.029659
  15 H :    0.038387
  16 S :    0.128177
  17 C :   -0.085779
  18 C :   -0.028952
  19 C :   -0.041866
  20 C :   -0.197707
  21 H :   -0.000467
  22 C :    0.071517
  23 H :    0.036896
  24 H :    0.023483
  25 C :   -0.019733
  26 H :    0.011040
  27 H :    0.021605
  28 C :   -0.041788
  29 H :    0.022489
  30 H :    0.013760
  31 H :    0.035649
  32 H :    0.044034
  33 H :    0.052463
Sum of atomic charges:    0.0000000

LOEWDIN ATOMIC CHARGES
----------------------
   0 S :    0.359144
   1 C :   -0.175695
   2 C :   -0.070005
   3 C :   -0.040340
   4 C :   -0.185623
   5 H :    0.016062
   6 C :   -0.036582
   7 H :    0.032073
   8 H :    0.030508
   9 C :   -0.032865
  10 H :    0.029770
  11 H :    0.020593
  12 C :   -0.057953
  13 H :    0.032434
  14 H :    0.017114
  15 H :    0.028027
  16 S :    0.440320
  17 C :   -0.192309
  18 C :   -0.076067
  19 C :   -0.049732
  20 C :   -0.226799
  21 H :    0.027308
  22 C :   -0.033614
  23 H :    0.038077
  24 H :    0.032332
  25 C :   -0.035064
  26 H :    0.018933
  27 H :    0.024455
  28 C :   -0.064506
  29 H :    0.020206
  30 H :    0.016993
  31 H :    0.031704
  32 H :    0.029022
  33 H :    0.032078

  Mayer bond orders larger than 0.100000
B(  0-S ,  1-C ) :   1.1255 B(  0-S ,  4-C ) :   1.1007 B(  1-C ,  2-C ) :   1.6611
B(  1-C , 32-H ) :   0.9588 B(  2-C ,  3-C ) :   1.1714 B(  2-C ,  6-C ) :   1.0152
B(  3-C ,  4-C ) :   1.6495 B(  3-C ,  5-H ) :   0.9925 B(  4-C , 20-C ) :   1.0326
B(  6-C ,  7-H ) :   0.9506 B(  6-C ,  8-H ) :   0.9377 B(  6-C ,  9-C ) :   1.0659
B(  9-C , 10-H ) :   0.9553 B(  9-C , 11-H ) :   0.9520 B(  9-C , 12-C ) :   1.0760
B( 12-C , 13-H ) :   0.9748 B( 12-C , 14-H ) :   0.9782 B( 12-C , 15-H ) :   0.9761
B( 16-S , 17-C ) :   1.1643 B( 16-S , 20-C ) :   1.1603 B( 17-C , 18-C ) :   1.6320
B( 17-C , 33-H ) :   0.9588 B( 18-C , 19-C ) :   1.2346 B( 18-C , 21-H ) :   1.0019
B( 19-C , 20-C ) :   1.5918 B( 19-C , 22-C ) :   1.0413 B( 22-C , 23-H ) :   0.9221
B( 22-C , 24-H ) :   0.9385 B( 22-C , 25-C ) :   1.0654 B( 25-C , 26-H ) :   0.9600
B( 25-C , 27-H ) :   0.9482 B( 25-C , 28-C ) :   1.0657 B( 28-C , 29-H ) :   0.9782
B( 28-C , 30-H ) :   0.9757 B( 28-C , 31-H ) :   0.9764

Dispersion correction           -0.014063410
FINAL SINGLE POINT ENERGY     -1339.851844314229

DIPOLE MOMENT
-------------
                                X             Y             Z
Electronic contribution:      4.06918      -7.01888     -25.32787
Nuclear contribution   :     -4.07820       6.85890      26.02997
                        -----------------------------------------
Total Dipole Moment    :     -0.00902      -0.15998       0.70210
                        -----------------------------------------
Magnitude (a.u.)       :      0.72015
Magnitude (Debye)      :      1.83048

Rotational constants in cm-1:     0.016376     0.008344     0.007185
Rotational constants in MHz :   490.942456   250.134973   215.390737

                             ****ORCA TERMINATED NORMALLY****
TOTAL RUN TIME: 0 days 0 hours 0 minutes 21 seconds 273 msec
