                         Program Version 4.2.1 -  RELEASE  -
|  1> ! wB97X-D3 SP def2-SVP
|  2> %pal
|  3> nprocs 24
|  4> end
|  5>
|  6> * xyz 0 1
|  7> S 	 -41.5545 	 -4.93561 	 19.7466
|  8> C 	 -42.5407 	 -5.54296 	 18.4159
|  9> C 	 -43.5879 	 -6.31354 	 18.9585
| 10> C 	 -43.7462 	 -6.08426 	 20.3643
| 11> C 	 -42.8831 	 -5.15022 	 20.8617
| 12> H 	 -44.4698 	 -6.60282 	 20.9033
| 13> C 	 -44.3628 	 -7.42045 	 18.0751
| 14> H 	 -44.8729 	 -8.0943 	 18.7003
| 15> H 	 -43.6746 	 -7.96438 	 17.507
| 16> C 	 -45.5105 	 -6.90045 	 17.2423
| 17> H 	 -46.2195 	 -6.30099 	 17.8976
| 18> H 	 -44.9646 	 -6.14068 	 16.6399
| 19> C 	 -46.3411 	 -7.82234 	 16.3051
| 20> H 	 -46.3255 	 -8.87876 	 16.6757
| 21> H 	 -47.4189 	 -7.4916 	 16.1038
| 22> H 	 -45.7889 	 -7.97213 	 15.3651
| 23> S 	 -41.4004 	 -5.24269 	 23.194
| 24> C 	 -42.0928 	 -4.71601 	 24.7578
| 25> C 	 -43.347 	 -4.17972 	 24.5123
| 26> C 	 -43.8173 	 -4.3423 	 23.1218
| 27> C 	 -42.7666 	 -4.68545 	 22.2614
| 28> H 	 -44.0558 	 -3.86449 	 25.2789
| 29> C 	 -45.1997 	 -3.95946 	 22.7791
| 30> H 	 -45.3972 	 -3.80163 	 21.7025
| 31> H 	 -45.4279 	 -3.08486 	 23.241
| 32> C 	 -46.1873 	 -5.02896 	 23.3714
| 33> H 	 -46.3368 	 -4.85653 	 24.4044
| 34> H 	 -45.7527 	 -6.03956 	 23.3046
| 35> C 	 -47.5511 	 -5.00573 	 22.7096
| 36> H 	 -47.4433 	 -5.09425 	 21.6279
| 37> H 	 -47.9865 	 -4.03119 	 22.8244
| 38> H 	 -48.2467 	 -5.80171 	 22.9617
| 39> H 	 -42.2117 	 -5.58211 	 17.4142
| 40> H 	 -41.6802 	 -4.81777 	 25.6811
| 41> *
| 42>
| 43>                          ****END OF INPUT****

CARTESIAN COORDINATES (ANGSTROEM)
---------------------------------
  S    -41.554500   -4.935610   19.746600
  C    -42.540700   -5.542960   18.415900
  C    -43.587900   -6.313540   18.958500
  C    -43.746200   -6.084260   20.364300
  C    -42.883100   -5.150220   20.861700
  H    -44.469800   -6.602820   20.903300
  C    -44.362800   -7.420450   18.075100
  H    -44.872900   -8.094300   18.700300
  H    -43.674600   -7.964380   17.507000
  C    -45.510500   -6.900450   17.242300
  H    -46.219500   -6.300990   17.897600
  H    -44.964600   -6.140680   16.639900
  C    -46.341100   -7.822340   16.305100
  H    -46.325500   -8.878760   16.675700
  H    -47.418900   -7.491600   16.103800
  H    -45.788900   -7.972130   15.365100
  S    -41.400400   -5.242690   23.194000
  C    -42.092800   -4.716010   24.757800
  C    -43.347000   -4.179720   24.512300
  C    -43.817300   -4.342300   23.121800
  C    -42.766600   -4.685450   22.261400
  H    -44.055800   -3.864490   25.278900
  C    -45.199700   -3.959460   22.779100
  H    -45.397200   -3.801630   21.702500
  H    -45.427900   -3.084860   23.241000
  C    -46.187300   -5.028960   23.371400
  H    -46.336800   -4.856530   24.404400
  H    -45.752700   -6.039560   23.304600
  C    -47.551100   -5.005730   22.709600
  H    -47.443300   -5.094250   21.627900
  H    -47.986500   -4.031190   22.824400
  H    -48.246700   -5.801710   22.961700
  H    -42.211700   -5.582110   17.414200
  H    -41.680200   -4.817770   25.681100

 Total Charge           Charge          ....    0
 Multiplicity           Mult            ....    1
 Number of Electrons    NEL             ....  134
 Basis Dimension        Dim             ....  322

ORBITAL ENERGIES
----------------

  NO   OCC          E(Eh)            E(eV)
   0   2.0000     -88.965062     -2420.8624
   1   2.0000     -88.964073     -2420.8355
   2   2.0000     -10.331411      -281.1320
   3   2.0000     -10.328295      -281.0472
   4   2.0000     -10.319956      -280.8203
   5   2.0000     -10.316156      -280.7169
   6   2.0000     -10.311485      -280.5898
   7   2.0000     -10.306686      -280.4592
   8   2.0000     -10.300289      -280.2851
   9   2.0000     -10.293581      -280.1026
  10   2.0000     -10.292747      -280.0799
  11   2.0000     -10.292187      -280.0647
  12   2.0000     -10.291766      -280.0532
  13   2.0000     -10.285844      -279.8920
  14   2.0000     -10.285834      -279.8918
  15   2.0000     -10.275398      -279.6078
  16   2.0000      -8.079859      -219.8641
  17   2.0000      -8.078345      -219.8230
  18   2.0000      -6.038377      -164.3126
  19   2.0000      -6.037197      -164.2805
  20   2.0000      -6.034723      -164.2132
  21   2.0000      -6.032855      -164.1623
  22   2.0000      -6.030239      -164.0911
  23   2.0000      -6.028812      -164.0523
  24   2.0000      -1.005439       -27.3594
  25   2.0000      -0.980539       -26.6818
  26   2.0000      -0.913900       -24.8685
  27   2.0000      -0.906902       -24.6781
  28   2.0000      -0.867383       -23.6027
  29   2.0000      -0.851091       -23.1594
  30   2.0000      -0.843013       -22.9396
  31   2.0000      -0.816378       -22.2148
  32   2.0000      -0.784318       -21.3424
  33   2.0000      -0.773348       -21.0439
  34   2.0000      -0.706570       -19.2268
  35   2.0000      -0.701967       -19.1015
  36   2.0000      -0.691793       -18.8247
  37   2.0000      -0.664044       -18.0696
  38   2.0000      -0.645905       -17.5760
  39   2.0000      -0.624747       -17.0002
  40   2.0000      -0.601971       -16.3805
  41   2.0000      -0.571811       -15.5598
  42   2.0000      -0.568990       -15.4830
  43   2.0000      -0.559851       -15.2343
  44   2.0000      -0.529843       -14.4177
  45   2.0000      -0.523597       -14.2478
  46   2.0000      -0.522188       -14.2095
  47   2.0000      -0.514418       -13.9980
  48   2.0000      -0.506328       -13.7779
  49   2.0000      -0.499710       -13.5978
  50   2.0000      -0.493175       -13.4200
  51   2.0000      -0.483441       -13.1551
  52   2.0000      -0.471999       -12.8437
  53   2.0000      -0.465565       -12.6687
  54   2.0000      -0.461786       -12.5658
  55   2.0000      -0.449093       -12.2205
  56   2.0000      -0.443290       -12.0625
  57   2.0000      -0.436975       -11.8907
  58   2.0000      -0.435856       -11.8603
  59   2.0000      -0.426186       -11.5971
  60   2.0000      -0.419282       -11.4093
  61   2.0000      -0.417203       -11.3527
  62   2.0000      -0.400718       -10.9041
  63   2.0000      -0.349804        -9.5186
  64   2.0000      -0.328940        -8.9509
  65   2.0000      -0.322152        -8.7662
  66   2.0000      -0.293746        -7.9932
  67   0.0000       0.025096         0.6829
  68   0.0000       0.059134         1.6091
  69   0.0000       0.095968         2.6114
  70   0.0000       0.115970         3.1557
  71   0.0000       0.125698         3.4204

MULLIKEN ATOMIC CHARGES
-----------------------
   0 S :    0.099698
   1 C :   -0.092847
   2 C :   -0.124134
   3 C :    0.066830
   4 C :   -0.150768
   5 H :   -0.015009
   6 C :    0.120252
   7 H :    0.000916
   8 H :    0.019947
   9 C :   -0.118538
  10 H :    0.036025
  11 H :    0.022408
  12 C :   -0.064384
  13 H :    0.027908
  14 H :    0.064277
  15 H :    0.032939
  16 S :    0.081801
  17 C :   -0.046193
  18 C :   -0.012716
  19 C :   -0.105231
  20 C :   -0.077971
  21 H :    0.025318
  22 C :    0.098649
  23 H :    0.036141
  24 H :    0.003000
  25 C :   -0.097065
  26 H :    0.021717
  27 H :    0.037041
  28 C :   -0.033829
  29 H :    0.018123
  30 H :    0.021572
  31 H :    0.039505
  32 H :    0.039113
  33 H :    0.025506
Sum of atomic charges:   -0.0000000

LOEWDIN ATOMIC CHARGES
----------------------
   0 S :    0.399976
   1 C :   -0.183044
   2 C :   -0.049996
   3 C :   -0.053129
   4 C :   -0.187844
   5 H :    0.021712
   6 C :   -0.018028
   7 H :    0.019657
   8 H :    0.020529
   9 C :   -0.055859
  10 H :    0.028867
  11 H :    0.021337
  12 C :   -0.081365
  13 H :    0.027141
  14 H :    0.041687
  15 H :    0.027925
  16 S :    0.387408
  17 C :   -0.153858
  18 C :   -0.063738
  19 C :   -0.047851
  20 C :   -0.205941
  21 H :    0.030450
  22 C :   -0.024422
  23 H :    0.035917
  24 H :    0.019447
  25 C :   -0.033646
  26 H :    0.016723
  27 H :    0.023831
  28 C :   -0.067282
  29 H :    0.022810
  30 H :    0.022538
  31 H :    0.027726
  32 H :    0.017968
  33 H :    0.012352

  Mayer bond orders larger than 0.100000
B(  0-S ,  1-C ) :   1.1434 B(  0-S ,  4-C ) :   1.1541 B(  1-C ,  2-C ) :   1.5891
B(  1-C ,  4-C ) :   0.1041 B(  1-C , 32-H ) :   0.9787 B(  2-C ,  3-C ) :   1.2646
B(  2-C ,  6-C ) :   1.0069 B(  3-C ,  4-C ) :   1.5393 B(  3-C ,  5-H ) :   1.0138
B(  4-C , 20-C ) :   1.0140 B(  6-C ,  7-H ) :   0.9383 B(  6-C ,  8-H ) :   0.9494
B(  6-C ,  9-C ) :   1.0553 B(  9-C , 10-H ) :   0.9601 B(  9-C , 11-H ) :   0.9638
B(  9-C , 12-C ) :   1.0600 B( 12-C , 13-H ) :   0.9756 B( 12-C , 14-H ) :   0.9759
B( 12-C , 15-H ) :   0.9733 B( 16-S , 17-C ) :   1.1394 B( 16-S , 20-C ) :   1.1255
B( 17-C , 18-C ) :   1.6145 B( 17-C , 33-H ) :   0.9848 B( 18-C , 19-C ) :   1.2201
B( 18-C , 21-H ) :   0.9807 B( 19-C , 20-C ) :   1.6106 B( 19-C , 22-C ) :   1.0769
B( 22-C , 23-H ) :   0.9490 B( 22-C , 24-H ) :   0.9236 B( 22-C , 25-C ) :   1.0273
B( 25-C , 26-H ) :   0.9521 B( 25-C , 27-H ) :   0.9647 B( 25-C , 28-C ) :   1.0911
B( 28-C , 29-H ) :   0.9743 B( 28-C , 30-H ) :   0.9687 B( 28-C , 31-H ) :   0.9737

Dispersion correction           -0.014003671
FINAL SINGLE POINT ENERGY     -1339.838126287048

DIPOLE MOMENT
-------------
                                X             Y             Z
Electronic contribution:     29.98555       7.76077      10.40303
Nuclear contribution   :    -30.70990      -8.13005     -10.34215
                        -----------------------------------------
Total Dipole Moment    :     -0.72435      -0.36928       0.06088
                        -----------------------------------------
Magnitude (a.u.)       :      0.81533
Magnitude (Debye)      :      2.07240

Rotational constants in cm-1:     0.018173     0.008533     0.006192
Rotational constants in MHz :   544.827324   255.823249   185.618897

                             ****ORCA TERMINATED NORMALLY****
TOTAL RUN TIME: 0 days 0 hours 0 minutes 21 seconds 321 msec
