                         Program Version 4.2.1 -  RELEASE  -
|  1> ! wB97X-D3 SP def2-SVP
|  2> %pal
|  3> nprocs 24
|  4> end
|  5>
|  6> * xyz 0 1
|  7> S 	 31.1525 	 -29.7811 	 -131.48
|  8> C 	 30.5095 	 -28.4059 	 -132.207
|  9> C 	 29.1407 	 -28.359 	 -131.959
| 10> C 	 28.7882 	 -29.239 	 -130.871
| 11> C 	 29.7782 	 -30.0279 	 -130.497
| 12> H 	 27.8435 	 -29.2634 	 -130.422
| 13> C 	 28.1821 	 -27.3848 	 -132.485
| 14> H 	 28.7666 	 -26.5906 	 -132.883
| 15> H 	 27.5674 	 -26.9054 	 -131.806
| 16> C 	 27.1509 	 -27.8957 	 -133.563
| 17> H 	 27.5358 	 -28.5824 	 -134.277
| 18> H 	 26.4096 	 -28.3329 	 -132.916
| 19> C 	 26.5441 	 -26.7759 	 -134.397
| 20> H 	 27.3519 	 -26.1829 	 -134.905
| 21> H 	 25.8682 	 -27.3253 	 -135.058
| 22> H 	 25.9754 	 -26.0009 	 -133.846
| 23> S 	 29.72 	 -32.7594 	 -130.557
| 24> C 	 29.4584 	 -33.6949 	 -129.079
| 25> C 	 29.3166 	 -32.7965 	 -128.001
| 26> C 	 29.5197 	 -31.4288 	 -128.36
| 27> C 	 29.7226 	 -31.2414 	 -129.698
| 28> H 	 29.2425 	 -33.247 	 -127.011
| 29> C 	 29.4319 	 -30.4752 	 -127.199
| 30> H 	 28.5486 	 -30.7149 	 -126.638
| 31> H 	 29.2707 	 -29.4847 	 -127.547
| 32> C 	 30.677 	 -30.3289 	 -126.219
| 33> H 	 30.589 	 -29.4541 	 -125.514
| 34> H 	 31.5624 	 -29.9898 	 -126.779
| 35> C 	 31.0122 	 -31.5455 	 -125.338
| 36> H 	 30.1439 	 -31.9996 	 -124.878
| 37> H 	 31.7789 	 -31.3274 	 -124.611
| 38> H 	 31.3967 	 -32.4105 	 -125.936
| 39> H 	 30.9913 	 -27.8801 	 -133.065
| 40> H 	 29.3436 	 -34.8152 	 -128.975
| 41> *
| 42>
| 43>                          ****END OF INPUT****

CARTESIAN COORDINATES (ANGSTROEM)
---------------------------------
  S     31.152500  -29.781100  -131.480000
  C     30.509500  -28.405900  -132.207000
  C     29.140700  -28.359000  -131.959000
  C     28.788200  -29.239000  -130.871000
  C     29.778200  -30.027900  -130.497000
  H     27.843500  -29.263400  -130.422000
  C     28.182100  -27.384800  -132.485000
  H     28.766600  -26.590600  -132.883000
  H     27.567400  -26.905400  -131.806000
  C     27.150900  -27.895700  -133.563000
  H     27.535800  -28.582400  -134.277000
  H     26.409600  -28.332900  -132.916000
  C     26.544100  -26.775900  -134.397000
  H     27.351900  -26.182900  -134.905000
  H     25.868200  -27.325300  -135.058000
  H     25.975400  -26.000900  -133.846000
  S     29.720000  -32.759400  -130.557000
  C     29.458400  -33.694900  -129.079000
  C     29.316600  -32.796500  -128.001000
  C     29.519700  -31.428800  -128.360000
  C     29.722600  -31.241400  -129.698000
  H     29.242500  -33.247000  -127.011000
  C     29.431900  -30.475200  -127.199000
  H     28.548600  -30.714900  -126.638000
  H     29.270700  -29.484700  -127.547000
  C     30.677000  -30.328900  -126.219000
  H     30.589000  -29.454100  -125.514000
  H     31.562400  -29.989800  -126.779000
  C     31.012200  -31.545500  -125.338000
  H     30.143900  -31.999600  -124.878000
  H     31.778900  -31.327400  -124.611000
  H     31.396700  -32.410500  -125.936000
  H     30.991300  -27.880100  -133.065000
  H     29.343600  -34.815200  -128.975000

 Total Charge           Charge          ....    0
 Multiplicity           Mult            ....    1
 Number of Electrons    NEL             ....  134
 Basis Dimension        Dim             ....  322

ORBITAL ENERGIES
----------------

  NO   OCC          E(Eh)            E(eV)
   0   2.0000     -88.965501     -2420.8744
   1   2.0000     -88.959590     -2420.7135
   2   2.0000     -10.324425      -280.9419
   3   2.0000     -10.324259      -280.9374
   4   2.0000     -10.317196      -280.7452
   5   2.0000     -10.312373      -280.6139
   6   2.0000     -10.300160      -280.2816
   7   2.0000     -10.297596      -280.2118
   8   2.0000     -10.293412      -280.0980
   9   2.0000     -10.293217      -280.0927
  10   2.0000     -10.288874      -279.9745
  11   2.0000     -10.283517      -279.8287
  12   2.0000     -10.283391      -279.8253
  13   2.0000     -10.282641      -279.8049
  14   2.0000     -10.277875      -279.6752
  15   2.0000     -10.276024      -279.6248
  16   2.0000      -8.079929      -219.8660
  17   2.0000      -8.076893      -219.7834
  18   2.0000      -6.038569      -164.3178
  19   2.0000      -6.035218      -164.2266
  20   2.0000      -6.034389      -164.2041
  21   2.0000      -6.031000      -164.1119
  22   2.0000      -6.030637      -164.1020
  23   2.0000      -6.027707      -164.0222
  24   2.0000      -1.020010       -27.7559
  25   2.0000      -0.988134       -26.8885
  26   2.0000      -0.914864       -24.8947
  27   2.0000      -0.899649       -24.4807
  28   2.0000      -0.872850       -23.7515
  29   2.0000      -0.855276       -23.2732
  30   2.0000      -0.845345       -23.0030
  31   2.0000      -0.818744       -22.2791
  32   2.0000      -0.783479       -21.3196
  33   2.0000      -0.771468       -20.9927
  34   2.0000      -0.706763       -19.2320
  35   2.0000      -0.698203       -18.9991
  36   2.0000      -0.687435       -18.7060
  37   2.0000      -0.662447       -18.0261
  38   2.0000      -0.650135       -17.6911
  39   2.0000      -0.626347       -17.0438
  40   2.0000      -0.591468       -16.0947
  41   2.0000      -0.579883       -15.7794
  42   2.0000      -0.557278       -15.1643
  43   2.0000      -0.543935       -14.8012
  44   2.0000      -0.538516       -14.6538
  45   2.0000      -0.532043       -14.4776
  46   2.0000      -0.517779       -14.0895
  47   2.0000      -0.516159       -14.0454
  48   2.0000      -0.507218       -13.8021
  49   2.0000      -0.503151       -13.6914
  50   2.0000      -0.488578       -13.2949
  51   2.0000      -0.475109       -12.9284
  52   2.0000      -0.472892       -12.8681
  53   2.0000      -0.466100       -12.6832
  54   2.0000      -0.460509       -12.5311
  55   2.0000      -0.445797       -12.1308
  56   2.0000      -0.437782       -11.9127
  57   2.0000      -0.436845       -11.8871
  58   2.0000      -0.432161       -11.7597
  59   2.0000      -0.425093       -11.5674
  60   2.0000      -0.420233       -11.4351
  61   2.0000      -0.416416       -11.3312
  62   2.0000      -0.406055       -11.0493
  63   2.0000      -0.346212        -9.4209
  64   2.0000      -0.328904        -8.9499
  65   2.0000      -0.320858        -8.7310
  66   2.0000      -0.303136        -8.2487
  67   0.0000       0.044341         1.2066
  68   0.0000       0.059699         1.6245
  69   0.0000       0.118409         3.2221
  70   0.0000       0.122434         3.3316
  71   0.0000       0.128006         3.4832

MULLIKEN ATOMIC CHARGES
-----------------------
   0 S :    0.108905
   1 C :   -0.103761
   2 C :   -0.105209
   3 C :    0.060838
   4 C :   -0.145659
   5 H :   -0.012456
   6 C :    0.081300
   7 H :   -0.004948
   8 H :    0.003129
   9 C :   -0.063240
  10 H :    0.030638
  11 H :    0.025497
  12 C :   -0.072334
  13 H :    0.039114
  14 H :    0.043414
  15 H :    0.030091
  16 S :    0.113796
  17 C :   -0.126753
  18 C :   -0.054332
  19 C :   -0.014348
  20 C :   -0.156458
  21 H :    0.025425
  22 C :    0.101995
  23 H :    0.025445
  24 H :    0.006721
  25 C :   -0.085221
  26 H :    0.032243
  27 H :    0.033017
  28 C :   -0.062379
  29 H :    0.023017
  30 H :    0.037211
  31 H :    0.035411
  32 H :    0.068460
  33 H :    0.081432
Sum of atomic charges:    0.0000000

LOEWDIN ATOMIC CHARGES
----------------------
   0 S :    0.445546
   1 C :   -0.221470
   2 C :   -0.060321
   3 C :   -0.049778
   4 C :   -0.209624
   5 H :    0.024562
   6 C :   -0.033168
   7 H :    0.022680
   8 H :    0.021572
   9 C :   -0.030151
  10 H :    0.020879
  11 H :    0.022141
  12 C :   -0.069132
  13 H :    0.029329
  14 H :    0.030605
  15 H :    0.023223
  16 S :    0.404788
  17 C :   -0.195374
  18 C :   -0.072886
  19 C :   -0.061719
  20 C :   -0.202074
  21 H :    0.032176
  22 C :   -0.025819
  23 H :    0.030282
  24 H :    0.025200
  25 C :   -0.040976
  26 H :    0.029612
  27 H :    0.027750
  28 C :   -0.076239
  29 H :    0.019484
  30 H :    0.026427
  31 H :    0.028403
  32 H :    0.038826
  33 H :    0.045246

  Mayer bond orders larger than 0.100000
B(  0-S ,  1-C ) :   1.1580 B(  0-S ,  4-C ) :   1.1619 B(  1-C ,  2-C ) :   1.5958
B(  1-C , 32-H ) :   0.9597 B(  2-C ,  3-C ) :   1.2261 B(  2-C ,  6-C ) :   1.0553
B(  3-C ,  4-C ) :   1.5973 B(  3-C ,  5-H ) :   1.0148 B(  4-C , 20-C ) :   0.9878
B(  6-C ,  7-H ) :   0.9403 B(  6-C ,  8-H ) :   0.9426 B(  6-C ,  9-C ) :   1.0385
B(  9-C , 10-H ) :   0.9633 B(  9-C , 11-H ) :   0.9576 B(  9-C , 12-C ) :   1.0834
B( 12-C , 13-H ) :   0.9747 B( 12-C , 14-H ) :   0.9761 B( 12-C , 15-H ) :   0.9748
B( 16-S , 17-C ) :   1.1508 B( 16-S , 20-C ) :   1.1441 B( 17-C , 18-C ) :   1.6134
B( 17-C , 33-H ) :   0.9594 B( 18-C , 19-C ) :   1.2306 B( 18-C , 21-H ) :   0.9848
B( 19-C , 20-C ) :   1.6279 B( 19-C , 22-C ) :   1.0436 B( 22-C , 23-H ) :   0.9402
B( 22-C , 24-H ) :   0.9244 B( 22-C , 25-C ) :   1.0697 B( 25-C , 26-H ) :   0.9588
B( 25-C , 27-H ) :   0.9537 B( 25-C , 28-C ) :   1.0799 B( 28-C , 29-H ) :   0.9740
B( 28-C , 30-H ) :   0.9721 B( 28-C , 31-H ) :   0.9697

Dispersion correction           -0.013721047
FINAL SINGLE POINT ENERGY     -1339.861419534992

DIPOLE MOMENT
-------------
                                X             Y             Z
Electronic contribution:     10.04622     -13.23959      -6.73717
Nuclear contribution   :    -10.46011      13.48685       6.89833
                        -----------------------------------------
Total Dipole Moment    :     -0.41389       0.24725       0.16116
                        -----------------------------------------
Magnitude (a.u.)       :      0.50834
Magnitude (Debye)      :      1.29210

Rotational constants in cm-1:     0.024106     0.006760     0.006335
Rotational constants in MHz :   722.694037   202.647546   189.928105

                             ****ORCA TERMINATED NORMALLY****
TOTAL RUN TIME: 0 days 0 hours 0 minutes 19 seconds 991 msec
