                         Program Version 4.2.1 -  RELEASE  -
|  1> ! wB97X-D3 SP def2-SVP
|  2> %pal
|  3> nprocs 24
|  4> end
|  5>
|  6> * xyz 0 1
|  7> S 	 41.0463 	 -32.169 	 -120.276
|  8> C 	 39.7458 	 -31.1824 	 -120.969
|  9> C 	 38.5343 	 -31.8613 	 -120.745
| 10> C 	 38.571 	 -33.0035 	 -119.943
| 11> C 	 39.8203 	 -33.1965 	 -119.491
| 12> H 	 37.7307 	 -33.722 	 -119.633
| 13> C 	 37.1227 	 -31.5382 	 -121.265
| 14> H 	 37.0162 	 -30.3852 	 -121.294
| 15> H 	 36.442 	 -32.0564 	 -120.603
| 16> C 	 36.8807 	 -32.0939 	 -122.659
| 17> H 	 35.9847 	 -31.5964 	 -123.052
| 18> H 	 37.7063 	 -31.8711 	 -123.319
| 19> C 	 36.4616 	 -33.5194 	 -122.811
| 20> H 	 37.3975 	 -34.0687 	 -122.731
| 21> H 	 35.8711 	 -33.9012 	 -122.017
| 22> H 	 36.1037 	 -33.689 	 -123.808
| 23> S 	 41.5961 	 -35.2345 	 -119.565
| 24> C 	 41.7561 	 -36.4844 	 -118.282
| 25> C 	 40.7345 	 -36.2927 	 -117.331
| 26> C 	 39.8356 	 -35.1898 	 -117.681
| 27> C 	 40.2511 	 -34.4128 	 -118.823
| 28> H 	 40.673 	 -36.8821 	 -116.414
| 29> C 	 38.7171 	 -34.7504 	 -116.746
| 30> H 	 38.6255 	 -33.658 	 -116.835
| 31> H 	 38.9058 	 -34.9476 	 -115.783
| 32> C 	 37.3851 	 -35.3852 	 -117.104
| 33> H 	 37.2755 	 -35.3426 	 -118.157
| 34> H 	 36.5777 	 -34.7065 	 -116.672
| 35> C 	 37.1262 	 -36.8128 	 -116.593
| 36> H 	 37.9848 	 -37.44 	 -117.01
| 37> H 	 36.1804 	 -37.2348 	 -117.014
| 38> H 	 37.232 	 -36.8844 	 -115.526
| 39> H 	 39.8211 	 -30.4442 	 -121.706
| 40> H 	 42.4526 	 -37.3263 	 -118.167
| 41> *
| 42>
| 43>                          ****END OF INPUT****

CARTESIAN COORDINATES (ANGSTROEM)
---------------------------------
  S     41.046300  -32.169000  -120.276000
  C     39.745800  -31.182400  -120.969000
  C     38.534300  -31.861300  -120.745000
  C     38.571000  -33.003500  -119.943000
  C     39.820300  -33.196500  -119.491000
  H     37.730700  -33.722000  -119.633000
  C     37.122700  -31.538200  -121.265000
  H     37.016200  -30.385200  -121.294000
  H     36.442000  -32.056400  -120.603000
  C     36.880700  -32.093900  -122.659000
  H     35.984700  -31.596400  -123.052000
  H     37.706300  -31.871100  -123.319000
  C     36.461600  -33.519400  -122.811000
  H     37.397500  -34.068700  -122.731000
  H     35.871100  -33.901200  -122.017000
  H     36.103700  -33.689000  -123.808000
  S     41.596100  -35.234500  -119.565000
  C     41.756100  -36.484400  -118.282000
  C     40.734500  -36.292700  -117.331000
  C     39.835600  -35.189800  -117.681000
  C     40.251100  -34.412800  -118.823000
  H     40.673000  -36.882100  -116.414000
  C     38.717100  -34.750400  -116.746000
  H     38.625500  -33.658000  -116.835000
  H     38.905800  -34.947600  -115.783000
  C     37.385100  -35.385200  -117.104000
  H     37.275500  -35.342600  -118.157000
  H     36.577700  -34.706500  -116.672000
  C     37.126200  -36.812800  -116.593000
  H     37.984800  -37.440000  -117.010000
  H     36.180400  -37.234800  -117.014000
  H     37.232000  -36.884400  -115.526000
  H     39.821100  -30.444200  -121.706000
  H     42.452600  -37.326300  -118.167000

 Total Charge           Charge          ....    0
 Multiplicity           Mult            ....    1
 Number of Electrons    NEL             ....  134
 Basis Dimension        Dim             ....  322

ORBITAL ENERGIES
----------------

  NO   OCC          E(Eh)            E(eV)
   0   2.0000     -88.973767     -2421.0993
   1   2.0000     -88.967267     -2420.9224
   2   2.0000     -10.333276      -281.1827
   3   2.0000     -10.332788      -281.1695
   4   2.0000     -10.324777      -280.9515
   5   2.0000     -10.317934      -280.7652
   6   2.0000     -10.311194      -280.5819
   7   2.0000     -10.303535      -280.3734
   8   2.0000     -10.302817      -280.3539
   9   2.0000     -10.297876      -280.2195
  10   2.0000     -10.297518      -280.2097
  11   2.0000     -10.285790      -279.8906
  12   2.0000     -10.284840      -279.8647
  13   2.0000     -10.280716      -279.7525
  14   2.0000     -10.279506      -279.7196
  15   2.0000     -10.269416      -279.4450
  16   2.0000      -8.087279      -220.0660
  17   2.0000      -8.080932      -219.8933
  18   2.0000      -6.045893      -164.5171
  19   2.0000      -6.042142      -164.4150
  20   2.0000      -6.039654      -164.3473
  21   2.0000      -6.037781      -164.2964
  22   2.0000      -6.035316      -164.2293
  23   2.0000      -6.031766      -164.1327
  24   2.0000      -1.009264       -27.4635
  25   2.0000      -0.976745       -26.5786
  26   2.0000      -0.917091       -24.9553
  27   2.0000      -0.910607       -24.7789
  28   2.0000      -0.871735       -23.7211
  29   2.0000      -0.858027       -23.3481
  30   2.0000      -0.838662       -22.8212
  31   2.0000      -0.817563       -22.2470
  32   2.0000      -0.782239       -21.2858
  33   2.0000      -0.770774       -20.9738
  34   2.0000      -0.712141       -19.3783
  35   2.0000      -0.697195       -18.9716
  36   2.0000      -0.688436       -18.7333
  37   2.0000      -0.662202       -18.0194
  38   2.0000      -0.642096       -17.4723
  39   2.0000      -0.613940       -16.7062
  40   2.0000      -0.595037       -16.1918
  41   2.0000      -0.574104       -15.6222
  42   2.0000      -0.555731       -15.1222
  43   2.0000      -0.550505       -14.9800
  44   2.0000      -0.544656       -14.8208
  45   2.0000      -0.536428       -14.5969
  46   2.0000      -0.521112       -14.1802
  47   2.0000      -0.519775       -14.1438
  48   2.0000      -0.512952       -13.9581
  49   2.0000      -0.500538       -13.6203
  50   2.0000      -0.489983       -13.3331
  51   2.0000      -0.479715       -13.0537
  52   2.0000      -0.471958       -12.8426
  53   2.0000      -0.467615       -12.7245
  54   2.0000      -0.454876       -12.3778
  55   2.0000      -0.450248       -12.2519
  56   2.0000      -0.443060       -12.0563
  57   2.0000      -0.441319       -12.0089
  58   2.0000      -0.436737       -11.8842
  59   2.0000      -0.432541       -11.7701
  60   2.0000      -0.417692       -11.3660
  61   2.0000      -0.403379       -10.9765
  62   2.0000      -0.393657       -10.7120
  63   2.0000      -0.355548        -9.6749
  64   2.0000      -0.333414        -9.0727
  65   2.0000      -0.326744        -8.8912
  66   2.0000      -0.287830        -7.8323
  67   0.0000       0.017106         0.4655
  68   0.0000       0.063396         1.7251
  69   0.0000       0.100149         2.7252
  70   0.0000       0.119278         3.2457
  71   0.0000       0.123297         3.3551

MULLIKEN ATOMIC CHARGES
-----------------------
   0 S :    0.103495
   1 C :   -0.068407
   2 C :   -0.113281
   3 C :   -0.013772
   4 C :   -0.104683
   5 H :    0.053517
   6 C :    0.058225
   7 H :    0.047846
   8 H :    0.015929
   9 C :   -0.083443
  10 H :    0.024432
  11 H :    0.024193
  12 C :   -0.015647
  13 H :    0.021438
  14 H :    0.018837
  15 H :    0.036213
  16 S :    0.094202
  17 C :   -0.102438
  18 C :   -0.037443
  19 C :   -0.070798
  20 C :   -0.157423
  21 H :    0.031969
  22 C :    0.114005
  23 H :    0.032095
  24 H :   -0.015879
  25 C :   -0.096043
  26 H :    0.018982
  27 H :    0.031490
  28 C :   -0.060040
  29 H :    0.032503
  30 H :    0.050909
  31 H :    0.031397
  32 H :    0.030240
  33 H :    0.067379
Sum of atomic charges:   -0.0000000

LOEWDIN ATOMIC CHARGES
----------------------
   0 S :    0.392603
   1 C :   -0.191944
   2 C :   -0.056924
   3 C :   -0.071035
   4 C :   -0.178513
   5 H :    0.052737
   6 C :   -0.029388
   7 H :    0.042657
   8 H :    0.025343
   9 C :   -0.046710
  10 H :    0.023703
  11 H :    0.022221
  12 C :   -0.061266
  13 H :    0.026068
  14 H :    0.018287
  15 H :    0.028565
  16 S :    0.396377
  17 C :   -0.189688
  18 C :   -0.072268
  19 C :   -0.057922
  20 C :   -0.197345
  21 H :    0.033882
  22 C :   -0.024789
  23 H :    0.037496
  24 H :    0.009863
  25 C :   -0.042640
  26 H :    0.011018
  27 H :    0.027072
  28 C :   -0.071124
  29 H :    0.031617
  30 H :    0.034094
  31 H :    0.020014
  32 H :    0.019484
  33 H :    0.038458

  Mayer bond orders larger than 0.100000
B(  0-S ,  1-C ) :   1.1124 B(  0-S ,  4-C ) :   1.1449 B(  1-C ,  2-C ) :   1.6133
B(  1-C , 32-H ) :   0.9733 B(  2-C ,  3-C ) :   1.2459 B(  2-C ,  6-C ) :   1.0194
B(  3-C ,  4-C ) :   1.5738 B(  3-C ,  5-H ) :   0.9722 B(  4-C , 20-C ) :   1.0522
B(  6-C ,  7-H ) :   0.9415 B(  6-C ,  8-H ) :   0.9424 B(  6-C ,  9-C ) :   1.0724
B(  9-C , 10-H ) :   0.9575 B(  9-C , 11-H ) :   0.9540 B(  9-C , 12-C ) :   1.0885
B( 12-C , 13-H ) :   0.9703 B( 12-C , 14-H ) :   0.9713 B( 12-C , 15-H ) :   0.9714
B( 16-S , 17-C ) :   1.1395 B( 16-S , 20-C ) :   1.1473 B( 17-C , 18-C ) :   1.6003
B( 17-C , 20-C ) :   0.1039 B( 17-C , 33-H ) :   0.9654 B( 18-C , 19-C ) :   1.2555
B( 18-C , 21-H ) :   0.9820 B( 19-C , 20-C ) :   1.5566 B( 19-C , 22-C ) :   1.0526
B( 22-C , 23-H ) :   0.9351 B( 22-C , 24-H ) :   0.9369 B( 22-C , 25-C ) :   1.0605
B( 25-C , 26-H ) :   0.9505 B( 25-C , 27-H ) :   0.9536 B( 25-C , 28-C ) :   1.0809
B( 28-C , 29-H ) :   0.9716 B( 28-C , 30-H ) :   0.9724 B( 28-C , 31-H ) :   0.9755

Dispersion correction           -0.014793360
FINAL SINGLE POINT ENERGY     -1339.842374463038

DIPOLE MOMENT
-------------
                                X             Y             Z
Electronic contribution:     26.26504       5.00821      -0.85096
Nuclear contribution   :    -26.83495      -5.14379       0.86823
                        -----------------------------------------
Total Dipole Moment    :     -0.56990      -0.13558       0.01727
                        -----------------------------------------
Magnitude (a.u.)       :      0.58606
Magnitude (Debye)      :      1.48965

Rotational constants in cm-1:     0.017818     0.009485     0.007277
Rotational constants in MHz :   534.173586   284.359866   218.166850

                             ****ORCA TERMINATED NORMALLY****
TOTAL RUN TIME: 0 days 0 hours 0 minutes 20 seconds 938 msec
