                         Program Version 4.2.1 -  RELEASE  -
|  1> ! wB97X-D3 SP def2-SVP
|  2> %pal
|  3> nprocs 24
|  4> end
|  5>
|  6> * xyz 0 1
|  7> S 	 -109.838 	 49.2656 	 -72.9294
|  8> C 	 -110.159 	 49.7997 	 -74.5858
|  9> C 	 -109.785 	 51.1749 	 -74.7265
| 10> C 	 -109.271 	 51.6605 	 -73.4985
| 11> C 	 -109.394 	 50.8359 	 -72.4154
| 12> H 	 -108.823 	 52.6716 	 -73.3588
| 13> C 	 -109.638 	 51.9353 	 -75.9256
| 14> H 	 -109.701 	 51.1756 	 -76.6928
| 15> H 	 -108.598 	 52.1912 	 -76.0232
| 16> C 	 -110.443 	 53.2561 	 -76.0149
| 17> H 	 -111.017 	 53.3996 	 -76.9188
| 18> H 	 -111.192 	 53.3323 	 -75.1736
| 19> C 	 -109.592 	 54.4937 	 -75.9253
| 20> H 	 -110.116 	 55.3338 	 -75.5445
| 21> H 	 -108.721 	 54.4025 	 -75.3091
| 22> H 	 -109.168 	 54.7785 	 -76.9353
| 23> S 	 -107.994 	 49.9821 	 -70.1671
| 24> C 	 -107.816 	 51.0315 	 -68.8147
| 25> C 	 -108.556 	 52.161 	 -68.9971
| 26> C 	 -109.205 	 52.2034 	 -70.2784
| 27> C 	 -108.973 	 51.1165 	 -71.0463
| 28> H 	 -108.716 	 52.886 	 -68.2203
| 29> C 	 -110.049 	 53.3604 	 -70.8137
| 30> H 	 -110.885 	 52.9843 	 -71.475
| 31> H 	 -109.298 	 53.7867 	 -71.4086
| 32> C 	 -110.587 	 54.3031 	 -69.6841
| 33> H 	 -109.889 	 54.9122 	 -69.1064
| 34> H 	 -111.023 	 53.6865 	 -68.9877
| 35> C 	 -111.707 	 55.2426 	 -70.178
| 36> H 	 -112.62 	 54.6783 	 -70.3343
| 37> H 	 -111.477 	 55.6524 	 -71.1246
| 38> H 	 -112.003 	 56.0223 	 -69.4507
| 39> H 	 -110.425 	 49.1718 	 -75.455
| 40> H 	 -107.253 	 50.8768 	 -67.9357
| 41> *
| 42>
| 43>                          ****END OF INPUT****

CARTESIAN COORDINATES (ANGSTROEM)
---------------------------------
  S    -109.838000   49.265600  -72.929400
  C    -110.159000   49.799700  -74.585800
  C    -109.785000   51.174900  -74.726500
  C    -109.271000   51.660500  -73.498500
  C    -109.394000   50.835900  -72.415400
  H    -108.823000   52.671600  -73.358800
  C    -109.638000   51.935300  -75.925600
  H    -109.701000   51.175600  -76.692800
  H    -108.598000   52.191200  -76.023200
  C    -110.443000   53.256100  -76.014900
  H    -111.017000   53.399600  -76.918800
  H    -111.192000   53.332300  -75.173600
  C    -109.592000   54.493700  -75.925300
  H    -110.116000   55.333800  -75.544500
  H    -108.721000   54.402500  -75.309100
  H    -109.168000   54.778500  -76.935300
  S    -107.994000   49.982100  -70.167100
  C    -107.816000   51.031500  -68.814700
  C    -108.556000   52.161000  -68.997100
  C    -109.205000   52.203400  -70.278400
  C    -108.973000   51.116500  -71.046300
  H    -108.716000   52.886000  -68.220300
  C    -110.049000   53.360400  -70.813700
  H    -110.885000   52.984300  -71.475000
  H    -109.298000   53.786700  -71.408600
  C    -110.587000   54.303100  -69.684100
  H    -109.889000   54.912200  -69.106400
  H    -111.023000   53.686500  -68.987700
  C    -111.707000   55.242600  -70.178000
  H    -112.620000   54.678300  -70.334300
  H    -111.477000   55.652400  -71.124600
  H    -112.003000   56.022300  -69.450700
  H    -110.425000   49.171800  -75.455000
  H    -107.253000   50.876800  -67.935700

 Total Charge           Charge          ....    0
 Multiplicity           Mult            ....    1
 Number of Electrons    NEL             ....  134
 Basis Dimension        Dim             ....  322

ORBITAL ENERGIES
----------------

  NO   OCC          E(Eh)            E(eV)
   0   2.0000     -88.967441     -2420.9271
   1   2.0000     -88.962054     -2420.7806
   2   2.0000     -10.325492      -280.9709
   3   2.0000     -10.321045      -280.8499
   4   2.0000     -10.318366      -280.7770
   5   2.0000     -10.312032      -280.6047
   6   2.0000     -10.299450      -280.2623
   7   2.0000     -10.297463      -280.2082
   8   2.0000     -10.293889      -280.1109
   9   2.0000     -10.291289      -280.0402
  10   2.0000     -10.290247      -280.0119
  11   2.0000     -10.290169      -280.0097
  12   2.0000     -10.286002      -279.8963
  13   2.0000     -10.282914      -279.8123
  14   2.0000     -10.276477      -279.6372
  15   2.0000     -10.274160      -279.5741
  16   2.0000      -8.082250      -219.9292
  17   2.0000      -8.077671      -219.8046
  18   2.0000      -6.040752      -164.3772
  19   2.0000      -6.036717      -164.2674
  20   2.0000      -6.036194      -164.2532
  21   2.0000      -6.033052      -164.1677
  22   2.0000      -6.032003      -164.1391
  23   2.0000      -6.028417      -164.0416
  24   2.0000      -1.014108       -27.5953
  25   2.0000      -0.990189       -26.9444
  26   2.0000      -0.923016       -25.1166
  27   2.0000      -0.907831       -24.7033
  28   2.0000      -0.873822       -23.7779
  29   2.0000      -0.857423       -23.3317
  30   2.0000      -0.846110       -23.0238
  31   2.0000      -0.819025       -22.2868
  32   2.0000      -0.783661       -21.3245
  33   2.0000      -0.771600       -20.9963
  34   2.0000      -0.713887       -19.4258
  35   2.0000      -0.708802       -19.2875
  36   2.0000      -0.699995       -19.0478
  37   2.0000      -0.655502       -17.8371
  38   2.0000      -0.641218       -17.4484
  39   2.0000      -0.621867       -16.9219
  40   2.0000      -0.595141       -16.1946
  41   2.0000      -0.575891       -15.6708
  42   2.0000      -0.570112       -15.5135
  43   2.0000      -0.556776       -15.1507
  44   2.0000      -0.538724       -14.6594
  45   2.0000      -0.530827       -14.4445
  46   2.0000      -0.525310       -14.2944
  47   2.0000      -0.516986       -14.0679
  48   2.0000      -0.507303       -13.8044
  49   2.0000      -0.493750       -13.4356
  50   2.0000      -0.491152       -13.3649
  51   2.0000      -0.481373       -13.0988
  52   2.0000      -0.473537       -12.8856
  53   2.0000      -0.466857       -12.7038
  54   2.0000      -0.461581       -12.5602
  55   2.0000      -0.452774       -12.3206
  56   2.0000      -0.444781       -12.1031
  57   2.0000      -0.438841       -11.9415
  58   2.0000      -0.432866       -11.7789
  59   2.0000      -0.426245       -11.5987
  60   2.0000      -0.423272       -11.5178
  61   2.0000      -0.417738       -11.3672
  62   2.0000      -0.409340       -11.1387
  63   2.0000      -0.350559        -9.5392
  64   2.0000      -0.329210        -8.9582
  65   2.0000      -0.326885        -8.8950
  66   2.0000      -0.290902        -7.9159
  67   0.0000       0.031482         0.8567
  68   0.0000       0.075414         2.0521
  69   0.0000       0.110077         2.9953
  70   0.0000       0.124444         3.3863
  71   0.0000       0.133487         3.6324

MULLIKEN ATOMIC CHARGES
-----------------------
   0 S :    0.113068
   1 C :   -0.127266
   2 C :   -0.112365
   3 C :   -0.010814
   4 C :   -0.144862
   5 H :    0.024975
   6 C :    0.098737
   7 H :    0.001447
   8 H :    0.030692
   9 C :   -0.055304
  10 H :    0.034572
  11 H :    0.045445
  12 C :   -0.068435
  13 H :    0.027273
  14 H :    0.019231
  15 H :    0.034670
  16 S :    0.105820
  17 C :   -0.056097
  18 C :   -0.040296
  19 C :   -0.084596
  20 C :   -0.136141
  21 H :    0.012567
  22 C :    0.062940
  23 H :    0.061200
  24 H :    0.032217
  25 C :   -0.058602
  26 H :    0.033526
  27 H :    0.012509
  28 C :   -0.036278
  29 H :    0.022971
  30 H :    0.020338
  31 H :    0.036040
  32 H :    0.060522
  33 H :    0.040295
Sum of atomic charges:    0.0000000

LOEWDIN ATOMIC CHARGES
----------------------
   0 S :    0.418907
   1 C :   -0.206617
   2 C :   -0.061690
   3 C :   -0.069012
   4 C :   -0.203768
   5 H :    0.034890
   6 C :   -0.039090
   7 H :    0.031817
   8 H :    0.038479
   9 C :   -0.040408
  10 H :    0.028360
  11 H :    0.032672
  12 C :   -0.067551
  13 H :    0.022644
  14 H :    0.015551
  15 H :    0.030289
  16 S :    0.414489
  17 C :   -0.182778
  18 C :   -0.075011
  19 C :   -0.055848
  20 C :   -0.209465
  21 H :    0.028673
  22 C :   -0.025963
  23 H :    0.044387
  24 H :    0.026196
  25 C :   -0.038086
  26 H :    0.025072
  27 H :    0.013888
  28 C :   -0.062335
  29 H :    0.023730
  30 H :    0.016645
  31 H :    0.029750
  32 H :    0.034908
  33 H :    0.026277

  Mayer bond orders larger than 0.100000
B(  0-S ,  1-C ) :   1.1447 B(  0-S ,  4-C ) :   1.1590 B(  1-C ,  2-C ) :   1.5649
B(  1-C ,  4-C ) :   0.1012 B(  1-C , 32-H ) :   0.9620 B(  2-C ,  3-C ) :   1.2614
B(  2-C ,  6-C ) :   1.0603 B(  3-C ,  4-C ) :   1.5572 B(  3-C ,  5-H ) :   0.9833
B(  4-C , 20-C ) :   1.0336 B(  6-C ,  7-H ) :   0.9257 B(  6-C ,  8-H ) :   0.9445
B(  6-C ,  9-C ) :   1.0031 B(  9-C , 10-H ) :   0.9574 B(  9-C , 11-H ) :   0.9708
B(  9-C , 12-C ) :   1.0756 B( 12-C , 13-H ) :   0.9737 B( 12-C , 14-H ) :   0.9758
B( 12-C , 15-H ) :   0.9744 B( 16-S , 17-C ) :   1.1647 B( 16-S , 20-C ) :   1.1221
B( 17-C , 18-C ) :   1.5952 B( 17-C , 33-H ) :   0.9697 B( 18-C , 19-C ) :   1.2495
B( 18-C , 21-H ) :   0.9924 B( 19-C , 20-C ) :   1.6363 B( 19-C , 22-C ) :   1.0111
B( 22-C , 23-H ) :   0.9394 B( 22-C , 24-H ) :   0.9232 B( 22-C , 25-C ) :   1.0602
B( 25-C , 26-H ) :   0.9511 B( 25-C , 27-H ) :   0.9602 B( 25-C , 28-C ) :   1.0875
B( 28-C , 29-H ) :   0.9757 B( 28-C , 30-H ) :   0.9754 B( 28-C , 31-H ) :   0.9744

Dispersion correction           -0.014074697
FINAL SINGLE POINT ENERGY     -1339.861545587032

DIPOLE MOMENT
-------------
                                X             Y             Z
Electronic contribution:      9.40642     -28.56181       9.53507
Nuclear contribution   :     -9.43377      29.26535      -9.72526
                        -----------------------------------------
Total Dipole Moment    :     -0.02735       0.70355      -0.19018
                        -----------------------------------------
Magnitude (a.u.)       :      0.72931
Magnitude (Debye)      :      1.85376

Rotational constants in cm-1:     0.015675     0.010151     0.006870
Rotational constants in MHz :   469.929524   304.306629   205.945814

                             ****ORCA TERMINATED NORMALLY****
TOTAL RUN TIME: 0 days 0 hours 0 minutes 20 seconds 767 msec
