                         Program Version 4.2.1 -  RELEASE  -
|  1> ! wB97X-D3 SP def2-SVP
|  2> %pal
|  3> nprocs 24
|  4> end
|  5>
|  6> * xyz 0 1
|  7> S 	 -133.467 	 27.7283 	 -17.6653
|  8> C 	 -133.844 	 28.2328 	 -15.9977
|  9> C 	 -133.429 	 27.2222 	 -15.1104
| 10> C 	 -132.829 	 26.1109 	 -15.7203
| 11> C 	 -132.606 	 26.2653 	 -17.079
| 12> H 	 -132.424 	 25.2303 	 -15.2497
| 13> C 	 -133.655 	 27.2738 	 -13.6401
| 14> H 	 -133.967 	 26.2363 	 -13.3827
| 15> H 	 -134.442 	 27.9724 	 -13.4405
| 16> C 	 -132.545 	 27.6873 	 -12.7745
| 17> H 	 -132.209 	 28.6813 	 -13.1523
| 18> H 	 -133.003 	 27.7244 	 -11.7572
| 19> C 	 -131.337 	 26.7472 	 -12.7239
| 20> H 	 -130.515 	 27.1098 	 -12.0401
| 21> H 	 -131.529 	 25.7503 	 -12.4243
| 22> H 	 -130.943 	 26.6864 	 -13.7369
| 23> S 	 -130.738 	 26.1889 	 -19.087
| 24> C 	 -130.254 	 24.6917 	 -19.791
| 25> C 	 -130.956 	 23.6666 	 -19.1802
| 26> C 	 -131.804 	 24.0171 	 -18.1048
| 27> C 	 -131.834 	 25.4031 	 -17.9659
| 28> H 	 -130.748 	 22.6967 	 -19.5742
| 29> C 	 -132.61 	 22.9181 	 -17.3508
| 30> H 	 -133.475 	 22.6705 	 -17.948
| 31> H 	 -132.997 	 23.2649 	 -16.4088
| 32> C 	 -131.792 	 21.6456 	 -17.0905
| 33> H 	 -130.784 	 21.9203 	 -16.9252
| 34> H 	 -131.67 	 21.1194 	 -18.0291
| 35> C 	 -132.196 	 20.897 	 -15.8
| 36> H 	 -133.223 	 20.4656 	 -15.9124
| 37> H 	 -132.189 	 21.569 	 -14.9964
| 38> H 	 -131.446 	 20.0448 	 -15.6275
| 39> H 	 -134.33 	 29.1457 	 -15.7757
| 40> H 	 -129.724 	 24.5569 	 -20.7146
| 41> *
| 42>
| 43>                          ****END OF INPUT****

CARTESIAN COORDINATES (ANGSTROEM)
---------------------------------
  S    -133.467000   27.728300  -17.665300
  C    -133.844000   28.232800  -15.997700
  C    -133.429000   27.222200  -15.110400
  C    -132.829000   26.110900  -15.720300
  C    -132.606000   26.265300  -17.079000
  H    -132.424000   25.230300  -15.249700
  C    -133.655000   27.273800  -13.640100
  H    -133.967000   26.236300  -13.382700
  H    -134.442000   27.972400  -13.440500
  C    -132.545000   27.687300  -12.774500
  H    -132.209000   28.681300  -13.152300
  H    -133.003000   27.724400  -11.757200
  C    -131.337000   26.747200  -12.723900
  H    -130.515000   27.109800  -12.040100
  H    -131.529000   25.750300  -12.424300
  H    -130.943000   26.686400  -13.736900
  S    -130.738000   26.188900  -19.087000
  C    -130.254000   24.691700  -19.791000
  C    -130.956000   23.666600  -19.180200
  C    -131.804000   24.017100  -18.104800
  C    -131.834000   25.403100  -17.965900
  H    -130.748000   22.696700  -19.574200
  C    -132.610000   22.918100  -17.350800
  H    -133.475000   22.670500  -17.948000
  H    -132.997000   23.264900  -16.408800
  C    -131.792000   21.645600  -17.090500
  H    -130.784000   21.920300  -16.925200
  H    -131.670000   21.119400  -18.029100
  C    -132.196000   20.897000  -15.800000
  H    -133.223000   20.465600  -15.912400
  H    -132.189000   21.569000  -14.996400
  H    -131.446000   20.044800  -15.627500
  H    -134.330000   29.145700  -15.775700
  H    -129.724000   24.556900  -20.714600

 Total Charge           Charge          ....    0
 Multiplicity           Mult            ....    1
 Number of Electrons    NEL             ....  134
 Basis Dimension        Dim             ....  322

ORBITAL ENERGIES
----------------

  NO   OCC          E(Eh)            E(eV)
   0   2.0000     -88.966321     -2420.8967
   1   2.0000     -88.966113     -2420.8910
   2   2.0000     -10.333618      -281.1920
   3   2.0000     -10.329691      -281.0852
   4   2.0000     -10.316522      -280.7268
   5   2.0000     -10.313553      -280.6461
   6   2.0000     -10.308253      -280.5018
   7   2.0000     -10.300134      -280.2809
   8   2.0000     -10.294482      -280.1271
   9   2.0000     -10.292242      -280.0662
  10   2.0000     -10.290212      -280.0109
  11   2.0000     -10.288741      -279.9709
  12   2.0000     -10.286402      -279.9072
  13   2.0000     -10.283706      -279.8339
  14   2.0000     -10.282681      -279.8060
  15   2.0000     -10.274575      -279.5854
  16   2.0000      -8.081326      -219.9041
  17   2.0000      -8.079502      -219.8544
  18   2.0000      -6.039797      -164.3512
  19   2.0000      -6.038072      -164.3043
  20   2.0000      -6.035616      -164.2375
  21   2.0000      -6.034162      -164.1979
  22   2.0000      -6.032284      -164.1468
  23   2.0000      -6.030314      -164.0932
  24   2.0000      -1.006147       -27.3787
  25   2.0000      -0.982892       -26.7458
  26   2.0000      -0.920296       -25.0425
  27   2.0000      -0.911307       -24.7979
  28   2.0000      -0.868590       -23.6355
  29   2.0000      -0.851858       -23.1802
  30   2.0000      -0.843059       -22.9408
  31   2.0000      -0.816244       -22.2111
  32   2.0000      -0.785682       -21.3795
  33   2.0000      -0.774890       -21.0858
  34   2.0000      -0.709580       -19.3087
  35   2.0000      -0.704283       -19.1645
  36   2.0000      -0.696367       -18.9491
  37   2.0000      -0.656562       -17.8660
  38   2.0000      -0.642281       -17.4773
  39   2.0000      -0.619785       -16.8652
  40   2.0000      -0.599393       -16.3103
  41   2.0000      -0.578193       -15.7334
  42   2.0000      -0.568719       -15.4756
  43   2.0000      -0.550098       -14.9689
  44   2.0000      -0.541371       -14.7315
  45   2.0000      -0.525656       -14.3038
  46   2.0000      -0.516928       -14.0663
  47   2.0000      -0.515117       -14.0171
  48   2.0000      -0.507177       -13.8010
  49   2.0000      -0.500167       -13.6102
  50   2.0000      -0.490714       -13.3530
  51   2.0000      -0.485699       -13.2165
  52   2.0000      -0.480926       -13.0867
  53   2.0000      -0.463694       -12.6178
  54   2.0000      -0.460898       -12.5417
  55   2.0000      -0.450008       -12.2454
  56   2.0000      -0.440725       -11.9927
  57   2.0000      -0.436505       -11.8779
  58   2.0000      -0.432710       -11.7746
  59   2.0000      -0.428051       -11.6479
  60   2.0000      -0.419468       -11.4143
  61   2.0000      -0.412043       -11.2123
  62   2.0000      -0.409465       -11.1421
  63   2.0000      -0.348293        -9.4775
  64   2.0000      -0.334059        -9.0902
  65   2.0000      -0.329847        -8.9756
  66   2.0000      -0.288252        -7.8437
  67   0.0000       0.022344         0.6080
  68   0.0000       0.071744         1.9522
  69   0.0000       0.106247         2.8911
  70   0.0000       0.123386         3.3575
  71   0.0000       0.128333         3.4921

MULLIKEN ATOMIC CHARGES
-----------------------
   0 S :    0.098487
   1 C :   -0.118681
   2 C :   -0.088034
   3 C :    0.033491
   4 C :   -0.150865
   5 H :    0.011445
   6 C :    0.079746
   7 H :    0.022086
   8 H :    0.012947
   9 C :   -0.055560
  10 H :    0.029469
  11 H :    0.036449
  12 C :   -0.063387
  13 H :    0.043239
  14 H :    0.013895
  15 H :    0.038621
  16 S :    0.115668
  17 C :   -0.085395
  18 C :   -0.058382
  19 C :   -0.022911
  20 C :   -0.179678
  21 H :    0.007643
  22 C :    0.128255
  23 H :    0.042161
  24 H :   -0.005023
  25 C :   -0.107275
  26 H :    0.020114
  27 H :    0.030456
  28 C :   -0.046312
  29 H :    0.041266
  30 H :    0.028358
  31 H :    0.050174
  32 H :    0.039060
  33 H :    0.058474
Sum of atomic charges:   -0.0000000

LOEWDIN ATOMIC CHARGES
----------------------
   0 S :    0.375061
   1 C :   -0.184690
   2 C :   -0.061677
   3 C :   -0.065664
   4 C :   -0.172472
   5 H :    0.029668
   6 C :   -0.036481
   7 H :    0.033371
   8 H :    0.029428
   9 C :   -0.041445
  10 H :    0.029453
  11 H :    0.029642
  12 C :   -0.072021
  13 H :    0.034523
  14 H :    0.014280
  15 H :    0.026544
  16 S :    0.422473
  17 C :   -0.197997
  18 C :   -0.071075
  19 C :   -0.052893
  20 C :   -0.200528
  21 H :    0.024981
  22 C :   -0.019956
  23 H :    0.035854
  24 H :    0.020849
  25 C :   -0.048038
  26 H :    0.020062
  27 H :    0.022126
  28 C :   -0.058846
  29 H :    0.028493
  30 H :    0.016418
  31 H :    0.038301
  32 H :    0.020911
  33 H :    0.031340

  Mayer bond orders larger than 0.100000
B(  0-S ,  1-C ) :   1.1267 B(  0-S ,  4-C ) :   1.1511 B(  1-C ,  2-C ) :   1.5801
B(  1-C ,  4-C ) :   0.1084 B(  1-C , 32-H ) :   0.9798 B(  2-C ,  3-C ) :   1.2497
B(  2-C ,  6-C ) :   1.0265 B(  3-C ,  4-C ) :   1.5637 B(  3-C ,  5-H ) :   0.9882
B(  4-C , 20-C ) :   1.0570 B(  6-C ,  7-H ) :   0.9332 B(  6-C ,  8-H ) :   0.9324
B(  6-C ,  9-C ) :   1.0884 B(  9-C , 10-H ) :   0.9465 B(  9-C , 11-H ) :   0.9520
B(  9-C , 12-C ) :   1.0866 B( 12-C , 13-H ) :   0.9722 B( 12-C , 14-H ) :   0.9734
B( 12-C , 15-H ) :   0.9698 B( 16-S , 17-C ) :   1.1570 B( 16-S , 20-C ) :   1.1605
B( 17-C , 18-C ) :   1.6036 B( 17-C , 20-C ) :   0.1030 B( 17-C , 33-H ) :   0.9656
B( 18-C , 19-C ) :   1.2533 B( 18-C , 21-H ) :   0.9898 B( 19-C , 20-C ) :   1.5693
B( 19-C , 22-C ) :   1.0324 B( 22-C , 23-H ) :   0.9283 B( 22-C , 24-H ) :   0.9386
B( 22-C , 25-C ) :   1.0530 B( 25-C , 26-H ) :   0.9626 B( 25-C , 27-H ) :   0.9500
B( 25-C , 28-C ) :   1.0772 B( 28-C , 29-H ) :   0.9764 B( 28-C , 30-H ) :   0.9736
B( 28-C , 31-H ) :   0.9750

Dispersion correction           -0.013989359
FINAL SINGLE POINT ENERGY     -1339.877546136994

DIPOLE MOMENT
-------------
                                X             Y             Z
Electronic contribution:     -0.32061      16.51174     -23.00712
Nuclear contribution   :      0.27775     -17.02425      23.36280
                        -----------------------------------------
Total Dipole Moment    :     -0.04286      -0.51251       0.35568
                        -----------------------------------------
Magnitude (a.u.)       :      0.62531
Magnitude (Debye)      :      1.58940

Rotational constants in cm-1:     0.016181     0.009393     0.006940
Rotational constants in MHz :   485.087319   281.583950   208.045287

                             ****ORCA TERMINATED NORMALLY****
TOTAL RUN TIME: 0 days 0 hours 0 minutes 20 seconds 490 msec
