                         Program Version 4.2.1 -  RELEASE  -
|  1> ! wB97X-D3 SP def2-SVP
|  2> %pal
|  3> nprocs 24
|  4> end
|  5>
|  6> * xyz 0 1
|  7> S 	 -108.524 	 61.8396 	 -7.9516
|  8> C 	 -107.664 	 61.9318 	 -6.41948
|  9> C 	 -108.23 	 62.802 	 -5.55588
| 10> C 	 -109.451 	 63.3672 	 -6.03882
| 11> C 	 -109.771 	 62.9168 	 -7.31475
| 12> H 	 -110.03 	 64.1377 	 -5.58083
| 13> C 	 -107.843 	 63.0131 	 -4.09763
| 14> H 	 -108.382 	 63.9436 	 -3.86413
| 15> H 	 -106.782 	 63.2173 	 -4.06912
| 16> C 	 -108.393 	 61.9638 	 -3.1572
| 17> H 	 -109.388 	 61.6674 	 -3.50338
| 18> H 	 -107.72 	 61.0925 	 -3.31132
| 19> C 	 -108.259 	 62.4172 	 -1.67132
| 20> H 	 -107.17 	 62.3709 	 -1.39186
| 21> H 	 -108.659 	 63.4105 	 -1.35723
| 22> H 	 -108.771 	 61.6712 	 -1.0979
| 23> S 	 -110.971 	 63.6735 	 -9.66806
| 24> C 	 -112.732 	 63.7331 	 -9.69197
| 25> C 	 -113.316 	 63.4388 	 -8.4708
| 26> C 	 -112.316 	 63.013 	 -7.52161
| 27> C 	 -111.043 	 63.2149 	 -8.03915
| 28> H 	 -114.388 	 63.5386 	 -8.25554
| 29> C 	 -112.684 	 62.5267 	 -6.15525
| 30> H 	 -111.838 	 62.3203 	 -5.57489
| 31> H 	 -113.097 	 61.5438 	 -6.24126
| 32> C 	 -113.594 	 63.4944 	 -5.37822
| 33> H 	 -114.612 	 63.4817 	 -5.82594
| 34> H 	 -113.347 	 64.5607 	 -5.3975
| 35> C 	 -113.761 	 63.0737 	 -3.94374
| 36> H 	 -114.254 	 62.1119 	 -3.6782
| 37> H 	 -114.403 	 63.8309 	 -3.49434
| 38> H 	 -112.89 	 63.0484 	 -3.35819
| 39> H 	 -106.704 	 61.4384 	 -6.24935
| 40> H 	 -113.278 	 64.0331 	 -10.5659
| 41> *
| 42>
| 43>                          ****END OF INPUT****

CARTESIAN COORDINATES (ANGSTROEM)
---------------------------------
  S    -108.524000   61.839600   -7.951600
  C    -107.664000   61.931800   -6.419480
  C    -108.230000   62.802000   -5.555880
  C    -109.451000   63.367200   -6.038820
  C    -109.771000   62.916800   -7.314750
  H    -110.030000   64.137700   -5.580830
  C    -107.843000   63.013100   -4.097630
  H    -108.382000   63.943600   -3.864130
  H    -106.782000   63.217300   -4.069120
  C    -108.393000   61.963800   -3.157200
  H    -109.388000   61.667400   -3.503380
  H    -107.720000   61.092500   -3.311320
  C    -108.259000   62.417200   -1.671320
  H    -107.170000   62.370900   -1.391860
  H    -108.659000   63.410500   -1.357230
  H    -108.771000   61.671200   -1.097900
  S    -110.971000   63.673500   -9.668060
  C    -112.732000   63.733100   -9.691970
  C    -113.316000   63.438800   -8.470800
  C    -112.316000   63.013000   -7.521610
  C    -111.043000   63.214900   -8.039150
  H    -114.388000   63.538600   -8.255540
  C    -112.684000   62.526700   -6.155250
  H    -111.838000   62.320300   -5.574890
  H    -113.097000   61.543800   -6.241260
  C    -113.594000   63.494400   -5.378220
  H    -114.612000   63.481700   -5.825940
  H    -113.347000   64.560700   -5.397500
  C    -113.761000   63.073700   -3.943740
  H    -114.254000   62.111900   -3.678200
  H    -114.403000   63.830900   -3.494340
  H    -112.890000   63.048400   -3.358190
  H    -106.704000   61.438400   -6.249350
  H    -113.278000   64.033100  -10.565900

 Total Charge           Charge          ....    0
 Multiplicity           Mult            ....    1
 Number of Electrons    NEL             ....  134
 Basis Dimension        Dim             ....  322

ORBITAL ENERGIES
----------------

  NO   OCC          E(Eh)            E(eV)
   0   2.0000     -88.967659     -2420.9331
   1   2.0000     -88.963936     -2420.8318
   2   2.0000     -10.328522      -281.0534
   3   2.0000     -10.321154      -280.8529
   4   2.0000     -10.316669      -280.7308
   5   2.0000     -10.308984      -280.5217
   6   2.0000     -10.300066      -280.2790
   7   2.0000     -10.297279      -280.2032
   8   2.0000     -10.293303      -280.0950
   9   2.0000     -10.291803      -280.0542
  10   2.0000     -10.290919      -280.0301
  11   2.0000     -10.288998      -279.9779
  12   2.0000     -10.286969      -279.9227
  13   2.0000     -10.286231      -279.9026
  14   2.0000     -10.281923      -279.7853
  15   2.0000     -10.274247      -279.5765
  16   2.0000      -8.083238      -219.9561
  17   2.0000      -8.078353      -219.8232
  18   2.0000      -6.041608      -164.4005
  19   2.0000      -6.037781      -164.2964
  20   2.0000      -6.036877      -164.2718
  21   2.0000      -6.033961      -164.1924
  22   2.0000      -6.033012      -164.1666
  23   2.0000      -6.029030      -164.0582
  24   2.0000      -1.006332       -27.3837
  25   2.0000      -0.983902       -26.7733
  26   2.0000      -0.914581       -24.8870
  27   2.0000      -0.910858       -24.7857
  28   2.0000      -0.863874       -23.5072
  29   2.0000      -0.856698       -23.3119
  30   2.0000      -0.844760       -22.9871
  31   2.0000      -0.813041       -22.1240
  32   2.0000      -0.782708       -21.2986
  33   2.0000      -0.770715       -20.9722
  34   2.0000      -0.708291       -19.2736
  35   2.0000      -0.700495       -19.0614
  36   2.0000      -0.693155       -18.8617
  37   2.0000      -0.660257       -17.9665
  38   2.0000      -0.639247       -17.3948
  39   2.0000      -0.618339       -16.8259
  40   2.0000      -0.600827       -16.3493
  41   2.0000      -0.564297       -15.3553
  42   2.0000      -0.563124       -15.3234
  43   2.0000      -0.557335       -15.1659
  44   2.0000      -0.533918       -14.5286
  45   2.0000      -0.522917       -14.2293
  46   2.0000      -0.520191       -14.1551
  47   2.0000      -0.508243       -13.8300
  48   2.0000      -0.501791       -13.6544
  49   2.0000      -0.496066       -13.4987
  50   2.0000      -0.486876       -13.2486
  51   2.0000      -0.483312       -13.1516
  52   2.0000      -0.469743       -12.7824
  53   2.0000      -0.467225       -12.7138
  54   2.0000      -0.458808       -12.4848
  55   2.0000      -0.455031       -12.3820
  56   2.0000      -0.444259       -12.0889
  57   2.0000      -0.442962       -12.0536
  58   2.0000      -0.440589       -11.9890
  59   2.0000      -0.427154       -11.6235
  60   2.0000      -0.416785       -11.3413
  61   2.0000      -0.413966       -11.2646
  62   2.0000      -0.413023       -11.2389
  63   2.0000      -0.342931        -9.3316
  64   2.0000      -0.331386        -9.0175
  65   2.0000      -0.330013        -8.9801
  66   2.0000      -0.291734        -7.9385
  67   0.0000       0.036380         0.9900
  68   0.0000       0.074522         2.0278
  69   0.0000       0.106847         2.9075
  70   0.0000       0.123218         3.3529
  71   0.0000       0.128234         3.4894

MULLIKEN ATOMIC CHARGES
-----------------------
   0 S :    0.103881
   1 C :   -0.141178
   2 C :   -0.081370
   3 C :    0.013756
   4 C :   -0.141082
   5 H :    0.010879
   6 C :    0.065313
   7 H :    0.010100
   8 H :    0.028859
   9 C :   -0.063200
  10 H :    0.037211
  11 H :    0.030118
  12 C :   -0.056907
  13 H :    0.040028
  14 H :    0.043368
  15 H :    0.031927
  16 S :    0.121509
  17 C :   -0.092125
  18 C :   -0.033110
  19 C :   -0.057346
  20 C :   -0.167242
  21 H :    0.032258
  22 C :    0.149968
  23 H :   -0.009227
  24 H :    0.023747
  25 C :   -0.097855
  26 H :    0.029498
  27 H :    0.037906
  28 C :   -0.039724
  29 H :    0.030886
  30 H :    0.024393
  31 H :    0.015718
  32 H :    0.049026
  33 H :    0.050015
Sum of atomic charges:    0.0000000

LOEWDIN ATOMIC CHARGES
----------------------
   0 S :    0.386311
   1 C :   -0.197862
   2 C :   -0.068009
   3 C :   -0.064660
   4 C :   -0.180244
   5 H :    0.028966
   6 C :   -0.032467
   7 H :    0.027245
   8 H :    0.027129
   9 C :   -0.038167
  10 H :    0.024992
  11 H :    0.029370
  12 C :   -0.069713
  13 H :    0.033563
  14 H :    0.027771
  15 H :    0.023328
  16 S :    0.423965
  17 C :   -0.178281
  18 C :   -0.065180
  19 C :   -0.051395
  20 C :   -0.222213
  21 H :    0.036565
  22 C :   -0.028984
  23 H :    0.019995
  24 H :    0.035663
  25 C :   -0.039523
  26 H :    0.026389
  27 H :    0.029567
  28 C :   -0.069450
  29 H :    0.029069
  30 H :    0.028709
  31 H :    0.014759
  32 H :    0.030163
  33 H :    0.022630

  Mayer bond orders larger than 0.100000
B(  0-S ,  1-C ) :   1.1217 B(  0-S ,  4-C ) :   1.1523 B(  1-C ,  2-C ) :   1.6387
B(  1-C , 32-H ) :   0.9666 B(  2-C ,  3-C ) :   1.2242 B(  2-C ,  6-C ) :   1.0251
B(  3-C ,  4-C ) :   1.5873 B(  3-C ,  5-H ) :   0.9998 B(  4-C , 20-C ) :   1.0104
B(  6-C ,  7-H ) :   0.9402 B(  6-C ,  8-H ) :   0.9369 B(  6-C ,  9-C ) :   1.0604
B(  9-C , 10-H ) :   0.9572 B(  9-C , 11-H ) :   0.9515 B(  9-C , 12-C ) :   1.0696
B( 12-C , 13-H ) :   0.9742 B( 12-C , 14-H ) :   0.9781 B( 12-C , 15-H ) :   0.9753
B( 16-S , 17-C ) :   1.1500 B( 16-S , 20-C ) :   1.1526 B( 17-C , 18-C ) :   1.6156
B( 17-C , 33-H ) :   0.9702 B( 18-C , 19-C ) :   1.2277 B( 18-C , 21-H ) :   0.9865
B( 19-C , 20-C ) :   1.6009 B( 19-C , 22-C ) :   1.0508 B( 22-C , 23-H ) :   0.9276
B( 22-C , 24-H ) :   0.9121 B( 22-C , 25-C ) :   1.0547 B( 25-C , 26-H ) :   0.9466
B( 25-C , 27-H ) :   0.9600 B( 25-C , 28-C ) :   1.0944 B( 28-C , 29-H ) :   0.9721
B( 28-C , 30-H ) :   0.9712 B( 28-C , 31-H ) :   0.9735

Dispersion correction           -0.014396531
FINAL SINGLE POINT ENERGY     -1339.884896962916

DIPOLE MOMENT
-------------
                                X             Y             Z
Electronic contribution:      7.15096       0.35010     -33.06480
Nuclear contribution   :     -7.46904      -0.30085      33.75170
                        -----------------------------------------
Total Dipole Moment    :     -0.31808       0.04925       0.68689
                        -----------------------------------------
Magnitude (a.u.)       :      0.75857
Magnitude (Debye)      :      1.92813

Rotational constants in cm-1:     0.017346     0.009680     0.006555
Rotational constants in MHz :   520.032934   290.213919   196.520855

                             ****ORCA TERMINATED NORMALLY****
TOTAL RUN TIME: 0 days 0 hours 0 minutes 22 seconds 51 msec
