                         Program Version 4.2.1 -  RELEASE  -
|  1> ! wB97X-D3 SP def2-SVP
|  2> %pal
|  3> nprocs 24
|  4> end
|  5>
|  6> * xyz 0 1
|  7> S 	 -111.301 	 55.3389 	 -77.3061
|  8> C 	 -111.886 	 54.3197 	 -78.593
|  9> C 	 -111.975 	 54.9262 	 -79.8141
| 10> C 	 -111.404 	 56.2783 	 -79.7371
| 11> C 	 -110.99 	 56.6375 	 -78.4517
| 12> H 	 -111.32 	 56.9757 	 -80.5588
| 13> C 	 -112.323 	 54.3347 	 -81.1816
| 14> H 	 -112.617 	 55.1898 	 -81.8361
| 15> H 	 -113.171 	 53.7743 	 -81.2001
| 16> C 	 -111.152 	 53.5907 	 -81.8312
| 17> H 	 -111.335 	 53.4751 	 -82.9171
| 18> H 	 -110.203 	 54.1385 	 -81.8099
| 19> C 	 -110.772 	 52.2728 	 -81.1924
| 20> H 	 -110.053 	 51.647 	 -81.8154
| 21> H 	 -110.221 	 52.5019 	 -80.3078
| 22> H 	 -111.59 	 51.5902 	 -80.9773
| 23> S 	 -108.862 	 57.8593 	 -77.3341
| 24> C 	 -108.703 	 59.5786 	 -77.402
| 25> C 	 -109.821 	 60.1637 	 -77.8983
| 26> C 	 -110.75 	 59.2062 	 -78.4357
| 27> C 	 -110.417 	 57.9337 	 -77.9938
| 28> H 	 -109.828 	 61.1815 	 -77.9017
| 29> C 	 -111.958 	 59.591 	 -79.3293
| 30> H 	 -111.782 	 59.0062 	 -80.209
| 31> H 	 -111.992 	 60.6479 	 -79.4492
| 32> C 	 -113.292 	 59.3296 	 -78.5498
| 33> H 	 -113.218 	 59.5326 	 -77.4651
| 34> H 	 -113.721 	 58.2327 	 -78.6797
| 35> C 	 -114.476 	 60.1722 	 -78.9671
| 36> H 	 -114.581 	 61.1309 	 -78.3762
| 37> H 	 -115.395 	 59.7312 	 -78.8711
| 38> H 	 -114.394 	 60.4588 	 -79.9834
| 39> H 	 -112.258 	 53.2689 	 -78.5026
| 40> H 	 -107.819 	 60.1097 	 -76.9604
| 41> *
| 42>
| 43>                          ****END OF INPUT****

CARTESIAN COORDINATES (ANGSTROEM)
---------------------------------
  S    -111.301000   55.338900  -77.306100
  C    -111.886000   54.319700  -78.593000
  C    -111.975000   54.926200  -79.814100
  C    -111.404000   56.278300  -79.737100
  C    -110.990000   56.637500  -78.451700
  H    -111.320000   56.975700  -80.558800
  C    -112.323000   54.334700  -81.181600
  H    -112.617000   55.189800  -81.836100
  H    -113.171000   53.774300  -81.200100
  C    -111.152000   53.590700  -81.831200
  H    -111.335000   53.475100  -82.917100
  H    -110.203000   54.138500  -81.809900
  C    -110.772000   52.272800  -81.192400
  H    -110.053000   51.647000  -81.815400
  H    -110.221000   52.501900  -80.307800
  H    -111.590000   51.590200  -80.977300
  S    -108.862000   57.859300  -77.334100
  C    -108.703000   59.578600  -77.402000
  C    -109.821000   60.163700  -77.898300
  C    -110.750000   59.206200  -78.435700
  C    -110.417000   57.933700  -77.993800
  H    -109.828000   61.181500  -77.901700
  C    -111.958000   59.591000  -79.329300
  H    -111.782000   59.006200  -80.209000
  H    -111.992000   60.647900  -79.449200
  C    -113.292000   59.329600  -78.549800
  H    -113.218000   59.532600  -77.465100
  H    -113.721000   58.232700  -78.679700
  C    -114.476000   60.172200  -78.967100
  H    -114.581000   61.130900  -78.376200
  H    -115.395000   59.731200  -78.871100
  H    -114.394000   60.458800  -79.983400
  H    -112.258000   53.268900  -78.502600
  H    -107.819000   60.109700  -76.960400

 Total Charge           Charge          ....    0
 Multiplicity           Mult            ....    1
 Number of Electrons    NEL             ....  134
 Basis Dimension        Dim             ....  322

ORBITAL ENERGIES
----------------

  NO   OCC          E(Eh)            E(eV)
   0   2.0000     -88.966753     -2420.9084
   1   2.0000     -88.962502     -2420.7928
   2   2.0000     -10.330882      -281.1176
   3   2.0000     -10.320095      -280.8241
   4   2.0000     -10.314605      -280.6747
   5   2.0000     -10.313330      -280.6400
   6   2.0000     -10.305527      -280.4276
   7   2.0000     -10.302446      -280.3438
   8   2.0000     -10.296778      -280.1896
   9   2.0000     -10.296207      -280.1740
  10   2.0000     -10.291876      -280.0562
  11   2.0000     -10.291594      -280.0485
  12   2.0000     -10.286727      -279.9161
  13   2.0000     -10.286151      -279.9004
  14   2.0000     -10.275403      -279.6079
  15   2.0000     -10.265446      -279.3370
  16   2.0000      -8.081308      -219.9036
  17   2.0000      -8.079007      -219.8410
  18   2.0000      -6.039930      -164.3548
  19   2.0000      -6.037382      -164.2855
  20   2.0000      -6.035871      -164.2444
  21   2.0000      -6.033273      -164.1737
  22   2.0000      -6.031940      -164.1374
  23   2.0000      -6.029785      -164.0788
  24   2.0000      -1.011384       -27.5212
  25   2.0000      -0.984219       -26.7820
  26   2.0000      -0.912109       -24.8198
  27   2.0000      -0.905841       -24.6492
  28   2.0000      -0.868479       -23.6325
  29   2.0000      -0.852495       -23.1976
  30   2.0000      -0.844491       -22.9798
  31   2.0000      -0.813247       -22.1296
  32   2.0000      -0.787902       -21.4399
  33   2.0000      -0.776229       -21.1223
  34   2.0000      -0.701759       -19.0958
  35   2.0000      -0.694269       -18.8920
  36   2.0000      -0.685034       -18.6407
  37   2.0000      -0.666091       -18.1253
  38   2.0000      -0.635993       -17.3063
  39   2.0000      -0.621327       -16.9072
  40   2.0000      -0.593841       -16.1592
  41   2.0000      -0.574328       -15.6283
  42   2.0000      -0.566579       -15.4174
  43   2.0000      -0.542778       -14.7698
  44   2.0000      -0.539212       -14.6727
  45   2.0000      -0.530690       -14.4408
  46   2.0000      -0.519630       -14.1398
  47   2.0000      -0.512689       -13.9510
  48   2.0000      -0.503864       -13.7108
  49   2.0000      -0.491047       -13.3621
  50   2.0000      -0.489434       -13.3182
  51   2.0000      -0.487079       -13.2541
  52   2.0000      -0.474400       -12.9091
  53   2.0000      -0.463145       -12.6028
  54   2.0000      -0.456531       -12.4228
  55   2.0000      -0.446665       -12.1544
  56   2.0000      -0.439772       -11.9668
  57   2.0000      -0.435442       -11.8490
  58   2.0000      -0.433823       -11.8049
  59   2.0000      -0.424301       -11.5458
  60   2.0000      -0.418295       -11.3824
  61   2.0000      -0.414495       -11.2790
  62   2.0000      -0.404360       -11.0032
  63   2.0000      -0.349148        -9.5008
  64   2.0000      -0.329575        -8.9682
  65   2.0000      -0.326085        -8.8732
  66   2.0000      -0.295342        -8.0367
  67   0.0000       0.037098         1.0095
  68   0.0000       0.075947         2.0666
  69   0.0000       0.112508         3.0615
  70   0.0000       0.123024         3.3476
  71   0.0000       0.135415         3.6848

MULLIKEN ATOMIC CHARGES
-----------------------
   0 S :    0.115750
   1 C :   -0.128146
   2 C :   -0.107151
   3 C :    0.015136
   4 C :   -0.156702
   5 H :    0.006584
   6 C :    0.113223
   7 H :    0.022514
   8 H :    0.001854
   9 C :   -0.067442
  10 H :    0.030235
  11 H :    0.028882
  12 C :   -0.071985
  13 H :    0.036381
  14 H :    0.037827
  15 H :    0.025880
  16 S :    0.115510
  17 C :   -0.121528
  18 C :    0.013670
  19 C :   -0.101377
  20 C :   -0.114879
  21 H :   -0.022024
  22 C :    0.153682
  23 H :    0.032762
  24 H :    0.010579
  25 C :   -0.132104
  26 H :    0.046262
  27 H :    0.056859
  28 C :   -0.024273
  29 H :    0.027525
  30 H :    0.012872
  31 H :    0.011384
  32 H :    0.058113
  33 H :    0.074127
Sum of atomic charges:   -0.0000000

LOEWDIN ATOMIC CHARGES
----------------------
   0 S :    0.401984
   1 C :   -0.209782
   2 C :   -0.062674
   3 C :   -0.063176
   4 C :   -0.188593
   5 H :    0.024942
   6 C :   -0.023502
   7 H :    0.038615
   8 H :    0.015478
   9 C :   -0.043310
  10 H :    0.024607
  11 H :    0.029689
  12 C :   -0.071952
  13 H :    0.034716
  14 H :    0.023127
  15 H :    0.018369
  16 S :    0.439597
  17 C :   -0.194896
  18 C :   -0.064820
  19 C :   -0.045038
  20 C :   -0.228508
  21 H :    0.016036
  22 C :   -0.017598
  23 H :    0.030401
  24 H :    0.028240
  25 C :   -0.050426
  26 H :    0.031132
  27 H :    0.040157
  28 C :   -0.069516
  29 H :    0.028197
  30 H :    0.014519
  31 H :    0.017324
  32 H :    0.037903
  33 H :    0.038759

  Mayer bond orders larger than 0.100000
B(  0-S ,  1-C ) :   1.1279 B(  0-S ,  4-C ) :   1.1458 B(  1-C ,  2-C ) :   1.6623
B(  1-C , 32-H ) :   0.9527 B(  2-C ,  3-C ) :   1.2156 B(  2-C ,  6-C ) :   1.0281
B(  3-C ,  4-C ) :   1.6091 B(  3-C ,  5-H ) :   0.9884 B(  4-C , 20-C ) :   0.9923
B(  6-C ,  7-H ) :   0.9347 B(  6-C ,  8-H ) :   0.9385 B(  6-C ,  9-C ) :   1.0670
B(  9-C , 10-H ) :   0.9560 B(  9-C , 11-H ) :   0.9561 B(  9-C , 12-C ) :   1.0772
B( 12-C , 13-H ) :   0.9711 B( 12-C , 14-H ) :   0.9744 B( 12-C , 15-H ) :   0.9766
B( 16-S , 17-C ) :   1.1691 B( 16-S , 20-C ) :   1.1686 B( 17-C , 18-C ) :   1.6099
B( 17-C , 33-H ) :   0.9593 B( 18-C , 19-C ) :   1.2300 B( 18-C , 21-H ) :   1.0097
B( 19-C , 20-C ) :   1.5876 B( 19-C , 22-C ) :   1.0387 B( 22-C , 23-H ) :   0.9269
B( 22-C , 24-H ) :   0.9351 B( 22-C , 25-C ) :   1.0534 B( 25-C , 26-H ) :   0.9648
B( 25-C , 27-H ) :   0.9560 B( 25-C , 28-C ) :   1.0822 B( 28-C , 29-H ) :   0.9741
B( 28-C , 30-H ) :   0.9744 B( 28-C , 31-H ) :   0.9710

Dispersion correction           -0.014731885
FINAL SINGLE POINT ENERGY     -1339.857926876031

DIPOLE MOMENT
-------------
                                X             Y             Z
Electronic contribution:     14.23981       1.74731      17.83366
Nuclear contribution   :    -14.46421      -1.48523     -18.38130
                        -----------------------------------------
Total Dipole Moment    :     -0.22440       0.26208      -0.54764
                        -----------------------------------------
Magnitude (a.u.)       :      0.64727
Magnitude (Debye)      :      1.64523

Rotational constants in cm-1:     0.018769     0.008686     0.007092
Rotational constants in MHz :   562.682806   260.411921   212.603136

                             ****ORCA TERMINATED NORMALLY****
TOTAL RUN TIME: 0 days 0 hours 0 minutes 21 seconds 876 msec
