                         Program Version 4.2.1 -  RELEASE  -
|  1> ! wB97X-D3 SP def2-SVP
|  2> %pal
|  3> nprocs 24
|  4> end
|  5>
|  6> * xyz 0 1
|  7> S 	 -101.113 	 -4.52607 	 -106.986
|  8> C 	 -100.641 	 -4.91326 	 -108.604
|  9> C 	 -101.221 	 -4.1607 	 -109.635
| 10> C 	 -102.033 	 -3.16316 	 -109.062
| 11> C 	 -102.159 	 -3.22843 	 -107.663
| 12> H 	 -102.48 	 -2.44716 	 -109.638
| 13> C 	 -101.03 	 -4.32539 	 -111.145
| 14> H 	 -101.918 	 -4.75377 	 -111.626
| 15> H 	 -100.206 	 -4.95621 	 -111.248
| 16> C 	 -100.667 	 -3.00527 	 -111.863
| 17> H 	 -101.557 	 -2.33082 	 -111.976
| 18> H 	 -99.9726 	 -2.60529 	 -111.245
| 19> C 	 -100.141 	 -3.10742 	 -113.273
| 20> H 	 -99.5218 	 -3.9848 	 -113.242
| 21> H 	 -100.888 	 -3.33418 	 -114.068
| 22> H 	 -99.6405 	 -2.20393 	 -113.453
| 23> S 	 -101.973 	 -1.32224 	 -105.616
| 24> C 	 -103.446 	 -0.531857 	 -105.037
| 25> C 	 -104.525 	 -1.06375 	 -105.722
| 26> C 	 -104.238 	 -2.04609 	 -106.73
| 27> C 	 -102.854 	 -2.2842 	 -106.824
| 28> H 	 -105.565 	 -0.851288 	 -105.328
| 29> C 	 -105.257 	 -2.82704 	 -107.482
| 30> H 	 -104.756 	 -3.39506 	 -108.282
| 31> H 	 -106.005 	 -2.15799 	 -107.952
| 32> C 	 -106.125 	 -3.80993 	 -106.679
| 33> H 	 -106.612 	 -3.15797 	 -105.841
| 34> H 	 -105.598 	 -4.62797 	 -106.161
| 35> C 	 -107.218 	 -4.34882 	 -107.507
| 36> H 	 -106.774 	 -4.61847 	 -108.412
| 37> H 	 -107.882 	 -3.50248 	 -107.721
| 38> H 	 -107.729 	 -5.27241 	 -107.187
| 39> H 	 -99.847 	 -5.59307 	 -108.872
| 40> H 	 -103.459 	 0.278901 	 -104.313
| 41> *
| 42>
| 43>                          ****END OF INPUT****

CARTESIAN COORDINATES (ANGSTROEM)
---------------------------------
  S    -101.113000   -4.526070  -106.986000
  C    -100.641000   -4.913260  -108.604000
  C    -101.221000   -4.160700  -109.635000
  C    -102.033000   -3.163160  -109.062000
  C    -102.159000   -3.228430  -107.663000
  H    -102.480000   -2.447160  -109.638000
  C    -101.030000   -4.325390  -111.145000
  H    -101.918000   -4.753770  -111.626000
  H    -100.206000   -4.956210  -111.248000
  C    -100.667000   -3.005270  -111.863000
  H    -101.557000   -2.330820  -111.976000
  H    -99.972600   -2.605290  -111.245000
  C    -100.141000   -3.107420  -113.273000
  H    -99.521800   -3.984800  -113.242000
  H    -100.888000   -3.334180  -114.068000
  H    -99.640500   -2.203930  -113.453000
  S    -101.973000   -1.322240  -105.616000
  C    -103.446000   -0.531857  -105.037000
  C    -104.525000   -1.063750  -105.722000
  C    -104.238000   -2.046090  -106.730000
  C    -102.854000   -2.284200  -106.824000
  H    -105.565000   -0.851288  -105.328000
  C    -105.257000   -2.827040  -107.482000
  H    -104.756000   -3.395060  -108.282000
  H    -106.005000   -2.157990  -107.952000
  C    -106.125000   -3.809930  -106.679000
  H    -106.612000   -3.157970  -105.841000
  H    -105.598000   -4.627970  -106.161000
  C    -107.218000   -4.348820  -107.507000
  H    -106.774000   -4.618470  -108.412000
  H    -107.882000   -3.502480  -107.721000
  H    -107.729000   -5.272410  -107.187000
  H    -99.847000   -5.593070  -108.872000
  H    -103.459000    0.278901  -104.313000

 Total Charge           Charge          ....    0
 Multiplicity           Mult            ....    1
 Number of Electrons    NEL             ....  134
 Basis Dimension        Dim             ....  322

ORBITAL ENERGIES
----------------

  NO   OCC          E(Eh)            E(eV)
   0   2.0000     -88.972886     -2421.0753
   1   2.0000     -88.963559     -2420.8215
   2   2.0000     -10.331451      -281.1331
   3   2.0000     -10.327622      -281.0289
   4   2.0000     -10.321900      -280.8732
   5   2.0000     -10.314674      -280.6766
   6   2.0000     -10.304494      -280.3995
   7   2.0000     -10.300154      -280.2814
   8   2.0000     -10.299397      -280.2608
   9   2.0000     -10.292515      -280.0736
  10   2.0000     -10.291446      -280.0445
  11   2.0000     -10.289322      -279.9867
  12   2.0000     -10.287272      -279.9309
  13   2.0000     -10.280311      -279.7415
  14   2.0000     -10.275332      -279.6060
  15   2.0000     -10.269314      -279.4423
  16   2.0000      -8.086854      -220.0545
  17   2.0000      -8.077614      -219.8031
  18   2.0000      -6.045219      -164.4988
  19   2.0000      -6.041583      -164.3998
  20   2.0000      -6.037710      -164.2944
  21   2.0000      -6.036196      -164.2532
  22   2.0000      -6.032106      -164.1419
  23   2.0000      -6.028441      -164.0422
  24   2.0000      -1.000460       -27.2239
  25   2.0000      -0.978784       -26.6341
  26   2.0000      -0.917294       -24.9608
  27   2.0000      -0.915153       -24.9026
  28   2.0000      -0.869773       -23.6677
  29   2.0000      -0.857850       -23.3433
  30   2.0000      -0.849747       -23.1228
  31   2.0000      -0.813093       -22.1254
  32   2.0000      -0.783473       -21.3194
  33   2.0000      -0.767946       -20.8969
  34   2.0000      -0.710084       -19.3224
  35   2.0000      -0.693039       -18.8585
  36   2.0000      -0.690939       -18.8014
  37   2.0000      -0.653956       -17.7951
  38   2.0000      -0.641065       -17.4443
  39   2.0000      -0.624938       -17.0054
  40   2.0000      -0.598136       -16.2761
  41   2.0000      -0.581818       -15.8321
  42   2.0000      -0.572454       -15.5773
  43   2.0000      -0.560541       -15.2531
  44   2.0000      -0.535261       -14.5652
  45   2.0000      -0.524373       -14.2689
  46   2.0000      -0.518551       -14.1105
  47   2.0000      -0.508972       -13.8498
  48   2.0000      -0.507094       -13.7987
  49   2.0000      -0.501436       -13.6448
  50   2.0000      -0.491352       -13.3704
  51   2.0000      -0.474722       -12.9178
  52   2.0000      -0.472004       -12.8439
  53   2.0000      -0.467125       -12.7111
  54   2.0000      -0.456417       -12.4197
  55   2.0000      -0.453636       -12.3441
  56   2.0000      -0.445282       -12.1167
  57   2.0000      -0.438447       -11.9307
  58   2.0000      -0.430798       -11.7226
  59   2.0000      -0.429457       -11.6861
  60   2.0000      -0.420927       -11.4540
  61   2.0000      -0.414682       -11.2841
  62   2.0000      -0.405233       -11.0270
  63   2.0000      -0.343344        -9.3429
  64   2.0000      -0.330677        -8.9982
  65   2.0000      -0.327251        -8.9050
  66   2.0000      -0.291034        -7.9194
  67   0.0000       0.028003         0.7620
  68   0.0000       0.061039         1.6610
  69   0.0000       0.113213         3.0807
  70   0.0000       0.121919         3.3176
  71   0.0000       0.125720         3.4210

MULLIKEN ATOMIC CHARGES
-----------------------
   0 S :    0.131334
   1 C :   -0.112152
   2 C :   -0.124674
   3 C :    0.081657
   4 C :   -0.185047
   5 H :   -0.025455
   6 C :    0.134500
   7 H :    0.044242
   8 H :   -0.008715
   9 C :   -0.118303
  10 H :    0.038339
  11 H :    0.015242
  12 C :   -0.006190
  13 H :    0.010959
  14 H :    0.035808
  15 H :    0.035784
  16 S :    0.097003
  17 C :   -0.105578
  18 C :   -0.048566
  19 C :    0.002145
  20 C :   -0.165450
  21 H :    0.040979
  22 C :    0.048278
  23 H :    0.030243
  24 H :    0.023877
  25 C :   -0.109505
  26 H :    0.026937
  27 H :    0.037178
  28 C :    0.000478
  29 H :    0.001678
  30 H :    0.026464
  31 H :    0.041874
  32 H :    0.037865
  33 H :    0.066768
Sum of atomic charges:   -0.0000000

LOEWDIN ATOMIC CHARGES
----------------------
   0 S :    0.405500
   1 C :   -0.200972
   2 C :   -0.064414
   3 C :   -0.037326
   4 C :   -0.186798
   5 H :    0.015554
   6 C :   -0.020210
   7 H :    0.034990
   8 H :    0.018418
   9 C :   -0.037092
  10 H :    0.027683
  11 H :    0.011533
  12 C :   -0.056801
  13 H :    0.019983
  14 H :    0.029896
  15 H :    0.024841
  16 S :    0.384607
  17 C :   -0.180702
  18 C :   -0.078951
  19 C :   -0.054080
  20 C :   -0.195940
  21 H :    0.039100
  22 C :   -0.036608
  23 H :    0.031757
  24 H :    0.034284
  25 C :   -0.044793
  26 H :    0.025239
  27 H :    0.025075
  28 C :   -0.066507
  29 H :    0.015552
  30 H :    0.028001
  31 H :    0.032333
  32 H :    0.023119
  33 H :    0.033730

  Mayer bond orders larger than 0.100000
B(  0-S ,  1-C ) :   1.1568 B(  0-S ,  4-C ) :   1.1333 B(  1-C ,  2-C ) :   1.6050
B(  1-C , 32-H ) :   0.9553 B(  2-C ,  3-C ) :   1.2682 B(  2-C ,  6-C ) :   1.0276
B(  3-C ,  4-C ) :   1.5480 B(  3-C ,  5-H ) :   1.0043 B(  4-C , 20-C ) :   1.0698
B(  6-C ,  7-H ) :   0.9353 B(  6-C ,  8-H ) :   0.9255 B(  6-C ,  9-C ) :   1.0747
B(  9-C , 10-H ) :   0.9472 B(  9-C , 11-H ) :   0.9600 B(  9-C , 12-C ) :   1.0914
B( 12-C , 13-H ) :   0.9730 B( 12-C , 14-H ) :   0.9735 B( 12-C , 15-H ) :   0.9731
B( 16-S , 17-C ) :   1.1467 B( 16-S , 20-C ) :   1.1366 B( 17-C , 18-C ) :   1.6077
B( 17-C , 20-C ) :   0.1001 B( 17-C , 33-H ) :   0.9694 B( 18-C , 19-C ) :   1.2439
B( 18-C , 21-H ) :   0.9747 B( 19-C , 20-C ) :   1.5728 B( 19-C , 22-C ) :   1.0611
B( 22-C , 23-H ) :   0.9189 B( 22-C , 24-H ) :   0.9312 B( 22-C , 25-C ) :   1.0583
B( 25-C , 26-H ) :   0.9575 B( 25-C , 27-H ) :   0.9536 B( 25-C , 28-C ) :   1.0808
B( 28-C , 29-H ) :   0.9663 B( 28-C , 30-H ) :   0.9699 B( 28-C , 31-H ) :   0.9711

Dispersion correction           -0.013501146
FINAL SINGLE POINT ENERGY     -1339.862953572451

DIPOLE MOMENT
-------------
                                X             Y             Z
Electronic contribution:     12.06061       4.44752      22.32686
Nuclear contribution   :    -12.30228      -4.47264     -22.84258
                        -----------------------------------------
Total Dipole Moment    :     -0.24168      -0.02513      -0.51573
                        -----------------------------------------
Magnitude (a.u.)       :      0.57010
Magnitude (Debye)      :      1.44908

Rotational constants in cm-1:     0.017407     0.007804     0.006766
Rotational constants in MHz :   521.839197   233.944288   202.827317

                             ****ORCA TERMINATED NORMALLY****
TOTAL RUN TIME: 0 days 0 hours 0 minutes 21 seconds 131 msec
