                         Program Version 4.2.1 -  RELEASE  -
|  1> ! wB97X-D3 SP def2-SVP
|  2> %pal
|  3> nprocs 24
|  4> end
|  5>
|  6> * xyz 0 1
|  7> S 	 42.2771 	 -23.195 	 -115.006
|  8> C 	 44.0054 	 -23.628 	 -115.155
|  9> C 	 44.8001 	 -22.612 	 -114.623
| 10> C 	 44.0187 	 -21.4679 	 -114.105
| 11> C 	 42.6648 	 -21.6471 	 -114.227
| 12> H 	 44.4025 	 -20.6543 	 -113.626
| 13> C 	 46.3431 	 -22.6604 	 -114.421
| 14> H 	 46.8375 	 -21.7267 	 -114.456
| 15> H 	 46.728 	 -23.1465 	 -115.314
| 16> C 	 46.8855 	 -23.3998 	 -113.146
| 17> H 	 46.6271 	 -24.4367 	 -113.216
| 18> H 	 47.9666 	 -23.3966 	 -113.091
| 19> C 	 46.3517 	 -22.7776 	 -111.833
| 20> H 	 46.2363 	 -21.6845 	 -111.784
| 21> H 	 45.303 	 -23.1307 	 -111.773
| 22> H 	 46.74 	 -23.1471 	 -110.859
| 23> S 	 40.8713 	 -19.7575 	 -114.732
| 24> C 	 39.9121 	 -18.885 	 -113.475
| 25> C 	 40.2273 	 -19.4554 	 -112.27
| 26> C 	 41.1072 	 -20.5533 	 -112.334
| 27> C 	 41.6376 	 -20.8162 	 -113.581
| 28> H 	 39.8077 	 -19.017 	 -111.346
| 29> C 	 41.708 	 -21.1112 	 -111.057
| 30> H 	 41.609 	 -20.4216 	 -110.271
| 31> H 	 42.7933 	 -21.2948 	 -111.17
| 32> C 	 40.9769 	 -22.389 	 -110.537
| 33> H 	 40.1929 	 -22.1388 	 -109.865
| 34> H 	 41.6366 	 -23.0753 	 -109.948
| 35> C 	 40.273 	 -23.3279 	 -111.592
| 36> H 	 41.1052 	 -23.6985 	 -112.012
| 37> H 	 39.6314 	 -22.7242 	 -112.229
| 38> H 	 39.7918 	 -24.2319 	 -111.152
| 39> H 	 44.3516 	 -24.5431 	 -115.511
| 40> H 	 39.2489 	 -18.1149 	 -113.749
| 41> *
| 42>
| 43>                          ****END OF INPUT****

CARTESIAN COORDINATES (ANGSTROEM)
---------------------------------
  S     42.277100  -23.195000  -115.006000
  C     44.005400  -23.628000  -115.155000
  C     44.800100  -22.612000  -114.623000
  C     44.018700  -21.467900  -114.105000
  C     42.664800  -21.647100  -114.227000
  H     44.402500  -20.654300  -113.626000
  C     46.343100  -22.660400  -114.421000
  H     46.837500  -21.726700  -114.456000
  H     46.728000  -23.146500  -115.314000
  C     46.885500  -23.399800  -113.146000
  H     46.627100  -24.436700  -113.216000
  H     47.966600  -23.396600  -113.091000
  C     46.351700  -22.777600  -111.833000
  H     46.236300  -21.684500  -111.784000
  H     45.303000  -23.130700  -111.773000
  H     46.740000  -23.147100  -110.859000
  S     40.871300  -19.757500  -114.732000
  C     39.912100  -18.885000  -113.475000
  C     40.227300  -19.455400  -112.270000
  C     41.107200  -20.553300  -112.334000
  C     41.637600  -20.816200  -113.581000
  H     39.807700  -19.017000  -111.346000
  C     41.708000  -21.111200  -111.057000
  H     41.609000  -20.421600  -110.271000
  H     42.793300  -21.294800  -111.170000
  C     40.976900  -22.389000  -110.537000
  H     40.192900  -22.138800  -109.865000
  H     41.636600  -23.075300  -109.948000
  C     40.273000  -23.327900  -111.592000
  H     41.105200  -23.698500  -112.012000
  H     39.631400  -22.724200  -112.229000
  H     39.791800  -24.231900  -111.152000
  H     44.351600  -24.543100  -115.511000
  H     39.248900  -18.114900  -113.749000

 Total Charge           Charge          ....    0
 Multiplicity           Mult            ....    1
 Number of Electrons    NEL             ....  134
 Basis Dimension        Dim             ....  322

ORBITAL ENERGIES
----------------

  NO   OCC          E(Eh)            E(eV)
   0   2.0000     -88.969252     -2420.9764
   1   2.0000     -88.958540     -2420.6849
   2   2.0000     -10.335865      -281.2532
   3   2.0000     -10.329213      -281.0722
   4   2.0000     -10.321579      -280.8645
   5   2.0000     -10.320583      -280.8373
   6   2.0000     -10.314764      -280.6790
   7   2.0000     -10.304483      -280.3992
   8   2.0000     -10.298077      -280.2249
   9   2.0000     -10.296260      -280.1755
  10   2.0000     -10.296253      -280.1753
  11   2.0000     -10.291731      -280.0522
  12   2.0000     -10.289052      -279.9793
  13   2.0000     -10.282523      -279.8017
  14   2.0000     -10.280520      -279.7472
  15   2.0000     -10.261300      -279.2242
  16   2.0000      -8.082703      -219.9415
  17   2.0000      -8.073257      -219.6845
  18   2.0000      -6.041432      -164.3957
  19   2.0000      -6.037339      -164.2843
  20   2.0000      -6.033317      -164.1749
  21   2.0000      -6.031700      -164.1309
  22   2.0000      -6.027560      -164.0182
  23   2.0000      -6.024262      -163.9285
  24   2.0000      -1.004797       -27.3419
  25   2.0000      -0.979403       -26.6509
  26   2.0000      -0.905253       -24.6332
  27   2.0000      -0.900114       -24.4934
  28   2.0000      -0.872354       -23.7379
  29   2.0000      -0.843217       -22.9451
  30   2.0000      -0.839625       -22.8473
  31   2.0000      -0.819611       -22.3027
  32   2.0000      -0.783090       -21.3090
  33   2.0000      -0.775319       -21.0975
  34   2.0000      -0.707279       -19.2460
  35   2.0000      -0.704567       -19.1722
  36   2.0000      -0.687480       -18.7073
  37   2.0000      -0.667173       -18.1547
  38   2.0000      -0.654033       -17.7971
  39   2.0000      -0.615702       -16.7541
  40   2.0000      -0.594934       -16.1890
  41   2.0000      -0.573832       -15.6148
  42   2.0000      -0.555628       -15.1194
  43   2.0000      -0.548003       -14.9119
  44   2.0000      -0.544755       -14.8235
  45   2.0000      -0.540774       -14.7152
  46   2.0000      -0.519558       -14.1379
  47   2.0000      -0.515168       -14.0184
  48   2.0000      -0.505853       -13.7650
  49   2.0000      -0.494384       -13.4529
  50   2.0000      -0.486163       -13.2292
  51   2.0000      -0.482500       -13.1295
  52   2.0000      -0.476266       -12.9599
  53   2.0000      -0.465880       -12.6772
  54   2.0000      -0.456741       -12.4286
  55   2.0000      -0.440383       -11.9834
  56   2.0000      -0.437394       -11.9021
  57   2.0000      -0.434280       -11.8174
  58   2.0000      -0.429884       -11.6977
  59   2.0000      -0.425799       -11.5866
  60   2.0000      -0.413537       -11.2529
  61   2.0000      -0.411846       -11.2069
  62   2.0000      -0.397146       -10.8069
  63   2.0000      -0.339101        -9.2274
  64   2.0000      -0.331208        -9.0126
  65   2.0000      -0.323034        -8.7902
  66   2.0000      -0.314137        -8.5481
  67   0.0000       0.040918         1.1134
  68   0.0000       0.046078         1.2538
  69   0.0000       0.114110         3.1051
  70   0.0000       0.114639         3.1195
  71   0.0000       0.120145         3.2693

MULLIKEN ATOMIC CHARGES
-----------------------
   0 S :    0.115494
   1 C :   -0.096388
   2 C :   -0.093250
   3 C :    0.098781
   4 C :   -0.130685
   5 H :   -0.022027
   6 C :    0.065966
   7 H :    0.019476
   8 H :    0.023551
   9 C :   -0.037080
  10 H :    0.022728
  11 H :    0.031428
  12 C :   -0.097606
  13 H :    0.035185
  14 H :    0.035580
  15 H :    0.039902
  16 S :    0.075646
  17 C :   -0.083593
  18 C :   -0.036237
  19 C :   -0.038700
  20 C :   -0.181921
  21 H :    0.035005
  22 C :    0.110813
  23 H :    0.008488
  24 H :    0.036193
  25 C :   -0.127889
  26 H :    0.017651
  27 H :    0.025281
  28 C :   -0.018374
  29 H :    0.000026
  30 H :    0.054341
  31 H :    0.033320
  32 H :    0.028756
  33 H :    0.050140
Sum of atomic charges:   -0.0000000

LOEWDIN ATOMIC CHARGES
----------------------
   0 S :    0.390502
   1 C :   -0.171860
   2 C :   -0.052489
   3 C :   -0.038572
   4 C :   -0.193023
   5 H :    0.016498
   6 C :   -0.029122
   7 H :    0.024959
   8 H :    0.031958
   9 C :   -0.032678
  10 H :    0.020698
  11 H :    0.022597
  12 C :   -0.082761
  13 H :    0.023711
  14 H :    0.029888
  15 H :    0.029808
  16 S :    0.391156
  17 C :   -0.156231
  18 C :   -0.074012
  19 C :   -0.064445
  20 C :   -0.193927
  21 H :    0.039103
  22 C :   -0.024472
  23 H :    0.024942
  24 H :    0.034289
  25 C :   -0.040362
  26 H :    0.011167
  27 H :    0.024985
  28 C :   -0.061208
  29 H :    0.002801
  30 H :    0.025410
  31 H :    0.031869
  32 H :    0.017122
  33 H :    0.021699

  Mayer bond orders larger than 0.100000
B(  0-S ,  1-C ) :   1.1256 B(  0-S ,  4-C ) :   1.1349 B(  1-C ,  2-C ) :   1.6347
B(  1-C , 32-H ) :   0.9802 B(  2-C ,  3-C ) :   1.1932 B(  2-C ,  6-C ) :   1.0178
B(  3-C ,  4-C ) :   1.6168 B(  3-C ,  5-H ) :   1.0087 B(  4-C , 20-C ) :   0.9880
B(  6-C ,  7-H ) :   0.9480 B(  6-C ,  8-H ) :   0.9410 B(  6-C ,  9-C ) :   1.0682
B(  9-C , 10-H ) :   0.9591 B(  9-C , 11-H ) :   0.9600 B(  9-C , 12-C ) :   1.0622
B( 12-C , 13-H ) :   0.9787 B( 12-C , 14-H ) :   0.9724 B( 12-C , 15-H ) :   0.9745
B( 16-S , 17-C ) :   1.1516 B( 16-S , 20-C ) :   1.1651 B( 17-C , 18-C ) :   1.5861
B( 17-C , 20-C ) :   0.1121 B( 17-C , 33-H ) :   0.9825 B( 18-C , 19-C ) :   1.2452
B( 18-C , 21-H ) :   0.9861 B( 19-C , 20-C ) :   1.5947 B( 19-C , 22-C ) :   1.0440
B( 22-C , 23-H ) :   0.9400 B( 22-C , 24-H ) :   0.9468 B( 22-C , 25-C ) :   1.0375
B( 25-C , 26-H ) :   0.9624 B( 25-C , 27-H ) :   0.9628 B( 25-C , 28-C ) :   1.0823
B( 28-C , 29-H ) :   0.9787 B( 28-C , 30-H ) :   0.9666 B( 28-C , 31-H ) :   0.9724

Dispersion correction           -0.016129088
FINAL SINGLE POINT ENERGY     -1339.851306693739

DIPOLE MOMENT
-------------
                                X             Y             Z
Electronic contribution:    -12.74628       8.93688     -18.92968
Nuclear contribution   :     13.20650      -8.91551      19.44125
                        -----------------------------------------
Total Dipole Moment    :      0.46021       0.02137       0.51157
                        -----------------------------------------
Magnitude (a.u.)       :      0.68845
Magnitude (Debye)      :      1.74989

Rotational constants in cm-1:     0.019747     0.009188     0.008121
Rotational constants in MHz :   591.992664   275.460746   243.456694

                             ****ORCA TERMINATED NORMALLY****
TOTAL RUN TIME: 0 days 0 hours 0 minutes 22 seconds 681 msec
