                         Program Version 4.2.1 -  RELEASE  -
|  1> ! wB97X-D3 SP def2-SVP
|  2> %pal
|  3> nprocs 24
|  4> end
|  5>
|  6> * xyz 0 1
|  7> S 	 -42.6986 	 -3.34311 	 -9.18286
|  8> C 	 -43.494 	 -2.62291 	 -7.77018
|  9> C 	 -44.697 	 -3.17294 	 -7.52806
| 10> C 	 -45.1513 	 -3.97132 	 -8.6159
| 11> C 	 -44.0671 	 -4.34936 	 -9.50484
| 12> H 	 -46.1216 	 -4.3512 	 -8.77769
| 13> C 	 -45.5385 	 -2.84913 	 -6.32827
| 14> H 	 -45.8322 	 -1.82757 	 -6.33903
| 15> H 	 -44.758 	 -2.62862 	 -5.61317
| 16> C 	 -46.4901 	 -3.8641 	 -5.8313
| 17> H 	 -46.9825 	 -4.43253 	 -6.63804
| 18> H 	 -45.8257 	 -4.59839 	 -5.34435
| 19> C 	 -47.5903 	 -3.24827 	 -4.86289
| 20> H 	 -47.0138 	 -2.91319 	 -3.99638
| 21> H 	 -48.0147 	 -2.36781 	 -5.29706
| 22> H 	 -48.3061 	 -4.04563 	 -4.632
| 23> S 	 -43.4235 	 -4.63589 	 -12.089
| 24> C 	 -44.0072 	 -5.8863 	 -13.0535
| 25> C 	 -44.8424 	 -6.70199 	 -12.3215
| 26> C 	 -44.9427 	 -6.30142 	 -10.947
| 27> C 	 -44.1945 	 -5.17828 	 -10.6482
| 28> H 	 -45.3736 	 -7.60439 	 -12.725
| 29> C 	 -45.8134 	 -7.06259 	 -9.89836
| 30> H 	 -46.8387 	 -6.94278 	 -10.159
| 31> H 	 -45.7471 	 -6.45587 	 -8.92416
| 32> C 	 -45.277 	 -8.49912 	 -9.62236
| 33> H 	 -44.1915 	 -8.50674 	 -9.48387
| 34> H 	 -45.3574 	 -9.06205 	 -10.5316
| 35> C 	 -45.9577 	 -9.26136 	 -8.45074
| 36> H 	 -45.772 	 -8.65099 	 -7.58077
| 37> H 	 -45.4675 	 -10.2639 	 -8.39992
| 38> H 	 -47.0224 	 -9.34792 	 -8.59219
| 39> H 	 -42.9468 	 -2.01122 	 -7.05284
| 40> H 	 -43.8681 	 -6.00472 	 -14.1256
| 41> *
| 42>
| 43>                          ****END OF INPUT****

CARTESIAN COORDINATES (ANGSTROEM)
---------------------------------
  S    -42.698600   -3.343110   -9.182860
  C    -43.494000   -2.622910   -7.770180
  C    -44.697000   -3.172940   -7.528060
  C    -45.151300   -3.971320   -8.615900
  C    -44.067100   -4.349360   -9.504840
  H    -46.121600   -4.351200   -8.777690
  C    -45.538500   -2.849130   -6.328270
  H    -45.832200   -1.827570   -6.339030
  H    -44.758000   -2.628620   -5.613170
  C    -46.490100   -3.864100   -5.831300
  H    -46.982500   -4.432530   -6.638040
  H    -45.825700   -4.598390   -5.344350
  C    -47.590300   -3.248270   -4.862890
  H    -47.013800   -2.913190   -3.996380
  H    -48.014700   -2.367810   -5.297060
  H    -48.306100   -4.045630   -4.632000
  S    -43.423500   -4.635890  -12.089000
  C    -44.007200   -5.886300  -13.053500
  C    -44.842400   -6.701990  -12.321500
  C    -44.942700   -6.301420  -10.947000
  C    -44.194500   -5.178280  -10.648200
  H    -45.373600   -7.604390  -12.725000
  C    -45.813400   -7.062590   -9.898360
  H    -46.838700   -6.942780  -10.159000
  H    -45.747100   -6.455870   -8.924160
  C    -45.277000   -8.499120   -9.622360
  H    -44.191500   -8.506740   -9.483870
  H    -45.357400   -9.062050  -10.531600
  C    -45.957700   -9.261360   -8.450740
  H    -45.772000   -8.650990   -7.580770
  H    -45.467500  -10.263900   -8.399920
  H    -47.022400   -9.347920   -8.592190
  H    -42.946800   -2.011220   -7.052840
  H    -43.868100   -6.004720  -14.125600

 Total Charge           Charge          ....    0
 Multiplicity           Mult            ....    1
 Number of Electrons    NEL             ....  134
 Basis Dimension        Dim             ....  322

ORBITAL ENERGIES
----------------

  NO   OCC          E(Eh)            E(eV)
   0   2.0000     -88.967802     -2420.9370
   1   2.0000     -88.962248     -2420.7858
   2   2.0000     -10.332100      -281.1507
   3   2.0000     -10.320592      -280.8376
   4   2.0000     -10.313805      -280.6529
   5   2.0000     -10.309173      -280.5269
   6   2.0000     -10.303358      -280.3686
   7   2.0000     -10.297624      -280.2126
   8   2.0000     -10.296088      -280.1708
   9   2.0000     -10.296042      -280.1695
  10   2.0000     -10.294274      -280.1214
  11   2.0000     -10.291160      -280.0367
  12   2.0000     -10.285034      -279.8700
  13   2.0000     -10.284694      -279.8608
  14   2.0000     -10.283379      -279.8250
  15   2.0000     -10.279321      -279.7146
  16   2.0000      -8.082302      -219.9306
  17   2.0000      -8.078968      -219.8399
  18   2.0000      -6.040813      -164.3789
  19   2.0000      -6.037386      -164.2856
  20   2.0000      -6.036835      -164.2706
  21   2.0000      -6.033080      -164.1685
  22   2.0000      -6.033024      -164.1669
  23   2.0000      -6.029850      -164.0806
  24   2.0000      -1.015147       -27.6235
  25   2.0000      -0.988725       -26.9046
  26   2.0000      -0.920570       -25.0500
  27   2.0000      -0.900741       -24.5104
  28   2.0000      -0.876092       -23.8397
  29   2.0000      -0.851126       -23.1603
  30   2.0000      -0.841731       -22.9047
  31   2.0000      -0.812207       -22.1013
  32   2.0000      -0.784981       -21.3604
  33   2.0000      -0.773768       -21.0553
  34   2.0000      -0.719200       -19.5704
  35   2.0000      -0.700494       -19.0614
  36   2.0000      -0.694478       -18.8977
  37   2.0000      -0.660402       -17.9704
  38   2.0000      -0.638144       -17.3648
  39   2.0000      -0.622251       -16.9323
  40   2.0000      -0.594349       -16.1731
  41   2.0000      -0.569941       -15.5089
  42   2.0000      -0.559476       -15.2241
  43   2.0000      -0.555630       -15.1195
  44   2.0000      -0.537886       -14.6366
  45   2.0000      -0.527900       -14.3649
  46   2.0000      -0.518300       -14.1037
  47   2.0000      -0.512804       -13.9541
  48   2.0000      -0.507575       -13.8118
  49   2.0000      -0.503328       -13.6963
  50   2.0000      -0.490696       -13.3525
  51   2.0000      -0.488022       -13.2798
  52   2.0000      -0.467074       -12.7097
  53   2.0000      -0.463572       -12.6144
  54   2.0000      -0.457372       -12.4457
  55   2.0000      -0.454430       -12.3657
  56   2.0000      -0.449454       -12.2303
  57   2.0000      -0.443673       -12.0729
  58   2.0000      -0.438700       -11.9376
  59   2.0000      -0.422963       -11.5094
  60   2.0000      -0.413581       -11.2541
  61   2.0000      -0.410672       -11.1749
  62   2.0000      -0.407709       -11.0943
  63   2.0000      -0.355544        -9.6749
  64   2.0000      -0.330331        -8.9888
  65   2.0000      -0.327863        -8.9216
  66   2.0000      -0.282535        -7.6882
  67   0.0000       0.021787         0.5928
  68   0.0000       0.084071         2.2877
  69   0.0000       0.109676         2.9844
  70   0.0000       0.117387         3.1943
  71   0.0000       0.135580         3.6893

MULLIKEN ATOMIC CHARGES
-----------------------
   0 S :    0.107862
   1 C :   -0.133744
   2 C :   -0.076176
   3 C :    0.011647
   4 C :   -0.143887
   5 H :    0.006553
   6 C :    0.107487
   7 H :    0.014560
   8 H :   -0.003139
   9 C :   -0.096135
  10 H :    0.033500
  11 H :    0.037400
  12 C :   -0.035855
  13 H :    0.032208
  14 H :    0.034948
  15 H :    0.049387
  16 S :    0.109667
  17 C :   -0.083648
  18 C :   -0.056953
  19 C :   -0.072936
  20 C :   -0.135773
  21 H :    0.035874
  22 C :    0.051090
  23 H :    0.029683
  24 H :    0.022777
  25 C :   -0.084536
  26 H :    0.034667
  27 H :    0.014023
  28 C :   -0.032149
  29 H :    0.032514
  30 H :    0.046899
  31 H :    0.030809
  32 H :    0.048324
  33 H :    0.063054
Sum of atomic charges:   -0.0000000

LOEWDIN ATOMIC CHARGES
----------------------
   0 S :    0.407579
   1 C :   -0.197110
   2 C :   -0.058631
   3 C :   -0.057274
   4 C :   -0.195106
   5 H :    0.018404
   6 C :   -0.046133
   7 H :    0.030416
   8 H :    0.034676
   9 C :   -0.043099
  10 H :    0.021241
  11 H :    0.031496
  12 C :   -0.055250
  13 H :    0.027455
  14 H :    0.022414
  15 H :    0.030993
  16 S :    0.444400
  17 C :   -0.208384
  18 C :   -0.082115
  19 C :   -0.056950
  20 C :   -0.214169
  21 H :    0.038662
  22 C :   -0.034870
  23 H :    0.024114
  24 H :    0.033608
  25 C :   -0.042269
  26 H :    0.029307
  27 H :    0.014576
  28 C :   -0.061211
  29 H :    0.023620
  30 H :    0.034950
  31 H :    0.021480
  32 H :    0.027572
  33 H :    0.035608

  Mayer bond orders larger than 0.100000
B(  0-S ,  1-C ) :   1.1220 B(  0-S ,  4-C ) :   1.1706 B(  1-C ,  2-C ) :   1.6185
B(  1-C ,  4-C ) :   0.1018 B(  1-C , 32-H ) :   0.9628 B(  2-C ,  3-C ) :   1.2474
B(  2-C ,  6-C ) :   1.0130 B(  3-C ,  4-C ) :   1.5109 B(  3-C ,  5-H ) :   0.9865
B(  4-C , 20-C ) :   1.0906 B(  6-C ,  7-H ) :   0.9284 B(  6-C ,  8-H ) :   0.9178
B(  6-C ,  9-C ) :   1.0419 B(  9-C , 10-H ) :   0.9634 B(  9-C , 11-H ) :   0.9571
B(  9-C , 12-C ) :   1.0668 B( 12-C , 13-H ) :   0.9766 B( 12-C , 14-H ) :   0.9807
B( 12-C , 15-H ) :   0.9760 B( 16-S , 17-C ) :   1.1818 B( 16-S , 20-C ) :   1.1464
B( 17-C , 18-C ) :   1.5669 B( 17-C , 33-H ) :   0.9690 B( 18-C , 19-C ) :   1.2781
B( 18-C , 21-H ) :   0.9842 B( 19-C , 20-C ) :   1.5732 B( 19-C , 22-C ) :   1.0307
B( 22-C , 23-H ) :   0.9370 B( 22-C , 24-H ) :   0.9345 B( 22-C , 25-C ) :   1.0484
B( 25-C , 26-H ) :   0.9563 B( 25-C , 27-H ) :   0.9570 B( 25-C , 28-C ) :   1.0806
B( 28-C , 29-H ) :   0.9776 B( 28-C , 30-H ) :   0.9739 B( 28-C , 31-H ) :   0.9763

Dispersion correction           -0.013634146
FINAL SINGLE POINT ENERGY     -1339.865963431717

DIPOLE MOMENT
-------------
                                X             Y             Z
Electronic contribution:     19.72933      12.26557     -21.76460
Nuclear contribution   :    -20.24136     -12.47500      22.12895
                        -----------------------------------------
Total Dipole Moment    :     -0.51203      -0.20943       0.36435
                        -----------------------------------------
Magnitude (a.u.)       :      0.66241
Magnitude (Debye)      :      1.68372

Rotational constants in cm-1:     0.016366     0.009302     0.006488
Rotational constants in MHz :   490.652195   278.879835   194.515872

                             ****ORCA TERMINATED NORMALLY****
TOTAL RUN TIME: 0 days 0 hours 0 minutes 21 seconds 438 msec
