                         Program Version 4.2.1 -  RELEASE  -
|  1> ! wB97X-D3 SP def2-SVP
|  2> %pal
|  3> nprocs 24
|  4> end
|  5>
|  6> * xyz 0 1
|  7> S 	 -75.376 	 -6.55344 	 3.12041
|  8> C 	 -73.7114 	 -6.0168 	 2.92478
|  9> C 	 -73.0056 	 -6.79358 	 2.04211
| 10> C 	 -73.8246 	 -7.84935 	 1.44634
| 11> C 	 -75.1107 	 -7.89293 	 1.89271
| 12> H 	 -73.3649 	 -8.60467 	 0.803023
| 13> C 	 -71.5908 	 -6.54162 	 1.752
| 14> H 	 -71.4683 	 -5.42795 	 1.7535
| 15> H 	 -71.2924 	 -6.84792 	 0.75986
| 16> C 	 -70.5442 	 -6.97699 	 2.76123
| 17> H 	 -69.6308 	 -6.41601 	 2.64
| 18> H 	 -70.8081 	 -6.77652 	 3.7734
| 19> C 	 -70.2274 	 -8.44132 	 2.67513
| 20> H 	 -71.1408 	 -8.96409 	 2.69937
| 21> H 	 -69.6483 	 -8.6744 	 1.75756
| 22> H 	 -69.6463 	 -8.66167 	 3.5539
| 23> S 	 -76.6945 	 -8.68233 	 -0.158767
| 24> C 	 -77.5711 	 -10.1816 	 -0.0198897
| 25> C 	 -77.6962 	 -10.557 	 1.30447
| 26> C 	 -76.8473 	 -9.81291 	 2.17154
| 27> C 	 -76.1296 	 -8.86679 	 1.50501
| 28> H 	 -78.3374 	 -11.3649 	 1.56776
| 29> C 	 -76.8214 	 -9.99594 	 3.71197
| 30> H 	 -77.7166 	 -10.4608 	 4.02389
| 31> H 	 -76.8507 	 -9.11548 	 4.29203
| 32> C 	 -75.6462 	 -10.7457 	 4.40927
| 33> H 	 -74.8738 	 -9.94232 	 4.3044
| 34> H 	 -75.4026 	 -11.7495 	 3.98965
| 35> C 	 -75.9051 	 -11.0322 	 5.83638
| 36> H 	 -76.7446 	 -11.6449 	 6.04873
| 37> H 	 -75.9906 	 -10.2007 	 6.52293
| 38> H 	 -75.0488 	 -11.5876 	 6.2536
| 39> H 	 -73.2088 	 -5.27712 	 3.54368
| 40> H 	 -78.038 	 -10.7551 	 -0.85145
| 41> *
| 42>
| 43>                          ****END OF INPUT****

CARTESIAN COORDINATES (ANGSTROEM)
---------------------------------
  S    -75.376000   -6.553440    3.120410
  C    -73.711400   -6.016800    2.924780
  C    -73.005600   -6.793580    2.042110
  C    -73.824600   -7.849350    1.446340
  C    -75.110700   -7.892930    1.892710
  H    -73.364900   -8.604670    0.803023
  C    -71.590800   -6.541620    1.752000
  H    -71.468300   -5.427950    1.753500
  H    -71.292400   -6.847920    0.759860
  C    -70.544200   -6.976990    2.761230
  H    -69.630800   -6.416010    2.640000
  H    -70.808100   -6.776520    3.773400
  C    -70.227400   -8.441320    2.675130
  H    -71.140800   -8.964090    2.699370
  H    -69.648300   -8.674400    1.757560
  H    -69.646300   -8.661670    3.553900
  S    -76.694500   -8.682330   -0.158767
  C    -77.571100  -10.181600   -0.019890
  C    -77.696200  -10.557000    1.304470
  C    -76.847300   -9.812910    2.171540
  C    -76.129600   -8.866790    1.505010
  H    -78.337400  -11.364900    1.567760
  C    -76.821400   -9.995940    3.711970
  H    -77.716600  -10.460800    4.023890
  H    -76.850700   -9.115480    4.292030
  C    -75.646200  -10.745700    4.409270
  H    -74.873800   -9.942320    4.304400
  H    -75.402600  -11.749500    3.989650
  C    -75.905100  -11.032200    5.836380
  H    -76.744600  -11.644900    6.048730
  H    -75.990600  -10.200700    6.522930
  H    -75.048800  -11.587600    6.253600
  H    -73.208800   -5.277120    3.543680
  H    -78.038000  -10.755100   -0.851450

 Total Charge           Charge          ....    0
 Multiplicity           Mult            ....    1
 Number of Electrons    NEL             ....  134
 Basis Dimension        Dim             ....  322

ORBITAL ENERGIES
----------------

  NO   OCC          E(Eh)            E(eV)
   0   2.0000     -88.966340     -2420.8972
   1   2.0000     -88.964291     -2420.8414
   2   2.0000     -10.335227      -281.2358
   3   2.0000     -10.324206      -280.9359
   4   2.0000     -10.319019      -280.7948
   5   2.0000     -10.314915      -280.6831
   6   2.0000     -10.305477      -280.4263
   7   2.0000     -10.299987      -280.2769
   8   2.0000     -10.299326      -280.2589
   9   2.0000     -10.292385      -280.0700
  10   2.0000     -10.288187      -279.9558
  11   2.0000     -10.286093      -279.8988
  12   2.0000     -10.283833      -279.8373
  13   2.0000     -10.276967      -279.6505
  14   2.0000     -10.269193      -279.4389
  15   2.0000     -10.268419      -279.4179
  16   2.0000      -8.079451      -219.8530
  17   2.0000      -8.079108      -219.8437
  18   2.0000      -6.038191      -164.3075
  19   2.0000      -6.037561      -164.2904
  20   2.0000      -6.034218      -164.1994
  21   2.0000      -6.033786      -164.1877
  22   2.0000      -6.030028      -164.0854
  23   2.0000      -6.029722      -164.0771
  24   2.0000      -1.004073       -27.3222
  25   2.0000      -0.981173       -26.6991
  26   2.0000      -0.918615       -24.9968
  27   2.0000      -0.908734       -24.7279
  28   2.0000      -0.871690       -23.7199
  29   2.0000      -0.853721       -23.2309
  30   2.0000      -0.846741       -23.0410
  31   2.0000      -0.817894       -22.2560
  32   2.0000      -0.785126       -21.3644
  33   2.0000      -0.771322       -20.9888
  34   2.0000      -0.705638       -19.2014
  35   2.0000      -0.701312       -19.0837
  36   2.0000      -0.688158       -18.7257
  37   2.0000      -0.663620       -18.0580
  38   2.0000      -0.636702       -17.3255
  39   2.0000      -0.616328       -16.7711
  40   2.0000      -0.599618       -16.3164
  41   2.0000      -0.579024       -15.7561
  42   2.0000      -0.569795       -15.5049
  43   2.0000      -0.557290       -15.1646
  44   2.0000      -0.536412       -14.5965
  45   2.0000      -0.519046       -14.1240
  46   2.0000      -0.518191       -14.1007
  47   2.0000      -0.514377       -13.9969
  48   2.0000      -0.509792       -13.8721
  49   2.0000      -0.495372       -13.4798
  50   2.0000      -0.493688       -13.4339
  51   2.0000      -0.477530       -12.9943
  52   2.0000      -0.469633       -12.7794
  53   2.0000      -0.465497       -12.6668
  54   2.0000      -0.464516       -12.6401
  55   2.0000      -0.451073       -12.2743
  56   2.0000      -0.440370       -11.9831
  57   2.0000      -0.437128       -11.8948
  58   2.0000      -0.426971       -11.6185
  59   2.0000      -0.422542       -11.4980
  60   2.0000      -0.418498       -11.3879
  61   2.0000      -0.416245       -11.3266
  62   2.0000      -0.408806       -11.1242
  63   2.0000      -0.340246        -9.2586
  64   2.0000      -0.330530        -8.9942
  65   2.0000      -0.323062        -8.7910
  66   2.0000      -0.303104        -8.2479
  67   0.0000       0.029176         0.7939
  68   0.0000       0.062795         1.7087
  69   0.0000       0.097756         2.6601
  70   0.0000       0.114604         3.1185
  71   0.0000       0.122135         3.3235

MULLIKEN ATOMIC CHARGES
-----------------------
   0 S :    0.095557
   1 C :   -0.113143
   2 C :   -0.093686
   3 C :    0.049516
   4 C :   -0.143128
   5 H :    0.025212
   6 C :    0.048972
   7 H :    0.030710
   8 H :    0.015390
   9 C :   -0.050746
  10 H :    0.017859
  11 H :    0.007470
  12 C :   -0.031788
  13 H :    0.023848
  14 H :    0.033179
  15 H :    0.028609
  16 S :    0.116106
  17 C :   -0.106027
  18 C :   -0.037230
  19 C :    0.031081
  20 C :   -0.188440
  21 H :    0.009785
  22 C :    0.087733
  23 H :   -0.010535
  24 H :    0.003645
  25 C :   -0.074918
  26 H :    0.044199
  27 H :    0.036500
  28 C :   -0.044932
  29 H :    0.019343
  30 H :    0.019487
  31 H :    0.029336
  32 H :    0.050123
  33 H :    0.070912
Sum of atomic charges:    0.0000000

LOEWDIN ATOMIC CHARGES
----------------------
   0 S :    0.360001
   1 C :   -0.184783
   2 C :   -0.069044
   3 C :   -0.052016
   4 C :   -0.175813
   5 H :    0.037008
   6 C :   -0.038565
   7 H :    0.041517
   8 H :    0.027946
   9 C :   -0.038699
  10 H :    0.021657
  11 H :    0.017798
  12 C :   -0.059025
  13 H :    0.018502
  14 H :    0.026755
  15 H :    0.025503
  16 S :    0.407164
  17 C :   -0.189893
  18 C :   -0.068101
  19 C :   -0.050090
  20 C :   -0.190256
  21 H :    0.028169
  22 C :   -0.029521
  23 H :    0.018168
  24 H :    0.022230
  25 C :   -0.040648
  26 H :    0.033359
  27 H :    0.029049
  28 C :   -0.070955
  29 H :    0.018955
  30 H :    0.021517
  31 H :    0.032584
  32 H :    0.030840
  33 H :    0.038687

  Mayer bond orders larger than 0.100000
B(  0-S ,  1-C ) :   1.1238 B(  0-S ,  4-C ) :   1.0995 B(  1-C ,  2-C ) :   1.6511
B(  1-C , 32-H ) :   0.9600 B(  2-C ,  3-C ) :   1.2032 B(  2-C ,  6-C ) :   1.0389
B(  3-C ,  4-C ) :   1.6159 B(  3-C ,  5-H ) :   0.9892 B(  4-C , 20-C ) :   1.0323
B(  6-C ,  7-H ) :   0.9341 B(  6-C ,  8-H ) :   0.9403 B(  6-C ,  9-C ) :   1.0750
B(  9-C , 10-H ) :   0.9511 B(  9-C , 11-H ) :   0.9531 B(  9-C , 12-C ) :   1.0860
B( 12-C , 13-H ) :   0.9771 B( 12-C , 14-H ) :   0.9753 B( 12-C , 15-H ) :   0.9728
B( 16-S , 17-C ) :   1.1536 B( 16-S , 20-C ) :   1.1447 B( 17-C , 18-C ) :   1.6099
B( 17-C , 33-H ) :   0.9627 B( 18-C , 19-C ) :   1.2316 B( 18-C , 21-H ) :   0.9962
B( 19-C , 20-C ) :   1.6090 B( 19-C , 22-C ) :   1.0301 B( 22-C , 23-H ) :   0.9349
B( 22-C , 24-H ) :   0.9403 B( 22-C , 25-C ) :   1.0530 B( 25-C , 26-H ) :   0.9564
B( 25-C , 27-H ) :   0.9551 B( 25-C , 28-C ) :   1.0966 B( 28-C , 29-H ) :   0.9711
B( 28-C , 30-H ) :   0.9692 B( 28-C , 31-H ) :   0.9697

Dispersion correction           -0.014346141
FINAL SINGLE POINT ENERGY     -1339.867513007651

DIPOLE MOMENT
-------------
                                X             Y             Z
Electronic contribution:    -17.91240       9.62170     -15.49950
Nuclear contribution   :     18.28241      -9.91345      15.74918
                        -----------------------------------------
Total Dipole Moment    :      0.37001      -0.29175       0.24968
                        -----------------------------------------
Magnitude (a.u.)       :      0.53326
Magnitude (Debye)      :      1.35543

Rotational constants in cm-1:     0.017158     0.008838     0.007298
Rotational constants in MHz :   514.370162   264.958375   218.794841

                             ****ORCA TERMINATED NORMALLY****
TOTAL RUN TIME: 0 days 0 hours 0 minutes 20 seconds 250 msec
