                         Program Version 4.2.1 -  RELEASE  -
|  1> ! wB97X-D3 SP def2-SVP
|  2> %pal
|  3> nprocs 24
|  4> end
|  5>
|  6> * xyz 0 1
|  7> S 	 -37.9565 	 17.7271 	 14.1463
|  8> C 	 -39.3144 	 17.556 	 15.2046
|  9> C 	 -39.3966 	 18.5249 	 16.1979
| 10> C 	 -38.2316 	 19.402 	 16.1994
| 11> C 	 -37.3654 	 19.1532 	 15.1024
| 12> H 	 -37.9605 	 20.1799 	 17.0036
| 13> C 	 -40.4938 	 18.4848 	 17.199
| 14> H 	 -40.2922 	 17.524 	 17.7069
| 15> H 	 -41.3811 	 18.4245 	 16.6016
| 16> C 	 -40.5816 	 19.666 	 18.2435
| 17> H 	 -39.6932 	 19.684 	 18.8846
| 18> H 	 -40.5486 	 20.6349 	 17.7746
| 19> C 	 -41.8987 	 19.8674 	 19.105
| 20> H 	 -42.7942 	 20.3337 	 18.6169
| 21> H 	 -42.3229 	 18.9213 	 19.4087
| 22> H 	 -41.659 	 20.3329 	 20.0431
| 23> S 	 -35.1847 	 19.3848 	 13.4857
| 24> C 	 -34.5389 	 20.9296 	 13.1527
| 25> C 	 -34.9192 	 21.7911 	 14.1787
| 26> C 	 -35.9036 	 21.3064 	 15.0532
| 27> C 	 -36.2267 	 19.9875 	 14.7094
| 28> H 	 -34.6846 	 22.8398 	 14.1674
| 29> C 	 -36.7717 	 22.3346 	 15.8796
| 30> H 	 -36.2894 	 22.4957 	 16.8455
| 31> H 	 -37.7406 	 21.9749 	 16.1467
| 32> C 	 -37.1891 	 23.65 	 15.2152
| 33> H 	 -36.2057 	 24.1121 	 14.971
| 34> H 	 -37.7854 	 24.2014 	 15.9578
| 35> C 	 -37.9759 	 23.5439 	 13.8867
| 36> H 	 -37.5195 	 24.054 	 13.0733
| 37> H 	 -38.953 	 23.8982 	 13.9717
| 38> H 	 -38.0468 	 22.415 	 13.7779
| 39> H 	 -39.9235 	 16.6431 	 15.2781
| 40> H 	 -33.8332 	 21.1242 	 12.4382
| 41> *
| 42>
| 43>                          ****END OF INPUT****

CARTESIAN COORDINATES (ANGSTROEM)
---------------------------------
  S    -37.956500   17.727100   14.146300
  C    -39.314400   17.556000   15.204600
  C    -39.396600   18.524900   16.197900
  C    -38.231600   19.402000   16.199400
  C    -37.365400   19.153200   15.102400
  H    -37.960500   20.179900   17.003600
  C    -40.493800   18.484800   17.199000
  H    -40.292200   17.524000   17.706900
  H    -41.381100   18.424500   16.601600
  C    -40.581600   19.666000   18.243500
  H    -39.693200   19.684000   18.884600
  H    -40.548600   20.634900   17.774600
  C    -41.898700   19.867400   19.105000
  H    -42.794200   20.333700   18.616900
  H    -42.322900   18.921300   19.408700
  H    -41.659000   20.332900   20.043100
  S    -35.184700   19.384800   13.485700
  C    -34.538900   20.929600   13.152700
  C    -34.919200   21.791100   14.178700
  C    -35.903600   21.306400   15.053200
  C    -36.226700   19.987500   14.709400
  H    -34.684600   22.839800   14.167400
  C    -36.771700   22.334600   15.879600
  H    -36.289400   22.495700   16.845500
  H    -37.740600   21.974900   16.146700
  C    -37.189100   23.650000   15.215200
  H    -36.205700   24.112100   14.971000
  H    -37.785400   24.201400   15.957800
  C    -37.975900   23.543900   13.886700
  H    -37.519500   24.054000   13.073300
  H    -38.953000   23.898200   13.971700
  H    -38.046800   22.415000   13.777900
  H    -39.923500   16.643100   15.278100
  H    -33.833200   21.124200   12.438200

 Total Charge           Charge          ....    0
 Multiplicity           Mult            ....    1
 Number of Electrons    NEL             ....  134
 Basis Dimension        Dim             ....  322

ORBITAL ENERGIES
----------------

  NO   OCC          E(Eh)            E(eV)
   0   2.0000     -88.969221     -2420.9756
   1   2.0000     -88.966779     -2420.9091
   2   2.0000     -10.338503      -281.3250
   3   2.0000     -10.329269      -281.0737
   4   2.0000     -10.310800      -280.5711
   5   2.0000     -10.310778      -280.5705
   6   2.0000     -10.306582      -280.4563
   7   2.0000     -10.305706      -280.4325
   8   2.0000     -10.304186      -280.3912
   9   2.0000     -10.296857      -280.1917
  10   2.0000     -10.296578      -280.1841
  11   2.0000     -10.293522      -280.1010
  12   2.0000     -10.291505      -280.0461
  13   2.0000     -10.289247      -279.9846
  14   2.0000     -10.284719      -279.8614
  15   2.0000     -10.270310      -279.4693
  16   2.0000      -8.082954      -219.9484
  17   2.0000      -8.082785      -219.9437
  18   2.0000      -6.041462      -164.3965
  19   2.0000      -6.041237      -164.3904
  20   2.0000      -6.037483      -164.2883
  21   2.0000      -6.037180      -164.2800
  22   2.0000      -6.033953      -164.1922
  23   2.0000      -6.033429      -164.1779
  24   2.0000      -1.010869       -27.5072
  25   2.0000      -0.980917       -26.6921
  26   2.0000      -0.909860       -24.7585
  27   2.0000      -0.905295       -24.6343
  28   2.0000      -0.867872       -23.6160
  29   2.0000      -0.851538       -23.1715
  30   2.0000      -0.843512       -22.9531
  31   2.0000      -0.813309       -22.1313
  32   2.0000      -0.788525       -21.4568
  33   2.0000      -0.771324       -20.9888
  34   2.0000      -0.717064       -19.5123
  35   2.0000      -0.694839       -18.9075
  36   2.0000      -0.692307       -18.8386
  37   2.0000      -0.657803       -17.8997
  38   2.0000      -0.630441       -17.1552
  39   2.0000      -0.617730       -16.8093
  40   2.0000      -0.603994       -16.4355
  41   2.0000      -0.568289       -15.4639
  42   2.0000      -0.560328       -15.2473
  43   2.0000      -0.556794       -15.1511
  44   2.0000      -0.548084       -14.9141
  45   2.0000      -0.524341       -14.2680
  46   2.0000      -0.515060       -14.0155
  47   2.0000      -0.508869       -13.8470
  48   2.0000      -0.500520       -13.6199
  49   2.0000      -0.494155       -13.4467
  50   2.0000      -0.490725       -13.3533
  51   2.0000      -0.480880       -13.0854
  52   2.0000      -0.474811       -12.9203
  53   2.0000      -0.469927       -12.7874
  54   2.0000      -0.457368       -12.4456
  55   2.0000      -0.452878       -12.3234
  56   2.0000      -0.446294       -12.1443
  57   2.0000      -0.441246       -12.0069
  58   2.0000      -0.434339       -11.8190
  59   2.0000      -0.426072       -11.5940
  60   2.0000      -0.416626       -11.3370
  61   2.0000      -0.415022       -11.2933
  62   2.0000      -0.395016       -10.7489
  63   2.0000      -0.359023        -9.7695
  64   2.0000      -0.336453        -9.1553
  65   2.0000      -0.327472        -8.9110
  66   2.0000      -0.276795        -7.5320
  67   0.0000       0.013246         0.3604
  68   0.0000       0.086890         2.3644
  69   0.0000       0.098905         2.6913
  70   0.0000       0.116855         3.1798
  71   0.0000       0.133347         3.6286

MULLIKEN ATOMIC CHARGES
-----------------------
   0 S :    0.112935
   1 C :   -0.133749
   2 C :   -0.113135
   3 C :   -0.044108
   4 C :   -0.104938
   5 H :    0.060903
   6 C :    0.073690
   7 H :    0.051643
   8 H :    0.038383
   9 C :   -0.096124
  10 H :    0.035505
  11 H :    0.029278
  12 C :   -0.051943
  13 H :    0.046928
  14 H :    0.013456
  15 H :    0.033062
  16 S :    0.110990
  17 C :   -0.060894
  18 C :   -0.034014
  19 C :   -0.042771
  20 C :   -0.146197
  21 H :    0.011635
  22 C :    0.029856
  23 H :    0.037305
  24 H :    0.013807
  25 C :   -0.105682
  26 H :    0.028920
  27 H :    0.038199
  28 C :   -0.019429
  29 H :    0.033596
  30 H :    0.019011
  31 H :    0.048300
  32 H :    0.057089
  33 H :    0.028492
Sum of atomic charges:    0.0000000

LOEWDIN ATOMIC CHARGES
----------------------
   0 S :    0.387290
   1 C :   -0.217506
   2 C :   -0.062800
   3 C :   -0.076904
   4 C :   -0.173845
   5 H :    0.047812
   6 C :   -0.035430
   7 H :    0.043481
   8 H :    0.034189
   9 C :   -0.044439
  10 H :    0.025571
  11 H :    0.023857
  12 C :   -0.071142
  13 H :    0.032693
  14 H :    0.019494
  15 H :    0.027437
  16 S :    0.439934
  17 C :   -0.184811
  18 C :   -0.065482
  19 C :   -0.064141
  20 C :   -0.202364
  21 H :    0.026020
  22 C :   -0.036075
  23 H :    0.033953
  24 H :    0.020389
  25 C :   -0.042569
  26 H :    0.019381
  27 H :    0.028957
  28 C :   -0.063078
  29 H :    0.024222
  30 H :    0.017295
  31 H :    0.042904
  32 H :    0.033788
  33 H :    0.011916

  Mayer bond orders larger than 0.100000
B(  0-S ,  1-C ) :   1.1328 B(  0-S ,  4-C ) :   1.1342 B(  1-C ,  2-C ) :   1.6181
B(  1-C , 32-H ) :   0.9631 B(  2-C ,  3-C ) :   1.2510 B(  2-C ,  6-C ) :   1.0009
B(  3-C ,  4-C ) :   1.5541 B(  3-C ,  5-H ) :   0.9641 B(  4-C , 20-C ) :   1.0962
B(  6-C ,  7-H ) :   0.9351 B(  6-C ,  8-H ) :   0.9441 B(  6-C ,  9-C ) :   1.0747
B(  9-C , 10-H ) :   0.9535 B(  9-C , 11-H ) :   0.9615 B(  9-C , 12-C ) :   1.0693
B( 12-C , 13-H ) :   0.9786 B( 12-C , 14-H ) :   0.9761 B( 12-C , 15-H ) :   0.9744
B( 16-S , 17-C ) :   1.1665 B( 16-S , 20-C ) :   1.1684 B( 17-C , 18-C ) :   1.5624
B( 17-C , 33-H ) :   0.9846 B( 18-C , 19-C ) :   1.3043 B( 18-C , 21-H ) :   0.9853
B( 19-C , 20-C ) :   1.5318 B( 19-C , 22-C ) :   1.0170 B( 22-C , 23-H ) :   0.9321
B( 22-C , 24-H ) :   0.9425 B( 22-C , 25-C ) :   1.0825 B( 25-C , 26-H ) :   0.9598
B( 25-C , 27-H ) :   0.9545 B( 25-C , 28-C ) :   1.0560 B( 28-C , 29-H ) :   0.9771
B( 28-C , 30-H ) :   0.9764 B( 28-C , 31-H ) :   0.9816

Dispersion correction           -0.014328506
FINAL SINGLE POINT ENERGY     -1339.843776588175

DIPOLE MOMENT
-------------
                                X             Y             Z
Electronic contribution:     18.68718     -18.10467     -16.93900
Nuclear contribution   :    -19.07208      18.53277      17.37230
                        -----------------------------------------
Total Dipole Moment    :     -0.38490       0.42809       0.43330
                        -----------------------------------------
Magnitude (a.u.)       :      0.72053
Magnitude (Debye)      :      1.83143

Rotational constants in cm-1:     0.018408     0.008993     0.006584
Rotational constants in MHz :   551.845186   269.603300   197.378590

                             ****ORCA TERMINATED NORMALLY****
TOTAL RUN TIME: 0 days 0 hours 0 minutes 20 seconds 572 msec
