                         Program Version 4.2.1 -  RELEASE  -
|  1> ! wB97X-D3 SP def2-SVP
|  2> %pal
|  3> nprocs 24
|  4> end
|  5>
|  6> * xyz 0 1
|  7> S 	 -66.8999 	 -48.0309 	 -90.66
|  8> C 	 -65.9252 	 -47.7659 	 -92.1325
|  9> C 	 -64.9944 	 -48.7361 	 -92.3496
| 10> C 	 -64.9068 	 -49.6056 	 -91.1792
| 11> C 	 -65.845 	 -49.3653 	 -90.2298
| 12> H 	 -64.175 	 -50.3968 	 -91.0593
| 13> C 	 -64.0929 	 -48.7888 	 -93.5814
| 14> H 	 -64.3299 	 -47.9457 	 -94.1947
| 15> H 	 -64.3913 	 -49.7381 	 -94.0858
| 16> C 	 -62.5636 	 -48.7415 	 -93.2994
| 17> H 	 -62.3815 	 -47.7853 	 -92.9035
| 18> H 	 -62.2648 	 -49.3511 	 -92.5134
| 19> C 	 -61.6923 	 -48.9655 	 -94.5017
| 20> H 	 -61.9686 	 -49.9076 	 -94.9228
| 21> H 	 -61.8682 	 -48.1416 	 -95.2589
| 22> H 	 -60.6284 	 -48.9798 	 -94.3092
| 23> S 	 -65.0841 	 -49.3814 	 -87.5499
| 24> C 	 -65.6115 	 -50.7129 	 -86.6849
| 25> C 	 -65.9939 	 -51.8154 	 -87.5038
| 26> C 	 -66.2699 	 -51.3935 	 -88.7943
| 27> C 	 -65.8941 	 -50.0761 	 -88.96
| 28> H 	 -66.1229 	 -52.7867 	 -87.0636
| 29> C 	 -66.7075 	 -52.3994 	 -89.8643
| 30> H 	 -66.19 	 -53.374 	 -89.6297
| 31> H 	 -66.2933 	 -52.0722 	 -90.8339
| 32> C 	 -68.2129 	 -52.4785 	 -90.104
| 33> H 	 -68.458 	 -53.1195 	 -90.9234
| 34> H 	 -68.4065 	 -51.6007 	 -90.5356
| 35> C 	 -69.0948 	 -52.82 	 -88.8946
| 36> H 	 -68.9803 	 -52.1585 	 -88.0863
| 37> H 	 -68.9603 	 -53.7814 	 -88.5336
| 38> H 	 -70.1128 	 -52.774 	 -89.234
| 39> H 	 -66.0426 	 -46.9835 	 -92.8977
| 40> H 	 -65.5143 	 -50.6877 	 -85.6174
| 41> *
| 42>
| 43>                          ****END OF INPUT****

CARTESIAN COORDINATES (ANGSTROEM)
---------------------------------
  S    -66.899900  -48.030900  -90.660000
  C    -65.925200  -47.765900  -92.132500
  C    -64.994400  -48.736100  -92.349600
  C    -64.906800  -49.605600  -91.179200
  C    -65.845000  -49.365300  -90.229800
  H    -64.175000  -50.396800  -91.059300
  C    -64.092900  -48.788800  -93.581400
  H    -64.329900  -47.945700  -94.194700
  H    -64.391300  -49.738100  -94.085800
  C    -62.563600  -48.741500  -93.299400
  H    -62.381500  -47.785300  -92.903500
  H    -62.264800  -49.351100  -92.513400
  C    -61.692300  -48.965500  -94.501700
  H    -61.968600  -49.907600  -94.922800
  H    -61.868200  -48.141600  -95.258900
  H    -60.628400  -48.979800  -94.309200
  S    -65.084100  -49.381400  -87.549900
  C    -65.611500  -50.712900  -86.684900
  C    -65.993900  -51.815400  -87.503800
  C    -66.269900  -51.393500  -88.794300
  C    -65.894100  -50.076100  -88.960000
  H    -66.122900  -52.786700  -87.063600
  C    -66.707500  -52.399400  -89.864300
  H    -66.190000  -53.374000  -89.629700
  H    -66.293300  -52.072200  -90.833900
  C    -68.212900  -52.478500  -90.104000
  H    -68.458000  -53.119500  -90.923400
  H    -68.406500  -51.600700  -90.535600
  C    -69.094800  -52.820000  -88.894600
  H    -68.980300  -52.158500  -88.086300
  H    -68.960300  -53.781400  -88.533600
  H    -70.112800  -52.774000  -89.234000
  H    -66.042600  -46.983500  -92.897700
  H    -65.514300  -50.687700  -85.617400

 Total Charge           Charge          ....    0
 Multiplicity           Mult            ....    1
 Number of Electrons    NEL             ....  134
 Basis Dimension        Dim             ....  322

ORBITAL ENERGIES
----------------

  NO   OCC          E(Eh)            E(eV)
   0   2.0000     -88.967932     -2420.9405
   1   2.0000     -88.963988     -2420.8332
   2   2.0000     -10.320935      -280.8469
   3   2.0000     -10.317624      -280.7568
   4   2.0000     -10.313023      -280.6316
   5   2.0000     -10.312518      -280.6179
   6   2.0000     -10.299832      -280.2727
   7   2.0000     -10.298222      -280.2289
   8   2.0000     -10.297301      -280.2038
   9   2.0000     -10.293338      -280.0960
  10   2.0000     -10.291490      -280.0457
  11   2.0000     -10.290198      -280.0105
  12   2.0000     -10.278605      -279.6951
  13   2.0000     -10.276354      -279.6338
  14   2.0000     -10.269850      -279.4568
  15   2.0000     -10.261096      -279.2186
  16   2.0000      -8.083983      -219.9764
  17   2.0000      -8.078095      -219.8161
  18   2.0000      -6.042013      -164.4115
  19   2.0000      -6.038583      -164.3182
  20   2.0000      -6.036755      -164.2685
  21   2.0000      -6.034892      -164.2178
  22   2.0000      -6.032831      -164.1617
  23   2.0000      -6.028595      -164.0464
  24   2.0000      -1.009195       -27.4616
  25   2.0000      -0.983950       -26.7746
  26   2.0000      -0.912972       -24.8432
  27   2.0000      -0.910696       -24.7813
  28   2.0000      -0.868885       -23.6436
  29   2.0000      -0.857367       -23.3301
  30   2.0000      -0.844268       -22.9737
  31   2.0000      -0.806977       -21.9590
  32   2.0000      -0.789964       -21.4960
  33   2.0000      -0.772026       -21.0079
  34   2.0000      -0.713980       -19.4284
  35   2.0000      -0.705392       -19.1947
  36   2.0000      -0.688525       -18.7357
  37   2.0000      -0.662320       -18.0226
  38   2.0000      -0.635980       -17.3059
  39   2.0000      -0.616389       -16.7728
  40   2.0000      -0.593189       -16.1415
  41   2.0000      -0.569430       -15.4950
  42   2.0000      -0.562491       -15.3061
  43   2.0000      -0.552624       -15.0377
  44   2.0000      -0.545929       -14.8555
  45   2.0000      -0.524970       -14.2852
  46   2.0000      -0.515202       -14.0194
  47   2.0000      -0.506848       -13.7920
  48   2.0000      -0.501454       -13.6453
  49   2.0000      -0.498884       -13.5753
  50   2.0000      -0.485736       -13.2176
  51   2.0000      -0.480975       -13.0880
  52   2.0000      -0.474772       -12.9192
  53   2.0000      -0.464969       -12.6524
  54   2.0000      -0.457272       -12.4430
  55   2.0000      -0.454805       -12.3759
  56   2.0000      -0.449264       -12.2251
  57   2.0000      -0.434592       -11.8259
  58   2.0000      -0.432657       -11.7732
  59   2.0000      -0.427486       -11.6325
  60   2.0000      -0.423279       -11.5180
  61   2.0000      -0.422090       -11.4857
  62   2.0000      -0.416227       -11.3261
  63   2.0000      -0.337549        -9.1852
  64   2.0000      -0.328807        -8.9473
  65   2.0000      -0.319147        -8.6844
  66   2.0000      -0.302636        -8.2352
  67   0.0000       0.036872         1.0033
  68   0.0000       0.063335         1.7234
  69   0.0000       0.104088         2.8324
  70   0.0000       0.115589         3.1453
  71   0.0000       0.134233         3.6527

MULLIKEN ATOMIC CHARGES
-----------------------
   0 S :    0.109755
   1 C :   -0.131135
   2 C :   -0.099383
   3 C :    0.043173
   4 C :   -0.179471
   5 H :    0.014398
   6 C :    0.079240
   7 H :    0.009669
   8 H :    0.042448
   9 C :   -0.040699
  10 H :    0.010527
  11 H :    0.010504
  12 C :   -0.039178
  13 H :    0.021323
  14 H :    0.033134
  15 H :    0.036641
  16 S :    0.145631
  17 C :   -0.104212
  18 C :   -0.045640
  19 C :   -0.002408
  20 C :   -0.194099
  21 H :    0.015100
  22 C :    0.058071
  23 H :    0.035152
  24 H :    0.016956
  25 C :   -0.000415
  26 H :    0.011518
  27 H :   -0.012300
  28 C :    0.000340
  29 H :    0.028254
  30 H :    0.009365
  31 H :    0.022465
  32 H :    0.044774
  33 H :    0.050504
Sum of atomic charges:   -0.0000000

LOEWDIN ATOMIC CHARGES
----------------------
   0 S :    0.379432
   1 C :   -0.190716
   2 C :   -0.063720
   3 C :   -0.057557
   4 C :   -0.198573
   5 H :    0.029651
   6 C :   -0.022078
   7 H :    0.025423
   8 H :    0.036371
   9 C :   -0.037832
  10 H :    0.020309
  11 H :    0.014378
  12 C :   -0.061112
  13 H :    0.019791
  14 H :    0.030818
  15 H :    0.026957
  16 S :    0.444090
  17 C :   -0.200019
  18 C :   -0.069888
  19 C :   -0.050121
  20 C :   -0.208211
  21 H :    0.028083
  22 C :   -0.026008
  23 H :    0.032646
  24 H :    0.031305
  25 C :   -0.029284
  26 H :    0.024661
  27 H :    0.009662
  28 C :   -0.051965
  29 H :    0.020264
  30 H :    0.015108
  31 H :    0.028325
  32 H :    0.031037
  33 H :    0.018772

  Mayer bond orders larger than 0.100000
B(  0-S ,  1-C ) :   1.1132 B(  0-S ,  4-C ) :   1.1203 B(  1-C ,  2-C ) :   1.6777
B(  1-C , 32-H ) :   0.9569 B(  2-C ,  3-C ) :   1.1827 B(  2-C ,  6-C ) :   1.0274
B(  3-C ,  4-C ) :   1.6415 B(  3-C ,  5-H ) :   0.9903 B(  4-C , 20-C ) :   1.0176
B(  6-C ,  7-H ) :   0.9397 B(  6-C ,  8-H ) :   0.9345 B(  6-C ,  9-C ) :   1.0557
B(  9-C , 10-H ) :   0.9493 B(  9-C , 11-H ) :   0.9564 B(  9-C , 12-C ) :   1.0910
B( 12-C , 13-H ) :   0.9751 B( 12-C , 14-H ) :   0.9744 B( 12-C , 15-H ) :   0.9728
B( 16-S , 17-C ) :   1.2082 B( 16-S , 20-C ) :   1.1651 B( 17-C , 18-C ) :   1.5349
B( 17-C , 20-C ) :   0.1110 B( 17-C , 33-H ) :   0.9738 B( 18-C , 19-C ) :   1.2737
B( 18-C , 21-H ) :   0.9992 B( 19-C , 20-C ) :   1.5703 B( 19-C , 22-C ) :   1.0205
B( 22-C , 23-H ) :   0.9478 B( 22-C , 24-H ) :   0.9258 B( 22-C , 25-C ) :   1.0770
B( 25-C , 26-H ) :   0.9487 B( 25-C , 27-H ) :   0.9455 B( 25-C , 28-C ) :   1.0815
B( 28-C , 29-H ) :   0.9735 B( 28-C , 30-H ) :   0.9747 B( 28-C , 31-H ) :   0.9711

Dispersion correction           -0.014539872
FINAL SINGLE POINT ENERGY     -1339.859516790290

DIPOLE MOMENT
-------------
                                X             Y             Z
Electronic contribution:     -4.12017      12.39076      16.76456
Nuclear contribution   :      4.46189     -12.77564     -17.06125
                        -----------------------------------------
Total Dipole Moment    :      0.34172      -0.38488      -0.29669
                        -----------------------------------------
Magnitude (a.u.)       :      0.59408
Magnitude (Debye)      :      1.51003

Rotational constants in cm-1:     0.019893     0.007562     0.007092
Rotational constants in MHz :   596.387130   226.706219   212.618914

                             ****ORCA TERMINATED NORMALLY****
TOTAL RUN TIME: 0 days 0 hours 0 minutes 21 seconds 530 msec
