                         Program Version 4.2.1 -  RELEASE  -
|  1> ! wB97X-D3 SP def2-SVP
|  2> %pal
|  3> nprocs 24
|  4> end
|  5>
|  6> * xyz 0 1
|  7> S 	 -101.248 	 41.8466 	 -88.3379
|  8> C 	 -102.473 	 42.0268 	 -89.574
|  9> C 	 -103.37 	 43.068 	 -89.3405
| 10> C 	 -102.853 	 43.8719 	 -88.2394
| 11> C 	 -101.753 	 43.3844 	 -87.5896
| 12> H 	 -103.23 	 44.794 	 -87.9036
| 13> C 	 -104.644 	 43.3669 	 -90.2166
| 14> H 	 -104.578 	 42.6578 	 -91.0609
| 15> H 	 -104.623 	 44.4332 	 -90.5066
| 16> C 	 -106.019 	 43.3037 	 -89.4606
| 17> H 	 -106.791 	 43.1325 	 -90.1517
| 18> H 	 -106.085 	 42.3416 	 -88.8869
| 19> C 	 -106.254 	 44.4543 	 -88.459
| 20> H 	 -106.309 	 45.4569 	 -88.9542
| 21> H 	 -107.263 	 44.4517 	 -87.9868
| 22> H 	 -105.467 	 44.5286 	 -87.7407
| 23> S 	 -99.2922 	 44.0957 	 -86.7076
| 24> C 	 -99.2012 	 44.9515 	 -85.1752
| 25> C 	 -100.376 	 45.0637 	 -84.5376
| 26> C 	 -101.453 	 44.5466 	 -85.249
| 27> C 	 -101.049 	 44.0344 	 -86.4832
| 28> H 	 -100.302 	 45.4174 	 -83.4853
| 29> C 	 -102.839 	 44.6577 	 -84.7103
| 30> H 	 -103.582 	 44.802 	 -85.4991
| 31> H 	 -103.027 	 45.4976 	 -84.0563
| 32> C 	 -103.23 	 43.4162 	 -83.9731
| 33> H 	 -102.72 	 43.1963 	 -83.1189
| 34> H 	 -103.033 	 42.537 	 -84.5691
| 35> C 	 -104.722 	 43.3791 	 -83.7183
| 36> H 	 -105.076 	 42.3543 	 -83.5098
| 37> H 	 -105.26 	 43.7449 	 -84.6283
| 38> H 	 -105.009 	 43.9399 	 -82.8143
| 39> H 	 -102.726 	 41.2026 	 -90.2622
| 40> H 	 -98.3608 	 45.3416 	 -84.647
| 41> *
| 42>
| 43>                          ****END OF INPUT****

CARTESIAN COORDINATES (ANGSTROEM)
---------------------------------
  S    -101.248000   41.846600  -88.337900
  C    -102.473000   42.026800  -89.574000
  C    -103.370000   43.068000  -89.340500
  C    -102.853000   43.871900  -88.239400
  C    -101.753000   43.384400  -87.589600
  H    -103.230000   44.794000  -87.903600
  C    -104.644000   43.366900  -90.216600
  H    -104.578000   42.657800  -91.060900
  H    -104.623000   44.433200  -90.506600
  C    -106.019000   43.303700  -89.460600
  H    -106.791000   43.132500  -90.151700
  H    -106.085000   42.341600  -88.886900
  C    -106.254000   44.454300  -88.459000
  H    -106.309000   45.456900  -88.954200
  H    -107.263000   44.451700  -87.986800
  H    -105.467000   44.528600  -87.740700
  S    -99.292200   44.095700  -86.707600
  C    -99.201200   44.951500  -85.175200
  C    -100.376000   45.063700  -84.537600
  C    -101.453000   44.546600  -85.249000
  C    -101.049000   44.034400  -86.483200
  H    -100.302000   45.417400  -83.485300
  C    -102.839000   44.657700  -84.710300
  H    -103.582000   44.802000  -85.499100
  H    -103.027000   45.497600  -84.056300
  C    -103.230000   43.416200  -83.973100
  H    -102.720000   43.196300  -83.118900
  H    -103.033000   42.537000  -84.569100
  C    -104.722000   43.379100  -83.718300
  H    -105.076000   42.354300  -83.509800
  H    -105.260000   43.744900  -84.628300
  H    -105.009000   43.939900  -82.814300
  H    -102.726000   41.202600  -90.262200
  H    -98.360800   45.341600  -84.647000

 Total Charge           Charge          ....    0
 Multiplicity           Mult            ....    1
 Number of Electrons    NEL             ....  134
 Basis Dimension        Dim             ....  322

ORBITAL ENERGIES
----------------

  NO   OCC          E(Eh)            E(eV)
   0   2.0000     -88.968002     -2420.9424
   1   2.0000     -88.966460     -2420.9004
   2   2.0000     -10.329919      -281.0914
   3   2.0000     -10.329519      -281.0805
   4   2.0000     -10.316843      -280.7356
   5   2.0000     -10.309842      -280.5451
   6   2.0000     -10.308892      -280.5192
   7   2.0000     -10.306799      -280.4623
   8   2.0000     -10.302770      -280.3526
   9   2.0000     -10.291741      -280.0525
  10   2.0000     -10.291472      -280.0452
  11   2.0000     -10.287548      -279.9384
  12   2.0000     -10.286849      -279.9194
  13   2.0000     -10.286352      -279.9059
  14   2.0000     -10.277932      -279.6767
  15   2.0000     -10.269284      -279.4414
  16   2.0000      -8.082234      -219.9288
  17   2.0000      -8.080680      -219.8865
  18   2.0000      -6.040715      -164.3762
  19   2.0000      -6.039301      -164.3377
  20   2.0000      -6.036975      -164.2744
  21   2.0000      -6.035326      -164.2296
  22   2.0000      -6.032870      -164.1627
  23   2.0000      -6.031287      -164.1197
  24   2.0000      -1.006765       -27.3955
  25   2.0000      -0.982460       -26.7341
  26   2.0000      -0.920218       -25.0404
  27   2.0000      -0.903850       -24.5950
  28   2.0000      -0.871418       -23.7125
  29   2.0000      -0.854582       -23.2544
  30   2.0000      -0.841229       -22.8910
  31   2.0000      -0.818007       -22.2591
  32   2.0000      -0.783097       -21.3092
  33   2.0000      -0.770683       -20.9713
  34   2.0000      -0.708662       -19.2837
  35   2.0000      -0.702916       -19.1273
  36   2.0000      -0.697194       -18.9716
  37   2.0000      -0.660323       -17.9683
  38   2.0000      -0.641186       -17.4476
  39   2.0000      -0.618907       -16.8413
  40   2.0000      -0.602920       -16.4063
  41   2.0000      -0.570126       -15.5139
  42   2.0000      -0.568224       -15.4622
  43   2.0000      -0.552479       -15.0337
  44   2.0000      -0.535336       -14.5672
  45   2.0000      -0.524523       -14.2730
  46   2.0000      -0.511095       -13.9076
  47   2.0000      -0.506593       -13.7851
  48   2.0000      -0.502150       -13.6642
  49   2.0000      -0.494310       -13.4509
  50   2.0000      -0.490362       -13.3434
  51   2.0000      -0.482533       -13.1304
  52   2.0000      -0.475055       -12.9269
  53   2.0000      -0.460719       -12.5368
  54   2.0000      -0.458941       -12.4884
  55   2.0000      -0.447016       -12.1639
  56   2.0000      -0.445611       -12.1257
  57   2.0000      -0.442828       -12.0500
  58   2.0000      -0.437463       -11.9040
  59   2.0000      -0.428346       -11.6559
  60   2.0000      -0.425962       -11.5910
  61   2.0000      -0.413793       -11.2599
  62   2.0000      -0.410778       -11.1778
  63   2.0000      -0.351470        -9.5640
  64   2.0000      -0.335174        -9.1205
  65   2.0000      -0.328132        -8.9289
  66   2.0000      -0.290670        -7.9095
  67   0.0000       0.029503         0.8028
  68   0.0000       0.069064         1.8793
  69   0.0000       0.106552         2.8994
  70   0.0000       0.117360         3.1935
  71   0.0000       0.128056         3.4846

MULLIKEN ATOMIC CHARGES
-----------------------
   0 S :    0.106506
   1 C :   -0.135000
   2 C :   -0.085054
   3 C :    0.030672
   4 C :   -0.135684
   5 H :   -0.005476
   6 C :    0.058872
   7 H :    0.031501
   8 H :    0.040238
   9 C :   -0.050983
  10 H :    0.020499
  11 H :    0.027950
  12 C :   -0.071854
  13 H :    0.026018
  14 H :    0.043022
  15 H :    0.034395
  16 S :    0.110661
  17 C :   -0.057586
  18 C :   -0.075343
  19 C :    0.015293
  20 C :   -0.187186
  21 H :    0.032797
  22 C :    0.092889
  23 H :    0.000332
  24 H :    0.019232
  25 C :   -0.035064
  26 H :   -0.000773
  27 H :    0.022425
  28 C :   -0.064953
  29 H :    0.031311
  30 H :    0.035395
  31 H :    0.030915
  32 H :    0.060664
  33 H :    0.033368
Sum of atomic charges:    0.0000000

LOEWDIN ATOMIC CHARGES
----------------------
   0 S :    0.383000
   1 C :   -0.202847
   2 C :   -0.058213
   3 C :   -0.062207
   4 C :   -0.186775
   5 H :    0.018936
   6 C :   -0.024544
   7 H :    0.033789
   8 H :    0.035452
   9 C :   -0.042722
  10 H :    0.017893
  11 H :    0.028980
  12 C :   -0.071961
  13 H :    0.027189
  14 H :    0.034924
  15 H :    0.018472
  16 S :    0.397644
  17 C :   -0.177942
  18 C :   -0.078511
  19 C :   -0.049787
  20 C :   -0.185780
  21 H :    0.043034
  22 C :   -0.027272
  23 H :    0.027097
  24 H :    0.030588
  25 C :   -0.036070
  26 H :    0.010938
  27 H :    0.027765
  28 C :   -0.066147
  29 H :    0.027241
  30 H :    0.027610
  31 H :    0.022994
  32 H :    0.031273
  33 H :    0.025961

  Mayer bond orders larger than 0.100000
B(  0-S ,  1-C ) :   1.1335 B(  0-S ,  4-C ) :   1.1208 B(  1-C ,  2-C ) :   1.6478
B(  1-C , 32-H ) :   0.9539 B(  2-C ,  3-C ) :   1.1973 B(  2-C ,  6-C ) :   1.0222
B(  3-C ,  4-C ) :   1.6242 B(  3-C ,  5-H ) :   0.9917 B(  4-C , 20-C ) :   1.0442
B(  6-C ,  7-H ) :   0.9422 B(  6-C ,  8-H ) :   0.9461 B(  6-C ,  9-C ) :   1.0526
B(  9-C , 10-H ) :   0.9589 B(  9-C , 11-H ) :   0.9538 B(  9-C , 12-C ) :   1.0701
B( 12-C , 13-H ) :   0.9721 B( 12-C , 14-H ) :   0.9709 B( 12-C , 15-H ) :   0.9751
B( 16-S , 17-C ) :   1.1342 B( 16-S , 20-C ) :   1.1355 B( 17-C , 18-C ) :   1.6680
B( 17-C , 33-H ) :   0.9598 B( 18-C , 19-C ) :   1.2286 B( 18-C , 21-H ) :   0.9800
B( 19-C , 20-C ) :   1.5964 B( 19-C , 22-C ) :   1.0459 B( 22-C , 23-H ) :   0.9304
B( 22-C , 24-H ) :   0.9332 B( 22-C , 25-C ) :   1.0641 B( 25-C , 26-H ) :   0.9484
B( 25-C , 27-H ) :   0.9531 B( 25-C , 28-C ) :   1.0875 B( 28-C , 29-H ) :   0.9742
B( 28-C , 30-H ) :   0.9738 B( 28-C , 31-H ) :   0.9732

Dispersion correction           -0.014718503
FINAL SINGLE POINT ENERGY     -1339.868999330254

DIPOLE MOMENT
-------------
                                X             Y             Z
Electronic contribution:     29.63198      -4.43092      -6.37933
Nuclear contribution   :    -30.26819       4.60178       6.66746
                        -----------------------------------------
Total Dipole Moment    :     -0.63621       0.17085       0.28813
                        -----------------------------------------
Magnitude (a.u.)       :      0.71901
Magnitude (Debye)      :      1.82758

Rotational constants in cm-1:     0.017097     0.010054     0.007275
Rotational constants in MHz :   512.559148   301.406899   218.087978

                             ****ORCA TERMINATED NORMALLY****
TOTAL RUN TIME: 0 days 0 hours 0 minutes 22 seconds 352 msec
