                         Program Version 4.2.1 -  RELEASE  -
|  1> ! wB97X-D3 SP def2-SVP
|  2> %pal
|  3> nprocs 24
|  4> end
|  5>
|  6> * xyz 0 1
|  7> S 	 46.8635 	 -35.8244 	 -118.935
|  8> C 	 45.8584 	 -34.8873 	 -120.125
|  9> C 	 46.3148 	 -33.5345 	 -120.114
| 10> C 	 47.4201 	 -33.2811 	 -119.158
| 11> C 	 47.9323 	 -34.4325 	 -118.591
| 12> H 	 47.8269 	 -32.286 	 -118.959
| 13> C 	 45.6867 	 -32.4155 	 -120.915
| 14> H 	 45.6917 	 -32.5019 	 -121.985
| 15> H 	 46.3638 	 -31.5785 	 -120.65
| 16> C 	 44.2519 	 -32.0349 	 -120.556
| 17> H 	 43.8487 	 -31.3168 	 -121.22
| 18> H 	 43.6359 	 -32.927 	 -120.601
| 19> C 	 44.2805 	 -31.5471 	 -119.057
| 20> H 	 44.4558 	 -32.4027 	 -118.383
| 21> H 	 45.1173 	 -30.8344 	 -118.781
| 22> H 	 43.2309 	 -31.1097 	 -118.917
| 23> S 	 50.5128 	 -35.0756 	 -118.313
| 24> C 	 51.2058 	 -35.2159 	 -116.647
| 25> C 	 50.2818 	 -34.8805 	 -115.711
| 26> C 	 48.9868 	 -34.4384 	 -116.243
| 27> C 	 49.0261 	 -34.4702 	 -117.653
| 28> H 	 50.5289 	 -34.9204 	 -114.701
| 29> C 	 47.8777 	 -33.9063 	 -115.422
| 30> H 	 47.7514 	 -34.5713 	 -114.566
| 31> H 	 46.9662 	 -33.9431 	 -116.043
| 32> C 	 47.9263 	 -32.4357 	 -114.915
| 33> H 	 48.8827 	 -32.2257 	 -114.414
| 34> H 	 47.1449 	 -32.4347 	 -114.174
| 35> C 	 47.6332 	 -31.3546 	 -115.937
| 36> H 	 48.3385 	 -31.3922 	 -116.797
| 37> H 	 47.8164 	 -30.431 	 -115.38
| 38> H 	 46.5961 	 -31.4154 	 -116.377
| 39> H 	 45.029 	 -35.1848 	 -120.732
| 40> H 	 52.2062 	 -35.4491 	 -116.423
| 41> *
| 42>
| 43>                          ****END OF INPUT****

CARTESIAN COORDINATES (ANGSTROEM)
---------------------------------
  S     46.863500  -35.824400  -118.935000
  C     45.858400  -34.887300  -120.125000
  C     46.314800  -33.534500  -120.114000
  C     47.420100  -33.281100  -119.158000
  C     47.932300  -34.432500  -118.591000
  H     47.826900  -32.286000  -118.959000
  C     45.686700  -32.415500  -120.915000
  H     45.691700  -32.501900  -121.985000
  H     46.363800  -31.578500  -120.650000
  C     44.251900  -32.034900  -120.556000
  H     43.848700  -31.316800  -121.220000
  H     43.635900  -32.927000  -120.601000
  C     44.280500  -31.547100  -119.057000
  H     44.455800  -32.402700  -118.383000
  H     45.117300  -30.834400  -118.781000
  H     43.230900  -31.109700  -118.917000
  S     50.512800  -35.075600  -118.313000
  C     51.205800  -35.215900  -116.647000
  C     50.281800  -34.880500  -115.711000
  C     48.986800  -34.438400  -116.243000
  C     49.026100  -34.470200  -117.653000
  H     50.528900  -34.920400  -114.701000
  C     47.877700  -33.906300  -115.422000
  H     47.751400  -34.571300  -114.566000
  H     46.966200  -33.943100  -116.043000
  C     47.926300  -32.435700  -114.915000
  H     48.882700  -32.225700  -114.414000
  H     47.144900  -32.434700  -114.174000
  C     47.633200  -31.354600  -115.937000
  H     48.338500  -31.392200  -116.797000
  H     47.816400  -30.431000  -115.380000
  H     46.596100  -31.415400  -116.377000
  H     45.029000  -35.184800  -120.732000
  H     52.206200  -35.449100  -116.423000

 Total Charge           Charge          ....    0
 Multiplicity           Mult            ....    1
 Number of Electrons    NEL             ....  134
 Basis Dimension        Dim             ....  322

ORBITAL ENERGIES
----------------

  NO   OCC          E(Eh)            E(eV)
   0   2.0000     -88.968689     -2420.9611
   1   2.0000     -88.964402     -2420.8444
   2   2.0000     -10.331657      -281.1387
   3   2.0000     -10.325133      -280.9612
   4   2.0000     -10.323701      -280.9222
   5   2.0000     -10.317583      -280.7557
   6   2.0000     -10.310410      -280.5605
   7   2.0000     -10.308427      -280.5066
   8   2.0000     -10.301847      -280.3275
   9   2.0000     -10.292924      -280.0847
  10   2.0000     -10.290420      -280.0166
  11   2.0000     -10.288366      -279.9607
  12   2.0000     -10.288099      -279.9534
  13   2.0000     -10.287523      -279.9377
  14   2.0000     -10.285838      -279.8919
  15   2.0000     -10.283906      -279.8393
  16   2.0000      -8.081242      -219.9018
  17   2.0000      -8.078683      -219.8322
  18   2.0000      -6.040091      -164.3592
  19   2.0000      -6.037293      -164.2831
  20   2.0000      -6.035994      -164.2477
  21   2.0000      -6.033272      -164.1737
  22   2.0000      -6.031789      -164.1333
  23   2.0000      -6.029324      -164.0663
  24   2.0000      -0.998748       -27.1773
  25   2.0000      -0.969460       -26.3803
  26   2.0000      -0.910951       -24.7882
  27   2.0000      -0.909161       -24.7395
  28   2.0000      -0.868641       -23.6369
  29   2.0000      -0.848723       -23.0949
  30   2.0000      -0.835096       -22.7241
  31   2.0000      -0.815434       -22.1891
  32   2.0000      -0.777880       -21.1672
  33   2.0000      -0.767091       -20.8736
  34   2.0000      -0.710348       -19.3295
  35   2.0000      -0.702590       -19.1185
  36   2.0000      -0.692349       -18.8398
  37   2.0000      -0.661856       -18.0100
  38   2.0000      -0.635856       -17.3025
  39   2.0000      -0.610551       -16.6139
  40   2.0000      -0.596179       -16.2228
  41   2.0000      -0.572633       -15.5821
  42   2.0000      -0.555521       -15.1165
  43   2.0000      -0.546717       -14.8769
  44   2.0000      -0.543333       -14.7848
  45   2.0000      -0.539443       -14.6790
  46   2.0000      -0.524524       -14.2730
  47   2.0000      -0.512399       -13.9431
  48   2.0000      -0.504140       -13.7184
  49   2.0000      -0.496167       -13.5014
  50   2.0000      -0.487658       -13.2698
  51   2.0000      -0.477221       -12.9858
  52   2.0000      -0.465492       -12.6667
  53   2.0000      -0.460192       -12.5225
  54   2.0000      -0.455673       -12.3995
  55   2.0000      -0.442681       -12.0460
  56   2.0000      -0.440408       -11.9841
  57   2.0000      -0.436879       -11.8881
  58   2.0000      -0.432868       -11.7789
  59   2.0000      -0.425333       -11.5739
  60   2.0000      -0.419433       -11.4133
  61   2.0000      -0.414832       -11.2882
  62   2.0000      -0.406403       -11.0588
  63   2.0000      -0.337369        -9.1803
  64   2.0000      -0.328653        -8.9431
  65   2.0000      -0.316611        -8.6154
  66   2.0000      -0.308145        -8.3850
  67   0.0000       0.040231         1.0947
  68   0.0000       0.043823         1.1925
  69   0.0000       0.103789         2.8242
  70   0.0000       0.115086         3.1317
  71   0.0000       0.119236         3.2446

MULLIKEN ATOMIC CHARGES
-----------------------
   0 S :    0.111635
   1 C :   -0.108951
   2 C :   -0.114370
   3 C :    0.029969
   4 C :   -0.138027
   5 H :    0.022174
   6 C :    0.045986
   7 H :    0.032982
   8 H :    0.019040
   9 C :   -0.036434
  10 H :    0.028664
  11 H :    0.025639
  12 C :   -0.122341
  13 H :    0.054791
  14 H :    0.042013
  15 H :    0.048062
  16 S :    0.102057
  17 C :   -0.072979
  18 C :    0.003604
  19 C :   -0.026324
  20 C :   -0.194492
  21 H :   -0.004390
  22 C :    0.057149
  23 H :    0.027041
  24 H :    0.026744
  25 C :   -0.056283
  26 H :    0.027871
  27 H :    0.026607
  28 C :   -0.071444
  29 H :    0.039090
  30 H :    0.040157
  31 H :    0.045703
  32 H :    0.048126
  33 H :    0.040933
Sum of atomic charges:   -0.0000000

LOEWDIN ATOMIC CHARGES
----------------------
   0 S :    0.371359
   1 C :   -0.182223
   2 C :   -0.055494
   3 C :   -0.060043
   4 C :   -0.191183
   5 H :    0.031936
   6 C :   -0.040741
   7 H :    0.027988
   8 H :    0.030120
   9 C :   -0.032293
  10 H :    0.018353
  11 H :    0.022854
  12 C :   -0.077874
  13 H :    0.027871
  14 H :    0.026342
  15 H :    0.032938
  16 S :    0.392071
  17 C :   -0.155744
  18 C :   -0.057691
  19 C :   -0.046226
  20 C :   -0.211246
  21 H :    0.021259
  22 C :   -0.039613
  23 H :    0.033421
  24 H :    0.034959
  25 C :   -0.035354
  26 H :    0.023802
  27 H :    0.024556
  28 C :   -0.070794
  29 H :    0.024570
  30 H :    0.031376
  31 H :    0.030968
  32 H :    0.028412
  33 H :    0.021368

  Mayer bond orders larger than 0.100000
B(  0-S ,  1-C ) :   1.1177 B(  0-S ,  4-C ) :   1.1204 B(  1-C ,  2-C ) :   1.6187
B(  1-C , 32-H ) :   0.9729 B(  2-C ,  3-C ) :   1.2171 B(  2-C ,  6-C ) :   1.0172
B(  3-C ,  4-C ) :   1.6080 B(  3-C ,  5-H ) :   0.9804 B(  4-C , 20-C ) :   1.0299
B(  6-C ,  7-H ) :   0.9414 B(  6-C ,  8-H ) :   0.9470 B(  6-C ,  9-C ) :   1.0779
B(  9-C , 10-H ) :   0.9596 B(  9-C , 11-H ) :   0.9540 B(  9-C , 12-C ) :   1.0569
B( 12-C , 13-H ) :   0.9741 B( 12-C , 14-H ) :   0.9769 B( 12-C , 15-H ) :   0.9749
B( 16-S , 17-C ) :   1.1263 B( 16-S , 20-C ) :   1.1457 B( 17-C , 18-C ) :   1.6469
B( 17-C , 33-H ) :   0.9735 B( 18-C , 19-C ) :   1.2021 B( 18-C , 21-H ) :   0.9973
B( 19-C , 20-C ) :   1.5901 B( 19-C , 22-C ) :   1.0730 B( 22-C , 23-H ) :   0.9255
B( 22-C , 24-H ) :   0.9239 B( 22-C , 25-C ) :   1.0654 B( 25-C , 26-H ) :   0.9566
B( 25-C , 27-H ) :   0.9513 B( 25-C , 28-C ) :   1.0856 B( 28-C , 29-H ) :   0.9715
B( 28-C , 30-H ) :   0.9685 B( 28-C , 31-H ) :   0.9699

Dispersion correction           -0.016230740
FINAL SINGLE POINT ENERGY     -1339.868280381336

DIPOLE MOMENT
-------------
                                X             Y             Z
Electronic contribution:     16.49306     -21.90353      -5.87991
Nuclear contribution   :    -16.74302      22.37468       6.21589
                        -----------------------------------------
Total Dipole Moment    :     -0.24997       0.47115       0.33597
                        -----------------------------------------
Magnitude (a.u.)       :      0.63035
Magnitude (Debye)      :      1.60222

Rotational constants in cm-1:     0.020311     0.009483     0.007482
Rotational constants in MHz :   608.921721   284.296421   224.290261

                             ****ORCA TERMINATED NORMALLY****
TOTAL RUN TIME: 0 days 0 hours 0 minutes 21 seconds 734 msec
