                         Program Version 4.2.1 -  RELEASE  -
|  1> ! wB97X-D3 SP def2-SVP
|  2> %pal
|  3> nprocs 24
|  4> end
|  5>
|  6> * xyz 0 1
|  7> S 	 -121.987 	 25.1991 	 -112.66
|  8> C 	 -121.072 	 26.2823 	 -111.703
|  9> C 	 -121.937 	 27.3044 	 -111.217
| 10> C 	 -123.283 	 27.3102 	 -111.668
| 11> C 	 -123.491 	 26.1895 	 -112.457
| 12> H 	 -124.015 	 28.0419 	 -111.393
| 13> C 	 -121.51 	 28.4352 	 -110.224
| 14> H 	 -122.396 	 29.0378 	 -109.961
| 15> H 	 -120.959 	 29.1883 	 -110.758
| 16> C 	 -120.955 	 28.0471 	 -108.824
| 17> H 	 -121.71 	 27.5122 	 -108.266
| 18> H 	 -120.249 	 27.2727 	 -108.937
| 19> C 	 -120.134 	 29.164 	 -108.104
| 20> H 	 -119.416 	 28.9187 	 -107.302
| 21> H 	 -119.611 	 29.8414 	 -108.846
| 22> H 	 -120.898 	 29.8095 	 -107.724
| 23> S 	 -124.89 	 25.778 	 -114.749
| 24> C 	 -126.607 	 25.3174 	 -114.734
| 25> C 	 -126.994 	 25.0546 	 -113.412
| 26> C 	 -125.988 	 25.361 	 -112.467
| 27> C 	 -124.744 	 25.7186 	 -113.006
| 28> H 	 -128.043 	 24.8334 	 -113.124
| 29> C 	 -126.188 	 25.3599 	 -110.944
| 30> H 	 -125.246 	 25.3908 	 -110.366
| 31> H 	 -126.612 	 24.4318 	 -110.622
| 32> C 	 -127.054 	 26.5978 	 -110.575
| 33> H 	 -127.858 	 26.7355 	 -111.337
| 34> H 	 -126.484 	 27.4668 	 -110.67
| 35> C 	 -127.683 	 26.6236 	 -109.216
| 36> H 	 -126.834 	 26.6999 	 -108.437
| 37> H 	 -128.297 	 25.6886 	 -109.128
| 38> H 	 -128.535 	 27.4069 	 -109.107
| 39> H 	 -120.116 	 26.156 	 -111.466
| 40> H 	 -127.304 	 25.1325 	 -115.603
| 41> *
| 42>
| 43>                          ****END OF INPUT****

CARTESIAN COORDINATES (ANGSTROEM)
---------------------------------
  S    -121.987000   25.199100  -112.660000
  C    -121.072000   26.282300  -111.703000
  C    -121.937000   27.304400  -111.217000
  C    -123.283000   27.310200  -111.668000
  C    -123.491000   26.189500  -112.457000
  H    -124.015000   28.041900  -111.393000
  C    -121.510000   28.435200  -110.224000
  H    -122.396000   29.037800  -109.961000
  H    -120.959000   29.188300  -110.758000
  C    -120.955000   28.047100  -108.824000
  H    -121.710000   27.512200  -108.266000
  H    -120.249000   27.272700  -108.937000
  C    -120.134000   29.164000  -108.104000
  H    -119.416000   28.918700  -107.302000
  H    -119.611000   29.841400  -108.846000
  H    -120.898000   29.809500  -107.724000
  S    -124.890000   25.778000  -114.749000
  C    -126.607000   25.317400  -114.734000
  C    -126.994000   25.054600  -113.412000
  C    -125.988000   25.361000  -112.467000
  C    -124.744000   25.718600  -113.006000
  H    -128.043000   24.833400  -113.124000
  C    -126.188000   25.359900  -110.944000
  H    -125.246000   25.390800  -110.366000
  H    -126.612000   24.431800  -110.622000
  C    -127.054000   26.597800  -110.575000
  H    -127.858000   26.735500  -111.337000
  H    -126.484000   27.466800  -110.670000
  C    -127.683000   26.623600  -109.216000
  H    -126.834000   26.699900  -108.437000
  H    -128.297000   25.688600  -109.128000
  H    -128.535000   27.406900  -109.107000
  H    -120.116000   26.156000  -111.466000
  H    -127.304000   25.132500  -115.603000

 Total Charge           Charge          ....    0
 Multiplicity           Mult            ....    1
 Number of Electrons    NEL             ....  134
 Basis Dimension        Dim             ....  322

ORBITAL ENERGIES
----------------

  NO   OCC          E(Eh)            E(eV)
   0   2.0000     -88.970557     -2421.0119
   1   2.0000     -88.965054     -2420.8622
   2   2.0000     -10.335901      -281.2542
   3   2.0000     -10.328014      -281.0396
   4   2.0000     -10.325077      -280.9596
   5   2.0000     -10.311731      -280.5965
   6   2.0000     -10.308377      -280.5052
   7   2.0000     -10.306090      -280.4430
   8   2.0000     -10.299939      -280.2756
   9   2.0000     -10.299712      -280.2694
  10   2.0000     -10.293260      -280.0938
  11   2.0000     -10.292471      -280.0724
  12   2.0000     -10.291860      -280.0557
  13   2.0000     -10.285168      -279.8736
  14   2.0000     -10.284930      -279.8672
  15   2.0000     -10.281293      -279.7682
  16   2.0000      -8.084848      -219.9999
  17   2.0000      -8.079230      -219.8470
  18   2.0000      -6.043251      -164.4452
  19   2.0000      -6.039316      -164.3381
  20   2.0000      -6.037809      -164.2971
  21   2.0000      -6.035837      -164.2435
  22   2.0000      -6.033615      -164.1830
  23   2.0000      -6.030128      -164.0881
  24   2.0000      -1.003712       -27.3124
  25   2.0000      -0.981094       -26.6969
  26   2.0000      -0.907297       -24.6888
  27   2.0000      -0.901271       -24.5248
  28   2.0000      -0.872028       -23.7291
  29   2.0000      -0.853955       -23.2373
  30   2.0000      -0.846215       -23.0267
  31   2.0000      -0.812442       -22.1077
  32   2.0000      -0.776740       -21.1362
  33   2.0000      -0.764273       -20.7969
  34   2.0000      -0.711017       -19.3477
  35   2.0000      -0.702138       -19.1061
  36   2.0000      -0.692319       -18.8390
  37   2.0000      -0.662002       -18.0140
  38   2.0000      -0.653648       -17.7867
  39   2.0000      -0.618759       -16.8373
  40   2.0000      -0.593035       -16.1373
  41   2.0000      -0.566549       -15.4166
  42   2.0000      -0.560576       -15.2541
  43   2.0000      -0.552893       -15.0450
  44   2.0000      -0.524802       -14.2806
  45   2.0000      -0.522673       -14.2227
  46   2.0000      -0.521517       -14.1912
  47   2.0000      -0.512560       -13.9475
  48   2.0000      -0.510216       -13.8837
  49   2.0000      -0.499184       -13.5835
  50   2.0000      -0.497049       -13.5254
  51   2.0000      -0.486093       -13.2273
  52   2.0000      -0.467259       -12.7148
  53   2.0000      -0.464232       -12.6324
  54   2.0000      -0.461042       -12.5456
  55   2.0000      -0.448627       -12.2078
  56   2.0000      -0.443054       -12.0561
  57   2.0000      -0.435117       -11.8401
  58   2.0000      -0.423769       -11.5313
  59   2.0000      -0.421641       -11.4734
  60   2.0000      -0.418429       -11.3860
  61   2.0000      -0.412263       -11.2182
  62   2.0000      -0.402112       -10.9420
  63   2.0000      -0.347959        -9.4685
  64   2.0000      -0.332094        -9.0367
  65   2.0000      -0.324482        -8.8296
  66   2.0000      -0.296743        -8.0748
  67   0.0000       0.031186         0.8486
  68   0.0000       0.054241         1.4760
  69   0.0000       0.112787         3.0691
  70   0.0000       0.120596         3.2816
  71   0.0000       0.126990         3.4556

MULLIKEN ATOMIC CHARGES
-----------------------
   0 S :    0.121794
   1 C :   -0.048932
   2 C :   -0.103842
   3 C :    0.057144
   4 C :   -0.153971
   5 H :    0.022470
   6 C :    0.038531
   7 H :    0.010218
   8 H :    0.031410
   9 C :   -0.043613
  10 H :    0.027204
  11 H :    0.006953
  12 C :   -0.072298
  13 H :    0.053188
  14 H :    0.035863
  15 H :    0.023229
  16 S :    0.105934
  17 C :   -0.118168
  18 C :   -0.044484
  19 C :   -0.038114
  20 C :   -0.170063
  21 H :    0.035502
  22 C :    0.087166
  23 H :    0.033505
  24 H :    0.014747
  25 C :   -0.074266
  26 H :    0.025010
  27 H :    0.005952
  28 C :   -0.082068
  29 H :    0.051137
  30 H :    0.031661
  31 H :    0.048850
  32 H :   -0.001310
  33 H :    0.083660
Sum of atomic charges:   -0.0000000

LOEWDIN ATOMIC CHARGES
----------------------
   0 S :    0.413814
   1 C :   -0.187666
   2 C :   -0.055622
   3 C :   -0.049352
   4 C :   -0.179395
   5 H :    0.035911
   6 C :   -0.036043
   7 H :    0.027458
   8 H :    0.027231
   9 C :   -0.042929
  10 H :    0.025546
  11 H :    0.012392
  12 C :   -0.071872
  13 H :    0.031648
  14 H :    0.033180
  15 H :    0.020448
  16 S :    0.404992
  17 C :   -0.190160
  18 C :   -0.080452
  19 C :   -0.051608
  20 C :   -0.211100
  21 H :    0.038008
  22 C :   -0.025276
  23 H :    0.033925
  24 H :    0.023491
  25 C :   -0.048810
  26 H :    0.026035
  27 H :    0.012508
  28 C :   -0.081600
  29 H :    0.034495
  30 H :    0.025826
  31 H :    0.037640
  32 H :    0.000652
  33 H :    0.046685

  Mayer bond orders larger than 0.100000
B(  0-S ,  1-C ) :   1.1524 B(  0-S ,  4-C ) :   1.1648 B(  1-C ,  2-C ) :   1.5655
B(  1-C ,  4-C ) :   0.1083 B(  1-C , 32-H ) :   0.9927 B(  2-C ,  3-C ) :   1.2651
B(  2-C ,  6-C ) :   1.0144 B(  3-C ,  4-C ) :   1.5408 B(  3-C ,  5-H ) :   0.9989
B(  4-C , 20-C ) :   1.0193 B(  6-C ,  7-H ) :   0.9483 B(  6-C ,  8-H ) :   0.9440
B(  6-C ,  9-C ) :   1.0456 B(  9-C , 10-H ) :   0.9585 B(  9-C , 11-H ) :   0.9641
B(  9-C , 12-C ) :   1.0515 B( 12-C , 13-H ) :   0.9778 B( 12-C , 14-H ) :   0.9756
B( 12-C , 15-H ) :   0.9798 B( 16-S , 17-C ) :   1.1669 B( 16-S , 20-C ) :   1.1476
B( 17-C , 18-C ) :   1.5788 B( 17-C , 20-C ) :   0.1123 B( 17-C , 33-H ) :   0.9599
B( 18-C , 19-C ) :   1.2750 B( 18-C , 21-H ) :   0.9782 B( 19-C , 20-C ) :   1.5804
B( 19-C , 22-C ) :   1.0436 B( 22-C , 23-H ) :   0.9351 B( 22-C , 24-H ) :   0.9404
B( 22-C , 25-C ) :   1.0426 B( 25-C , 26-H ) :   0.9589 B( 25-C , 27-H ) :   0.9495
B( 25-C , 28-C ) :   1.0847 B( 28-C , 29-H ) :   0.9700 B( 28-C , 30-H ) :   0.9739
B( 28-C , 31-H ) :   0.9709

Dispersion correction           -0.014095591
FINAL SINGLE POINT ENERGY     -1339.850204071390

DIPOLE MOMENT
-------------
                                X             Y             Z
Electronic contribution:      3.11744     -13.66138     -27.97553
Nuclear contribution   :     -3.37664      13.92863      28.49988
                        -----------------------------------------
Total Dipole Moment    :     -0.25920       0.26725       0.52435
                        -----------------------------------------
Magnitude (a.u.)       :      0.64308
Magnitude (Debye)      :      1.63458

Rotational constants in cm-1:     0.018483     0.008265     0.006185
Rotational constants in MHz :   554.114257   247.772277   185.413511

                             ****ORCA TERMINATED NORMALLY****
TOTAL RUN TIME: 0 days 0 hours 0 minutes 20 seconds 120 msec
