                         Program Version 4.2.1 -  RELEASE  -
|  1> ! wB97X-D3 SP def2-SVP
|  2> %pal
|  3> nprocs 24
|  4> end
|  5>
|  6> * xyz 0 1
|  7> S 	 -109.469 	 58.9099 	 -16.9017
|  8> C 	 -109.779 	 59.453 	 -15.2396
|  9> C 	 -108.734 	 59.1683 	 -14.412
| 10> C 	 -107.552 	 58.6732 	 -15.1164
| 11> C 	 -107.745 	 58.5565 	 -16.5365
| 12> H 	 -106.566 	 58.5211 	 -14.7151
| 13> C 	 -108.949 	 59.1024 	 -12.8492
| 14> H 	 -108.177 	 58.5022 	 -12.3528
| 15> H 	 -109.905 	 58.6101 	 -12.6224
| 16> C 	 -108.899 	 60.4676 	 -12.1524
| 17> H 	 -108.146 	 61.098 	 -12.5916
| 18> H 	 -109.826 	 61.0382 	 -12.43
| 19> C 	 -108.865 	 60.3871 	 -10.6356
| 20> H 	 -108.535 	 61.3261 	 -10.2483
| 21> H 	 -109.903 	 60.1986 	 -10.2392
| 22> H 	 -108.142 	 59.6618 	 -10.2847
| 23> S 	 -107.26 	 56.7774 	 -18.5725
| 24> C 	 -105.854 	 56.8795 	 -19.5013
| 25> C 	 -104.962 	 57.6895 	 -18.9278
| 26> C 	 -105.469 	 58.4108 	 -17.7824
| 27> C 	 -106.784 	 58.0551 	 -17.5051
| 28> H 	 -104.048 	 57.8884 	 -19.4261
| 29> C 	 -104.599 	 59.4515 	 -17.0644
| 30> H 	 -104.48 	 59.1514 	 -16.0549
| 31> H 	 -105.204 	 60.3388 	 -16.9803
| 32> C 	 -103.158 	 59.7646 	 -17.5265
| 33> H 	 -103.113 	 59.7295 	 -18.5936
| 34> H 	 -102.386 	 58.9288 	 -17.337
| 35> C 	 -102.605 	 61.11 	 -16.989
| 36> H 	 -101.514 	 61.2084 	 -17.1641
| 37> H 	 -102.789 	 61.1533 	 -15.9293
| 38> H 	 -103.109 	 61.9323 	 -17.4266
| 39> H 	 -110.712 	 59.774 	 -14.9411
| 40> H 	 -105.6 	 56.4019 	 -20.3583
| 41> *
| 42>
| 43>                          ****END OF INPUT****

CARTESIAN COORDINATES (ANGSTROEM)
---------------------------------
  S    -109.469000   58.909900  -16.901700
  C    -109.779000   59.453000  -15.239600
  C    -108.734000   59.168300  -14.412000
  C    -107.552000   58.673200  -15.116400
  C    -107.745000   58.556500  -16.536500
  H    -106.566000   58.521100  -14.715100
  C    -108.949000   59.102400  -12.849200
  H    -108.177000   58.502200  -12.352800
  H    -109.905000   58.610100  -12.622400
  C    -108.899000   60.467600  -12.152400
  H    -108.146000   61.098000  -12.591600
  H    -109.826000   61.038200  -12.430000
  C    -108.865000   60.387100  -10.635600
  H    -108.535000   61.326100  -10.248300
  H    -109.903000   60.198600  -10.239200
  H    -108.142000   59.661800  -10.284700
  S    -107.260000   56.777400  -18.572500
  C    -105.854000   56.879500  -19.501300
  C    -104.962000   57.689500  -18.927800
  C    -105.469000   58.410800  -17.782400
  C    -106.784000   58.055100  -17.505100
  H    -104.048000   57.888400  -19.426100
  C    -104.599000   59.451500  -17.064400
  H    -104.480000   59.151400  -16.054900
  H    -105.204000   60.338800  -16.980300
  C    -103.158000   59.764600  -17.526500
  H    -103.113000   59.729500  -18.593600
  H    -102.386000   58.928800  -17.337000
  C    -102.605000   61.110000  -16.989000
  H    -101.514000   61.208400  -17.164100
  H    -102.789000   61.153300  -15.929300
  H    -103.109000   61.932300  -17.426600
  H    -110.712000   59.774000  -14.941100
  H    -105.600000   56.401900  -20.358300

 Total Charge           Charge          ....    0
 Multiplicity           Mult            ....    1
 Number of Electrons    NEL             ....  134
 Basis Dimension        Dim             ....  322

ORBITAL ENERGIES
----------------

  NO   OCC          E(Eh)            E(eV)
   0   2.0000     -88.967191     -2420.9203
   1   2.0000     -88.962061     -2420.7808
   2   2.0000     -10.340133      -281.3693
   3   2.0000     -10.325483      -280.9707
   4   2.0000     -10.312300      -280.6120
   5   2.0000     -10.308576      -280.5106
   6   2.0000     -10.306665      -280.4586
   7   2.0000     -10.305502      -280.4270
   8   2.0000     -10.300453      -280.2896
   9   2.0000     -10.298429      -280.2345
  10   2.0000     -10.294126      -280.1174
  11   2.0000     -10.290467      -280.0178
  12   2.0000     -10.285057      -279.8706
  13   2.0000     -10.283114      -279.8178
  14   2.0000     -10.279874      -279.7296
  15   2.0000     -10.279807      -279.7278
  16   2.0000      -8.080686      -219.8866
  17   2.0000      -8.078460      -219.8261
  18   2.0000      -6.039315      -164.3381
  19   2.0000      -6.036892      -164.2722
  20   2.0000      -6.035406      -164.2317
  21   2.0000      -6.032723      -164.1587
  22   2.0000      -6.031336      -164.1210
  23   2.0000      -6.029193      -164.0627
  24   2.0000      -1.010537       -27.4981
  25   2.0000      -0.979338       -26.6491
  26   2.0000      -0.907910       -24.7055
  27   2.0000      -0.907088       -24.6831
  28   2.0000      -0.875541       -23.8247
  29   2.0000      -0.850342       -23.1390
  30   2.0000      -0.840384       -22.8680
  31   2.0000      -0.818113       -22.2620
  32   2.0000      -0.783772       -21.3275
  33   2.0000      -0.774719       -21.0812
  34   2.0000      -0.711671       -19.3655
  35   2.0000      -0.707902       -19.2630
  36   2.0000      -0.696203       -18.9446
  37   2.0000      -0.655625       -17.8405
  38   2.0000      -0.644878       -17.5480
  39   2.0000      -0.616397       -16.7730
  40   2.0000      -0.603438       -16.4204
  41   2.0000      -0.571910       -15.5625
  42   2.0000      -0.563225       -15.3261
  43   2.0000      -0.560255       -15.2453
  44   2.0000      -0.529103       -14.3976
  45   2.0000      -0.524347       -14.2682
  46   2.0000      -0.516617       -14.0579
  47   2.0000      -0.515814       -14.0360
  48   2.0000      -0.509351       -13.8602
  49   2.0000      -0.502050       -13.6615
  50   2.0000      -0.488422       -13.2906
  51   2.0000      -0.483207       -13.1487
  52   2.0000      -0.475984       -12.9522
  53   2.0000      -0.469001       -12.7622
  54   2.0000      -0.464821       -12.6484
  55   2.0000      -0.454008       -12.3542
  56   2.0000      -0.445205       -12.1146
  57   2.0000      -0.436381       -11.8745
  58   2.0000      -0.430944       -11.7266
  59   2.0000      -0.420861       -11.4522
  60   2.0000      -0.420072       -11.4307
  61   2.0000      -0.413982       -11.2650
  62   2.0000      -0.412458       -11.2235
  63   2.0000      -0.350766        -9.5448
  64   2.0000      -0.329139        -8.9563
  65   2.0000      -0.327929        -8.9234
  66   2.0000      -0.292240        -7.9522
  67   0.0000       0.024367         0.6631
  68   0.0000       0.072702         1.9783
  69   0.0000       0.110777         3.0144
  70   0.0000       0.125527         3.4158
  71   0.0000       0.134102         3.6491

MULLIKEN ATOMIC CHARGES
-----------------------
   0 S :    0.101553
   1 C :   -0.088313
   2 C :   -0.054111
   3 C :    0.035150
   4 C :   -0.167833
   5 H :    0.014351
   6 C :    0.042040
   7 H :    0.021172
   8 H :    0.039293
   9 C :   -0.102765
  10 H :    0.027282
  11 H :    0.023091
  12 C :   -0.026794
  13 H :    0.025738
  14 H :    0.043422
  15 H :    0.028222
  16 S :    0.115624
  17 C :   -0.016258
  18 C :   -0.052434
  19 C :   -0.039452
  20 C :   -0.163832
  21 H :    0.002689
  22 C :    0.090199
  23 H :    0.024072
  24 H :    0.031955
  25 C :   -0.109114
  26 H :    0.018019
  27 H :    0.035078
  28 C :   -0.024022
  29 H :    0.040439
  30 H :    0.026698
  31 H :    0.030671
  32 H :    0.022025
  33 H :    0.006147
Sum of atomic charges:    0.0000000

LOEWDIN ATOMIC CHARGES
----------------------
   0 S :    0.378102
   1 C :   -0.168639
   2 C :   -0.060466
   3 C :   -0.053229
   4 C :   -0.182058
   5 H :    0.027881
   6 C :   -0.026736
   7 H :    0.027223
   8 H :    0.032070
   9 C :   -0.051083
  10 H :    0.020335
  11 H :    0.025404
  12 C :   -0.064395
  13 H :    0.024604
  14 H :    0.034026
  15 H :    0.021921
  16 S :    0.435525
  17 C :   -0.184721
  18 C :   -0.074021
  19 C :   -0.045950
  20 C :   -0.213466
  21 H :    0.024362
  22 C :   -0.033718
  23 H :    0.028276
  24 H :    0.035410
  25 C :   -0.047619
  26 H :    0.012843
  27 H :    0.031928
  28 C :   -0.056868
  29 H :    0.032853
  30 H :    0.022964
  31 H :    0.021323
  32 H :    0.011954
  33 H :    0.013961

  Mayer bond orders larger than 0.100000
B(  0-S ,  1-C ) :   1.1307 B(  0-S ,  4-C ) :   1.1383 B(  1-C ,  2-C ) :   1.6248
B(  1-C , 32-H ) :   0.9791 B(  2-C ,  3-C ) :   1.2329 B(  2-C ,  6-C ) :   1.0041
B(  3-C ,  4-C ) :   1.5596 B(  3-C ,  5-H ) :   0.9915 B(  4-C , 20-C ) :   1.0740
B(  6-C ,  7-H ) :   0.9526 B(  6-C ,  8-H ) :   0.9524 B(  6-C ,  9-C ) :   1.0521
B(  9-C , 10-H ) :   0.9613 B(  9-C , 11-H ) :   0.9532 B(  9-C , 12-C ) :   1.0833
B( 12-C , 13-H ) :   0.9724 B( 12-C , 14-H ) :   0.9749 B( 12-C , 15-H ) :   0.9750
B( 16-S , 17-C ) :   1.1595 B( 16-S , 20-C ) :   1.1434 B( 17-C , 18-C ) :   1.6210
B( 17-C , 33-H ) :   0.9687 B( 18-C , 19-C ) :   1.2512 B( 18-C , 21-H ) :   0.9899
B( 19-C , 20-C ) :   1.5934 B( 19-C , 22-C ) :   1.0244 B( 22-C , 23-H ) :   0.9231
B( 22-C , 24-H ) :   0.9325 B( 22-C , 25-C ) :   1.0650 B( 25-C , 26-H ) :   0.9525
B( 25-C , 27-H ) :   0.9532 B( 25-C , 28-C ) :   1.0786 B( 28-C , 29-H ) :   0.9728
B( 28-C , 30-H ) :   0.9770 B( 28-C , 31-H ) :   0.9764

Dispersion correction           -0.013022847
FINAL SINGLE POINT ENERGY     -1339.864334394338

DIPOLE MOMENT
-------------
                                X             Y             Z
Electronic contribution:    -14.31956     -15.54647     -21.67105
Nuclear contribution   :     14.74411      15.82473      22.09686
                        -----------------------------------------
Total Dipole Moment    :      0.42455       0.27826       0.42581
                        -----------------------------------------
Magnitude (a.u.)       :      0.66256
Magnitude (Debye)      :      1.68410

Rotational constants in cm-1:     0.017321     0.007595     0.005669
Rotational constants in MHz :   519.264282   227.678365   169.960623

                             ****ORCA TERMINATED NORMALLY****
TOTAL RUN TIME: 0 days 0 hours 0 minutes 20 seconds 466 msec
