                         Program Version 4.2.1 -  RELEASE  -
|  1> ! wB97X-D3 SP def2-SVP
|  2> %pal
|  3> nprocs 24
|  4> end
|  5>
|  6> * xyz 0 1
|  7> S 	 31.8665 	 1.95858 	 -117.416
|  8> C 	 31.8219 	 3.41521 	 -118.387
|  9> C 	 31.3957 	 4.50263 	 -117.65
| 10> C 	 31.1982 	 4.19089 	 -116.243
| 11> C 	 31.5413 	 2.94599 	 -115.96
| 12> H 	 30.7817 	 4.82754 	 -115.472
| 13> C 	 31.1082 	 5.87602 	 -118.215
| 14> H 	 31.7072 	 6.12669 	 -119.125
| 15> H 	 31.5237 	 6.56489 	 -117.516
| 16> C 	 29.5967 	 6.16765 	 -118.491
| 17> H 	 29.4152 	 5.33997 	 -119.247
| 18> H 	 28.9806 	 5.82103 	 -117.676
| 19> C 	 29.2583 	 7.61707 	 -119.118
| 20> H 	 30.0767 	 7.98042 	 -119.72
| 21> H 	 28.3845 	 7.68627 	 -119.743
| 22> H 	 29.2442 	 8.40078 	 -118.25
| 23> S 	 30.8475 	 0.665303 	 -114.553
| 24> C 	 31.3563 	 0.539858 	 -112.836
| 25> C 	 31.9194 	 1.72835 	 -112.409
| 26> C 	 32.0383 	 2.70234 	 -113.459
| 27> C 	 31.5219 	 2.29754 	 -114.653
| 28> H 	 32.3561 	 1.72318 	 -111.429
| 29> C 	 32.8136 	 3.97607 	 -113.239
| 30> H 	 32.4933 	 4.39781 	 -112.367
| 31> H 	 32.6045 	 4.65592 	 -114.068
| 32> C 	 34.3592 	 3.74538 	 -113.223
| 33> H 	 34.597 	 2.90817 	 -112.599
| 34> H 	 34.8419 	 4.53892 	 -112.69
| 35> C 	 34.9296 	 3.5329 	 -114.639
| 36> H 	 34.7999 	 4.33957 	 -115.379
| 37> H 	 34.5776 	 2.54744 	 -115.091
| 38> H 	 35.9933 	 3.42303 	 -114.602
| 39> H 	 32.0162 	 3.44608 	 -119.493
| 40> H 	 31.194 	 -0.352428 	 -112.231
| 41> *
| 42>
| 43>                          ****END OF INPUT****

CARTESIAN COORDINATES (ANGSTROEM)
---------------------------------
  S     31.866500    1.958580  -117.416000
  C     31.821900    3.415210  -118.387000
  C     31.395700    4.502630  -117.650000
  C     31.198200    4.190890  -116.243000
  C     31.541300    2.945990  -115.960000
  H     30.781700    4.827540  -115.472000
  C     31.108200    5.876020  -118.215000
  H     31.707200    6.126690  -119.125000
  H     31.523700    6.564890  -117.516000
  C     29.596700    6.167650  -118.491000
  H     29.415200    5.339970  -119.247000
  H     28.980600    5.821030  -117.676000
  C     29.258300    7.617070  -119.118000
  H     30.076700    7.980420  -119.720000
  H     28.384500    7.686270  -119.743000
  H     29.244200    8.400780  -118.250000
  S     30.847500    0.665303  -114.553000
  C     31.356300    0.539858  -112.836000
  C     31.919400    1.728350  -112.409000
  C     32.038300    2.702340  -113.459000
  C     31.521900    2.297540  -114.653000
  H     32.356100    1.723180  -111.429000
  C     32.813600    3.976070  -113.239000
  H     32.493300    4.397810  -112.367000
  H     32.604500    4.655920  -114.068000
  C     34.359200    3.745380  -113.223000
  H     34.597000    2.908170  -112.599000
  H     34.841900    4.538920  -112.690000
  C     34.929600    3.532900  -114.639000
  H     34.799900    4.339570  -115.379000
  H     34.577600    2.547440  -115.091000
  H     35.993300    3.423030  -114.602000
  H     32.016200    3.446080  -119.493000
  H     31.194000   -0.352428  -112.231000

 Total Charge           Charge          ....    0
 Multiplicity           Mult            ....    1
 Number of Electrons    NEL             ....  134
 Basis Dimension        Dim             ....  322

ORBITAL ENERGIES
----------------

  NO   OCC          E(Eh)            E(eV)
   0   2.0000     -88.964849     -2420.8566
   1   2.0000     -88.963053     -2420.8077
   2   2.0000     -10.327337      -281.0211
   3   2.0000     -10.324382      -280.9407
   4   2.0000     -10.322829      -280.8985
   5   2.0000     -10.318948      -280.7929
   6   2.0000     -10.304744      -280.4064
   7   2.0000     -10.300659      -280.2952
   8   2.0000     -10.298001      -280.2228
   9   2.0000     -10.295597      -280.1574
  10   2.0000     -10.293600      -280.1031
  11   2.0000     -10.293530      -280.1012
  12   2.0000     -10.292328      -280.0685
  13   2.0000     -10.282987      -279.8143
  14   2.0000     -10.282094      -279.7900
  15   2.0000     -10.275032      -279.5978
  16   2.0000      -8.079208      -219.8464
  17   2.0000      -8.077060      -219.7880
  18   2.0000      -6.037908      -164.2998
  19   2.0000      -6.035696      -164.2396
  20   2.0000      -6.034003      -164.1936
  21   2.0000      -6.031768      -164.1328
  22   2.0000      -6.029537      -164.0721
  23   2.0000      -6.027637      -164.0203
  24   2.0000      -1.006815       -27.3968
  25   2.0000      -0.981262       -26.7015
  26   2.0000      -0.905031       -24.6271
  27   2.0000      -0.902050       -24.5460
  28   2.0000      -0.868546       -23.6343
  29   2.0000      -0.847478       -23.0611
  30   2.0000      -0.838636       -22.8205
  31   2.0000      -0.817254       -22.2386
  32   2.0000      -0.780366       -21.2348
  33   2.0000      -0.770199       -20.9582
  34   2.0000      -0.708138       -19.2694
  35   2.0000      -0.702630       -19.1195
  36   2.0000      -0.696322       -18.9479
  37   2.0000      -0.663127       -18.0446
  38   2.0000      -0.642800       -17.4915
  39   2.0000      -0.621781       -16.9195
  40   2.0000      -0.594367       -16.1735
  41   2.0000      -0.565379       -15.3847
  42   2.0000      -0.557198       -15.1621
  43   2.0000      -0.547828       -14.9072
  44   2.0000      -0.532318       -14.4851
  45   2.0000      -0.518907       -14.1202
  46   2.0000      -0.512743       -13.9524
  47   2.0000      -0.510011       -13.8781
  48   2.0000      -0.503590       -13.7034
  49   2.0000      -0.494648       -13.4601
  50   2.0000      -0.491478       -13.3738
  51   2.0000      -0.474679       -12.9167
  52   2.0000      -0.469593       -12.7783
  53   2.0000      -0.459573       -12.5056
  54   2.0000      -0.457949       -12.4614
  55   2.0000      -0.449993       -12.2449
  56   2.0000      -0.441770       -12.0212
  57   2.0000      -0.437304       -11.8997
  58   2.0000      -0.436922       -11.8892
  59   2.0000      -0.426442       -11.6041
  60   2.0000      -0.423979       -11.5370
  61   2.0000      -0.413272       -11.2457
  62   2.0000      -0.406575       -11.0635
  63   2.0000      -0.356230        -9.6935
  64   2.0000      -0.331801        -9.0288
  65   2.0000      -0.327692        -8.9170
  66   2.0000      -0.292280        -7.9533
  67   0.0000       0.030124         0.8197
  68   0.0000       0.070933         1.9302
  69   0.0000       0.101614         2.7651
  70   0.0000       0.120661         3.2833
  71   0.0000       0.136732         3.7207

MULLIKEN ATOMIC CHARGES
-----------------------
   0 S :    0.096492
   1 C :   -0.127640
   2 C :   -0.101427
   3 C :    0.020094
   4 C :   -0.123117
   5 H :    0.028896
   6 C :    0.060824
   7 H :    0.023952
   8 H :    0.012226
   9 C :   -0.084846
  10 H :    0.027585
  11 H :    0.032438
  12 C :   -0.054409
  13 H :    0.025390
  14 H :    0.049057
  15 H :    0.045458
  16 S :    0.080990
  17 C :   -0.107961
  18 C :   -0.021331
  19 C :   -0.064520
  20 C :   -0.141511
  21 H :    0.020508
  22 C :    0.132962
  23 H :   -0.001128
  24 H :    0.007881
  25 C :   -0.044138
  26 H :    0.015591
  27 H :    0.018359
  28 C :   -0.068343
  29 H :    0.038346
  30 H :    0.049590
  31 H :    0.020646
  32 H :    0.067741
  33 H :    0.065342
Sum of atomic charges:   -0.0000000

LOEWDIN ATOMIC CHARGES
----------------------
   0 S :    0.375783
   1 C :   -0.198802
   2 C :   -0.062036
   3 C :   -0.062018
   4 C :   -0.166947
   5 H :    0.038128
   6 C :   -0.038174
   7 H :    0.032533
   8 H :    0.019831
   9 C :   -0.044480
  10 H :    0.029907
  11 H :    0.021378
  12 C :   -0.071615
  13 H :    0.022876
  14 H :    0.026758
  15 H :    0.037619
  16 S :    0.365916
  17 C :   -0.164631
  18 C :   -0.068106
  19 C :   -0.056496
  20 C :   -0.188931
  21 H :    0.031809
  22 C :   -0.019666
  23 H :    0.016049
  24 H :    0.028985
  25 C :   -0.031678
  26 H :    0.020739
  27 H :    0.019924
  28 C :   -0.071750
  29 H :    0.027257
  30 H :    0.036088
  31 H :    0.020963
  32 H :    0.041028
  33 H :    0.031761

  Mayer bond orders larger than 0.100000
B(  0-S ,  1-C ) :   1.1125 B(  0-S ,  4-C ) :   1.1139 B(  1-C ,  2-C ) :   1.6590
B(  1-C , 32-H ) :   0.9611 B(  2-C ,  3-C ) :   1.1772 B(  2-C ,  6-C ) :   1.0328
B(  3-C ,  4-C ) :   1.6530 B(  3-C ,  5-H ) :   0.9884 B(  4-C , 20-C ) :   1.0319
B(  6-C ,  7-H ) :   0.9432 B(  6-C ,  8-H ) :   0.9366 B(  6-C ,  9-C ) :   1.0401
B(  9-C , 10-H ) :   0.9580 B(  9-C , 11-H ) :   0.9655 B(  9-C , 12-C ) :   1.0491
B( 12-C , 13-H ) :   0.9766 B( 12-C , 14-H ) :   0.9799 B( 12-C , 15-H ) :   0.9766
B( 16-S , 17-C ) :   1.1324 B( 16-S , 20-C ) :   1.1156 B( 17-C , 18-C ) :   1.6415
B( 17-C , 33-H ) :   0.9670 B( 18-C , 19-C ) :   1.2008 B( 18-C , 21-H ) :   0.9910
B( 19-C , 20-C ) :   1.6424 B( 19-C , 22-C ) :   1.0499 B( 22-C , 23-H ) :   0.9213
B( 22-C , 24-H ) :   0.9315 B( 22-C , 25-C ) :   1.0740 B( 25-C , 26-H ) :   0.9555
B( 25-C , 27-H ) :   0.9554 B( 25-C , 28-C ) :   1.0753 B( 28-C , 29-H ) :   0.9759
B( 28-C , 30-H ) :   0.9728 B( 28-C , 31-H ) :   0.9718

Dispersion correction           -0.015190796
FINAL SINGLE POINT ENERGY     -1339.876818294197

DIPOLE MOMENT
-------------
                                X             Y             Z
Electronic contribution:     -4.79153     -24.17355       3.55756
Nuclear contribution   :      4.98478      24.74036      -3.35620
                        -----------------------------------------
Total Dipole Moment    :      0.19325       0.56681       0.20135
                        -----------------------------------------
Magnitude (a.u.)       :      0.63179
Magnitude (Debye)      :      1.60588

Rotational constants in cm-1:     0.021347     0.007898     0.007091
Rotational constants in MHz :   639.962900   236.778971   212.596525

                             ****ORCA TERMINATED NORMALLY****
TOTAL RUN TIME: 0 days 0 hours 0 minutes 21 seconds 46 msec
