                         Program Version 4.2.1 -  RELEASE  -
|  1> ! wB97X-D3 SP def2-SVP
|  2> %pal
|  3> nprocs 24
|  4> end
|  5>
|  6> * xyz 0 1
|  7> S 	 -115.174 	 29.7384 	 -14.1661
|  8> C 	 -114.522 	 29.0407 	 -15.5905
|  9> C 	 -114.973 	 29.6672 	 -16.6924
| 10> C 	 -115.884 	 30.6828 	 -16.3992
| 11> C 	 -116.083 	 30.8696 	 -15.0277
| 12> H 	 -116.379 	 31.2607 	 -17.1011
| 13> C 	 -114.64 	 29.0824 	 -18.0688
| 14> H 	 -114.922 	 28.0906 	 -18.2211
| 15> H 	 -113.506 	 29.1222 	 -18.1327
| 16> C 	 -115.035 	 29.9093 	 -19.3236
| 17> H 	 -116.133 	 30.0453 	 -19.2245
| 18> H 	 -114.638 	 30.8906 	 -19.4045
| 19> C 	 -114.784 	 29.2125 	 -20.6354
| 20> H 	 -115.376 	 28.2885 	 -20.6154
| 21> H 	 -115.226 	 29.7215 	 -21.4237
| 22> H 	 -113.771 	 28.9307 	 -20.7346
| 23> S 	 -117.792 	 31.0584 	 -12.9231
| 24> C 	 -118.897 	 32.4482 	 -12.7875
| 25> C 	 -118.52 	 33.3937 	 -13.7304
| 26> C 	 -117.559 	 33.0135 	 -14.6882
| 27> C 	 -117.018 	 31.7712 	 -14.3187
| 28> H 	 -118.97 	 34.3607 	 -13.8204
| 29> C 	 -117.04 	 33.9592 	 -15.7497
| 30> H 	 -117.702 	 33.8316 	 -16.5715
| 31> H 	 -116.089 	 33.6082 	 -16.0949
| 32> C 	 -116.65 	 35.3749 	 -15.2669
| 33> H 	 -115.938 	 35.2257 	 -14.4344
| 34> H 	 -117.512 	 35.8898 	 -14.8599
| 35> C 	 -115.955 	 36.2778 	 -16.2971
| 36> H 	 -116.527 	 36.4619 	 -17.241
| 37> H 	 -115.07 	 35.7082 	 -16.5756
| 38> H 	 -115.774 	 37.3063 	 -15.8508
| 39> H 	 -113.701 	 28.2793 	 -15.6398
| 40> H 	 -119.633 	 32.5353 	 -11.9606
| 41> *
| 42>
| 43>                          ****END OF INPUT****

CARTESIAN COORDINATES (ANGSTROEM)
---------------------------------
  S    -115.174000   29.738400  -14.166100
  C    -114.522000   29.040700  -15.590500
  C    -114.973000   29.667200  -16.692400
  C    -115.884000   30.682800  -16.399200
  C    -116.083000   30.869600  -15.027700
  H    -116.379000   31.260700  -17.101100
  C    -114.640000   29.082400  -18.068800
  H    -114.922000   28.090600  -18.221100
  H    -113.506000   29.122200  -18.132700
  C    -115.035000   29.909300  -19.323600
  H    -116.133000   30.045300  -19.224500
  H    -114.638000   30.890600  -19.404500
  C    -114.784000   29.212500  -20.635400
  H    -115.376000   28.288500  -20.615400
  H    -115.226000   29.721500  -21.423700
  H    -113.771000   28.930700  -20.734600
  S    -117.792000   31.058400  -12.923100
  C    -118.897000   32.448200  -12.787500
  C    -118.520000   33.393700  -13.730400
  C    -117.559000   33.013500  -14.688200
  C    -117.018000   31.771200  -14.318700
  H    -118.970000   34.360700  -13.820400
  C    -117.040000   33.959200  -15.749700
  H    -117.702000   33.831600  -16.571500
  H    -116.089000   33.608200  -16.094900
  C    -116.650000   35.374900  -15.266900
  H    -115.938000   35.225700  -14.434400
  H    -117.512000   35.889800  -14.859900
  C    -115.955000   36.277800  -16.297100
  H    -116.527000   36.461900  -17.241000
  H    -115.070000   35.708200  -16.575600
  H    -115.774000   37.306300  -15.850800
  H    -113.701000   28.279300  -15.639800
  H    -119.633000   32.535300  -11.960600

 Total Charge           Charge          ....    0
 Multiplicity           Mult            ....    1
 Number of Electrons    NEL             ....  134
 Basis Dimension        Dim             ....  322

ORBITAL ENERGIES
----------------

  NO   OCC          E(Eh)            E(eV)
   0   2.0000     -88.965547     -2420.8756
   1   2.0000     -88.964987     -2420.8604
   2   2.0000     -10.330618      -281.1104
   3   2.0000     -10.326617      -281.0015
   4   2.0000     -10.323017      -280.9036
   5   2.0000     -10.306195      -280.4458
   6   2.0000     -10.301813      -280.3266
   7   2.0000     -10.293704      -280.1059
   8   2.0000     -10.293370      -280.0968
   9   2.0000     -10.292408      -280.0707
  10   2.0000     -10.291027      -280.0331
  11   2.0000     -10.290247      -280.0119
  12   2.0000     -10.288513      -279.9647
  13   2.0000     -10.285788      -279.8905
  14   2.0000     -10.282705      -279.8066
  15   2.0000     -10.269109      -279.4367
  16   2.0000      -8.081511      -219.9091
  17   2.0000      -8.079991      -219.8677
  18   2.0000      -6.039822      -164.3519
  19   2.0000      -6.038517      -164.3164
  20   2.0000      -6.035587      -164.2367
  21   2.0000      -6.034505      -164.2072
  22   2.0000      -6.032572      -164.1546
  23   2.0000      -6.030774      -164.1057
  24   2.0000      -1.016601       -27.6631
  25   2.0000      -0.987927       -26.8829
  26   2.0000      -0.914685       -24.8898
  27   2.0000      -0.910217       -24.7683
  28   2.0000      -0.873709       -23.7748
  29   2.0000      -0.854123       -23.2419
  30   2.0000      -0.847792       -23.0696
  31   2.0000      -0.816237       -22.2109
  32   2.0000      -0.785183       -21.3659
  33   2.0000      -0.773607       -21.0509
  34   2.0000      -0.709913       -19.3177
  35   2.0000      -0.701169       -19.0798
  36   2.0000      -0.686743       -18.6872
  37   2.0000      -0.660159       -17.9638
  38   2.0000      -0.639661       -17.4061
  39   2.0000      -0.625678       -17.0256
  40   2.0000      -0.601709       -16.3733
  41   2.0000      -0.574934       -15.6448
  42   2.0000      -0.571198       -15.5431
  43   2.0000      -0.566335       -15.4108
  44   2.0000      -0.529099       -14.3975
  45   2.0000      -0.525612       -14.3026
  46   2.0000      -0.521129       -14.1806
  47   2.0000      -0.512703       -13.9514
  48   2.0000      -0.502714       -13.6796
  49   2.0000      -0.500034       -13.6066
  50   2.0000      -0.494206       -13.4480
  51   2.0000      -0.486149       -13.2288
  52   2.0000      -0.474129       -12.9017
  53   2.0000      -0.470800       -12.8111
  54   2.0000      -0.459631       -12.5072
  55   2.0000      -0.454214       -12.3598
  56   2.0000      -0.448096       -12.1933
  57   2.0000      -0.431962       -11.7543
  58   2.0000      -0.429884       -11.6977
  59   2.0000      -0.427774       -11.6403
  60   2.0000      -0.418264       -11.3815
  61   2.0000      -0.416410       -11.3311
  62   2.0000      -0.409254       -11.1364
  63   2.0000      -0.355030        -9.6609
  64   2.0000      -0.335877        -9.1397
  65   2.0000      -0.331530        -9.0214
  66   2.0000      -0.283460        -7.7133
  67   0.0000       0.025506         0.6941
  68   0.0000       0.078929         2.1478
  69   0.0000       0.109066         2.9678
  70   0.0000       0.128939         3.5086
  71   0.0000       0.140701         3.8287

MULLIKEN ATOMIC CHARGES
-----------------------
   0 S :    0.114372
   1 C :   -0.141580
   2 C :   -0.045105
   3 C :    0.030031
   4 C :   -0.128027
   5 H :   -0.027683
   6 C :    0.043766
   7 H :    0.029465
   8 H :    0.034269
   9 C :   -0.121510
  10 H :    0.026515
  11 H :    0.025736
  12 C :    0.019905
  13 H :    0.012577
  14 H :    0.019777
  15 H :    0.024978
  16 S :    0.091172
  17 C :   -0.104962
  18 C :   -0.016980
  19 C :   -0.069977
  20 C :   -0.130371
  21 H :    0.007255
  22 C :    0.098159
  23 H :    0.030661
  24 H :    0.008099
  25 C :   -0.094069
  26 H :    0.044998
  27 H :    0.025876
  28 C :   -0.066128
  29 H :    0.037005
  30 H :    0.034253
  31 H :    0.053262
  32 H :    0.058875
  33 H :    0.075387
Sum of atomic charges:    0.0000000

LOEWDIN ATOMIC CHARGES
----------------------
   0 S :    0.447258
   1 C :   -0.215755
   2 C :   -0.069952
   3 C :   -0.064617
   4 C :   -0.207835
   5 H :    0.015789
   6 C :   -0.025573
   7 H :    0.022553
   8 H :    0.039140
   9 C :   -0.044995
  10 H :    0.022152
  11 H :    0.016922
  12 C :   -0.053099
  13 H :    0.027163
  14 H :    0.020900
  15 H :    0.019501
  16 S :    0.393682
  17 C :   -0.185600
  18 C :   -0.064979
  19 C :   -0.061246
  20 C :   -0.189938
  21 H :    0.026089
  22 C :   -0.030260
  23 H :    0.028310
  24 H :    0.027910
  25 C :   -0.039457
  26 H :    0.033965
  27 H :    0.014692
  28 C :   -0.070333
  29 H :    0.027280
  30 H :    0.024916
  31 H :    0.038087
  32 H :    0.039638
  33 H :    0.037691

  Mayer bond orders larger than 0.100000
B(  0-S ,  1-C ) :   1.1500 B(  0-S ,  4-C ) :   1.1937 B(  1-C ,  2-C ) :   1.5979
B(  1-C , 32-H ) :   0.9658 B(  2-C ,  3-C ) :   1.3002 B(  2-C ,  6-C ) :   0.9911
B(  3-C ,  4-C ) :   1.5028 B(  3-C ,  5-H ) :   1.0096 B(  4-C , 20-C ) :   1.0219
B(  6-C ,  7-H ) :   0.9556 B(  6-C ,  8-H ) :   0.9387 B(  6-C ,  9-C ) :   1.0689
B(  9-C , 10-H ) :   0.9477 B(  9-C , 11-H ) :   0.9583 B(  9-C , 12-C ) :   1.0985
B( 12-C , 13-H ) :   0.9683 B( 12-C , 14-H ) :   0.9672 B( 12-C , 15-H ) :   0.9745
B( 16-S , 17-C ) :   1.1400 B( 16-S , 20-C ) :   1.1601 B( 17-C , 18-C ) :   1.5747
B( 17-C , 20-C ) :   0.1083 B( 17-C , 33-H ) :   0.9687 B( 18-C , 19-C ) :   1.2715
B( 18-C , 21-H ) :   0.9870 B( 19-C , 20-C ) :   1.5739 B( 19-C , 22-C ) :   1.0397
B( 22-C , 23-H ) :   0.9216 B( 22-C , 24-H ) :   0.9368 B( 22-C , 25-C ) :   1.0531
B( 25-C , 26-H ) :   0.9568 B( 25-C , 27-H ) :   0.9529 B( 25-C , 28-C ) :   1.0857
B( 28-C , 29-H ) :   0.9757 B( 28-C , 30-H ) :   0.9742 B( 28-C , 31-H ) :   0.9721

Dispersion correction           -0.013209728
FINAL SINGLE POINT ENERGY     -1339.870528549462

DIPOLE MOMENT
-------------
                                X             Y             Z
Electronic contribution:     -5.94614     -12.42129      27.01302
Nuclear contribution   :      5.96911      12.75184     -27.58516
                        -----------------------------------------
Total Dipole Moment    :      0.02297       0.33055      -0.57214
                        -----------------------------------------
Magnitude (a.u.)       :      0.66116
Magnitude (Debye)      :      1.68055

Rotational constants in cm-1:     0.016448     0.008505     0.006244
Rotational constants in MHz :   493.110972   254.965980   187.191188

                             ****ORCA TERMINATED NORMALLY****
TOTAL RUN TIME: 0 days 0 hours 0 minutes 21 seconds 151 msec
