                         Program Version 4.2.1 -  RELEASE  -
|  1> ! wB97X-D3 SP def2-SVP
|  2> %pal
|  3> nprocs 24
|  4> end
|  5>
|  6> * xyz 0 1
|  7> S 	 -117.719 	 47.0861 	 -115.64
|  8> C 	 -116.375 	 46.0669 	 -116.013
|  9> C 	 -115.156 	 46.705 	 -115.692
| 10> C 	 -115.336 	 47.9401 	 -115.051
| 11> C 	 -116.667 	 48.3112 	 -114.886
| 12> H 	 -114.581 	 48.5624 	 -114.655
| 13> C 	 -113.747 	 46.0926 	 -116.064
| 14> H 	 -113.889 	 44.9958 	 -116.213
| 15> H 	 -113.051 	 46.1506 	 -115.274
| 16> C 	 -113.14 	 46.6394 	 -117.359
| 17> H 	 -113.1 	 47.8269 	 -117.479
| 18> H 	 -112.132 	 46.2983 	 -117.348
| 19> C 	 -113.797 	 46.0959 	 -118.654
| 20> H 	 -113.543 	 46.6644 	 -119.565
| 21> H 	 -113.47 	 45.0268 	 -118.913
| 22> H 	 -114.799 	 46.0146 	 -118.631
| 23> S 	 -117 	 50.9185 	 -115.451
| 24> C 	 -117.988 	 51.965 	 -114.447
| 25> C 	 -118.227 	 51.2682 	 -113.262
| 26> C 	 -117.855 	 49.886 	 -113.21
| 27> C 	 -117.186 	 49.5463 	 -114.371
| 28> H 	 -118.768 	 51.7144 	 -112.493
| 29> C 	 -118.247 	 48.9131 	 -112.092
| 30> H 	 -118.216 	 47.9037 	 -112.558
| 31> H 	 -119.258 	 49.1103 	 -111.715
| 32> C 	 -117.385 	 48.7819 	 -110.831
| 33> H 	 -117.718 	 47.9062 	 -110.332
| 34> H 	 -117.62 	 49.5969 	 -110.149
| 35> C 	 -115.845 	 48.8756 	 -111.044
| 36> H 	 -115.325 	 48.9048 	 -110.016
| 37> H 	 -115.611 	 49.7772 	 -111.531
| 38> H 	 -115.392 	 48.0723 	 -111.589
| 39> H 	 -116.439 	 45.1378 	 -116.504
| 40> H 	 -118.161 	 52.9664 	 -114.62
| 41> *
| 42>
| 43>                          ****END OF INPUT****

CARTESIAN COORDINATES (ANGSTROEM)
---------------------------------
  S    -117.719000   47.086100  -115.640000
  C    -116.375000   46.066900  -116.013000
  C    -115.156000   46.705000  -115.692000
  C    -115.336000   47.940100  -115.051000
  C    -116.667000   48.311200  -114.886000
  H    -114.581000   48.562400  -114.655000
  C    -113.747000   46.092600  -116.064000
  H    -113.889000   44.995800  -116.213000
  H    -113.051000   46.150600  -115.274000
  C    -113.140000   46.639400  -117.359000
  H    -113.100000   47.826900  -117.479000
  H    -112.132000   46.298300  -117.348000
  C    -113.797000   46.095900  -118.654000
  H    -113.543000   46.664400  -119.565000
  H    -113.470000   45.026800  -118.913000
  H    -114.799000   46.014600  -118.631000
  S    -117.000000   50.918500  -115.451000
  C    -117.988000   51.965000  -114.447000
  C    -118.227000   51.268200  -113.262000
  C    -117.855000   49.886000  -113.210000
  C    -117.186000   49.546300  -114.371000
  H    -118.768000   51.714400  -112.493000
  C    -118.247000   48.913100  -112.092000
  H    -118.216000   47.903700  -112.558000
  H    -119.258000   49.110300  -111.715000
  C    -117.385000   48.781900  -110.831000
  H    -117.718000   47.906200  -110.332000
  H    -117.620000   49.596900  -110.149000
  C    -115.845000   48.875600  -111.044000
  H    -115.325000   48.904800  -110.016000
  H    -115.611000   49.777200  -111.531000
  H    -115.392000   48.072300  -111.589000
  H    -116.439000   45.137800  -116.504000
  H    -118.161000   52.966400  -114.620000

 Total Charge           Charge          ....    0
 Multiplicity           Mult            ....    1
 Number of Electrons    NEL             ....  134
 Basis Dimension        Dim             ....  322

ORBITAL ENERGIES
----------------

  NO   OCC          E(Eh)            E(eV)
   0   2.0000     -88.968571     -2420.9579
   1   2.0000     -88.962918     -2420.8041
   2   2.0000     -10.328878      -281.0631
   3   2.0000     -10.324688      -280.9490
   4   2.0000     -10.316475      -280.7255
   5   2.0000     -10.314113      -280.6613
   6   2.0000     -10.305967      -280.4396
   7   2.0000     -10.305073      -280.4153
   8   2.0000     -10.297641      -280.2130
   9   2.0000     -10.295317      -280.1498
  10   2.0000     -10.294126      -280.1174
  11   2.0000     -10.292364      -280.0695
  12   2.0000     -10.291343      -280.0417
  13   2.0000     -10.282440      -279.7994
  14   2.0000     -10.273503      -279.5562
  15   2.0000     -10.273427      -279.5541
  16   2.0000      -8.082740      -219.9425
  17   2.0000      -8.077687      -219.8050
  18   2.0000      -6.041117      -164.3872
  19   2.0000      -6.037196      -164.2804
  20   2.0000      -6.036242      -164.2545
  21   2.0000      -6.033800      -164.1881
  22   2.0000      -6.032001      -164.1391
  23   2.0000      -6.028561      -164.0455
  24   2.0000      -1.005697       -27.3664
  25   2.0000      -0.981878       -26.7182
  26   2.0000      -0.904708       -24.6183
  27   2.0000      -0.903909       -24.5966
  28   2.0000      -0.870299       -23.6820
  29   2.0000      -0.847778       -23.0692
  30   2.0000      -0.843757       -22.9598
  31   2.0000      -0.810685       -22.0599
  32   2.0000      -0.784757       -21.3543
  33   2.0000      -0.776931       -21.1414
  34   2.0000      -0.710319       -19.3288
  35   2.0000      -0.697758       -18.9870
  36   2.0000      -0.691918       -18.8280
  37   2.0000      -0.667118       -18.1532
  38   2.0000      -0.646920       -17.6036
  39   2.0000      -0.616418       -16.7736
  40   2.0000      -0.593815       -16.1585
  41   2.0000      -0.568838       -15.4789
  42   2.0000      -0.552768       -15.0416
  43   2.0000      -0.548369       -14.9219
  44   2.0000      -0.542212       -14.7543
  45   2.0000      -0.535316       -14.5667
  46   2.0000      -0.520194       -14.1552
  47   2.0000      -0.512607       -13.9487
  48   2.0000      -0.502428       -13.6718
  49   2.0000      -0.498859       -13.5746
  50   2.0000      -0.485108       -13.2005
  51   2.0000      -0.478790       -13.0285
  52   2.0000      -0.469475       -12.7751
  53   2.0000      -0.467494       -12.7212
  54   2.0000      -0.457381       -12.4460
  55   2.0000      -0.444724       -12.1016
  56   2.0000      -0.443503       -12.0683
  57   2.0000      -0.439415       -11.9571
  58   2.0000      -0.427066       -11.6211
  59   2.0000      -0.421227       -11.4622
  60   2.0000      -0.420581       -11.4446
  61   2.0000      -0.413290       -11.2462
  62   2.0000      -0.409805       -11.1514
  63   2.0000      -0.339172        -9.2293
  64   2.0000      -0.330440        -8.9917
  65   2.0000      -0.324946        -8.8422
  66   2.0000      -0.304273        -8.2797
  67   0.0000       0.037739         1.0269
  68   0.0000       0.051232         1.3941
  69   0.0000       0.115985         3.1561
  70   0.0000       0.117912         3.2085
  71   0.0000       0.130045         3.5387

MULLIKEN ATOMIC CHARGES
-----------------------
   0 S :    0.126962
   1 C :   -0.103094
   2 C :   -0.090523
   3 C :    0.064400
   4 C :   -0.180929
   5 H :   -0.001664
   6 C :    0.075237
   7 H :    0.023025
   8 H :    0.019841
   9 C :   -0.079355
  10 H :    0.053111
  11 H :    0.027343
  12 C :   -0.047716
  13 H :    0.035549
  14 H :    0.023235
  15 H :    0.006613
  16 S :    0.110649
  17 C :   -0.061301
  18 C :   -0.019904
  19 C :   -0.011173
  20 C :   -0.196093
  21 H :   -0.008243
  22 C :    0.064330
  23 H :    0.031535
  24 H :    0.031656
  25 C :   -0.055450
  26 H :    0.025667
  27 H :    0.019698
  28 C :   -0.057758
  29 H :    0.036232
  30 H :    0.032306
  31 H :    0.032883
  32 H :    0.036196
  33 H :    0.036735
Sum of atomic charges:   -0.0000000

LOEWDIN ATOMIC CHARGES
----------------------
   0 S :    0.414841
   1 C :   -0.198882
   2 C :   -0.061364
   3 C :   -0.053184
   4 C :   -0.195449
   5 H :    0.027694
   6 C :   -0.025744
   7 H :    0.035160
   8 H :    0.022442
   9 C :   -0.044760
  10 H :    0.038488
  11 H :    0.020779
  12 C :   -0.067347
  13 H :    0.030528
  14 H :    0.029786
  15 H :    0.003528
  16 S :    0.409073
  17 C :   -0.170716
  18 C :   -0.061528
  19 C :   -0.053159
  20 C :   -0.201630
  21 H :    0.016642
  22 C :   -0.032440
  23 H :    0.033933
  24 H :    0.034387
  25 C :   -0.037023
  26 H :    0.021413
  27 H :    0.020983
  28 C :   -0.064678
  29 H :    0.035159
  30 H :    0.018452
  31 H :    0.019588
  32 H :    0.018970
  33 H :    0.016057

  Mayer bond orders larger than 0.100000
B(  0-S ,  1-C ) :   1.1639 B(  0-S ,  4-C ) :   1.1490 B(  1-C ,  2-C ) :   1.5737
B(  1-C ,  4-C ) :   0.1104 B(  1-C , 32-H ) :   0.9714 B(  2-C ,  3-C ) :   1.2694
B(  2-C ,  6-C ) :   1.0154 B(  3-C ,  4-C ) :   1.5536 B(  3-C ,  5-H ) :   1.0048
B(  4-C , 20-C ) :   1.0311 B(  6-C ,  7-H ) :   0.9429 B(  6-C ,  8-H ) :   0.9466
B(  6-C ,  9-C ) :   1.0642 B(  9-C , 10-H ) :   0.9602 B(  9-C , 11-H ) :   0.9558
B(  9-C , 12-C ) :   1.0657 B( 12-C , 13-H ) :   0.9755 B( 12-C , 14-H ) :   0.9726
B( 12-C , 15-H ) :   0.9809 B( 16-S , 17-C ) :   1.1504 B( 16-S , 20-C ) :   1.1595
B( 17-C , 18-C ) :   1.5887 B( 17-C , 20-C ) :   0.1055 B( 17-C , 33-H ) :   0.9824
B( 18-C , 19-C ) :   1.2427 B( 18-C , 21-H ) :   0.9931 B( 19-C , 20-C ) :   1.5777
B( 19-C , 22-C ) :   1.0435 B( 22-C , 23-H ) :   0.9286 B( 22-C , 24-H ) :   0.9383
B( 22-C , 25-C ) :   1.0755 B( 25-C , 26-H ) :   0.9568 B( 25-C , 27-H ) :   0.9549
B( 25-C , 28-C ) :   1.0795 B( 28-C , 29-H ) :   0.9744 B( 28-C , 30-H ) :   0.9693
B( 28-C , 31-H ) :   0.9790

Dispersion correction           -0.015127836
FINAL SINGLE POINT ENERGY     -1339.870092909546

DIPOLE MOMENT
-------------
                                X             Y             Z
Electronic contribution:    -14.11442       9.58860      -5.52567
Nuclear contribution   :     14.34856      -9.67615       5.77806
                        -----------------------------------------
Total Dipole Moment    :      0.23414      -0.08754       0.25239
                        -----------------------------------------
Magnitude (a.u.)       :      0.35523
Magnitude (Debye)      :      0.90292

Rotational constants in cm-1:     0.021600     0.008127     0.007233
Rotational constants in MHz :   647.558649   243.635610   216.842847

                             ****ORCA TERMINATED NORMALLY****
TOTAL RUN TIME: 0 days 0 hours 0 minutes 20 seconds 683 msec
