                         Program Version 4.2.1 -  RELEASE  -
|  1> ! wB97X-D3 SP def2-SVP
|  2> %pal
|  3> nprocs 24
|  4> end
|  5>
|  6> * xyz 0 1
|  7> S 	 -54.753 	 -4.60013 	 -16.4393
|  8> C 	 -55.5919 	 -3.75054 	 -15.1899
|  9> C 	 -56.7906 	 -4.38667 	 -14.9165
| 10> C 	 -57.0568 	 -5.56742 	 -15.6643
| 11> C 	 -56.0519 	 -5.79583 	 -16.5722
| 12> H 	 -57.9026 	 -6.21659 	 -15.7046
| 13> C 	 -57.8673 	 -3.79828 	 -14.072
| 14> H 	 -57.3703 	 -3.30914 	 -13.2045
| 15> H 	 -58.2688 	 -4.6647 	 -13.7001
| 16> C 	 -58.8963 	 -2.83977 	 -14.7129
| 17> H 	 -58.4214 	 -1.96464 	 -15.1522
| 18> H 	 -59.2694 	 -3.35359 	 -15.616
| 19> C 	 -59.95 	 -2.3154 	 -13.7035
| 20> H 	 -60.6795 	 -1.53445 	 -14.1386
| 21> H 	 -60.6804 	 -3.06043 	 -13.4651
| 22> H 	 -59.6159 	 -1.86913 	 -12.7243
| 23> S 	 -54.7047 	 -7.93907 	 -17.8255
| 24> C 	 -55.5592 	 -8.91224 	 -19.0008
| 25> C 	 -56.7689 	 -8.30026 	 -19.2652
| 26> C 	 -57.1676 	 -7.24287 	 -18.4112
| 27> C 	 -56.1483 	 -6.87076 	 -17.5407
| 28> H 	 -57.3117 	 -8.89022 	 -19.9949
| 29> C 	 -58.3742 	 -6.37893 	 -18.6974
| 30> H 	 -58.5085 	 -5.51721 	 -18.0837
| 31> H 	 -59.2377 	 -7.01361 	 -18.4057
| 32> C 	 -58.7472 	 -6.16605 	 -20.2036
| 33> H 	 -59.8148 	 -5.8995 	 -20.2415
| 34> H 	 -58.7071 	 -7.15358 	 -20.6281
| 35> C 	 -57.9247 	 -5.13865 	 -21.0808
| 36> H 	 -57.6297 	 -4.22272 	 -20.5686
| 37> H 	 -58.6949 	 -4.94481 	 -21.8936
| 38> H 	 -57.0206 	 -5.58669 	 -21.4073
| 39> H 	 -55.2898 	 -2.71772 	 -14.9116
| 40> H 	 -55.1165 	 -9.67698 	 -19.6698
| 41> *
| 42>
| 43>                          ****END OF INPUT****

CARTESIAN COORDINATES (ANGSTROEM)
---------------------------------
  S    -54.753000   -4.600130  -16.439300
  C    -55.591900   -3.750540  -15.189900
  C    -56.790600   -4.386670  -14.916500
  C    -57.056800   -5.567420  -15.664300
  C    -56.051900   -5.795830  -16.572200
  H    -57.902600   -6.216590  -15.704600
  C    -57.867300   -3.798280  -14.072000
  H    -57.370300   -3.309140  -13.204500
  H    -58.268800   -4.664700  -13.700100
  C    -58.896300   -2.839770  -14.712900
  H    -58.421400   -1.964640  -15.152200
  H    -59.269400   -3.353590  -15.616000
  C    -59.950000   -2.315400  -13.703500
  H    -60.679500   -1.534450  -14.138600
  H    -60.680400   -3.060430  -13.465100
  H    -59.615900   -1.869130  -12.724300
  S    -54.704700   -7.939070  -17.825500
  C    -55.559200   -8.912240  -19.000800
  C    -56.768900   -8.300260  -19.265200
  C    -57.167600   -7.242870  -18.411200
  C    -56.148300   -6.870760  -17.540700
  H    -57.311700   -8.890220  -19.994900
  C    -58.374200   -6.378930  -18.697400
  H    -58.508500   -5.517210  -18.083700
  H    -59.237700   -7.013610  -18.405700
  C    -58.747200   -6.166050  -20.203600
  H    -59.814800   -5.899500  -20.241500
  H    -58.707100   -7.153580  -20.628100
  C    -57.924700   -5.138650  -21.080800
  H    -57.629700   -4.222720  -20.568600
  H    -58.694900   -4.944810  -21.893600
  H    -57.020600   -5.586690  -21.407300
  H    -55.289800   -2.717720  -14.911600
  H    -55.116500   -9.676980  -19.669800

 Total Charge           Charge          ....    0
 Multiplicity           Mult            ....    1
 Number of Electrons    NEL             ....  134
 Basis Dimension        Dim             ....  322

ORBITAL ENERGIES
----------------

  NO   OCC          E(Eh)            E(eV)
   0   2.0000     -88.968266     -2420.9496
   1   2.0000     -88.961250     -2420.7587
   2   2.0000     -10.332012      -281.1483
   3   2.0000     -10.330117      -281.0968
   4   2.0000     -10.320666      -280.8396
   5   2.0000     -10.316545      -280.7275
   6   2.0000     -10.308111      -280.4980
   7   2.0000     -10.300045      -280.2785
   8   2.0000     -10.295055      -280.1427
   9   2.0000     -10.293896      -280.1111
  10   2.0000     -10.292769      -280.0805
  11   2.0000     -10.292457      -280.0720
  12   2.0000     -10.291286      -280.0401
  13   2.0000     -10.289696      -279.9969
  14   2.0000     -10.282569      -279.8029
  15   2.0000     -10.279555      -279.7209
  16   2.0000      -8.082999      -219.9496
  17   2.0000      -8.075318      -219.7406
  18   2.0000      -6.041499      -164.3975
  19   2.0000      -6.037419      -164.2865
  20   2.0000      -6.033881      -164.1902
  21   2.0000      -6.033847      -164.1893
  22   2.0000      -6.029875      -164.0812
  23   2.0000      -6.026092      -163.9783
  24   2.0000      -1.006861       -27.3981
  25   2.0000      -0.984227       -26.7822
  26   2.0000      -0.910418       -24.7737
  27   2.0000      -0.902707       -24.5639
  28   2.0000      -0.873841       -23.7784
  29   2.0000      -0.852325       -23.1930
  30   2.0000      -0.841547       -22.8997
  31   2.0000      -0.815577       -22.1930
  32   2.0000      -0.784224       -21.3398
  33   2.0000      -0.770952       -20.9787
  34   2.0000      -0.711449       -19.3595
  35   2.0000      -0.706888       -19.2354
  36   2.0000      -0.697158       -18.9706
  37   2.0000      -0.655822       -17.8458
  38   2.0000      -0.642448       -17.4819
  39   2.0000      -0.618433       -16.8284
  40   2.0000      -0.597656       -16.2630
  41   2.0000      -0.565555       -15.3895
  42   2.0000      -0.556141       -15.1334
  43   2.0000      -0.541671       -14.7396
  44   2.0000      -0.535367       -14.5681
  45   2.0000      -0.524502       -14.2724
  46   2.0000      -0.518468       -14.1082
  47   2.0000      -0.516919       -14.0661
  48   2.0000      -0.509033       -13.8515
  49   2.0000      -0.500808       -13.6277
  50   2.0000      -0.488390       -13.2898
  51   2.0000      -0.480146       -13.0654
  52   2.0000      -0.477899       -13.0043
  53   2.0000      -0.470734       -12.8093
  54   2.0000      -0.460775       -12.5383
  55   2.0000      -0.446556       -12.1514
  56   2.0000      -0.439355       -11.9554
  57   2.0000      -0.434052       -11.8112
  58   2.0000      -0.428775       -11.6676
  59   2.0000      -0.425650       -11.5825
  60   2.0000      -0.416342       -11.3292
  61   2.0000      -0.413557       -11.2534
  62   2.0000      -0.409833       -11.1521
  63   2.0000      -0.352264        -9.5856
  64   2.0000      -0.331261        -9.0141
  65   2.0000      -0.327608        -8.9147
  66   2.0000      -0.290303        -7.8996
  67   0.0000       0.025074         0.6823
  68   0.0000       0.065940         1.7943
  69   0.0000       0.113516         3.0889
  70   0.0000       0.122409         3.3309
  71   0.0000       0.128033         3.4840

MULLIKEN ATOMIC CHARGES
-----------------------
   0 S :    0.115873
   1 C :   -0.131288
   2 C :   -0.103465
   3 C :    0.017415
   4 C :   -0.126321
   5 H :    0.015290
   6 C :    0.090311
   7 H :    0.019989
   8 H :   -0.000696
   9 C :   -0.021121
  10 H :    0.023271
  11 H :    0.024209
  12 C :   -0.086389
  13 H :    0.037829
  14 H :    0.025065
  15 H :    0.048624
  16 S :    0.083853
  17 C :   -0.110611
  18 C :   -0.075914
  19 C :    0.022134
  20 C :   -0.179859
  21 H :    0.027868
  22 C :    0.057080
  23 H :    0.020350
  24 H :    0.025081
  25 C :   -0.098553
  26 H :    0.027146
  27 H :    0.021872
  28 C :   -0.035749
  29 H :    0.037740
  30 H :    0.045866
  31 H :    0.035806
  32 H :    0.070361
  33 H :    0.076931
Sum of atomic charges:   -0.0000000

LOEWDIN ATOMIC CHARGES
----------------------
   0 S :    0.408327
   1 C :   -0.209338
   2 C :   -0.064460
   3 C :   -0.057261
   4 C :   -0.183727
   5 H :    0.033521
   6 C :   -0.033097
   7 H :    0.032599
   8 H :    0.018223
   9 C :   -0.037871
  10 H :    0.024445
  11 H :    0.027534
  12 C :   -0.081179
  13 H :    0.035944
  14 H :    0.019994
  15 H :    0.033499
  16 S :    0.369580
  17 C :   -0.188932
  18 C :   -0.081739
  19 C :   -0.060166
  20 C :   -0.172313
  21 H :    0.031884
  22 C :   -0.035260
  23 H :    0.021988
  24 H :    0.039768
  25 C :   -0.037888
  26 H :    0.024605
  27 H :    0.019853
  28 C :   -0.065431
  29 H :    0.026169
  30 H :    0.038233
  31 H :    0.021027
  32 H :    0.039382
  33 H :    0.042088

  Mayer bond orders larger than 0.100000
B(  0-S ,  1-C ) :   1.1358 B(  0-S ,  4-C ) :   1.1532 B(  1-C ,  2-C ) :   1.5988
B(  1-C , 32-H ) :   0.9670 B(  2-C ,  3-C ) :   1.2252 B(  2-C ,  6-C ) :   1.0285
B(  3-C ,  4-C ) :   1.5565 B(  3-C ,  5-H ) :   1.0044 B(  4-C , 20-C ) :   1.0664
B(  6-C ,  7-H ) :   0.9355 B(  6-C ,  8-H ) :   0.9323 B(  6-C ,  9-C ) :   1.0565
B(  9-C , 10-H ) :   0.9565 B(  9-C , 11-H ) :   0.9534 B(  9-C , 12-C ) :   1.0659
B( 12-C , 13-H ) :   0.9741 B( 12-C , 14-H ) :   0.9765 B( 12-C , 15-H ) :   0.9763
B( 16-S , 17-C ) :   1.1506 B( 16-S , 20-C ) :   1.1213 B( 17-C , 18-C ) :   1.6403
B( 17-C , 20-C ) :   0.1005 B( 17-C , 33-H ) :   0.9585 B( 18-C , 19-C ) :   1.2160
B( 18-C , 21-H ) :   0.9794 B( 19-C , 20-C ) :   1.5827 B( 19-C , 22-C ) :   1.0451
B( 22-C , 23-H ) :   0.9453 B( 22-C , 24-H ) :   0.9155 B( 22-C , 25-C ) :   1.0823
B( 25-C , 26-H ) :   0.9616 B( 25-C , 27-H ) :   0.9479 B( 25-C , 28-C ) :   1.0547
B( 28-C , 29-H ) :   0.9795 B( 28-C , 30-H ) :   0.9773 B( 28-C , 31-H ) :   0.9785

Dispersion correction           -0.014166871
FINAL SINGLE POINT ENERGY     -1339.856369121056

DIPOLE MOMENT
-------------
                                X             Y             Z
Electronic contribution:     25.69975     -13.44735       1.43964
Nuclear contribution   :    -26.45679      13.66185      -1.64498
                        -----------------------------------------
Total Dipole Moment    :     -0.75703       0.21450      -0.20534
                        -----------------------------------------
Magnitude (a.u.)       :      0.81319
Magnitude (Debye)      :      2.06696

Rotational constants in cm-1:     0.018778     0.008388     0.006706
Rotational constants in MHz :   562.936701   251.464363   201.036057

                             ****ORCA TERMINATED NORMALLY****
TOTAL RUN TIME: 0 days 0 hours 0 minutes 21 seconds 317 msec
