                         Program Version 4.2.1 -  RELEASE  -
|  1> ! wB97X-D3 SP def2-SVP
|  2> %pal
|  3> nprocs 24
|  4> end
|  5>
|  6> * xyz 0 1
|  7> S 	 -103.934 	 -1.29378 	 -121.159
|  8> C 	 -105.466 	 -0.347344 	 -121.36
|  9> C 	 -106.276 	 -0.530231 	 -120.233
| 10> C 	 -105.629 	 -1.31339 	 -119.251
| 11> C 	 -104.299 	 -1.59006 	 -119.474
| 12> H 	 -106.024 	 -1.65252 	 -118.3
| 13> C 	 -107.646 	 0.0190908 	 -120.142
| 14> H 	 -108.112 	 -0.93864 	 -120.332
| 15> H 	 -108.033 	 0.536995 	 -121.028
| 16> C 	 -108.144 	 0.497062 	 -118.812
| 17> H 	 -107.88 	 -0.238296 	 -118.064
| 18> H 	 -107.656 	 1.4556 	 -118.49
| 19> C 	 -109.656 	 0.498958 	 -118.698
| 20> H 	 -110.062 	 -0.532207 	 -118.721
| 21> H 	 -110.082 	 0.896152 	 -117.71
| 22> H 	 -110.077 	 1.10218 	 -119.488
| 23> S 	 -102.183 	 -3.42077 	 -119.056
| 24> C 	 -101.465 	 -3.49787 	 -117.481
| 25> C 	 -102.009 	 -2.54641 	 -116.668
| 26> C 	 -103.104 	 -1.79876 	 -117.194
| 27> C 	 -103.37 	 -2.17083 	 -118.55
| 28> H 	 -101.746 	 -2.39228 	 -115.608
| 29> C 	 -103.925 	 -0.775932 	 -116.415
| 30> H 	 -104.249 	 -0.0329148 	 -117.167
| 31> H 	 -103.313 	 -0.218148 	 -115.676
| 32> C 	 -104.949 	 -1.51411 	 -115.528
| 33> H 	 -104.472 	 -2.14585 	 -114.864
| 34> H 	 -105.631 	 -2.1537 	 -116.089
| 35> C 	 -105.935 	 -0.64688 	 -114.77
| 36> H 	 -106.808 	 -1.16721 	 -114.451
| 37> H 	 -106.218 	 0.12384 	 -115.466
| 38> H 	 -105.544 	 -0.240817 	 -113.864
| 39> H 	 -105.638 	 0.406675 	 -122.069
| 40> H 	 -100.787 	 -4.33292 	 -117.228
| 41> *
| 42>
| 43>                          ****END OF INPUT****

CARTESIAN COORDINATES (ANGSTROEM)
---------------------------------
  S    -103.934000   -1.293780  -121.159000
  C    -105.466000   -0.347344  -121.360000
  C    -106.276000   -0.530231  -120.233000
  C    -105.629000   -1.313390  -119.251000
  C    -104.299000   -1.590060  -119.474000
  H    -106.024000   -1.652520  -118.300000
  C    -107.646000    0.019091  -120.142000
  H    -108.112000   -0.938640  -120.332000
  H    -108.033000    0.536995  -121.028000
  C    -108.144000    0.497062  -118.812000
  H    -107.880000   -0.238296  -118.064000
  H    -107.656000    1.455600  -118.490000
  C    -109.656000    0.498958  -118.698000
  H    -110.062000   -0.532207  -118.721000
  H    -110.082000    0.896152  -117.710000
  H    -110.077000    1.102180  -119.488000
  S    -102.183000   -3.420770  -119.056000
  C    -101.465000   -3.497870  -117.481000
  C    -102.009000   -2.546410  -116.668000
  C    -103.104000   -1.798760  -117.194000
  C    -103.370000   -2.170830  -118.550000
  H    -101.746000   -2.392280  -115.608000
  C    -103.925000   -0.775932  -116.415000
  H    -104.249000   -0.032915  -117.167000
  H    -103.313000   -0.218148  -115.676000
  C    -104.949000   -1.514110  -115.528000
  H    -104.472000   -2.145850  -114.864000
  H    -105.631000   -2.153700  -116.089000
  C    -105.935000   -0.646880  -114.770000
  H    -106.808000   -1.167210  -114.451000
  H    -106.218000    0.123840  -115.466000
  H    -105.544000   -0.240817  -113.864000
  H    -105.638000    0.406675  -122.069000
  H    -100.787000   -4.332920  -117.228000

 Total Charge           Charge          ....    0
 Multiplicity           Mult            ....    1
 Number of Electrons    NEL             ....  134
 Basis Dimension        Dim             ....  322

ORBITAL ENERGIES
----------------

  NO   OCC          E(Eh)            E(eV)
   0   2.0000     -88.966220     -2420.8939
   1   2.0000     -88.961617     -2420.7687
   2   2.0000     -10.333105      -281.1781
   3   2.0000     -10.329834      -281.0891
   4   2.0000     -10.321618      -280.8655
   5   2.0000     -10.309957      -280.5482
   6   2.0000     -10.309878      -280.5461
   7   2.0000     -10.305550      -280.4283
   8   2.0000     -10.300009      -280.2775
   9   2.0000     -10.296402      -280.1794
  10   2.0000     -10.291533      -280.0468
  11   2.0000     -10.291531      -280.0468
  12   2.0000     -10.290461      -280.0177
  13   2.0000     -10.286820      -279.9186
  14   2.0000     -10.282293      -279.7954
  15   2.0000     -10.270418      -279.4723
  16   2.0000      -8.080680      -219.8865
  17   2.0000      -8.075625      -219.7489
  18   2.0000      -6.039180      -164.3344
  19   2.0000      -6.035216      -164.2266
  20   2.0000      -6.034285      -164.2012
  21   2.0000      -6.031469      -164.1246
  22   2.0000      -6.030399      -164.0955
  23   2.0000      -6.026095      -163.9784
  24   2.0000      -1.004060       -27.3219
  25   2.0000      -0.981921       -26.7194
  26   2.0000      -0.924216       -25.1492
  27   2.0000      -0.914047       -24.8725
  28   2.0000      -0.873378       -23.7658
  29   2.0000      -0.856050       -23.2943
  30   2.0000      -0.843554       -22.9543
  31   2.0000      -0.815500       -22.1909
  32   2.0000      -0.786941       -21.4137
  33   2.0000      -0.772019       -21.0077
  34   2.0000      -0.713419       -19.4131
  35   2.0000      -0.703528       -19.1440
  36   2.0000      -0.697919       -18.9913
  37   2.0000      -0.656910       -17.8754
  38   2.0000      -0.643944       -17.5226
  39   2.0000      -0.620068       -16.8729
  40   2.0000      -0.601278       -16.3616
  41   2.0000      -0.572240       -15.5714
  42   2.0000      -0.567702       -15.4480
  43   2.0000      -0.564604       -15.3637
  44   2.0000      -0.538928       -14.6650
  45   2.0000      -0.533010       -14.5039
  46   2.0000      -0.518154       -14.0997
  47   2.0000      -0.514649       -14.0043
  48   2.0000      -0.506825       -13.7914
  49   2.0000      -0.499967       -13.6048
  50   2.0000      -0.499267       -13.5858
  51   2.0000      -0.488621       -13.2961
  52   2.0000      -0.468420       -12.7463
  53   2.0000      -0.467966       -12.7340
  54   2.0000      -0.457271       -12.4430
  55   2.0000      -0.448975       -12.2172
  56   2.0000      -0.445301       -12.1173
  57   2.0000      -0.437025       -11.8921
  58   2.0000      -0.434675       -11.8281
  59   2.0000      -0.426167       -11.5966
  60   2.0000      -0.421981       -11.4827
  61   2.0000      -0.415248       -11.2995
  62   2.0000      -0.409671       -11.1477
  63   2.0000      -0.350478        -9.5370
  64   2.0000      -0.332605        -9.0506
  65   2.0000      -0.324695        -8.8354
  66   2.0000      -0.281450        -7.6586
  67   0.0000       0.019413         0.5283
  68   0.0000       0.066803         1.8178
  69   0.0000       0.104568         2.8455
  70   0.0000       0.120568         3.2808
  71   0.0000       0.128993         3.5101

MULLIKEN ATOMIC CHARGES
-----------------------
   0 S :    0.089545
   1 C :   -0.121806
   2 C :   -0.055168
   3 C :    0.005304
   4 C :   -0.134536
   5 H :   -0.004070
   6 C :    0.067490
   7 H :    0.032281
   8 H :    0.017642
   9 C :   -0.052572
  10 H :    0.023785
  11 H :    0.045073
  12 C :   -0.088974
  13 H :    0.037315
  14 H :    0.043098
  15 H :    0.032637
  16 S :    0.097817
  17 C :   -0.101659
  18 C :   -0.015877
  19 C :   -0.061808
  20 C :   -0.157864
  21 H :    0.022273
  22 C :    0.057792
  23 H :    0.052873
  24 H :    0.025042
  25 C :   -0.060594
  26 H :    0.006892
  27 H :    0.021647
  28 C :   -0.007842
  29 H :    0.023667
  30 H :    0.024854
  31 H :    0.020160
  32 H :    0.035290
  33 H :    0.080291
Sum of atomic charges:   -0.0000000

LOEWDIN ATOMIC CHARGES
----------------------
   0 S :    0.370978
   1 C :   -0.186578
   2 C :   -0.047834
   3 C :   -0.073504
   4 C :   -0.180487
   5 H :    0.026651
   6 C :   -0.042774
   7 H :    0.047914
   8 H :    0.034103
   9 C :   -0.047371
  10 H :    0.024841
  11 H :    0.029751
  12 C :   -0.069548
  13 H :    0.028296
  14 H :    0.034827
  15 H :    0.019414
  16 S :    0.393162
  17 C :   -0.190767
  18 C :   -0.078901
  19 C :   -0.045251
  20 C :   -0.188741
  21 H :    0.033873
  22 C :   -0.032953
  23 H :    0.037941
  24 H :    0.034142
  25 C :   -0.034546
  26 H :    0.014326
  27 H :    0.021543
  28 C :   -0.058552
  29 H :    0.023693
  30 H :    0.025022
  31 H :    0.018515
  32 H :    0.018478
  33 H :    0.040338

  Mayer bond orders larger than 0.100000
B(  0-S ,  1-C ) :   1.1076 B(  0-S ,  4-C ) :   1.1373 B(  1-C ,  2-C ) :   1.6066
B(  1-C ,  4-C ) :   0.1012 B(  1-C , 32-H ) :   0.9763 B(  2-C ,  3-C ) :   1.2151
B(  2-C ,  6-C ) :   1.0132 B(  3-C ,  4-C ) :   1.5635 B(  3-C ,  5-H ) :   0.9928
B(  4-C , 20-C ) :   1.0961 B(  6-C ,  7-H ) :   0.9222 B(  6-C ,  8-H ) :   0.9399
B(  6-C ,  9-C ) :   1.0599 B(  9-C , 10-H ) :   0.9465 B(  9-C , 11-H ) :   0.9551
B(  9-C , 12-C ) :   1.0790 B( 12-C , 13-H ) :   0.9753 B( 12-C , 14-H ) :   0.9736
B( 12-C , 15-H ) :   0.9773 B( 16-S , 17-C ) :   1.1588 B( 16-S , 20-C ) :   1.1339
B( 17-C , 18-C ) :   1.5725 B( 17-C , 20-C ) :   0.1033 B( 17-C , 33-H ) :   0.9663
B( 18-C , 19-C ) :   1.2814 B( 18-C , 21-H ) :   0.9817 B( 19-C , 20-C ) :   1.5440
B( 19-C , 22-C ) :   1.0534 B( 22-C , 23-H ) :   0.9284 B( 22-C , 24-H ) :   0.9335
B( 22-C , 25-C ) :   1.0519 B( 25-C , 26-H ) :   0.9528 B( 25-C , 27-H ) :   0.9553
B( 25-C , 28-C ) :   1.0853 B( 28-C , 29-H ) :   0.9750 B( 28-C , 30-H ) :   0.9723
B( 28-C , 31-H ) :   0.9729

Dispersion correction           -0.014750133
FINAL SINGLE POINT ENERGY     -1339.860586066961

DIPOLE MOMENT
-------------
                                X             Y             Z
Electronic contribution:     25.83922     -12.76510     -18.73571
Nuclear contribution   :    -26.40531      12.94991      19.45195
                        -----------------------------------------
Total Dipole Moment    :     -0.56610       0.18480       0.71624
                        -----------------------------------------
Magnitude (a.u.)       :      0.93146
Magnitude (Debye)      :      2.36758

Rotational constants in cm-1:     0.017641     0.009883     0.006637
Rotational constants in MHz :   528.859338   296.270921   198.975715

                             ****ORCA TERMINATED NORMALLY****
TOTAL RUN TIME: 0 days 0 hours 0 minutes 21 seconds 287 msec
