                         Program Version 4.2.1 -  RELEASE  -
|  1> ! wB97X-D3 SP def2-SVP
|  2> %pal
|  3> nprocs 24
|  4> end
|  5>
|  6> * xyz 0 1
|  7> S 	 21.5035 	 -1.7004 	 -110.665
|  8> C 	 19.8031 	 -2.25776 	 -110.666
|  9> C 	 18.8456 	 -1.20926 	 -110.716
| 10> C 	 19.5721 	 0.0289266 	 -110.809
| 11> C 	 20.9791 	 -0.025579 	 -110.648
| 12> H 	 19.2424 	 1.05255 	 -110.955
| 13> C 	 17.3254 	 -1.21852 	 -110.757
| 14> H 	 17.0412 	 -1.74934 	 -111.664
| 15> H 	 17.0065 	 -0.251965 	 -111.109
| 16> C 	 16.6046 	 -1.59663 	 -109.519
| 17> H 	 15.538 	 -1.9566 	 -109.629
| 18> H 	 17.0104 	 -2.58783 	 -109.167
| 19> C 	 16.734 	 -0.416197 	 -108.41
| 20> H 	 16.1218 	 0.380446 	 -108.719
| 21> H 	 16.4101 	 -0.76425 	 -107.431
| 22> H 	 17.7152 	 -0.0207201 	 -108.311
| 23> S 	 22.7281 	 1.35253 	 -112.219
| 24> C 	 23.5404 	 2.86469 	 -111.626
| 25> C 	 23.0421 	 3.15291 	 -110.393
| 26> C 	 22.1223 	 2.12667 	 -109.85
| 27> C 	 21.9042 	 1.06317 	 -110.727
| 28> H 	 23.4763 	 4.05231 	 -109.881
| 29> C 	 21.5019 	 2.16578 	 -108.429
| 30> H 	 21.7131 	 1.20693 	 -108.046
| 31> H 	 20.3936 	 2.26917 	 -108.525
| 32> C 	 21.9944 	 3.20688 	 -107.41
| 33> H 	 21.314 	 3.12713 	 -106.578
| 34> H 	 21.947 	 4.17013 	 -107.792
| 35> C 	 23.4073 	 2.93734 	 -106.921
| 36> H 	 24.1038 	 2.61559 	 -107.726
| 37> H 	 23.3777 	 2.14268 	 -106.174
| 38> H 	 23.8847 	 3.81538 	 -106.478
| 39> H 	 19.5038 	 -3.30386 	 -110.721
| 40> H 	 24.3509 	 3.35418 	 -112.171
| 41> *
| 42>
| 43>                          ****END OF INPUT****

CARTESIAN COORDINATES (ANGSTROEM)
---------------------------------
  S     21.503500   -1.700400  -110.665000
  C     19.803100   -2.257760  -110.666000
  C     18.845600   -1.209260  -110.716000
  C     19.572100    0.028927  -110.809000
  C     20.979100   -0.025579  -110.648000
  H     19.242400    1.052550  -110.955000
  C     17.325400   -1.218520  -110.757000
  H     17.041200   -1.749340  -111.664000
  H     17.006500   -0.251965  -111.109000
  C     16.604600   -1.596630  -109.519000
  H     15.538000   -1.956600  -109.629000
  H     17.010400   -2.587830  -109.167000
  C     16.734000   -0.416197  -108.410000
  H     16.121800    0.380446  -108.719000
  H     16.410100   -0.764250  -107.431000
  H     17.715200   -0.020720  -108.311000
  S     22.728100    1.352530  -112.219000
  C     23.540400    2.864690  -111.626000
  C     23.042100    3.152910  -110.393000
  C     22.122300    2.126670  -109.850000
  C     21.904200    1.063170  -110.727000
  H     23.476300    4.052310  -109.881000
  C     21.501900    2.165780  -108.429000
  H     21.713100    1.206930  -108.046000
  H     20.393600    2.269170  -108.525000
  C     21.994400    3.206880  -107.410000
  H     21.314000    3.127130  -106.578000
  H     21.947000    4.170130  -107.792000
  C     23.407300    2.937340  -106.921000
  H     24.103800    2.615590  -107.726000
  H     23.377700    2.142680  -106.174000
  H     23.884700    3.815380  -106.478000
  H     19.503800   -3.303860  -110.721000
  H     24.350900    3.354180  -112.171000

 Total Charge           Charge          ....    0
 Multiplicity           Mult            ....    1
 Number of Electrons    NEL             ....  134
 Basis Dimension        Dim             ....  322

ORBITAL ENERGIES
----------------

  NO   OCC          E(Eh)            E(eV)
   0   2.0000     -88.971303     -2421.0322
   1   2.0000     -88.958457     -2420.6827
   2   2.0000     -10.328117      -281.0424
   3   2.0000     -10.324984      -280.9571
   4   2.0000     -10.323149      -280.9072
   5   2.0000     -10.323114      -280.9062
   6   2.0000     -10.312034      -280.6047
   7   2.0000     -10.311241      -280.5831
   8   2.0000     -10.303560      -280.3741
   9   2.0000     -10.299914      -280.2749
  10   2.0000     -10.298775      -280.2439
  11   2.0000     -10.293481      -280.0999
  12   2.0000     -10.289988      -280.0048
  13   2.0000     -10.279007      -279.7060
  14   2.0000     -10.277016      -279.6518
  15   2.0000     -10.275796      -279.6186
  16   2.0000      -8.084895      -220.0012
  17   2.0000      -8.073028      -219.6783
  18   2.0000      -6.043398      -164.4492
  19   2.0000      -6.039532      -164.3440
  20   2.0000      -6.035755      -164.2413
  21   2.0000      -6.031719      -164.1314
  22   2.0000      -6.027456      -164.0154
  23   2.0000      -6.023671      -163.9124
  24   2.0000      -1.000210       -27.2171
  25   2.0000      -0.974054       -26.5054
  26   2.0000      -0.913220       -24.8500
  27   2.0000      -0.906894       -24.6778
  28   2.0000      -0.869599       -23.6630
  29   2.0000      -0.842896       -22.9364
  30   2.0000      -0.837084       -22.7782
  31   2.0000      -0.811132       -22.0720
  32   2.0000      -0.787423       -21.4269
  33   2.0000      -0.770621       -20.9697
  34   2.0000      -0.712330       -19.3835
  35   2.0000      -0.704790       -19.1783
  36   2.0000      -0.696225       -18.9452
  37   2.0000      -0.649913       -17.6850
  38   2.0000      -0.643918       -17.5219
  39   2.0000      -0.606436       -16.5020
  40   2.0000      -0.595554       -16.2059
  41   2.0000      -0.572083       -15.5672
  42   2.0000      -0.556820       -15.1518
  43   2.0000      -0.552496       -15.0342
  44   2.0000      -0.539348       -14.6764
  45   2.0000      -0.532800       -14.4982
  46   2.0000      -0.521698       -14.1961
  47   2.0000      -0.506097       -13.7716
  48   2.0000      -0.504136       -13.7182
  49   2.0000      -0.492925       -13.4132
  50   2.0000      -0.489638       -13.3237
  51   2.0000      -0.475989       -12.9523
  52   2.0000      -0.470708       -12.8086
  53   2.0000      -0.464822       -12.6484
  54   2.0000      -0.458975       -12.4894
  55   2.0000      -0.449627       -12.2350
  56   2.0000      -0.438129       -11.9221
  57   2.0000      -0.434985       -11.8366
  58   2.0000      -0.433169       -11.7871
  59   2.0000      -0.425054       -11.5663
  60   2.0000      -0.419274       -11.4090
  61   2.0000      -0.413105       -11.2412
  62   2.0000      -0.409146       -11.1334
  63   2.0000      -0.340553        -9.2669
  64   2.0000      -0.331446        -9.0191
  65   2.0000      -0.316643        -8.6163
  66   2.0000      -0.302937        -8.2433
  67   0.0000       0.030658         0.8343
  68   0.0000       0.058084         1.5806
  69   0.0000       0.110800         3.0150
  70   0.0000       0.121889         3.3168
  71   0.0000       0.125042         3.4026

MULLIKEN ATOMIC CHARGES
-----------------------
   0 S :    0.122702
   1 C :   -0.123106
   2 C :   -0.090881
   3 C :    0.044811
   4 C :   -0.212266
   5 H :    0.014451
   6 C :    0.102795
   7 H :    0.029896
   8 H :    0.003965
   9 C :   -0.082873
  10 H :    0.037602
  11 H :    0.026604
  12 C :   -0.030120
  13 H :    0.021712
  14 H :    0.033668
  15 H :    0.035267
  16 S :    0.086878
  17 C :   -0.111224
  18 C :   -0.043397
  19 C :   -0.061881
  20 C :   -0.148377
  21 H :    0.043768
  22 C :    0.065380
  23 H :    0.024286
  24 H :    0.041973
  25 C :   -0.014453
  26 H :    0.026088
  27 H :    0.012122
  28 C :   -0.082566
  29 H :    0.041040
  30 H :    0.030297
  31 H :    0.032830
  32 H :    0.052466
  33 H :    0.070542
Sum of atomic charges:   -0.0000000

LOEWDIN ATOMIC CHARGES
----------------------
   0 S :    0.403174
   1 C :   -0.183745
   2 C :   -0.057113
   3 C :   -0.052380
   4 C :   -0.210201
   5 H :    0.030825
   6 C :   -0.040413
   7 H :    0.037085
   8 H :    0.028969
   9 C :   -0.046226
  10 H :    0.032284
  11 H :    0.025697
  12 C :   -0.053327
  13 H :    0.018875
  14 H :    0.026367
  15 H :    0.023033
  16 S :    0.380997
  17 C :   -0.166299
  18 C :   -0.082704
  19 C :   -0.051052
  20 C :   -0.219315
  21 H :    0.041907
  22 C :   -0.028459
  23 H :    0.027435
  24 H :    0.037043
  25 C :   -0.036044
  26 H :    0.028796
  27 H :    0.012231
  28 C :   -0.070106
  29 H :    0.028528
  30 H :    0.024933
  31 H :    0.025806
  32 H :    0.027662
  33 H :    0.035738

  Mayer bond orders larger than 0.100000
B(  0-S ,  1-C ) :   1.1585 B(  0-S ,  4-C ) :   1.1390 B(  1-C ,  2-C ) :   1.5907
B(  1-C ,  4-C ) :   0.1095 B(  1-C , 32-H ) :   0.9663 B(  2-C ,  3-C ) :   1.2402
B(  2-C ,  6-C ) :   1.0115 B(  3-C ,  4-C ) :   1.5831 B(  3-C ,  5-H ) :   0.9845
B(  4-C , 20-C ) :   1.0427 B(  6-C ,  7-H ) :   0.9276 B(  6-C ,  8-H ) :   0.9384
B(  6-C ,  9-C ) :   1.0661 B(  9-C , 10-H ) :   0.9559 B(  9-C , 11-H ) :   0.9599
B(  9-C , 12-C ) :   1.0492 B( 12-C , 13-H ) :   0.9775 B( 12-C , 14-H ) :   0.9776
B( 12-C , 15-H ) :   0.9820 B( 16-S , 17-C ) :   1.1330 B( 16-S , 20-C ) :   1.1392
B( 17-C , 18-C ) :   1.6396 B( 17-C , 33-H ) :   0.9669 B( 18-C , 19-C ) :   1.2073
B( 18-C , 21-H ) :   0.9772 B( 19-C , 20-C ) :   1.6178 B( 19-C , 22-C ) :   1.0222
B( 22-C , 23-H ) :   0.9366 B( 22-C , 24-H ) :   0.9307 B( 22-C , 25-C ) :   1.0862
B( 25-C , 26-H ) :   0.9514 B( 25-C , 27-H ) :   0.9524 B( 25-C , 28-C ) :   1.0759
B( 28-C , 29-H ) :   0.9780 B( 28-C , 30-H ) :   0.9751 B( 28-C , 31-H ) :   0.9755

Dispersion correction           -0.014575020
FINAL SINGLE POINT ENERGY     -1339.863131237959

DIPOLE MOMENT
-------------
                                X             Y             Z
Electronic contribution:     14.62308      -7.02421     -19.92964
Nuclear contribution   :    -15.06312       7.30157      20.25089
                        -----------------------------------------
Total Dipole Moment    :     -0.44004       0.27736       0.32125
                        -----------------------------------------
Magnitude (a.u.)       :      0.61136
Magnitude (Debye)      :      1.55396

Rotational constants in cm-1:     0.018694     0.008451     0.006763
Rotational constants in MHz :   560.440652   253.361412   202.740858

                             ****ORCA TERMINATED NORMALLY****
TOTAL RUN TIME: 0 days 0 hours 0 minutes 21 seconds 506 msec
