                         Program Version 4.2.1 -  RELEASE  -
|  1> ! wB97X-D3 SP def2-SVP
|  2> %pal
|  3> nprocs 24
|  4> end
|  5>
|  6> * xyz 0 1
|  7> S 	 38.6235 	 -2.28044 	 -122.28
|  8> C 	 38.6074 	 -3.96947 	 -122.645
|  9> C 	 39.2877 	 -4.78254 	 -121.735
| 10> C 	 39.8982 	 -3.98353 	 -120.708
| 11> C 	 39.7138 	 -2.6284 	 -120.843
| 12> H 	 40.3806 	 -4.33498 	 -119.84
| 13> C 	 39.4383 	 -6.2966 	 -121.738
| 14> H 	 38.8256 	 -6.59661 	 -120.845
| 15> H 	 40.4724 	 -6.53318 	 -121.564
| 16> C 	 38.7974 	 -6.98961 	 -122.966
| 17> H 	 37.7674 	 -6.63606 	 -123.161
| 18> H 	 39.2338 	 -6.55669 	 -123.779
| 19> C 	 38.9142 	 -8.49362 	 -122.959
| 20> H 	 38.4806 	 -8.95018 	 -123.824
| 21> H 	 39.9874 	 -8.72335 	 -122.776
| 22> H 	 38.4088 	 -8.95303 	 -122.164
| 23> S 	 40.9609 	 -0.181578 	 -120.97
| 24> C 	 41.5277 	 0.508732 	 -119.519
| 25> C 	 41.1187 	 -0.140112 	 -118.365
| 26> C 	 40.2952 	 -1.30589 	 -118.648
| 27> C 	 40.2532 	 -1.53776 	 -120.03
| 28> H 	 41.3253 	 0.288649 	 -117.411
| 29> C 	 39.7535 	 -2.20623 	 -117.517
| 30> H 	 38.8863 	 -2.79867 	 -117.876
| 31> H 	 39.3838 	 -1.61602 	 -116.714
| 32> C 	 40.8909 	 -3.14318 	 -116.893
| 33> H 	 41.8334 	 -2.63626 	 -116.57
| 34> H 	 41.1795 	 -3.84518 	 -117.724
| 35> C 	 40.4169 	 -4.01353 	 -115.723
| 36> H 	 41.1256 	 -4.81187 	 -115.472
| 37> H 	 39.3829 	 -4.35923 	 -115.91
| 38> H 	 40.3777 	 -3.34901 	 -114.826
| 39> H 	 38.2276 	 -4.38713 	 -123.559
| 40> H 	 42.0943 	 1.34967 	 -119.381
| 41> *
| 42>
| 43>                          ****END OF INPUT****

CARTESIAN COORDINATES (ANGSTROEM)
---------------------------------
  S     38.623500   -2.280440  -122.280000
  C     38.607400   -3.969470  -122.645000
  C     39.287700   -4.782540  -121.735000
  C     39.898200   -3.983530  -120.708000
  C     39.713800   -2.628400  -120.843000
  H     40.380600   -4.334980  -119.840000
  C     39.438300   -6.296600  -121.738000
  H     38.825600   -6.596610  -120.845000
  H     40.472400   -6.533180  -121.564000
  C     38.797400   -6.989610  -122.966000
  H     37.767400   -6.636060  -123.161000
  H     39.233800   -6.556690  -123.779000
  C     38.914200   -8.493620  -122.959000
  H     38.480600   -8.950180  -123.824000
  H     39.987400   -8.723350  -122.776000
  H     38.408800   -8.953030  -122.164000
  S     40.960900   -0.181578  -120.970000
  C     41.527700    0.508732  -119.519000
  C     41.118700   -0.140112  -118.365000
  C     40.295200   -1.305890  -118.648000
  C     40.253200   -1.537760  -120.030000
  H     41.325300    0.288649  -117.411000
  C     39.753500   -2.206230  -117.517000
  H     38.886300   -2.798670  -117.876000
  H     39.383800   -1.616020  -116.714000
  C     40.890900   -3.143180  -116.893000
  H     41.833400   -2.636260  -116.570000
  H     41.179500   -3.845180  -117.724000
  C     40.416900   -4.013530  -115.723000
  H     41.125600   -4.811870  -115.472000
  H     39.382900   -4.359230  -115.910000
  H     40.377700   -3.349010  -114.826000
  H     38.227600   -4.387130  -123.559000
  H     42.094300    1.349670  -119.381000

 Total Charge           Charge          ....    0
 Multiplicity           Mult            ....    1
 Number of Electrons    NEL             ....  134
 Basis Dimension        Dim             ....  322

ORBITAL ENERGIES
----------------

  NO   OCC          E(Eh)            E(eV)
   0   2.0000     -88.967382     -2420.9255
   1   2.0000     -88.964479     -2420.8466
   2   2.0000     -10.332634      -281.1653
   3   2.0000     -10.330813      -281.1157
   4   2.0000     -10.312253      -280.6107
   5   2.0000     -10.310590      -280.5654
   6   2.0000     -10.308753      -280.5154
   7   2.0000     -10.301864      -280.3280
   8   2.0000     -10.301818      -280.3267
   9   2.0000     -10.298208      -280.2285
  10   2.0000     -10.297532      -280.2101
  11   2.0000     -10.292645      -280.0771
  12   2.0000     -10.290950      -280.0310
  13   2.0000     -10.285158      -279.8734
  14   2.0000     -10.280990      -279.7599
  15   2.0000     -10.274976      -279.5963
  16   2.0000      -8.082218      -219.9283
  17   2.0000      -8.078345      -219.8229
  18   2.0000      -6.040676      -164.3752
  19   2.0000      -6.036938      -164.2734
  20   2.0000      -6.036825      -164.2704
  21   2.0000      -6.033161      -164.1707
  22   2.0000      -6.032911      -164.1639
  23   2.0000      -6.028889      -164.0544
  24   2.0000      -0.999062       -27.1859
  25   2.0000      -0.977949       -26.6114
  26   2.0000      -0.912221       -24.8228
  27   2.0000      -0.901879       -24.5414
  28   2.0000      -0.866280       -23.5727
  29   2.0000      -0.854281       -23.2462
  30   2.0000      -0.848679       -23.0937
  31   2.0000      -0.814600       -22.1664
  32   2.0000      -0.782911       -21.3041
  33   2.0000      -0.767467       -20.8838
  34   2.0000      -0.720331       -19.6012
  35   2.0000      -0.697904       -18.9909
  36   2.0000      -0.691038       -18.8041
  37   2.0000      -0.663210       -18.0469
  38   2.0000      -0.639120       -17.3914
  39   2.0000      -0.613942       -16.7062
  40   2.0000      -0.594982       -16.1903
  41   2.0000      -0.572069       -15.5668
  42   2.0000      -0.564105       -15.3501
  43   2.0000      -0.557630       -15.1739
  44   2.0000      -0.530310       -14.4305
  45   2.0000      -0.527146       -14.3444
  46   2.0000      -0.517522       -14.0825
  47   2.0000      -0.507770       -13.8171
  48   2.0000      -0.505979       -13.7684
  49   2.0000      -0.495707       -13.4889
  50   2.0000      -0.493147       -13.4192
  51   2.0000      -0.483661       -13.1611
  52   2.0000      -0.472732       -12.8637
  53   2.0000      -0.464145       -12.6300
  54   2.0000      -0.459343       -12.4994
  55   2.0000      -0.450821       -12.2675
  56   2.0000      -0.443313       -12.0632
  57   2.0000      -0.438896       -11.9430
  58   2.0000      -0.435576       -11.8526
  59   2.0000      -0.428083       -11.6487
  60   2.0000      -0.426879       -11.6160
  61   2.0000      -0.415544       -11.3075
  62   2.0000      -0.414190       -11.2707
  63   2.0000      -0.347613        -9.4590
  64   2.0000      -0.331365        -9.0169
  65   2.0000      -0.326011        -8.8712
  66   2.0000      -0.287450        -7.8219
  67   0.0000       0.029648         0.8068
  68   0.0000       0.067307         1.8315
  69   0.0000       0.107099         2.9143
  70   0.0000       0.121439         3.3045
  71   0.0000       0.127259         3.4629

MULLIKEN ATOMIC CHARGES
-----------------------
   0 S :    0.101367
   1 C :   -0.118448
   2 C :   -0.109129
   3 C :    0.046394
   4 C :   -0.132934
   5 H :   -0.022634
   6 C :    0.058872
   7 H :    0.044911
   8 H :    0.037193
   9 C :   -0.078516
  10 H :    0.022593
  11 H :    0.003237
  12 C :    0.019053
  13 H :    0.029766
  14 H :    0.028121
  15 H :    0.012206
  16 S :    0.117224
  17 C :   -0.032909
  18 C :   -0.047001
  19 C :   -0.012901
  20 C :   -0.178461
  21 H :    0.008638
  22 C :    0.071565
  23 H :    0.041095
  24 H :    0.017194
  25 C :   -0.123330
  26 H :    0.043422
  27 H :    0.035442
  28 C :   -0.053649
  29 H :    0.046668
  30 H :    0.036357
  31 H :    0.031598
  32 H :    0.039134
  33 H :    0.017863
Sum of atomic charges:   -0.0000000

LOEWDIN ATOMIC CHARGES
----------------------
   0 S :    0.369870
   1 C :   -0.207456
   2 C :   -0.061618
   3 C :   -0.055171
   4 C :   -0.164623
   5 H :    0.022291
   6 C :   -0.026551
   7 H :    0.042311
   8 H :    0.029986
   9 C :   -0.043486
  10 H :    0.026704
  11 H :    0.009435
  12 C :   -0.055640
  13 H :    0.026628
  14 H :    0.031849
  15 H :    0.017937
  16 S :    0.409601
  17 C :   -0.183082
  18 C :   -0.066763
  19 C :   -0.044499
  20 C :   -0.187937
  21 H :    0.026008
  22 C :   -0.027211
  23 H :    0.036330
  24 H :    0.024735
  25 C :   -0.046137
  26 H :    0.029101
  27 H :    0.022117
  28 C :   -0.072624
  29 H :    0.029934
  30 H :    0.026676
  31 H :    0.026451
  32 H :    0.021759
  33 H :    0.013074

  Mayer bond orders larger than 0.100000
B(  0-S ,  1-C ) :   1.1260 B(  0-S ,  4-C ) :   1.1135 B(  1-C ,  2-C ) :   1.6437
B(  1-C , 32-H ) :   0.9554 B(  2-C ,  3-C ) :   1.2174 B(  2-C ,  6-C ) :   1.0060
B(  3-C ,  4-C ) :   1.6148 B(  3-C ,  5-H ) :   1.0005 B(  4-C , 20-C ) :   1.0518
B(  6-C ,  7-H ) :   0.9338 B(  6-C ,  8-H ) :   0.9418 B(  6-C ,  9-C ) :   1.0797
B(  9-C , 10-H ) :   0.9446 B(  9-C , 11-H ) :   0.9496 B(  9-C , 12-C ) :   1.0868
B( 12-C , 13-H ) :   0.9698 B( 12-C , 14-H ) :   0.9716 B( 12-C , 15-H ) :   0.9732
B( 16-S , 17-C ) :   1.1533 B( 16-S , 20-C ) :   1.1264 B( 17-C , 18-C ) :   1.6382
B( 17-C , 33-H ) :   0.9717 B( 18-C , 19-C ) :   1.2090 B( 18-C , 21-H ) :   0.9901
B( 19-C , 20-C ) :   1.6005 B( 19-C , 22-C ) :   1.0577 B( 22-C , 23-H ) :   0.9346
B( 22-C , 24-H ) :   0.9353 B( 22-C , 25-C ) :   1.0453 B( 25-C , 26-H ) :   0.9583
B( 25-C , 27-H ) :   0.9567 B( 25-C , 28-C ) :   1.0778 B( 28-C , 29-H ) :   0.9738
B( 28-C , 30-H ) :   0.9731 B( 28-C , 31-H ) :   0.9757

Dispersion correction           -0.013610569
FINAL SINGLE POINT ENERGY     -1339.872918664185

DIPOLE MOMENT
-------------
                                X             Y             Z
Electronic contribution:      0.62712      27.24289     -12.55150
Nuclear contribution   :     -0.50181     -27.72319      13.07811
                        -----------------------------------------
Total Dipole Moment    :      0.12531      -0.48030       0.52661
                        -----------------------------------------
Magnitude (a.u.)       :      0.72367
Magnitude (Debye)      :      1.83943

Rotational constants in cm-1:     0.018270     0.007926     0.005878
Rotational constants in MHz :   547.729579   237.628129   176.206091

                             ****ORCA TERMINATED NORMALLY****
TOTAL RUN TIME: 0 days 0 hours 0 minutes 21 seconds 23 msec
