                         Program Version 4.2.1 -  RELEASE  -
|  1> ! wB97X-D3 SP def2-SVP
|  2> %pal
|  3> nprocs 24
|  4> end
|  5>
|  6> * xyz 0 1
|  7> S 	 -88.3952 	 -2.87971 	 8.09089
|  8> C 	 -88.1233 	 -2.46027 	 6.41182
|  9> C 	 -86.8375 	 -2.87947 	 5.96703
| 10> C 	 -86.1394 	 -3.54571 	 7.00205
| 11> C 	 -86.7867 	 -3.51575 	 8.25994
| 12> H 	 -85.084 	 -3.88132 	 6.92751
| 13> C 	 -86.1964 	 -2.42526 	 4.71472
| 14> H 	 -86.8947 	 -2.70917 	 3.87748
| 15> H 	 -85.3338 	 -3.02973 	 4.46365
| 16> C 	 -85.6585 	 -0.936327 	 4.68667
| 17> H 	 -84.9551 	 -0.79322 	 3.88907
| 18> H 	 -86.6052 	 -0.392378 	 4.50697
| 19> C 	 -84.8982 	 -0.436606 	 5.96337
| 20> H 	 -84.0055 	 -1.02652 	 6.21265
| 21> H 	 -84.588 	 0.611826 	 5.75306
| 22> H 	 -85.5622 	 -0.556974 	 6.84411
| 23> S 	 -87.1496 	 -5.29232 	 10.4012
| 24> C 	 -85.8568 	 -5.44009 	 11.5936
| 25> C 	 -84.9829 	 -4.39228 	 11.4871
| 26> C 	 -85.2397 	 -3.58105 	 10.3347
| 27> C 	 -86.3759 	 -3.96433 	 9.58177
| 28> H 	 -84.2164 	 -4.31382 	 12.2691
| 29> C 	 -84.2318 	 -2.49843 	 9.82513
| 30> H 	 -84.2006 	 -1.77085 	 10.5779
| 31> H 	 -84.5788 	 -2.04221 	 8.89128
| 32> C 	 -82.7686 	 -3.03139 	 9.43855
| 33> H 	 -82.8209 	 -3.71593 	 8.63095
| 34> H 	 -82.4569 	 -3.56261 	 10.327
| 35> C 	 -81.8043 	 -1.86458 	 9.13942
| 36> H 	 -81.8116 	 -1.19515 	 10.0629
| 37> H 	 -82.0402 	 -1.37759 	 8.21016
| 38> H 	 -80.7819 	 -2.10248 	 8.9752
| 39> H 	 -88.8627 	 -1.81946 	 5.92399
| 40> H 	 -85.8187 	 -6.22804 	 12.3295
| 41> *
| 42>
| 43>                          ****END OF INPUT****

CARTESIAN COORDINATES (ANGSTROEM)
---------------------------------
  S    -88.395200   -2.879710    8.090890
  C    -88.123300   -2.460270    6.411820
  C    -86.837500   -2.879470    5.967030
  C    -86.139400   -3.545710    7.002050
  C    -86.786700   -3.515750    8.259940
  H    -85.084000   -3.881320    6.927510
  C    -86.196400   -2.425260    4.714720
  H    -86.894700   -2.709170    3.877480
  H    -85.333800   -3.029730    4.463650
  C    -85.658500   -0.936327    4.686670
  H    -84.955100   -0.793220    3.889070
  H    -86.605200   -0.392378    4.506970
  C    -84.898200   -0.436606    5.963370
  H    -84.005500   -1.026520    6.212650
  H    -84.588000    0.611826    5.753060
  H    -85.562200   -0.556974    6.844110
  S    -87.149600   -5.292320   10.401200
  C    -85.856800   -5.440090   11.593600
  C    -84.982900   -4.392280   11.487100
  C    -85.239700   -3.581050   10.334700
  C    -86.375900   -3.964330    9.581770
  H    -84.216400   -4.313820   12.269100
  C    -84.231800   -2.498430    9.825130
  H    -84.200600   -1.770850   10.577900
  H    -84.578800   -2.042210    8.891280
  C    -82.768600   -3.031390    9.438550
  H    -82.820900   -3.715930    8.630950
  H    -82.456900   -3.562610   10.327000
  C    -81.804300   -1.864580    9.139420
  H    -81.811600   -1.195150   10.062900
  H    -82.040200   -1.377590    8.210160
  H    -80.781900   -2.102480    8.975200
  H    -88.862700   -1.819460    5.923990
  H    -85.818700   -6.228040   12.329500

 Total Charge           Charge          ....    0
 Multiplicity           Mult            ....    1
 Number of Electrons    NEL             ....  134
 Basis Dimension        Dim             ....  322

ORBITAL ENERGIES
----------------

  NO   OCC          E(Eh)            E(eV)
   0   2.0000     -88.967651     -2420.9329
   1   2.0000     -88.964245     -2420.8402
   2   2.0000     -10.333016      -281.1757
   3   2.0000     -10.328146      -281.0431
   4   2.0000     -10.320042      -280.8226
   5   2.0000     -10.319694      -280.8131
   6   2.0000     -10.309819      -280.5444
   7   2.0000     -10.305655      -280.4311
   8   2.0000     -10.301059      -280.3061
   9   2.0000     -10.298560      -280.2381
  10   2.0000     -10.294342      -280.1233
  11   2.0000     -10.294234      -280.1204
  12   2.0000     -10.290197      -280.0105
  13   2.0000     -10.287402      -279.9344
  14   2.0000     -10.286054      -279.8978
  15   2.0000     -10.280907      -279.7577
  16   2.0000      -8.082601      -219.9388
  17   2.0000      -8.079028      -219.8415
  18   2.0000      -6.040858      -164.3801
  19   2.0000      -6.037534      -164.2897
  20   2.0000      -6.036898      -164.2723
  21   2.0000      -6.033800      -164.1880
  22   2.0000      -6.033417      -164.1776
  23   2.0000      -6.029879      -164.0813
  24   2.0000      -1.004442       -27.3323
  25   2.0000      -0.982506       -26.7353
  26   2.0000      -0.908424       -24.7195
  27   2.0000      -0.897697       -24.4276
  28   2.0000      -0.866469       -23.5778
  29   2.0000      -0.847527       -23.0624
  30   2.0000      -0.843896       -22.9636
  31   2.0000      -0.813330       -22.1318
  32   2.0000      -0.782960       -21.3054
  33   2.0000      -0.767376       -20.8814
  34   2.0000      -0.704814       -19.1790
  35   2.0000      -0.701348       -19.0847
  36   2.0000      -0.697472       -18.9792
  37   2.0000      -0.656039       -17.8517
  38   2.0000      -0.639908       -17.4128
  39   2.0000      -0.614065       -16.7096
  40   2.0000      -0.591711       -16.1013
  41   2.0000      -0.575230       -15.6528
  42   2.0000      -0.568612       -15.4727
  43   2.0000      -0.549943       -14.9647
  44   2.0000      -0.543600       -14.7921
  45   2.0000      -0.517445       -14.0804
  46   2.0000      -0.514702       -14.0058
  47   2.0000      -0.513044       -13.9606
  48   2.0000      -0.504394       -13.7253
  49   2.0000      -0.495303       -13.4779
  50   2.0000      -0.490858       -13.3569
  51   2.0000      -0.475974       -12.9519
  52   2.0000      -0.471308       -12.8249
  53   2.0000      -0.466194       -12.6858
  54   2.0000      -0.456780       -12.4296
  55   2.0000      -0.450615       -12.2619
  56   2.0000      -0.446929       -12.1616
  57   2.0000      -0.438471       -11.9314
  58   2.0000      -0.436861       -11.8876
  59   2.0000      -0.423365       -11.5203
  60   2.0000      -0.419276       -11.4091
  61   2.0000      -0.409144       -11.1334
  62   2.0000      -0.407159       -11.0794
  63   2.0000      -0.343688        -9.3522
  64   2.0000      -0.332994        -9.0612
  65   2.0000      -0.325118        -8.8469
  66   2.0000      -0.293530        -7.9874
  67   0.0000       0.032004         0.8709
  68   0.0000       0.054895         1.4938
  69   0.0000       0.112656         3.0655
  70   0.0000       0.120371         3.2755
  71   0.0000       0.121295         3.3006

MULLIKEN ATOMIC CHARGES
-----------------------
   0 S :    0.117200
   1 C :   -0.136251
   2 C :   -0.098671
   3 C :    0.049070
   4 C :   -0.200971
   5 H :    0.024229
   6 C :    0.039227
   7 H :    0.043575
   8 H :    0.011624
   9 C :   -0.067858
  10 H :    0.032322
  11 H :    0.037502
  12 C :   -0.088214
  13 H :    0.033512
  14 H :    0.049333
  15 H :    0.065405
  16 S :    0.107270
  17 C :   -0.105021
  18 C :   -0.034229
  19 C :   -0.027335
  20 C :   -0.138917
  21 H :    0.033125
  22 C :    0.069381
  23 H :    0.016633
  24 H :    0.019359
  25 C :   -0.060741
  26 H :    0.023625
  27 H :    0.021839
  28 C :   -0.048983
  29 H :    0.040633
  30 H :    0.027665
  31 H :    0.024467
  32 H :    0.062180
  33 H :    0.058014
Sum of atomic charges:    0.0000000

LOEWDIN ATOMIC CHARGES
----------------------
   0 S :    0.424932
   1 C :   -0.201111
   2 C :   -0.068453
   3 C :   -0.062892
   4 C :   -0.198364
   5 H :    0.036689
   6 C :   -0.044839
   7 H :    0.040545
   8 H :    0.025099
   9 C :   -0.033441
  10 H :    0.021336
  11 H :    0.026170
  12 C :   -0.070924
  13 H :    0.021813
  14 H :    0.034084
  15 H :    0.031103
  16 S :    0.402275
  17 C :   -0.172064
  18 C :   -0.077679
  19 C :   -0.049465
  20 C :   -0.218768
  21 H :    0.038363
  22 C :   -0.022471
  23 H :    0.020149
  24 H :    0.027065
  25 C :   -0.030134
  26 H :    0.015462
  27 H :    0.018411
  28 C :   -0.068463
  29 H :    0.035602
  30 H :    0.022237
  31 H :    0.021255
  32 H :    0.027782
  33 H :    0.028698

  Mayer bond orders larger than 0.100000
B(  0-S ,  1-C ) :   1.1665 B(  0-S ,  4-C ) :   1.1872 B(  1-C ,  2-C ) :   1.5369
B(  1-C ,  4-C ) :   0.1170 B(  1-C , 32-H ) :   0.9739 B(  2-C ,  3-C ) :   1.2800
B(  2-C ,  6-C ) :   1.0442 B(  3-C ,  4-C ) :   1.5325 B(  3-C ,  5-H ) :   0.9887
B(  4-C , 20-C ) :   1.0258 B(  6-C ,  7-H ) :   0.9421 B(  6-C ,  8-H ) :   0.9376
B(  6-C ,  9-C ) :   1.0444 B(  9-C , 10-H ) :   0.9608 B(  9-C , 11-H ) :   0.9596
B(  9-C , 12-C ) :   1.0764 B( 12-C , 13-H ) :   0.9743 B( 12-C , 14-H ) :   0.9716
B( 12-C , 15-H ) :   0.9682 B( 16-S , 17-C ) :   1.1612 B( 16-S , 20-C ) :   1.1413
B( 17-C , 18-C ) :   1.6078 B( 17-C , 33-H ) :   0.9693 B( 18-C , 19-C ) :   1.2314
B( 18-C , 21-H ) :   0.9898 B( 19-C , 20-C ) :   1.5820 B( 19-C , 22-C ) :   1.0429
B( 22-C , 23-H ) :   0.9364 B( 22-C , 24-H ) :   0.9385 B( 22-C , 25-C ) :   1.0503
B( 25-C , 26-H ) :   0.9598 B( 25-C , 27-H ) :   0.9583 B( 25-C , 28-C ) :   1.0797
B( 28-C , 29-H ) :   0.9748 B( 28-C , 30-H ) :   0.9753 B( 28-C , 31-H ) :   0.9727

Dispersion correction           -0.015932249
FINAL SINGLE POINT ENERGY     -1339.874291120513

DIPOLE MOMENT
-------------
                                X             Y             Z
Electronic contribution:    -24.36295     -15.90824      11.85064
Nuclear contribution   :     25.03682      16.18076     -12.02083
                        -----------------------------------------
Total Dipole Moment    :      0.67387       0.27251      -0.17019
                        -----------------------------------------
Magnitude (a.u.)       :      0.74655
Magnitude (Debye)      :      1.89757

Rotational constants in cm-1:     0.017035     0.010705     0.007118
Rotational constants in MHz :   510.697333   320.933957   213.406144

                             ****ORCA TERMINATED NORMALLY****
TOTAL RUN TIME: 0 days 0 hours 0 minutes 22 seconds 659 msec
