                         Program Version 4.2.1 -  RELEASE  -
|  1> ! wB97X-D3 SP def2-SVP
|  2> %pal
|  3> nprocs 24
|  4> end
|  5>
|  6> * xyz 0 1
|  7> S 	 44.3745 	 -15.9017 	 -127.725
|  8> C 	 44.3874 	 -14.1119 	 -127.537
|  9> C 	 43.4548 	 -13.6314 	 -126.634
| 10> C 	 42.8406 	 -14.7325 	 -125.964
| 11> C 	 43.2379 	 -16.0191 	 -126.374
| 12> H 	 42.3547 	 -14.5709 	 -125.045
| 13> C 	 43.2814 	 -12.1987 	 -126.217
| 14> H 	 44.2347 	 -11.6747 	 -126.276
| 15> H 	 42.965 	 -12.1776 	 -125.209
| 16> C 	 42.3331 	 -11.2505 	 -127.061
| 17> H 	 41.3294 	 -11.7008 	 -127.163
| 18> H 	 42.2598 	 -10.3447 	 -126.552
| 19> C 	 42.7415 	 -10.7255 	 -128.388
| 20> H 	 42.0802 	 -9.98186 	 -128.806
| 21> H 	 43.739 	 -10.2862 	 -128.362
| 22> H 	 42.7333 	 -11.4897 	 -129.049
| 23> S 	 44.4374 	 -18.3077 	 -125.517
| 24> C 	 43.6372 	 -19.3735 	 -124.398
| 25> C 	 42.3197 	 -18.9705 	 -124.172
| 26> C 	 41.9936 	 -17.747 	 -124.856
| 27> C 	 43.0489 	 -17.2766 	 -125.634
| 28> H 	 41.7202 	 -19.642 	 -123.493
| 29> C 	 40.6607 	 -17.0844 	 -124.675
| 30> H 	 40.8388 	 -16.1227 	 -124.253
| 31> H 	 40.1121 	 -17.5772 	 -123.932
| 32> C 	 39.8476 	 -16.8598 	 -125.984
| 33> H 	 40.3207 	 -16.0202 	 -126.416
| 34> H 	 38.9677 	 -16.3382 	 -125.72
| 35> C 	 39.6236 	 -18.1099 	 -126.786
| 36> H 	 38.8937 	 -17.9677 	 -127.545
| 37> H 	 39.1746 	 -18.9497 	 -126.291
| 38> H 	 40.5396 	 -18.3936 	 -127.202
| 39> H 	 45.1212 	 -13.3957 	 -128.043
| 40> H 	 43.9489 	 -20.3463 	 -124.065
| 41> *
| 42>
| 43>                          ****END OF INPUT****

CARTESIAN COORDINATES (ANGSTROEM)
---------------------------------
  S     44.374500  -15.901700  -127.725000
  C     44.387400  -14.111900  -127.537000
  C     43.454800  -13.631400  -126.634000
  C     42.840600  -14.732500  -125.964000
  C     43.237900  -16.019100  -126.374000
  H     42.354700  -14.570900  -125.045000
  C     43.281400  -12.198700  -126.217000
  H     44.234700  -11.674700  -126.276000
  H     42.965000  -12.177600  -125.209000
  C     42.333100  -11.250500  -127.061000
  H     41.329400  -11.700800  -127.163000
  H     42.259800  -10.344700  -126.552000
  C     42.741500  -10.725500  -128.388000
  H     42.080200   -9.981860  -128.806000
  H     43.739000  -10.286200  -128.362000
  H     42.733300  -11.489700  -129.049000
  S     44.437400  -18.307700  -125.517000
  C     43.637200  -19.373500  -124.398000
  C     42.319700  -18.970500  -124.172000
  C     41.993600  -17.747000  -124.856000
  C     43.048900  -17.276600  -125.634000
  H     41.720200  -19.642000  -123.493000
  C     40.660700  -17.084400  -124.675000
  H     40.838800  -16.122700  -124.253000
  H     40.112100  -17.577200  -123.932000
  C     39.847600  -16.859800  -125.984000
  H     40.320700  -16.020200  -126.416000
  H     38.967700  -16.338200  -125.720000
  C     39.623600  -18.109900  -126.786000
  H     38.893700  -17.967700  -127.545000
  H     39.174600  -18.949700  -126.291000
  H     40.539600  -18.393600  -127.202000
  H     45.121200  -13.395700  -128.043000
  H     43.948900  -20.346300  -124.065000

 Total Charge           Charge          ....    0
 Multiplicity           Mult            ....    1
 Number of Electrons    NEL             ....  134
 Basis Dimension        Dim             ....  322

ORBITAL ENERGIES
----------------

  NO   OCC          E(Eh)            E(eV)
   0   2.0000     -88.972096     -2421.0538
   1   2.0000     -88.966628     -2420.9050
   2   2.0000     -10.337041      -281.2852
   3   2.0000     -10.327385      -281.0224
   4   2.0000     -10.323914      -280.9280
   5   2.0000     -10.314546      -280.6731
   6   2.0000     -10.303857      -280.3822
   7   2.0000     -10.303646      -280.3765
   8   2.0000     -10.299293      -280.2580
   9   2.0000     -10.296572      -280.1840
  10   2.0000     -10.294441      -280.1260
  11   2.0000     -10.282423      -279.7990
  12   2.0000     -10.279889      -279.7300
  13   2.0000     -10.271872      -279.5119
  14   2.0000     -10.264961      -279.3238
  15   2.0000     -10.261045      -279.2172
  16   2.0000      -8.085458      -220.0165
  17   2.0000      -8.081553      -219.9102
  18   2.0000      -6.044087      -164.4680
  19   2.0000      -6.040241      -164.3633
  20   2.0000      -6.040085      -164.3591
  21   2.0000      -6.036091      -164.2504
  22   2.0000      -6.035887      -164.2448
  23   2.0000      -6.032417      -164.1504
  24   2.0000      -1.005015       -27.3478
  25   2.0000      -0.979979       -26.6666
  26   2.0000      -0.914025       -24.8719
  27   2.0000      -0.910308       -24.7707
  28   2.0000      -0.872212       -23.7341
  29   2.0000      -0.851293       -23.1649
  30   2.0000      -0.847516       -23.0621
  31   2.0000      -0.813422       -22.1343
  32   2.0000      -0.790088       -21.4994
  33   2.0000      -0.779219       -21.2036
  34   2.0000      -0.715613       -19.4728
  35   2.0000      -0.702000       -19.1024
  36   2.0000      -0.692569       -18.8458
  37   2.0000      -0.660859       -17.9829
  38   2.0000      -0.632312       -17.2061
  39   2.0000      -0.622836       -16.9482
  40   2.0000      -0.587715       -15.9925
  41   2.0000      -0.575261       -15.6537
  42   2.0000      -0.555028       -15.1031
  43   2.0000      -0.552845       -15.0437
  44   2.0000      -0.549423       -14.9506
  45   2.0000      -0.544313       -14.8115
  46   2.0000      -0.513984       -13.9862
  47   2.0000      -0.510922       -13.9029
  48   2.0000      -0.502314       -13.6686
  49   2.0000      -0.494361       -13.4523
  50   2.0000      -0.488922       -13.3042
  51   2.0000      -0.480824       -13.0839
  52   2.0000      -0.479585       -13.0502
  53   2.0000      -0.469105       -12.7650
  54   2.0000      -0.460445       -12.5293
  55   2.0000      -0.448289       -12.1986
  56   2.0000      -0.447070       -12.1654
  57   2.0000      -0.439668       -11.9640
  58   2.0000      -0.430295       -11.7089
  59   2.0000      -0.427073       -11.6212
  60   2.0000      -0.421756       -11.4766
  61   2.0000      -0.413309       -11.2467
  62   2.0000      -0.408437       -11.1141
  63   2.0000      -0.349871        -9.5205
  64   2.0000      -0.334504        -9.1023
  65   2.0000      -0.329100        -8.9553
  66   2.0000      -0.283906        -7.7255
  67   0.0000       0.018322         0.4986
  68   0.0000       0.074358         2.0234
  69   0.0000       0.102386         2.7861
  70   0.0000       0.116440         3.1685
  71   0.0000       0.129926         3.5355

MULLIKEN ATOMIC CHARGES
-----------------------
   0 S :    0.105205
   1 C :   -0.156828
   2 C :   -0.070315
   3 C :    0.031342
   4 C :   -0.133200
   5 H :   -0.002474
   6 C :    0.083837
   7 H :    0.020441
   8 H :    0.016494
   9 C :   -0.068101
  10 H :    0.030112
  11 H :    0.014999
  12 C :   -0.009127
  13 H :    0.030795
  14 H :    0.017140
  15 H :    0.004187
  16 S :    0.110913
  17 C :   -0.087396
  18 C :   -0.073048
  19 C :   -0.062736
  20 C :   -0.133450
  21 H :    0.040662
  22 C :    0.101693
  23 H :    0.010655
  24 H :   -0.005726
  25 C :   -0.026493
  26 H :    0.007336
  27 H :   -0.002849
  28 C :    0.021710
  29 H :    0.015102
  30 H :    0.015847
  31 H :    0.032997
  32 H :    0.070844
  33 H :    0.049432
Sum of atomic charges:   -0.0000000

LOEWDIN ATOMIC CHARGES
----------------------
   0 S :    0.378627
   1 C :   -0.190825
   2 C :   -0.064901
   3 C :   -0.059024
   4 C :   -0.182627
   5 H :    0.020751
   6 C :   -0.022838
   7 H :    0.033698
   8 H :    0.028169
   9 C :   -0.035360
  10 H :    0.025996
  11 H :    0.018153
  12 C :   -0.056929
  13 H :    0.030718
  14 H :    0.023527
  15 H :    0.008098
  16 S :    0.420732
  17 C :   -0.195134
  18 C :   -0.075771
  19 C :   -0.055936
  20 C :   -0.205914
  21 H :    0.042463
  22 C :   -0.023349
  23 H :    0.026899
  24 H :    0.018883
  25 C :   -0.035149
  26 H :    0.021019
  27 H :    0.018103
  28 C :   -0.055427
  29 H :    0.024869
  30 H :    0.025800
  31 H :    0.023066
  32 H :    0.041882
  33 H :    0.027732

  Mayer bond orders larger than 0.100000
B(  0-S ,  1-C ) :   1.1239 B(  0-S ,  4-C ) :   1.1385 B(  1-C ,  2-C ) :   1.6252
B(  1-C , 32-H ) :   0.9528 B(  2-C ,  3-C ) :   1.2544 B(  2-C ,  6-C ) :   1.0274
B(  3-C ,  4-C ) :   1.5633 B(  3-C ,  5-H ) :   0.9848 B(  4-C , 20-C ) :   1.0619
B(  6-C ,  7-H ) :   0.9396 B(  6-C ,  8-H ) :   0.9367 B(  6-C ,  9-C ) :   1.0699
B(  9-C , 10-H ) :   0.9545 B(  9-C , 11-H ) :   0.9557 B(  9-C , 12-C ) :   1.0898
B( 12-C , 13-H ) :   0.9689 B( 12-C , 14-H ) :   0.9687 B( 12-C , 15-H ) :   0.9727
B( 16-S , 17-C ) :   1.1605 B( 16-S , 20-C ) :   1.1428 B( 17-C , 18-C ) :   1.6109
B( 17-C , 33-H ) :   0.9648 B( 18-C , 19-C ) :   1.2458 B( 18-C , 21-H ) :   0.9822
B( 19-C , 20-C ) :   1.5641 B( 19-C , 22-C ) :   1.0471 B( 22-C , 23-H ) :   0.9252
B( 22-C , 24-H ) :   0.9288 B( 22-C , 25-C ) :   1.0809 B( 25-C , 26-H ) :   0.9453
B( 25-C , 27-H ) :   0.9459 B( 25-C , 28-C ) :   1.0713 B( 28-C , 29-H ) :   0.9692
B( 28-C , 30-H ) :   0.9736 B( 28-C , 31-H ) :   0.9718

Dispersion correction           -0.014731962
FINAL SINGLE POINT ENERGY     -1339.853492558025

DIPOLE MOMENT
-------------
                                X             Y             Z
Electronic contribution:     18.56335     -17.90851       1.79445
Nuclear contribution   :    -18.93405      18.35155      -1.45865
                        -----------------------------------------
Total Dipole Moment    :     -0.37070       0.44304       0.33580
                        -----------------------------------------
Magnitude (a.u.)       :      0.66819
Magnitude (Debye)      :      1.69840

Rotational constants in cm-1:     0.022110     0.008144     0.006799
Rotational constants in MHz :   662.841091   244.165178   203.823106

                             ****ORCA TERMINATED NORMALLY****
TOTAL RUN TIME: 0 days 0 hours 0 minutes 21 seconds 976 msec
