                         Program Version 4.2.1 -  RELEASE  -
|  1> ! wB97X-D3 SP def2-SVP
|  2> %pal
|  3> nprocs 24
|  4> end
|  5>
|  6> * xyz 0 1
|  7> S 	 -55.0449 	 -2.07818 	 -28.1104
|  8> C 	 -54.2354 	 -2.17402 	 -26.6129
|  9> C 	 -54.3603 	 -3.37923 	 -26.036
| 10> C 	 -55.2665 	 -4.25159 	 -26.7156
| 11> C 	 -55.9633 	 -3.54439 	 -27.7877
| 12> H 	 -55.4099 	 -5.30476 	 -26.4552
| 13> C 	 -53.6071 	 -3.93746 	 -24.876
| 14> H 	 -52.5202 	 -3.67759 	 -25.084
| 15> H 	 -53.6692 	 -5.01771 	 -24.9002
| 16> C 	 -54.0249 	 -3.40026 	 -23.4693
| 17> H 	 -53.8106 	 -2.31468 	 -23.5226
| 18> H 	 -55.1234 	 -3.4575 	 -23.3374
| 19> C 	 -53.3552 	 -4.00888 	 -22.2299
| 20> H 	 -52.3674 	 -3.58239 	 -22.1765
| 21> H 	 -53.8185 	 -3.60322 	 -21.331
| 22> H 	 -53.4253 	 -5.12093 	 -22.2353
| 23> S 	 -56.1395 	 -4.62617 	 -30.2671
| 24> C 	 -57.6119 	 -5.30436 	 -30.7907
| 25> C 	 -58.5777 	 -5.28139 	 -29.7915
| 26> C 	 -58.1067 	 -4.7136 	 -28.6273
| 27> C 	 -56.8426 	 -4.20685 	 -28.7481
| 28> H 	 -59.5777 	 -5.73247 	 -29.9324
| 29> C 	 -58.9786 	 -4.57499 	 -27.394
| 30> H 	 -58.2648 	 -4.2659 	 -26.5964
| 31> H 	 -59.2943 	 -5.62427 	 -27.2636
| 32> C 	 -60.1057 	 -3.51124 	 -27.6306
| 33> H 	 -60.708 	 -3.15311 	 -26.8086
| 34> H 	 -60.8049 	 -3.94287 	 -28.3196
| 35> C 	 -59.6016 	 -2.17956 	 -28.3297
| 36> H 	 -59.0238 	 -1.57963 	 -27.6053
| 37> H 	 -60.5073 	 -1.66532 	 -28.6432
| 38> H 	 -59.0777 	 -2.2996 	 -29.2524
| 39> H 	 -53.4928 	 -1.44467 	 -26.2826
| 40> H 	 -57.7487 	 -5.83785 	 -31.732
| 41> *
| 42>
| 43>                          ****END OF INPUT****

CARTESIAN COORDINATES (ANGSTROEM)
---------------------------------
  S    -55.044900   -2.078180  -28.110400
  C    -54.235400   -2.174020  -26.612900
  C    -54.360300   -3.379230  -26.036000
  C    -55.266500   -4.251590  -26.715600
  C    -55.963300   -3.544390  -27.787700
  H    -55.409900   -5.304760  -26.455200
  C    -53.607100   -3.937460  -24.876000
  H    -52.520200   -3.677590  -25.084000
  H    -53.669200   -5.017710  -24.900200
  C    -54.024900   -3.400260  -23.469300
  H    -53.810600   -2.314680  -23.522600
  H    -55.123400   -3.457500  -23.337400
  C    -53.355200   -4.008880  -22.229900
  H    -52.367400   -3.582390  -22.176500
  H    -53.818500   -3.603220  -21.331000
  H    -53.425300   -5.120930  -22.235300
  S    -56.139500   -4.626170  -30.267100
  C    -57.611900   -5.304360  -30.790700
  C    -58.577700   -5.281390  -29.791500
  C    -58.106700   -4.713600  -28.627300
  C    -56.842600   -4.206850  -28.748100
  H    -59.577700   -5.732470  -29.932400
  C    -58.978600   -4.574990  -27.394000
  H    -58.264800   -4.265900  -26.596400
  H    -59.294300   -5.624270  -27.263600
  C    -60.105700   -3.511240  -27.630600
  H    -60.708000   -3.153110  -26.808600
  H    -60.804900   -3.942870  -28.319600
  C    -59.601600   -2.179560  -28.329700
  H    -59.023800   -1.579630  -27.605300
  H    -60.507300   -1.665320  -28.643200
  H    -59.077700   -2.299600  -29.252400
  H    -53.492800   -1.444670  -26.282600
  H    -57.748700   -5.837850  -31.732000

 Total Charge           Charge          ....    0
 Multiplicity           Mult            ....    1
 Number of Electrons    NEL             ....  134
 Basis Dimension        Dim             ....  322

ORBITAL ENERGIES
----------------

  NO   OCC          E(Eh)            E(eV)
   0   2.0000     -88.968909     -2420.9671
   1   2.0000     -88.963953     -2420.8322
   2   2.0000     -10.333944      -281.2009
   3   2.0000     -10.316711      -280.7320
   4   2.0000     -10.312950      -280.6296
   5   2.0000     -10.308299      -280.5031
   6   2.0000     -10.301161      -280.3088
   7   2.0000     -10.294689      -280.1327
   8   2.0000     -10.293412      -280.0980
   9   2.0000     -10.292720      -280.0791
  10   2.0000     -10.290839      -280.0280
  11   2.0000     -10.290700      -280.0242
  12   2.0000     -10.288372      -279.9608
  13   2.0000     -10.285828      -279.8916
  14   2.0000     -10.281456      -279.7726
  15   2.0000     -10.269656      -279.4515
  16   2.0000      -8.083973      -219.9761
  17   2.0000      -8.080029      -219.8688
  18   2.0000      -6.042339      -164.4204
  19   2.0000      -6.038561      -164.3176
  20   2.0000      -6.038220      -164.3083
  21   2.0000      -6.034738      -164.2136
  22   2.0000      -6.034337      -164.2027
  23   2.0000      -6.031063      -164.1136
  24   2.0000      -1.013556       -27.5803
  25   2.0000      -0.992687       -27.0124
  26   2.0000      -0.908233       -24.7143
  27   2.0000      -0.902958       -24.5707
  28   2.0000      -0.868897       -23.6439
  29   2.0000      -0.851352       -23.1665
  30   2.0000      -0.845045       -22.9948
  31   2.0000      -0.806567       -21.9478
  32   2.0000      -0.780478       -21.2379
  33   2.0000      -0.771230       -20.9862
  34   2.0000      -0.704453       -19.1691
  35   2.0000      -0.697813       -18.9885
  36   2.0000      -0.692822       -18.8527
  37   2.0000      -0.662454       -18.0263
  38   2.0000      -0.639140       -17.3919
  39   2.0000      -0.609215       -16.5776
  40   2.0000      -0.586517       -15.9600
  41   2.0000      -0.571255       -15.5446
  42   2.0000      -0.558037       -15.1850
  43   2.0000      -0.548160       -14.9162
  44   2.0000      -0.545724       -14.8499
  45   2.0000      -0.518069       -14.0974
  46   2.0000      -0.517089       -14.0707
  47   2.0000      -0.512231       -13.9385
  48   2.0000      -0.501968       -13.6592
  49   2.0000      -0.496429       -13.5085
  50   2.0000      -0.485836       -13.2203
  51   2.0000      -0.479034       -13.0352
  52   2.0000      -0.473854       -12.8942
  53   2.0000      -0.464431       -12.6378
  54   2.0000      -0.458612       -12.4795
  55   2.0000      -0.447026       -12.1642
  56   2.0000      -0.444034       -12.0828
  57   2.0000      -0.433262       -11.7897
  58   2.0000      -0.431881       -11.7521
  59   2.0000      -0.422511       -11.4971
  60   2.0000      -0.417560       -11.3624
  61   2.0000      -0.413919       -11.2633
  62   2.0000      -0.412544       -11.2259
  63   2.0000      -0.338343        -9.2068
  64   2.0000      -0.332306        -9.0425
  65   2.0000      -0.325877        -8.8676
  66   2.0000      -0.294851        -8.0233
  67   0.0000       0.031527         0.8579
  68   0.0000       0.060877         1.6566
  69   0.0000       0.109690         2.9848
  70   0.0000       0.126032         3.4295
  71   0.0000       0.142355         3.8737

MULLIKEN ATOMIC CHARGES
-----------------------
   0 S :    0.122273
   1 C :   -0.113321
   2 C :   -0.080782
   3 C :    0.022429
   4 C :   -0.174248
   5 H :    0.029626
   6 C :    0.058034
   7 H :    0.034170
   8 H :    0.013520
   9 C :   -0.109926
  10 H :    0.024227
  11 H :    0.033624
  12 C :   -0.021259
  13 H :    0.027160
  14 H :    0.030882
  15 H :    0.046264
  16 S :    0.127814
  17 C :   -0.094724
  18 C :   -0.061176
  19 C :   -0.070685
  20 C :   -0.181526
  21 H :    0.025070
  22 C :    0.109187
  23 H :    0.033514
  24 H :    0.037980
  25 C :   -0.073354
  26 H :    0.034941
  27 H :    0.017337
  28 C :   -0.064257
  29 H :    0.044759
  30 H :    0.024493
  31 H :    0.040821
  32 H :    0.048965
  33 H :    0.058166
Sum of atomic charges:   -0.0000000

LOEWDIN ATOMIC CHARGES
----------------------
   0 S :    0.430695
   1 C :   -0.211449
   2 C :   -0.075914
   3 C :   -0.048862
   4 C :   -0.204645
   5 H :    0.033492
   6 C :   -0.033880
   7 H :    0.035930
   8 H :    0.023692
   9 C :   -0.046638
  10 H :    0.023732
  11 H :    0.024513
  12 C :   -0.066491
  13 H :    0.024680
  14 H :    0.029376
  15 H :    0.030656
  16 S :    0.439879
  17 C :   -0.200565
  18 C :   -0.079901
  19 C :   -0.063954
  20 C :   -0.218735
  21 H :    0.036710
  22 C :   -0.029476
  23 H :    0.032622
  24 H :    0.035028
  25 C :   -0.036492
  26 H :    0.024693
  27 H :    0.017300
  28 C :   -0.062673
  29 H :    0.027194
  30 H :    0.025528
  31 H :    0.021372
  32 H :    0.032252
  33 H :    0.030331

  Mayer bond orders larger than 0.100000
B(  0-S ,  1-C ) :   1.1524 B(  0-S ,  4-C ) :   1.1757 B(  1-C ,  2-C ) :   1.5946
B(  1-C ,  4-C ) :   0.1003 B(  1-C , 32-H ) :   0.9633 B(  2-C ,  3-C ) :   1.2862
B(  2-C ,  6-C ) :   1.0237 B(  3-C ,  4-C ) :   1.5005 B(  3-C ,  5-H ) :   0.9890
B(  4-C , 20-C ) :   1.0283 B(  6-C ,  7-H ) :   0.9380 B(  6-C ,  8-H ) :   0.9426
B(  6-C ,  9-C ) :   1.0518 B(  9-C , 10-H ) :   0.9567 B(  9-C , 11-H ) :   0.9598
B(  9-C , 12-C ) :   1.0860 B( 12-C , 13-H ) :   0.9740 B( 12-C , 14-H ) :   0.9715
B( 12-C , 15-H ) :   0.9746 B( 16-S , 17-C ) :   1.1829 B( 16-S , 20-C ) :   1.1668
B( 17-C , 18-C ) :   1.5653 B( 17-C , 20-C ) :   0.1038 B( 17-C , 33-H ) :   0.9666
B( 18-C , 19-C ) :   1.2807 B( 18-C , 21-H ) :   0.9902 B( 19-C , 20-C ) :   1.5876
B( 19-C , 22-C ) :   1.0198 B( 22-C , 23-H ) :   0.9325 B( 22-C , 24-H ) :   0.9405
B( 22-C , 25-C ) :   1.0462 B( 25-C , 26-H ) :   0.9642 B( 25-C , 27-H ) :   0.9586
B( 25-C , 28-C ) :   1.0772 B( 28-C , 29-H ) :   0.9796 B( 28-C , 30-H ) :   0.9742
B( 28-C , 31-H ) :   0.9712

Dispersion correction           -0.014738252
FINAL SINGLE POINT ENERGY     -1339.871453455689

DIPOLE MOMENT
-------------
                                X             Y             Z
Electronic contribution:      5.67966      -0.03013     -22.66093
Nuclear contribution   :     -5.68846      -0.25725      23.03752
                        -----------------------------------------
Total Dipole Moment    :     -0.00880      -0.28739       0.37659
                        -----------------------------------------
Magnitude (a.u.)       :      0.47380
Magnitude (Debye)      :      1.20431

Rotational constants in cm-1:     0.021901     0.007602     0.006880
Rotational constants in MHz :   656.585239   227.911271   206.261784

                             ****ORCA TERMINATED NORMALLY****
TOTAL RUN TIME: 0 days 0 hours 0 minutes 21 seconds 730 msec
