                         Program Version 4.2.1 -  RELEASE  -
|  1> ! wB97X-D3 SP def2-SVP
|  2> %pal
|  3> nprocs 24
|  4> end
|  5>
|  6> * xyz 0 1
|  7> S 	 43.5398 	 -16.1521 	 -107.05
|  8> C 	 42.6837 	 -16.3725 	 -108.616
|  9> C 	 43.4561 	 -15.9622 	 -109.695
| 10> C 	 44.5697 	 -15.2919 	 -109.252
| 11> C 	 44.7959 	 -15.2634 	 -107.851
| 12> H 	 45.334 	 -14.7396 	 -109.769
| 13> C 	 43.0425 	 -16.0369 	 -111.197
| 14> H 	 42.5703 	 -15.0736 	 -111.292
| 15> H 	 42.2089 	 -16.8315 	 -111.322
| 16> C 	 44.1708 	 -16.1575 	 -112.301
| 17> H 	 45.1154 	 -15.722 	 -111.889
| 18> H 	 44.4535 	 -17.2343 	 -112.467
| 19> C 	 43.785 	 -15.5113 	 -113.653
| 20> H 	 43.6932 	 -14.4578 	 -113.407
| 21> H 	 44.5277 	 -15.7314 	 -114.401
| 22> H 	 42.888 	 -15.9297 	 -114.096
| 23> S 	 45.4283 	 -13.3161 	 -105.958
| 24> C 	 47.0858 	 -12.9293 	 -105.701
| 25> C 	 47.9182 	 -13.6957 	 -106.494
| 26> C 	 47.2698 	 -14.6439 	 -107.351
| 27> C 	 45.8874 	 -14.5832 	 -107.137
| 28> H 	 48.9788 	 -13.4567 	 -106.508
| 29> C 	 47.9558 	 -15.5358 	 -108.372
| 30> H 	 47.2267 	 -16.2379 	 -108.775
| 31> H 	 48.6909 	 -16.0698 	 -107.85
| 32> C 	 48.5702 	 -14.9104 	 -109.701
| 33> H 	 47.7554 	 -14.9026 	 -110.478
| 34> H 	 49.1553 	 -15.7059 	 -110.086
| 35> C 	 49.2703 	 -13.5774 	 -109.596
| 36> H 	 48.4868 	 -12.8462 	 -109.306
| 37> H 	 49.5983 	 -13.374 	 -110.626
| 38> H 	 50.027 	 -13.5793 	 -108.89
| 39> H 	 41.7906 	 -16.9998 	 -108.823
| 40> H 	 47.5914 	 -12.2127 	 -105.008
| 41> *
| 42>
| 43>                          ****END OF INPUT****

CARTESIAN COORDINATES (ANGSTROEM)
---------------------------------
  S     43.539800  -16.152100  -107.050000
  C     42.683700  -16.372500  -108.616000
  C     43.456100  -15.962200  -109.695000
  C     44.569700  -15.291900  -109.252000
  C     44.795900  -15.263400  -107.851000
  H     45.334000  -14.739600  -109.769000
  C     43.042500  -16.036900  -111.197000
  H     42.570300  -15.073600  -111.292000
  H     42.208900  -16.831500  -111.322000
  C     44.170800  -16.157500  -112.301000
  H     45.115400  -15.722000  -111.889000
  H     44.453500  -17.234300  -112.467000
  C     43.785000  -15.511300  -113.653000
  H     43.693200  -14.457800  -113.407000
  H     44.527700  -15.731400  -114.401000
  H     42.888000  -15.929700  -114.096000
  S     45.428300  -13.316100  -105.958000
  C     47.085800  -12.929300  -105.701000
  C     47.918200  -13.695700  -106.494000
  C     47.269800  -14.643900  -107.351000
  C     45.887400  -14.583200  -107.137000
  H     48.978800  -13.456700  -106.508000
  C     47.955800  -15.535800  -108.372000
  H     47.226700  -16.237900  -108.775000
  H     48.690900  -16.069800  -107.850000
  C     48.570200  -14.910400  -109.701000
  H     47.755400  -14.902600  -110.478000
  H     49.155300  -15.705900  -110.086000
  C     49.270300  -13.577400  -109.596000
  H     48.486800  -12.846200  -109.306000
  H     49.598300  -13.374000  -110.626000
  H     50.027000  -13.579300  -108.890000
  H     41.790600  -16.999800  -108.823000
  H     47.591400  -12.212700  -105.008000

 Total Charge           Charge          ....    0
 Multiplicity           Mult            ....    1
 Number of Electrons    NEL             ....  134
 Basis Dimension        Dim             ....  322

ORBITAL ENERGIES
----------------

  NO   OCC          E(Eh)            E(eV)
   0   2.0000     -88.969971     -2420.9960
   1   2.0000     -88.968358     -2420.9521
   2   2.0000     -10.329864      -281.0899
   3   2.0000     -10.329206      -281.0720
   4   2.0000     -10.318639      -280.7845
   5   2.0000     -10.316950      -280.7385
   6   2.0000     -10.307229      -280.4739
   7   2.0000     -10.307045      -280.4690
   8   2.0000     -10.302821      -280.3540
   9   2.0000     -10.301102      -280.3072
  10   2.0000     -10.292057      -280.0611
  11   2.0000     -10.290095      -280.0077
  12   2.0000     -10.289725      -279.9976
  13   2.0000     -10.289068      -279.9798
  14   2.0000     -10.282223      -279.7935
  15   2.0000     -10.276720      -279.6438
  16   2.0000      -8.083665      -219.9677
  17   2.0000      -8.082737      -219.9425
  18   2.0000      -6.042114      -164.4143
  19   2.0000      -6.041216      -164.3899
  20   2.0000      -6.038268      -164.3096
  21   2.0000      -6.037351      -164.2847
  22   2.0000      -6.034600      -164.2098
  23   2.0000      -6.033469      -164.1790
  24   2.0000      -1.002457       -27.2782
  25   2.0000      -0.981709       -26.7137
  26   2.0000      -0.906817       -24.6758
  27   2.0000      -0.903588       -24.5879
  28   2.0000      -0.867324       -23.6011
  29   2.0000      -0.854090       -23.2410
  30   2.0000      -0.843697       -22.9582
  31   2.0000      -0.809927       -22.0392
  32   2.0000      -0.789131       -21.4733
  33   2.0000      -0.774437       -21.0735
  34   2.0000      -0.711122       -19.3506
  35   2.0000      -0.698772       -19.0146
  36   2.0000      -0.688620       -18.7383
  37   2.0000      -0.654108       -17.7992
  38   2.0000      -0.638272       -17.3683
  39   2.0000      -0.613789       -16.7021
  40   2.0000      -0.584898       -15.9159
  41   2.0000      -0.566903       -15.4262
  42   2.0000      -0.561809       -15.2876
  43   2.0000      -0.555023       -15.1029
  44   2.0000      -0.542556       -14.7637
  45   2.0000      -0.528053       -14.3691
  46   2.0000      -0.520670       -14.1681
  47   2.0000      -0.505041       -13.7429
  48   2.0000      -0.498029       -13.5521
  49   2.0000      -0.495199       -13.4751
  50   2.0000      -0.488483       -13.2923
  51   2.0000      -0.484112       -13.1734
  52   2.0000      -0.474450       -12.9104
  53   2.0000      -0.471763       -12.8373
  54   2.0000      -0.458279       -12.4704
  55   2.0000      -0.446102       -12.1391
  56   2.0000      -0.443027       -12.0554
  57   2.0000      -0.435715       -11.8564
  58   2.0000      -0.433446       -11.7947
  59   2.0000      -0.426657       -11.6099
  60   2.0000      -0.425288       -11.5727
  61   2.0000      -0.418682       -11.3929
  62   2.0000      -0.411304       -11.1922
  63   2.0000      -0.337281        -9.1779
  64   2.0000      -0.336007        -9.1432
  65   2.0000      -0.330021        -8.9803
  66   2.0000      -0.291384        -7.9290
  67   0.0000       0.028545         0.7768
  68   0.0000       0.065955         1.7947
  69   0.0000       0.110820         3.0156
  70   0.0000       0.119380         3.2485
  71   0.0000       0.122448         3.3320

MULLIKEN ATOMIC CHARGES
-----------------------
   0 S :    0.123944
   1 C :   -0.143148
   2 C :   -0.053421
   3 C :    0.026774
   4 C :   -0.188901
   5 H :   -0.006389
   6 C :    0.039059
   7 H :    0.044380
   8 H :    0.042583
   9 C :   -0.107513
  10 H :    0.034792
  11 H :    0.039570
  12 C :   -0.045630
  13 H :    0.043447
  14 H :    0.034650
  15 H :    0.035511
  16 S :    0.122895
  17 C :   -0.089800
  18 C :   -0.067768
  19 C :   -0.026472
  20 C :   -0.177787
  21 H :    0.015913
  22 C :    0.088457
  23 H :    0.029837
  24 H :    0.021822
  25 C :   -0.101098
  26 H :    0.020488
  27 H :    0.018243
  28 C :   -0.011342
  29 H :    0.050461
  30 H :    0.039478
  31 H :    0.023832
  32 H :    0.054755
  33 H :    0.068377
Sum of atomic charges:    0.0000000

LOEWDIN ATOMIC CHARGES
----------------------
   0 S :    0.406794
   1 C :   -0.199680
   2 C :   -0.066296
   3 C :   -0.069459
   4 C :   -0.203117
   5 H :    0.024821
   6 C :   -0.032628
   7 H :    0.034104
   8 H :    0.038439
   9 C :   -0.046710
  10 H :    0.025241
  11 H :    0.027660
  12 C :   -0.062559
  13 H :    0.028074
  14 H :    0.027284
  15 H :    0.026183
  16 S :    0.407308
  17 C :   -0.205206
  18 C :   -0.080191
  19 C :   -0.050975
  20 C :   -0.193332
  21 H :    0.028474
  22 C :   -0.028998
  23 H :    0.035467
  24 H :    0.024166
  25 C :   -0.037730
  26 H :    0.022379
  27 H :    0.018558
  28 C :   -0.059250
  29 H :    0.035818
  30 H :    0.034018
  31 H :    0.012334
  32 H :    0.034188
  33 H :    0.044822

  Mayer bond orders larger than 0.100000
B(  0-S ,  1-C ) :   1.1433 B(  0-S ,  4-C ) :   1.1708 B(  1-C ,  2-C ) :   1.5917
B(  1-C ,  4-C ) :   0.1141 B(  1-C , 32-H ) :   0.9583 B(  2-C ,  3-C ) :   1.2625
B(  2-C ,  6-C ) :   0.9949 B(  3-C ,  4-C ) :   1.5436 B(  3-C ,  5-H ) :   0.9939
B(  4-C , 20-C ) :   1.0336 B(  6-C ,  7-H ) :   0.9495 B(  6-C ,  8-H ) :   0.9445
B(  6-C ,  9-C ) :   1.0391 B(  9-C , 10-H ) :   0.9607 B(  9-C , 11-H ) :   0.9573
B(  9-C , 12-C ) :   1.0751 B( 12-C , 13-H ) :   0.9782 B( 12-C , 14-H ) :   0.9737
B( 12-C , 15-H ) :   0.9768 B( 16-S , 17-C ) :   1.1481 B( 16-S , 20-C ) :   1.1412
B( 17-C , 18-C ) :   1.6311 B( 17-C , 33-H ) :   0.9577 B( 18-C , 19-C ) :   1.2293
B( 18-C , 21-H ) :   0.9841 B( 19-C , 20-C ) :   1.5858 B( 19-C , 22-C ) :   1.0474
B( 22-C , 23-H ) :   0.9302 B( 22-C , 24-H ) :   0.9315 B( 22-C , 25-C ) :   1.0603
B( 25-C , 26-H ) :   0.9557 B( 25-C , 27-H ) :   0.9513 B( 25-C , 28-C ) :   1.0876
B( 28-C , 29-H ) :   0.9659 B( 28-C , 30-H ) :   0.9692 B( 28-C , 31-H ) :   0.9763

Dispersion correction           -0.014653160
FINAL SINGLE POINT ENERGY     -1339.866258905430

DIPOLE MOMENT
-------------
                                X             Y             Z
Electronic contribution:    -10.86068       1.71754      29.43158
Nuclear contribution   :     11.29788      -1.74235     -30.17389
                        -----------------------------------------
Total Dipole Moment    :      0.43720      -0.02481      -0.74231
                        -----------------------------------------
Magnitude (a.u.)       :      0.86185
Magnitude (Debye)      :      2.19065

Rotational constants in cm-1:     0.016845     0.009441     0.006689
Rotational constants in MHz :   505.003584   283.038219   200.529252

                             ****ORCA TERMINATED NORMALLY****
TOTAL RUN TIME: 0 days 0 hours 0 minutes 21 seconds 966 msec
