                         Program Version 4.2.1 -  RELEASE  -
|  1> ! wB97X-D3 SP def2-SVP
|  2> %pal
|  3> nprocs 24
|  4> end
|  5>
|  6> * xyz 0 1
|  7> S 	 -114.846 	 60.1966 	 -72.7929
|  8> C 	 -113.289 	 60.9874 	 -72.5037
|  9> C 	 -113.458 	 61.9989 	 -71.5182
| 10> C 	 -114.748 	 62.0496 	 -70.9954
| 11> C 	 -115.593 	 61.097 	 -71.5367
| 12> H 	 -115.044 	 62.6812 	 -70.2014
| 13> C 	 -112.276 	 62.7738 	 -71.0686
| 14> H 	 -111.606 	 62.0424 	 -70.6492
| 15> H 	 -112.523 	 63.5524 	 -70.3155
| 16> C 	 -111.48 	 63.3787 	 -72.206
| 17> H 	 -110.593 	 63.8312 	 -71.8965
| 18> H 	 -111.201 	 62.5507 	 -72.9015
| 19> C 	 -112.423 	 64.3763 	 -72.7934
| 20> H 	 -113.158 	 63.9932 	 -73.5041
| 21> H 	 -112.952 	 64.9143 	 -72.0385
| 22> H 	 -111.763 	 65.0694 	 -73.3235
| 23> S 	 -117.38 	 61.0133 	 -69.4899
| 24> C 	 -119.069 	 61.2776 	 -69.7504
| 25> C 	 -119.345 	 61.1164 	 -71.0887
| 26> C 	 -118.187 	 60.8773 	 -71.9332
| 27> C 	 -117.007 	 60.9368 	 -71.2211
| 28> H 	 -120.292 	 61.1864 	 -71.4361
| 29> C 	 -118.295 	 60.7995 	 -73.4626
| 30> H 	 -117.652 	 59.966 	 -73.8347
| 31> H 	 -117.861 	 61.741 	 -73.8345
| 32> C 	 -119.721 	 60.599 	 -73.9342
| 33> H 	 -120.157 	 61.5786 	 -74.0479
| 34> H 	 -120.39 	 59.9992 	 -73.2601
| 35> C 	 -119.674 	 59.9851 	 -75.3831
| 36> H 	 -120.666 	 59.6077 	 -75.6831
| 37> H 	 -119.053 	 59.0892 	 -75.6187
| 38> H 	 -119.314 	 60.7786 	 -76.0456
| 39> H 	 -112.354 	 60.7964 	 -73.0976
| 40> H 	 -119.91 	 61.4109 	 -69.059
| 41> *
| 42>
| 43>                          ****END OF INPUT****

CARTESIAN COORDINATES (ANGSTROEM)
---------------------------------
  S    -114.846000   60.196600  -72.792900
  C    -113.289000   60.987400  -72.503700
  C    -113.458000   61.998900  -71.518200
  C    -114.748000   62.049600  -70.995400
  C    -115.593000   61.097000  -71.536700
  H    -115.044000   62.681200  -70.201400
  C    -112.276000   62.773800  -71.068600
  H    -111.606000   62.042400  -70.649200
  H    -112.523000   63.552400  -70.315500
  C    -111.480000   63.378700  -72.206000
  H    -110.593000   63.831200  -71.896500
  H    -111.201000   62.550700  -72.901500
  C    -112.423000   64.376300  -72.793400
  H    -113.158000   63.993200  -73.504100
  H    -112.952000   64.914300  -72.038500
  H    -111.763000   65.069400  -73.323500
  S    -117.380000   61.013300  -69.489900
  C    -119.069000   61.277600  -69.750400
  C    -119.345000   61.116400  -71.088700
  C    -118.187000   60.877300  -71.933200
  C    -117.007000   60.936800  -71.221100
  H    -120.292000   61.186400  -71.436100
  C    -118.295000   60.799500  -73.462600
  H    -117.652000   59.966000  -73.834700
  H    -117.861000   61.741000  -73.834500
  C    -119.721000   60.599000  -73.934200
  H    -120.157000   61.578600  -74.047900
  H    -120.390000   59.999200  -73.260100
  C    -119.674000   59.985100  -75.383100
  H    -120.666000   59.607700  -75.683100
  H    -119.053000   59.089200  -75.618700
  H    -119.314000   60.778600  -76.045600
  H    -112.354000   60.796400  -73.097600
  H    -119.910000   61.410900  -69.059000

 Total Charge           Charge          ....    0
 Multiplicity           Mult            ....    1
 Number of Electrons    NEL             ....  134
 Basis Dimension        Dim             ....  322

ORBITAL ENERGIES
----------------

  NO   OCC          E(Eh)            E(eV)
   0   2.0000     -88.970578     -2421.0125
   1   2.0000     -88.961333     -2420.7609
   2   2.0000     -10.329063      -281.0681
   3   2.0000     -10.324904      -280.9549
   4   2.0000     -10.319124      -280.7976
   5   2.0000     -10.314922      -280.6833
   6   2.0000     -10.302861      -280.3551
   7   2.0000     -10.300292      -280.2852
   8   2.0000     -10.294636      -280.1313
   9   2.0000     -10.292246      -280.0663
  10   2.0000     -10.289174      -279.9827
  11   2.0000     -10.284815      -279.8640
  12   2.0000     -10.284539      -279.8565
  13   2.0000     -10.283170      -279.8193
  14   2.0000     -10.279025      -279.7065
  15   2.0000     -10.267004      -279.3794
  16   2.0000      -8.084869      -220.0005
  17   2.0000      -8.075955      -219.7579
  18   2.0000      -6.043234      -164.4447
  19   2.0000      -6.039293      -164.3375
  20   2.0000      -6.035983      -164.2474
  21   2.0000      -6.034638      -164.2108
  22   2.0000      -6.030378      -164.0949
  23   2.0000      -6.026625      -163.9928
  24   2.0000      -1.008212       -27.4348
  25   2.0000      -0.984514       -26.7900
  26   2.0000      -0.926948       -25.2235
  27   2.0000      -0.908611       -24.7246
  28   2.0000      -0.868039       -23.6205
  29   2.0000      -0.854075       -23.2406
  30   2.0000      -0.841238       -22.8913
  31   2.0000      -0.812820       -22.1180
  32   2.0000      -0.779705       -21.2169
  33   2.0000      -0.766892       -20.8682
  34   2.0000      -0.710589       -19.3361
  35   2.0000      -0.704069       -19.1587
  36   2.0000      -0.696503       -18.9528
  37   2.0000      -0.656073       -17.8527
  38   2.0000      -0.637235       -17.3400
  39   2.0000      -0.612334       -16.6624
  40   2.0000      -0.596398       -16.2288
  41   2.0000      -0.583665       -15.8823
  42   2.0000      -0.567258       -15.4359
  43   2.0000      -0.561053       -15.2670
  44   2.0000      -0.545801       -14.8520
  45   2.0000      -0.525449       -14.2982
  46   2.0000      -0.520694       -14.1688
  47   2.0000      -0.510573       -13.8934
  48   2.0000      -0.503108       -13.6903
  49   2.0000      -0.496770       -13.5178
  50   2.0000      -0.487847       -13.2750
  51   2.0000      -0.476007       -12.9528
  52   2.0000      -0.470495       -12.8028
  53   2.0000      -0.468642       -12.7524
  54   2.0000      -0.457688       -12.4543
  55   2.0000      -0.447096       -12.1661
  56   2.0000      -0.443829       -12.0772
  57   2.0000      -0.437559       -11.9066
  58   2.0000      -0.435993       -11.8640
  59   2.0000      -0.429290       -11.6816
  60   2.0000      -0.421320       -11.4647
  61   2.0000      -0.412694       -11.2300
  62   2.0000      -0.402007       -10.9392
  63   2.0000      -0.346879        -9.4391
  64   2.0000      -0.332934        -9.0596
  65   2.0000      -0.326122        -8.8742
  66   2.0000      -0.285755        -7.7758
  67   0.0000       0.024224         0.6592
  68   0.0000       0.076512         2.0820
  69   0.0000       0.113548         3.0898
  70   0.0000       0.119189         3.2433
  71   0.0000       0.127984         3.4826

MULLIKEN ATOMIC CHARGES
-----------------------
   0 S :    0.120565
   1 C :   -0.163494
   2 C :   -0.081931
   3 C :    0.035841
   4 C :   -0.145980
   5 H :   -0.000460
   6 C :    0.052583
   7 H :    0.032799
   8 H :    0.029929
   9 C :   -0.061088
  10 H :    0.015444
  11 H :    0.024815
  12 C :   -0.026250
  13 H :    0.047587
  14 H :    0.018034
  15 H :    0.020399
  16 S :    0.097495
  17 C :   -0.068276
  18 C :   -0.030668
  19 C :   -0.041068
  20 C :   -0.155631
  21 H :   -0.026184
  22 C :    0.059580
  23 H :    0.041682
  24 H :    0.048855
  25 C :   -0.104262
  26 H :    0.036261
  27 H :    0.053598
  28 C :   -0.070058
  29 H :    0.029843
  30 H :    0.039873
  31 H :    0.035696
  32 H :    0.074097
  33 H :    0.060375
Sum of atomic charges:   -0.0000000

LOEWDIN ATOMIC CHARGES
----------------------
   0 S :    0.429690
   1 C :   -0.212763
   2 C :   -0.055583
   3 C :   -0.064391
   4 C :   -0.203148
   5 H :    0.025184
   6 C :   -0.034614
   7 H :    0.032333
   8 H :    0.029907
   9 C :   -0.035663
  10 H :    0.015378
  11 H :    0.025463
  12 C :   -0.061034
  13 H :    0.030734
  14 H :    0.019902
  15 H :    0.023800
  16 S :    0.406921
  17 C :   -0.196734
  18 C :   -0.066563
  19 C :   -0.057155
  20 C :   -0.189600
  21 H :    0.008608
  22 C :   -0.037005
  23 H :    0.030002
  24 H :    0.040002
  25 C :   -0.044157
  26 H :    0.027382
  27 H :    0.029602
  28 C :   -0.072547
  29 H :    0.024814
  30 H :    0.027624
  31 H :    0.026740
  32 H :    0.037035
  33 H :    0.039838

  Mayer bond orders larger than 0.100000
B(  0-S ,  1-C ) :   1.1488 B(  0-S ,  4-C ) :   1.1834 B(  1-C ,  2-C ) :   1.5372
B(  1-C ,  4-C ) :   0.1089 B(  1-C , 32-H ) :   0.9641 B(  2-C ,  3-C ) :   1.3034
B(  2-C ,  6-C ) :   1.0160 B(  3-C ,  4-C ) :   1.5048 B(  3-C ,  5-H ) :   0.9992
B(  4-C , 20-C ) :   1.0326 B(  6-C ,  7-H ) :   0.9299 B(  6-C ,  8-H ) :   0.9509
B(  6-C ,  9-C ) :   1.0880 B(  9-C , 10-H ) :   0.9549 B(  9-C , 11-H ) :   0.9465
B(  9-C , 12-C ) :   1.0756 B( 12-C , 13-H ) :   0.9688 B( 12-C , 14-H ) :   0.9764
B( 12-C , 15-H ) :   0.9736 B( 16-S , 17-C ) :   1.1445 B( 16-S , 20-C ) :   1.1379
B( 17-C , 18-C ) :   1.6103 B( 17-C , 33-H ) :   0.9602 B( 18-C , 19-C ) :   1.2406
B( 18-C , 21-H ) :   0.9997 B( 19-C , 20-C ) :   1.5994 B( 19-C , 22-C ) :   1.0223
B( 22-C , 23-H ) :   0.9478 B( 22-C , 24-H ) :   0.9227 B( 22-C , 25-C ) :   1.0701
B( 25-C , 26-H ) :   0.9462 B( 25-C , 27-H ) :   0.9614 B( 25-C , 28-C ) :   1.0720
B( 28-C , 29-H ) :   0.9761 B( 28-C , 30-H ) :   0.9795 B( 28-C , 31-H ) :   0.9747

Dispersion correction           -0.013952773
FINAL SINGLE POINT ENERGY     -1339.866324962980

DIPOLE MOMENT
-------------
                                X             Y             Z
Electronic contribution:     -2.24514      -9.32880      15.17299
Nuclear contribution   :      2.26477       9.67664     -15.46001
                        -----------------------------------------
Total Dipole Moment    :      0.01963       0.34784      -0.28702
                        -----------------------------------------
Magnitude (a.u.)       :      0.45140
Magnitude (Debye)      :      1.14737

Rotational constants in cm-1:     0.021151     0.007815     0.006442
Rotational constants in MHz :   634.095596   234.299975   193.137988

                             ****ORCA TERMINATED NORMALLY****
TOTAL RUN TIME: 0 days 0 hours 0 minutes 22 seconds 382 msec
