                         Program Version 4.2.1 -  RELEASE  -
|  1> ! wB97X-D3 SP def2-SVP
|  2> %pal
|  3> nprocs 24
|  4> end
|  5>
|  6> * xyz 0 1
|  7> S 	 -92.2743 	 -35.4872 	 -62.8534
|  8> C 	 -92.8852 	 -36.2331 	 -64.2709
|  9> C 	 -92.4701 	 -37.5229 	 -64.4764
| 10> C 	 -91.6118 	 -37.9104 	 -63.3904
| 11> C 	 -91.4093 	 -36.8967 	 -62.4695
| 12> H 	 -91.1959 	 -38.9109 	 -63.3274
| 13> C 	 -92.8493 	 -38.5436 	 -65.5544
| 14> H 	 -93.6397 	 -38.232 	 -66.2709
| 15> H 	 -93.0408 	 -39.4658 	 -65.0988
| 16> C 	 -91.6632 	 -38.7888 	 -66.48
| 17> H 	 -91.3504 	 -37.7803 	 -66.8569
| 18> H 	 -90.8039 	 -39.1223 	 -65.8518
| 19> C 	 -91.7694 	 -39.7417 	 -67.6402
| 20> H 	 -92.5794 	 -40.595 	 -67.5934
| 21> H 	 -91.8392 	 -39.2591 	 -68.5738
| 22> H 	 -90.8498 	 -40.3574 	 -67.5716
| 23> S 	 -89.6395 	 -38.4941 	 -61.2026
| 24> C 	 -88.8236 	 -38.0769 	 -59.8134
| 25> C 	 -89.19 	 -36.7864 	 -59.4138
| 26> C 	 -90.1964 	 -36.2916 	 -60.2474
| 27> C 	 -90.499 	 -36.986 	 -61.3586
| 28> H 	 -88.7282 	 -36.314 	 -58.5163
| 29> C 	 -90.6642 	 -34.8873 	 -59.8331
| 30> H 	 -91.3629 	 -34.4989 	 -60.53
| 31> H 	 -89.8068 	 -34.2407 	 -60.0112
| 32> C 	 -91.363 	 -34.6624 	 -58.4822
| 33> H 	 -91.3888 	 -33.634 	 -58.2711
| 34> H 	 -90.5891 	 -35.019 	 -57.8098
| 35> C 	 -92.616 	 -35.4429 	 -58.2211
| 36> H 	 -92.7892 	 -35.6245 	 -57.1534
| 37> H 	 -92.4972 	 -36.4081 	 -58.7355
| 38> H 	 -93.4819 	 -34.9746 	 -58.6267
| 39> H 	 -93.5374 	 -35.8162 	 -65.014
| 40> H 	 -87.9804 	 -38.5634 	 -59.4344
| 41> *
| 42>
| 43>                          ****END OF INPUT****

CARTESIAN COORDINATES (ANGSTROEM)
---------------------------------
  S    -92.274300  -35.487200  -62.853400
  C    -92.885200  -36.233100  -64.270900
  C    -92.470100  -37.522900  -64.476400
  C    -91.611800  -37.910400  -63.390400
  C    -91.409300  -36.896700  -62.469500
  H    -91.195900  -38.910900  -63.327400
  C    -92.849300  -38.543600  -65.554400
  H    -93.639700  -38.232000  -66.270900
  H    -93.040800  -39.465800  -65.098800
  C    -91.663200  -38.788800  -66.480000
  H    -91.350400  -37.780300  -66.856900
  H    -90.803900  -39.122300  -65.851800
  C    -91.769400  -39.741700  -67.640200
  H    -92.579400  -40.595000  -67.593400
  H    -91.839200  -39.259100  -68.573800
  H    -90.849800  -40.357400  -67.571600
  S    -89.639500  -38.494100  -61.202600
  C    -88.823600  -38.076900  -59.813400
  C    -89.190000  -36.786400  -59.413800
  C    -90.196400  -36.291600  -60.247400
  C    -90.499000  -36.986000  -61.358600
  H    -88.728200  -36.314000  -58.516300
  C    -90.664200  -34.887300  -59.833100
  H    -91.362900  -34.498900  -60.530000
  H    -89.806800  -34.240700  -60.011200
  C    -91.363000  -34.662400  -58.482200
  H    -91.388800  -33.634000  -58.271100
  H    -90.589100  -35.019000  -57.809800
  C    -92.616000  -35.442900  -58.221100
  H    -92.789200  -35.624500  -57.153400
  H    -92.497200  -36.408100  -58.735500
  H    -93.481900  -34.974600  -58.626700
  H    -93.537400  -35.816200  -65.014000
  H    -87.980400  -38.563400  -59.434400

 Total Charge           Charge          ....    0
 Multiplicity           Mult            ....    1
 Number of Electrons    NEL             ....  134
 Basis Dimension        Dim             ....  322

ORBITAL ENERGIES
----------------

  NO   OCC          E(Eh)            E(eV)
   0   2.0000     -88.971869     -2421.0476
   1   2.0000     -88.960462     -2420.7372
   2   2.0000     -10.328034      -281.0401
   3   2.0000     -10.322659      -280.8938
   4   2.0000     -10.308599      -280.5112
   5   2.0000     -10.307062      -280.4694
   6   2.0000     -10.299958      -280.2761
   7   2.0000     -10.296287      -280.1762
   8   2.0000     -10.292628      -280.0766
   9   2.0000     -10.291478      -280.0454
  10   2.0000     -10.291239      -280.0389
  11   2.0000     -10.286366      -279.9063
  12   2.0000     -10.283571      -279.8302
  13   2.0000     -10.283027      -279.8154
  14   2.0000     -10.276611      -279.6408
  15   2.0000     -10.270174      -279.4657
  16   2.0000      -8.087350      -220.0680
  17   2.0000      -8.077197      -219.7917
  18   2.0000      -6.045814      -164.5150
  19   2.0000      -6.041818      -164.4062
  20   2.0000      -6.038060      -164.3040
  21   2.0000      -6.035622      -164.2376
  22   2.0000      -6.031271      -164.1192
  23   2.0000      -6.028069      -164.0321
  24   2.0000      -1.022630       -27.8272
  25   2.0000      -0.998720       -27.1766
  26   2.0000      -0.916983       -24.9524
  27   2.0000      -0.911926       -24.8148
  28   2.0000      -0.876795       -23.8588
  29   2.0000      -0.858285       -23.3551
  30   2.0000      -0.849873       -23.1262
  31   2.0000      -0.810328       -22.0502
  32   2.0000      -0.788157       -21.4468
  33   2.0000      -0.781814       -21.2742
  34   2.0000      -0.709461       -19.3054
  35   2.0000      -0.699221       -19.0268
  36   2.0000      -0.686647       -18.6846
  37   2.0000      -0.671700       -18.2779
  38   2.0000      -0.637411       -17.3448
  39   2.0000      -0.619840       -16.8667
  40   2.0000      -0.602889       -16.4054
  41   2.0000      -0.577003       -15.7011
  42   2.0000      -0.570745       -15.5308
  43   2.0000      -0.559106       -15.2140
  44   2.0000      -0.538130       -14.6433
  45   2.0000      -0.523815       -14.2537
  46   2.0000      -0.517808       -14.0903
  47   2.0000      -0.514953       -14.0126
  48   2.0000      -0.508960       -13.8495
  49   2.0000      -0.502443       -13.6722
  50   2.0000      -0.495321       -13.4784
  51   2.0000      -0.486120       -13.2280
  52   2.0000      -0.474916       -12.9231
  53   2.0000      -0.470339       -12.7986
  54   2.0000      -0.455981       -12.4079
  55   2.0000      -0.451248       -12.2791
  56   2.0000      -0.447413       -12.1747
  57   2.0000      -0.440518       -11.9871
  58   2.0000      -0.435150       -11.8410
  59   2.0000      -0.421836       -11.4787
  60   2.0000      -0.410357       -11.1664
  61   2.0000      -0.407583       -11.0909
  62   2.0000      -0.396236       -10.7821
  63   2.0000      -0.367894       -10.0109
  64   2.0000      -0.336459        -9.1555
  65   2.0000      -0.329158        -8.9568
  66   2.0000      -0.281632        -7.6636
  67   0.0000       0.024952         0.6790
  68   0.0000       0.089604         2.4383
  69   0.0000       0.115730         3.1492
  70   0.0000       0.128929         3.5083
  71   0.0000       0.135605         3.6900

MULLIKEN ATOMIC CHARGES
-----------------------
   0 S :    0.124776
   1 C :   -0.099162
   2 C :   -0.082292
   3 C :   -0.052336
   4 C :   -0.095009
   5 H :    0.026241
   6 C :    0.133816
   7 H :    0.027364
   8 H :    0.014344
   9 C :   -0.154932
  10 H :    0.032672
  11 H :    0.029393
  12 C :   -0.039116
  13 H :    0.037068
  14 H :    0.038050
  15 H :    0.035487
  16 S :    0.072855
  17 C :   -0.038643
  18 C :   -0.078197
  19 C :   -0.103865
  20 C :   -0.068234
  21 H :    0.042072
  22 C :    0.038534
  23 H :   -0.004884
  24 H :    0.037351
  25 C :   -0.033968
  26 H :    0.016128
  27 H :    0.001873
  28 C :   -0.025486
  29 H :    0.036991
  30 H :    0.039587
  31 H :    0.025253
  32 H :    0.026306
  33 H :    0.039962
Sum of atomic charges:   -0.0000000

LOEWDIN ATOMIC CHARGES
----------------------
   0 S :    0.453761
   1 C :   -0.211338
   2 C :   -0.053291
   3 C :   -0.074870
   4 C :   -0.203705
   5 H :    0.023450
   6 C :   -0.023134
   7 H :    0.033862
   8 H :    0.023230
   9 C :   -0.054856
  10 H :    0.029026
  11 H :    0.022735
  12 C :   -0.077298
  13 H :    0.035481
  14 H :    0.020102
  15 H :    0.035721
  16 S :    0.450794
  17 C :   -0.198669
  18 C :   -0.078602
  19 C :   -0.075520
  20 C :   -0.192546
  21 H :    0.039688
  22 C :   -0.034164
  23 H :    0.004670
  24 H :    0.036595
  25 C :   -0.039323
  26 H :    0.018979
  27 H :    0.018482
  28 C :   -0.060271
  29 H :    0.030592
  30 H :    0.034044
  31 H :    0.020714
  32 H :    0.024929
  33 H :    0.020730

  Mayer bond orders larger than 0.100000
B(  0-S ,  1-C ) :   1.1310 B(  0-S ,  4-C ) :   1.1565 B(  1-C ,  2-C ) :   1.6415
B(  1-C , 32-H ) :   0.9580 B(  2-C ,  3-C ) :   1.2561 B(  2-C ,  6-C ) :   1.0326
B(  3-C ,  4-C ) :   1.5401 B(  3-C ,  5-H ) :   0.9767 B(  4-C , 20-C ) :   1.0993
B(  6-C ,  7-H ) :   0.9440 B(  6-C ,  8-H ) :   0.9308 B(  6-C ,  9-C ) :   1.0582
B(  9-C , 10-H ) :   0.9549 B(  9-C , 11-H ) :   0.9676 B(  9-C , 12-C ) :   1.0621
B( 12-C , 13-H ) :   0.9733 B( 12-C , 14-H ) :   0.9788 B( 12-C , 15-H ) :   0.9772
B( 16-S , 17-C ) :   1.2013 B( 16-S , 20-C ) :   1.1310 B( 17-C , 18-C ) :   1.5603
B( 17-C , 33-H ) :   0.9719 B( 18-C , 19-C ) :   1.2625 B( 18-C , 21-H ) :   0.9882
B( 19-C , 20-C ) :   1.5775 B( 19-C , 22-C ) :   1.0208 B( 22-C , 23-H ) :   0.9374
B( 22-C , 24-H ) :   0.9380 B( 22-C , 25-C ) :   1.0727 B( 25-C , 26-H ) :   0.9504
B( 25-C , 27-H ) :   0.9527 B( 25-C , 28-C ) :   1.0741 B( 28-C , 29-H ) :   0.9735
B( 28-C , 30-H ) :   0.9734 B( 28-C , 31-H ) :   0.9746

Dispersion correction           -0.013919027
FINAL SINGLE POINT ENERGY     -1339.860868471559

DIPOLE MOMENT
-------------
                                X             Y             Z
Electronic contribution:      5.26516       1.85673       4.89625
Nuclear contribution   :     -5.18614      -1.87004      -4.97923
                        -----------------------------------------
Total Dipole Moment    :      0.07902      -0.01332      -0.08298
                        -----------------------------------------
Magnitude (a.u.)       :      0.11535
Magnitude (Debye)      :      0.29320

Rotational constants in cm-1:     0.025229     0.007591     0.006188
Rotational constants in MHz :   756.345027   227.565149   185.521951

                             ****ORCA TERMINATED NORMALLY****
TOTAL RUN TIME: 0 days 0 hours 0 minutes 22 seconds 480 msec
