                         Program Version 4.2.1 -  RELEASE  -
|  1> ! wB97X-D3 SP def2-SVP
|  2> %pal
|  3> nprocs 24
|  4> end
|  5>
|  6> * xyz 0 1
|  7> S 	 -48.0822 	 8.62617 	 -18.6217
|  8> C 	 -47.5875 	 8.33749 	 -20.2867
|  9> C 	 -48.6462 	 8.64118 	 -21.1649
| 10> C 	 -49.8991 	 8.58125 	 -20.4656
| 11> C 	 -49.7268 	 8.78102 	 -19.1005
| 12> H 	 -50.9069 	 8.61658 	 -20.8
| 13> C 	 -48.6581 	 8.55662 	 -22.7045
| 14> H 	 -47.6883 	 8.15949 	 -23.1202
| 15> H 	 -48.854 	 9.55588 	 -23.0596
| 16> C 	 -49.6251 	 7.55625 	 -23.3163
| 17> H 	 -50.5518 	 7.75704 	 -22.7868
| 18> H 	 -49.768 	 7.82582 	 -24.3749
| 19> C 	 -49.1868 	 6.06605 	 -23.3789
| 20> H 	 -49.8833 	 5.43506 	 -23.9214
| 21> H 	 -48.2396 	 5.84136 	 -23.7968
| 22> H 	 -49.134 	 5.74131 	 -22.3278
| 23> S 	 -50.1818 	 10.1027 	 -16.7682
| 24> C 	 -51.7229 	 9.94243 	 -15.9562
| 25> C 	 -52.6449 	 9.2334 	 -16.735
| 26> C 	 -52.0753 	 8.62921 	 -17.94
| 27> C 	 -50.6992 	 8.95042 	 -18.0092
| 28> H 	 -53.7291 	 9.29386 	 -16.5993
| 29> C 	 -52.8906 	 7.7913 	 -18.8986
| 30> H 	 -53.1566 	 8.44826 	 -19.6548
| 31> H 	 -53.7671 	 7.70322 	 -18.3963
| 32> C 	 -52.2337 	 6.44172 	 -19.247
| 33> H 	 -51.2972 	 6.67653 	 -19.6697
| 34> H 	 -52.8373 	 5.97178 	 -19.9519
| 35> C 	 -52.2085 	 5.5493 	 -18.0469
| 36> H 	 -51.5382 	 5.97226 	 -17.185
| 37> H 	 -51.9656 	 4.54619 	 -18.3353
| 38> H 	 -53.2486 	 5.46914 	 -17.8204
| 39> H 	 -46.5509 	 8.55156 	 -20.6714
| 40> H 	 -52.0788 	 10.5378 	 -15.0863
| 41> *
| 42>
| 43>                          ****END OF INPUT****

CARTESIAN COORDINATES (ANGSTROEM)
---------------------------------
  S    -48.082200    8.626170  -18.621700
  C    -47.587500    8.337490  -20.286700
  C    -48.646200    8.641180  -21.164900
  C    -49.899100    8.581250  -20.465600
  C    -49.726800    8.781020  -19.100500
  H    -50.906900    8.616580  -20.800000
  C    -48.658100    8.556620  -22.704500
  H    -47.688300    8.159490  -23.120200
  H    -48.854000    9.555880  -23.059600
  C    -49.625100    7.556250  -23.316300
  H    -50.551800    7.757040  -22.786800
  H    -49.768000    7.825820  -24.374900
  C    -49.186800    6.066050  -23.378900
  H    -49.883300    5.435060  -23.921400
  H    -48.239600    5.841360  -23.796800
  H    -49.134000    5.741310  -22.327800
  S    -50.181800   10.102700  -16.768200
  C    -51.722900    9.942430  -15.956200
  C    -52.644900    9.233400  -16.735000
  C    -52.075300    8.629210  -17.940000
  C    -50.699200    8.950420  -18.009200
  H    -53.729100    9.293860  -16.599300
  C    -52.890600    7.791300  -18.898600
  H    -53.156600    8.448260  -19.654800
  H    -53.767100    7.703220  -18.396300
  C    -52.233700    6.441720  -19.247000
  H    -51.297200    6.676530  -19.669700
  H    -52.837300    5.971780  -19.951900
  C    -52.208500    5.549300  -18.046900
  H    -51.538200    5.972260  -17.185000
  H    -51.965600    4.546190  -18.335300
  H    -53.248600    5.469140  -17.820400
  H    -46.550900    8.551560  -20.671400
  H    -52.078800   10.537800  -15.086300

 Total Charge           Charge          ....    0
 Multiplicity           Mult            ....    1
 Number of Electrons    NEL             ....  134
 Basis Dimension        Dim             ....  322

ORBITAL ENERGIES
----------------

  NO   OCC          E(Eh)            E(eV)
   0   2.0000     -88.970888     -2421.0210
   1   2.0000     -88.965697     -2420.8797
   2   2.0000     -10.330283      -281.1013
   3   2.0000     -10.330038      -281.0946
   4   2.0000     -10.323391      -280.9137
   5   2.0000     -10.316152      -280.7168
   6   2.0000     -10.309793      -280.5437
   7   2.0000     -10.308799      -280.5167
   8   2.0000     -10.300592      -280.2934
   9   2.0000     -10.296028      -280.1692
  10   2.0000     -10.293475      -280.0997
  11   2.0000     -10.288422      -279.9622
  12   2.0000     -10.281197      -279.7656
  13   2.0000     -10.276264      -279.6314
  14   2.0000     -10.274301      -279.5779
  15   2.0000     -10.274125      -279.5732
  16   2.0000      -8.085029      -220.0048
  17   2.0000      -8.080792      -219.8895
  18   2.0000      -6.043575      -164.4540
  19   2.0000      -6.039766      -164.3504
  20   2.0000      -6.039293      -164.3375
  21   2.0000      -6.035624      -164.2377
  22   2.0000      -6.035237      -164.2272
  23   2.0000      -6.031532      -164.1263
  24   2.0000      -1.007322       -27.4106
  25   2.0000      -0.979933       -26.6653
  26   2.0000      -0.921583       -25.0775
  27   2.0000      -0.911882       -24.8136
  28   2.0000      -0.864665       -23.5287
  29   2.0000      -0.854320       -23.2472
  30   2.0000      -0.843621       -22.9561
  31   2.0000      -0.811440       -22.0804
  32   2.0000      -0.788407       -21.4537
  33   2.0000      -0.775847       -21.1119
  34   2.0000      -0.711983       -19.3740
  35   2.0000      -0.701844       -19.0981
  36   2.0000      -0.682324       -18.5670
  37   2.0000      -0.661731       -18.0066
  38   2.0000      -0.637482       -17.3468
  39   2.0000      -0.621514       -16.9122
  40   2.0000      -0.594634       -16.1808
  41   2.0000      -0.563483       -15.3332
  42   2.0000      -0.561130       -15.2691
  43   2.0000      -0.557430       -15.1684
  44   2.0000      -0.553438       -15.0598
  45   2.0000      -0.534946       -14.5566
  46   2.0000      -0.512828       -13.9548
  47   2.0000      -0.504711       -13.7339
  48   2.0000      -0.499047       -13.5798
  49   2.0000      -0.491902       -13.3853
  50   2.0000      -0.485056       -13.1990
  51   2.0000      -0.480321       -13.0702
  52   2.0000      -0.472031       -12.8446
  53   2.0000      -0.466879       -12.7044
  54   2.0000      -0.457478       -12.4486
  55   2.0000      -0.451258       -12.2794
  56   2.0000      -0.449535       -12.2325
  57   2.0000      -0.444339       -12.0911
  58   2.0000      -0.435376       -11.8472
  59   2.0000      -0.424329       -11.5466
  60   2.0000      -0.420835       -11.4515
  61   2.0000      -0.413956       -11.2643
  62   2.0000      -0.406234       -11.0542
  63   2.0000      -0.350079        -9.5261
  64   2.0000      -0.332219        -9.0401
  65   2.0000      -0.329945        -8.9783
  66   2.0000      -0.285457        -7.7677
  67   0.0000       0.019411         0.5282
  68   0.0000       0.068791         1.8719
  69   0.0000       0.094954         2.5838
  70   0.0000       0.109523         2.9803
  71   0.0000       0.128584         3.4990

MULLIKEN ATOMIC CHARGES
-----------------------
   0 S :    0.101202
   1 C :   -0.109632
   2 C :   -0.104232
   3 C :    0.001478
   4 C :   -0.152158
   5 H :    0.008468
   6 C :    0.048195
   7 H :    0.024280
   8 H :    0.040732
   9 C :   -0.087152
  10 H :    0.024814
  11 H :    0.028699
  12 C :   -0.038373
  13 H :    0.035234
  14 H :    0.022658
  15 H :    0.037560
  16 S :    0.105565
  17 C :   -0.086785
  18 C :   -0.048206
  19 C :   -0.142322
  20 C :   -0.122917
  21 H :    0.028927
  22 C :    0.160389
  23 H :    0.018947
  24 H :   -0.035886
  25 C :   -0.010981
  26 H :    0.027718
  27 H :    0.007743
  28 C :   -0.041165
  29 H :    0.073726
  30 H :    0.024512
  31 H :    0.010267
  32 H :    0.075495
  33 H :    0.073202
Sum of atomic charges:   -0.0000000

LOEWDIN ATOMIC CHARGES
----------------------
   0 S :    0.414066
   1 C :   -0.223460
   2 C :   -0.051469
   3 C :   -0.076968
   4 C :   -0.189994
   5 H :    0.024519
   6 C :   -0.033667
   7 H :    0.033361
   8 H :    0.032830
   9 C :   -0.041472
  10 H :    0.019399
  11 H :    0.026508
  12 C :   -0.064018
  13 H :    0.027570
  14 H :    0.019812
  15 H :    0.030390
  16 S :    0.403290
  17 C :   -0.197647
  18 C :   -0.073835
  19 C :   -0.046242
  20 C :   -0.200443
  21 H :    0.032298
  22 C :   -0.022405
  23 H :    0.026046
  24 H :    0.015740
  25 C :   -0.026428
  26 H :    0.016988
  27 H :    0.018144
  28 C :   -0.060729
  29 H :    0.045058
  30 H :    0.022570
  31 H :    0.021243
  32 H :    0.038988
  33 H :    0.039956

  Mayer bond orders larger than 0.100000
B(  0-S ,  1-C ) :   1.1280 B(  0-S ,  4-C ) :   1.1736 B(  1-C ,  2-C ) :   1.6162
B(  1-C ,  4-C ) :   0.1045 B(  1-C , 32-H ) :   0.9478 B(  2-C ,  3-C ) :   1.2170
B(  2-C ,  6-C ) :   1.0240 B(  3-C ,  4-C ) :   1.5953 B(  3-C ,  5-H ) :   0.9746
B(  4-C , 20-C ) :   1.0247 B(  6-C ,  7-H ) :   0.9526 B(  6-C ,  8-H ) :   0.9332
B(  6-C ,  9-C ) :   1.0738 B(  9-C , 10-H ) :   0.9528 B(  9-C , 11-H ) :   0.9520
B(  9-C , 12-C ) :   1.0737 B( 12-C , 13-H ) :   0.9754 B( 12-C , 14-H ) :   0.9723
B( 12-C , 15-H ) :   0.9773 B( 16-S , 17-C ) :   1.1452 B( 16-S , 20-C ) :   1.1420
B( 17-C , 18-C ) :   1.6155 B( 17-C , 33-H ) :   0.9600 B( 18-C , 19-C ) :   1.2563
B( 18-C , 21-H ) :   0.9759 B( 19-C , 20-C ) :   1.5824 B( 19-C , 22-C ) :   1.0159
B( 22-C , 23-H ) :   0.9107 B( 22-C , 24-H ) :   0.9078 B( 22-C , 25-C ) :   1.0704
B( 25-C , 26-H ) :   0.9505 B( 25-C , 27-H ) :   0.9472 B( 25-C , 28-C ) :   1.0823
B( 28-C , 29-H ) :   0.9705 B( 28-C , 30-H ) :   0.9708 B( 28-C , 31-H ) :   0.9724

Dispersion correction           -0.015385219
FINAL SINGLE POINT ENERGY     -1339.839210506364

DIPOLE MOMENT
-------------
                                X             Y             Z
Electronic contribution:     10.08310      17.17759      19.91980
Nuclear contribution   :    -10.71720     -17.16773     -20.47890
                        -----------------------------------------
Total Dipole Moment    :     -0.63409       0.00986      -0.55910
                        -----------------------------------------
Magnitude (a.u.)       :      0.84544
Magnitude (Debye)      :      2.14893

Rotational constants in cm-1:     0.020379     0.009688     0.007513
Rotational constants in MHz :   610.944869   290.448964   225.225921

                             ****ORCA TERMINATED NORMALLY****
TOTAL RUN TIME: 0 days 0 hours 0 minutes 23 seconds 135 msec
