                         Program Version 4.2.1 -  RELEASE  -
|  1> ! wB97X-D3 SP def2-SVP
|  2> %pal
|  3> nprocs 24
|  4> end
|  5>
|  6> * xyz 0 1
|  7> S 	 -44.2495 	 -51.2082 	 -74.0211
|  8> C 	 -44.3445 	 -52.8408 	 -74.6323
|  9> C 	 -43.6466 	 -53.7431 	 -73.8707
| 10> C 	 -42.8297 	 -53.0935 	 -72.8302
| 11> C 	 -43.0501 	 -51.728 	 -72.7863
| 12> H 	 -42.1599 	 -53.5546 	 -72.1533
| 13> C 	 -43.6085 	 -55.2278 	 -74.1318
| 14> H 	 -42.7333 	 -55.6209 	 -73.6191
| 15> H 	 -43.4903 	 -55.5607 	 -75.1627
| 16> C 	 -44.8781 	 -55.9525 	 -73.642
| 17> H 	 -45.7517 	 -55.674 	 -74.2292
| 18> H 	 -44.8212 	 -57.0462 	 -73.7394
| 19> C 	 -45.1387 	 -55.6231 	 -72.1457
| 20> H 	 -46.1441 	 -55.9448 	 -71.9187
| 21> H 	 -44.3966 	 -55.9617 	 -71.4368
| 22> H 	 -45.1153 	 -54.5786 	 -71.8444
| 23> S 	 -42.8571 	 -49.2583 	 -71.6793
| 24> C 	 -41.4981 	 -48.8997 	 -70.5425
| 25> C 	 -40.6505 	 -49.9887 	 -70.5246
| 26> C 	 -40.957 	 -51.0643 	 -71.4212
| 27> C 	 -42.1935 	 -50.826 	 -72.0024
| 28> H 	 -39.7292 	 -49.936 	 -69.9562
| 29> C 	 -39.9547 	 -52.1029 	 -71.6598
| 30> H 	 -40.2827 	 -53.104 	 -71.553
| 31> H 	 -38.9683 	 -52.0018 	 -71.0983
| 32> C 	 -39.5088 	 -51.9157 	 -73.1027
| 33> H 	 -39.0348 	 -50.918 	 -73.1637
| 34> H 	 -40.2551 	 -51.8472 	 -73.9189
| 35> C 	 -38.5432 	 -53.0158 	 -73.5689
| 36> H 	 -39.0933 	 -53.946 	 -73.6952
| 37> H 	 -37.8168 	 -53.1449 	 -72.8417
| 38> H 	 -38.1174 	 -52.8194 	 -74.5812
| 39> H 	 -44.9914 	 -53.2345 	 -75.4459
| 40> H 	 -41.2249 	 -47.9532 	 -69.9683
| 41> *
| 42>
| 43>                          ****END OF INPUT****

CARTESIAN COORDINATES (ANGSTROEM)
---------------------------------
  S    -44.249500  -51.208200  -74.021100
  C    -44.344500  -52.840800  -74.632300
  C    -43.646600  -53.743100  -73.870700
  C    -42.829700  -53.093500  -72.830200
  C    -43.050100  -51.728000  -72.786300
  H    -42.159900  -53.554600  -72.153300
  C    -43.608500  -55.227800  -74.131800
  H    -42.733300  -55.620900  -73.619100
  H    -43.490300  -55.560700  -75.162700
  C    -44.878100  -55.952500  -73.642000
  H    -45.751700  -55.674000  -74.229200
  H    -44.821200  -57.046200  -73.739400
  C    -45.138700  -55.623100  -72.145700
  H    -46.144100  -55.944800  -71.918700
  H    -44.396600  -55.961700  -71.436800
  H    -45.115300  -54.578600  -71.844400
  S    -42.857100  -49.258300  -71.679300
  C    -41.498100  -48.899700  -70.542500
  C    -40.650500  -49.988700  -70.524600
  C    -40.957000  -51.064300  -71.421200
  C    -42.193500  -50.826000  -72.002400
  H    -39.729200  -49.936000  -69.956200
  C    -39.954700  -52.102900  -71.659800
  H    -40.282700  -53.104000  -71.553000
  H    -38.968300  -52.001800  -71.098300
  C    -39.508800  -51.915700  -73.102700
  H    -39.034800  -50.918000  -73.163700
  H    -40.255100  -51.847200  -73.918900
  C    -38.543200  -53.015800  -73.568900
  H    -39.093300  -53.946000  -73.695200
  H    -37.816800  -53.144900  -72.841700
  H    -38.117400  -52.819400  -74.581200
  H    -44.991400  -53.234500  -75.445900
  H    -41.224900  -47.953200  -69.968300

 Total Charge           Charge          ....    0
 Multiplicity           Mult            ....    1
 Number of Electrons    NEL             ....  134
 Basis Dimension        Dim             ....  322

ORBITAL ENERGIES
----------------

  NO   OCC          E(Eh)            E(eV)
   0   2.0000     -88.970537     -2421.0114
   1   2.0000     -88.968679     -2420.9608
   2   2.0000     -10.334657      -281.2203
   3   2.0000     -10.330383      -281.1040
   4   2.0000     -10.325666      -280.9756
   5   2.0000     -10.316056      -280.7142
   6   2.0000     -10.303996      -280.3860
   7   2.0000     -10.303528      -280.3733
   8   2.0000     -10.297593      -280.2118
   9   2.0000     -10.296724      -280.1881
  10   2.0000     -10.294058      -280.1155
  11   2.0000     -10.291736      -280.0524
  12   2.0000     -10.289658      -279.9958
  13   2.0000     -10.283585      -279.8306
  14   2.0000     -10.272434      -279.5271
  15   2.0000     -10.268927      -279.4317
  16   2.0000      -8.084351      -219.9864
  17   2.0000      -8.082661      -219.9404
  18   2.0000      -6.043100      -164.4411
  19   2.0000      -6.041347      -164.3934
  20   2.0000      -6.039148      -164.3336
  21   2.0000      -6.037354      -164.2847
  22   2.0000      -6.034749      -164.2139
  23   2.0000      -6.033218      -164.1722
  24   2.0000      -1.005599       -27.3637
  25   2.0000      -0.980658       -26.6850
  26   2.0000      -0.919742       -25.0274
  27   2.0000      -0.909503       -24.7488
  28   2.0000      -0.868380       -23.6298
  29   2.0000      -0.853275       -23.2188
  30   2.0000      -0.840630       -22.8747
  31   2.0000      -0.814708       -22.1693
  32   2.0000      -0.782088       -21.2817
  33   2.0000      -0.772569       -21.0227
  34   2.0000      -0.707176       -19.2432
  35   2.0000      -0.702695       -19.1213
  36   2.0000      -0.690359       -18.7856
  37   2.0000      -0.667514       -18.1640
  38   2.0000      -0.635229       -17.2855
  39   2.0000      -0.618088       -16.8190
  40   2.0000      -0.600039       -16.3279
  41   2.0000      -0.570984       -15.5373
  42   2.0000      -0.569596       -15.4995
  43   2.0000      -0.546790       -14.8789
  44   2.0000      -0.537008       -14.6127
  45   2.0000      -0.523226       -14.2377
  46   2.0000      -0.518186       -14.1006
  47   2.0000      -0.514455       -13.9990
  48   2.0000      -0.507216       -13.8020
  49   2.0000      -0.495485       -13.4828
  50   2.0000      -0.493449       -13.4274
  51   2.0000      -0.481535       -13.1032
  52   2.0000      -0.480046       -13.0627
  53   2.0000      -0.461595       -12.5606
  54   2.0000      -0.452505       -12.3133
  55   2.0000      -0.444814       -12.1040
  56   2.0000      -0.440182       -11.9780
  57   2.0000      -0.437852       -11.9146
  58   2.0000      -0.428679       -11.6650
  59   2.0000      -0.427184       -11.6243
  60   2.0000      -0.422873       -11.5070
  61   2.0000      -0.413748       -11.2587
  62   2.0000      -0.411214       -11.1897
  63   2.0000      -0.359698        -9.7879
  64   2.0000      -0.335684        -9.1344
  65   2.0000      -0.326183        -8.8759
  66   2.0000      -0.283731        -7.7207
  67   0.0000       0.018378         0.5001
  68   0.0000       0.079392         2.1604
  69   0.0000       0.089640         2.4392
  70   0.0000       0.116594         3.1727
  71   0.0000       0.128510         3.4969

MULLIKEN ATOMIC CHARGES
-----------------------
   0 S :    0.105520
   1 C :   -0.119384
   2 C :   -0.090022
   3 C :   -0.010988
   4 C :   -0.070815
   5 H :   -0.007829
   6 C :    0.074780
   7 H :    0.015137
   8 H :    0.031780
   9 C :   -0.070157
  10 H :    0.027371
  11 H :    0.034963
  12 C :   -0.064387
  13 H :    0.028058
  14 H :    0.021920
  15 H :    0.038673
  16 S :    0.095476
  17 C :   -0.111461
  18 C :   -0.033923
  19 C :   -0.041733
  20 C :   -0.139162
  21 H :    0.015600
  22 C :    0.073880
  23 H :    0.015022
  24 H :    0.039186
  25 C :   -0.143950
  26 H :    0.027878
  27 H :    0.049648
  28 C :   -0.000857
  29 H :    0.021400
  30 H :    0.008172
  31 H :    0.038894
  32 H :    0.058852
  33 H :    0.082457
Sum of atomic charges:    0.0000000

LOEWDIN ATOMIC CHARGES
----------------------
   0 S :    0.379992
   1 C :   -0.201003
   2 C :   -0.060017
   3 C :   -0.055425
   4 C :   -0.173769
   5 H :    0.023732
   6 C :   -0.035720
   7 H :    0.027898
   8 H :    0.031558
   9 C :   -0.035964
  10 H :    0.021664
  11 H :    0.026294
  12 C :   -0.074030
  13 H :    0.024179
  14 H :    0.022621
  15 H :    0.028286
  16 S :    0.389411
  17 C :   -0.190895
  18 C :   -0.066708
  19 C :   -0.059069
  20 C :   -0.189546
  21 H :    0.029694
  22 C :   -0.031439
  23 H :    0.017938
  24 H :    0.044449
  25 C :   -0.043357
  26 H :    0.024968
  27 H :    0.029107
  28 C :   -0.060757
  29 H :    0.023287
  30 H :    0.009060
  31 H :    0.032849
  32 H :    0.039663
  33 H :    0.051051

  Mayer bond orders larger than 0.100000
B(  0-S ,  1-C ) :   1.1184 B(  0-S ,  4-C ) :   1.1166 B(  1-C ,  2-C ) :   1.6603
B(  1-C , 32-H ) :   0.9568 B(  2-C ,  3-C ) :   1.1908 B(  2-C ,  6-C ) :   1.0228
B(  3-C ,  4-C ) :   1.6022 B(  3-C ,  5-H ) :   1.0002 B(  4-C , 20-C ) :   1.0635
B(  6-C ,  7-H ) :   0.9417 B(  6-C ,  8-H ) :   0.9462 B(  6-C ,  9-C ) :   1.0689
B(  9-C , 10-H ) :   0.9587 B(  9-C , 11-H ) :   0.9572 B(  9-C , 12-C ) :   1.0677
B( 12-C , 13-H ) :   0.9748 B( 12-C , 14-H ) :   0.9764 B( 12-C , 15-H ) :   0.9713
B( 16-S , 17-C ) :   1.1212 B( 16-S , 20-C ) :   1.1326 B( 17-C , 18-C ) :   1.6365
B( 17-C , 33-H ) :   0.9577 B( 18-C , 19-C ) :   1.2515 B( 18-C , 21-H ) :   0.9793
B( 19-C , 20-C ) :   1.5699 B( 19-C , 22-C ) :   1.0575 B( 22-C , 23-H ) :   0.9314
B( 22-C , 24-H ) :   0.9300 B( 22-C , 25-C ) :   1.0418 B( 25-C , 26-H ) :   0.9529
B( 25-C , 27-H ) :   0.9610 B( 25-C , 28-C ) :   1.0851 B( 28-C , 29-H ) :   0.9722
B( 28-C , 30-H ) :   0.9708 B( 28-C , 31-H ) :   0.9719

Dispersion correction           -0.015268308
FINAL SINGLE POINT ENERGY     -1339.867802332662

DIPOLE MOMENT
-------------
                                X             Y             Z
Electronic contribution:    -10.17930      24.07958       1.59598
Nuclear contribution   :     10.67606     -24.60838      -1.60431
                        -----------------------------------------
Total Dipole Moment    :      0.49676      -0.52879      -0.00833
                        -----------------------------------------
Magnitude (a.u.)       :      0.72557
Magnitude (Debye)      :      1.84426

Rotational constants in cm-1:     0.018858     0.009400     0.007542
Rotational constants in MHz :   565.341743   281.816362   226.105976

                             ****ORCA TERMINATED NORMALLY****
TOTAL RUN TIME: 0 days 0 hours 0 minutes 21 seconds 478 msec
