                         Program Version 4.2.1 -  RELEASE  -
|  1> ! wB97X-D3 SP def2-SVP
|  2> %pal
|  3> nprocs 24
|  4> end
|  5>
|  6> * xyz 0 1
|  7> S 	 -40.7756 	 0.182624 	 -7.79883
|  8> C 	 -40.2662 	 0.786164 	 -6.19821
|  9> C 	 -41.2832 	 1.60903 	 -5.70926
| 10> C 	 -42.4993 	 1.55932 	 -6.52265
| 11> C 	 -42.3474 	 0.8775 	 -7.67105
| 12> H 	 -43.3909 	 2.11178 	 -6.47156
| 13> C 	 -41.264 	 2.27038 	 -4.3496
| 14> H 	 -40.8779 	 1.53811 	 -3.63281
| 15> H 	 -42.3092 	 2.47356 	 -4.09279
| 16> C 	 -40.3786 	 3.50469 	 -4.22572
| 17> H 	 -39.3733 	 3.14815 	 -4.34711
| 18> H 	 -40.4308 	 4.18141 	 -5.06311
| 19> C 	 -40.5201 	 4.15413 	 -2.8342
| 20> H 	 -40.8458 	 3.41085 	 -2.11574
| 21> H 	 -39.5811 	 4.58801 	 -2.57415
| 22> H 	 -41.3511 	 4.84322 	 -2.87094
| 23> S 	 -42.4391 	 0.578909 	 -10.4649
| 24> C 	 -44.0795 	 0.316308 	 -11.1116
| 25> C 	 -45.0305 	 0.455959 	 -10.209
| 26> C 	 -44.6001 	 0.664449 	 -8.90566
| 27> C 	 -43.2191 	 0.865072 	 -8.83393
| 28> H 	 -46.1312 	 0.389283 	 -10.3967
| 29> C 	 -45.6408 	 0.518124 	 -7.76992
| 30> H 	 -45.0383 	 0.375893 	 -6.88547
| 31> H 	 -46.1778 	 -0.458569 	 -7.90566
| 32> C 	 -46.5882 	 1.67446 	 -7.78155
| 33> H 	 -47.1979 	 1.67721 	 -8.6978
| 34> H 	 -46.2097 	 2.73569 	 -7.94931
| 35> C 	 -47.6185 	 1.58309 	 -6.67891
| 36> H 	 -47.4853 	 0.719431 	 -6.03313
| 37> H 	 -48.5932 	 1.67304 	 -6.99409
| 38> H 	 -47.4952 	 2.44945 	 -6.09731
| 39> H 	 -39.3758 	 0.675266 	 -5.62215
| 40> H 	 -44.2592 	 0.175519 	 -12.1867
| 41> *
| 42>
| 43>                          ****END OF INPUT****

CARTESIAN COORDINATES (ANGSTROEM)
---------------------------------
  S    -40.775600    0.182624   -7.798830
  C    -40.266200    0.786164   -6.198210
  C    -41.283200    1.609030   -5.709260
  C    -42.499300    1.559320   -6.522650
  C    -42.347400    0.877500   -7.671050
  H    -43.390900    2.111780   -6.471560
  C    -41.264000    2.270380   -4.349600
  H    -40.877900    1.538110   -3.632810
  H    -42.309200    2.473560   -4.092790
  C    -40.378600    3.504690   -4.225720
  H    -39.373300    3.148150   -4.347110
  H    -40.430800    4.181410   -5.063110
  C    -40.520100    4.154130   -2.834200
  H    -40.845800    3.410850   -2.115740
  H    -39.581100    4.588010   -2.574150
  H    -41.351100    4.843220   -2.870940
  S    -42.439100    0.578909  -10.464900
  C    -44.079500    0.316308  -11.111600
  C    -45.030500    0.455959  -10.209000
  C    -44.600100    0.664449   -8.905660
  C    -43.219100    0.865072   -8.833930
  H    -46.131200    0.389283  -10.396700
  C    -45.640800    0.518124   -7.769920
  H    -45.038300    0.375893   -6.885470
  H    -46.177800   -0.458569   -7.905660
  C    -46.588200    1.674460   -7.781550
  H    -47.197900    1.677210   -8.697800
  H    -46.209700    2.735690   -7.949310
  C    -47.618500    1.583090   -6.678910
  H    -47.485300    0.719431   -6.033130
  H    -48.593200    1.673040   -6.994090
  H    -47.495200    2.449450   -6.097310
  H    -39.375800    0.675266   -5.622150
  H    -44.259200    0.175519  -12.186700

 Total Charge           Charge          ....    0
 Multiplicity           Mult            ....    1
 Number of Electrons    NEL             ....  134
 Basis Dimension        Dim             ....  322

ORBITAL ENERGIES
----------------

  NO   OCC          E(Eh)            E(eV)
   0   2.0000     -88.966700     -2420.9070
   1   2.0000     -88.963101     -2420.8091
   2   2.0000     -10.332814      -281.1702
   3   2.0000     -10.322301      -280.8841
   4   2.0000     -10.316149      -280.7167
   5   2.0000     -10.313249      -280.6378
   6   2.0000     -10.303257      -280.3659
   7   2.0000     -10.300901      -280.3018
   8   2.0000     -10.299719      -280.2696
   9   2.0000     -10.290777      -280.0263
  10   2.0000     -10.288982      -279.9774
  11   2.0000     -10.286750      -279.9167
  12   2.0000     -10.285326      -279.8780
  13   2.0000     -10.279785      -279.7272
  14   2.0000     -10.274898      -279.5942
  15   2.0000     -10.265635      -279.3421
  16   2.0000      -8.079913      -219.8656
  17   2.0000      -8.077638      -219.8037
  18   2.0000      -6.038633      -164.3195
  19   2.0000      -6.036397      -164.2587
  20   2.0000      -6.034909      -164.2182
  21   2.0000      -6.032136      -164.1428
  22   2.0000      -6.030266      -164.0919
  23   2.0000      -6.028150      -164.0343
  24   2.0000      -1.006340       -27.3839
  25   2.0000      -0.982398       -26.7324
  26   2.0000      -0.917175       -24.9576
  27   2.0000      -0.913346       -24.8534
  28   2.0000      -0.870877       -23.6978
  29   2.0000      -0.856757       -23.3135
  30   2.0000      -0.842462       -22.9245
  31   2.0000      -0.818492       -22.2723
  32   2.0000      -0.785904       -21.3855
  33   2.0000      -0.771515       -20.9940
  34   2.0000      -0.707738       -19.2585
  35   2.0000      -0.707176       -19.2432
  36   2.0000      -0.700276       -19.0555
  37   2.0000      -0.659094       -17.9349
  38   2.0000      -0.643616       -17.5137
  39   2.0000      -0.613839       -16.7034
  40   2.0000      -0.602177       -16.3861
  41   2.0000      -0.566423       -15.4132
  42   2.0000      -0.560684       -15.2570
  43   2.0000      -0.556415       -15.1408
  44   2.0000      -0.544692       -14.8218
  45   2.0000      -0.526572       -14.3288
  46   2.0000      -0.517410       -14.0794
  47   2.0000      -0.514335       -13.9958
  48   2.0000      -0.505751       -13.7622
  49   2.0000      -0.501554       -13.6480
  50   2.0000      -0.493276       -13.4227
  51   2.0000      -0.480217       -13.0674
  52   2.0000      -0.471647       -12.8342
  53   2.0000      -0.462461       -12.5842
  54   2.0000      -0.460504       -12.5310
  55   2.0000      -0.459563       -12.5053
  56   2.0000      -0.451661       -12.2903
  57   2.0000      -0.443710       -12.0740
  58   2.0000      -0.436389       -11.8747
  59   2.0000      -0.420834       -11.4515
  60   2.0000      -0.416298       -11.3280
  61   2.0000      -0.408297       -11.1103
  62   2.0000      -0.398572       -10.8457
  63   2.0000      -0.358401        -9.7526
  64   2.0000      -0.335941        -9.1414
  65   2.0000      -0.325857        -8.8670
  66   2.0000      -0.286263        -7.7896
  67   0.0000       0.023942         0.6515
  68   0.0000       0.074479         2.0267
  69   0.0000       0.096608         2.6288
  70   0.0000       0.124797         3.3959
  71   0.0000       0.132470         3.6047

MULLIKEN ATOMIC CHARGES
-----------------------
   0 S :    0.091368
   1 C :   -0.090678
   2 C :   -0.096403
   3 C :    0.021171
   4 C :   -0.115611
   5 H :   -0.005920
   6 C :    0.034692
   7 H :    0.033964
   8 H :    0.021301
   9 C :   -0.073099
  10 H :    0.006208
  11 H :    0.026019
  12 C :   -0.009586
  13 H :    0.023068
  14 H :    0.036788
  15 H :    0.031620
  16 S :    0.077501
  17 C :   -0.091880
  18 C :   -0.008460
  19 C :   -0.079845
  20 C :   -0.136461
  21 H :    0.029991
  22 C :    0.085586
  23 H :    0.025457
  24 H :    0.047056
  25 C :   -0.132940
  26 H :    0.017055
  27 H :    0.042328
  28 C :    0.034943
  29 H :    0.031809
  30 H :    0.010731
  31 H :    0.013033
  32 H :    0.036617
  33 H :    0.062576
Sum of atomic charges:   -0.0000000

LOEWDIN ATOMIC CHARGES
----------------------
   0 S :    0.396415
   1 C :   -0.193175
   2 C :   -0.051116
   3 C :   -0.074886
   4 C :   -0.189991
   5 H :    0.024239
   6 C :   -0.036241
   7 H :    0.033828
   8 H :    0.026841
   9 C :   -0.040397
  10 H :    0.017334
  11 H :    0.021855
  12 C :   -0.055861
  13 H :    0.025273
  14 H :    0.025088
  15 H :    0.025934
  16 S :    0.350469
  17 C :   -0.165219
  18 C :   -0.079501
  19 C :   -0.051567
  20 C :   -0.169346
  21 H :    0.039801
  22 C :   -0.026019
  23 H :    0.026356
  24 H :    0.042516
  25 C :   -0.057172
  26 H :    0.024944
  27 H :    0.035218
  28 C :   -0.057405
  29 H :    0.028744
  30 H :    0.016370
  31 H :    0.025174
  32 H :    0.027491
  33 H :    0.034006

  Mayer bond orders larger than 0.100000
B(  0-S ,  1-C ) :   1.1068 B(  0-S ,  4-C ) :   1.1331 B(  1-C ,  2-C ) :   1.6356
B(  1-C , 32-H ) :   0.9727 B(  2-C ,  3-C ) :   1.2035 B(  2-C ,  6-C ) :   1.0224
B(  3-C ,  4-C ) :   1.6062 B(  3-C ,  5-H ) :   0.9967 B(  4-C , 20-C ) :   1.0583
B(  6-C ,  7-H ) :   0.9388 B(  6-C ,  8-H ) :   0.9516 B(  6-C ,  9-C ) :   1.0589
B(  9-C , 10-H ) :   0.9553 B(  9-C , 11-H ) :   0.9603 B(  9-C , 12-C ) :   1.0706
B( 12-C , 13-H ) :   0.9728 B( 12-C , 14-H ) :   0.9762 B( 12-C , 15-H ) :   0.9768
B( 16-S , 17-C ) :   1.1230 B( 16-S , 20-C ) :   1.1062 B( 17-C , 18-C ) :   1.6490
B( 17-C , 33-H ) :   0.9593 B( 18-C , 19-C ) :   1.2438 B( 18-C , 21-H ) :   0.9773
B( 19-C , 20-C ) :   1.6197 B( 19-C , 22-C ) :   1.0205 B( 22-C , 23-H ) :   0.9346
B( 22-C , 24-H ) :   0.9354 B( 22-C , 25-C ) :   1.0540 B( 25-C , 26-H ) :   0.9557
B( 25-C , 27-H ) :   0.9609 B( 25-C , 28-C ) :   1.0653 B( 28-C , 29-H ) :   0.9745
B( 28-C , 30-H ) :   0.9739 B( 28-C , 31-H ) :   0.9692

Dispersion correction           -0.013357154
FINAL SINGLE POINT ENERGY     -1339.852462230528

DIPOLE MOMENT
-------------
                                X             Y             Z
Electronic contribution:     13.31620     -13.22184     -23.53741
Nuclear contribution   :    -13.94227      13.46755      23.93896
                        -----------------------------------------
Total Dipole Moment    :     -0.62608       0.24571       0.40155
                        -----------------------------------------
Magnitude (a.u.)       :      0.78332
Magnitude (Debye)      :      1.99104

Rotational constants in cm-1:     0.017728     0.008236     0.005984
Rotational constants in MHz :   531.484466   246.916493   179.408547

                             ****ORCA TERMINATED NORMALLY****
TOTAL RUN TIME: 0 days 0 hours 0 minutes 20 seconds 82 msec
