                         Program Version 4.2.1 -  RELEASE  -
|  1> ! wB97X-D3 SP def2-SVP
|  2> %pal
|  3> nprocs 24
|  4> end
|  5>
|  6> * xyz 0 1
|  7> S 	 -81.9856 	 -37.0179 	 -77.6192
|  8> C 	 -82.9198 	 -38.4056 	 -78.0517
|  9> C 	 -84.1301 	 -38.0982 	 -78.556
| 10> C 	 -84.4615 	 -36.7099 	 -78.4347
| 11> C 	 -83.4429 	 -36.0308 	 -77.8103
| 12> H 	 -85.3872 	 -36.199 	 -78.6236
| 13> C 	 -85.1609 	 -39.0424 	 -79.147
| 14> H 	 -86.1169 	 -38.6472 	 -78.8065
| 15> H 	 -84.9271 	 -40.0044 	 -78.5809
| 16> C 	 -85.1819 	 -39.201 	 -80.7225
| 17> H 	 -85.9437 	 -39.9793 	 -81.0264
| 18> H 	 -85.3809 	 -38.2798 	 -81.2481
| 19> C 	 -83.9166 	 -39.8719 	 -81.2593
| 20> H 	 -83.8696 	 -40.815 	 -80.7104
| 21> H 	 -83.8213 	 -40.1404 	 -82.3352
| 22> H 	 -83.0233 	 -39.4433 	 -80.9289
| 23> S 	 -83.8773 	 -34.1149 	 -75.9636
| 24> C 	 -83.6304 	 -32.4462 	 -76.4498
| 25> C 	 -83.043 	 -32.2736 	 -77.6757
| 26> C 	 -82.975 	 -33.5322 	 -78.3807
| 27> C 	 -83.3689 	 -34.5797 	 -77.5868
| 28> H 	 -82.8094 	 -31.2872 	 -78.0747
| 29> C 	 -82.2971 	 -33.6765 	 -79.7158
| 30> H 	 -82.499 	 -32.7054 	 -80.2313
| 31> H 	 -82.7141 	 -34.4915 	 -80.2128
| 32> C 	 -80.7544 	 -33.9442 	 -79.6889
| 33> H 	 -80.7018 	 -35.0079 	 -79.3492
| 34> H 	 -80.253 	 -33.3969 	 -78.8482
| 35> C 	 -79.9414 	 -33.7311 	 -80.9434
| 36> H 	 -79.977 	 -32.7072 	 -81.2878
| 37> H 	 -80.2936 	 -34.3859 	 -81.7569
| 38> H 	 -78.9156 	 -33.9367 	 -80.7865
| 39> H 	 -82.6374 	 -39.4383 	 -78.1834
| 40> H 	 -83.8879 	 -31.6596 	 -75.7244
| 41> *
| 42>
| 43>                          ****END OF INPUT****

CARTESIAN COORDINATES (ANGSTROEM)
---------------------------------
  S    -81.985600  -37.017900  -77.619200
  C    -82.919800  -38.405600  -78.051700
  C    -84.130100  -38.098200  -78.556000
  C    -84.461500  -36.709900  -78.434700
  C    -83.442900  -36.030800  -77.810300
  H    -85.387200  -36.199000  -78.623600
  C    -85.160900  -39.042400  -79.147000
  H    -86.116900  -38.647200  -78.806500
  H    -84.927100  -40.004400  -78.580900
  C    -85.181900  -39.201000  -80.722500
  H    -85.943700  -39.979300  -81.026400
  H    -85.380900  -38.279800  -81.248100
  C    -83.916600  -39.871900  -81.259300
  H    -83.869600  -40.815000  -80.710400
  H    -83.821300  -40.140400  -82.335200
  H    -83.023300  -39.443300  -80.928900
  S    -83.877300  -34.114900  -75.963600
  C    -83.630400  -32.446200  -76.449800
  C    -83.043000  -32.273600  -77.675700
  C    -82.975000  -33.532200  -78.380700
  C    -83.368900  -34.579700  -77.586800
  H    -82.809400  -31.287200  -78.074700
  C    -82.297100  -33.676500  -79.715800
  H    -82.499000  -32.705400  -80.231300
  H    -82.714100  -34.491500  -80.212800
  C    -80.754400  -33.944200  -79.688900
  H    -80.701800  -35.007900  -79.349200
  H    -80.253000  -33.396900  -78.848200
  C    -79.941400  -33.731100  -80.943400
  H    -79.977000  -32.707200  -81.287800
  H    -80.293600  -34.385900  -81.756900
  H    -78.915600  -33.936700  -80.786500
  H    -82.637400  -39.438300  -78.183400
  H    -83.887900  -31.659600  -75.724400

 Total Charge           Charge          ....    0
 Multiplicity           Mult            ....    1
 Number of Electrons    NEL             ....  134
 Basis Dimension        Dim             ....  322

ORBITAL ENERGIES
----------------

  NO   OCC          E(Eh)            E(eV)
   0   2.0000     -88.968975     -2420.9689
   1   2.0000     -88.962888     -2420.8032
   2   2.0000     -10.327187      -281.0170
   3   2.0000     -10.321161      -280.8531
   4   2.0000     -10.317991      -280.7668
   5   2.0000     -10.307317      -280.4763
   6   2.0000     -10.302665      -280.3498
   7   2.0000     -10.302078      -280.3338
   8   2.0000     -10.296741      -280.1886
   9   2.0000     -10.296026      -280.1691
  10   2.0000     -10.295202      -280.1467
  11   2.0000     -10.292677      -280.0780
  12   2.0000     -10.288228      -279.9569
  13   2.0000     -10.286859      -279.9197
  14   2.0000     -10.273235      -279.5489
  15   2.0000     -10.272355      -279.5250
  16   2.0000      -8.083254      -219.9565
  17   2.0000      -8.077852      -219.8095
  18   2.0000      -6.041804      -164.4058
  19   2.0000      -6.038039      -164.3034
  20   2.0000      -6.036210      -164.2536
  21   2.0000      -6.033766      -164.1871
  22   2.0000      -6.032548      -164.1540
  23   2.0000      -6.028543      -164.0450
  24   2.0000      -1.008135       -27.4328
  25   2.0000      -0.985948       -26.8290
  26   2.0000      -0.907064       -24.6825
  27   2.0000      -0.903911       -24.5967
  28   2.0000      -0.868345       -23.6289
  29   2.0000      -0.852294       -23.1921
  30   2.0000      -0.852073       -23.1861
  31   2.0000      -0.815325       -22.1861
  32   2.0000      -0.783395       -21.3173
  33   2.0000      -0.772266       -21.0144
  34   2.0000      -0.706122       -19.2146
  35   2.0000      -0.697927       -18.9916
  36   2.0000      -0.688534       -18.7360
  37   2.0000      -0.663786       -18.0625
  38   2.0000      -0.641435       -17.4543
  39   2.0000      -0.612523       -16.6676
  40   2.0000      -0.595006       -16.1909
  41   2.0000      -0.564453       -15.3595
  42   2.0000      -0.559380       -15.2215
  43   2.0000      -0.549354       -14.9487
  44   2.0000      -0.544021       -14.8036
  45   2.0000      -0.523253       -14.2384
  46   2.0000      -0.516551       -14.0561
  47   2.0000      -0.513561       -13.9747
  48   2.0000      -0.504035       -13.7155
  49   2.0000      -0.492563       -13.4033
  50   2.0000      -0.487783       -13.2732
  51   2.0000      -0.477059       -12.9814
  52   2.0000      -0.469734       -12.7821
  53   2.0000      -0.462453       -12.5840
  54   2.0000      -0.459099       -12.4927
  55   2.0000      -0.450620       -12.2620
  56   2.0000      -0.445929       -12.1343
  57   2.0000      -0.439455       -11.9582
  58   2.0000      -0.431274       -11.7356
  59   2.0000      -0.430263       -11.7081
  60   2.0000      -0.419839       -11.4244
  61   2.0000      -0.415653       -11.3105
  62   2.0000      -0.409420       -11.1409
  63   2.0000      -0.338289        -9.2053
  64   2.0000      -0.330043        -8.9809
  65   2.0000      -0.318338        -8.6624
  66   2.0000      -0.314041        -8.5455
  67   0.0000       0.048777         1.3273
  68   0.0000       0.052126         1.4184
  69   0.0000       0.106952         2.9103
  70   0.0000       0.111848         3.0435
  71   0.0000       0.124951         3.4001

MULLIKEN ATOMIC CHARGES
-----------------------
   0 S :    0.122446
   1 C :   -0.084840
   2 C :   -0.112376
   3 C :    0.061828
   4 C :   -0.171165
   5 H :    0.015119
   6 C :    0.035063
   7 H :    0.030216
   8 H :    0.036866
   9 C :   -0.045429
  10 H :    0.043837
  11 H :    0.035477
  12 C :   -0.054552
  13 H :    0.004751
  14 H :    0.048232
  15 H :    0.013734
  16 S :    0.106007
  17 C :   -0.102490
  18 C :   -0.026494
  19 C :   -0.023685
  20 C :   -0.212834
  21 H :    0.025465
  22 C :    0.106865
  23 H :    0.020393
  24 H :    0.016252
  25 C :   -0.107304
  26 H :    0.022949
  27 H :    0.029387
  28 C :   -0.011811
  29 H :    0.025458
  30 H :    0.030685
  31 H :    0.028151
  32 H :    0.030494
  33 H :    0.063306
Sum of atomic charges:   -0.0000000

LOEWDIN ATOMIC CHARGES
----------------------
   0 S :    0.411362
   1 C :   -0.207518
   2 C :   -0.071183
   3 C :   -0.051926
   4 C :   -0.190250
   5 H :    0.034462
   6 C :   -0.030683
   7 H :    0.030987
   8 H :    0.038282
   9 C :   -0.036733
  10 H :    0.035384
  11 H :    0.020999
  12 C :   -0.074475
  13 H :    0.023449
  14 H :    0.032516
  15 H :    0.011356
  16 S :    0.395282
  17 C :   -0.175881
  18 C :   -0.070563
  19 C :   -0.051283
  20 C :   -0.201642
  21 H :    0.035601
  22 C :   -0.026932
  23 H :    0.030936
  24 H :    0.023481
  25 C :   -0.048130
  26 H :    0.018490
  27 H :    0.025437
  28 C :   -0.063189
  29 H :    0.023134
  30 H :    0.027814
  31 H :    0.025279
  32 H :    0.028067
  33 H :    0.028072

  Mayer bond orders larger than 0.100000
B(  0-S ,  1-C ) :   1.1197 B(  0-S ,  4-C ) :   1.1466 B(  1-C ,  2-C ) :   1.6685
B(  1-C , 32-H ) :   0.9560 B(  2-C ,  3-C ) :   1.1974 B(  2-C ,  6-C ) :   1.0058
B(  3-C ,  4-C ) :   1.6252 B(  3-C ,  5-H ) :   0.9968 B(  4-C , 20-C ) :   0.9881
B(  6-C ,  7-H ) :   0.9428 B(  6-C ,  8-H ) :   0.9476 B(  6-C ,  9-C ) :   1.0605
B(  9-C , 10-H ) :   0.9604 B(  9-C , 11-H ) :   0.9595 B(  9-C , 12-C ) :   1.0588
B( 12-C , 13-H ) :   0.9712 B( 12-C , 14-H ) :   0.9753 B( 12-C , 15-H ) :   0.9766
B( 16-S , 17-C ) :   1.1519 B( 16-S , 20-C ) :   1.1417 B( 17-C , 18-C ) :   1.6357
B( 17-C , 33-H ) :   0.9645 B( 18-C , 19-C ) :   1.1951 B( 18-C , 21-H ) :   0.9891
B( 19-C , 20-C ) :   1.6455 B( 19-C , 22-C ) :   1.0668 B( 22-C , 23-H ) :   0.9301
B( 22-C , 24-H ) :   0.9230 B( 22-C , 25-C ) :   1.0540 B( 25-C , 26-H ) :   0.9454
B( 25-C , 27-H ) :   0.9592 B( 25-C , 28-C ) :   1.0927 B( 28-C , 29-H ) :   0.9729
B( 28-C , 30-H ) :   0.9723 B( 28-C , 31-H ) :   0.9696

Dispersion correction           -0.014887567
FINAL SINGLE POINT ENERGY     -1339.874537723232

DIPOLE MOMENT
-------------
                                X             Y             Z
Electronic contribution:     -3.13561       7.82645      23.25619
Nuclear contribution   :      3.03517      -7.81531     -23.72699
                        -----------------------------------------
Total Dipole Moment    :     -0.10045       0.01114      -0.47079
                        -----------------------------------------
Magnitude (a.u.)       :      0.48152
Magnitude (Debye)      :      1.22392

Rotational constants in cm-1:     0.018735     0.008780     0.007102
Rotational constants in MHz :   561.674996   263.222965   212.908619

                             ****ORCA TERMINATED NORMALLY****
TOTAL RUN TIME: 0 days 0 hours 0 minutes 21 seconds 630 msec
