                         Program Version 4.2.1 -  RELEASE  -
|  1> ! wB97X-D3 SP def2-SVP
|  2> %pal
|  3> nprocs 24
|  4> end
|  5>
|  6> * xyz 0 1
|  7> S 	 -52.5516 	 16.779 	 -86.8089
|  8> C 	 -53.6728 	 17.0094 	 -88.1166
|  9> C 	 -54.668 	 17.9181 	 -87.7999
| 10> C 	 -54.3938 	 18.5514 	 -86.5413
| 11> C 	 -53.3581 	 17.9624 	 -85.8687
| 12> H 	 -55.036 	 19.2538 	 -86.0006
| 13> C 	 -55.8811 	 18.1254 	 -88.6882
| 14> H 	 -56.765 	 18.4328 	 -88.0165
| 15> H 	 -56.0792 	 17.2046 	 -89.1849
| 16> C 	 -55.612 	 19.2259 	 -89.7771
| 17> H 	 -55.1899 	 20.0731 	 -89.2308
| 18> H 	 -54.7216 	 18.8456 	 -90.3855
| 19> C 	 -56.7931 	 19.6869 	 -90.7257
| 20> H 	 -57.5811 	 20.1395 	 -90.1717
| 21> H 	 -56.3784 	 20.461 	 -91.3706
| 22> H 	 -57.1879 	 18.8565 	 -91.3892
| 23> S 	 -52.7881 	 16.485 	 -83.6161
| 24> C 	 -52.1424 	 17.2307 	 -82.1373
| 25> C 	 -52.3326 	 18.6042 	 -82.2225
| 26> C 	 -52.7472 	 19.0666 	 -83.5184
| 27> C 	 -52.9579 	 18.0322 	 -84.4015
| 28> H 	 -52.1298 	 19.1751 	 -81.2996
| 29> C 	 -52.861 	 20.5602 	 -83.7552
| 30> H 	 -53.5576 	 20.9286 	 -82.9655
| 31> H 	 -53.3621 	 20.6793 	 -84.7447
| 32> C 	 -51.5947 	 21.3452 	 -83.7799
| 33> H 	 -50.9346 	 20.9334 	 -84.6018
| 34> H 	 -51.0335 	 21.2326 	 -82.8751
| 35> C 	 -51.7375 	 22.8414 	 -83.9304
| 36> H 	 -50.789 	 23.2748 	 -84.163
| 37> H 	 -52.1918 	 23.2266 	 -83.015
| 38> H 	 -52.3984 	 23.1823 	 -84.7944
| 39> H 	 -53.5016 	 16.4934 	 -89.0426
| 40> H 	 -51.9885 	 16.7755 	 -81.1929
| 41> *
| 42>
| 43>                          ****END OF INPUT****

CARTESIAN COORDINATES (ANGSTROEM)
---------------------------------
  S    -52.551600   16.779000  -86.808900
  C    -53.672800   17.009400  -88.116600
  C    -54.668000   17.918100  -87.799900
  C    -54.393800   18.551400  -86.541300
  C    -53.358100   17.962400  -85.868700
  H    -55.036000   19.253800  -86.000600
  C    -55.881100   18.125400  -88.688200
  H    -56.765000   18.432800  -88.016500
  H    -56.079200   17.204600  -89.184900
  C    -55.612000   19.225900  -89.777100
  H    -55.189900   20.073100  -89.230800
  H    -54.721600   18.845600  -90.385500
  C    -56.793100   19.686900  -90.725700
  H    -57.581100   20.139500  -90.171700
  H    -56.378400   20.461000  -91.370600
  H    -57.187900   18.856500  -91.389200
  S    -52.788100   16.485000  -83.616100
  C    -52.142400   17.230700  -82.137300
  C    -52.332600   18.604200  -82.222500
  C    -52.747200   19.066600  -83.518400
  C    -52.957900   18.032200  -84.401500
  H    -52.129800   19.175100  -81.299600
  C    -52.861000   20.560200  -83.755200
  H    -53.557600   20.928600  -82.965500
  H    -53.362100   20.679300  -84.744700
  C    -51.594700   21.345200  -83.779900
  H    -50.934600   20.933400  -84.601800
  H    -51.033500   21.232600  -82.875100
  C    -51.737500   22.841400  -83.930400
  H    -50.789000   23.274800  -84.163000
  H    -52.191800   23.226600  -83.015000
  H    -52.398400   23.182300  -84.794400
  H    -53.501600   16.493400  -89.042600
  H    -51.988500   16.775500  -81.192900

 Total Charge           Charge          ....    0
 Multiplicity           Mult            ....    1
 Number of Electrons    NEL             ....  134
 Basis Dimension        Dim             ....  322

ORBITAL ENERGIES
----------------

  NO   OCC          E(Eh)            E(eV)
   0   2.0000     -88.964877     -2420.8574
   1   2.0000     -88.964560     -2420.8488
   2   2.0000     -10.331985      -281.1476
   3   2.0000     -10.331270      -281.1282
   4   2.0000     -10.314869      -280.6819
   5   2.0000     -10.311380      -280.5869
   6   2.0000     -10.304956      -280.4121
   7   2.0000     -10.302505      -280.3454
   8   2.0000     -10.298788      -280.2443
   9   2.0000     -10.297312      -280.2041
  10   2.0000     -10.296470      -280.1812
  11   2.0000     -10.296453      -280.1807
  12   2.0000     -10.293302      -280.0950
  13   2.0000     -10.286109      -279.8993
  14   2.0000     -10.282084      -279.7897
  15   2.0000     -10.278721      -279.6982
  16   2.0000      -8.080685      -219.8866
  17   2.0000      -8.078903      -219.8381
  18   2.0000      -6.039025      -164.3302
  19   2.0000      -6.037528      -164.2895
  20   2.0000      -6.034917      -164.2184
  21   2.0000      -6.033471      -164.1791
  22   2.0000      -6.031663      -164.1299
  23   2.0000      -6.029514      -164.0714
  24   2.0000      -1.010002       -27.4835
  25   2.0000      -0.985732       -26.8231
  26   2.0000      -0.913374       -24.8542
  27   2.0000      -0.903953       -24.5978
  28   2.0000      -0.861721       -23.4486
  29   2.0000      -0.852265       -23.1913
  30   2.0000      -0.844382       -22.9768
  31   2.0000      -0.818811       -22.2810
  32   2.0000      -0.780969       -21.2512
  33   2.0000      -0.772288       -21.0150
  34   2.0000      -0.699575       -19.0364
  35   2.0000      -0.693874       -18.8813
  36   2.0000      -0.690261       -18.7830
  37   2.0000      -0.659710       -17.9516
  38   2.0000      -0.646723       -17.5982
  39   2.0000      -0.620491       -16.8844
  40   2.0000      -0.592363       -16.1190
  41   2.0000      -0.569263       -15.4904
  42   2.0000      -0.564747       -15.3675
  43   2.0000      -0.554772       -15.0961
  44   2.0000      -0.525555       -14.3011
  45   2.0000      -0.520543       -14.1647
  46   2.0000      -0.518383       -14.1059
  47   2.0000      -0.509933       -13.8760
  48   2.0000      -0.508355       -13.8330
  49   2.0000      -0.493954       -13.4412
  50   2.0000      -0.491048       -13.3621
  51   2.0000      -0.484007       -13.1705
  52   2.0000      -0.469934       -12.7876
  53   2.0000      -0.464612       -12.6427
  54   2.0000      -0.461112       -12.5475
  55   2.0000      -0.448653       -12.2085
  56   2.0000      -0.443103       -12.0575
  57   2.0000      -0.434274       -11.8172
  58   2.0000      -0.429991       -11.7007
  59   2.0000      -0.425832       -11.5875
  60   2.0000      -0.420477       -11.4418
  61   2.0000      -0.416103       -11.3227
  62   2.0000      -0.412571       -11.2266
  63   2.0000      -0.350252        -9.5309
  64   2.0000      -0.332846        -9.0572
  65   2.0000      -0.326827        -8.8934
  66   2.0000      -0.294272        -8.0075
  67   0.0000       0.033875         0.9218
  68   0.0000       0.070071         1.9067
  69   0.0000       0.105551         2.8722
  70   0.0000       0.125690         3.4202
  71   0.0000       0.126760         3.4493

MULLIKEN ATOMIC CHARGES
-----------------------
   0 S :    0.116359
   1 C :   -0.127054
   2 C :   -0.102900
   3 C :    0.043237
   4 C :   -0.157913
   5 H :    0.020147
   6 C :    0.076378
   7 H :    0.040186
   8 H :    0.022472
   9 C :   -0.123490
  10 H :    0.028260
  11 H :    0.032616
  12 C :   -0.033118
  13 H :    0.031396
  14 H :    0.038316
  15 H :    0.045976
  16 S :    0.095663
  17 C :   -0.080143
  18 C :   -0.067395
  19 C :   -0.030759
  20 C :   -0.145603
  21 H :    0.033230
  22 C :    0.066831
  23 H :    0.032223
  24 H :    0.016108
  25 C :   -0.077733
  26 H :    0.037980
  27 H :    0.019105
  28 C :   -0.040167
  29 H :    0.033161
  30 H :    0.030621
  31 H :    0.029303
  32 H :    0.047881
  33 H :    0.048826
Sum of atomic charges:   -0.0000000

LOEWDIN ATOMIC CHARGES
----------------------
   0 S :    0.429068
   1 C :   -0.198502
   2 C :   -0.060040
   3 C :   -0.070734
   4 C :   -0.199911
   5 H :    0.034313
   6 C :   -0.031763
   7 H :    0.038402
   8 H :    0.024982
   9 C :   -0.047571
  10 H :    0.022268
  11 H :    0.028531
  12 C :   -0.068547
  13 H :    0.020086
  14 H :    0.030140
  15 H :    0.033189
  16 S :    0.395488
  17 C :   -0.181534
  18 C :   -0.067715
  19 C :   -0.067442
  20 C :   -0.194494
  21 H :    0.036009
  22 C :   -0.036521
  23 H :    0.035143
  24 H :    0.031486
  25 C :   -0.048247
  26 H :    0.033074
  27 H :    0.020079
  28 C :   -0.064379
  29 H :    0.024934
  30 H :    0.024402
  31 H :    0.028243
  32 H :    0.022811
  33 H :    0.024752

  Mayer bond orders larger than 0.100000
B(  0-S ,  1-C ) :   1.1454 B(  0-S ,  4-C ) :   1.1800 B(  1-C ,  2-C ) :   1.5975
B(  1-C , 32-H ) :   0.9742 B(  2-C ,  3-C ) :   1.2426 B(  2-C ,  6-C ) :   1.0234
B(  3-C ,  4-C ) :   1.5837 B(  3-C ,  5-H ) :   0.9859 B(  4-C , 20-C ) :   0.9802
B(  6-C ,  7-H ) :   0.9425 B(  6-C ,  8-H ) :   0.9411 B(  6-C ,  9-C ) :   1.0520
B(  9-C , 10-H ) :   0.9600 B(  9-C , 11-H ) :   0.9582 B(  9-C , 12-C ) :   1.0692
B( 12-C , 13-H ) :   0.9761 B( 12-C , 14-H ) :   0.9742 B( 12-C , 15-H ) :   0.9759
B( 16-S , 17-C ) :   1.1320 B( 16-S , 20-C ) :   1.1514 B( 17-C , 18-C ) :   1.6382
B( 17-C , 33-H ) :   0.9681 B( 18-C , 19-C ) :   1.2198 B( 18-C , 21-H ) :   0.9826
B( 19-C , 20-C ) :   1.6245 B( 19-C , 22-C ) :   1.0423 B( 22-C , 23-H ) :   0.9308
B( 22-C , 24-H ) :   0.9269 B( 22-C , 25-C ) :   1.0823 B( 25-C , 26-H ) :   0.9489
B( 25-C , 27-H ) :   0.9507 B( 25-C , 28-C ) :   1.0885 B( 28-C , 29-H ) :   0.9728
B( 28-C , 30-H ) :   0.9734 B( 28-C , 31-H ) :   0.9734

Dispersion correction           -0.013266647
FINAL SINGLE POINT ENERGY     -1339.884023295200

DIPOLE MOMENT
-------------
                                X             Y             Z
Electronic contribution:      8.71964     -24.66825      11.22923
Nuclear contribution   :     -9.02297      25.15611     -11.25803
                        -----------------------------------------
Total Dipole Moment    :     -0.30333       0.48786      -0.02880
                        -----------------------------------------
Magnitude (a.u.)       :      0.57519
Magnitude (Debye)      :      1.46201

Rotational constants in cm-1:     0.018315     0.007690     0.005911
Rotational constants in MHz :   549.079359   230.525555   177.210420

                             ****ORCA TERMINATED NORMALLY****
TOTAL RUN TIME: 0 days 0 hours 0 minutes 20 seconds 556 msec
