                         Program Version 4.2.1 -  RELEASE  -
|  1> ! wB97X-D3 SP def2-SVP
|  2> %pal
|  3> nprocs 24
|  4> end
|  5>
|  6> * xyz 0 1
|  7> S 	 -49.612 	 28.4248 	 25.8918
|  8> C 	 -48.3001 	 29.4729 	 25.4989
|  9> C 	 -47.7688 	 30.119 	 26.6062
| 10> C 	 -48.5164 	 29.8138 	 27.7775
| 11> C 	 -49.4967 	 28.8624 	 27.5883
| 12> H 	 -48.1964 	 29.9644 	 28.7494
| 13> C 	 -46.5128 	 30.9754 	 26.6664
| 14> H 	 -45.7366 	 30.4608 	 27.3135
| 15> H 	 -46.7316 	 31.806 	 27.3499
| 16> C 	 -45.9717 	 31.3233 	 25.2807
| 17> H 	 -45.6594 	 30.3874 	 24.749
| 18> H 	 -46.7797 	 31.7642 	 24.6752
| 19> C 	 -44.7699 	 32.2664 	 25.2223
| 20> H 	 -44.1992 	 32.3131 	 24.2529
| 21> H 	 -45.0087 	 33.2407 	 25.7034
| 22> H 	 -43.955 	 31.9634 	 25.8213
| 23> S 	 -49.9887 	 26.4509 	 28.8228
| 24> C 	 -50.6439 	 26.4515 	 30.4379
| 25> C 	 -51.1908 	 27.6852 	 30.7688
| 26> C 	 -50.8445 	 28.6789 	 29.8282
| 27> C 	 -50.2212 	 28.176 	 28.6877
| 28> H 	 -51.6046 	 27.8137 	 31.7471
| 29> C 	 -51.1112 	 30.1496 	 30.0109
| 30> H 	 -50.9632 	 30.7874 	 29.0958
| 31> H 	 -50.3443 	 30.5648 	 30.6255
| 32> C 	 -52.4027 	 30.4972 	 30.7028
| 33> H 	 -52.4323 	 29.8504 	 31.58
| 34> H 	 -53.253 	 30.2043 	 30.1176
| 35> C 	 -52.4413 	 31.9873 	 30.9977
| 36> H 	 -52.995 	 32.1676 	 31.9312
| 37> H 	 -52.9448 	 32.487 	 30.2298
| 38> H 	 -51.4841 	 32.4436 	 31.1935
| 39> H 	 -47.9235 	 29.4793 	 24.4539
| 40> H 	 -50.7151 	 25.5523 	 31.0697
| 41> *
| 42>
| 43>                          ****END OF INPUT****

CARTESIAN COORDINATES (ANGSTROEM)
---------------------------------
  S    -49.612000   28.424800   25.891800
  C    -48.300100   29.472900   25.498900
  C    -47.768800   30.119000   26.606200
  C    -48.516400   29.813800   27.777500
  C    -49.496700   28.862400   27.588300
  H    -48.196400   29.964400   28.749400
  C    -46.512800   30.975400   26.666400
  H    -45.736600   30.460800   27.313500
  H    -46.731600   31.806000   27.349900
  C    -45.971700   31.323300   25.280700
  H    -45.659400   30.387400   24.749000
  H    -46.779700   31.764200   24.675200
  C    -44.769900   32.266400   25.222300
  H    -44.199200   32.313100   24.252900
  H    -45.008700   33.240700   25.703400
  H    -43.955000   31.963400   25.821300
  S    -49.988700   26.450900   28.822800
  C    -50.643900   26.451500   30.437900
  C    -51.190800   27.685200   30.768800
  C    -50.844500   28.678900   29.828200
  C    -50.221200   28.176000   28.687700
  H    -51.604600   27.813700   31.747100
  C    -51.111200   30.149600   30.010900
  H    -50.963200   30.787400   29.095800
  H    -50.344300   30.564800   30.625500
  C    -52.402700   30.497200   30.702800
  H    -52.432300   29.850400   31.580000
  H    -53.253000   30.204300   30.117600
  C    -52.441300   31.987300   30.997700
  H    -52.995000   32.167600   31.931200
  H    -52.944800   32.487000   30.229800
  H    -51.484100   32.443600   31.193500
  H    -47.923500   29.479300   24.453900
  H    -50.715100   25.552300   31.069700

 Total Charge           Charge          ....    0
 Multiplicity           Mult            ....    1
 Number of Electrons    NEL             ....  134
 Basis Dimension        Dim             ....  322

ORBITAL ENERGIES
----------------

  NO   OCC          E(Eh)            E(eV)
   0   2.0000     -88.965392     -2420.8714
   1   2.0000     -88.964752     -2420.8540
   2   2.0000     -10.329403      -281.0773
   3   2.0000     -10.324504      -280.9440
   4   2.0000     -10.320334      -280.8306
   5   2.0000     -10.313793      -280.6526
   6   2.0000     -10.302313      -280.3402
   7   2.0000     -10.302193      -280.3369
   8   2.0000     -10.300812      -280.2993
   9   2.0000     -10.294093      -280.1165
  10   2.0000     -10.293798      -280.1085
  11   2.0000     -10.285173      -279.8738
  12   2.0000     -10.284034      -279.8428
  13   2.0000     -10.280635      -279.7503
  14   2.0000     -10.278731      -279.6985
  15   2.0000     -10.271201      -279.4936
  16   2.0000      -8.080517      -219.8820
  17   2.0000      -8.079825      -219.8632
  18   2.0000      -6.038971      -164.3288
  19   2.0000      -6.038206      -164.3079
  20   2.0000      -6.034952      -164.2194
  21   2.0000      -6.034262      -164.2006
  22   2.0000      -6.031353      -164.1215
  23   2.0000      -6.030713      -164.1040
  24   2.0000      -1.007070       -27.4038
  25   2.0000      -0.986649       -26.8481
  26   2.0000      -0.915770       -24.9194
  27   2.0000      -0.910043       -24.7635
  28   2.0000      -0.866010       -23.5653
  29   2.0000      -0.855461       -23.2783
  30   2.0000      -0.849967       -23.1288
  31   2.0000      -0.813788       -22.1443
  32   2.0000      -0.782095       -21.2819
  33   2.0000      -0.769771       -20.9465
  34   2.0000      -0.712462       -19.3871
  35   2.0000      -0.705818       -19.2063
  36   2.0000      -0.687731       -18.7141
  37   2.0000      -0.658704       -17.9242
  38   2.0000      -0.644599       -17.5404
  39   2.0000      -0.614430       -16.7195
  40   2.0000      -0.601124       -16.3574
  41   2.0000      -0.570448       -15.5227
  42   2.0000      -0.567204       -15.4344
  43   2.0000      -0.562874       -15.3166
  44   2.0000      -0.528646       -14.3852
  45   2.0000      -0.524404       -14.2698
  46   2.0000      -0.515997       -14.0410
  47   2.0000      -0.511337       -13.9142
  48   2.0000      -0.496962       -13.5230
  49   2.0000      -0.494695       -13.4613
  50   2.0000      -0.492577       -13.4037
  51   2.0000      -0.483302       -13.1513
  52   2.0000      -0.471869       -12.8402
  53   2.0000      -0.467227       -12.7139
  54   2.0000      -0.456721       -12.4280
  55   2.0000      -0.452570       -12.3151
  56   2.0000      -0.447561       -12.1788
  57   2.0000      -0.440326       -11.9819
  58   2.0000      -0.433047       -11.7838
  59   2.0000      -0.430096       -11.7035
  60   2.0000      -0.421837       -11.4788
  61   2.0000      -0.415209       -11.2984
  62   2.0000      -0.407750       -11.0954
  63   2.0000      -0.348391        -9.4802
  64   2.0000      -0.330073        -8.9817
  65   2.0000      -0.327066        -8.8999
  66   2.0000      -0.290968        -7.9176
  67   0.0000       0.034839         0.9480
  68   0.0000       0.068343         1.8597
  69   0.0000       0.118500         3.2245
  70   0.0000       0.125285         3.4092
  71   0.0000       0.133337         3.6283

MULLIKEN ATOMIC CHARGES
-----------------------
   0 S :    0.114803
   1 C :   -0.163208
   2 C :   -0.078850
   3 C :    0.053329
   4 C :   -0.156658
   5 H :   -0.006722
   6 C :    0.058396
   7 H :    0.040900
   8 H :    0.026269
   9 C :   -0.102807
  10 H :    0.040913
  11 H :    0.043124
  12 C :   -0.028907
  13 H :    0.042251
  14 H :    0.032123
  15 H :    0.004603
  16 S :    0.109516
  17 C :   -0.114190
  18 C :   -0.034790
  19 C :   -0.019557
  20 C :   -0.146188
  21 H :    0.021732
  22 C :    0.043775
  23 H :    0.035754
  24 H :    0.014994
  25 C :   -0.078888
  26 H :    0.020889
  27 H :    0.029239
  28 C :   -0.012436
  29 H :    0.025747
  30 H :    0.030384
  31 H :    0.020618
  32 H :    0.066797
  33 H :    0.067044
Sum of atomic charges:   -0.0000000

LOEWDIN ATOMIC CHARGES
----------------------
   0 S :    0.410698
   1 C :   -0.215302
   2 C :   -0.061636
   3 C :   -0.058914
   4 C :   -0.187229
   5 H :    0.020664
   6 C :   -0.037331
   7 H :    0.041009
   8 H :    0.032680
   9 C :   -0.049065
  10 H :    0.031167
  11 H :    0.028527
  12 C :   -0.077380
  13 H :    0.037250
  14 H :    0.029181
  15 H :    0.016883
  16 S :    0.413817
  17 C :   -0.184030
  18 C :   -0.075533
  19 C :   -0.053298
  20 C :   -0.204321
  21 H :    0.030109
  22 C :   -0.038955
  23 H :    0.035739
  24 H :    0.025537
  25 C :   -0.038005
  26 H :    0.019241
  27 H :    0.023883
  28 C :   -0.057657
  29 H :    0.030662
  30 H :    0.021986
  31 H :    0.022538
  32 H :    0.033293
  33 H :    0.033791

  Mayer bond orders larger than 0.100000
B(  0-S ,  1-C ) :   1.1388 B(  0-S ,  4-C ) :   1.1576 B(  1-C ,  2-C ) :   1.6110
B(  1-C , 32-H ) :   0.9594 B(  2-C ,  3-C ) :   1.2535 B(  2-C ,  6-C ) :   1.0161
B(  3-C ,  4-C ) :   1.5802 B(  3-C ,  5-H ) :   0.9965 B(  4-C , 20-C ) :   1.0147
B(  6-C ,  7-H ) :   0.9294 B(  6-C ,  8-H ) :   0.9372 B(  6-C ,  9-C ) :   1.0727
B(  9-C , 10-H ) :   0.9458 B(  9-C , 11-H ) :   0.9565 B(  9-C , 12-C ) :   1.0868
B( 12-C , 13-H ) :   0.9718 B( 12-C , 14-H ) :   0.9727 B( 12-C , 15-H ) :   0.9678
B( 16-S , 17-C ) :   1.1810 B( 16-S , 20-C ) :   1.1421 B( 17-C , 18-C ) :   1.5891
B( 17-C , 33-H ) :   0.9624 B( 18-C , 19-C ) :   1.2486 B( 18-C , 21-H ) :   0.9902
B( 19-C , 20-C ) :   1.5940 B( 19-C , 22-C ) :   1.0361 B( 22-C , 23-H ) :   0.9376
B( 22-C , 24-H ) :   0.9231 B( 22-C , 25-C ) :   1.0648 B( 25-C , 26-H ) :   0.9530
B( 25-C , 27-H ) :   0.9579 B( 25-C , 28-C ) :   1.0795 B( 28-C , 29-H ) :   0.9720
B( 28-C , 30-H ) :   0.9755 B( 28-C , 31-H ) :   0.9746

Dispersion correction           -0.013354133
FINAL SINGLE POINT ENERGY     -1339.880338500323

DIPOLE MOMENT
-------------
                                X             Y             Z
Electronic contribution:     -7.45156     -25.19426      -4.85522
Nuclear contribution   :      7.81336      25.58104       5.31391
                        -----------------------------------------
Total Dipole Moment    :      0.36180       0.38678       0.45870
                        -----------------------------------------
Magnitude (a.u.)       :      0.70064
Magnitude (Debye)      :      1.78089

Rotational constants in cm-1:     0.019217     0.007332     0.005954
Rotational constants in MHz :   576.101418   219.803109   178.482036

                             ****ORCA TERMINATED NORMALLY****
TOTAL RUN TIME: 0 days 0 hours 0 minutes 20 seconds 654 msec
