                         Program Version 4.2.1 -  RELEASE  -
|  1> ! wB97X-D3 SP def2-SVP
|  2> %pal
|  3> nprocs 24
|  4> end
|  5>
|  6> * xyz 0 1
|  7> S 	 -107.798 	 62.9936 	 -13.8282
|  8> C 	 -109.285 	 63.8187 	 -13.5528
|  9> C 	 -110.361 	 62.8777 	 -13.596
| 10> C 	 -109.908 	 61.6053 	 -14.0586
| 11> C 	 -108.554 	 61.4823 	 -14.2423
| 12> H 	 -110.573 	 60.7631 	 -14.2237
| 13> C 	 -111.805 	 63.1839 	 -13.3167
| 14> H 	 -112.448 	 62.7261 	 -14.0871
| 15> H 	 -111.955 	 64.2904 	 -13.4137
| 16> C 	 -112.223 	 62.783 	 -11.9064
| 17> H 	 -113.344 	 62.8946 	 -11.9376
| 18> H 	 -112.08 	 61.7889 	 -11.6769
| 19> C 	 -111.56 	 63.7135 	 -10.8536
| 20> H 	 -112.043 	 63.6008 	 -9.86538
| 21> H 	 -110.567 	 63.4385 	 -10.8464
| 22> H 	 -111.689 	 64.7037 	 -11.2315
| 23> S 	 -106.524 	 59.6525 	 -13.6569
| 24> C 	 -106.249 	 58.283 	 -14.7161
| 25> C 	 -107.114 	 58.3952 	 -15.7843
| 26> C 	 -108.018 	 59.4998 	 -15.7396
| 27> C 	 -107.84 	 60.332 	 -14.6825
| 28> H 	 -106.918 	 57.7832 	 -16.627
| 29> C 	 -109.061 	 59.7238 	 -16.9043
| 30> H 	 -110.01 	 60.1932 	 -16.5574
| 31> H 	 -109.391 	 58.7337 	 -17.2249
| 32> C 	 -108.514 	 60.5799 	 -18.1223
| 33> H 	 -109.124 	 60.3443 	 -18.9875
| 34> H 	 -107.458 	 60.449 	 -18.3832
| 35> C 	 -108.807 	 62.0362 	 -17.8972
| 36> H 	 -108.387 	 62.5851 	 -17.0615
| 37> H 	 -109.846 	 62.0434 	 -17.7668
| 38> H 	 -108.489 	 62.5689 	 -18.7584
| 39> H 	 -109.326 	 64.9093 	 -13.354
| 40> H 	 -105.39 	 57.6618 	 -14.6678
| 41> *
| 42>
| 43>                          ****END OF INPUT****

CARTESIAN COORDINATES (ANGSTROEM)
---------------------------------
  S    -107.798000   62.993600  -13.828200
  C    -109.285000   63.818700  -13.552800
  C    -110.361000   62.877700  -13.596000
  C    -109.908000   61.605300  -14.058600
  C    -108.554000   61.482300  -14.242300
  H    -110.573000   60.763100  -14.223700
  C    -111.805000   63.183900  -13.316700
  H    -112.448000   62.726100  -14.087100
  H    -111.955000   64.290400  -13.413700
  C    -112.223000   62.783000  -11.906400
  H    -113.344000   62.894600  -11.937600
  H    -112.080000   61.788900  -11.676900
  C    -111.560000   63.713500  -10.853600
  H    -112.043000   63.600800   -9.865380
  H    -110.567000   63.438500  -10.846400
  H    -111.689000   64.703700  -11.231500
  S    -106.524000   59.652500  -13.656900
  C    -106.249000   58.283000  -14.716100
  C    -107.114000   58.395200  -15.784300
  C    -108.018000   59.499800  -15.739600
  C    -107.840000   60.332000  -14.682500
  H    -106.918000   57.783200  -16.627000
  C    -109.061000   59.723800  -16.904300
  H    -110.010000   60.193200  -16.557400
  H    -109.391000   58.733700  -17.224900
  C    -108.514000   60.579900  -18.122300
  H    -109.124000   60.344300  -18.987500
  H    -107.458000   60.449000  -18.383200
  C    -108.807000   62.036200  -17.897200
  H    -108.387000   62.585100  -17.061500
  H    -109.846000   62.043400  -17.766800
  H    -108.489000   62.568900  -18.758400
  H    -109.326000   64.909300  -13.354000
  H    -105.390000   57.661800  -14.667800

 Total Charge           Charge          ....    0
 Multiplicity           Mult            ....    1
 Number of Electrons    NEL             ....  134
 Basis Dimension        Dim             ....  322

ORBITAL ENERGIES
----------------

  NO   OCC          E(Eh)            E(eV)
   0   2.0000     -88.968452     -2420.9547
   1   2.0000     -88.959622     -2420.7144
   2   2.0000     -10.327065      -281.0137
   3   2.0000     -10.326706      -281.0040
   4   2.0000     -10.323216      -280.9090
   5   2.0000     -10.317010      -280.7401
   6   2.0000     -10.306634      -280.4578
   7   2.0000     -10.305095      -280.4159
   8   2.0000     -10.299671      -280.2683
   9   2.0000     -10.295822      -280.1636
  10   2.0000     -10.295023      -280.1418
  11   2.0000     -10.291415      -280.0436
  12   2.0000     -10.284956      -279.8679
  13   2.0000     -10.282431      -279.7992
  14   2.0000     -10.270342      -279.4702
  15   2.0000     -10.258991      -279.1613
  16   2.0000      -8.083459      -219.9621
  17   2.0000      -8.074009      -219.7050
  18   2.0000      -6.041861      -164.4074
  19   2.0000      -6.037714      -164.2945
  20   2.0000      -6.034516      -164.2075
  21   2.0000      -6.032666      -164.1572
  22   2.0000      -6.028489      -164.0435
  23   2.0000      -6.024689      -163.9401
  24   2.0000      -1.008975       -27.4556
  25   2.0000      -0.984223       -26.7821
  26   2.0000      -0.916688       -24.9443
  27   2.0000      -0.902392       -24.5553
  28   2.0000      -0.873879       -23.7795
  29   2.0000      -0.850758       -23.1503
  30   2.0000      -0.844368       -22.9764
  31   2.0000      -0.813249       -22.1296
  32   2.0000      -0.781040       -21.2532
  33   2.0000      -0.772291       -21.0151
  34   2.0000      -0.711294       -19.3553
  35   2.0000      -0.696649       -18.9568
  36   2.0000      -0.693068       -18.8593
  37   2.0000      -0.661350       -17.9962
  38   2.0000      -0.645249       -17.5581
  39   2.0000      -0.624436       -16.9918
  40   2.0000      -0.598180       -16.2773
  41   2.0000      -0.572318       -15.5736
  42   2.0000      -0.554271       -15.0825
  43   2.0000      -0.548150       -14.9159
  44   2.0000      -0.546780       -14.8786
  45   2.0000      -0.540825       -14.7166
  46   2.0000      -0.521391       -14.1878
  47   2.0000      -0.511638       -13.9224
  48   2.0000      -0.507515       -13.8102
  49   2.0000      -0.498729       -13.5711
  50   2.0000      -0.491229       -13.3670
  51   2.0000      -0.474230       -12.9045
  52   2.0000      -0.471479       -12.8296
  53   2.0000      -0.466980       -12.7072
  54   2.0000      -0.457173       -12.4403
  55   2.0000      -0.447030       -12.1643
  56   2.0000      -0.439207       -11.9514
  57   2.0000      -0.436218       -11.8701
  58   2.0000      -0.433035       -11.7835
  59   2.0000      -0.427328       -11.6282
  60   2.0000      -0.420131       -11.4324
  61   2.0000      -0.411432       -11.1956
  62   2.0000      -0.405329       -11.0296
  63   2.0000      -0.350456        -9.5364
  64   2.0000      -0.330996        -9.0069
  65   2.0000      -0.327667        -8.9163
  66   2.0000      -0.294384        -8.0106
  67   0.0000       0.028824         0.7843
  68   0.0000       0.064787         1.7629
  69   0.0000       0.115578         3.1450
  70   0.0000       0.121489         3.3059
  71   0.0000       0.129167         3.5148

MULLIKEN ATOMIC CHARGES
-----------------------
   0 S :    0.121781
   1 C :   -0.140426
   2 C :   -0.103299
   3 C :    0.034937
   4 C :   -0.160058
   5 H :    0.016681
   6 C :    0.030960
   7 H :    0.033706
   8 H :    0.026948
   9 C :   -0.063689
  10 H :    0.028214
  11 H :    0.013925
  12 C :   -0.012699
  13 H :    0.043622
  14 H :    0.033730
  15 H :    0.013628
  16 S :    0.078609
  17 C :   -0.080261
  18 C :   -0.029950
  19 C :   -0.026431
  20 C :   -0.138334
  21 H :    0.012155
  22 C :    0.054648
  23 H :    0.017001
  24 H :    0.020219
  25 C :   -0.052160
  26 H :    0.024480
  27 H :    0.034311
  28 C :   -0.021705
  29 H :    0.033921
  30 H :    0.006859
  31 H :    0.020607
  32 H :    0.071546
  33 H :    0.056522
Sum of atomic charges:   -0.0000000

LOEWDIN ATOMIC CHARGES
----------------------
   0 S :    0.430631
   1 C :   -0.213380
   2 C :   -0.064467
   3 C :   -0.057675
   4 C :   -0.204519
   5 H :    0.031958
   6 C :   -0.036569
   7 H :    0.032312
   8 H :    0.033336
   9 C :   -0.033042
  10 H :    0.026575
  11 H :    0.009974
  12 C :   -0.049832
  13 H :    0.031847
  14 H :    0.017003
  15 H :    0.018641
  16 S :    0.373353
  17 C :   -0.173989
  18 C :   -0.069902
  19 C :   -0.055944
  20 C :   -0.182268
  21 H :    0.026354
  22 C :   -0.026087
  23 H :    0.029380
  24 H :    0.026021
  25 C :   -0.032791
  26 H :    0.025496
  27 H :    0.023733
  28 C :   -0.059959
  29 H :    0.022683
  30 H :    0.015732
  31 H :    0.021008
  32 H :    0.037331
  33 H :    0.027057

  Mayer bond orders larger than 0.100000
B(  0-S ,  1-C ) :   1.1676 B(  0-S ,  4-C ) :   1.1530 B(  1-C ,  2-C ) :   1.5406
B(  1-C ,  4-C ) :   0.1073 B(  1-C , 32-H ) :   0.9692 B(  2-C ,  3-C ) :   1.2784
B(  2-C ,  6-C ) :   1.0301 B(  3-C ,  4-C ) :   1.5519 B(  3-C ,  5-H ) :   0.9924
B(  4-C , 20-C ) :   1.0454 B(  6-C ,  7-H ) :   0.9423 B(  6-C ,  8-H ) :   0.9446
B(  6-C ,  9-C ) :   1.0689 B(  9-C , 10-H ) :   0.9560 B(  9-C , 11-H ) :   0.9605
B(  9-C , 12-C ) :   1.0611 B( 12-C , 13-H ) :   0.9744 B( 12-C , 14-H ) :   0.9772
B( 12-C , 15-H ) :   0.9768 B( 16-S , 17-C ) :   1.1485 B( 16-S , 20-C ) :   1.1150
B( 17-C , 18-C ) :   1.6176 B( 17-C , 20-C ) :   0.1013 B( 17-C , 33-H ) :   0.9705
B( 18-C , 19-C ) :   1.2310 B( 18-C , 21-H ) :   0.9920 B( 19-C , 20-C ) :   1.6338
B( 19-C , 22-C ) :   1.0315 B( 22-C , 23-H ) :   0.9422 B( 22-C , 24-H ) :   0.9399
B( 22-C , 25-C ) :   1.0589 B( 25-C , 26-H ) :   0.9545 B( 25-C , 27-H ) :   0.9614
B( 25-C , 28-C ) :   1.0781 B( 28-C , 29-H ) :   0.9739 B( 28-C , 30-H ) :   0.9764
B( 28-C , 31-H ) :   0.9711

Dispersion correction           -0.015447666
FINAL SINGLE POINT ENERGY     -1339.876487305405

DIPOLE MOMENT
-------------
                                X             Y             Z
Electronic contribution:     19.68919      -6.83552       5.96337
Nuclear contribution   :    -20.19855       6.83844      -6.32864
                        -----------------------------------------
Total Dipole Moment    :     -0.50936       0.00292      -0.36527
                        -----------------------------------------
Magnitude (a.u.)       :      0.62680
Magnitude (Debye)      :      1.59321

Rotational constants in cm-1:     0.020922     0.008638     0.007454
Rotational constants in MHz :   627.225644   258.971031   223.454400

                             ****ORCA TERMINATED NORMALLY****
TOTAL RUN TIME: 0 days 0 hours 0 minutes 22 seconds 246 msec
