                         Program Version 4.2.1 -  RELEASE  -
|  1> ! wB97X-D3 SP def2-SVP
|  2> %pal
|  3> nprocs 24
|  4> end
|  5>
|  6> * xyz 0 1
|  7> S 	 -41.839 	 -51.9504 	 -72.8993
|  8> C 	 -40.5149 	 -53.006 	 -73.4358
|  9> C 	 -40.2496 	 -52.8086 	 -74.774
| 10> C 	 -41.1184 	 -51.8172 	 -75.3081
| 11> C 	 -41.9435 	 -51.2167 	 -74.3903
| 12> H 	 -41.1122 	 -51.4723 	 -76.3706
| 13> C 	 -39.267 	 -53.4725 	 -75.6559
| 14> H 	 -39.2193 	 -52.9666 	 -76.6478
| 15> H 	 -39.694 	 -54.4287 	 -75.8832
| 16> C 	 -37.886 	 -53.6774 	 -75.0227
| 17> H 	 -37.8558 	 -54.3417 	 -74.0628
| 18> H 	 -37.303 	 -54.2095 	 -75.7058
| 19> C 	 -37.0927 	 -52.4622 	 -74.69
| 20> H 	 -37.5559 	 -51.811 	 -73.874
| 21> H 	 -36.118 	 -52.745 	 -74.2747
| 22> H 	 -36.7718 	 -51.9077 	 -75.5541
| 23> S 	 -44.3059 	 -50.2081 	 -75.3133
| 24> C 	 -44.8628 	 -48.7038 	 -74.6474
| 25> C 	 -43.906 	 -48.154 	 -73.831
| 26> C 	 -42.6286 	 -48.8364 	 -73.8148
| 27> C 	 -42.7151 	 -50.0376 	 -74.5185
| 28> H 	 -44.0703 	 -47.2489 	 -73.197
| 29> C 	 -41.4179 	 -48.3782 	 -72.9338
| 30> H 	 -41.1627 	 -49.2308 	 -72.1612
| 31> H 	 -41.8371 	 -47.544 	 -72.32
| 32> C 	 -40.1937 	 -47.9336 	 -73.7773
| 33> H 	 -40.6023 	 -47.2021 	 -74.5398
| 34> H 	 -39.8082 	 -48.821 	 -74.1941
| 35> C 	 -39.0183 	 -47.4577 	 -72.9593
| 36> H 	 -38.1739 	 -47.3882 	 -73.5995
| 37> H 	 -38.7971 	 -48.2115 	 -72.1466
| 38> H 	 -39.2167 	 -46.4758 	 -72.5162
| 39> H 	 -40.0713 	 -53.8115 	 -72.8883
| 40> H 	 -45.8771 	 -48.2847 	 -74.7325
| 41> *
| 42>
| 43>                          ****END OF INPUT****

CARTESIAN COORDINATES (ANGSTROEM)
---------------------------------
  S    -41.839000  -51.950400  -72.899300
  C    -40.514900  -53.006000  -73.435800
  C    -40.249600  -52.808600  -74.774000
  C    -41.118400  -51.817200  -75.308100
  C    -41.943500  -51.216700  -74.390300
  H    -41.112200  -51.472300  -76.370600
  C    -39.267000  -53.472500  -75.655900
  H    -39.219300  -52.966600  -76.647800
  H    -39.694000  -54.428700  -75.883200
  C    -37.886000  -53.677400  -75.022700
  H    -37.855800  -54.341700  -74.062800
  H    -37.303000  -54.209500  -75.705800
  C    -37.092700  -52.462200  -74.690000
  H    -37.555900  -51.811000  -73.874000
  H    -36.118000  -52.745000  -74.274700
  H    -36.771800  -51.907700  -75.554100
  S    -44.305900  -50.208100  -75.313300
  C    -44.862800  -48.703800  -74.647400
  C    -43.906000  -48.154000  -73.831000
  C    -42.628600  -48.836400  -73.814800
  C    -42.715100  -50.037600  -74.518500
  H    -44.070300  -47.248900  -73.197000
  C    -41.417900  -48.378200  -72.933800
  H    -41.162700  -49.230800  -72.161200
  H    -41.837100  -47.544000  -72.320000
  C    -40.193700  -47.933600  -73.777300
  H    -40.602300  -47.202100  -74.539800
  H    -39.808200  -48.821000  -74.194100
  C    -39.018300  -47.457700  -72.959300
  H    -38.173900  -47.388200  -73.599500
  H    -38.797100  -48.211500  -72.146600
  H    -39.216700  -46.475800  -72.516200
  H    -40.071300  -53.811500  -72.888300
  H    -45.877100  -48.284700  -74.732500

 Total Charge           Charge          ....    0
 Multiplicity           Mult            ....    1
 Number of Electrons    NEL             ....  134
 Basis Dimension        Dim             ....  322

ORBITAL ENERGIES
----------------

  NO   OCC          E(Eh)            E(eV)
   0   2.0000     -88.965652     -2420.8785
   1   2.0000     -88.962907     -2420.8038
   2   2.0000     -10.322464      -280.8885
   3   2.0000     -10.317777      -280.7610
   4   2.0000     -10.316001      -280.7126
   5   2.0000     -10.310776      -280.5705
   6   2.0000     -10.306514      -280.4545
   7   2.0000     -10.303215      -280.3647
   8   2.0000     -10.296969      -280.1948
   9   2.0000     -10.296394      -280.1791
  10   2.0000     -10.293249      -280.0936
  11   2.0000     -10.289735      -279.9979
  12   2.0000     -10.289586      -279.9939
  13   2.0000     -10.282691      -279.8063
  14   2.0000     -10.277026      -279.6521
  15   2.0000     -10.275586      -279.6129
  16   2.0000      -8.081275      -219.9027
  17   2.0000      -8.077482      -219.7995
  18   2.0000      -6.039666      -164.3477
  19   2.0000      -6.036010      -164.2482
  20   2.0000      -6.035575      -164.2363
  21   2.0000      -6.032150      -164.1432
  22   2.0000      -6.031998      -164.1390
  23   2.0000      -6.028234      -164.0366
  24   2.0000      -1.014033       -27.5932
  25   2.0000      -0.982386       -26.7321
  26   2.0000      -0.921384       -25.0721
  27   2.0000      -0.902303       -24.5529
  28   2.0000      -0.872924       -23.7535
  29   2.0000      -0.849870       -23.1261
  30   2.0000      -0.847172       -23.0527
  31   2.0000      -0.809128       -22.0175
  32   2.0000      -0.787792       -21.4369
  33   2.0000      -0.769772       -20.9466
  34   2.0000      -0.706744       -19.2315
  35   2.0000      -0.700833       -19.0706
  36   2.0000      -0.682517       -18.5722
  37   2.0000      -0.656836       -17.8734
  38   2.0000      -0.637034       -17.3346
  39   2.0000      -0.607607       -16.5338
  40   2.0000      -0.587450       -15.9853
  41   2.0000      -0.576266       -15.6810
  42   2.0000      -0.566551       -15.4166
  43   2.0000      -0.557185       -15.1618
  44   2.0000      -0.545986       -14.8570
  45   2.0000      -0.519770       -14.1437
  46   2.0000      -0.514525       -14.0009
  47   2.0000      -0.513372       -13.9696
  48   2.0000      -0.503509       -13.7012
  49   2.0000      -0.501081       -13.6351
  50   2.0000      -0.489497       -13.3199
  51   2.0000      -0.474761       -12.9189
  52   2.0000      -0.469714       -12.7816
  53   2.0000      -0.464086       -12.6284
  54   2.0000      -0.457185       -12.4406
  55   2.0000      -0.443438       -12.0666
  56   2.0000      -0.442299       -12.0356
  57   2.0000      -0.437128       -11.8948
  58   2.0000      -0.424671       -11.5559
  59   2.0000      -0.421922       -11.4811
  60   2.0000      -0.419863       -11.4251
  61   2.0000      -0.417917       -11.3721
  62   2.0000      -0.411845       -11.2069
  63   2.0000      -0.333028        -9.0622
  64   2.0000      -0.330329        -8.9887
  65   2.0000      -0.326563        -8.8862
  66   2.0000      -0.300151        -8.1675
  67   0.0000       0.037108         1.0098
  68   0.0000       0.060500         1.6463
  69   0.0000       0.113866         3.0984
  70   0.0000       0.122317         3.3284
  71   0.0000       0.125456         3.4138

MULLIKEN ATOMIC CHARGES
-----------------------
   0 S :    0.133646
   1 C :   -0.131620
   2 C :   -0.089762
   3 C :    0.010487
   4 C :   -0.156153
   5 H :    0.021213
   6 C :    0.107891
   7 H :    0.026929
   8 H :    0.034491
   9 C :   -0.083519
  10 H :    0.035864
  11 H :    0.011076
  12 C :   -0.055603
  13 H :    0.051848
  14 H :    0.021403
  15 H :    0.023289
  16 S :    0.104407
  17 C :   -0.091063
  18 C :   -0.055469
  19 C :   -0.043194
  20 C :   -0.170053
  21 H :    0.032977
  22 C :    0.019755
  23 H :    0.050749
  24 H :    0.017868
  25 C :   -0.072909
  26 H :    0.048723
  27 H :    0.026733
  28 C :   -0.027442
  29 H :    0.029905
  30 H :    0.036205
  31 H :    0.028736
  32 H :    0.033774
  33 H :    0.068817
Sum of atomic charges:    0.0000000

LOEWDIN ATOMIC CHARGES
----------------------
   0 S :    0.451659
   1 C :   -0.198426
   2 C :   -0.061218
   3 C :   -0.069239
   4 C :   -0.231024
   5 H :    0.036337
   6 C :   -0.031303
   7 H :    0.037382
   8 H :    0.037325
   9 C :   -0.046239
  10 H :    0.034327
  11 H :    0.017570
  12 C :   -0.073515
  13 H :    0.033398
  14 H :    0.027370
  15 H :    0.020761
  16 S :    0.397027
  17 C :   -0.196527
  18 C :   -0.079785
  19 C :   -0.054607
  20 C :   -0.196197
  21 H :    0.035726
  22 C :   -0.040501
  23 H :    0.034373
  24 H :    0.025874
  25 C :   -0.043565
  26 H :    0.034666
  27 H :    0.022193
  28 C :   -0.062268
  29 H :    0.021868
  30 H :    0.033518
  31 H :    0.021938
  32 H :    0.022458
  33 H :    0.038645

  Mayer bond orders larger than 0.100000
B(  0-S ,  1-C ) :   1.1323 B(  0-S ,  4-C ) :   1.1848 B(  1-C ,  2-C ) :   1.5971
B(  1-C , 32-H ) :   0.9733 B(  2-C ,  3-C ) :   1.2584 B(  2-C ,  6-C ) :   1.0177
B(  3-C ,  4-C ) :   1.5544 B(  3-C ,  5-H ) :   0.9893 B(  4-C , 20-C ) :   1.0228
B(  6-C ,  7-H ) :   0.9410 B(  6-C ,  8-H ) :   0.9198 B(  6-C ,  9-C ) :   1.0798
B(  9-C , 10-H ) :   0.9510 B(  9-C , 11-H ) :   0.9488 B(  9-C , 12-C ) :   1.0944
B( 12-C , 13-H ) :   0.9708 B( 12-C , 14-H ) :   0.9676 B( 12-C , 15-H ) :   0.9711
B( 16-S , 17-C ) :   1.1471 B( 16-S , 20-C ) :   1.1409 B( 17-C , 18-C ) :   1.6193
B( 17-C , 33-H ) :   0.9633 B( 18-C , 19-C ) :   1.2480 B( 18-C , 21-H ) :   0.9759
B( 19-C , 20-C ) :   1.5890 B( 19-C , 22-C ) :   1.0295 B( 22-C , 23-H ) :   0.9288
B( 22-C , 24-H ) :   0.9373 B( 22-C , 25-C ) :   1.0587 B( 25-C , 26-H ) :   0.9538
B( 25-C , 27-H ) :   0.9533 B( 25-C , 28-C ) :   1.0903 B( 28-C , 29-H ) :   0.9744
B( 28-C , 30-H ) :   0.9693 B( 28-C , 31-H ) :   0.9743

Dispersion correction           -0.014828786
FINAL SINGLE POINT ENERGY     -1339.872124328146

DIPOLE MOMENT
-------------
                                X             Y             Z
Electronic contribution:    -27.40601      -4.10904      -1.20563
Nuclear contribution   :     27.89884       4.08859       1.17590
                        -----------------------------------------
Total Dipole Moment    :      0.49283      -0.02045      -0.02974
                        -----------------------------------------
Magnitude (a.u.)       :      0.49415
Magnitude (Debye)      :      1.25603

Rotational constants in cm-1:     0.019468     0.009265     0.007274
Rotational constants in MHz :   583.648328   277.745932   218.069774

                             ****ORCA TERMINATED NORMALLY****
TOTAL RUN TIME: 0 days 0 hours 0 minutes 24 seconds 42 msec
