                         Program Version 4.2.1 -  RELEASE  -
|  1> ! wB97X-D3 SP def2-SVP
|  2> %pal
|  3> nprocs 24
|  4> end
|  5>
|  6> * xyz 0 1
|  7> S 	 -124.844 	 57.8563 	 -60.3164
|  8> C 	 -124.138 	 56.5783 	 -61.2106
|  9> C 	 -124.475 	 55.3853 	 -60.5965
| 10> C 	 -125.186 	 55.5315 	 -59.394
| 11> C 	 -125.528 	 56.8095 	 -59.0822
| 12> H 	 -125.489 	 54.6576 	 -58.7784
| 13> C 	 -124.017 	 53.9597 	 -61.0495
| 14> H 	 -123.338 	 54.1734 	 -61.8631
| 15> H 	 -124.863 	 53.4228 	 -61.5179
| 16> C 	 -123.264 	 53.0611 	 -60.159
| 17> H 	 -123.836 	 52.7403 	 -59.293
| 18> H 	 -122.996 	 52.1062 	 -60.6614
| 19> C 	 -122.05 	 53.6701 	 -59.5496
| 20> H 	 -121.293 	 53.9817 	 -60.2433
| 21> H 	 -122.248 	 54.6321 	 -59.0795
| 22> H 	 -121.53 	 53.0297 	 -58.8209
| 23> S 	 -125.025 	 58.1195 	 -56.8362
| 24> C 	 -126.207 	 58.121 	 -55.5393
| 25> C 	 -127.44 	 57.6358 	 -55.9192
| 26> C 	 -127.461 	 57.1913 	 -57.2681
| 27> C 	 -126.179 	 57.2944 	 -57.8531
| 28> H 	 -128.361 	 57.7171 	 -55.341
| 29> C 	 -128.781 	 56.7496 	 -57.96
| 30> H 	 -129.084 	 57.3048 	 -58.8638
| 31> H 	 -129.613 	 56.949 	 -57.2474
| 32> C 	 -128.729 	 55.2485 	 -58.2694
| 33> H 	 -128.013 	 55.0253 	 -59.0465
| 34> H 	 -129.727 	 54.9539 	 -58.6879
| 35> C 	 -128.608 	 54.3053 	 -57.0515
| 36> H 	 -128.615 	 53.2974 	 -57.4565
| 37> H 	 -129.487 	 54.3675 	 -56.451
| 38> H 	 -127.723 	 54.5759 	 -56.5002
| 39> H 	 -123.498 	 56.8154 	 -62.1157
| 40> H 	 -126 	 58.6309 	 -54.635
| 41> *
| 42>
| 43>                          ****END OF INPUT****

CARTESIAN COORDINATES (ANGSTROEM)
---------------------------------
  S    -124.844000   57.856300  -60.316400
  C    -124.138000   56.578300  -61.210600
  C    -124.475000   55.385300  -60.596500
  C    -125.186000   55.531500  -59.394000
  C    -125.528000   56.809500  -59.082200
  H    -125.489000   54.657600  -58.778400
  C    -124.017000   53.959700  -61.049500
  H    -123.338000   54.173400  -61.863100
  H    -124.863000   53.422800  -61.517900
  C    -123.264000   53.061100  -60.159000
  H    -123.836000   52.740300  -59.293000
  H    -122.996000   52.106200  -60.661400
  C    -122.050000   53.670100  -59.549600
  H    -121.293000   53.981700  -60.243300
  H    -122.248000   54.632100  -59.079500
  H    -121.530000   53.029700  -58.820900
  S    -125.025000   58.119500  -56.836200
  C    -126.207000   58.121000  -55.539300
  C    -127.440000   57.635800  -55.919200
  C    -127.461000   57.191300  -57.268100
  C    -126.179000   57.294400  -57.853100
  H    -128.361000   57.717100  -55.341000
  C    -128.781000   56.749600  -57.960000
  H    -129.084000   57.304800  -58.863800
  H    -129.613000   56.949000  -57.247400
  C    -128.729000   55.248500  -58.269400
  H    -128.013000   55.025300  -59.046500
  H    -129.727000   54.953900  -58.687900
  C    -128.608000   54.305300  -57.051500
  H    -128.615000   53.297400  -57.456500
  H    -129.487000   54.367500  -56.451000
  H    -127.723000   54.575900  -56.500200
  H    -123.498000   56.815400  -62.115700
  H    -126.000000   58.630900  -54.635000

 Total Charge           Charge          ....    0
 Multiplicity           Mult            ....    1
 Number of Electrons    NEL             ....  134
 Basis Dimension        Dim             ....  322

ORBITAL ENERGIES
----------------

  NO   OCC          E(Eh)            E(eV)
   0   2.0000     -88.967676     -2420.9335
   1   2.0000     -88.963149     -2420.8103
   2   2.0000     -10.329741      -281.0866
   3   2.0000     -10.327765      -281.0328
   4   2.0000     -10.319844      -280.8172
   5   2.0000     -10.316367      -280.7226
   6   2.0000     -10.309889      -280.5464
   7   2.0000     -10.301019      -280.3050
   8   2.0000     -10.299035      -280.2510
   9   2.0000     -10.296323      -280.1772
  10   2.0000     -10.290207      -280.0108
  11   2.0000     -10.289011      -279.9782
  12   2.0000     -10.283411      -279.8258
  13   2.0000     -10.281361      -279.7701
  14   2.0000     -10.270903      -279.4855
  15   2.0000     -10.266759      -279.3727
  16   2.0000      -8.082574      -219.9380
  17   2.0000      -8.078680      -219.8321
  18   2.0000      -6.040920      -164.3818
  19   2.0000      -6.037098      -164.2778
  20   2.0000      -6.037051      -164.2765
  21   2.0000      -6.033499      -164.1799
  22   2.0000      -6.032902      -164.1636
  23   2.0000      -6.029648      -164.0751
  24   2.0000      -1.010351       -27.4930
  25   2.0000      -0.987670       -26.8759
  26   2.0000      -0.917105       -24.9557
  27   2.0000      -0.905680       -24.6448
  28   2.0000      -0.871741       -23.7213
  29   2.0000      -0.847828       -23.0706
  30   2.0000      -0.845260       -23.0007
  31   2.0000      -0.813712       -22.1422
  32   2.0000      -0.784844       -21.3567
  33   2.0000      -0.774180       -21.0665
  34   2.0000      -0.705877       -19.2079
  35   2.0000      -0.694585       -18.9006
  36   2.0000      -0.681748       -18.5513
  37   2.0000      -0.665074       -18.0976
  38   2.0000      -0.641461       -17.4550
  39   2.0000      -0.623898       -16.9771
  40   2.0000      -0.597883       -16.2692
  41   2.0000      -0.560653       -15.2561
  42   2.0000      -0.556932       -15.1549
  43   2.0000      -0.552174       -15.0254
  44   2.0000      -0.547457       -14.8971
  45   2.0000      -0.539480       -14.6800
  46   2.0000      -0.515507       -14.0277
  47   2.0000      -0.511837       -13.9278
  48   2.0000      -0.502185       -13.6651
  49   2.0000      -0.491566       -13.3762
  50   2.0000      -0.488043       -13.2803
  51   2.0000      -0.484886       -13.1944
  52   2.0000      -0.470374       -12.7995
  53   2.0000      -0.466037       -12.6815
  54   2.0000      -0.454267       -12.3612
  55   2.0000      -0.448581       -12.2065
  56   2.0000      -0.442347       -12.0369
  57   2.0000      -0.438125       -11.9220
  58   2.0000      -0.433584       -11.7984
  59   2.0000      -0.425719       -11.5844
  60   2.0000      -0.418647       -11.3920
  61   2.0000      -0.410063       -11.1584
  62   2.0000      -0.401433       -10.9235
  63   2.0000      -0.345304        -9.3962
  64   2.0000      -0.331778        -9.0281
  65   2.0000      -0.325609        -8.8603
  66   2.0000      -0.301392        -8.2013
  67   0.0000       0.035529         0.9668
  68   0.0000       0.060530         1.6471
  69   0.0000       0.107746         2.9319
  70   0.0000       0.127725         3.4756
  71   0.0000       0.133445         3.6312

MULLIKEN ATOMIC CHARGES
-----------------------
   0 S :    0.104946
   1 C :   -0.158618
   2 C :   -0.116078
   3 C :    0.050235
   4 C :   -0.162197
   5 H :    0.030099
   6 C :    0.090211
   7 H :    0.002547
   8 H :    0.041464
   9 C :   -0.049103
  10 H :    0.019621
  11 H :    0.032769
  12 C :   -0.058921
  13 H :    0.008577
  14 H :    0.032963
  15 H :    0.033868
  16 S :    0.119696
  17 C :   -0.077552
  18 C :   -0.028560
  19 C :   -0.040644
  20 C :   -0.190905
  21 H :    0.024837
  22 C :    0.094226
  23 H :    0.049845
  24 H :    0.011731
  25 C :   -0.121150
  26 H :    0.039005
  27 H :    0.020349
  28 C :   -0.030325
  29 H :    0.032340
  30 H :    0.020391
  31 H :    0.045508
  32 H :    0.082791
  33 H :    0.046034
Sum of atomic charges:   -0.0000000

LOEWDIN ATOMIC CHARGES
----------------------
   0 S :    0.415702
   1 C :   -0.216955
   2 C :   -0.073836
   3 C :   -0.068207
   4 C :   -0.206178
   5 H :    0.039453
   6 C :   -0.032897
   7 H :    0.026490
   8 H :    0.035996
   9 C :   -0.050597
  10 H :    0.021425
  11 H :    0.033144
  12 C :   -0.069706
  13 H :    0.017818
  14 H :    0.028069
  15 H :    0.028257
  16 S :    0.422023
  17 C :   -0.176140
  18 C :   -0.072384
  19 C :   -0.051535
  20 C :   -0.199959
  21 H :    0.035267
  22 C :   -0.027928
  23 H :    0.038028
  24 H :    0.029250
  25 C :   -0.044779
  26 H :    0.019528
  27 H :    0.024120
  28 C :   -0.059981
  29 H :    0.028880
  30 H :    0.020110
  31 H :    0.022229
  32 H :    0.046403
  33 H :    0.018888

  Mayer bond orders larger than 0.100000
B(  0-S ,  1-C ) :   1.1596 B(  0-S ,  4-C ) :   1.1666 B(  1-C ,  2-C ) :   1.5755
B(  1-C , 32-H ) :   0.9621 B(  2-C ,  3-C ) :   1.2759 B(  2-C ,  6-C ) :   1.0065
B(  3-C ,  4-C ) :   1.5644 B(  3-C ,  5-H ) :   0.9888 B(  4-C , 20-C ) :   0.9960
B(  6-C ,  7-H ) :   0.9384 B(  6-C ,  8-H ) :   0.9361 B(  6-C ,  9-C ) :   1.0902
B(  9-C , 10-H ) :   0.9463 B(  9-C , 11-H ) :   0.9465 B(  9-C , 12-C ) :   1.0819
B( 12-C , 13-H ) :   0.9714 B( 12-C , 14-H ) :   0.9692 B( 12-C , 15-H ) :   0.9735
B( 16-S , 17-C ) :   1.1655 B( 16-S , 20-C ) :   1.1729 B( 17-C , 18-C ) :   1.5856
B( 17-C , 20-C ) :   0.1086 B( 17-C , 33-H ) :   0.9729 B( 18-C , 19-C ) :   1.2696
B( 18-C , 21-H ) :   0.9827 B( 19-C , 20-C ) :   1.5808 B( 19-C , 22-C ) :   1.0188
B( 22-C , 23-H ) :   0.9451 B( 22-C , 24-H ) :   0.9365 B( 22-C , 25-C ) :   1.0697
B( 25-C , 26-H ) :   0.9603 B( 25-C , 27-H ) :   0.9541 B( 25-C , 28-C ) :   1.0706
B( 28-C , 29-H ) :   0.9737 B( 28-C , 30-H ) :   0.9753 B( 28-C , 31-H ) :   0.9750

Dispersion correction           -0.015212822
FINAL SINGLE POINT ENERGY     -1339.882265675974

DIPOLE MOMENT
-------------
                                X             Y             Z
Electronic contribution:      3.99295      23.41696       1.29125
Nuclear contribution   :     -4.22684     -23.77376      -1.26724
                        -----------------------------------------
Total Dipole Moment    :     -0.23389      -0.35680       0.02401
                        -----------------------------------------
Magnitude (a.u.)       :      0.42730
Magnitude (Debye)      :      1.08612

Rotational constants in cm-1:     0.018579     0.009255     0.007994
Rotational constants in MHz :   556.973174   277.456067   239.649048

                             ****ORCA TERMINATED NORMALLY****
TOTAL RUN TIME: 0 days 0 hours 0 minutes 22 seconds 258 msec
