                         Program Version 4.2.1 -  RELEASE  -
|  1> ! wB97X-D3 SP def2-SVP
|  2> %pal
|  3> nprocs 24
|  4> end
|  5>
|  6> * xyz 0 1
|  7> S 	 -107.836 	 56.3693 	 -88.1902
|  8> C 	 -106.408 	 56.2355 	 -87.1825
|  9> C 	 -105.306 	 55.803 	 -87.9436
| 10> C 	 -105.528 	 56.0432 	 -89.3654
| 11> C 	 -106.839 	 56.4568 	 -89.647
| 12> H 	 -104.915 	 55.8436 	 -90.2199
| 13> C 	 -104.05 	 55.4022 	 -87.3578
| 14> H 	 -103.716 	 54.5046 	 -87.8945
| 15> H 	 -104.198 	 55.0995 	 -86.3039
| 16> C 	 -102.927 	 56.4873 	 -87.3706
| 17> H 	 -102.646 	 56.7016 	 -88.4393
| 18> H 	 -103.456 	 57.3837 	 -87.0187
| 19> C 	 -101.774 	 56.2428 	 -86.4945
| 20> H 	 -100.907 	 57.0543 	 -86.5776
| 21> H 	 -102.1 	 56.1803 	 -85.4116
| 22> H 	 -101.383 	 55.1968 	 -86.6756
| 23> S 	 -108.813 	 55.5717 	 -91.2582
| 24> C 	 -108.814 	 55.8787 	 -92.9784
| 25> C 	 -107.766 	 56.7474 	 -93.3335
| 26> C 	 -106.863 	 57.0182 	 -92.2077
| 27> C 	 -107.334 	 56.5281 	 -91.0093
| 28> H 	 -107.771 	 57.061 	 -94.3842
| 29> C 	 -105.572 	 57.7359 	 -92.3727
| 30> H 	 -104.903 	 57.5428 	 -91.5429
| 31> H 	 -105.695 	 58.8489 	 -92.4611
| 32> C 	 -104.636 	 57.1626 	 -93.4484
| 33> H 	 -105.166 	 57.2673 	 -94.3617
| 34> H 	 -104.461 	 56.1081 	 -93.252
| 35> C 	 -103.267 	 57.9066 	 -93.5101
| 36> H 	 -102.57 	 57.5464 	 -94.2727
| 37> H 	 -102.83 	 58.027 	 -92.5105
| 38> H 	 -103.343 	 58.9421 	 -93.7458
| 39> H 	 -106.449 	 56.0202 	 -86.1098
| 40> H 	 -109.476 	 55.5814 	 -93.6692
| 41> *
| 42>
| 43>                          ****END OF INPUT****

CARTESIAN COORDINATES (ANGSTROEM)
---------------------------------
  S    -107.836000   56.369300  -88.190200
  C    -106.408000   56.235500  -87.182500
  C    -105.306000   55.803000  -87.943600
  C    -105.528000   56.043200  -89.365400
  C    -106.839000   56.456800  -89.647000
  H    -104.915000   55.843600  -90.219900
  C    -104.050000   55.402200  -87.357800
  H    -103.716000   54.504600  -87.894500
  H    -104.198000   55.099500  -86.303900
  C    -102.927000   56.487300  -87.370600
  H    -102.646000   56.701600  -88.439300
  H    -103.456000   57.383700  -87.018700
  C    -101.774000   56.242800  -86.494500
  H    -100.907000   57.054300  -86.577600
  H    -102.100000   56.180300  -85.411600
  H    -101.383000   55.196800  -86.675600
  S    -108.813000   55.571700  -91.258200
  C    -108.814000   55.878700  -92.978400
  C    -107.766000   56.747400  -93.333500
  C    -106.863000   57.018200  -92.207700
  C    -107.334000   56.528100  -91.009300
  H    -107.771000   57.061000  -94.384200
  C    -105.572000   57.735900  -92.372700
  H    -104.903000   57.542800  -91.542900
  H    -105.695000   58.848900  -92.461100
  C    -104.636000   57.162600  -93.448400
  H    -105.166000   57.267300  -94.361700
  H    -104.461000   56.108100  -93.252000
  C    -103.267000   57.906600  -93.510100
  H    -102.570000   57.546400  -94.272700
  H    -102.830000   58.027000  -92.510500
  H    -103.343000   58.942100  -93.745800
  H    -106.449000   56.020200  -86.109800
  H    -109.476000   55.581400  -93.669200

 Total Charge           Charge          ....    0
 Multiplicity           Mult            ....    1
 Number of Electrons    NEL             ....  134
 Basis Dimension        Dim             ....  322

ORBITAL ENERGIES
----------------

  NO   OCC          E(Eh)            E(eV)
   0   2.0000     -88.970306     -2421.0051
   1   2.0000     -88.964287     -2420.8413
   2   2.0000     -10.334763      -281.2232
   3   2.0000     -10.330776      -281.1147
   4   2.0000     -10.317799      -280.7616
   5   2.0000     -10.312986      -280.6306
   6   2.0000     -10.309491      -280.5355
   7   2.0000     -10.307124      -280.4711
   8   2.0000     -10.302201      -280.3371
   9   2.0000     -10.299363      -280.2599
  10   2.0000     -10.295558      -280.1564
  11   2.0000     -10.292960      -280.0857
  12   2.0000     -10.290450      -280.0174
  13   2.0000     -10.289519      -279.9920
  14   2.0000     -10.286660      -279.9143
  15   2.0000     -10.279611      -279.7224
  16   2.0000      -8.084417      -219.9882
  17   2.0000      -8.078778      -219.8347
  18   2.0000      -6.043068      -164.4402
  19   2.0000      -6.039231      -164.3358
  20   2.0000      -6.037424      -164.2867
  21   2.0000      -6.034837      -164.2163
  22   2.0000      -6.033304      -164.1745
  23   2.0000      -6.029416      -164.0687
  24   2.0000      -1.004979       -27.3469
  25   2.0000      -0.980354       -26.6768
  26   2.0000      -0.919049       -25.0086
  27   2.0000      -0.912300       -24.8249
  28   2.0000      -0.873273       -23.7630
  29   2.0000      -0.854872       -23.2623
  30   2.0000      -0.844996       -22.9935
  31   2.0000      -0.817076       -22.2338
  32   2.0000      -0.780760       -21.2456
  33   2.0000      -0.769750       -20.9460
  34   2.0000      -0.709818       -19.3151
  35   2.0000      -0.703432       -19.1414
  36   2.0000      -0.692980       -18.8570
  37   2.0000      -0.661869       -18.0104
  38   2.0000      -0.643786       -17.5183
  39   2.0000      -0.619869       -16.8675
  40   2.0000      -0.599891       -16.3239
  41   2.0000      -0.573922       -15.6172
  42   2.0000      -0.568187       -15.4612
  43   2.0000      -0.559155       -15.2154
  44   2.0000      -0.527586       -14.3563
  45   2.0000      -0.524251       -14.2656
  46   2.0000      -0.518401       -14.1064
  47   2.0000      -0.514446       -13.9988
  48   2.0000      -0.511216       -13.9109
  49   2.0000      -0.500513       -13.6197
  50   2.0000      -0.493127       -13.4187
  51   2.0000      -0.483059       -13.1447
  52   2.0000      -0.471472       -12.8294
  53   2.0000      -0.465669       -12.6715
  54   2.0000      -0.453789       -12.3482
  55   2.0000      -0.452971       -12.3260
  56   2.0000      -0.446539       -12.1509
  57   2.0000      -0.436335       -11.8733
  58   2.0000      -0.433622       -11.7995
  59   2.0000      -0.426664       -11.6101
  60   2.0000      -0.420738       -11.4489
  61   2.0000      -0.410941       -11.1823
  62   2.0000      -0.409090       -11.1319
  63   2.0000      -0.354090        -9.6353
  64   2.0000      -0.329491        -8.9659
  65   2.0000      -0.325090        -8.8461
  66   2.0000      -0.288264        -7.8441
  67   0.0000       0.022066         0.6004
  68   0.0000       0.063450         1.7266
  69   0.0000       0.099188         2.6990
  70   0.0000       0.119868         3.2618
  71   0.0000       0.121618         3.3094

MULLIKEN ATOMIC CHARGES
-----------------------
   0 S :    0.110555
   1 C :   -0.102451
   2 C :   -0.103079
   3 C :    0.020740
   4 C :   -0.121074
   5 H :    0.016678
   6 C :    0.052067
   7 H :    0.032752
   8 H :    0.012432
   9 C :   -0.067039
  10 H :    0.034589
  11 H :    0.029211
  12 C :   -0.089854
  13 H :    0.065244
  14 H :    0.037102
  15 H :    0.033614
  16 S :    0.087046
  17 C :   -0.044502
  18 C :   -0.053217
  19 C :   -0.029891
  20 C :   -0.131306
  21 H :    0.035019
  22 C :    0.027635
  23 H :    0.001364
  24 H :    0.051611
  25 C :   -0.076237
  26 H :    0.021709
  27 H :    0.036433
  28 C :   -0.034625
  29 H :    0.043967
  30 H :    0.022173
  31 H :    0.010284
  32 H :    0.060813
  33 H :    0.010237
Sum of atomic charges:   -0.0000000

LOEWDIN ATOMIC CHARGES
----------------------
   0 S :    0.398270
   1 C :   -0.203762
   2 C :   -0.054845
   3 C :   -0.055258
   4 C :   -0.186833
   5 H :    0.027401
   6 C :   -0.039945
   7 H :    0.034513
   8 H :    0.030183
   9 C :   -0.050470
  10 H :    0.027094
  11 H :    0.026626
  12 C :   -0.084434
  13 H :    0.044570
  14 H :    0.029549
  15 H :    0.027733
  16 S :    0.389444
  17 C :   -0.167125
  18 C :   -0.067585
  19 C :   -0.060415
  20 C :   -0.177155
  21 H :    0.036833
  22 C :   -0.039841
  23 H :    0.024403
  24 H :    0.039194
  25 C :   -0.031088
  26 H :    0.013748
  27 H :    0.025344
  28 C :   -0.071357
  29 H :    0.030986
  30 H :    0.026423
  31 H :    0.021328
  32 H :    0.031479
  33 H :    0.004992

  Mayer bond orders larger than 0.100000
B(  0-S ,  1-C ) :   1.1291 B(  0-S ,  4-C ) :   1.1452 B(  1-C ,  2-C ) :   1.5959
B(  1-C , 32-H ) :   0.9603 B(  2-C ,  3-C ) :   1.2136 B(  2-C ,  6-C ) :   1.0818
B(  3-C ,  4-C ) :   1.5580 B(  3-C ,  5-H ) :   0.9881 B(  4-C , 20-C ) :   1.0661
B(  6-C ,  7-H ) :   0.9207 B(  6-C ,  8-H ) :   0.9348 B(  6-C ,  9-C ) :   1.0494
B(  9-C , 10-H ) :   0.9498 B(  9-C , 11-H ) :   0.9536 B(  9-C , 12-C ) :   1.0907
B( 12-C , 13-H ) :   0.9689 B( 12-C , 14-H ) :   0.9687 B( 12-C , 15-H ) :   0.9693
B( 16-S , 17-C ) :   1.1471 B( 16-S , 20-C ) :   1.1160 B( 17-C , 18-C ) :   1.6442
B( 17-C , 33-H ) :   0.9787 B( 18-C , 19-C ) :   1.1816 B( 18-C , 21-H ) :   0.9871
B( 19-C , 20-C ) :   1.6338 B( 19-C , 22-C ) :   1.0618 B( 22-C , 23-H ) :   0.9406
B( 22-C , 24-H ) :   0.9322 B( 22-C , 25-C ) :   1.0437 B( 25-C , 26-H ) :   0.9561
B( 25-C , 27-H ) :   0.9590 B( 25-C , 28-C ) :   1.0824 B( 28-C , 29-H ) :   0.9747
B( 28-C , 30-H ) :   0.9715 B( 28-C , 31-H ) :   0.9690

Dispersion correction           -0.013681619
FINAL SINGLE POINT ENERGY     -1339.854251978487

DIPOLE MOMENT
-------------
                                X             Y             Z
Electronic contribution:    -31.80376      -5.26660       1.80330
Nuclear contribution   :     32.43562       5.19211      -2.01933
                        -----------------------------------------
Total Dipole Moment    :      0.63186      -0.07449      -0.21603
                        -----------------------------------------
Magnitude (a.u.)       :      0.67191
Magnitude (Debye)      :      1.70786

Rotational constants in cm-1:     0.016766     0.009125     0.006198
Rotational constants in MHz :   502.617511   273.574071   185.813650

                             ****ORCA TERMINATED NORMALLY****
TOTAL RUN TIME: 0 days 0 hours 0 minutes 21 seconds 619 msec
