                         Program Version 4.2.1 -  RELEASE  -
|  1> ! wB97X-D3 SP def2-SVP
|  2> %pal
|  3> nprocs 24
|  4> end
|  5>
|  6> * xyz 0 1
|  7> S 	 -143.003 	 2.77765 	 15.6809
|  8> C 	 -142.48 	 2.1013 	 14.1147
|  9> C 	 -143.568 	 2.16097 	 13.2156
| 10> C 	 -144.714 	 2.87215 	 13.7927
| 11> C 	 -144.566 	 3.28612 	 15.1213
| 12> H 	 -145.561 	 3.22181 	 13.2928
| 13> C 	 -143.585 	 1.78074 	 11.7778
| 14> H 	 -142.801 	 1.06862 	 11.6878
| 15> H 	 -143.268 	 2.69266 	 11.283
| 16> C 	 -144.948 	 1.25396 	 11.2825
| 17> H 	 -145.278 	 0.392021 	 11.8663
| 18> H 	 -145.699 	 1.98053 	 11.4003
| 19> C 	 -144.908 	 1.05304 	 9.73745
| 20> H 	 -145.789 	 0.535901 	 9.40095
| 21> H 	 -144.725 	 1.94385 	 9.13514
| 22> H 	 -144.09 	 0.385216 	 9.42877
| 23> S 	 -144.5 	 5.47459 	 16.7435
| 24> C 	 -145.795 	 6.62602 	 16.8282
| 25> C 	 -146.879 	 6.02377 	 16.2066
| 26> C 	 -146.68 	 4.77086 	 15.516
| 27> C 	 -145.36 	 4.36064 	 15.7129
| 28> H 	 -147.858 	 6.44151 	 16.4156
| 29> C 	 -147.8 	 4.01245 	 14.756
| 30> H 	 -147.46 	 3.71464 	 13.7905
| 31> H 	 -148.609 	 4.75058 	 14.6643
| 32> C 	 -148.404 	 2.80681 	 15.4812
| 33> H 	 -148.859 	 3.09288 	 16.4526
| 34> H 	 -147.587 	 2.19125 	 15.7142
| 35> C 	 -149.277 	 1.97954 	 14.5561
| 36> H 	 -149.897 	 1.19733 	 15.0217
| 37> H 	 -148.668 	 1.53544 	 13.8115
| 38> H 	 -149.941 	 2.6752 	 14.1776
| 39> H 	 -141.538 	 1.61602 	 13.9189
| 40> H 	 -145.833 	 7.54757 	 17.3336
| 41> *
| 42>
| 43>                          ****END OF INPUT****

CARTESIAN COORDINATES (ANGSTROEM)
---------------------------------
  S    -143.003000    2.777650   15.680900
  C    -142.480000    2.101300   14.114700
  C    -143.568000    2.160970   13.215600
  C    -144.714000    2.872150   13.792700
  C    -144.566000    3.286120   15.121300
  H    -145.561000    3.221810   13.292800
  C    -143.585000    1.780740   11.777800
  H    -142.801000    1.068620   11.687800
  H    -143.268000    2.692660   11.283000
  C    -144.948000    1.253960   11.282500
  H    -145.278000    0.392021   11.866300
  H    -145.699000    1.980530   11.400300
  C    -144.908000    1.053040    9.737450
  H    -145.789000    0.535901    9.400950
  H    -144.725000    1.943850    9.135140
  H    -144.090000    0.385216    9.428770
  S    -144.500000    5.474590   16.743500
  C    -145.795000    6.626020   16.828200
  C    -146.879000    6.023770   16.206600
  C    -146.680000    4.770860   15.516000
  C    -145.360000    4.360640   15.712900
  H    -147.858000    6.441510   16.415600
  C    -147.800000    4.012450   14.756000
  H    -147.460000    3.714640   13.790500
  H    -148.609000    4.750580   14.664300
  C    -148.404000    2.806810   15.481200
  H    -148.859000    3.092880   16.452600
  H    -147.587000    2.191250   15.714200
  C    -149.277000    1.979540   14.556100
  H    -149.897000    1.197330   15.021700
  H    -148.668000    1.535440   13.811500
  H    -149.941000    2.675200   14.177600
  H    -141.538000    1.616020   13.918900
  H    -145.833000    7.547570   17.333600

 Total Charge           Charge          ....    0
 Multiplicity           Mult            ....    1
 Number of Electrons    NEL             ....  134
 Basis Dimension        Dim             ....  322

ORBITAL ENERGIES
----------------

  NO   OCC          E(Eh)            E(eV)
   0   2.0000     -88.966216     -2420.8938
   1   2.0000     -88.963902     -2420.8309
   2   2.0000     -10.332763      -281.1688
   3   2.0000     -10.332485      -281.1612
   4   2.0000     -10.320998      -280.8486
   5   2.0000     -10.314061      -280.6599
   6   2.0000     -10.308210      -280.5007
   7   2.0000     -10.307929      -280.4930
   8   2.0000     -10.296800      -280.1902
   9   2.0000     -10.294679      -280.1325
  10   2.0000     -10.292644      -280.0771
  11   2.0000     -10.290988      -280.0320
  12   2.0000     -10.290230      -280.0114
  13   2.0000     -10.280794      -279.7546
  14   2.0000     -10.279142      -279.7097
  15   2.0000     -10.269708      -279.4530
  16   2.0000      -8.080322      -219.8767
  17   2.0000      -8.078994      -219.8406
  18   2.0000      -6.039041      -164.3307
  19   2.0000      -6.037613      -164.2918
  20   2.0000      -6.034767      -164.2144
  21   2.0000      -6.033256      -164.1732
  22   2.0000      -6.031037      -164.1129
  23   2.0000      -6.029787      -164.0789
  24   2.0000      -1.006550       -27.3896
  25   2.0000      -0.980275       -26.6746
  26   2.0000      -0.916355       -24.9353
  27   2.0000      -0.914353       -24.8808
  28   2.0000      -0.870559       -23.6891
  29   2.0000      -0.853846       -23.2343
  30   2.0000      -0.841923       -22.9099
  31   2.0000      -0.815086       -22.1796
  32   2.0000      -0.782709       -21.2986
  33   2.0000      -0.774847       -21.0847
  34   2.0000      -0.718882       -19.5618
  35   2.0000      -0.703818       -19.1519
  36   2.0000      -0.695258       -18.9189
  37   2.0000      -0.663021       -18.0417
  38   2.0000      -0.641013       -17.4429
  39   2.0000      -0.620615       -16.8878
  40   2.0000      -0.596483       -16.2311
  41   2.0000      -0.577123       -15.7043
  42   2.0000      -0.572209       -15.5706
  43   2.0000      -0.562129       -15.2963
  44   2.0000      -0.531288       -14.4571
  45   2.0000      -0.527048       -14.3417
  46   2.0000      -0.520936       -14.1754
  47   2.0000      -0.512669       -13.9504
  48   2.0000      -0.510342       -13.8871
  49   2.0000      -0.505333       -13.7508
  50   2.0000      -0.499578       -13.5942
  51   2.0000      -0.483647       -13.1607
  52   2.0000      -0.471153       -12.8207
  53   2.0000      -0.467777       -12.7289
  54   2.0000      -0.456553       -12.4234
  55   2.0000      -0.448647       -12.2083
  56   2.0000      -0.444802       -12.1037
  57   2.0000      -0.442520       -12.0416
  58   2.0000      -0.435159       -11.8413
  59   2.0000      -0.429500       -11.6873
  60   2.0000      -0.424456       -11.5500
  61   2.0000      -0.415084       -11.2950
  62   2.0000      -0.406654       -11.0656
  63   2.0000      -0.358735        -9.7617
  64   2.0000      -0.330628        -8.9968
  65   2.0000      -0.321672        -8.7531
  66   2.0000      -0.284393        -7.7387
  67   0.0000       0.018845         0.5128
  68   0.0000       0.080217         2.1828
  69   0.0000       0.109229         2.9723
  70   0.0000       0.118274         3.2184
  71   0.0000       0.126962         3.4548

MULLIKEN ATOMIC CHARGES
-----------------------
   0 S :    0.090376
   1 C :   -0.124389
   2 C :   -0.096246
   3 C :    0.001851
   4 C :   -0.085504
   5 H :   -0.022023
   6 C :    0.089774
   7 H :    0.011191
   8 H :    0.046610
   9 C :   -0.070283
  10 H :    0.040583
  11 H :    0.023738
  12 C :   -0.045721
  13 H :    0.030200
  14 H :    0.035413
  15 H :    0.020768
  16 S :    0.102309
  17 C :   -0.077858
  18 C :   -0.047919
  19 C :   -0.055526
  20 C :   -0.143716
  21 H :    0.017206
  22 C :    0.071246
  23 H :    0.014937
  24 H :    0.018783
  25 C :   -0.060199
  26 H :    0.032752
  27 H :    0.015838
  28 C :   -0.001863
  29 H :    0.037054
  30 H :    0.025216
  31 H :    0.008042
  32 H :    0.051001
  33 H :    0.046358
Sum of atomic charges:   -0.0000000

LOEWDIN ATOMIC CHARGES
----------------------
   0 S :    0.394601
   1 C :   -0.195008
   2 C :   -0.053496
   3 C :   -0.061933
   4 C :   -0.195965
   5 H :    0.013629
   6 C :   -0.030379
   7 H :    0.025647
   8 H :    0.040658
   9 C :   -0.031319
  10 H :    0.030829
  11 H :    0.017090
  12 C :   -0.066287
  13 H :    0.023836
  14 H :    0.027492
  15 H :    0.023832
  16 S :    0.417599
  17 C :   -0.192446
  18 C :   -0.071588
  19 C :   -0.063148
  20 C :   -0.187530
  21 H :    0.027045
  22 C :   -0.021410
  23 H :    0.021189
  24 H :    0.030828
  25 C :   -0.036996
  26 H :    0.027660
  27 H :    0.016219
  28 C :   -0.054295
  29 H :    0.031839
  30 H :    0.022204
  31 H :    0.013624
  32 H :    0.029415
  33 H :    0.026564

  Mayer bond orders larger than 0.100000
B(  0-S ,  1-C ) :   1.1235 B(  0-S ,  4-C ) :   1.1510 B(  1-C ,  2-C ) :   1.5932
B(  1-C , 32-H ) :   0.9741 B(  2-C ,  3-C ) :   1.2369 B(  2-C ,  6-C ) :   1.0274
B(  3-C ,  4-C ) :   1.5569 B(  3-C ,  5-H ) :   0.9932 B(  4-C , 20-C ) :   1.0631
B(  6-C ,  7-H ) :   0.9363 B(  6-C ,  8-H ) :   0.9334 B(  6-C ,  9-C ) :   1.0696
B(  9-C , 10-H ) :   0.9603 B(  9-C , 11-H ) :   0.9492 B(  9-C , 12-C ) :   1.0793
B( 12-C , 13-H ) :   0.9746 B( 12-C , 14-H ) :   0.9758 B( 12-C , 15-H ) :   0.9751
B( 16-S , 17-C ) :   1.1488 B( 16-S , 20-C ) :   1.1576 B( 17-C , 18-C ) :   1.5927
B( 17-C , 33-H ) :   0.9774 B( 18-C , 19-C ) :   1.2760 B( 18-C , 21-H ) :   0.9807
B( 19-C , 20-C ) :   1.5549 B( 19-C , 22-C ) :   1.0355 B( 22-C , 23-H ) :   0.9364
B( 22-C , 24-H ) :   0.9250 B( 22-C , 25-C ) :   1.0675 B( 25-C , 26-H ) :   0.9537
B( 25-C , 27-H ) :   0.9572 B( 25-C , 28-C ) :   1.0762 B( 28-C , 29-H ) :   0.9726
B( 28-C , 30-H ) :   0.9736 B( 28-C , 31-H ) :   0.9747

Dispersion correction           -0.013958232
FINAL SINGLE POINT ENERGY     -1339.863698316633

DIPOLE MOMENT
-------------
                                X             Y             Z
Electronic contribution:     18.21782      13.42250      22.24820
Nuclear contribution   :    -18.63783     -13.51857     -22.84876
                        -----------------------------------------
Total Dipole Moment    :     -0.42001      -0.09607      -0.60056
                        -----------------------------------------
Magnitude (a.u.)       :      0.73913
Magnitude (Debye)      :      1.87872

Rotational constants in cm-1:     0.016358     0.009595     0.006842
Rotational constants in MHz :   490.394874   287.653958   205.106490

                             ****ORCA TERMINATED NORMALLY****
TOTAL RUN TIME: 0 days 0 hours 0 minutes 20 seconds 662 msec
