                         Program Version 4.2.1 -  RELEASE  -
|  1> ! wB97X-D3 SP def2-SVP
|  2> %pal
|  3> nprocs 24
|  4> end
|  5>
|  6> * xyz 0 1
|  7> S 	 -116.708 	 19.5071 	 -111.116
|  8> C 	 -117.576 	 20.9936 	 -111.558
|  9> C 	 -118.852 	 20.953 	 -111.021
| 10> C 	 -119.111 	 19.7392 	 -110.401
| 11> C 	 -118.16 	 18.7667 	 -110.448
| 12> H 	 -120.114 	 19.4538 	 -110.118
| 13> C 	 -119.874 	 22.1352 	 -111.041
| 14> H 	 -119.275 	 23.013 	 -110.879
| 15> H 	 -120.443 	 22.0575 	 -110.08
| 16> C 	 -120.705 	 22.1859 	 -112.264
| 17> H 	 -121.041 	 23.232 	 -112.382
| 18> H 	 -120.181 	 21.9735 	 -113.193
| 19> C 	 -121.933 	 21.2938 	 -112.341
| 20> H 	 -122.544 	 21.3781 	 -113.215
| 21> H 	 -121.652 	 20.1786 	 -112.194
| 22> H 	 -122.6 	 21.4717 	 -111.547
| 23> S 	 -117.402 	 16.1946 	 -111.058
| 24> C 	 -117.778 	 14.9515 	 -109.88
| 25> C 	 -118.397 	 15.4406 	 -108.732
| 26> C 	 -118.604 	 16.83 	 -108.81
| 27> C 	 -118.107 	 17.382 	 -109.969
| 28> H 	 -118.697 	 14.8031 	 -107.923
| 29> C 	 -119.319 	 17.5749 	 -107.684
| 30> H 	 -119.136 	 18.6325 	 -107.804
| 31> H 	 -118.821 	 17.2396 	 -106.745
| 32> C 	 -120.836 	 17.468 	 -107.766
| 33> H 	 -121.263 	 16.3983 	 -107.775
| 34> H 	 -121.096 	 17.8519 	 -108.8
| 35> C 	 -121.489 	 18.4 	 -106.748
| 36> H 	 -121.081 	 19.4525 	 -106.796
| 37> H 	 -121.363 	 17.9141 	 -105.854
| 38> H 	 -122.588 	 18.3762 	 -106.843
| 39> H 	 -117.094 	 21.7505 	 -112.012
| 40> H 	 -117.67 	 13.8574 	 -109.99
| 41> *
| 42>
| 43>                          ****END OF INPUT****

CARTESIAN COORDINATES (ANGSTROEM)
---------------------------------
  S    -116.708000   19.507100  -111.116000
  C    -117.576000   20.993600  -111.558000
  C    -118.852000   20.953000  -111.021000
  C    -119.111000   19.739200  -110.401000
  C    -118.160000   18.766700  -110.448000
  H    -120.114000   19.453800  -110.118000
  C    -119.874000   22.135200  -111.041000
  H    -119.275000   23.013000  -110.879000
  H    -120.443000   22.057500  -110.080000
  C    -120.705000   22.185900  -112.264000
  H    -121.041000   23.232000  -112.382000
  H    -120.181000   21.973500  -113.193000
  C    -121.933000   21.293800  -112.341000
  H    -122.544000   21.378100  -113.215000
  H    -121.652000   20.178600  -112.194000
  H    -122.600000   21.471700  -111.547000
  S    -117.402000   16.194600  -111.058000
  C    -117.778000   14.951500  -109.880000
  C    -118.397000   15.440600  -108.732000
  C    -118.604000   16.830000  -108.810000
  C    -118.107000   17.382000  -109.969000
  H    -118.697000   14.803100  -107.923000
  C    -119.319000   17.574900  -107.684000
  H    -119.136000   18.632500  -107.804000
  H    -118.821000   17.239600  -106.745000
  C    -120.836000   17.468000  -107.766000
  H    -121.263000   16.398300  -107.775000
  H    -121.096000   17.851900  -108.800000
  C    -121.489000   18.400000  -106.748000
  H    -121.081000   19.452500  -106.796000
  H    -121.363000   17.914100  -105.854000
  H    -122.588000   18.376200  -106.843000
  H    -117.094000   21.750500  -112.012000
  H    -117.670000   13.857400  -109.990000

 Total Charge           Charge          ....    0
 Multiplicity           Mult            ....    1
 Number of Electrons    NEL             ....  134
 Basis Dimension        Dim             ....  322

ORBITAL ENERGIES
----------------

  NO   OCC          E(Eh)            E(eV)
   0   2.0000     -88.971070     -2421.0259
   1   2.0000     -88.960003     -2420.7248
   2   2.0000     -10.328353      -281.0488
   3   2.0000     -10.326386      -280.9952
   4   2.0000     -10.321161      -280.8531
   5   2.0000     -10.307864      -280.4912
   6   2.0000     -10.300133      -280.2809
   7   2.0000     -10.298781      -280.2441
   8   2.0000     -10.297000      -280.1956
   9   2.0000     -10.296292      -280.1763
  10   2.0000     -10.292669      -280.0778
  11   2.0000     -10.292275      -280.0671
  12   2.0000     -10.285491      -279.8824
  13   2.0000     -10.284815      -279.8641
  14   2.0000     -10.278461      -279.6911
  15   2.0000     -10.275935      -279.6224
  16   2.0000      -8.085348      -220.0135
  17   2.0000      -8.074576      -219.7204
  18   2.0000      -6.043891      -164.4626
  19   2.0000      -6.039966      -164.3558
  20   2.0000      -6.036037      -164.2489
  21   2.0000      -6.033043      -164.1674
  22   2.0000      -6.029076      -164.0595
  23   2.0000      -6.025423      -163.9601
  24   2.0000      -1.007679       -27.4203
  25   2.0000      -0.985477       -26.8162
  26   2.0000      -0.914620       -24.8881
  27   2.0000      -0.912542       -24.8315
  28   2.0000      -0.868663       -23.6375
  29   2.0000      -0.855731       -23.2856
  30   2.0000      -0.842983       -22.9387
  31   2.0000      -0.816595       -22.2207
  32   2.0000      -0.787251       -21.4222
  33   2.0000      -0.773840       -21.0573
  34   2.0000      -0.703897       -19.1540
  35   2.0000      -0.701536       -19.0898
  36   2.0000      -0.690421       -18.7873
  37   2.0000      -0.665074       -18.0976
  38   2.0000      -0.649339       -17.6694
  39   2.0000      -0.621812       -16.9204
  40   2.0000      -0.595824       -16.2132
  41   2.0000      -0.571566       -15.5531
  42   2.0000      -0.567225       -15.4350
  43   2.0000      -0.553827       -15.0704
  44   2.0000      -0.537058       -14.6141
  45   2.0000      -0.523423       -14.2431
  46   2.0000      -0.521013       -14.1775
  47   2.0000      -0.513406       -13.9705
  48   2.0000      -0.507715       -13.8156
  49   2.0000      -0.500791       -13.6272
  50   2.0000      -0.482345       -13.1253
  51   2.0000      -0.480240       -13.0680
  52   2.0000      -0.477581       -12.9957
  53   2.0000      -0.467730       -12.7276
  54   2.0000      -0.458123       -12.4662
  55   2.0000      -0.453088       -12.3291
  56   2.0000      -0.447636       -12.1808
  57   2.0000      -0.436259       -11.8712
  58   2.0000      -0.427804       -11.6411
  59   2.0000      -0.426949       -11.6179
  60   2.0000      -0.418581       -11.3902
  61   2.0000      -0.413134       -11.2420
  62   2.0000      -0.404511       -11.0073
  63   2.0000      -0.348128        -9.4730
  64   2.0000      -0.337063        -9.1720
  65   2.0000      -0.331978        -9.0336
  66   2.0000      -0.289611        -7.8807
  67   0.0000       0.028014         0.7623
  68   0.0000       0.070081         1.9070
  69   0.0000       0.107586         2.9276
  70   0.0000       0.118951         3.2368
  71   0.0000       0.130777         3.5586

MULLIKEN ATOMIC CHARGES
-----------------------
   0 S :    0.079823
   1 C :   -0.089063
   2 C :   -0.099927
   3 C :    0.017215
   4 C :   -0.129919
   5 H :   -0.004644
   6 C :    0.087199
   7 H :    0.022152
   8 H :    0.029892
   9 C :   -0.040746
  10 H :    0.025430
  11 H :    0.031332
  12 C :   -0.054312
  13 H :    0.033161
  14 H :    0.039180
  15 H :    0.007885
  16 S :    0.126948
  17 C :   -0.090640
  18 C :   -0.038413
  19 C :   -0.032039
  20 C :   -0.157832
  21 H :    0.012606
  22 C :    0.078467
  23 H :    0.013738
  24 H :    0.037516
  25 C :   -0.127875
  26 H :    0.041659
  27 H :    0.029140
  28 C :   -0.006366
  29 H :    0.050964
  30 H :    0.010758
  31 H :    0.032180
  32 H :    0.001385
  33 H :    0.063146
Sum of atomic charges:    0.0000000

LOEWDIN ATOMIC CHARGES
----------------------
   0 S :    0.384398
   1 C :   -0.165671
   2 C :   -0.060390
   3 C :   -0.082492
   4 C :   -0.179331
   5 H :    0.024267
   6 C :   -0.025412
   7 H :    0.031105
   8 H :    0.036606
   9 C :   -0.047809
  10 H :    0.027459
  11 H :    0.029093
  12 C :   -0.067124
  13 H :    0.024843
  14 H :    0.034196
  15 H :    0.013272
  16 S :    0.410948
  17 C :   -0.185413
  18 C :   -0.068470
  19 C :   -0.051528
  20 C :   -0.202540
  21 H :    0.030695
  22 C :   -0.031402
  23 H :    0.027887
  24 H :    0.033927
  25 C :   -0.047540
  26 H :    0.030393
  27 H :    0.023368
  28 C :   -0.064396
  29 H :    0.035941
  30 H :    0.014106
  31 H :    0.030202
  32 H :    0.001219
  33 H :    0.035593

  Mayer bond orders larger than 0.100000
B(  0-S ,  1-C ) :   1.1409 B(  0-S ,  4-C ) :   1.1553 B(  1-C ,  2-C ) :   1.5866
B(  1-C ,  4-C ) :   0.1128 B(  1-C , 32-H ) :   0.9921 B(  2-C ,  3-C ) :   1.2791
B(  2-C ,  6-C ) :   0.9957 B(  3-C ,  4-C ) :   1.5746 B(  3-C ,  5-H ) :   0.9881
B(  4-C , 20-C ) :   1.0217 B(  6-C ,  7-H ) :   0.9390 B(  6-C ,  8-H ) :   0.9464
B(  6-C ,  9-C ) :   1.0664 B(  9-C , 10-H ) :   0.9501 B(  9-C , 11-H ) :   0.9552
B(  9-C , 12-C ) :   1.0852 B( 12-C , 13-H ) :   0.9729 B( 12-C , 14-H ) :   0.9717
B( 12-C , 15-H ) :   0.9728 B( 16-S , 17-C ) :   1.1534 B( 16-S , 20-C ) :   1.1371
B( 17-C , 18-C ) :   1.6069 B( 17-C , 20-C ) :   0.1002 B( 17-C , 33-H ) :   0.9616
B( 18-C , 19-C ) :   1.2464 B( 18-C , 21-H ) :   0.9923 B( 19-C , 20-C ) :   1.6047
B( 19-C , 22-C ) :   1.0413 B( 22-C , 23-H ) :   0.9254 B( 22-C , 24-H ) :   0.9361
B( 22-C , 25-C ) :   1.0549 B( 25-C , 26-H ) :   0.9533 B( 25-C , 27-H ) :   0.9499
B( 25-C , 28-C ) :   1.0807 B( 28-C , 29-H ) :   0.9700 B( 28-C , 30-H ) :   0.9716
B( 28-C , 31-H ) :   0.9709

Dispersion correction           -0.014592014
FINAL SINGLE POINT ENERGY     -1339.873033396098

DIPOLE MOMENT
-------------
                                X             Y             Z
Electronic contribution:     25.50719     -12.50975      -8.41256
Nuclear contribution   :    -26.13106      12.66336       8.75982
                        -----------------------------------------
Total Dipole Moment    :     -0.62387       0.15361       0.34725
                        -----------------------------------------
Magnitude (a.u.)       :      0.73034
Magnitude (Debye)      :      1.85638

Rotational constants in cm-1:     0.016867     0.009651     0.007131
Rotational constants in MHz :   505.654540   289.322316   213.786889

                             ****ORCA TERMINATED NORMALLY****
TOTAL RUN TIME: 0 days 0 hours 0 minutes 22 seconds 101 msec
