                         Program Version 4.2.1 -  RELEASE  -
|  1> ! wB97X-D3 SP def2-SVP
|  2> %pal
|  3> nprocs 24
|  4> end
|  5>
|  6> * xyz 0 1
|  7> S 	 -48.5814 	 16.8366 	 20.4353
|  8> C 	 -49.4549 	 16.2779 	 21.749
|  9> C 	 -50.0957 	 15.1073 	 21.5006
| 10> C 	 -49.9128 	 14.7345 	 20.1425
| 11> C 	 -49.0296 	 15.4793 	 19.4663
| 12> H 	 -50.2706 	 13.8956 	 19.6789
| 13> C 	 -50.8765 	 14.2918 	 22.4785
| 14> H 	 -51.2219 	 13.3836 	 21.9587
| 15> H 	 -51.6952 	 14.8953 	 22.8177
| 16> C 	 -50.0906 	 13.8131 	 23.6476
| 17> H 	 -49.652 	 14.7064 	 24.054
| 18> H 	 -50.7826 	 13.5301 	 24.4148
| 19> C 	 -49.0261 	 12.7052 	 23.3919
| 20> H 	 -49.4491 	 11.8175 	 22.8961
| 21> H 	 -48.2439 	 13.1887 	 22.8389
| 22> H 	 -48.59 	 12.2255 	 24.3351
| 23> S 	 -47.9911 	 13.6681 	 17.629
| 24> C 	 -47.6695 	 14.2147 	 16.0515
| 25> C 	 -47.9527 	 15.5199 	 15.8087
| 26> C 	 -48.4563 	 16.1848 	 16.9791
| 27> C 	 -48.5304 	 15.3067 	 18.0826
| 28> H 	 -47.9159 	 15.9389 	 14.8169
| 29> C 	 -48.9418 	 17.5683 	 16.9021
| 30> H 	 -48.0412 	 18.1034 	 16.7392
| 31> H 	 -49.55 	 17.8538 	 17.8084
| 32> C 	 -49.8357 	 17.9079 	 15.7361
| 33> H 	 -50.7128 	 17.2429 	 15.8287
| 34> H 	 -49.2624 	 17.7103 	 14.8022
| 35> C 	 -50.2188 	 19.4012 	 15.758
| 36> H 	 -50.9501 	 19.5665 	 14.9155
| 37> H 	 -49.4157 	 20.0176 	 15.5645
| 38> H 	 -50.8129 	 19.5731 	 16.7345
| 39> H 	 -49.4757 	 16.5994 	 22.7897
| 40> H 	 -47.2386 	 13.4733 	 15.3412
| 41> *
| 42>
| 43>                          ****END OF INPUT****

CARTESIAN COORDINATES (ANGSTROEM)
---------------------------------
  S    -48.581400   16.836600   20.435300
  C    -49.454900   16.277900   21.749000
  C    -50.095700   15.107300   21.500600
  C    -49.912800   14.734500   20.142500
  C    -49.029600   15.479300   19.466300
  H    -50.270600   13.895600   19.678900
  C    -50.876500   14.291800   22.478500
  H    -51.221900   13.383600   21.958700
  H    -51.695200   14.895300   22.817700
  C    -50.090600   13.813100   23.647600
  H    -49.652000   14.706400   24.054000
  H    -50.782600   13.530100   24.414800
  C    -49.026100   12.705200   23.391900
  H    -49.449100   11.817500   22.896100
  H    -48.243900   13.188700   22.838900
  H    -48.590000   12.225500   24.335100
  S    -47.991100   13.668100   17.629000
  C    -47.669500   14.214700   16.051500
  C    -47.952700   15.519900   15.808700
  C    -48.456300   16.184800   16.979100
  C    -48.530400   15.306700   18.082600
  H    -47.915900   15.938900   14.816900
  C    -48.941800   17.568300   16.902100
  H    -48.041200   18.103400   16.739200
  H    -49.550000   17.853800   17.808400
  C    -49.835700   17.907900   15.736100
  H    -50.712800   17.242900   15.828700
  H    -49.262400   17.710300   14.802200
  C    -50.218800   19.401200   15.758000
  H    -50.950100   19.566500   14.915500
  H    -49.415700   20.017600   15.564500
  H    -50.812900   19.573100   16.734500
  H    -49.475700   16.599400   22.789700
  H    -47.238600   13.473300   15.341200

 Total Charge           Charge          ....    0
 Multiplicity           Mult            ....    1
 Number of Electrons    NEL             ....  134
 Basis Dimension        Dim             ....  322

ORBITAL ENERGIES
----------------

  NO   OCC          E(Eh)            E(eV)
   0   2.0000     -88.964599     -2420.8498
   1   2.0000     -88.963107     -2420.8092
   2   2.0000     -10.329144      -281.0703
   3   2.0000     -10.320404      -280.8325
   4   2.0000     -10.315390      -280.6960
   5   2.0000     -10.303680      -280.3774
   6   2.0000     -10.301304      -280.3127
   7   2.0000     -10.290953      -280.0311
   8   2.0000     -10.288348      -279.9602
   9   2.0000     -10.287805      -279.9454
  10   2.0000     -10.284740      -279.8620
  11   2.0000     -10.283809      -279.8367
  12   2.0000     -10.283684      -279.8333
  13   2.0000     -10.282342      -279.7967
  14   2.0000     -10.279865      -279.7293
  15   2.0000     -10.276561      -279.6394
  16   2.0000      -8.079932      -219.8661
  17   2.0000      -8.079335      -219.8499
  18   2.0000      -6.038242      -164.3089
  19   2.0000      -6.037734      -164.2951
  20   2.0000      -6.034460      -164.2060
  21   2.0000      -6.033581      -164.1821
  22   2.0000      -6.030783      -164.1059
  23   2.0000      -6.030162      -164.0891
  24   2.0000      -1.015886       -27.6437
  25   2.0000      -0.992465       -27.0063
  26   2.0000      -0.919727       -25.0270
  27   2.0000      -0.919452       -25.0196
  28   2.0000      -0.869451       -23.6590
  29   2.0000      -0.854525       -23.2528
  30   2.0000      -0.847448       -23.0602
  31   2.0000      -0.815228       -22.1835
  32   2.0000      -0.785836       -21.3837
  33   2.0000      -0.771981       -21.0067
  34   2.0000      -0.706926       -19.2364
  35   2.0000      -0.700008       -19.0482
  36   2.0000      -0.689216       -18.7545
  37   2.0000      -0.658512       -17.9190
  38   2.0000      -0.642962       -17.4959
  39   2.0000      -0.612369       -16.6634
  40   2.0000      -0.601641       -16.3715
  41   2.0000      -0.581572       -15.8254
  42   2.0000      -0.580739       -15.8027
  43   2.0000      -0.559236       -15.2176
  44   2.0000      -0.541883       -14.7454
  45   2.0000      -0.523651       -14.2493
  46   2.0000      -0.514687       -14.0053
  47   2.0000      -0.513082       -13.9617
  48   2.0000      -0.503057       -13.6889
  49   2.0000      -0.498708       -13.5705
  50   2.0000      -0.488242       -13.2857
  51   2.0000      -0.473164       -12.8755
  52   2.0000      -0.470243       -12.7960
  53   2.0000      -0.468335       -12.7440
  54   2.0000      -0.458334       -12.4719
  55   2.0000      -0.455957       -12.4072
  56   2.0000      -0.446919       -12.1613
  57   2.0000      -0.437639       -11.9088
  58   2.0000      -0.433788       -11.8040
  59   2.0000      -0.423162       -11.5148
  60   2.0000      -0.418534       -11.3889
  61   2.0000      -0.415738       -11.3128
  62   2.0000      -0.411641       -11.2013
  63   2.0000      -0.352411        -9.5896
  64   2.0000      -0.331637        -9.0243
  65   2.0000      -0.327081        -8.9003
  66   2.0000      -0.290287        -7.8991
  67   0.0000       0.039150         1.0653
  68   0.0000       0.077805         2.1172
  69   0.0000       0.111823         3.0428
  70   0.0000       0.122490         3.3331
  71   0.0000       0.136544         3.7156

MULLIKEN ATOMIC CHARGES
-----------------------
   0 S :    0.131580
   1 C :   -0.113201
   2 C :   -0.120334
   3 C :    0.048937
   4 C :   -0.149903
   5 H :   -0.037255
   6 C :    0.105649
   7 H :    0.015460
   8 H :    0.033098
   9 C :   -0.058651
  10 H :    0.003128
  11 H :    0.015624
  12 C :   -0.061422
  13 H :    0.032953
  14 H :    0.047839
  15 H :    0.042094
  16 S :    0.107858
  17 C :   -0.102396
  18 C :   -0.028527
  19 C :   -0.016876
  20 C :   -0.168560
  21 H :    0.017686
  22 C :    0.077059
  23 H :    0.022191
  24 H :    0.033101
  25 C :   -0.132245
  26 H :    0.041613
  27 H :    0.027804
  28 C :   -0.034821
  29 H :    0.038519
  30 H :    0.025104
  31 H :    0.047829
  32 H :    0.038813
  33 H :    0.070249
Sum of atomic charges:   -0.0000000

LOEWDIN ATOMIC CHARGES
----------------------
   0 S :    0.448616
   1 C :   -0.227322
   2 C :   -0.068918
   3 C :   -0.062155
   4 C :   -0.198931
   5 H :    0.012672
   6 C :   -0.028462
   7 H :    0.030650
   8 H :    0.034536
   9 C :   -0.040925
  10 H :    0.016467
  11 H :    0.019934
  12 C :   -0.067736
  13 H :    0.025752
  14 H :    0.026761
  15 H :    0.035701
  16 S :    0.411989
  17 C :   -0.195101
  18 C :   -0.076924
  19 C :   -0.049406
  20 C :   -0.193893
  21 H :    0.031454
  22 C :   -0.042651
  23 H :    0.031941
  24 H :    0.032468
  25 C :   -0.042175
  26 H :    0.027726
  27 H :    0.020614
  28 C :   -0.061725
  29 H :    0.032754
  30 H :    0.013204
  31 H :    0.037669
  32 H :    0.031426
  33 H :    0.033990

  Mayer bond orders larger than 0.100000
B(  0-S ,  1-C ) :   1.1565 B(  0-S ,  4-C ) :   1.1516 B(  1-C ,  2-C ) :   1.6111
B(  1-C , 32-H ) :   0.9585 B(  2-C ,  3-C ) :   1.2404 B(  2-C ,  6-C ) :   1.0172
B(  3-C ,  4-C ) :   1.5956 B(  3-C ,  5-H ) :   1.0099 B(  4-C , 20-C ) :   1.0059
B(  6-C ,  7-H ) :   0.9399 B(  6-C ,  8-H ) :   0.9272 B(  6-C ,  9-C ) :   1.0916
B(  9-C , 10-H ) :   0.9534 B(  9-C , 11-H ) :   0.9502 B(  9-C , 12-C ) :   1.0636
B( 12-C , 13-H ) :   0.9750 B( 12-C , 14-H ) :   0.9773 B( 12-C , 15-H ) :   0.9754
B( 16-S , 17-C ) :   1.1740 B( 16-S , 20-C ) :   1.1376 B( 17-C , 18-C ) :   1.6071
B( 17-C , 33-H ) :   0.9587 B( 18-C , 19-C ) :   1.2243 B( 18-C , 21-H ) :   0.9939
B( 19-C , 20-C ) :   1.5905 B( 19-C , 22-C ) :   1.0532 B( 22-C , 23-H ) :   0.9120
B( 22-C , 24-H ) :   0.9343 B( 22-C , 25-C ) :   1.0789 B( 25-C , 26-H ) :   0.9584
B( 25-C , 27-H ) :   0.9441 B( 25-C , 28-C ) :   1.0914 B( 28-C , 29-H ) :   0.9737
B( 28-C , 30-H ) :   0.9741 B( 28-C , 31-H ) :   0.9714

Dispersion correction           -0.013961177
FINAL SINGLE POINT ENERGY     -1339.874260775108

DIPOLE MOMENT
-------------
                                X             Y             Z
Electronic contribution:      9.37827      -3.97316      -4.12053
Nuclear contribution   :     -9.63345       3.97064       4.00600
                        -----------------------------------------
Total Dipole Moment    :     -0.25518      -0.00252      -0.11452
                        -----------------------------------------
Magnitude (a.u.)       :      0.27971
Magnitude (Debye)      :      0.71096

Rotational constants in cm-1:     0.022697     0.007805     0.006301
Rotational constants in MHz :   680.443502   233.996138   188.888568

                             ****ORCA TERMINATED NORMALLY****
TOTAL RUN TIME: 0 days 0 hours 0 minutes 21 seconds 434 msec
