                         Program Version 4.2.1 -  RELEASE  -
|  1> ! wB97X-D3 SP def2-SVP
|  2> %pal
|  3> nprocs 24
|  4> end
|  5>
|  6> * xyz 0 1
|  7> S 	 -106.907 	 70.358 	 -7.03703
|  8> C 	 -106.657 	 71.5223 	 -8.28119
|  9> C 	 -106.185 	 71.0271 	 -9.44816
| 10> C 	 -106.095 	 69.5612 	 -9.37336
| 11> C 	 -106.436 	 69.0448 	 -8.13257
| 12> H 	 -105.794 	 68.9769 	 -10.1847
| 13> C 	 -106.09 	 71.7262 	 -10.7608
| 14> H 	 -106.562 	 72.6819 	 -10.6215
| 15> H 	 -106.782 	 71.2601 	 -11.4517
| 16> C 	 -104.8 	 71.7214 	 -11.571
| 17> H 	 -103.97 	 72.0913 	 -10.9941
| 18> H 	 -104.649 	 70.7181 	 -11.821
| 19> C 	 -104.965 	 72.3024 	 -13.0439
| 20> H 	 -105.009 	 73.4192 	 -12.9372
| 21> H 	 -104.009 	 72.1654 	 -13.6641
| 22> H 	 -105.757 	 71.8822 	 -13.6933
| 23> S 	 -105.681 	 67.2493 	 -6.22421
| 24> C 	 -106.177 	 65.5997 	 -6.48566
| 25> C 	 -106.812 	 65.364 	 -7.67669
| 26> C 	 -106.938 	 66.5248 	 -8.45411
| 27> C 	 -106.382 	 67.624 	 -7.7702
| 28> H 	 -107.217 	 64.4043 	 -7.94504
| 29> C 	 -107.807 	 66.5289 	 -9.6782
| 30> H 	 -107.214 	 65.9727 	 -10.4426
| 31> H 	 -107.837 	 67.5086 	 -10.1205
| 32> C 	 -109.216 	 65.949 	 -9.57278
| 33> H 	 -109.126 	 64.8255 	 -9.46624
| 34> H 	 -109.737 	 66.1338 	 -10.533
| 35> C 	 -109.95 	 66.3374 	 -8.35533
| 36> H 	 -109.35 	 66.2591 	 -7.50396
| 37> H 	 -110.845 	 65.7382 	 -8.30191
| 38> H 	 -110.368 	 67.364 	 -8.51235
| 39> H 	 -106.792 	 72.5989 	 -8.11467
| 40> H 	 -106.008 	 64.7641 	 -5.84962
| 41> *
| 42>
| 43>                          ****END OF INPUT****

CARTESIAN COORDINATES (ANGSTROEM)
---------------------------------
  S    -106.907000   70.358000   -7.037030
  C    -106.657000   71.522300   -8.281190
  C    -106.185000   71.027100   -9.448160
  C    -106.095000   69.561200   -9.373360
  C    -106.436000   69.044800   -8.132570
  H    -105.794000   68.976900  -10.184700
  C    -106.090000   71.726200  -10.760800
  H    -106.562000   72.681900  -10.621500
  H    -106.782000   71.260100  -11.451700
  C    -104.800000   71.721400  -11.571000
  H    -103.970000   72.091300  -10.994100
  H    -104.649000   70.718100  -11.821000
  C    -104.965000   72.302400  -13.043900
  H    -105.009000   73.419200  -12.937200
  H    -104.009000   72.165400  -13.664100
  H    -105.757000   71.882200  -13.693300
  S    -105.681000   67.249300   -6.224210
  C    -106.177000   65.599700   -6.485660
  C    -106.812000   65.364000   -7.676690
  C    -106.938000   66.524800   -8.454110
  C    -106.382000   67.624000   -7.770200
  H    -107.217000   64.404300   -7.945040
  C    -107.807000   66.528900   -9.678200
  H    -107.214000   65.972700  -10.442600
  H    -107.837000   67.508600  -10.120500
  C    -109.216000   65.949000   -9.572780
  H    -109.126000   64.825500   -9.466240
  H    -109.737000   66.133800  -10.533000
  C    -109.950000   66.337400   -8.355330
  H    -109.350000   66.259100   -7.503960
  H    -110.845000   65.738200   -8.301910
  H    -110.368000   67.364000   -8.512350
  H    -106.792000   72.598900   -8.114670
  H    -106.008000   64.764100   -5.849620

 Total Charge           Charge          ....    0
 Multiplicity           Mult            ....    1
 Number of Electrons    NEL             ....  134
 Basis Dimension        Dim             ....  322

ORBITAL ENERGIES
----------------

  NO   OCC          E(Eh)            E(eV)
   0   2.0000     -88.972004     -2421.0513
   1   2.0000     -88.965163     -2420.8652
   2   2.0000     -10.328880      -281.0631
   3   2.0000     -10.326663      -281.0028
   4   2.0000     -10.312268      -280.6111
   5   2.0000     -10.310312      -280.5578
   6   2.0000     -10.300848      -280.3003
   7   2.0000     -10.297057      -280.1972
   8   2.0000     -10.295344      -280.1505
   9   2.0000     -10.289255      -279.9849
  10   2.0000     -10.288873      -279.9745
  11   2.0000     -10.288248      -279.9575
  12   2.0000     -10.287502      -279.9372
  13   2.0000     -10.286659      -279.9142
  14   2.0000     -10.286456      -279.9087
  15   2.0000     -10.265325      -279.3337
  16   2.0000      -8.086820      -220.0536
  17   2.0000      -8.080119      -219.8712
  18   2.0000      -6.045164      -164.4973
  19   2.0000      -6.041479      -164.3970
  20   2.0000      -6.038799      -164.3241
  21   2.0000      -6.037604      -164.2916
  22   2.0000      -6.034654      -164.2113
  23   2.0000      -6.030636      -164.1019
  24   2.0000      -1.007605       -27.4183
  25   2.0000      -0.985991       -26.8302
  26   2.0000      -0.916930       -24.9509
  27   2.0000      -0.911606       -24.8061
  28   2.0000      -0.869697       -23.6656
  29   2.0000      -0.856821       -23.3153
  30   2.0000      -0.844858       -22.9898
  31   2.0000      -0.814520       -22.1642
  32   2.0000      -0.784978       -21.3603
  33   2.0000      -0.771806       -21.0019
  34   2.0000      -0.710015       -19.3205
  35   2.0000      -0.698072       -18.9955
  36   2.0000      -0.688929       -18.7467
  37   2.0000      -0.662042       -18.0151
  38   2.0000      -0.640044       -17.4165
  39   2.0000      -0.621741       -16.9184
  40   2.0000      -0.596467       -16.2307
  41   2.0000      -0.576716       -15.6932
  42   2.0000      -0.560483       -15.2515
  43   2.0000      -0.556602       -15.1459
  44   2.0000      -0.547986       -14.9115
  45   2.0000      -0.519827       -14.1452
  46   2.0000      -0.513955       -13.9854
  47   2.0000      -0.506320       -13.7777
  48   2.0000      -0.505161       -13.7461
  49   2.0000      -0.495764       -13.4904
  50   2.0000      -0.490757       -13.3542
  51   2.0000      -0.481297       -13.0967
  52   2.0000      -0.469826       -12.7846
  53   2.0000      -0.462042       -12.5728
  54   2.0000      -0.459593       -12.5062
  55   2.0000      -0.452852       -12.3227
  56   2.0000      -0.449961       -12.2441
  57   2.0000      -0.437836       -11.9141
  58   2.0000      -0.434915       -11.8346
  59   2.0000      -0.433119       -11.7858
  60   2.0000      -0.426839       -11.6149
  61   2.0000      -0.408835       -11.1250
  62   2.0000      -0.399690       -10.8761
  63   2.0000      -0.350502        -9.5376
  64   2.0000      -0.336771        -9.1640
  65   2.0000      -0.325670        -8.8619
  66   2.0000      -0.288181        -7.8418
  67   0.0000       0.032748         0.8911
  68   0.0000       0.075500         2.0544
  69   0.0000       0.109806         2.9880
  70   0.0000       0.115403         3.1403
  71   0.0000       0.130904         3.5621

MULLIKEN ATOMIC CHARGES
-----------------------
   0 S :    0.109613
   1 C :   -0.138935
   2 C :   -0.046440
   3 C :    0.035314
   4 C :   -0.134098
   5 H :   -0.007652
   6 C :    0.058828
   7 H :    0.002758
   8 H :    0.017228
   9 C :   -0.032587
  10 H :    0.037296
  11 H :    0.015431
  12 C :   -0.120045
  13 H :    0.042670
  14 H :    0.044253
  15 H :    0.050911
  16 S :    0.131543
  17 C :   -0.068349
  18 C :   -0.045884
  19 C :   -0.061403
  20 C :   -0.176262
  21 H :    0.011498
  22 C :    0.100034
  23 H :    0.032392
  24 H :    0.008848
  25 C :   -0.110362
  26 H :    0.022883
  27 H :    0.038202
  28 C :   -0.002109
  29 H :    0.041913
  30 H :    0.024069
  31 H :    0.028508
  32 H :    0.052177
  33 H :    0.037759
Sum of atomic charges:    0.0000000

LOEWDIN ATOMIC CHARGES
----------------------
   0 S :    0.395725
   1 C :   -0.202141
   2 C :   -0.065965
   3 C :   -0.051285
   4 C :   -0.187416
   5 H :    0.017656
   6 C :   -0.037494
   7 H :    0.023871
   8 H :    0.033931
   9 C :   -0.032332
  10 H :    0.024831
  11 H :    0.017443
  12 C :   -0.078197
  13 H :    0.027408
  14 H :    0.034706
  15 H :    0.029495
  16 S :    0.421269
  17 C :   -0.184238
  18 C :   -0.066404
  19 C :   -0.056988
  20 C :   -0.200359
  21 H :    0.030555
  22 C :   -0.038040
  23 H :    0.039160
  24 H :    0.024640
  25 C :   -0.045754
  26 H :    0.023002
  27 H :    0.030645
  28 C :   -0.059478
  29 H :    0.021335
  30 H :    0.025679
  31 H :    0.030511
  32 H :    0.031861
  33 H :    0.022367

  Mayer bond orders larger than 0.100000
B(  0-S ,  1-C ) :   1.1269 B(  0-S ,  4-C ) :   1.1278 B(  1-C ,  2-C ) :   1.6483
B(  1-C , 32-H ) :   0.9564 B(  2-C ,  3-C ) :   1.2018 B(  2-C ,  6-C ) :   1.0391
B(  3-C ,  4-C ) :   1.5957 B(  3-C ,  5-H ) :   1.0018 B(  4-C , 20-C ) :   1.0483
B(  6-C ,  7-H ) :   0.9414 B(  6-C ,  8-H ) :   0.9380 B(  6-C ,  9-C ) :   1.0468
B(  9-C , 10-H ) :   0.9613 B(  9-C , 11-H ) :   0.9542 B(  9-C , 12-C ) :   1.0686
B( 12-C , 13-H ) :   0.9789 B( 12-C , 14-H ) :   0.9766 B( 12-C , 15-H ) :   0.9735
B( 16-S , 17-C ) :   1.1474 B( 16-S , 20-C ) :   1.1542 B( 17-C , 18-C ) :   1.6162
B( 17-C , 33-H ) :   0.9660 B( 18-C , 19-C ) :   1.2531 B( 18-C , 21-H ) :   0.9914
B( 19-C , 20-C ) :   1.5697 B( 19-C , 22-C ) :   1.0475 B( 22-C , 23-H ) :   0.9232
B( 22-C , 24-H ) :   0.9246 B( 22-C , 25-C ) :   1.0724 B( 25-C , 26-H ) :   0.9486
B( 25-C , 27-H ) :   0.9522 B( 25-C , 28-C ) :   1.0928 B( 28-C , 29-H ) :   0.9655
B( 28-C , 30-H ) :   0.9701 B( 28-C , 31-H ) :   0.9713

Dispersion correction           -0.014280171
FINAL SINGLE POINT ENERGY     -1339.871641683332

DIPOLE MOMENT
-------------
                                X             Y             Z
Electronic contribution:      6.60831      -2.36479      25.16692
Nuclear contribution   :     -6.79333       2.21163     -25.79111
                        -----------------------------------------
Total Dipole Moment    :     -0.18502      -0.15316      -0.62419
                        -----------------------------------------
Magnitude (a.u.)       :      0.66881
Magnitude (Debye)      :      1.69997

Rotational constants in cm-1:     0.020074     0.007789     0.006787
Rotational constants in MHz :   601.791539   233.493552   203.473604

                             ****ORCA TERMINATED NORMALLY****
TOTAL RUN TIME: 0 days 0 hours 0 minutes 21 seconds 601 msec
