                         Program Version 4.2.1 -  RELEASE  -
|  1> ! wB97X-D3 SP def2-SVP
|  2> %pal
|  3> nprocs 24
|  4> end
|  5>
|  6> * xyz 0 1
|  7> S 	 46.0106 	 -18.1211 	 -111.938
|  8> C 	 47.2887 	 -18.6131 	 -110.856
|  9> C 	 46.7206 	 -19.4048 	 -109.82
| 10> C 	 45.3339 	 -19.5988 	 -110.011
| 11> C 	 44.8202 	 -19.205 	 -111.204
| 12> H 	 44.6789 	 -20.083 	 -109.333
| 13> C 	 47.3704 	 -19.7799 	 -108.496
| 14> H 	 46.5994 	 -20.2451 	 -107.831
| 15> H 	 47.6169 	 -18.8333 	 -107.981
| 16> C 	 48.6702 	 -20.6611 	 -108.626
| 17> H 	 49.3602 	 -20.1903 	 -109.31
| 18> H 	 49.1035 	 -20.6414 	 -107.631
| 19> C 	 48.3281 	 -22.0549 	 -109.109
| 20> H 	 49.2041 	 -22.7462 	 -109.03
| 21> H 	 47.5085 	 -22.5333 	 -108.57
| 22> H 	 48.0552 	 -22.079 	 -110.221
| 23> S 	 42.4225 	 -18.0927 	 -111.884
| 24> C 	 41.0654 	 -19.1753 	 -112.3
| 25> C 	 41.3952 	 -20.5204 	 -112.031
| 26> C 	 42.7486 	 -20.6872 	 -111.627
| 27> C 	 43.4491 	 -19.4736 	 -111.545
| 28> H 	 40.7704 	 -21.366 	 -112.221
| 29> C 	 43.3896 	 -22.0609 	 -111.468
| 30> H 	 42.4859 	 -22.7271 	 -111.315
| 31> H 	 43.9608 	 -22.1789 	 -110.538
| 32> C 	 44.224 	 -22.5684 	 -112.721
| 33> H 	 43.6889 	 -22.3771 	 -113.663
| 34> H 	 44.434 	 -23.6018 	 -112.711
| 35> C 	 45.5744 	 -21.8408 	 -112.954
| 36> H 	 46.0974 	 -22.3911 	 -113.658
| 37> H 	 46.1035 	 -21.8045 	 -111.935
| 38> H 	 45.327 	 -20.7918 	 -113.232
| 39> H 	 48.3292 	 -18.3616 	 -110.865
| 40> H 	 40.0708 	 -18.7563 	 -112.67
| 41> *
| 42>
| 43>                          ****END OF INPUT****

CARTESIAN COORDINATES (ANGSTROEM)
---------------------------------
  S     46.010600  -18.121100  -111.938000
  C     47.288700  -18.613100  -110.856000
  C     46.720600  -19.404800  -109.820000
  C     45.333900  -19.598800  -110.011000
  C     44.820200  -19.205000  -111.204000
  H     44.678900  -20.083000  -109.333000
  C     47.370400  -19.779900  -108.496000
  H     46.599400  -20.245100  -107.831000
  H     47.616900  -18.833300  -107.981000
  C     48.670200  -20.661100  -108.626000
  H     49.360200  -20.190300  -109.310000
  H     49.103500  -20.641400  -107.631000
  C     48.328100  -22.054900  -109.109000
  H     49.204100  -22.746200  -109.030000
  H     47.508500  -22.533300  -108.570000
  H     48.055200  -22.079000  -110.221000
  S     42.422500  -18.092700  -111.884000
  C     41.065400  -19.175300  -112.300000
  C     41.395200  -20.520400  -112.031000
  C     42.748600  -20.687200  -111.627000
  C     43.449100  -19.473600  -111.545000
  H     40.770400  -21.366000  -112.221000
  C     43.389600  -22.060900  -111.468000
  H     42.485900  -22.727100  -111.315000
  H     43.960800  -22.178900  -110.538000
  C     44.224000  -22.568400  -112.721000
  H     43.688900  -22.377100  -113.663000
  H     44.434000  -23.601800  -112.711000
  C     45.574400  -21.840800  -112.954000
  H     46.097400  -22.391100  -113.658000
  H     46.103500  -21.804500  -111.935000
  H     45.327000  -20.791800  -113.232000
  H     48.329200  -18.361600  -110.865000
  H     40.070800  -18.756300  -112.670000

 Total Charge           Charge          ....    0
 Multiplicity           Mult            ....    1
 Number of Electrons    NEL             ....  134
 Basis Dimension        Dim             ....  322

ORBITAL ENERGIES
----------------

  NO   OCC          E(Eh)            E(eV)
   0   2.0000     -88.970410     -2421.0079
   1   2.0000     -88.967868     -2420.9388
   2   2.0000     -10.330965      -281.1199
   3   2.0000     -10.327858      -281.0353
   4   2.0000     -10.324748      -280.9507
   5   2.0000     -10.318872      -280.7908
   6   2.0000     -10.306218      -280.4464
   7   2.0000     -10.301807      -280.3264
   8   2.0000     -10.300752      -280.2977
   9   2.0000     -10.299973      -280.2765
  10   2.0000     -10.298372      -280.2329
  11   2.0000     -10.290630      -280.0223
  12   2.0000     -10.284146      -279.8458
  13   2.0000     -10.283950      -279.8405
  14   2.0000     -10.282450      -279.7997
  15   2.0000     -10.269742      -279.4539
  16   2.0000      -8.084063      -219.9785
  17   2.0000      -8.082037      -219.9234
  18   2.0000      -6.042762      -164.4319
  19   2.0000      -6.040531      -164.3712
  20   2.0000      -6.038668      -164.3205
  21   2.0000      -6.036580      -164.2637
  22   2.0000      -6.034713      -164.2129
  23   2.0000      -6.032898      -164.1635
  24   2.0000      -1.006272       -27.3821
  25   2.0000      -0.980527       -26.6815
  26   2.0000      -0.907510       -24.6946
  27   2.0000      -0.897463       -24.4212
  28   2.0000      -0.870770       -23.6948
  29   2.0000      -0.850399       -23.1405
  30   2.0000      -0.844192       -22.9716
  31   2.0000      -0.809404       -22.0250
  32   2.0000      -0.776940       -21.1416
  33   2.0000      -0.765888       -20.8409
  34   2.0000      -0.707679       -19.2569
  35   2.0000      -0.697031       -18.9672
  36   2.0000      -0.685997       -18.6669
  37   2.0000      -0.666025       -18.1235
  38   2.0000      -0.642092       -17.4722
  39   2.0000      -0.610978       -16.6256
  40   2.0000      -0.591413       -16.0932
  41   2.0000      -0.573760       -15.6128
  42   2.0000      -0.554886       -15.0992
  43   2.0000      -0.546590       -14.8735
  44   2.0000      -0.543828       -14.7983
  45   2.0000      -0.527595       -14.3566
  46   2.0000      -0.513551       -13.9744
  47   2.0000      -0.505362       -13.7516
  48   2.0000      -0.502941       -13.6857
  49   2.0000      -0.496646       -13.5144
  50   2.0000      -0.485960       -13.2237
  51   2.0000      -0.477522       -12.9940
  52   2.0000      -0.474501       -12.9118
  53   2.0000      -0.462835       -12.5944
  54   2.0000      -0.456842       -12.4313
  55   2.0000      -0.444781       -12.1031
  56   2.0000      -0.439622       -11.9627
  57   2.0000      -0.437742       -11.9116
  58   2.0000      -0.432772       -11.7763
  59   2.0000      -0.422880       -11.5071
  60   2.0000      -0.417654       -11.3649
  61   2.0000      -0.411591       -11.2000
  62   2.0000      -0.408020       -11.1028
  63   2.0000      -0.346145        -9.4191
  64   2.0000      -0.334678        -9.1071
  65   2.0000      -0.323917        -8.8142
  66   2.0000      -0.288671        -7.8551
  67   0.0000       0.021643         0.5889
  68   0.0000       0.061637         1.6772
  69   0.0000       0.103298         2.8109
  70   0.0000       0.122316         3.3284
  71   0.0000       0.126707         3.4479

MULLIKEN ATOMIC CHARGES
-----------------------
   0 S :    0.122883
   1 C :   -0.108899
   2 C :   -0.075686
   3 C :    0.023355
   4 C :   -0.147531
   5 H :    0.003715
   6 C :    0.007831
   7 H :    0.030072
   8 H :    0.045531
   9 C :   -0.039427
  10 H :    0.027431
  11 H :    0.030931
  12 C :   -0.089276
  13 H :    0.037513
  14 H :    0.030262
  15 H :    0.057847
  16 S :    0.106327
  17 C :   -0.128592
  18 C :   -0.008201
  19 C :   -0.049802
  20 C :   -0.180921
  21 H :    0.015104
  22 C :    0.053065
  23 H :    0.023554
  24 H :    0.033053
  25 C :   -0.063680
  26 H :    0.025330
  27 H :    0.021612
  28 C :   -0.048681
  29 H :    0.025358
  30 H :    0.038445
  31 H :    0.047365
  32 H :    0.045755
  33 H :    0.088357
Sum of atomic charges:    0.0000000

LOEWDIN ATOMIC CHARGES
----------------------
   0 S :    0.409573
   1 C :   -0.198253
   2 C :   -0.065546
   3 C :   -0.057806
   4 C :   -0.197827
   5 H :    0.024506
   6 C :   -0.034526
   7 H :    0.031289
   8 H :    0.034899
   9 C :   -0.037539
  10 H :    0.022523
  11 H :    0.024943
  12 C :   -0.076860
  13 H :    0.029140
  14 H :    0.022411
  15 H :    0.036161
  16 S :    0.396016
  17 C :   -0.186770
  18 C :   -0.065438
  19 C :   -0.059783
  20 C :   -0.194203
  21 H :    0.030001
  22 C :   -0.034575
  23 H :    0.035438
  24 H :    0.028779
  25 C :   -0.035194
  26 H :    0.025571
  27 H :    0.014841
  28 C :   -0.062719
  29 H :    0.013528
  30 H :    0.030187
  31 H :    0.026093
  32 H :    0.027534
  33 H :    0.043606

  Mayer bond orders larger than 0.100000
B(  0-S ,  1-C ) :   1.1492 B(  0-S ,  4-C ) :   1.1297 B(  1-C ,  2-C ) :   1.5599
B(  1-C ,  4-C ) :   0.1047 B(  1-C , 32-H ) :   0.9732 B(  2-C ,  3-C ) :   1.2664
B(  2-C ,  6-C ) :   1.0106 B(  3-C ,  4-C ) :   1.5518 B(  3-C ,  5-H ) :   0.9970
B(  4-C , 20-C ) :   1.0740 B(  6-C ,  7-H ) :   0.9526 B(  6-C ,  8-H ) :   0.9427
B(  6-C ,  9-C ) :   1.0652 B(  9-C , 10-H ) :   0.9578 B(  9-C , 11-H ) :   0.9551
B(  9-C , 12-C ) :   1.0740 B( 12-C , 13-H ) :   0.9716 B( 12-C , 14-H ) :   0.9771
B( 12-C , 15-H ) :   0.9690 B( 16-S , 17-C ) :   1.1542 B( 16-S , 20-C ) :   1.1499
B( 17-C , 18-C ) :   1.5737 B( 17-C , 20-C ) :   0.1087 B( 17-C , 33-H ) :   0.9604
B( 18-C , 19-C ) :   1.2801 B( 18-C , 21-H ) :   0.9855 B( 19-C , 20-C ) :   1.5648
B( 19-C , 22-C ) :   1.0389 B( 22-C , 23-H ) :   0.9311 B( 22-C , 24-H ) :   0.9384
B( 22-C , 25-C ) :   1.0586 B( 25-C , 26-H ) :   0.9565 B( 25-C , 27-H ) :   0.9606
B( 25-C , 28-C ) :   1.0812 B( 28-C , 29-H ) :   0.9721 B( 28-C , 30-H ) :   0.9722
B( 28-C , 31-H ) :   0.9658

Dispersion correction           -0.016656634
FINAL SINGLE POINT ENERGY     -1339.872572416903

DIPOLE MOMENT
-------------
                                X             Y             Z
Electronic contribution:    -14.64811      22.11659      -7.22766
Nuclear contribution   :     14.77505     -22.60653       7.58418
                        -----------------------------------------
Total Dipole Moment    :      0.12694      -0.48993       0.35652
                        -----------------------------------------
Magnitude (a.u.)       :      0.61907
Magnitude (Debye)      :      1.57356

Rotational constants in cm-1:     0.021820     0.009367     0.007821
Rotational constants in MHz :   654.151614   280.822424   234.479276

                             ****ORCA TERMINATED NORMALLY****
TOTAL RUN TIME: 0 days 0 hours 0 minutes 24 seconds 636 msec
