                         Program Version 4.2.1 -  RELEASE  -
|  1> ! wB97X-D3 SP def2-SVP
|  2> %pal
|  3> nprocs 24
|  4> end
|  5>
|  6> * xyz 0 1
|  7> S 	 -146.088 	 13.2676 	 -9.26485
|  8> C 	 -144.811 	 13.2569 	 -8.04271
|  9> C 	 -145.308 	 12.5837 	 -6.90394
| 10> C 	 -146.609 	 12.0499 	 -7.16108
| 11> C 	 -147.097 	 12.1796 	 -8.41813
| 12> H 	 -147.122 	 11.3497 	 -6.48738
| 13> C 	 -144.685 	 12.4811 	 -5.5129
| 14> H 	 -145.354 	 11.9207 	 -4.78846
| 15> H 	 -144.624 	 13.5468 	 -5.23363
| 16> C 	 -143.323 	 11.9116 	 -5.46724
| 17> H 	 -143.503 	 10.8096 	 -5.48758
| 18> H 	 -142.732 	 12.1377 	 -6.38354
| 19> C 	 -142.546 	 12.4127 	 -4.25351
| 20> H 	 -142.876 	 12.0943 	 -3.22673
| 21> H 	 -141.492 	 12.1634 	 -4.33656
| 22> H 	 -142.621 	 13.4945 	 -4.23407
| 23> S 	 -148.691 	 10.6434 	 -9.96603
| 24> C 	 -150.428 	 10.6319 	 -9.75699
| 25> C 	 -150.804 	 11.6592 	 -8.91473
| 26> C 	 -149.665 	 12.365 	 -8.42189
| 27> C 	 -148.439 	 11.8263 	 -8.76019
| 28> H 	 -151.856 	 11.8078 	 -8.73082
| 29> C 	 -149.925 	 13.4565 	 -7.43685
| 30> H 	 -148.993 	 13.7627 	 -6.87716
| 31> H 	 -150.558 	 13.0171 	 -6.65824
| 32> C 	 -150.451 	 14.7698 	 -8.03688
| 33> H 	 -151.429 	 14.491 	 -8.5667
| 34> H 	 -149.765 	 15.0439 	 -8.92522
| 35> C 	 -150.635 	 15.9029 	 -7.01982
| 36> H 	 -149.789 	 16.0671 	 -6.37426
| 37> H 	 -151.372 	 15.683 	 -6.25577
| 38> H 	 -150.852 	 16.8366 	 -7.49366
| 39> H 	 -143.865 	 13.7704 	 -8.1794
| 40> H 	 -151.119 	 9.88297 	 -10.1158
| 41> *
| 42>
| 43>                          ****END OF INPUT****

CARTESIAN COORDINATES (ANGSTROEM)
---------------------------------
  S    -146.088000   13.267600   -9.264850
  C    -144.811000   13.256900   -8.042710
  C    -145.308000   12.583700   -6.903940
  C    -146.609000   12.049900   -7.161080
  C    -147.097000   12.179600   -8.418130
  H    -147.122000   11.349700   -6.487380
  C    -144.685000   12.481100   -5.512900
  H    -145.354000   11.920700   -4.788460
  H    -144.624000   13.546800   -5.233630
  C    -143.323000   11.911600   -5.467240
  H    -143.503000   10.809600   -5.487580
  H    -142.732000   12.137700   -6.383540
  C    -142.546000   12.412700   -4.253510
  H    -142.876000   12.094300   -3.226730
  H    -141.492000   12.163400   -4.336560
  H    -142.621000   13.494500   -4.234070
  S    -148.691000   10.643400   -9.966030
  C    -150.428000   10.631900   -9.756990
  C    -150.804000   11.659200   -8.914730
  C    -149.665000   12.365000   -8.421890
  C    -148.439000   11.826300   -8.760190
  H    -151.856000   11.807800   -8.730820
  C    -149.925000   13.456500   -7.436850
  H    -148.993000   13.762700   -6.877160
  H    -150.558000   13.017100   -6.658240
  C    -150.451000   14.769800   -8.036880
  H    -151.429000   14.491000   -8.566700
  H    -149.765000   15.043900   -8.925220
  C    -150.635000   15.902900   -7.019820
  H    -149.789000   16.067100   -6.374260
  H    -151.372000   15.683000   -6.255770
  H    -150.852000   16.836600   -7.493660
  H    -143.865000   13.770400   -8.179400
  H    -151.119000    9.882970  -10.115800

 Total Charge           Charge          ....    0
 Multiplicity           Mult            ....    1
 Number of Electrons    NEL             ....  134
 Basis Dimension        Dim             ....  322

ORBITAL ENERGIES
----------------

  NO   OCC          E(Eh)            E(eV)
   0   2.0000     -88.964462     -2420.8461
   1   2.0000     -88.960955     -2420.7506
   2   2.0000     -10.321440      -280.8607
   3   2.0000     -10.320940      -280.8471
   4   2.0000     -10.319986      -280.8211
   5   2.0000     -10.316586      -280.7286
   6   2.0000     -10.306496      -280.4540
   7   2.0000     -10.300572      -280.2928
   8   2.0000     -10.296273      -280.1758
   9   2.0000     -10.295294      -280.1492
  10   2.0000     -10.292576      -280.0752
  11   2.0000     -10.289074      -279.9799
  12   2.0000     -10.288617      -279.9675
  13   2.0000     -10.287052      -279.9249
  14   2.0000     -10.282020      -279.7880
  15   2.0000     -10.274120      -279.5730
  16   2.0000      -8.079605      -219.8572
  17   2.0000      -8.076768      -219.7800
  18   2.0000      -6.038123      -164.3057
  19   2.0000      -6.035199      -164.2261
  20   2.0000      -6.033880      -164.1902
  21   2.0000      -6.031014      -164.1122
  22   2.0000      -6.030492      -164.0980
  23   2.0000      -6.027642      -164.0205
  24   2.0000      -1.014927       -27.6176
  25   2.0000      -0.989390       -26.9227
  26   2.0000      -0.920408       -25.0456
  27   2.0000      -0.904843       -24.6220
  28   2.0000      -0.875352       -23.8195
  29   2.0000      -0.848531       -23.0897
  30   2.0000      -0.846650       -23.0385
  31   2.0000      -0.816625       -22.2215
  32   2.0000      -0.781245       -21.2588
  33   2.0000      -0.770467       -20.9655
  34   2.0000      -0.706197       -19.2166
  35   2.0000      -0.699780       -19.0420
  36   2.0000      -0.690641       -18.7933
  37   2.0000      -0.662249       -18.0207
  38   2.0000      -0.644983       -17.5509
  39   2.0000      -0.617850       -16.8126
  40   2.0000      -0.594914       -16.1884
  41   2.0000      -0.578404       -15.7392
  42   2.0000      -0.564712       -15.3666
  43   2.0000      -0.551869       -15.0171
  44   2.0000      -0.527698       -14.3594
  45   2.0000      -0.525695       -14.3049
  46   2.0000      -0.517727       -14.0881
  47   2.0000      -0.515586       -14.0298
  48   2.0000      -0.514539       -14.0013
  49   2.0000      -0.501200       -13.6383
  50   2.0000      -0.492368       -13.3980
  51   2.0000      -0.477741       -13.0000
  52   2.0000      -0.471969       -12.8429
  53   2.0000      -0.464481       -12.6392
  54   2.0000      -0.458979       -12.4895
  55   2.0000      -0.445474       -12.1220
  56   2.0000      -0.442345       -12.0368
  57   2.0000      -0.435300       -11.8451
  58   2.0000      -0.431925       -11.7533
  59   2.0000      -0.421434       -11.4678
  60   2.0000      -0.417024       -11.3478
  61   2.0000      -0.416549       -11.3349
  62   2.0000      -0.401554       -10.9268
  63   2.0000      -0.336807        -9.1650
  64   2.0000      -0.328807        -8.9473
  65   2.0000      -0.324611        -8.8331
  66   2.0000      -0.306178        -8.3315
  67   0.0000       0.040993         1.1155
  68   0.0000       0.055630         1.5138
  69   0.0000       0.114790         3.1236
  70   0.0000       0.121793         3.3141
  71   0.0000       0.131903         3.5893

MULLIKEN ATOMIC CHARGES
-----------------------
   0 S :    0.114296
   1 C :   -0.143207
   2 C :   -0.070022
   3 C :   -0.008742
   4 C :   -0.109374
   5 H :    0.021190
   6 C :    0.054481
   7 H :    0.040858
   8 H :    0.036068
   9 C :   -0.091116
  10 H :    0.038111
  11 H :    0.036349
  12 C :   -0.050309
  13 H :    0.037264
  14 H :    0.035007
  15 H :    0.022158
  16 S :    0.105892
  17 C :   -0.092450
  18 C :   -0.038735
  19 C :   -0.007889
  20 C :   -0.184257
  21 H :    0.025143
  22 C :    0.026834
  23 H :    0.024983
  24 H :    0.031286
  25 C :   -0.119965
  26 H :    0.029551
  27 H :    0.045874
  28 C :    0.003526
  29 H :    0.016625
  30 H :    0.020457
  31 H :    0.035527
  32 H :    0.056597
  33 H :    0.057987
Sum of atomic charges:    0.0000000

LOEWDIN ATOMIC CHARGES
----------------------
   0 S :    0.422167
   1 C :   -0.196977
   2 C :   -0.058452
   3 C :   -0.067015
   4 C :   -0.220273
   5 H :    0.034056
   6 C :   -0.037185
   7 H :    0.037906
   8 H :    0.034282
   9 C :   -0.050965
  10 H :    0.031297
  11 H :    0.028588
  12 C :   -0.068606
  13 H :    0.029867
  14 H :    0.026180
  15 H :    0.022351
  16 S :    0.424356
  17 C :   -0.182381
  18 C :   -0.070646
  19 C :   -0.054879
  20 C :   -0.216216
  21 H :    0.033686
  22 C :   -0.044316
  23 H :    0.031505
  24 H :    0.029771
  25 C :   -0.048242
  26 H :    0.024802
  27 H :    0.034888
  28 C :   -0.066718
  29 H :    0.024171
  30 H :    0.026832
  31 H :    0.026379
  32 H :    0.028854
  33 H :    0.030932

  Mayer bond orders larger than 0.100000
B(  0-S ,  1-C ) :   1.1538 B(  0-S ,  4-C ) :   1.1620 B(  1-C ,  2-C ) :   1.5553
B(  1-C ,  4-C ) :   0.1032 B(  1-C , 32-H ) :   0.9760 B(  2-C ,  3-C ) :   1.2724
B(  2-C ,  6-C ) :   1.0046 B(  3-C ,  4-C ) :   1.5625 B(  3-C ,  5-H ) :   0.9934
B(  4-C , 20-C ) :   1.0209 B(  6-C ,  7-H ) :   0.9482 B(  6-C ,  8-H ) :   0.9384
B(  6-C ,  9-C ) :   1.0591 B(  9-C , 10-H ) :   0.9513 B(  9-C , 11-H ) :   0.9603
B(  9-C , 12-C ) :   1.0738 B( 12-C , 13-H ) :   0.9738 B( 12-C , 14-H ) :   0.9745
B( 12-C , 15-H ) :   0.9749 B( 16-S , 17-C ) :   1.1709 B( 16-S , 20-C ) :   1.1391
B( 17-C , 18-C ) :   1.5991 B( 17-C , 20-C ) :   0.1007 B( 17-C , 33-H ) :   0.9683
B( 18-C , 19-C ) :   1.2307 B( 18-C , 21-H ) :   0.9946 B( 19-C , 20-C ) :   1.5932
B( 19-C , 22-C ) :   1.0506 B( 22-C , 23-H ) :   0.9355 B( 22-C , 24-H ) :   0.9401
B( 22-C , 25-C ) :   1.0499 B( 25-C , 26-H ) :   0.9551 B( 25-C , 27-H ) :   0.9540
B( 25-C , 28-C ) :   1.0775 B( 28-C , 29-H ) :   0.9708 B( 28-C , 30-H ) :   0.9699
B( 28-C , 31-H ) :   0.9747

Dispersion correction           -0.013850753
FINAL SINGLE POINT ENERGY     -1339.874200526318

DIPOLE MOMENT
-------------
                                X             Y             Z
Electronic contribution:     -3.81169     -11.41860     -22.33099
Nuclear contribution   :      3.71633      11.58085      23.00572
                        -----------------------------------------
Total Dipole Moment    :     -0.09536       0.16225       0.67473
                        -----------------------------------------
Magnitude (a.u.)       :      0.70048
Magnitude (Debye)      :      1.78049

Rotational constants in cm-1:     0.019682     0.007513     0.006382
Rotational constants in MHz :   590.047639   225.247712   191.336731

                             ****ORCA TERMINATED NORMALLY****
TOTAL RUN TIME: 0 days 0 hours 0 minutes 21 seconds 173 msec
