                         Program Version 4.2.1 -  RELEASE  -
|  1> ! wB97X-D3 SP def2-SVP
|  2> %pal
|  3> nprocs 24
|  4> end
|  5>
|  6> * xyz 0 1
|  7> S 	 -27.2963 	 -33.4528 	 -96.507
|  8> C 	 -25.8064 	 -34.3256 	 -96.4253
|  9> C 	 -24.7586 	 -33.4529 	 -96.5094
| 10> C 	 -25.1727 	 -32.1284 	 -96.8073
| 11> C 	 -26.5346 	 -31.9687 	 -97.0182
| 12> H 	 -24.4722 	 -31.3472 	 -96.8608
| 13> C 	 -23.3589 	 -33.8479 	 -96.3229
| 14> H 	 -23.3462 	 -34.9549 	 -96.4476
| 15> H 	 -23.0325 	 -33.5916 	 -95.2896
| 16> C 	 -22.3731 	 -33.242 	 -97.3445
| 17> H 	 -22.8015 	 -33.1507 	 -98.4515
| 18> H 	 -22.1713 	 -32.1957 	 -97.0864
| 19> C 	 -20.9947 	 -33.9598 	 -97.2867
| 20> H 	 -21.0994 	 -34.9888 	 -97.4784
| 21> H 	 -20.3615 	 -33.6447 	 -98.0651
| 22> H 	 -20.482 	 -33.8048 	 -96.3949
| 23> S 	 -28.9462 	 -30.9499 	 -97.7745
| 24> C 	 -29.1038 	 -29.2894 	 -98.2825
| 25> C 	 -27.8802 	 -28.6736 	 -98.3409
| 26> C 	 -26.7891 	 -29.4765 	 -97.9454
| 27> C 	 -27.1903 	 -30.7609 	 -97.4921
| 28> H 	 -27.7607 	 -27.699 	 -98.8035
| 29> C 	 -25.366 	 -28.8955 	 -97.9066
| 30> H 	 -24.8313 	 -29.1373 	 -96.9583
| 31> H 	 -25.5292 	 -27.8054 	 -97.8625
| 32> C 	 -24.5443 	 -29.4718 	 -98.9812
| 33> H 	 -25.0036 	 -29.1835 	 -99.9401
| 34> H 	 -24.6406 	 -30.5159 	 -98.9372
| 35> C 	 -23.0015 	 -29.0638 	 -98.832
| 36> H 	 -22.8392 	 -27.9778 	 -98.904
| 37> H 	 -22.3197 	 -29.4967 	 -99.5753
| 38> H 	 -22.5451 	 -29.4253 	 -97.8816
| 39> H 	 -25.7056 	 -35.3327 	 -96.1038
| 40> H 	 -30.0257 	 -28.7272 	 -98.4696
| 41> *
| 42>
| 43>                          ****END OF INPUT****

CARTESIAN COORDINATES (ANGSTROEM)
---------------------------------
  S    -27.296300  -33.452800  -96.507000
  C    -25.806400  -34.325600  -96.425300
  C    -24.758600  -33.452900  -96.509400
  C    -25.172700  -32.128400  -96.807300
  C    -26.534600  -31.968700  -97.018200
  H    -24.472200  -31.347200  -96.860800
  C    -23.358900  -33.847900  -96.322900
  H    -23.346200  -34.954900  -96.447600
  H    -23.032500  -33.591600  -95.289600
  C    -22.373100  -33.242000  -97.344500
  H    -22.801500  -33.150700  -98.451500
  H    -22.171300  -32.195700  -97.086400
  C    -20.994700  -33.959800  -97.286700
  H    -21.099400  -34.988800  -97.478400
  H    -20.361500  -33.644700  -98.065100
  H    -20.482000  -33.804800  -96.394900
  S    -28.946200  -30.949900  -97.774500
  C    -29.103800  -29.289400  -98.282500
  C    -27.880200  -28.673600  -98.340900
  C    -26.789100  -29.476500  -97.945400
  C    -27.190300  -30.760900  -97.492100
  H    -27.760700  -27.699000  -98.803500
  C    -25.366000  -28.895500  -97.906600
  H    -24.831300  -29.137300  -96.958300
  H    -25.529200  -27.805400  -97.862500
  C    -24.544300  -29.471800  -98.981200
  H    -25.003600  -29.183500  -99.940100
  H    -24.640600  -30.515900  -98.937200
  C    -23.001500  -29.063800  -98.832000
  H    -22.839200  -27.977800  -98.904000
  H    -22.319700  -29.496700  -99.575300
  H    -22.545100  -29.425300  -97.881600
  H    -25.705600  -35.332700  -96.103800
  H    -30.025700  -28.727200  -98.469600

 Total Charge           Charge          ....    0
 Multiplicity           Mult            ....    1
 Number of Electrons    NEL             ....  134
 Basis Dimension        Dim             ....  322

ORBITAL ENERGIES
----------------

  NO   OCC          E(Eh)            E(eV)
   0   2.0000     -88.967001     -2420.9152
   1   2.0000     -88.965487     -2420.8740
   2   2.0000     -10.336781      -281.2781
   3   2.0000     -10.333936      -281.2007
   4   2.0000     -10.318959      -280.7932
   5   2.0000     -10.308151      -280.4991
   6   2.0000     -10.307557      -280.4829
   7   2.0000     -10.299975      -280.2766
   8   2.0000     -10.295584      -280.1571
   9   2.0000     -10.294434      -280.1258
  10   2.0000     -10.292954      -280.0855
  11   2.0000     -10.292716      -280.0790
  12   2.0000     -10.288567      -279.9661
  13   2.0000     -10.287082      -279.9257
  14   2.0000     -10.286429      -279.9080
  15   2.0000     -10.268369      -279.4165
  16   2.0000      -8.081265      -219.9024
  17   2.0000      -8.080590      -219.8840
  18   2.0000      -6.039821      -164.3519
  19   2.0000      -6.039252      -164.3364
  20   2.0000      -6.035821      -164.2430
  21   2.0000      -6.035102      -164.2235
  22   2.0000      -6.032022      -164.1397
  23   2.0000      -6.031093      -164.1144
  24   2.0000      -1.010274       -27.4909
  25   2.0000      -0.987645       -26.8752
  26   2.0000      -0.916361       -24.9355
  27   2.0000      -0.913404       -24.8550
  28   2.0000      -0.873733       -23.7755
  29   2.0000      -0.850597       -23.1459
  30   2.0000      -0.844603       -22.9828
  31   2.0000      -0.817425       -22.2433
  32   2.0000      -0.782751       -21.2997
  33   2.0000      -0.774073       -21.0636
  34   2.0000      -0.718077       -19.5399
  35   2.0000      -0.703485       -19.1428
  36   2.0000      -0.692465       -18.8429
  37   2.0000      -0.664032       -18.0692
  38   2.0000      -0.638987       -17.3877
  39   2.0000      -0.629342       -17.1253
  40   2.0000      -0.597323       -16.2540
  41   2.0000      -0.572936       -15.5904
  42   2.0000      -0.566541       -15.4164
  43   2.0000      -0.561957       -15.2916
  44   2.0000      -0.525513       -14.2999
  45   2.0000      -0.522005       -14.2045
  46   2.0000      -0.515819       -14.0361
  47   2.0000      -0.512019       -13.9327
  48   2.0000      -0.510041       -13.8789
  49   2.0000      -0.505382       -13.7521
  50   2.0000      -0.498418       -13.5627
  51   2.0000      -0.480517       -13.0755
  52   2.0000      -0.475752       -12.9459
  53   2.0000      -0.467921       -12.7328
  54   2.0000      -0.457068       -12.4374
  55   2.0000      -0.452043       -12.3007
  56   2.0000      -0.445363       -12.1189
  57   2.0000      -0.441285       -12.0080
  58   2.0000      -0.436444       -11.8763
  59   2.0000      -0.425584       -11.5807
  60   2.0000      -0.423448       -11.5226
  61   2.0000      -0.419490       -11.4149
  62   2.0000      -0.406061       -11.0495
  63   2.0000      -0.365459        -9.9446
  64   2.0000      -0.336204        -9.1486
  65   2.0000      -0.325810        -8.8657
  66   2.0000      -0.279299        -7.6001
  67   0.0000       0.012661         0.3445
  68   0.0000       0.092064         2.5052
  69   0.0000       0.095011         2.5854
  70   0.0000       0.120751         3.2858
  71   0.0000       0.124515         3.3882

MULLIKEN ATOMIC CHARGES
-----------------------
   0 S :    0.106126
   1 C :   -0.107041
   2 C :   -0.085539
   3 C :    0.007751
   4 C :   -0.065700
   5 H :   -0.039806
   6 C :    0.071471
   7 H :    0.022997
   8 H :    0.049170
   9 C :   -0.164056
  10 H :    0.057809
  11 H :    0.033703
  12 C :    0.019947
  13 H :    0.016259
  14 H :    0.016722
  15 H :    0.020083
  16 S :    0.088987
  17 C :   -0.077781
  18 C :   -0.041870
  19 C :   -0.068224
  20 C :   -0.130137
  21 H :    0.020693
  22 C :    0.037714
  23 H :    0.032285
  24 H :    0.026618
  25 C :   -0.039375
  26 H :    0.025302
  27 H :    0.024791
  28 C :   -0.062623
  29 H :    0.037263
  30 H :    0.035263
  31 H :    0.029702
  32 H :    0.037219
  33 H :    0.064279
Sum of atomic charges:   -0.0000000

LOEWDIN ATOMIC CHARGES
----------------------
   0 S :    0.411142
   1 C :   -0.199214
   2 C :   -0.067965
   3 C :   -0.064798
   4 C :   -0.189366
   5 H :    0.015860
   6 C :   -0.036913
   7 H :    0.033648
   8 H :    0.040535
   9 C :   -0.048464
  10 H :    0.038241
  11 H :    0.019278
  12 C :   -0.054690
  13 H :    0.019470
  14 H :    0.023409
  15 H :    0.018973
  16 S :    0.396100
  17 C :   -0.187748
  18 C :   -0.078886
  19 C :   -0.053276
  20 C :   -0.174289
  21 H :    0.033793
  22 C :   -0.034574
  23 H :    0.030340
  24 H :    0.030874
  25 C :   -0.036557
  26 H :    0.028213
  27 H :    0.018974
  28 C :   -0.072863
  29 H :    0.026826
  30 H :    0.026797
  31 H :    0.024598
  32 H :    0.024976
  33 H :    0.037555

  Mayer bond orders larger than 0.100000
B(  0-S ,  1-C ) :   1.1276 B(  0-S ,  4-C ) :   1.1496 B(  1-C ,  2-C ) :   1.5967
B(  1-C , 32-H ) :   0.9701 B(  2-C ,  3-C ) :   1.2753 B(  2-C ,  6-C ) :   1.0371
B(  3-C ,  4-C ) :   1.5140 B(  3-C ,  5-H ) :   1.0016 B(  4-C , 20-C ) :   1.1147
B(  6-C ,  7-H ) :   0.9462 B(  6-C ,  8-H ) :   0.9223 B(  6-C ,  9-C ) :   1.0543
B(  9-C , 10-H ) :   0.9629 B(  9-C , 11-H ) :   0.9451 B(  9-C , 12-C ) :   1.0854
B( 12-C , 13-H ) :   0.9745 B( 12-C , 14-H ) :   0.9700 B( 12-C , 15-H ) :   0.9723
B( 16-S , 17-C ) :   1.1576 B( 16-S , 20-C ) :   1.1359 B( 17-C , 18-C ) :   1.5961
B( 17-C , 20-C ) :   0.1050 B( 17-C , 33-H ) :   0.9621 B( 18-C , 19-C ) :   1.2885
B( 18-C , 21-H ) :   0.9810 B( 19-C , 20-C ) :   1.5408 B( 19-C , 22-C ) :   1.0256
B( 22-C , 23-H ) :   0.9414 B( 22-C , 24-H ) :   0.9373 B( 22-C , 25-C ) :   1.0491
B( 25-C , 26-H ) :   0.9476 B( 25-C , 27-H ) :   0.9568 B( 25-C , 28-C ) :   1.0655
B( 28-C , 29-H ) :   0.9765 B( 28-C , 30-H ) :   0.9772 B( 28-C , 31-H ) :   0.9723

Dispersion correction           -0.014859264
FINAL SINGLE POINT ENERGY     -1339.873484173926

DIPOLE MOMENT
-------------
                                X             Y             Z
Electronic contribution:    -33.54029      -4.30922       5.04092
Nuclear contribution   :     34.25833       4.59054      -5.09514
                        -----------------------------------------
Total Dipole Moment    :      0.71803       0.28132      -0.05422
                        -----------------------------------------
Magnitude (a.u.)       :      0.77308
Magnitude (Debye)      :      1.96501

Rotational constants in cm-1:     0.018562     0.009842     0.006604
Rotational constants in MHz :   556.473102   295.040820   197.980068

                             ****ORCA TERMINATED NORMALLY****
TOTAL RUN TIME: 0 days 0 hours 0 minutes 22 seconds 580 msec
