                         Program Version 4.2.1 -  RELEASE  -
|  1> ! wB97X-D3 SP def2-SVP
|  2> %pal
|  3> nprocs 24
|  4> end
|  5>
|  6> * xyz 0 1
|  7> S 	 -78.8036 	 -16.4921 	 -53.9611
|  8> C 	 -80.0273 	 -16.0398 	 -52.7299
|  9> C 	 -81.2251 	 -16.6499 	 -53.0235
| 10> C 	 -81.2042 	 -17.4548 	 -54.172
| 11> C 	 -79.9161 	 -17.5839 	 -54.7175
| 12> H 	 -82.0508 	 -18.0581 	 -54.6148
| 13> C 	 -82.4218 	 -16.4891 	 -52.1469
| 14> H 	 -82.0408 	 -16.3122 	 -51.0896
| 15> H 	 -82.8708 	 -17.4925 	 -52.2552
| 16> C 	 -83.4034 	 -15.4328 	 -52.6238
| 17> H 	 -82.7832 	 -14.5155 	 -52.7194
| 18> H 	 -83.8451 	 -15.7971 	 -53.5408
| 19> C 	 -84.607 	 -15.2041 	 -51.5763
| 20> H 	 -85.0272 	 -14.1925 	 -51.8772
| 21> H 	 -85.3333 	 -16.0187 	 -51.4955
| 22> H 	 -84.041 	 -15.1338 	 -50.5889
| 23> S 	 -80.344 	 -20.1699 	 -55.6145
| 24> C 	 -79.5933 	 -20.7381 	 -57.0371
| 25> C 	 -78.7147 	 -19.8369 	 -57.4678
| 26> C 	 -78.6174 	 -18.5963 	 -56.7302
| 27> C 	 -79.5265 	 -18.6045 	 -55.6633
| 28> H 	 -78.2632 	 -19.9708 	 -58.3771
| 29> C 	 -77.7398 	 -17.3877 	 -57.2063
| 30> H 	 -76.8281 	 -17.6808 	 -57.695
| 31> H 	 -77.2669 	 -16.8703 	 -56.3315
| 32> C 	 -78.4759 	 -16.3137 	 -58.0117
| 33> H 	 -79.0746 	 -16.7626 	 -58.8518
| 34> H 	 -77.7678 	 -15.598 	 -58.4339
| 35> C 	 -79.4646 	 -15.4269 	 -57.2669
| 36> H 	 -80.4286 	 -16.0022 	 -56.9929
| 37> H 	 -79.8477 	 -14.6351 	 -57.9204
| 38> H 	 -78.8874 	 -14.9102 	 -56.512
| 39> H 	 -79.803 	 -15.3462 	 -51.8932
| 40> H 	 -79.6845 	 -21.7526 	 -57.4658
| 41> *
| 42>
| 43>                          ****END OF INPUT****

CARTESIAN COORDINATES (ANGSTROEM)
---------------------------------
  S    -78.803600  -16.492100  -53.961100
  C    -80.027300  -16.039800  -52.729900
  C    -81.225100  -16.649900  -53.023500
  C    -81.204200  -17.454800  -54.172000
  C    -79.916100  -17.583900  -54.717500
  H    -82.050800  -18.058100  -54.614800
  C    -82.421800  -16.489100  -52.146900
  H    -82.040800  -16.312200  -51.089600
  H    -82.870800  -17.492500  -52.255200
  C    -83.403400  -15.432800  -52.623800
  H    -82.783200  -14.515500  -52.719400
  H    -83.845100  -15.797100  -53.540800
  C    -84.607000  -15.204100  -51.576300
  H    -85.027200  -14.192500  -51.877200
  H    -85.333300  -16.018700  -51.495500
  H    -84.041000  -15.133800  -50.588900
  S    -80.344000  -20.169900  -55.614500
  C    -79.593300  -20.738100  -57.037100
  C    -78.714700  -19.836900  -57.467800
  C    -78.617400  -18.596300  -56.730200
  C    -79.526500  -18.604500  -55.663300
  H    -78.263200  -19.970800  -58.377100
  C    -77.739800  -17.387700  -57.206300
  H    -76.828100  -17.680800  -57.695000
  H    -77.266900  -16.870300  -56.331500
  C    -78.475900  -16.313700  -58.011700
  H    -79.074600  -16.762600  -58.851800
  H    -77.767800  -15.598000  -58.433900
  C    -79.464600  -15.426900  -57.266900
  H    -80.428600  -16.002200  -56.992900
  H    -79.847700  -14.635100  -57.920400
  H    -78.887400  -14.910200  -56.512000
  H    -79.803000  -15.346200  -51.893200
  H    -79.684500  -21.752600  -57.465800

 Total Charge           Charge          ....    0
 Multiplicity           Mult            ....    1
 Number of Electrons    NEL             ....  134
 Basis Dimension        Dim             ....  322

ORBITAL ENERGIES
----------------

  NO   OCC          E(Eh)            E(eV)
   0   2.0000     -88.966548     -2420.9029
   1   2.0000     -88.963967     -2420.8326
   2   2.0000     -10.330924      -281.1187
   3   2.0000     -10.330478      -281.1066
   4   2.0000     -10.316674      -280.7310
   5   2.0000     -10.311800      -280.5983
   6   2.0000     -10.309153      -280.5263
   7   2.0000     -10.298186      -280.2279
   8   2.0000     -10.297005      -280.1957
   9   2.0000     -10.296636      -280.1857
  10   2.0000     -10.292999      -280.0867
  11   2.0000     -10.291922      -280.0574
  12   2.0000     -10.291265      -280.0396
  13   2.0000     -10.284752      -279.8623
  14   2.0000     -10.282441      -279.7995
  15   2.0000     -10.272607      -279.5318
  16   2.0000      -8.080371      -219.8781
  17   2.0000      -8.079284      -219.8485
  18   2.0000      -6.038902      -164.3269
  19   2.0000      -6.037829      -164.2977
  20   2.0000      -6.035020      -164.2213
  21   2.0000      -6.033637      -164.1836
  22   2.0000      -6.031153      -164.1160
  23   2.0000      -6.030022      -164.0852
  24   2.0000      -1.009077       -27.4584
  25   2.0000      -0.987081       -26.8598
  26   2.0000      -0.913481       -24.8571
  27   2.0000      -0.903123       -24.5752
  28   2.0000      -0.869586       -23.6626
  29   2.0000      -0.847895       -23.0724
  30   2.0000      -0.841268       -22.8921
  31   2.0000      -0.811711       -22.0878
  32   2.0000      -0.783147       -21.3105
  33   2.0000      -0.768499       -20.9119
  34   2.0000      -0.706877       -19.2351
  35   2.0000      -0.694413       -18.8959
  36   2.0000      -0.680769       -18.5247
  37   2.0000      -0.662447       -18.0261
  38   2.0000      -0.630661       -17.1612
  39   2.0000      -0.616236       -16.7686
  40   2.0000      -0.600774       -16.3479
  41   2.0000      -0.570003       -15.5106
  42   2.0000      -0.562348       -15.3023
  43   2.0000      -0.550855       -14.9895
  44   2.0000      -0.544599       -14.8193
  45   2.0000      -0.520790       -14.1714
  46   2.0000      -0.516212       -14.0468
  47   2.0000      -0.507219       -13.8021
  48   2.0000      -0.503901       -13.7118
  49   2.0000      -0.498391       -13.5619
  50   2.0000      -0.488049       -13.2805
  51   2.0000      -0.476458       -12.9651
  52   2.0000      -0.469998       -12.7893
  53   2.0000      -0.466890       -12.7047
  54   2.0000      -0.458921       -12.4879
  55   2.0000      -0.445678       -12.1275
  56   2.0000      -0.439604       -11.9622
  57   2.0000      -0.436336       -11.8733
  58   2.0000      -0.425929       -11.5901
  59   2.0000      -0.423638       -11.5278
  60   2.0000      -0.413794       -11.2599
  61   2.0000      -0.409163       -11.1339
  62   2.0000      -0.399806       -10.8793
  63   2.0000      -0.355405        -9.6711
  64   2.0000      -0.331406        -9.0180
  65   2.0000      -0.330700        -8.9988
  66   2.0000      -0.285339        -7.7645
  67   0.0000       0.020468         0.5570
  68   0.0000       0.080988         2.2038
  69   0.0000       0.111700         3.0395
  70   0.0000       0.117971         3.2102
  71   0.0000       0.126548         3.4435

MULLIKEN ATOMIC CHARGES
-----------------------
   0 S :    0.099531
   1 C :   -0.146562
   2 C :   -0.068821
   3 C :   -0.019278
   4 C :   -0.137526
   5 H :    0.039659
   6 C :    0.029061
   7 H :    0.034891
   8 H :    0.027108
   9 C :   -0.074137
  10 H :    0.038144
  11 H :    0.031615
  12 C :   -0.074251
  13 H :    0.055256
  14 H :    0.048442
  15 H :    0.033817
  16 S :    0.100405
  17 C :   -0.090765
  18 C :    0.001120
  19 C :   -0.043926
  20 C :   -0.139705
  21 H :   -0.017513
  22 C :    0.073135
  23 H :    0.019272
  24 H :    0.022783
  25 C :   -0.077850
  26 H :    0.029907
  27 H :    0.027302
  28 C :   -0.070491
  29 H :    0.061808
  30 H :    0.025602
  31 H :    0.027956
  32 H :    0.063117
  33 H :    0.070898
Sum of atomic charges:   -0.0000000

LOEWDIN ATOMIC CHARGES
----------------------
   0 S :    0.408901
   1 C :   -0.194756
   2 C :   -0.067184
   3 C :   -0.081617
   4 C :   -0.187047
   5 H :    0.038794
   6 C :   -0.040272
   7 H :    0.034251
   8 H :    0.032486
   9 C :   -0.037892
  10 H :    0.028885
  11 H :    0.022558
  12 C :   -0.073955
  13 H :    0.035657
  14 H :    0.025149
  15 H :    0.029259
  16 S :    0.417808
  17 C :   -0.202199
  18 C :   -0.067861
  19 C :   -0.053176
  20 C :   -0.188237
  21 H :    0.015937
  22 C :   -0.038998
  23 H :    0.030315
  24 H :    0.028631
  25 C :   -0.046786
  26 H :    0.026095
  27 H :    0.024715
  28 C :   -0.077229
  29 H :    0.038211
  30 H :    0.024380
  31 H :    0.016026
  32 H :    0.035709
  33 H :    0.043443

  Mayer bond orders larger than 0.100000
B(  0-S ,  1-C ) :   1.1154 B(  0-S ,  4-C ) :   1.1721 B(  1-C ,  2-C ) :   1.5982
B(  1-C , 32-H ) :   0.9692 B(  2-C ,  3-C ) :   1.2568 B(  2-C ,  6-C ) :   1.0165
B(  3-C ,  4-C ) :   1.5294 B(  3-C ,  5-H ) :   0.9783 B(  4-C , 20-C ) :   1.0827
B(  6-C ,  7-H ) :   0.9422 B(  6-C ,  8-H ) :   0.9355 B(  6-C ,  9-C ) :   1.0678
B(  9-C , 10-H ) :   0.9586 B(  9-C , 11-H ) :   0.9540 B(  9-C , 12-C ) :   1.0633
B( 12-C , 13-H ) :   0.9769 B( 12-C , 14-H ) :   0.9773 B( 12-C , 15-H ) :   0.9766
B( 16-S , 17-C ) :   1.1428 B( 16-S , 20-C ) :   1.1457 B( 17-C , 18-C ) :   1.6199
B( 17-C , 33-H ) :   0.9612 B( 18-C , 19-C ) :   1.2549 B( 18-C , 21-H ) :   0.9989
B( 19-C , 20-C ) :   1.5578 B( 19-C , 22-C ) :   1.0309 B( 22-C , 23-H ) :   0.9346
B( 22-C , 24-H ) :   0.9342 B( 22-C , 25-C ) :   1.0679 B( 25-C , 26-H ) :   0.9549
B( 25-C , 27-H ) :   0.9536 B( 25-C , 28-C ) :   1.0910 B( 28-C , 29-H ) :   0.9672
B( 28-C , 30-H ) :   0.9693 B( 28-C , 31-H ) :   0.9716

Dispersion correction           -0.015102361
FINAL SINGLE POINT ENERGY     -1339.870344248206

DIPOLE MOMENT
-------------
                                X             Y             Z
Electronic contribution:     11.53352     -16.47737      -0.72970
Nuclear contribution   :    -11.66719      16.63749       0.54529
                        -----------------------------------------
Total Dipole Moment    :     -0.13367       0.16012      -0.18441
                        -----------------------------------------
Magnitude (a.u.)       :      0.27841
Magnitude (Debye)      :      0.70767

Rotational constants in cm-1:     0.022010     0.008157     0.006952
Rotational constants in MHz :   659.853199   244.545742   208.405831

                             ****ORCA TERMINATED NORMALLY****
TOTAL RUN TIME: 0 days 0 hours 0 minutes 20 seconds 856 msec
