                         Program Version 4.2.1 -  RELEASE  -
|  1> ! wB97X-D3 SP def2-SVP
|  2> %pal
|  3> nprocs 24
|  4> end
|  5>
|  6> * xyz 0 1
|  7> S 	 -84.2364 	 -4.74726 	 -65.0022
|  8> C 	 -84.8624 	 -3.84582 	 -66.4563
|  9> C 	 -85.2815 	 -2.54378 	 -66.0419
| 10> C 	 -85.3691 	 -2.41795 	 -64.6402
| 11> C 	 -84.9191 	 -3.5273 	 -63.9187
| 12> H 	 -85.7493 	 -1.60951 	 -64.0474
| 13> C 	 -85.5562 	 -1.38751 	 -66.9761
| 14> H 	 -86.5538 	 -1.13546 	 -66.674
| 15> H 	 -85.6922 	 -1.60806 	 -68.0139
| 16> C 	 -84.5029 	 -0.282463 	 -66.9441
| 17> H 	 -84.7532 	 0.439628 	 -67.7073
| 18> H 	 -84.4971 	 0.306228 	 -66.0044
| 19> C 	 -83.0688 	 -0.733831 	 -67.2802
| 20> H 	 -82.4341 	 0.141671 	 -67.4119
| 21> H 	 -82.6868 	 -1.19478 	 -66.3813
| 22> H 	 -82.8892 	 -1.42655 	 -68.1631
| 23> S 	 -83.3777 	 -3.57747 	 -61.6459
| 24> C 	 -84.0447 	 -3.93905 	 -60.1437
| 25> C 	 -85.4058 	 -3.98347 	 -60.1412
| 26> C 	 -85.9207 	 -3.71869 	 -61.5132
| 27> C 	 -84.9091 	 -3.63126 	 -62.4628
| 28> H 	 -85.9753 	 -3.96735 	 -59.2569
| 29> C 	 -87.3832 	 -3.73715 	 -61.8877
| 30> H 	 -87.9402 	 -4.25234 	 -61.0999
| 31> H 	 -87.5291 	 -4.52835 	 -62.6779
| 32> C 	 -88.0897 	 -2.34143 	 -62.3027
| 33> H 	 -89.128 	 -2.43158 	 -62.635
| 34> H 	 -87.5211 	 -1.93554 	 -63.1652
| 35> C 	 -88.0826 	 -1.27387 	 -61.1845
| 36> H 	 -88.5194 	 -1.71147 	 -60.2543
| 37> H 	 -88.559 	 -0.355871 	 -61.4789
| 38> H 	 -87.0184 	 -1.1255 	 -61.0214
| 39> H 	 -84.6822 	 -4.13126 	 -67.5609
| 40> H 	 -83.4649 	 -3.948 	 -59.2435
| 41> *
| 42>
| 43>                          ****END OF INPUT****

CARTESIAN COORDINATES (ANGSTROEM)
---------------------------------
  S    -84.236400   -4.747260  -65.002200
  C    -84.862400   -3.845820  -66.456300
  C    -85.281500   -2.543780  -66.041900
  C    -85.369100   -2.417950  -64.640200
  C    -84.919100   -3.527300  -63.918700
  H    -85.749300   -1.609510  -64.047400
  C    -85.556200   -1.387510  -66.976100
  H    -86.553800   -1.135460  -66.674000
  H    -85.692200   -1.608060  -68.013900
  C    -84.502900   -0.282463  -66.944100
  H    -84.753200    0.439628  -67.707300
  H    -84.497100    0.306228  -66.004400
  C    -83.068800   -0.733831  -67.280200
  H    -82.434100    0.141671  -67.411900
  H    -82.686800   -1.194780  -66.381300
  H    -82.889200   -1.426550  -68.163100
  S    -83.377700   -3.577470  -61.645900
  C    -84.044700   -3.939050  -60.143700
  C    -85.405800   -3.983470  -60.141200
  C    -85.920700   -3.718690  -61.513200
  C    -84.909100   -3.631260  -62.462800
  H    -85.975300   -3.967350  -59.256900
  C    -87.383200   -3.737150  -61.887700
  H    -87.940200   -4.252340  -61.099900
  H    -87.529100   -4.528350  -62.677900
  C    -88.089700   -2.341430  -62.302700
  H    -89.128000   -2.431580  -62.635000
  H    -87.521100   -1.935540  -63.165200
  C    -88.082600   -1.273870  -61.184500
  H    -88.519400   -1.711470  -60.254300
  H    -88.559000   -0.355871  -61.478900
  H    -87.018400   -1.125500  -61.021400
  H    -84.682200   -4.131260  -67.560900
  H    -83.464900   -3.948000  -59.243500

 Total Charge           Charge          ....    0
 Multiplicity           Mult            ....    1
 Number of Electrons    NEL             ....  134
 Basis Dimension        Dim             ....  322

ORBITAL ENERGIES
----------------

  NO   OCC          E(Eh)            E(eV)
   0   2.0000     -88.970725     -2421.0165
   1   2.0000     -88.962524     -2420.7934
   2   2.0000     -10.333941      -281.2008
   3   2.0000     -10.329903      -281.0909
   4   2.0000     -10.324718      -280.9499
   5   2.0000     -10.311433      -280.5883
   6   2.0000     -10.309651      -280.5399
   7   2.0000     -10.308274      -280.5024
   8   2.0000     -10.297229      -280.2018
   9   2.0000     -10.295858      -280.1645
  10   2.0000     -10.293914      -280.1116
  11   2.0000     -10.292253      -280.0664
  12   2.0000     -10.289841      -280.0008
  13   2.0000     -10.289694      -279.9968
  14   2.0000     -10.278872      -279.7023
  15   2.0000     -10.276118      -279.6274
  16   2.0000      -8.083563      -219.9649
  17   2.0000      -8.079124      -219.8441
  18   2.0000      -6.042201      -164.4167
  19   2.0000      -6.038363      -164.3122
  20   2.0000      -6.037499      -164.2887
  21   2.0000      -6.034260      -164.2006
  22   2.0000      -6.033322      -164.1750
  23   2.0000      -6.029957      -164.0835
  24   2.0000      -1.007679       -27.4203
  25   2.0000      -0.980024       -26.6678
  26   2.0000      -0.912897       -24.8412
  27   2.0000      -0.897643       -24.4261
  28   2.0000      -0.866758       -23.5857
  29   2.0000      -0.847406       -23.0591
  30   2.0000      -0.844801       -22.9882
  31   2.0000      -0.814417       -22.1614
  32   2.0000      -0.784373       -21.3439
  33   2.0000      -0.769378       -20.9358
  34   2.0000      -0.705673       -19.2023
  35   2.0000      -0.696326       -18.9480
  36   2.0000      -0.687703       -18.7133
  37   2.0000      -0.663654       -18.0590
  38   2.0000      -0.639890       -17.4123
  39   2.0000      -0.618694       -16.8355
  40   2.0000      -0.591062       -16.0836
  41   2.0000      -0.568461       -15.4686
  42   2.0000      -0.555666       -15.1204
  43   2.0000      -0.550188       -14.9714
  44   2.0000      -0.544163       -14.8074
  45   2.0000      -0.538151       -14.6438
  46   2.0000      -0.514000       -13.9866
  47   2.0000      -0.510346       -13.8872
  48   2.0000      -0.497602       -13.5404
  49   2.0000      -0.494521       -13.4566
  50   2.0000      -0.484291       -13.1782
  51   2.0000      -0.477554       -12.9949
  52   2.0000      -0.470001       -12.7894
  53   2.0000      -0.464690       -12.6449
  54   2.0000      -0.460935       -12.5427
  55   2.0000      -0.447408       -12.1746
  56   2.0000      -0.444929       -12.1071
  57   2.0000      -0.439140       -11.9496
  58   2.0000      -0.428702       -11.6656
  59   2.0000      -0.422834       -11.5059
  60   2.0000      -0.416555       -11.3351
  61   2.0000      -0.412603       -11.2275
  62   2.0000      -0.409165       -11.1339
  63   2.0000      -0.338181        -9.2024
  64   2.0000      -0.331414        -9.0182
  65   2.0000      -0.325650        -8.8614
  66   2.0000      -0.300189        -8.1686
  67   0.0000       0.030738         0.8364
  68   0.0000       0.058460         1.5908
  69   0.0000       0.107766         2.9324
  70   0.0000       0.115507         3.1431
  71   0.0000       0.126363         3.4385

MULLIKEN ATOMIC CHARGES
-----------------------
   0 S :    0.112297
   1 C :   -0.148601
   2 C :   -0.093670
   3 C :    0.045697
   4 C :   -0.161365
   5 H :    0.018438
   6 C :    0.100770
   7 H :    0.023388
   8 H :    0.009547
   9 C :   -0.078505
  10 H :    0.026088
  11 H :    0.035105
  12 C :   -0.069377
  13 H :    0.031018
  14 H :    0.039227
  15 H :    0.043932
  16 S :    0.115978
  17 C :   -0.073405
  18 C :   -0.007271
  19 C :   -0.060225
  20 C :   -0.178407
  21 H :    0.010011
  22 C :    0.027096
  23 H :    0.013987
  24 H :    0.049931
  25 C :   -0.072320
  26 H :    0.031257
  27 H :    0.017423
  28 C :   -0.051819
  29 H :    0.033840
  30 H :    0.038925
  31 H :    0.033282
  32 H :    0.084075
  33 H :    0.053654
Sum of atomic charges:   -0.0000000

LOEWDIN ATOMIC CHARGES
----------------------
   0 S :    0.380986
   1 C :   -0.199182
   2 C :   -0.058506
   3 C :   -0.058012
   4 C :   -0.189872
   5 H :    0.028603
   6 C :   -0.033108
   7 H :    0.031883
   8 H :    0.028098
   9 C :   -0.040161
  10 H :    0.022461
  11 H :    0.027509
  12 C :   -0.071192
  13 H :    0.026920
  14 H :    0.026167
  15 H :    0.031949
  16 S :    0.435900
  17 C :   -0.195786
  18 C :   -0.070431
  19 C :   -0.053615
  20 C :   -0.211861
  21 H :    0.025543
  22 C :   -0.044187
  23 H :    0.027209
  24 H :    0.044447
  25 C :   -0.038194
  26 H :    0.022356
  27 H :    0.020534
  28 C :   -0.067138
  29 H :    0.027000
  30 H :    0.023508
  31 H :    0.024478
  32 H :    0.048108
  33 H :    0.027587

  Mayer bond orders larger than 0.100000
B(  0-S ,  1-C ) :   1.1287 B(  0-S ,  4-C ) :   1.1495 B(  1-C ,  2-C ) :   1.5855
B(  1-C ,  4-C ) :   0.1130 B(  1-C , 32-H ) :   0.9569 B(  2-C ,  3-C ) :   1.2394
B(  2-C ,  6-C ) :   1.0185 B(  3-C ,  4-C ) :   1.5700 B(  3-C ,  5-H ) :   0.9842
B(  4-C , 20-C ) :   1.0329 B(  6-C ,  7-H ) :   0.9380 B(  6-C ,  8-H ) :   0.9415
B(  6-C ,  9-C ) :   1.0735 B(  9-C , 10-H ) :   0.9594 B(  9-C , 11-H ) :   0.9555
B(  9-C , 12-C ) :   1.0693 B( 12-C , 13-H ) :   0.9727 B( 12-C , 14-H ) :   0.9738
B( 12-C , 15-H ) :   0.9757 B( 16-S , 17-C ) :   1.1785 B( 16-S , 20-C ) :   1.1472
B( 17-C , 18-C ) :   1.6065 B( 17-C , 33-H ) :   0.9653 B( 18-C , 19-C ) :   1.2311
B( 18-C , 21-H ) :   0.9958 B( 19-C , 20-C ) :   1.6000 B( 19-C , 22-C ) :   1.0477
B( 22-C , 23-H ) :   0.9418 B( 22-C , 24-H ) :   0.9381 B( 22-C , 25-C ) :   1.0435
B( 25-C , 26-H ) :   0.9576 B( 25-C , 27-H ) :   0.9574 B( 25-C , 28-C ) :   1.0692
B( 28-C , 29-H ) :   0.9759 B( 28-C , 30-H ) :   0.9747 B( 28-C , 31-H ) :   0.9774

Dispersion correction           -0.015578869
FINAL SINGLE POINT ENERGY     -1339.866811240815

DIPOLE MOMENT
-------------
                                X             Y             Z
Electronic contribution:     12.51398     -17.81379       6.88779
Nuclear contribution   :    -12.81277      18.32963      -6.96074
                        -----------------------------------------
Total Dipole Moment    :     -0.29879       0.51584      -0.07295
                        -----------------------------------------
Magnitude (a.u.)       :      0.60057
Magnitude (Debye)      :      1.52654

Rotational constants in cm-1:     0.019245     0.009006     0.007576
Rotational constants in MHz :   576.965175   269.982070   227.118277

                             ****ORCA TERMINATED NORMALLY****
TOTAL RUN TIME: 0 days 0 hours 0 minutes 21 seconds 26 msec
