                         Program Version 4.2.1 -  RELEASE  -
|  1> ! wB97X-D3 SP def2-SVP
|  2> %pal
|  3> nprocs 24
|  4> end
|  5>
|  6> * xyz 0 1
|  7> S 	 -56.3499 	 15.2801 	 -90.4797
|  8> C 	 -55.3394 	 13.9744 	 -90.8441
|  9> C 	 -54.0643 	 14.2609 	 -90.4046
| 10> C 	 -53.9989 	 15.3946 	 -89.5384
| 11> C 	 -55.2445 	 16.055 	 -89.4595
| 12> H 	 -53.1717 	 15.82 	 -88.9339
| 13> C 	 -52.7981 	 13.446 	 -90.784
| 14> H 	 -51.8945 	 14.1071 	 -90.4561
| 15> H 	 -52.8457 	 13.3888 	 -91.8739
| 16> C 	 -52.6177 	 12.0636 	 -90.2379
| 17> H 	 -52.7874 	 11.9468 	 -89.1763
| 18> H 	 -53.3027 	 11.3484 	 -90.6768
| 19> C 	 -51.278 	 11.4234 	 -90.6193
| 20> H 	 -51.1341 	 11.3869 	 -91.6932
| 21> H 	 -50.3797 	 11.8986 	 -90.3276
| 22> H 	 -51.1856 	 10.4128 	 -90.3464
| 23> S 	 -56.1591 	 16.3307 	 -86.9169
| 24> C 	 -56.6241 	 17.9094 	 -86.2917
| 25> C 	 -56.3742 	 18.9047 	 -87.2019
| 26> C 	 -55.9531 	 18.4244 	 -88.4821
| 27> C 	 -55.667 	 17.0406 	 -88.4458
| 28> H 	 -56.6022 	 19.975 	 -87.1078
| 29> C 	 -55.7856 	 19.3831 	 -89.6696
| 30> H 	 -54.9111 	 19.0152 	 -90.2709
| 31> H 	 -55.7308 	 20.4107 	 -89.3356
| 32> C 	 -57.0391 	 19.2135 	 -90.5689
| 33> H 	 -57.95 	 19.0741 	 -89.9459
| 34> H 	 -56.7241 	 18.3212 	 -91.0656
| 35> C 	 -57.1798 	 20.2289 	 -91.6746
| 36> H 	 -57.3947 	 21.1944 	 -91.2768
| 37> H 	 -58.0507 	 19.952 	 -92.2394
| 38> H 	 -56.303 	 20.2953 	 -92.2823
| 39> H 	 -55.4658 	 13.0933 	 -91.4214
| 40> H 	 -57.0365 	 18.03 	 -85.2956
| 41> *
| 42>
| 43>                          ****END OF INPUT****

CARTESIAN COORDINATES (ANGSTROEM)
---------------------------------
  S    -56.349900   15.280100  -90.479700
  C    -55.339400   13.974400  -90.844100
  C    -54.064300   14.260900  -90.404600
  C    -53.998900   15.394600  -89.538400
  C    -55.244500   16.055000  -89.459500
  H    -53.171700   15.820000  -88.933900
  C    -52.798100   13.446000  -90.784000
  H    -51.894500   14.107100  -90.456100
  H    -52.845700   13.388800  -91.873900
  C    -52.617700   12.063600  -90.237900
  H    -52.787400   11.946800  -89.176300
  H    -53.302700   11.348400  -90.676800
  C    -51.278000   11.423400  -90.619300
  H    -51.134100   11.386900  -91.693200
  H    -50.379700   11.898600  -90.327600
  H    -51.185600   10.412800  -90.346400
  S    -56.159100   16.330700  -86.916900
  C    -56.624100   17.909400  -86.291700
  C    -56.374200   18.904700  -87.201900
  C    -55.953100   18.424400  -88.482100
  C    -55.667000   17.040600  -88.445800
  H    -56.602200   19.975000  -87.107800
  C    -55.785600   19.383100  -89.669600
  H    -54.911100   19.015200  -90.270900
  H    -55.730800   20.410700  -89.335600
  C    -57.039100   19.213500  -90.568900
  H    -57.950000   19.074100  -89.945900
  H    -56.724100   18.321200  -91.065600
  C    -57.179800   20.228900  -91.674600
  H    -57.394700   21.194400  -91.276800
  H    -58.050700   19.952000  -92.239400
  H    -56.303000   20.295300  -92.282300
  H    -55.465800   13.093300  -91.421400
  H    -57.036500   18.030000  -85.295600

 Total Charge           Charge          ....    0
 Multiplicity           Mult            ....    1
 Number of Electrons    NEL             ....  134
 Basis Dimension        Dim             ....  322

ORBITAL ENERGIES
----------------

  NO   OCC          E(Eh)            E(eV)
   0   2.0000     -88.966948     -2420.9137
   1   2.0000     -88.964164     -2420.8380
   2   2.0000     -10.327388      -281.0225
   3   2.0000     -10.324274      -280.9378
   4   2.0000     -10.318937      -280.7925
   5   2.0000     -10.306860      -280.4639
   6   2.0000     -10.305390      -280.4239
   7   2.0000     -10.300158      -280.2815
   8   2.0000     -10.299627      -280.2671
   9   2.0000     -10.297244      -280.2023
  10   2.0000     -10.294104      -280.1168
  11   2.0000     -10.294072      -280.1159
  12   2.0000     -10.284423      -279.8534
  13   2.0000     -10.279311      -279.7143
  14   2.0000     -10.268314      -279.4150
  15   2.0000     -10.267939      -279.4048
  16   2.0000      -8.083009      -219.9499
  17   2.0000      -8.078667      -219.8317
  18   2.0000      -6.041312      -164.3925
  19   2.0000      -6.037145      -164.2791
  20   2.0000      -6.037076      -164.2772
  21   2.0000      -6.034122      -164.1968
  22   2.0000      -6.033171      -164.1709
  23   2.0000      -6.029505      -164.0712
  24   2.0000      -1.012144       -27.5418
  25   2.0000      -0.985454       -26.8156
  26   2.0000      -0.912039       -24.8178
  27   2.0000      -0.909986       -24.7620
  28   2.0000      -0.869775       -23.6678
  29   2.0000      -0.850416       -23.1410
  30   2.0000      -0.848051       -23.0767
  31   2.0000      -0.812789       -22.1171
  32   2.0000      -0.783844       -21.3295
  33   2.0000      -0.771774       -21.0010
  34   2.0000      -0.705961       -19.2102
  35   2.0000      -0.700793       -19.0695
  36   2.0000      -0.684856       -18.6359
  37   2.0000      -0.662479       -18.0270
  38   2.0000      -0.642246       -17.4764
  39   2.0000      -0.609505       -16.5855
  40   2.0000      -0.596272       -16.2254
  41   2.0000      -0.573602       -15.6085
  42   2.0000      -0.571537       -15.5523
  43   2.0000      -0.561535       -15.2802
  44   2.0000      -0.526493       -14.3266
  45   2.0000      -0.524798       -14.2805
  46   2.0000      -0.516439       -14.0530
  47   2.0000      -0.510179       -13.8827
  48   2.0000      -0.507931       -13.8215
  49   2.0000      -0.501255       -13.6398
  50   2.0000      -0.491893       -13.3851
  51   2.0000      -0.479535       -13.0488
  52   2.0000      -0.473196       -12.8763
  53   2.0000      -0.466414       -12.6918
  54   2.0000      -0.460811       -12.5393
  55   2.0000      -0.448499       -12.2043
  56   2.0000      -0.443852       -12.0778
  57   2.0000      -0.438516       -11.9326
  58   2.0000      -0.432890       -11.7795
  59   2.0000      -0.421878       -11.4799
  60   2.0000      -0.419534       -11.4161
  61   2.0000      -0.412386       -11.2216
  62   2.0000      -0.407737       -11.0951
  63   2.0000      -0.337722        -9.1899
  64   2.0000      -0.327242        -8.9047
  65   2.0000      -0.318767        -8.6741
  66   2.0000      -0.307145        -8.3578
  67   0.0000       0.047241         1.2855
  68   0.0000       0.048936         1.3316
  69   0.0000       0.107861         2.9350
  70   0.0000       0.121985         3.3194
  71   0.0000       0.132308         3.6003

MULLIKEN ATOMIC CHARGES
-----------------------
   0 S :    0.150861
   1 C :   -0.092480
   2 C :   -0.102295
   3 C :    0.021125
   4 C :   -0.186573
   5 H :    0.029548
   6 C :    0.033623
   7 H :    0.040531
   8 H :    0.034369
   9 C :   -0.039703
  10 H :    0.031894
  11 H :    0.017042
  12 C :   -0.027706
  13 H :    0.009129
  14 H :    0.014292
  15 H :    0.018936
  16 S :    0.117612
  17 C :   -0.097245
  18 C :   -0.012214
  19 C :   -0.064357
  20 C :   -0.179461
  21 H :    0.022277
  22 C :    0.079088
  23 H :    0.044987
  24 H :    0.015187
  25 C :   -0.126361
  26 H :    0.047177
  27 H :    0.016398
  28 C :    0.022933
  29 H :    0.013075
  30 H :    0.030880
  31 H :    0.023983
  32 H :    0.030633
  33 H :    0.062817
Sum of atomic charges:   -0.0000000

LOEWDIN ATOMIC CHARGES
----------------------
   0 S :    0.470221
   1 C :   -0.218549
   2 C :   -0.069231
   3 C :   -0.066219
   4 C :   -0.235387
   5 H :    0.040320
   6 C :   -0.035533
   7 H :    0.041177
   8 H :    0.032848
   9 C :   -0.043211
  10 H :    0.025246
  11 H :    0.024733
  12 C :   -0.062833
  13 H :    0.023953
  14 H :    0.016706
  15 H :    0.021529
  16 S :    0.409411
  17 C :   -0.179486
  18 C :   -0.077062
  19 C :   -0.047573
  20 C :   -0.210602
  21 H :    0.034305
  22 C :   -0.027131
  23 H :    0.039688
  24 H :    0.021507
  25 C :   -0.043751
  26 H :    0.028652
  27 H :    0.016783
  28 C :   -0.057328
  29 H :    0.016851
  30 H :    0.028928
  31 H :    0.023724
  32 H :    0.027456
  33 H :    0.029857

  Mayer bond orders larger than 0.100000
B(  0-S ,  1-C ) :   1.1686 B(  0-S ,  4-C ) :   1.1973 B(  1-C ,  2-C ) :   1.5710
B(  1-C , 32-H ) :   0.9753 B(  2-C ,  3-C ) :   1.2716 B(  2-C ,  6-C ) :   1.0049
B(  3-C ,  4-C ) :   1.5359 B(  3-C ,  5-H ) :   0.9941 B(  4-C , 20-C ) :   0.9914
B(  6-C ,  7-H ) :   0.9495 B(  6-C ,  8-H ) :   0.9364 B(  6-C ,  9-C ) :   1.0778
B(  9-C , 10-H ) :   0.9571 B(  9-C , 11-H ) :   0.9469 B(  9-C , 12-C ) :   1.0820
B( 12-C , 13-H ) :   0.9705 B( 12-C , 14-H ) :   0.9751 B( 12-C , 15-H ) :   0.9729
B( 16-S , 17-C ) :   1.1622 B( 16-S , 20-C ) :   1.1532 B( 17-C , 18-C ) :   1.5870
B( 17-C , 20-C ) :   0.1020 B( 17-C , 33-H ) :   0.9688 B( 18-C , 19-C ) :   1.2690
B( 18-C , 21-H ) :   0.9807 B( 19-C , 20-C ) :   1.5847 B( 19-C , 22-C ) :   1.0505
B( 22-C , 23-H ) :   0.9363 B( 22-C , 24-H ) :   0.9403 B( 22-C , 25-C ) :   1.0417
B( 25-C , 26-H ) :   0.9620 B( 25-C , 27-H ) :   0.9547 B( 25-C , 28-C ) :   1.0939
B( 28-C , 29-H ) :   0.9733 B( 28-C , 30-H ) :   0.9697 B( 28-C , 31-H ) :   0.9676

Dispersion correction           -0.013869027
FINAL SINGLE POINT ENERGY     -1339.867341890161

DIPOLE MOMENT
-------------
                                X             Y             Z
Electronic contribution:    -11.46965       0.75219      13.38971
Nuclear contribution   :     11.65520      -0.70081     -13.59107
                        -----------------------------------------
Total Dipole Moment    :      0.18555       0.05138      -0.20136
                        -----------------------------------------
Magnitude (a.u.)       :      0.27859
Magnitude (Debye)      :      0.70813

Rotational constants in cm-1:     0.022453     0.007156     0.006087
Rotational constants in MHz :   673.132328   214.536322   182.472700

                             ****ORCA TERMINATED NORMALLY****
TOTAL RUN TIME: 0 days 0 hours 0 minutes 20 seconds 789 msec
