                         Program Version 4.2.1 -  RELEASE  -
|  1> ! wB97X-D3 SP def2-SVP
|  2> %pal
|  3> nprocs 24
|  4> end
|  5>
|  6> * xyz 0 1
|  7> S 	 45.6462 	 -16.5483 	 -110.284
|  8> C 	 47.3407 	 -16.421 	 -110.112
|  9> C 	 48.0349 	 -17.6445 	 -110.176
| 10> C 	 47.0818 	 -18.6926 	 -110.425
| 11> C 	 45.7703 	 -18.3501 	 -110.523
| 12> H 	 47.2993 	 -19.7004 	 -110.388
| 13> C 	 49.5103 	 -17.8721 	 -109.818
| 14> H 	 49.7613 	 -18.9264 	 -109.944
| 15> H 	 49.571 	 -17.4536 	 -108.849
| 16> C 	 50.4545 	 -17.0468 	 -110.687
| 17> H 	 50.0038 	 -16.0577 	 -110.774
| 18> H 	 51.4199 	 -17.0699 	 -110.139
| 19> C 	 50.5755 	 -17.6645 	 -112.093
| 20> H 	 49.5665 	 -17.8341 	 -112.572
| 21> H 	 51.1307 	 -16.9864 	 -112.804
| 22> H 	 51.1284 	 -18.6295 	 -112.049
| 23> S 	 43.3327 	 -18.8908 	 -109.325
| 24> C 	 42.4427 	 -20.2971 	 -109.849
| 25> C 	 43.1741 	 -20.9982 	 -110.777
| 26> C 	 44.3584 	 -20.3408 	 -111.183
| 27> C 	 44.625 	 -19.1948 	 -110.459
| 28> H 	 42.7589 	 -21.9348 	 -111.121
| 29> C 	 45.1353 	 -20.7878 	 -112.356
| 30> H 	 46.0225 	 -21.3491 	 -111.981
| 31> H 	 45.5143 	 -19.8376 	 -112.8
| 32> C 	 44.3752 	 -21.5553 	 -113.534
| 33> H 	 43.7783 	 -22.3608 	 -113.108
| 34> H 	 45.1085 	 -21.9532 	 -114.227
| 35> C 	 43.4095 	 -20.7052 	 -114.294
| 36> H 	 42.4004 	 -20.6052 	 -113.844
| 37> H 	 43.2624 	 -21.1606 	 -115.293
| 38> H 	 43.9819 	 -19.7677 	 -114.427
| 39> H 	 47.9555 	 -15.4811 	 -110.007
| 40> H 	 41.4552 	 -20.6932 	 -109.518
| 41> *
| 42>
| 43>                          ****END OF INPUT****

CARTESIAN COORDINATES (ANGSTROEM)
---------------------------------
  S     45.646200  -16.548300  -110.284000
  C     47.340700  -16.421000  -110.112000
  C     48.034900  -17.644500  -110.176000
  C     47.081800  -18.692600  -110.425000
  C     45.770300  -18.350100  -110.523000
  H     47.299300  -19.700400  -110.388000
  C     49.510300  -17.872100  -109.818000
  H     49.761300  -18.926400  -109.944000
  H     49.571000  -17.453600  -108.849000
  C     50.454500  -17.046800  -110.687000
  H     50.003800  -16.057700  -110.774000
  H     51.419900  -17.069900  -110.139000
  C     50.575500  -17.664500  -112.093000
  H     49.566500  -17.834100  -112.572000
  H     51.130700  -16.986400  -112.804000
  H     51.128400  -18.629500  -112.049000
  S     43.332700  -18.890800  -109.325000
  C     42.442700  -20.297100  -109.849000
  C     43.174100  -20.998200  -110.777000
  C     44.358400  -20.340800  -111.183000
  C     44.625000  -19.194800  -110.459000
  H     42.758900  -21.934800  -111.121000
  C     45.135300  -20.787800  -112.356000
  H     46.022500  -21.349100  -111.981000
  H     45.514300  -19.837600  -112.800000
  C     44.375200  -21.555300  -113.534000
  H     43.778300  -22.360800  -113.108000
  H     45.108500  -21.953200  -114.227000
  C     43.409500  -20.705200  -114.294000
  H     42.400400  -20.605200  -113.844000
  H     43.262400  -21.160600  -115.293000
  H     43.981900  -19.767700  -114.427000
  H     47.955500  -15.481100  -110.007000
  H     41.455200  -20.693200  -109.518000

 Total Charge           Charge          ....    0
 Multiplicity           Mult            ....    1
 Number of Electrons    NEL             ....  134
 Basis Dimension        Dim             ....  322

ORBITAL ENERGIES
----------------

  NO   OCC          E(Eh)            E(eV)
   0   2.0000     -88.967772     -2420.9362
   1   2.0000     -88.965601     -2420.8771
   2   2.0000     -10.328712      -281.0585
   3   2.0000     -10.321894      -280.8730
   4   2.0000     -10.319205      -280.7998
   5   2.0000     -10.317032      -280.7407
   6   2.0000     -10.303376      -280.3691
   7   2.0000     -10.296245      -280.1751
   8   2.0000     -10.293114      -280.0899
   9   2.0000     -10.292086      -280.0619
  10   2.0000     -10.290668      -280.0233
  11   2.0000     -10.289831      -280.0005
  12   2.0000     -10.288447      -279.9629
  13   2.0000     -10.287126      -279.9269
  14   2.0000     -10.286297      -279.9044
  15   2.0000     -10.276677      -279.6426
  16   2.0000      -8.082039      -219.9235
  17   2.0000      -8.080287      -219.8758
  18   2.0000      -6.040585      -164.3727
  19   2.0000      -6.038908      -164.3270
  20   2.0000      -6.036633      -164.2651
  21   2.0000      -6.034726      -164.2132
  22   2.0000      -6.032763      -164.1598
  23   2.0000      -6.030987      -164.1115
  24   2.0000      -1.008853       -27.4523
  25   2.0000      -0.984276       -26.7835
  26   2.0000      -0.916111       -24.9287
  27   2.0000      -0.907811       -24.7028
  28   2.0000      -0.875021       -23.8105
  29   2.0000      -0.853682       -23.2299
  30   2.0000      -0.845427       -23.0052
  31   2.0000      -0.815700       -22.1963
  32   2.0000      -0.780031       -21.2257
  33   2.0000      -0.765652       -20.8345
  34   2.0000      -0.705099       -19.1867
  35   2.0000      -0.699121       -19.0241
  36   2.0000      -0.691995       -18.8301
  37   2.0000      -0.655981       -17.8501
  38   2.0000      -0.637416       -17.3450
  39   2.0000      -0.616369       -16.7722
  40   2.0000      -0.593594       -16.1525
  41   2.0000      -0.583157       -15.8685
  42   2.0000      -0.559814       -15.2333
  43   2.0000      -0.553941       -15.0735
  44   2.0000      -0.544269       -14.8103
  45   2.0000      -0.539986       -14.6938
  46   2.0000      -0.519819       -14.1450
  47   2.0000      -0.507730       -13.8160
  48   2.0000      -0.504782       -13.7358
  49   2.0000      -0.493677       -13.4336
  50   2.0000      -0.487072       -13.2539
  51   2.0000      -0.474853       -12.9214
  52   2.0000      -0.469646       -12.7797
  53   2.0000      -0.461659       -12.5624
  54   2.0000      -0.457427       -12.4472
  55   2.0000      -0.445388       -12.1196
  56   2.0000      -0.439569       -11.9613
  57   2.0000      -0.437610       -11.9080
  58   2.0000      -0.435652       -11.8547
  59   2.0000      -0.424763       -11.5584
  60   2.0000      -0.421597       -11.4722
  61   2.0000      -0.417816       -11.3694
  62   2.0000      -0.408980       -11.1289
  63   2.0000      -0.357498        -9.7280
  64   2.0000      -0.330131        -8.9833
  65   2.0000      -0.326736        -8.8910
  66   2.0000      -0.284843        -7.7510
  67   0.0000       0.024529         0.6675
  68   0.0000       0.071404         1.9430
  69   0.0000       0.112636         3.0650
  70   0.0000       0.125603         3.4178
  71   0.0000       0.134956         3.6724

MULLIKEN ATOMIC CHARGES
-----------------------
   0 S :    0.113123
   1 C :   -0.135872
   2 C :   -0.135338
   3 C :    0.059959
   4 C :   -0.171079
   5 H :   -0.022072
   6 C :    0.113168
   7 H :    0.023642
   8 H :    0.035590
   9 C :   -0.075568
  10 H :    0.025707
  11 H :    0.040398
  12 C :   -0.102550
  13 H :    0.051981
  14 H :    0.044121
  15 H :    0.037280
  16 S :    0.115779
  17 C :   -0.105821
  18 C :   -0.049114
  19 C :   -0.030716
  20 C :   -0.132439
  21 H :    0.013064
  22 C :    0.017824
  23 H :    0.046882
  24 H :    0.038332
  25 C :   -0.061407
  26 H :    0.023110
  27 H :    0.031573
  28 C :   -0.058808
  29 H :    0.050191
  30 H :    0.034096
  31 H :    0.031309
  32 H :    0.067904
  33 H :    0.065752
Sum of atomic charges:   -0.0000000

LOEWDIN ATOMIC CHARGES
----------------------
   0 S :    0.394342
   1 C :   -0.217526
   2 C :   -0.066863
   3 C :   -0.046100
   4 C :   -0.175915
   5 H :    0.018343
   6 C :   -0.022864
   7 H :    0.030519
   8 H :    0.032687
   9 C :   -0.041327
  10 H :    0.021557
  11 H :    0.028856
  12 C :   -0.078330
  13 H :    0.033266
  14 H :    0.029708
  15 H :    0.026210
  16 S :    0.410494
  17 C :   -0.195550
  18 C :   -0.074931
  19 C :   -0.065282
  20 C :   -0.204801
  21 H :    0.029768
  22 C :   -0.039830
  23 H :    0.035357
  24 H :    0.034749
  25 C :   -0.040437
  26 H :    0.018577
  27 H :    0.027131
  28 C :   -0.070066
  29 H :    0.030114
  30 H :    0.029600
  31 H :    0.028572
  32 H :    0.038287
  33 H :    0.041687

  Mayer bond orders larger than 0.100000
B(  0-S ,  1-C ) :   1.1623 B(  0-S ,  4-C ) :   1.1083 B(  1-C ,  2-C ) :   1.5986
B(  1-C , 32-H ) :   0.9495 B(  2-C ,  3-C ) :   1.2512 B(  2-C ,  6-C ) :   1.0061
B(  3-C ,  4-C ) :   1.5802 B(  3-C ,  5-H ) :   1.0002 B(  4-C , 20-C ) :   1.0885
B(  6-C ,  7-H ) :   0.9447 B(  6-C ,  8-H ) :   0.9350 B(  6-C ,  9-C ) :   1.0731
B(  9-C , 10-H ) :   0.9559 B(  9-C , 11-H ) :   0.9556 B(  9-C , 12-C ) :   1.0725
B( 12-C , 13-H ) :   0.9747 B( 12-C , 14-H ) :   0.9749 B( 12-C , 15-H ) :   0.9738
B( 16-S , 17-C ) :   1.1511 B( 16-S , 20-C ) :   1.1278 B( 17-C , 18-C ) :   1.6160
B( 17-C , 33-H ) :   0.9595 B( 18-C , 19-C ) :   1.2456 B( 18-C , 21-H ) :   0.9900
B( 19-C , 20-C ) :   1.5751 B( 19-C , 22-C ) :   1.0409 B( 22-C , 23-H ) :   0.9231
B( 22-C , 24-H ) :   0.9373 B( 22-C , 25-C ) :   1.0761 B( 25-C , 26-H ) :   0.9512
B( 25-C , 27-H ) :   0.9544 B( 25-C , 28-C ) :   1.0811 B( 28-C , 29-H ) :   0.9736
B( 28-C , 30-H ) :   0.9729 B( 28-C , 31-H ) :   0.9735

Dispersion correction           -0.014178053
FINAL SINGLE POINT ENERGY     -1339.875522848427

DIPOLE MOMENT
-------------
                                X             Y             Z
Electronic contribution:    -16.59052       8.92490      16.99402
Nuclear contribution   :     17.03913      -9.37352     -17.16760
                        -----------------------------------------
Total Dipole Moment    :      0.44861      -0.44862      -0.17358
                        -----------------------------------------
Magnitude (a.u.)       :      0.65776
Magnitude (Debye)      :      1.67188

Rotational constants in cm-1:     0.020691     0.008057     0.006502
Rotational constants in MHz :   620.291023   241.550357   194.918487

                             ****ORCA TERMINATED NORMALLY****
TOTAL RUN TIME: 0 days 0 hours 0 minutes 20 seconds 513 msec
