                         Program Version 4.2.1 -  RELEASE  -
|  1> ! wB97X-D3 SP def2-SVP
|  2> %pal
|  3> nprocs 24
|  4> end
|  5>
|  6> * xyz 0 1
|  7> S 	 -75.758 	 5.41508 	 -103.671
|  8> C 	 -76.951 	 6.61182 	 -103.907
|  9> C 	 -77.4884 	 6.68438 	 -105.166
| 10> C 	 -77.0231 	 5.50275 	 -105.911
| 11> C 	 -76.1535 	 4.68441 	 -105.208
| 12> H 	 -77.3365 	 5.21694 	 -106.924
| 13> C 	 -78.6056 	 7.46921 	 -105.782
| 14> H 	 -78.8007 	 8.24963 	 -105.096
| 15> H 	 -79.4688 	 6.82709 	 -105.644
| 16> C 	 -78.4056 	 7.9419 	 -107.198
| 17> H 	 -78.0816 	 7.07261 	 -107.751
| 18> H 	 -79.3144 	 8.39581 	 -107.529
| 19> C 	 -77.1399 	 8.91305 	 -107.296
| 20> H 	 -77.2223 	 9.72669 	 -106.574
| 21> H 	 -76.163 	 8.4757 	 -107.115
| 22> H 	 -77.1137 	 9.41083 	 -108.284
| 23> S 	 -75.9325 	 1.91686 	 -105.2
| 24> C 	 -74.8134 	 1.10352 	 -106.264
| 25> C 	 -74.1434 	 2.07705 	 -107.037
| 26> C 	 -74.4423 	 3.4004 	 -106.7
| 27> C 	 -75.4361 	 3.5471 	 -105.717
| 28> H 	 -73.3678 	 1.90468 	 -107.791
| 29> C 	 -73.7828 	 4.58095 	 -107.428
| 30> H 	 -72.717 	 4.42657 	 -107.602
| 31> H 	 -73.787 	 5.47953 	 -106.748
| 32> C 	 -74.3572 	 4.93564 	 -108.825
| 33> H 	 -75.3898 	 5.3006 	 -108.699
| 34> H 	 -74.5702 	 4.12603 	 -109.501
| 35> C 	 -73.6311 	 6.17894 	 -109.378
| 36> H 	 -73.8465 	 7.05891 	 -108.769
| 37> H 	 -74.0411 	 6.49699 	 -110.368
| 38> H 	 -72.5551 	 5.97906 	 -109.507
| 39> H 	 -77.369 	 7.28669 	 -103.149
| 40> H 	 -74.6261 	 0.0372121 	 -106.357
| 41> *
| 42>
| 43>                          ****END OF INPUT****

CARTESIAN COORDINATES (ANGSTROEM)
---------------------------------
  S    -75.758000    5.415080  -103.671000
  C    -76.951000    6.611820  -103.907000
  C    -77.488400    6.684380  -105.166000
  C    -77.023100    5.502750  -105.911000
  C    -76.153500    4.684410  -105.208000
  H    -77.336500    5.216940  -106.924000
  C    -78.605600    7.469210  -105.782000
  H    -78.800700    8.249630  -105.096000
  H    -79.468800    6.827090  -105.644000
  C    -78.405600    7.941900  -107.198000
  H    -78.081600    7.072610  -107.751000
  H    -79.314400    8.395810  -107.529000
  C    -77.139900    8.913050  -107.296000
  H    -77.222300    9.726690  -106.574000
  H    -76.163000    8.475700  -107.115000
  H    -77.113700    9.410830  -108.284000
  S    -75.932500    1.916860  -105.200000
  C    -74.813400    1.103520  -106.264000
  C    -74.143400    2.077050  -107.037000
  C    -74.442300    3.400400  -106.700000
  C    -75.436100    3.547100  -105.717000
  H    -73.367800    1.904680  -107.791000
  C    -73.782800    4.580950  -107.428000
  H    -72.717000    4.426570  -107.602000
  H    -73.787000    5.479530  -106.748000
  C    -74.357200    4.935640  -108.825000
  H    -75.389800    5.300600  -108.699000
  H    -74.570200    4.126030  -109.501000
  C    -73.631100    6.178940  -109.378000
  H    -73.846500    7.058910  -108.769000
  H    -74.041100    6.496990  -110.368000
  H    -72.555100    5.979060  -109.507000
  H    -77.369000    7.286690  -103.149000
  H    -74.626100    0.037212  -106.357000

 Total Charge           Charge          ....    0
 Multiplicity           Mult            ....    1
 Number of Electrons    NEL             ....  134
 Basis Dimension        Dim             ....  322

ORBITAL ENERGIES
----------------

  NO   OCC          E(Eh)            E(eV)
   0   2.0000     -88.965787     -2420.8821
   1   2.0000     -88.965442     -2420.8728
   2   2.0000     -10.326138      -280.9885
   3   2.0000     -10.325405      -280.9686
   4   2.0000     -10.323592      -280.9192
   5   2.0000     -10.312785      -280.6251
   6   2.0000     -10.302354      -280.3413
   7   2.0000     -10.301066      -280.3063
   8   2.0000     -10.297234      -280.2020
   9   2.0000     -10.295495      -280.1547
  10   2.0000     -10.293645      -280.1043
  11   2.0000     -10.293020      -280.0873
  12   2.0000     -10.287953      -279.9494
  13   2.0000     -10.286846      -279.9193
  14   2.0000     -10.283193      -279.8199
  15   2.0000     -10.282608      -279.8040
  16   2.0000      -8.081050      -219.8966
  17   2.0000      -8.079887      -219.8649
  18   2.0000      -6.039565      -164.3449
  19   2.0000      -6.038336      -164.3115
  20   2.0000      -6.035490      -164.2340
  21   2.0000      -6.034243      -164.2001
  22   2.0000      -6.031694      -164.1307
  23   2.0000      -6.030976      -164.1112
  24   2.0000      -1.005982       -27.3742
  25   2.0000      -0.983402       -26.7597
  26   2.0000      -0.918647       -24.9977
  27   2.0000      -0.903387       -24.5824
  28   2.0000      -0.869406       -23.6577
  29   2.0000      -0.848571       -23.0908
  30   2.0000      -0.842918       -22.9370
  31   2.0000      -0.808445       -21.9989
  32   2.0000      -0.783546       -21.3214
  33   2.0000      -0.769267       -20.9328
  34   2.0000      -0.714552       -19.4440
  35   2.0000      -0.701750       -19.0956
  36   2.0000      -0.694508       -18.8985
  37   2.0000      -0.661330       -17.9957
  38   2.0000      -0.639409       -17.3992
  39   2.0000      -0.623648       -16.9703
  40   2.0000      -0.597394       -16.2559
  41   2.0000      -0.566627       -15.4187
  42   2.0000      -0.557871       -15.1804
  43   2.0000      -0.552136       -15.0244
  44   2.0000      -0.542409       -14.7597
  45   2.0000      -0.518674       -14.1138
  46   2.0000      -0.513644       -13.9770
  47   2.0000      -0.510704       -13.8970
  48   2.0000      -0.508677       -13.8418
  49   2.0000      -0.498165       -13.5558
  50   2.0000      -0.491602       -13.3772
  51   2.0000      -0.473148       -12.8750
  52   2.0000      -0.470468       -12.8021
  53   2.0000      -0.463073       -12.6008
  54   2.0000      -0.459106       -12.4929
  55   2.0000      -0.450721       -12.2647
  56   2.0000      -0.443426       -12.0662
  57   2.0000      -0.438122       -11.9219
  58   2.0000      -0.436611       -11.8808
  59   2.0000      -0.431250       -11.7349
  60   2.0000      -0.420815       -11.4510
  61   2.0000      -0.415831       -11.3153
  62   2.0000      -0.407573       -11.0906
  63   2.0000      -0.334572        -9.1042
  64   2.0000      -0.326177        -8.8757
  65   2.0000      -0.322470        -8.7749
  66   2.0000      -0.308071        -8.3830
  67   0.0000       0.035735         0.9724
  68   0.0000       0.059955         1.6314
  69   0.0000       0.109478         2.9791
  70   0.0000       0.119666         3.2563
  71   0.0000       0.130932         3.5628

MULLIKEN ATOMIC CHARGES
-----------------------
   0 S :    0.131352
   1 C :   -0.110814
   2 C :   -0.119290
   3 C :    0.014769
   4 C :   -0.171298
   5 H :    0.025762
   6 C :    0.088824
   7 H :   -0.003411
   8 H :    0.042872
   9 C :   -0.032329
  10 H :    0.032199
  11 H :    0.037335
  12 C :   -0.084312
  13 H :    0.024216
  14 H :    0.047322
  15 H :    0.037736
  16 S :    0.110888
  17 C :   -0.091877
  18 C :   -0.037394
  19 C :    0.001256
  20 C :   -0.190309
  21 H :    0.020735
  22 C :    0.033647
  23 H :    0.019334
  24 H :    0.037967
  25 C :   -0.060609
  26 H :    0.009130
  27 H :    0.028334
  28 C :   -0.062708
  29 H :    0.038556
  30 H :    0.031257
  31 H :    0.038781
  32 H :    0.045047
  33 H :    0.067031
Sum of atomic charges:   -0.0000000

LOEWDIN ATOMIC CHARGES
----------------------
   0 S :    0.422114
   1 C :   -0.210652
   2 C :   -0.064603
   3 C :   -0.050719
   4 C :   -0.210469
   5 H :    0.030013
   6 C :   -0.034174
   7 H :    0.020277
   8 H :    0.038626
   9 C :   -0.027046
  10 H :    0.023997
  11 H :    0.027003
  12 C :   -0.067658
  13 H :    0.021706
  14 H :    0.026710
  15 H :    0.028321
  16 S :    0.409884
  17 C :   -0.189135
  18 C :   -0.077868
  19 C :   -0.054169
  20 C :   -0.204902
  21 H :    0.033010
  22 C :   -0.033799
  23 H :    0.026711
  24 H :    0.037940
  25 C :   -0.046714
  26 H :    0.023253
  27 H :    0.022111
  28 C :   -0.067637
  29 H :    0.027889
  30 H :    0.029315
  31 H :    0.023689
  32 H :    0.032076
  33 H :    0.034901

  Mayer bond orders larger than 0.100000
B(  0-S ,  1-C ) :   1.1434 B(  0-S ,  4-C ) :   1.1366 B(  1-C ,  2-C ) :   1.6445
B(  1-C , 32-H ) :   0.9545 B(  2-C ,  3-C ) :   1.1979 B(  2-C ,  6-C ) :   1.0128
B(  3-C ,  4-C ) :   1.6225 B(  3-C ,  5-H ) :   0.9847 B(  4-C , 20-C ) :   1.0313
B(  6-C ,  7-H ) :   0.9304 B(  6-C ,  8-H ) :   0.9376 B(  6-C ,  9-C ) :   1.0719
B(  9-C , 10-H ) :   0.9564 B(  9-C , 11-H ) :   0.9546 B(  9-C , 12-C ) :   1.0627
B( 12-C , 13-H ) :   0.9784 B( 12-C , 14-H ) :   0.9750 B( 12-C , 15-H ) :   0.9777
B( 16-S , 17-C ) :   1.1815 B( 16-S , 20-C ) :   1.1468 B( 17-C , 18-C ) :   1.5371
B( 17-C , 20-C ) :   0.1176 B( 17-C , 33-H ) :   0.9703 B( 18-C , 19-C ) :   1.3120
B( 18-C , 21-H ) :   0.9817 B( 19-C , 20-C ) :   1.5539 B( 19-C , 22-C ) :   1.0409
B( 22-C , 23-H ) :   0.9405 B( 22-C , 24-H ) :   0.9369 B( 22-C , 25-C ) :   1.0514
B( 25-C , 26-H ) :   0.9469 B( 25-C , 27-H ) :   0.9600 B( 25-C , 28-C ) :   1.0758
B( 28-C , 29-H ) :   0.9756 B( 28-C , 30-H ) :   0.9721 B( 28-C , 31-H ) :   0.9768

Dispersion correction           -0.015363204
FINAL SINGLE POINT ENERGY     -1339.877370114845

DIPOLE MOMENT
-------------
                                X             Y             Z
Electronic contribution:     -0.12550     -21.19581      22.08892
Nuclear contribution   :     -0.04824      21.58436     -22.63841
                        -----------------------------------------
Total Dipole Moment    :     -0.17374       0.38855      -0.54950
                        -----------------------------------------
Magnitude (a.u.)       :      0.69506
Magnitude (Debye)      :      1.76669

Rotational constants in cm-1:     0.017119     0.010218     0.007427
Rotational constants in MHz :   513.208374   306.314670   222.641954

                             ****ORCA TERMINATED NORMALLY****
TOTAL RUN TIME: 0 days 0 hours 0 minutes 22 seconds 545 msec
