                         Program Version 4.2.1 -  RELEASE  -
|  1> ! wB97X-D3 SP def2-SVP
|  2> %pal
|  3> nprocs 24
|  4> end
|  5>
|  6> * xyz 0 1
|  7> S 	 -75.7463 	 0.177525 	 -66.3478
|  8> C 	 -75.5696 	 1.38627 	 -67.6189
|  9> C 	 -76.8223 	 1.97435 	 -67.8718
| 10> C 	 -77.9163 	 1.3429 	 -67.1878
| 11> C 	 -77.5107 	 0.465803 	 -66.179
| 12> H 	 -78.9818 	 1.56524 	 -67.2968
| 13> C 	 -77.0988 	 3.09386 	 -68.8847
| 14> H 	 -78.0739 	 2.99151 	 -69.2927
| 15> H 	 -76.3932 	 2.89995 	 -69.7386
| 16> C 	 -77.072 	 4.55571 	 -68.322
| 17> H 	 -78.0172 	 4.72929 	 -67.7747
| 18> H 	 -76.2418 	 4.72421 	 -67.5688
| 19> C 	 -76.9885 	 5.6043 	 -69.4085
| 20> H 	 -75.9997 	 5.75123 	 -69.7495
| 21> H 	 -77.6949 	 5.56925 	 -70.2539
| 22> H 	 -77.2317 	 6.54182 	 -68.9379
| 23> S 	 -77.5706 	 -0.76224 	 -63.7005
| 24> C 	 -79.0682 	 -1.37247 	 -63.0608
| 25> C 	 -80.1075 	 -1.22387 	 -63.9055
| 26> C 	 -79.7043 	 -0.621146 	 -65.171
| 27> C 	 -78.3628 	 -0.277125 	 -65.1726
| 28> H 	 -81.1355 	 -1.57871 	 -63.689
| 29> C 	 -80.6382 	 -0.416683 	 -66.3563
| 30> H 	 -81.1807 	 -1.30448 	 -66.5021
| 31> H 	 -80.1238 	 -0.293009 	 -67.3781
| 32> C 	 -81.618 	 0.751308 	 -66.237
| 33> H 	 -81.9987 	 1.02927 	 -67.2368
| 34> H 	 -81.1671 	 1.6271 	 -65.7019
| 35> C 	 -82.8491 	 0.501467 	 -65.3764
| 36> H 	 -82.5527 	 0.21199 	 -64.4073
| 37> H 	 -83.4904 	 -0.284667 	 -65.8143
| 38> H 	 -83.4832 	 1.44453 	 -65.3111
| 39> H 	 -74.585 	 1.61079 	 -67.9481
| 40> H 	 -79.3258 	 -1.76851 	 -62.0118
| 41> *
| 42>
| 43>                          ****END OF INPUT****

CARTESIAN COORDINATES (ANGSTROEM)
---------------------------------
  S    -75.746300    0.177525  -66.347800
  C    -75.569600    1.386270  -67.618900
  C    -76.822300    1.974350  -67.871800
  C    -77.916300    1.342900  -67.187800
  C    -77.510700    0.465803  -66.179000
  H    -78.981800    1.565240  -67.296800
  C    -77.098800    3.093860  -68.884700
  H    -78.073900    2.991510  -69.292700
  H    -76.393200    2.899950  -69.738600
  C    -77.072000    4.555710  -68.322000
  H    -78.017200    4.729290  -67.774700
  H    -76.241800    4.724210  -67.568800
  C    -76.988500    5.604300  -69.408500
  H    -75.999700    5.751230  -69.749500
  H    -77.694900    5.569250  -70.253900
  H    -77.231700    6.541820  -68.937900
  S    -77.570600   -0.762240  -63.700500
  C    -79.068200   -1.372470  -63.060800
  C    -80.107500   -1.223870  -63.905500
  C    -79.704300   -0.621146  -65.171000
  C    -78.362800   -0.277125  -65.172600
  H    -81.135500   -1.578710  -63.689000
  C    -80.638200   -0.416683  -66.356300
  H    -81.180700   -1.304480  -66.502100
  H    -80.123800   -0.293009  -67.378100
  C    -81.618000    0.751308  -66.237000
  H    -81.998700    1.029270  -67.236800
  H    -81.167100    1.627100  -65.701900
  C    -82.849100    0.501467  -65.376400
  H    -82.552700    0.211990  -64.407300
  H    -83.490400   -0.284667  -65.814300
  H    -83.483200    1.444530  -65.311100
  H    -74.585000    1.610790  -67.948100
  H    -79.325800   -1.768510  -62.011800

 Total Charge           Charge          ....    0
 Multiplicity           Mult            ....    1
 Number of Electrons    NEL             ....  134
 Basis Dimension        Dim             ....  322

ORBITAL ENERGIES
----------------

  NO   OCC          E(Eh)            E(eV)
   0   2.0000     -88.968344     -2420.9517
   1   2.0000     -88.964878     -2420.8574
   2   2.0000     -10.340055      -281.3672
   3   2.0000     -10.333067      -281.1770
   4   2.0000     -10.321643      -280.8662
   5   2.0000     -10.318760      -280.7877
   6   2.0000     -10.308604      -280.5114
   7   2.0000     -10.307927      -280.4930
   8   2.0000     -10.298412      -280.2340
   9   2.0000     -10.297769      -280.2165
  10   2.0000     -10.295235      -280.1476
  11   2.0000     -10.293585      -280.1027
  12   2.0000     -10.293454      -280.0991
  13   2.0000     -10.290514      -280.0191
  14   2.0000     -10.279258      -279.7128
  15   2.0000     -10.272928      -279.5406
  16   2.0000      -8.083433      -219.9614
  17   2.0000      -8.078749      -219.8339
  18   2.0000      -6.042035      -164.4121
  19   2.0000      -6.037963      -164.3013
  20   2.0000      -6.037374      -164.2853
  21   2.0000      -6.033988      -164.1932
  22   2.0000      -6.033298      -164.1744
  23   2.0000      -6.029529      -164.0718
  24   2.0000      -1.004692       -27.3391
  25   2.0000      -0.980011       -26.6675
  26   2.0000      -0.912075       -24.8188
  27   2.0000      -0.904122       -24.6024
  28   2.0000      -0.867064       -23.5940
  29   2.0000      -0.851913       -23.1817
  30   2.0000      -0.844728       -22.9862
  31   2.0000      -0.817819       -22.2540
  32   2.0000      -0.783273       -21.3139
  33   2.0000      -0.770877       -20.9766
  34   2.0000      -0.701046       -19.0764
  35   2.0000      -0.696501       -18.9527
  36   2.0000      -0.685029       -18.6406
  37   2.0000      -0.661805       -18.0086
  38   2.0000      -0.642075       -17.4717
  39   2.0000      -0.617398       -16.8003
  40   2.0000      -0.599044       -16.3008
  41   2.0000      -0.570328       -15.5194
  42   2.0000      -0.554901       -15.0996
  43   2.0000      -0.550971       -14.9927
  44   2.0000      -0.537389       -14.6231
  45   2.0000      -0.523400       -14.2424
  46   2.0000      -0.516769       -14.0620
  47   2.0000      -0.512164       -13.9367
  48   2.0000      -0.502045       -13.6613
  49   2.0000      -0.500009       -13.6059
  50   2.0000      -0.496545       -13.5117
  51   2.0000      -0.482692       -13.1347
  52   2.0000      -0.476008       -12.9528
  53   2.0000      -0.463787       -12.6203
  54   2.0000      -0.462576       -12.5873
  55   2.0000      -0.447082       -12.1657
  56   2.0000      -0.441559       -12.0154
  57   2.0000      -0.431783       -11.7494
  58   2.0000      -0.428370       -11.6566
  59   2.0000      -0.423259       -11.5175
  60   2.0000      -0.416782       -11.3412
  61   2.0000      -0.415843       -11.3157
  62   2.0000      -0.411998       -11.2110
  63   2.0000      -0.359097        -9.7715
  64   2.0000      -0.334522        -9.1028
  65   2.0000      -0.327470        -8.9109
  66   2.0000      -0.287985        -7.8365
  67   0.0000       0.023613         0.6425
  68   0.0000       0.079063         2.1514
  69   0.0000       0.102734         2.7955
  70   0.0000       0.119279         3.2457
  71   0.0000       0.128602         3.4994

MULLIKEN ATOMIC CHARGES
-----------------------
   0 S :    0.081840
   1 C :   -0.115357
   2 C :   -0.071269
   3 C :   -0.001419
   4 C :   -0.105737
   5 H :    0.019003
   6 C :    0.056422
   7 H :    0.011526
   8 H :    0.036610
   9 C :   -0.092494
  10 H :    0.031826
  11 H :    0.043427
  12 C :   -0.023796
  13 H :    0.024456
  14 H :    0.031654
  15 H :    0.017385
  16 S :    0.110510
  17 C :   -0.097548
  18 C :   -0.044692
  19 C :   -0.066698
  20 C :   -0.128048
  21 H :    0.035471
  22 C :    0.046075
  23 H :    0.011547
  24 H :    0.044307
  25 C :   -0.095631
  26 H :    0.033072
  27 H :    0.044867
  28 C :   -0.058940
  29 H :    0.020530
  30 H :    0.026425
  31 H :    0.044501
  32 H :    0.048726
  33 H :    0.081450
Sum of atomic charges:    0.0000000

LOEWDIN ATOMIC CHARGES
----------------------
   0 S :    0.376664
   1 C :   -0.187657
   2 C :   -0.058051
   3 C :   -0.071071
   4 C :   -0.170713
   5 H :    0.033996
   6 C :   -0.034804
   7 H :    0.024063
   8 H :    0.034714
   9 C :   -0.041381
  10 H :    0.026161
  11 H :    0.031821
  12 C :   -0.067441
  13 H :    0.019596
  14 H :    0.027234
  15 H :    0.026707
  16 S :    0.411389
  17 C :   -0.202795
  18 C :   -0.078886
  19 C :   -0.057996
  20 C :   -0.192631
  21 H :    0.037780
  22 C :   -0.039120
  23 H :    0.023655
  24 H :    0.043353
  25 C :   -0.048915
  26 H :    0.025226
  27 H :    0.031606
  28 C :   -0.067292
  29 H :    0.012554
  30 H :    0.021457
  31 H :    0.034991
  32 H :    0.022517
  33 H :    0.053271

  Mayer bond orders larger than 0.100000
B(  0-S ,  1-C ) :   1.1329 B(  0-S ,  4-C ) :   1.1501 B(  1-C ,  2-C ) :   1.5811
B(  1-C ,  4-C ) :   0.1063 B(  1-C , 32-H ) :   0.9818 B(  2-C ,  3-C ) :   1.2454
B(  2-C ,  6-C ) :   1.0270 B(  3-C ,  4-C ) :   1.5753 B(  3-C ,  5-H ) :   0.9852
B(  4-C , 20-C ) :   1.0303 B(  6-C ,  7-H ) :   0.9391 B(  6-C ,  8-H ) :   0.9537
B(  6-C ,  9-C ) :   1.0450 B(  9-C , 10-H ) :   0.9578 B(  9-C , 11-H ) :   0.9596
B(  9-C , 12-C ) :   1.0866 B( 12-C , 13-H ) :   0.9754 B( 12-C , 14-H ) :   0.9731
B( 12-C , 15-H ) :   0.9698 B( 16-S , 17-C ) :   1.1395 B( 16-S , 20-C ) :   1.1336
B( 17-C , 18-C ) :   1.6546 B( 17-C , 33-H ) :   0.9496 B( 18-C , 19-C ) :   1.2243
B( 18-C , 21-H ) :   0.9772 B( 19-C , 20-C ) :   1.6303 B( 19-C , 22-C ) :   1.0328
B( 22-C , 23-H ) :   0.9312 B( 22-C , 24-H ) :   0.9435 B( 22-C , 25-C ) :   1.0558
B( 25-C , 26-H ) :   0.9570 B( 25-C , 27-H ) :   0.9556 B( 25-C , 28-C ) :   1.0836
B( 28-C , 29-H ) :   0.9737 B( 28-C , 30-H ) :   0.9738 B( 28-C , 31-H ) :   0.9726

Dispersion correction           -0.013862022
FINAL SINGLE POINT ENERGY     -1339.877747710614

DIPOLE MOMENT
-------------
                                X             Y             Z
Electronic contribution:     18.35203     -19.07067      14.73671
Nuclear contribution   :    -18.93984      19.42307     -15.01291
                        -----------------------------------------
Total Dipole Moment    :     -0.58781       0.35240      -0.27620
                        -----------------------------------------
Magnitude (a.u.)       :      0.73891
Magnitude (Debye)      :      1.87816

Rotational constants in cm-1:     0.018286     0.008310     0.006147
Rotational constants in MHz :   548.197346   249.115482   184.289364

                             ****ORCA TERMINATED NORMALLY****
TOTAL RUN TIME: 0 days 0 hours 0 minutes 21 seconds 158 msec
