                         Program Version 4.2.1 -  RELEASE  -
|  1> ! wB97X-D3 SP def2-SVP
|  2> %pal
|  3> nprocs 24
|  4> end
|  5>
|  6> * xyz 0 1
|  7> S 	 -114.143 	 15.0282 	 -115.399
|  8> C 	 -112.707 	 14.9299 	 -116.333
|  9> C 	 -113.026 	 15.2626 	 -117.679
| 10> C 	 -114.377 	 15.5251 	 -117.945
| 11> C 	 -115.146 	 15.5763 	 -116.788
| 12> H 	 -114.753 	 15.8173 	 -118.911
| 13> C 	 -111.961 	 15.1198 	 -118.794
| 14> H 	 -111.336 	 15.9976 	 -118.762
| 15> H 	 -112.497 	 15.1339 	 -119.771
| 16> C 	 -111.164 	 13.7676 	 -118.699
| 17> H 	 -110.611 	 13.6711 	 -117.767
| 18> H 	 -111.914 	 12.9899 	 -118.71
| 19> C 	 -110.127 	 13.4525 	 -119.82
| 20> H 	 -110.365 	 12.5759 	 -120.429
| 21> H 	 -110.127 	 14.1927 	 -120.632
| 22> H 	 -109.135 	 13.2596 	 -119.419
| 23> S 	 -117.906 	 15.0909 	 -117
| 24> C 	 -119.055 	 16.3389 	 -116.572
| 25> C 	 -118.391 	 17.4481 	 -116.034
| 26> C 	 -116.976 	 17.3355 	 -116.053
| 27> C 	 -116.511 	 16.1155 	 -116.59
| 28> H 	 -119.051 	 18.2822 	 -115.685
| 29> C 	 -116.057 	 18.4875 	 -115.608
| 30> H 	 -115.024 	 18.0604 	 -115.393
| 31> H 	 -116.459 	 18.981 	 -114.685
| 32> C 	 -115.845 	 19.548 	 -116.666
| 33> H 	 -115.012 	 20.1541 	 -116.348
| 34> H 	 -116.659 	 20.2879 	 -116.667
| 35> C 	 -115.543 	 18.9766 	 -118.089
| 36> H 	 -115.397 	 19.7663 	 -118.784
| 37> H 	 -116.29 	 18.3938 	 -118.426
| 38> H 	 -114.652 	 18.3889 	 -118.069
| 39> H 	 -111.751 	 14.6397 	 -115.891
| 40> H 	 -120.141 	 16.1365 	 -116.704
| 41> *
| 42>
| 43>                          ****END OF INPUT****

CARTESIAN COORDINATES (ANGSTROEM)
---------------------------------
  S    -114.143000   15.028200  -115.399000
  C    -112.707000   14.929900  -116.333000
  C    -113.026000   15.262600  -117.679000
  C    -114.377000   15.525100  -117.945000
  C    -115.146000   15.576300  -116.788000
  H    -114.753000   15.817300  -118.911000
  C    -111.961000   15.119800  -118.794000
  H    -111.336000   15.997600  -118.762000
  H    -112.497000   15.133900  -119.771000
  C    -111.164000   13.767600  -118.699000
  H    -110.611000   13.671100  -117.767000
  H    -111.914000   12.989900  -118.710000
  C    -110.127000   13.452500  -119.820000
  H    -110.365000   12.575900  -120.429000
  H    -110.127000   14.192700  -120.632000
  H    -109.135000   13.259600  -119.419000
  S    -117.906000   15.090900  -117.000000
  C    -119.055000   16.338900  -116.572000
  C    -118.391000   17.448100  -116.034000
  C    -116.976000   17.335500  -116.053000
  C    -116.511000   16.115500  -116.590000
  H    -119.051000   18.282200  -115.685000
  C    -116.057000   18.487500  -115.608000
  H    -115.024000   18.060400  -115.393000
  H    -116.459000   18.981000  -114.685000
  C    -115.845000   19.548000  -116.666000
  H    -115.012000   20.154100  -116.348000
  H    -116.659000   20.287900  -116.667000
  C    -115.543000   18.976600  -118.089000
  H    -115.397000   19.766300  -118.784000
  H    -116.290000   18.393800  -118.426000
  H    -114.652000   18.388900  -118.069000
  H    -111.751000   14.639700  -115.891000
  H    -120.141000   16.136500  -116.704000

 Total Charge           Charge          ....    0
 Multiplicity           Mult            ....    1
 Number of Electrons    NEL             ....  134
 Basis Dimension        Dim             ....  322

ORBITAL ENERGIES
----------------

  NO   OCC          E(Eh)            E(eV)
   0   2.0000     -88.968043     -2420.9435
   1   2.0000     -88.963901     -2420.8308
   2   2.0000     -10.335554      -281.2447
   3   2.0000     -10.331524      -281.1351
   4   2.0000     -10.323947      -280.9289
   5   2.0000     -10.319493      -280.8077
   6   2.0000     -10.309137      -280.5259
   7   2.0000     -10.304194      -280.3914
   8   2.0000     -10.300685      -280.2959
   9   2.0000     -10.298049      -280.2242
  10   2.0000     -10.296760      -280.1891
  11   2.0000     -10.295118      -280.1444
  12   2.0000     -10.289272      -279.9853
  13   2.0000     -10.280652      -279.7508
  14   2.0000     -10.278960      -279.7047
  15   2.0000     -10.257588      -279.1232
  16   2.0000      -8.082165      -219.9269
  17   2.0000      -8.078289      -219.8214
  18   2.0000      -6.040526      -164.3711
  19   2.0000      -6.036705      -164.2671
  20   2.0000      -6.036485      -164.2611
  21   2.0000      -6.033376      -164.1765
  22   2.0000      -6.032697      -164.1580
  23   2.0000      -6.029316      -164.0660
  24   2.0000      -1.000044       -27.2126
  25   2.0000      -0.980931       -26.6925
  26   2.0000      -0.904305       -24.6074
  27   2.0000      -0.899561       -24.4783
  28   2.0000      -0.863181       -23.4883
  29   2.0000      -0.850444       -23.1417
  30   2.0000      -0.841046       -22.8860
  31   2.0000      -0.811425       -22.0800
  32   2.0000      -0.783684       -21.3251
  33   2.0000      -0.766152       -20.8481
  34   2.0000      -0.706065       -19.2130
  35   2.0000      -0.700433       -19.0597
  36   2.0000      -0.687499       -18.7078
  37   2.0000      -0.653845       -17.7920
  38   2.0000      -0.645698       -17.5703
  39   2.0000      -0.614266       -16.7150
  40   2.0000      -0.587916       -15.9980
  41   2.0000      -0.567816       -15.4511
  42   2.0000      -0.559083       -15.2134
  43   2.0000      -0.547918       -14.9096
  44   2.0000      -0.545079       -14.8323
  45   2.0000      -0.520748       -14.1703
  46   2.0000      -0.512357       -13.9419
  47   2.0000      -0.508454       -13.8357
  48   2.0000      -0.507364       -13.8061
  49   2.0000      -0.497652       -13.5418
  50   2.0000      -0.487123       -13.2553
  51   2.0000      -0.481336       -13.0978
  52   2.0000      -0.469545       -12.7770
  53   2.0000      -0.464686       -12.6447
  54   2.0000      -0.455627       -12.3982
  55   2.0000      -0.446859       -12.1597
  56   2.0000      -0.441337       -12.0094
  57   2.0000      -0.434223       -11.8158
  58   2.0000      -0.430277       -11.7084
  59   2.0000      -0.418764       -11.3951
  60   2.0000      -0.417288       -11.3550
  61   2.0000      -0.414762       -11.2862
  62   2.0000      -0.409071       -11.1314
  63   2.0000      -0.342338        -9.3155
  64   2.0000      -0.332073        -9.0362
  65   2.0000      -0.318342        -8.6625
  66   2.0000      -0.302863        -8.2413
  67   0.0000       0.033326         0.9069
  68   0.0000       0.051655         1.4056
  69   0.0000       0.112365         3.0576
  70   0.0000       0.126339         3.4379
  71   0.0000       0.128329         3.4920

MULLIKEN ATOMIC CHARGES
-----------------------
   0 S :    0.123912
   1 C :   -0.135549
   2 C :   -0.124591
   3 C :    0.084901
   4 C :   -0.182779
   5 H :    0.015106
   6 C :    0.077707
   7 H :    0.037811
   8 H :    0.023386
   9 C :   -0.091715
  10 H :    0.029485
  11 H :    0.035281
  12 C :   -0.052603
  13 H :    0.026252
  14 H :    0.024926
  15 H :    0.038050
  16 S :    0.102493
  17 C :   -0.127199
  18 C :   -0.052598
  19 C :   -0.013151
  20 C :   -0.187667
  21 H :    0.041803
  22 C :    0.052949
  23 H :    0.037736
  24 H :    0.036474
  25 C :   -0.079525
  26 H :    0.022611
  27 H :    0.020262
  28 C :    0.005520
  29 H :    0.018427
  30 H :    0.021138
  31 H :    0.023897
  32 H :    0.066869
  33 H :    0.080383
Sum of atomic charges:   -0.0000000

LOEWDIN ATOMIC CHARGES
----------------------
   0 S :    0.419085
   1 C :   -0.208946
   2 C :   -0.069787
   3 C :   -0.053150
   4 C :   -0.189045
   5 H :    0.034178
   6 C :   -0.028730
   7 H :    0.027377
   8 H :    0.030285
   9 C :   -0.041499
  10 H :    0.021432
  11 H :    0.026135
  12 C :   -0.075830
  13 H :    0.028379
  14 H :    0.026081
  15 H :    0.026847
  16 S :    0.399539
  17 C :   -0.189070
  18 C :   -0.083681
  19 C :   -0.051010
  20 C :   -0.205769
  21 H :    0.042765
  22 C :   -0.036060
  23 H :    0.034291
  24 H :    0.036412
  25 C :   -0.039637
  26 H :    0.022924
  27 H :    0.018863
  28 C :   -0.048389
  29 H :    0.023034
  30 H :    0.009132
  31 H :    0.023514
  32 H :    0.032689
  33 H :    0.037640

  Mayer bond orders larger than 0.100000
B(  0-S ,  1-C ) :   1.1757 B(  0-S ,  4-C ) :   1.1680 B(  1-C ,  2-C ) :   1.5339
B(  1-C ,  4-C ) :   0.1139 B(  1-C , 32-H ) :   0.9735 B(  2-C ,  3-C ) :   1.3069
B(  2-C ,  6-C ) :   1.0118 B(  3-C ,  4-C ) :   1.5285 B(  3-C ,  5-H ) :   0.9903
B(  4-C , 20-C ) :   1.0140 B(  6-C ,  7-H ) :   0.9369 B(  6-C ,  8-H ) :   0.9497
B(  6-C ,  9-C ) :   1.0653 B(  9-C , 10-H ) :   0.9625 B(  9-C , 11-H ) :   0.9657
B(  9-C , 12-C ) :   1.0614 B( 12-C , 13-H ) :   0.9767 B( 12-C , 14-H ) :   0.9777
B( 12-C , 15-H ) :   0.9812 B( 16-S , 17-C ) :   1.1786 B( 16-S , 20-C ) :   1.1524
B( 17-C , 18-C ) :   1.5708 B( 17-C , 20-C ) :   0.1109 B( 17-C , 33-H ) :   0.9647
B( 18-C , 19-C ) :   1.2498 B( 18-C , 21-H ) :   0.9887 B( 19-C , 20-C ) :   1.5660
B( 19-C , 22-C ) :   1.0448 B( 22-C , 23-H ) :   0.9300 B( 22-C , 24-H ) :   0.9380
B( 22-C , 25-C ) :   1.0796 B( 25-C , 26-H ) :   0.9554 B( 25-C , 27-H ) :   0.9552
B( 25-C , 28-C ) :   1.0762 B( 28-C , 29-H ) :   0.9693 B( 28-C , 30-H ) :   0.9719
B( 28-C , 31-H ) :   0.9717

Dispersion correction           -0.015522105
FINAL SINGLE POINT ENERGY     -1339.879386399538

DIPOLE MOMENT
-------------
                                X             Y             Z
Electronic contribution:    -18.11199      -8.27434      13.39028
Nuclear contribution   :     18.34724       8.56978     -13.63607
                        -----------------------------------------
Total Dipole Moment    :      0.23525       0.29544      -0.24579
                        -----------------------------------------
Magnitude (a.u.)       :      0.45060
Magnitude (Debye)      :      1.14533

Rotational constants in cm-1:     0.023721     0.007375     0.006780
Rotational constants in MHz :   711.151501   221.088171   203.264187

                             ****ORCA TERMINATED NORMALLY****
TOTAL RUN TIME: 0 days 0 hours 0 minutes 20 seconds 763 msec
