                         Program Version 4.2.1 -  RELEASE  -
|  1> ! wB97X-D3 SP def2-SVP
|  2> %pal
|  3> nprocs 24
|  4> end
|  5>
|  6> * xyz 0 1
|  7> S 	 39.9117 	 -2.0212 	 -115.377
|  8> C 	 41.035 	 -3.36748 	 -115.601
|  9> C 	 40.4166 	 -4.49647 	 -116.118
| 10> C 	 39.0276 	 -4.34596 	 -116.372
| 11> C 	 38.5766 	 -3.08991 	 -115.896
| 12> H 	 38.2636 	 -5.015 	 -116.662
| 13> C 	 41.1411 	 -5.73763 	 -116.397
| 14> H 	 40.4368 	 -6.50363 	 -116.16
| 15> H 	 42.0088 	 -5.82404 	 -115.712
| 16> C 	 41.6103 	 -5.77139 	 -117.82
| 17> H 	 40.6982 	 -5.88782 	 -118.505
| 18> H 	 42.0482 	 -4.87662 	 -118.111
| 19> C 	 42.5863 	 -6.93169 	 -118.152
| 20> H 	 42.5265 	 -7.06567 	 -119.201
| 21> H 	 43.6204 	 -6.62667 	 -117.829
| 22> H 	 42.4391 	 -7.89614 	 -117.692
| 23> S 	 36.9999 	 -1.47239 	 -114.5
| 24> C 	 35.3006 	 -1.39826 	 -114.838
| 25> C 	 35.017 	 -1.99098 	 -116.068
| 26> C 	 36.1244 	 -2.68359 	 -116.678
| 27> C 	 37.2567 	 -2.53071 	 -115.854
| 28> H 	 33.9954 	 -2.00386 	 -116.391
| 29> C 	 35.9668 	 -3.34821 	 -118.054
| 30> H 	 36.9369 	 -3.63257 	 -118.346
| 31> H 	 35.6121 	 -2.58447 	 -118.772
| 32> C 	 35.0972 	 -4.60871 	 -117.959
| 33> H 	 34.668 	 -4.80165 	 -118.902
| 34> H 	 34.2227 	 -4.43963 	 -117.306
| 35> C 	 35.7503 	 -5.87292 	 -117.306
| 36> H 	 36.7214 	 -6.23885 	 -117.685
| 37> H 	 35.1301 	 -6.73578 	 -117.339
| 38> H 	 35.9335 	 -5.75491 	 -116.192
| 39> H 	 42.0764 	 -3.23997 	 -115.444
| 40> H 	 34.6374 	 -0.699654 	 -114.39
| 41> *
| 42>
| 43>                          ****END OF INPUT****

CARTESIAN COORDINATES (ANGSTROEM)
---------------------------------
  S     39.911700   -2.021200  -115.377000
  C     41.035000   -3.367480  -115.601000
  C     40.416600   -4.496470  -116.118000
  C     39.027600   -4.345960  -116.372000
  C     38.576600   -3.089910  -115.896000
  H     38.263600   -5.015000  -116.662000
  C     41.141100   -5.737630  -116.397000
  H     40.436800   -6.503630  -116.160000
  H     42.008800   -5.824040  -115.712000
  C     41.610300   -5.771390  -117.820000
  H     40.698200   -5.887820  -118.505000
  H     42.048200   -4.876620  -118.111000
  C     42.586300   -6.931690  -118.152000
  H     42.526500   -7.065670  -119.201000
  H     43.620400   -6.626670  -117.829000
  H     42.439100   -7.896140  -117.692000
  S     36.999900   -1.472390  -114.500000
  C     35.300600   -1.398260  -114.838000
  C     35.017000   -1.990980  -116.068000
  C     36.124400   -2.683590  -116.678000
  C     37.256700   -2.530710  -115.854000
  H     33.995400   -2.003860  -116.391000
  C     35.966800   -3.348210  -118.054000
  H     36.936900   -3.632570  -118.346000
  H     35.612100   -2.584470  -118.772000
  C     35.097200   -4.608710  -117.959000
  H     34.668000   -4.801650  -118.902000
  H     34.222700   -4.439630  -117.306000
  C     35.750300   -5.872920  -117.306000
  H     36.721400   -6.238850  -117.685000
  H     35.130100   -6.735780  -117.339000
  H     35.933500   -5.754910  -116.192000
  H     42.076400   -3.239970  -115.444000
  H     34.637400   -0.699654  -114.390000

 Total Charge           Charge          ....    0
 Multiplicity           Mult            ....    1
 Number of Electrons    NEL             ....  134
 Basis Dimension        Dim             ....  322

ORBITAL ENERGIES
----------------

  NO   OCC          E(Eh)            E(eV)
   0   2.0000     -88.964712     -2420.8529
   1   2.0000     -88.964325     -2420.8424
   2   2.0000     -10.331422      -281.1323
   3   2.0000     -10.325754      -280.9781
   4   2.0000     -10.311649      -280.5942
   5   2.0000     -10.307889      -280.4919
   6   2.0000     -10.307432      -280.4795
   7   2.0000     -10.297300      -280.2038
   8   2.0000     -10.296179      -280.1733
   9   2.0000     -10.293415      -280.0981
  10   2.0000     -10.293374      -280.0969
  11   2.0000     -10.292388      -280.0701
  12   2.0000     -10.286907      -279.9210
  13   2.0000     -10.284392      -279.8525
  14   2.0000     -10.282611      -279.8041
  15   2.0000     -10.276794      -279.6458
  16   2.0000      -8.080035      -219.8689
  17   2.0000      -8.078333      -219.8226
  18   2.0000      -6.038477      -164.3153
  19   2.0000      -6.036828      -164.2705
  20   2.0000      -6.034505      -164.2072
  21   2.0000      -6.033055      -164.1678
  22   2.0000      -6.030768      -164.1055
  23   2.0000      -6.029054      -164.0589
  24   2.0000      -1.005699       -27.3665
  25   2.0000      -0.979082       -26.6422
  26   2.0000      -0.918174       -24.9848
  27   2.0000      -0.909843       -24.7581
  28   2.0000      -0.867506       -23.6060
  29   2.0000      -0.850545       -23.1445
  30   2.0000      -0.844061       -22.9681
  31   2.0000      -0.814472       -22.1629
  32   2.0000      -0.786788       -21.4096
  33   2.0000      -0.770295       -20.9608
  34   2.0000      -0.713998       -19.4289
  35   2.0000      -0.702080       -19.1046
  36   2.0000      -0.698926       -19.0187
  37   2.0000      -0.662629       -18.0310
  38   2.0000      -0.643125       -17.5003
  39   2.0000      -0.618170       -16.8213
  40   2.0000      -0.597249       -16.2520
  41   2.0000      -0.570243       -15.5171
  42   2.0000      -0.559751       -15.2316
  43   2.0000      -0.551447       -15.0056
  44   2.0000      -0.534404       -14.5419
  45   2.0000      -0.530049       -14.4234
  46   2.0000      -0.521734       -14.1971
  47   2.0000      -0.514268       -13.9940
  48   2.0000      -0.507590       -13.8122
  49   2.0000      -0.495169       -13.4742
  50   2.0000      -0.489271       -13.3137
  51   2.0000      -0.474622       -12.9151
  52   2.0000      -0.471595       -12.8328
  53   2.0000      -0.464404       -12.6371
  54   2.0000      -0.460712       -12.5366
  55   2.0000      -0.450878       -12.2690
  56   2.0000      -0.449514       -12.2319
  57   2.0000      -0.443623       -12.0716
  58   2.0000      -0.439713       -11.9652
  59   2.0000      -0.424801       -11.5594
  60   2.0000      -0.418460       -11.3869
  61   2.0000      -0.416225       -11.3261
  62   2.0000      -0.412112       -11.2141
  63   2.0000      -0.351198        -9.5566
  64   2.0000      -0.332815        -9.0564
  65   2.0000      -0.328478        -8.9383
  66   2.0000      -0.278072        -7.5667
  67   0.0000       0.020141         0.5481
  68   0.0000       0.071626         1.9490
  69   0.0000       0.104366         2.8399
  70   0.0000       0.120742         3.2856
  71   0.0000       0.130355         3.5471

MULLIKEN ATOMIC CHARGES
-----------------------
   0 S :    0.086501
   1 C :   -0.108129
   2 C :   -0.085028
   3 C :    0.063045
   4 C :   -0.143172
   5 H :   -0.048997
   6 C :    0.103129
   7 H :    0.018319
   8 H :    0.022317
   9 C :   -0.082816
  10 H :    0.028160
  11 H :    0.015398
  12 C :   -0.029037
  13 H :    0.028920
  14 H :    0.033791
  15 H :    0.026683
  16 S :    0.104255
  17 C :   -0.073751
  18 C :   -0.054781
  19 C :   -0.064392
  20 C :   -0.151387
  21 H :    0.016931
  22 C :    0.115840
  23 H :    0.005478
  24 H :    0.048799
  25 C :   -0.047738
  26 H :    0.020023
  27 H :    0.032282
  28 C :   -0.086808
  29 H :    0.042900
  30 H :    0.027063
  31 H :    0.051156
  32 H :    0.034074
  33 H :    0.050972
Sum of atomic charges:   -0.0000000

LOEWDIN ATOMIC CHARGES
----------------------
   0 S :    0.376048
   1 C :   -0.192959
   2 C :   -0.055010
   3 C :   -0.063290
   4 C :   -0.165568
   5 H :    0.023462
   6 C :   -0.033541
   7 H :    0.029125
   8 H :    0.032745
   9 C :   -0.034112
  10 H :    0.029224
  11 H :    0.015896
  12 C :   -0.064872
  13 H :    0.022281
  14 H :    0.029235
  15 H :    0.022101
  16 S :    0.417940
  17 C :   -0.193975
  18 C :   -0.065087
  19 C :   -0.055178
  20 C :   -0.204088
  21 H :    0.026168
  22 C :   -0.022234
  23 H :    0.022283
  24 H :    0.042138
  25 C :   -0.034394
  26 H :    0.017696
  27 H :    0.029851
  28 C :   -0.075440
  29 H :    0.021202
  30 H :    0.024580
  31 H :    0.035990
  32 H :    0.018574
  33 H :    0.023206

  Mayer bond orders larger than 0.100000
B(  0-S ,  1-C ) :   1.1159 B(  0-S ,  4-C ) :   1.1490 B(  1-C ,  2-C ) :   1.6095
B(  1-C ,  4-C ) :   0.1022 B(  1-C , 32-H ) :   0.9742 B(  2-C ,  3-C ) :   1.2206
B(  2-C ,  6-C ) :   1.0343 B(  3-C ,  4-C ) :   1.5704 B(  3-C ,  5-H ) :   0.9897
B(  4-C , 20-C ) :   1.0716 B(  6-C ,  7-H ) :   0.9261 B(  6-C ,  8-H ) :   0.9394
B(  6-C ,  9-C ) :   1.0685 B(  9-C , 10-H ) :   0.9550 B(  9-C , 11-H ) :   0.9575
B(  9-C , 12-C ) :   1.0741 B( 12-C , 13-H ) :   0.9761 B( 12-C , 14-H ) :   0.9763
B( 12-C , 15-H ) :   0.9766 B( 16-S , 17-C ) :   1.1489 B( 16-S , 20-C ) :   1.1527
B( 17-C , 18-C ) :   1.6147 B( 17-C , 20-C ) :   0.1007 B( 17-C , 33-H ) :   0.9679
B( 18-C , 19-C ) :   1.2380 B( 18-C , 21-H ) :   0.9857 B( 19-C , 20-C ) :   1.5574
B( 19-C , 22-C ) :   1.0324 B( 22-C , 23-H ) :   0.9325 B( 22-C , 24-H ) :   0.9396
B( 22-C , 25-C ) :   1.0600 B( 25-C , 26-H ) :   0.9581 B( 25-C , 27-H ) :   0.9601
B( 25-C , 28-C ) :   1.0679 B( 28-C , 29-H ) :   0.9661 B( 28-C , 30-H ) :   0.9678
B( 28-C , 31-H ) :   0.9695

Dispersion correction           -0.014687303
FINAL SINGLE POINT ENERGY     -1339.871859095595

DIPOLE MOMENT
-------------
                                X             Y             Z
Electronic contribution:     -2.83904      24.76095      16.49888
Nuclear contribution   :      2.60552     -25.21669     -16.98542
                        -----------------------------------------
Total Dipole Moment    :     -0.23352      -0.45573      -0.48654
                        -----------------------------------------
Magnitude (a.u.)       :      0.70636
Magnitude (Debye)      :      1.79542

Rotational constants in cm-1:     0.020082     0.008886     0.006525
Rotational constants in MHz :   602.048982   266.382229   195.622549

                             ****ORCA TERMINATED NORMALLY****
TOTAL RUN TIME: 0 days 0 hours 0 minutes 20 seconds 984 msec
