                         Program Version 4.2.1 -  RELEASE  -
|  1> ! wB97X-D3 SP def2-SVP
|  2> %pal
|  3> nprocs 24
|  4> end
|  5>
|  6> * xyz 0 1
|  7> S 	 29.7549 	 -24.9512 	 -129.225
|  8> C 	 30.2031 	 -25.6493 	 -130.787
|  9> C 	 29.1421 	 -26.1056 	 -131.52
| 10> C 	 27.9719 	 -26.0205 	 -130.727
| 11> C 	 28.0839 	 -25.3593 	 -129.51
| 12> H 	 27.0144 	 -26.4094 	 -131.033
| 13> C 	 29.1843 	 -26.804 	 -132.885
| 14> H 	 30.1353 	 -26.6605 	 -133.239
| 15> H 	 28.3937 	 -26.3976 	 -133.545
| 16> C 	 28.9898 	 -28.3561 	 -132.608
| 17> H 	 29.9326 	 -28.8825 	 -132.613
| 18> H 	 28.4117 	 -28.571 	 -131.687
| 19> C 	 28.266 	 -28.9409 	 -133.889
| 20> H 	 27.2698 	 -28.6093 	 -134.066
| 21> H 	 28.9721 	 -28.7003 	 -134.71
| 22> H 	 28.2149 	 -30.0067 	 -133.809
| 23> S 	 27.3534 	 -26.1572 	 -127.035
| 24> C 	 25.8975 	 -25.7312 	 -126.286
| 25> C 	 25.2676 	 -24.7661 	 -127.035
| 26> C 	 25.9087 	 -24.569 	 -128.302
| 27> C 	 27.0953 	 -25.2337 	 -128.461
| 28> H 	 24.4001 	 -24.3189 	 -126.752
| 29> C 	 25.348 	 -23.5925 	 -129.325
| 30> H 	 24.3178 	 -23.8783 	 -129.451
| 31> H 	 25.8117 	 -23.7071 	 -130.308
| 32> C 	 25.403 	 -22.0819 	 -129.012
| 33> H 	 26.3943 	 -21.8261 	 -128.885
| 34> H 	 24.9775 	 -21.9454 	 -128.042
| 35> C 	 24.7792 	 -21.2142 	 -130.085
| 36> H 	 24.9852 	 -20.189 	 -129.692
| 37> H 	 23.7665 	 -21.5348 	 -130.284
| 38> H 	 25.2056 	 -21.325 	 -131.05
| 39> H 	 31.1945 	 -25.4631 	 -131.208
| 40> H 	 25.4462 	 -26.1523 	 -125.414
| 41> *
| 42>
| 43>                          ****END OF INPUT****

CARTESIAN COORDINATES (ANGSTROEM)
---------------------------------
  S     29.754900  -24.951200  -129.225000
  C     30.203100  -25.649300  -130.787000
  C     29.142100  -26.105600  -131.520000
  C     27.971900  -26.020500  -130.727000
  C     28.083900  -25.359300  -129.510000
  H     27.014400  -26.409400  -131.033000
  C     29.184300  -26.804000  -132.885000
  H     30.135300  -26.660500  -133.239000
  H     28.393700  -26.397600  -133.545000
  C     28.989800  -28.356100  -132.608000
  H     29.932600  -28.882500  -132.613000
  H     28.411700  -28.571000  -131.687000
  C     28.266000  -28.940900  -133.889000
  H     27.269800  -28.609300  -134.066000
  H     28.972100  -28.700300  -134.710000
  H     28.214900  -30.006700  -133.809000
  S     27.353400  -26.157200  -127.035000
  C     25.897500  -25.731200  -126.286000
  C     25.267600  -24.766100  -127.035000
  C     25.908700  -24.569000  -128.302000
  C     27.095300  -25.233700  -128.461000
  H     24.400100  -24.318900  -126.752000
  C     25.348000  -23.592500  -129.325000
  H     24.317800  -23.878300  -129.451000
  H     25.811700  -23.707100  -130.308000
  C     25.403000  -22.081900  -129.012000
  H     26.394300  -21.826100  -128.885000
  H     24.977500  -21.945400  -128.042000
  C     24.779200  -21.214200  -130.085000
  H     24.985200  -20.189000  -129.692000
  H     23.766500  -21.534800  -130.284000
  H     25.205600  -21.325000  -131.050000
  H     31.194500  -25.463100  -131.208000
  H     25.446200  -26.152300  -125.414000

 Total Charge           Charge          ....    0
 Multiplicity           Mult            ....    1
 Number of Electrons    NEL             ....  134
 Basis Dimension        Dim             ....  322

ORBITAL ENERGIES
----------------

  NO   OCC          E(Eh)            E(eV)
   0   2.0000     -88.964538     -2420.8481
   1   2.0000     -88.958909     -2420.6950
   2   2.0000     -10.328524      -281.0534
   3   2.0000     -10.319038      -280.7953
   4   2.0000     -10.312421      -280.6152
   5   2.0000     -10.311313      -280.5851
   6   2.0000     -10.299229      -280.2563
   7   2.0000     -10.298703      -280.2420
   8   2.0000     -10.295611      -280.1578
   9   2.0000     -10.293498      -280.1003
  10   2.0000     -10.291314      -280.0409
  11   2.0000     -10.284021      -279.8424
  12   2.0000     -10.281941      -279.7858
  13   2.0000     -10.277558      -279.6666
  14   2.0000     -10.274670      -279.5880
  15   2.0000     -10.271736      -279.5081
  16   2.0000      -8.079238      -219.8472
  17   2.0000      -8.075552      -219.7469
  18   2.0000      -6.037726      -164.2949
  19   2.0000      -6.033995      -164.1933
  20   2.0000      -6.033802      -164.1881
  21   2.0000      -6.029981      -164.0841
  22   2.0000      -6.029528      -164.0718
  23   2.0000      -6.026495      -163.9893
  24   2.0000      -1.014024       -27.5930
  25   2.0000      -0.988891       -26.9091
  26   2.0000      -0.909561       -24.7504
  27   2.0000      -0.908949       -24.7338
  28   2.0000      -0.871644       -23.7186
  29   2.0000      -0.852244       -23.1907
  30   2.0000      -0.844033       -22.9673
  31   2.0000      -0.815302       -22.1855
  32   2.0000      -0.781912       -21.2769
  33   2.0000      -0.771238       -20.9865
  34   2.0000      -0.708280       -19.2733
  35   2.0000      -0.701448       -19.0874
  36   2.0000      -0.696195       -18.9444
  37   2.0000      -0.667588       -18.1660
  38   2.0000      -0.642438       -17.4816
  39   2.0000      -0.624620       -16.9968
  40   2.0000      -0.597890       -16.2694
  41   2.0000      -0.571902       -15.5622
  42   2.0000      -0.563759       -15.3407
  43   2.0000      -0.562156       -15.2970
  44   2.0000      -0.534389       -14.5415
  45   2.0000      -0.531760       -14.4699
  46   2.0000      -0.521647       -14.1947
  47   2.0000      -0.512564       -13.9476
  48   2.0000      -0.501802       -13.6547
  49   2.0000      -0.500533       -13.6202
  50   2.0000      -0.490755       -13.3541
  51   2.0000      -0.479011       -13.0346
  52   2.0000      -0.474572       -12.9138
  53   2.0000      -0.465939       -12.6788
  54   2.0000      -0.455894       -12.4055
  55   2.0000      -0.444129       -12.0854
  56   2.0000      -0.441715       -12.0197
  57   2.0000      -0.439667       -11.9639
  58   2.0000      -0.435689       -11.8557
  59   2.0000      -0.433467       -11.7952
  60   2.0000      -0.421958       -11.4821
  61   2.0000      -0.415606       -11.3092
  62   2.0000      -0.405735       -11.0406
  63   2.0000      -0.342623        -9.3233
  64   2.0000      -0.330648        -8.9974
  65   2.0000      -0.323860        -8.8127
  66   2.0000      -0.298757        -8.1296
  67   0.0000       0.043698         1.1891
  68   0.0000       0.063693         1.7332
  69   0.0000       0.118008         3.2112
  70   0.0000       0.128756         3.5036
  71   0.0000       0.132450         3.6042

MULLIKEN ATOMIC CHARGES
-----------------------
   0 S :    0.106568
   1 C :   -0.139260
   2 C :   -0.106275
   3 C :    0.044355
   4 C :   -0.166783
   5 H :    0.002362
   6 C :    0.134847
   7 H :   -0.001573
   8 H :    0.047549
   9 C :   -0.102892
  10 H :    0.037847
  11 H :    0.056215
  12 C :   -0.067427
  13 H :    0.035493
  14 H :    0.036185
  15 H :    0.025339
  16 S :    0.113109
  17 C :   -0.069443
  18 C :   -0.002120
  19 C :   -0.043877
  20 C :   -0.147070
  21 H :   -0.024562
  22 C :    0.048429
  23 H :    0.010879
  24 H :    0.013859
  25 C :   -0.031434
  26 H :    0.008467
  27 H :    0.009936
  28 C :   -0.021149
  29 H :    0.049112
  30 H :    0.021531
  31 H :    0.018111
  32 H :    0.052061
  33 H :    0.051611
Sum of atomic charges:    0.0000000

LOEWDIN ATOMIC CHARGES
----------------------
   0 S :    0.398918
   1 C :   -0.194783
   2 C :   -0.063685
   3 C :   -0.057399
   4 C :   -0.198970
   5 H :    0.026127
   6 C :   -0.013417
   7 H :    0.017996
   8 H :    0.037119
   9 C :   -0.028532
  10 H :    0.026335
  11 H :    0.027435
  12 C :   -0.064932
  13 H :    0.017184
  14 H :    0.029088
  15 H :    0.019437
  16 S :    0.443776
  17 C :   -0.193976
  18 C :   -0.064172
  19 C :   -0.055177
  20 C :   -0.218008
  21 H :    0.012256
  22 C :   -0.032691
  23 H :    0.023316
  24 H :    0.026543
  25 C :   -0.032183
  26 H :    0.015040
  27 H :    0.017704
  28 C :   -0.060390
  29 H :    0.039201
  30 H :    0.023778
  31 H :    0.020186
  32 H :    0.026250
  33 H :    0.030625

  Mayer bond orders larger than 0.100000
B(  0-S ,  1-C ) :   1.1380 B(  0-S ,  4-C ) :   1.1514 B(  1-C ,  2-C ) :   1.6278
B(  1-C , 32-H ) :   0.9568 B(  2-C ,  3-C ) :   1.2348 B(  2-C ,  6-C ) :   1.0289
B(  3-C ,  4-C ) :   1.5939 B(  3-C ,  5-H ) :   0.9918 B(  4-C , 20-C ) :   1.0072
B(  6-C ,  7-H ) :   0.9264 B(  6-C ,  8-H ) :   0.9509 B(  6-C ,  9-C ) :   1.0364
B(  9-C , 10-H ) :   0.9584 B(  9-C , 11-H ) :   0.9703 B(  9-C , 12-C ) :   1.0668
B( 12-C , 13-H ) :   0.9821 B( 12-C , 14-H ) :   0.9753 B( 12-C , 15-H ) :   0.9758
B( 16-S , 17-C ) :   1.1844 B( 16-S , 20-C ) :   1.1478 B( 17-C , 18-C ) :   1.5645
B( 17-C , 33-H ) :   0.9726 B( 18-C , 19-C ) :   1.2577 B( 18-C , 21-H ) :   1.0088
B( 19-C , 20-C ) :   1.6010 B( 19-C , 22-C ) :   1.0501 B( 22-C , 23-H ) :   0.9280
B( 22-C , 24-H ) :   0.9375 B( 22-C , 25-C ) :   1.0713 B( 25-C , 26-H ) :   0.9503
B( 25-C , 27-H ) :   0.9520 B( 25-C , 28-C ) :   1.0834 B( 28-C , 29-H ) :   0.9729
B( 28-C , 30-H ) :   0.9732 B( 28-C , 31-H ) :   0.9727

Dispersion correction           -0.013475022
FINAL SINGLE POINT ENERGY     -1339.867613695933

DIPOLE MOMENT
-------------
                                X             Y             Z
Electronic contribution:     10.33136      -2.08629      21.06948
Nuclear contribution   :    -10.65118       2.00727     -21.56012
                        -----------------------------------------
Total Dipole Moment    :     -0.31982      -0.07902      -0.49063
                        -----------------------------------------
Magnitude (a.u.)       :      0.59098
Magnitude (Debye)      :      1.50214

Rotational constants in cm-1:     0.017801     0.007752     0.006854
Rotational constants in MHz :   533.651493   232.397924   205.466504

                             ****ORCA TERMINATED NORMALLY****
TOTAL RUN TIME: 0 days 0 hours 0 minutes 20 seconds 928 msec
