                         Program Version 4.2.1 -  RELEASE  -
|  1> ! wB97X-D3 SP def2-SVP
|  2> %pal
|  3> nprocs 24
|  4> end
|  5>
|  6> * xyz 0 1
|  7> S 	 18.8439 	 -20.694 	 -122.525
|  8> C 	 19.9125 	 -20.4817 	 -123.917
|  9> C 	 21.0963 	 -19.8856 	 -123.464
| 10> C 	 21.1651 	 -19.7981 	 -122.038
| 11> C 	 20.0715 	 -20.2141 	 -121.361
| 12> H 	 22.088 	 -19.6111 	 -121.488
| 13> C 	 22.3183 	 -19.6489 	 -124.375
| 14> H 	 22.1339 	 -18.806 	 -124.941
| 15> H 	 22.3364 	 -20.4725 	 -125.003
| 16> C 	 23.7567 	 -19.4896 	 -123.703
| 17> H 	 23.8483 	 -18.6773 	 -122.96
| 18> H 	 23.9431 	 -20.3147 	 -123.016
| 19> C 	 24.8887 	 -19.4058 	 -124.753
| 20> H 	 25.6878 	 -19.9997 	 -124.544
| 21> H 	 24.5265 	 -19.6813 	 -125.732
| 22> H 	 25.4273 	 -18.5502 	 -124.751
| 23> S 	 19.779 	 -21.9093 	 -119.192
| 24> C 	 20.1403 	 -21.4024 	 -117.588
| 25> C 	 20.5854 	 -20.0704 	 -117.618
| 26> C 	 20.6005 	 -19.5027 	 -118.94
| 27> C 	 19.999 	 -20.345 	 -119.921
| 28> H 	 20.9541 	 -19.6009 	 -116.74
| 29> C 	 21.1889 	 -18.0757 	 -119.175
| 30> H 	 20.8618 	 -17.4353 	 -118.377
| 31> H 	 20.6985 	 -17.6545 	 -120.079
| 32> C 	 22.7034 	 -17.9185 	 -119.41
| 33> H 	 22.902 	 -16.7735 	 -119.419
| 34> H 	 22.9214 	 -18.2069 	 -120.398
| 35> C 	 23.6581 	 -18.7143 	 -118.509
| 36> H 	 24.7244 	 -18.8075 	 -118.816
| 37> H 	 23.4106 	 -19.7739 	 -118.413
| 38> H 	 23.6349 	 -18.2975 	 -117.474
| 39> H 	 19.7875 	 -20.7192 	 -125.045
| 40> H 	 20.0812 	 -22.1352 	 -116.794
| 41> *
| 42>
| 43>                          ****END OF INPUT****

CARTESIAN COORDINATES (ANGSTROEM)
---------------------------------
  S     18.843900  -20.694000  -122.525000
  C     19.912500  -20.481700  -123.917000
  C     21.096300  -19.885600  -123.464000
  C     21.165100  -19.798100  -122.038000
  C     20.071500  -20.214100  -121.361000
  H     22.088000  -19.611100  -121.488000
  C     22.318300  -19.648900  -124.375000
  H     22.133900  -18.806000  -124.941000
  H     22.336400  -20.472500  -125.003000
  C     23.756700  -19.489600  -123.703000
  H     23.848300  -18.677300  -122.960000
  H     23.943100  -20.314700  -123.016000
  C     24.888700  -19.405800  -124.753000
  H     25.687800  -19.999700  -124.544000
  H     24.526500  -19.681300  -125.732000
  H     25.427300  -18.550200  -124.751000
  S     19.779000  -21.909300  -119.192000
  C     20.140300  -21.402400  -117.588000
  C     20.585400  -20.070400  -117.618000
  C     20.600500  -19.502700  -118.940000
  C     19.999000  -20.345000  -119.921000
  H     20.954100  -19.600900  -116.740000
  C     21.188900  -18.075700  -119.175000
  H     20.861800  -17.435300  -118.377000
  H     20.698500  -17.654500  -120.079000
  C     22.703400  -17.918500  -119.410000
  H     22.902000  -16.773500  -119.419000
  H     22.921400  -18.206900  -120.398000
  C     23.658100  -18.714300  -118.509000
  H     24.724400  -18.807500  -118.816000
  H     23.410600  -19.773900  -118.413000
  H     23.634900  -18.297500  -117.474000
  H     19.787500  -20.719200  -125.045000
  H     20.081200  -22.135200  -116.794000

 Total Charge           Charge          ....    0
 Multiplicity           Mult            ....    1
 Number of Electrons    NEL             ....  134
 Basis Dimension        Dim             ....  322

ORBITAL ENERGIES
----------------

  NO   OCC          E(Eh)            E(eV)
   0   2.0000     -88.966940     -2420.9135
   1   2.0000     -88.965063     -2420.8624
   2   2.0000     -10.330048      -281.0949
   3   2.0000     -10.327090      -281.0144
   4   2.0000     -10.324099      -280.9330
   5   2.0000     -10.322220      -280.8819
   6   2.0000     -10.312219      -280.6097
   7   2.0000     -10.302986      -280.3585
   8   2.0000     -10.297823      -280.2180
   9   2.0000     -10.295763      -280.1620
  10   2.0000     -10.294558      -280.1292
  11   2.0000     -10.294060      -280.1156
  12   2.0000     -10.289107      -279.9808
  13   2.0000     -10.288518      -279.9648
  14   2.0000     -10.282710      -279.8068
  15   2.0000     -10.264342      -279.3069
  16   2.0000      -8.080863      -219.8915
  17   2.0000      -8.080532      -219.8824
  18   2.0000      -6.039621      -164.3464
  19   2.0000      -6.038921      -164.3274
  20   2.0000      -6.035373      -164.2308
  21   2.0000      -6.034739      -164.2136
  22   2.0000      -6.031566      -164.1273
  23   2.0000      -6.031480      -164.1249
  24   2.0000      -1.006886       -27.3988
  25   2.0000      -0.983419       -26.7602
  26   2.0000      -0.905777       -24.6475
  27   2.0000      -0.904593       -24.6152
  28   2.0000      -0.872322       -23.7371
  29   2.0000      -0.848563       -23.0906
  30   2.0000      -0.843339       -22.9484
  31   2.0000      -0.815719       -22.1968
  32   2.0000      -0.787654       -21.4332
  33   2.0000      -0.776679       -21.1345
  34   2.0000      -0.720090       -19.5946
  35   2.0000      -0.701859       -19.0986
  36   2.0000      -0.689438       -18.7606
  37   2.0000      -0.662688       -18.0327
  38   2.0000      -0.636030       -17.3073
  39   2.0000      -0.617782       -16.8107
  40   2.0000      -0.593547       -16.1512
  41   2.0000      -0.569485       -15.4965
  42   2.0000      -0.564866       -15.3708
  43   2.0000      -0.557582       -15.1726
  44   2.0000      -0.537339       -14.6217
  45   2.0000      -0.533931       -14.5290
  46   2.0000      -0.515750       -14.0343
  47   2.0000      -0.505481       -13.7548
  48   2.0000      -0.503162       -13.6917
  49   2.0000      -0.495239       -13.4761
  50   2.0000      -0.493880       -13.4392
  51   2.0000      -0.483696       -13.1620
  52   2.0000      -0.477027       -12.9806
  53   2.0000      -0.471603       -12.8330
  54   2.0000      -0.458589       -12.4788
  55   2.0000      -0.451442       -12.2844
  56   2.0000      -0.441355       -12.0099
  57   2.0000      -0.437724       -11.9111
  58   2.0000      -0.434808       -11.8317
  59   2.0000      -0.421921       -11.4811
  60   2.0000      -0.416735       -11.3399
  61   2.0000      -0.415368       -11.3027
  62   2.0000      -0.408849       -11.1253
  63   2.0000      -0.349551        -9.5118
  64   2.0000      -0.329079        -8.9547
  65   2.0000      -0.327838        -8.9209
  66   2.0000      -0.294043        -8.0013
  67   0.0000       0.024408         0.6642
  68   0.0000       0.072137         1.9629
  69   0.0000       0.114166         3.1066
  70   0.0000       0.126264         3.4358
  71   0.0000       0.129986         3.5371

MULLIKEN ATOMIC CHARGES
-----------------------
   0 S :    0.111404
   1 C :   -0.158309
   2 C :   -0.110367
   3 C :    0.003352
   4 C :   -0.129010
   5 H :    0.011929
   6 C :    0.118024
   7 H :    0.027133
   8 H :    0.017234
   9 C :   -0.136319
  10 H :    0.033212
  11 H :    0.029724
  12 C :    0.060535
  13 H :   -0.006705
  14 H :    0.024975
  15 H :   -0.000277
  16 S :    0.104089
  17 C :   -0.102432
  18 C :   -0.008129
  19 C :   -0.083292
  20 C :   -0.117492
  21 H :    0.011181
  22 C :    0.054658
  23 H :    0.028747
  24 H :    0.040358
  25 C :   -0.051955
  26 H :    0.042020
  27 H :    0.001026
  28 C :   -0.080137
  29 H :    0.038516
  30 H :    0.041000
  31 H :    0.034173
  32 H :    0.083420
  33 H :    0.067710
Sum of atomic charges:    0.0000000

LOEWDIN ATOMIC CHARGES
----------------------
   0 S :    0.397280
   1 C :   -0.214869
   2 C :   -0.062072
   3 C :   -0.066930
   4 C :   -0.196671
   5 H :    0.031007
   6 C :   -0.016652
   7 H :    0.024019
   8 H :    0.023530
   9 C :   -0.042222
  10 H :    0.023526
  11 H :    0.022455
  12 C :   -0.054698
  13 H :    0.020498
  14 H :    0.028069
  15 H :    0.017384
  16 S :    0.433803
  17 C :   -0.190805
  18 C :   -0.070494
  19 C :   -0.050236
  20 C :   -0.210959
  21 H :    0.025865
  22 C :   -0.033441
  23 H :    0.027757
  24 H :    0.039918
  25 C :   -0.042701
  26 H :    0.038464
  27 H :    0.008036
  28 C :   -0.080172
  29 H :    0.031352
  30 H :    0.028110
  31 H :    0.026592
  32 H :    0.055392
  33 H :    0.029862

  Mayer bond orders larger than 0.100000
B(  0-S ,  1-C ) :   1.1326 B(  0-S ,  4-C ) :   1.1334 B(  1-C ,  2-C ) :   1.6173
B(  1-C , 32-H ) :   0.9581 B(  2-C ,  3-C ) :   1.2614 B(  2-C ,  6-C ) :   0.9990
B(  3-C ,  4-C ) :   1.5811 B(  3-C ,  5-H ) :   0.9773 B(  4-C , 20-C ) :   1.0368
B(  6-C ,  7-H ) :   0.9314 B(  6-C ,  8-H ) :   0.9436 B(  6-C ,  9-C ) :   1.0773
B(  9-C , 10-H ) :   0.9566 B(  9-C , 11-H ) :   0.9598 B(  9-C , 12-C ) :   1.0651
B( 12-C , 13-H ) :   0.9617 B( 12-C , 14-H ) :   0.9782 B( 12-C , 15-H ) :   0.9658
B( 16-S , 17-C ) :   1.1970 B( 16-S , 20-C ) :   1.1608 B( 17-C , 18-C ) :   1.5216
B( 17-C , 20-C ) :   0.1066 B( 17-C , 33-H ) :   0.9743 B( 18-C , 19-C ) :   1.2883
B( 18-C , 21-H ) :   1.0017 B( 19-C , 20-C ) :   1.5317 B( 19-C , 22-C ) :   1.0278
B( 22-C , 23-H ) :   0.9436 B( 22-C , 24-H ) :   0.9365 B( 22-C , 25-C ) :   1.0677
B( 25-C , 26-H ) :   0.9497 B( 25-C , 27-H ) :   0.9509 B( 25-C , 28-C ) :   1.0738
B( 28-C , 29-H ) :   0.9751 B( 28-C , 30-H ) :   0.9672 B( 28-C , 31-H ) :   0.9765

Dispersion correction           -0.015238882
FINAL SINGLE POINT ENERGY     -1339.847846392117

DIPOLE MOMENT
-------------
                                X             Y             Z
Electronic contribution:    -27.80436     -14.01640       5.17817
Nuclear contribution   :     28.67385      14.21663      -5.20868
                        -----------------------------------------
Total Dipole Moment    :      0.86948       0.20024      -0.03052
                        -----------------------------------------
Magnitude (a.u.)       :      0.89277
Magnitude (Debye)      :      2.26923

Rotational constants in cm-1:     0.016877     0.009990     0.007111
Rotational constants in MHz :   505.959987   299.483181   213.192415

                             ****ORCA TERMINATED NORMALLY****
TOTAL RUN TIME: 0 days 0 hours 0 minutes 21 seconds 258 msec
