                         Program Version 4.2.1 -  RELEASE  -
|  1> ! wB97X-D3 SP def2-SVP
|  2> %pal
|  3> nprocs 24
|  4> end
|  5>
|  6> * xyz 0 1
|  7> S 	 -70.4341 	 11.6311 	 -74.272
|  8> C 	 -70.2226 	 12.7153 	 -75.6049
|  9> C 	 -69.2746 	 13.6505 	 -75.4342
| 10> C 	 -68.8409 	 13.6291 	 -74.0522
| 11> C 	 -69.2543 	 12.4954 	 -73.3623
| 12> H 	 -68.286 	 14.3898 	 -73.5969
| 13> C 	 -69.0208 	 14.6953 	 -76.4997
| 14> H 	 -69.942 	 14.9432 	 -77.1333
| 15> H 	 -68.3213 	 14.2894 	 -77.1838
| 16> C 	 -68.4172 	 16.0959 	 -75.996
| 17> H 	 -67.7061 	 15.9345 	 -75.2512
| 18> H 	 -67.9008 	 16.6847 	 -76.7581
| 19> C 	 -69.5037 	 16.9825 	 -75.4256
| 20> H 	 -69.0984 	 17.8546 	 -74.8826
| 21> H 	 -70.271 	 17.5656 	 -75.9901
| 22> H 	 -69.9729 	 16.4123 	 -74.6266
| 23> S 	 -67.7019 	 10.9891 	 -71.6749
| 24> C 	 -67.8736 	 11.2285 	 -69.9278
| 25> C 	 -68.8338 	 12.2267 	 -69.6575
| 26> C 	 -69.4238 	 12.8234 	 -70.8154
| 27> C 	 -68.9578 	 12.2018 	 -71.9818
| 28> H 	 -68.9893 	 12.4629 	 -68.6133
| 29> C 	 -70.6099 	 13.7557 	 -70.7386
| 30> H 	 -71.3581 	 13.2191 	 -70.1889
| 31> H 	 -71.1062 	 13.8911 	 -71.6874
| 32> C 	 -70.33 	 15.12 	 -70.1474
| 33> H 	 -69.4616 	 15.5766 	 -70.6916
| 34> H 	 -69.9521 	 14.9783 	 -69.1158
| 35> C 	 -71.3768 	 16.1901 	 -70.2173
| 36> H 	 -71.6873 	 16.4924 	 -71.2366
| 37> H 	 -70.9736 	 17.1623 	 -69.9122
| 38> H 	 -72.2486 	 15.9435 	 -69.5799
| 39> H 	 -70.7642 	 12.7508 	 -76.5333
| 40> H 	 -67.3429 	 10.7909 	 -69.0725
| 41> *
| 42>
| 43>                          ****END OF INPUT****

CARTESIAN COORDINATES (ANGSTROEM)
---------------------------------
  S    -70.434100   11.631100  -74.272000
  C    -70.222600   12.715300  -75.604900
  C    -69.274600   13.650500  -75.434200
  C    -68.840900   13.629100  -74.052200
  C    -69.254300   12.495400  -73.362300
  H    -68.286000   14.389800  -73.596900
  C    -69.020800   14.695300  -76.499700
  H    -69.942000   14.943200  -77.133300
  H    -68.321300   14.289400  -77.183800
  C    -68.417200   16.095900  -75.996000
  H    -67.706100   15.934500  -75.251200
  H    -67.900800   16.684700  -76.758100
  C    -69.503700   16.982500  -75.425600
  H    -69.098400   17.854600  -74.882600
  H    -70.271000   17.565600  -75.990100
  H    -69.972900   16.412300  -74.626600
  S    -67.701900   10.989100  -71.674900
  C    -67.873600   11.228500  -69.927800
  C    -68.833800   12.226700  -69.657500
  C    -69.423800   12.823400  -70.815400
  C    -68.957800   12.201800  -71.981800
  H    -68.989300   12.462900  -68.613300
  C    -70.609900   13.755700  -70.738600
  H    -71.358100   13.219100  -70.188900
  H    -71.106200   13.891100  -71.687400
  C    -70.330000   15.120000  -70.147400
  H    -69.461600   15.576600  -70.691600
  H    -69.952100   14.978300  -69.115800
  C    -71.376800   16.190100  -70.217300
  H    -71.687300   16.492400  -71.236600
  H    -70.973600   17.162300  -69.912200
  H    -72.248600   15.943500  -69.579900
  H    -70.764200   12.750800  -76.533300
  H    -67.342900   10.790900  -69.072500

 Total Charge           Charge          ....    0
 Multiplicity           Mult            ....    1
 Number of Electrons    NEL             ....  134
 Basis Dimension        Dim             ....  322

ORBITAL ENERGIES
----------------

  NO   OCC          E(Eh)            E(eV)
   0   2.0000     -88.968013     -2420.9427
   1   2.0000     -88.967265     -2420.9224
   2   2.0000     -10.325999      -280.9847
   3   2.0000     -10.323620      -280.9200
   4   2.0000     -10.321616      -280.8655
   5   2.0000     -10.306317      -280.4491
   6   2.0000     -10.305274      -280.4208
   7   2.0000     -10.301102      -280.3072
   8   2.0000     -10.297977      -280.2222
   9   2.0000     -10.295001      -280.1412
  10   2.0000     -10.294464      -280.1266
  11   2.0000     -10.290191      -280.0103
  12   2.0000     -10.287175      -279.9283
  13   2.0000     -10.285931      -279.8944
  14   2.0000     -10.281041      -279.7614
  15   2.0000     -10.278357      -279.6883
  16   2.0000      -8.082653      -219.9402
  17   2.0000      -8.081709      -219.9145
  18   2.0000      -6.041103      -164.3868
  19   2.0000      -6.040279      -164.3644
  20   2.0000      -6.037057      -164.2767
  21   2.0000      -6.036326      -164.2568
  22   2.0000      -6.033439      -164.1782
  23   2.0000      -6.032492      -164.1525
  24   2.0000      -1.008811       -27.4511
  25   2.0000      -0.981185       -26.6994
  26   2.0000      -0.911316       -24.7982
  27   2.0000      -0.909184       -24.7402
  28   2.0000      -0.871589       -23.7171
  29   2.0000      -0.851843       -23.1798
  30   2.0000      -0.847446       -23.0602
  31   2.0000      -0.814916       -22.1750
  32   2.0000      -0.786083       -21.3904
  33   2.0000      -0.772602       -21.0236
  34   2.0000      -0.713942       -19.4273
  35   2.0000      -0.696450       -18.9514
  36   2.0000      -0.691534       -18.8176
  37   2.0000      -0.655005       -17.8236
  38   2.0000      -0.642424       -17.4812
  39   2.0000      -0.623750       -16.9731
  40   2.0000      -0.595557       -16.2059
  41   2.0000      -0.569902       -15.5078
  42   2.0000      -0.563649       -15.3377
  43   2.0000      -0.556164       -15.1340
  44   2.0000      -0.541551       -14.7364
  45   2.0000      -0.523072       -14.2335
  46   2.0000      -0.522822       -14.2267
  47   2.0000      -0.504497       -13.7281
  48   2.0000      -0.501504       -13.6466
  49   2.0000      -0.493149       -13.4193
  50   2.0000      -0.491161       -13.3652
  51   2.0000      -0.483505       -13.1568
  52   2.0000      -0.470433       -12.8011
  53   2.0000      -0.468723       -12.7546
  54   2.0000      -0.459983       -12.5168
  55   2.0000      -0.449956       -12.2439
  56   2.0000      -0.446203       -12.1418
  57   2.0000      -0.440813       -11.9951
  58   2.0000      -0.431202       -11.7336
  59   2.0000      -0.423553       -11.5255
  60   2.0000      -0.422324       -11.4920
  61   2.0000      -0.412215       -11.2169
  62   2.0000      -0.407391       -11.0857
  63   2.0000      -0.335323        -9.1246
  64   2.0000      -0.328923        -8.9505
  65   2.0000      -0.323760        -8.8100
  66   2.0000      -0.305958        -8.3255
  67   0.0000       0.045394         1.2352
  68   0.0000       0.053006         1.4424
  69   0.0000       0.111990         3.0474
  70   0.0000       0.121224         3.2987
  71   0.0000       0.127748         3.4762

MULLIKEN ATOMIC CHARGES
-----------------------
   0 S :    0.137594
   1 C :   -0.116414
   2 C :   -0.060851
   3 C :    0.052355
   4 C :   -0.174449
   5 H :   -0.008676
   6 C :    0.032820
   7 H :    0.046979
   8 H :    0.035833
   9 C :   -0.036554
  10 H :    0.019879
  11 H :    0.029584
  12 C :   -0.087264
  13 H :    0.018732
  14 H :    0.041328
  15 H :    0.025993
  16 S :    0.120249
  17 C :   -0.100389
  18 C :   -0.059224
  19 C :    0.019741
  20 C :   -0.200570
  21 H :    0.020414
  22 C :    0.108151
  23 H :    0.025944
  24 H :    0.012588
  25 C :   -0.110864
  26 H :    0.026444
  27 H :    0.027526
  28 C :   -0.036539
  29 H :    0.029575
  30 H :    0.026878
  31 H :    0.037520
  32 H :    0.033178
  33 H :    0.062491
Sum of atomic charges:   -0.0000000

LOEWDIN ATOMIC CHARGES
----------------------
   0 S :    0.428530
   1 C :   -0.195323
   2 C :   -0.067764
   3 C :   -0.045154
   4 C :   -0.216697
   5 H :    0.019354
   6 C :   -0.029054
   7 H :    0.040930
   8 H :    0.029014
   9 C :   -0.033713
  10 H :    0.017279
  11 H :    0.027469
  12 C :   -0.084050
  13 H :    0.026379
  14 H :    0.030760
  15 H :    0.022989
  16 S :    0.397904
  17 C :   -0.190524
  18 C :   -0.071549
  19 C :   -0.046763
  20 C :   -0.197921
  21 H :    0.029479
  22 C :   -0.031223
  23 H :    0.031776
  24 H :    0.028685
  25 C :   -0.050714
  26 H :    0.029297
  27 H :    0.024076
  28 C :   -0.071365
  29 H :    0.028222
  30 H :    0.029843
  31 H :    0.026193
  32 H :    0.026505
  33 H :    0.037130

  Mayer bond orders larger than 0.100000
B(  0-S ,  1-C ) :   1.1418 B(  0-S ,  4-C ) :   1.1514 B(  1-C ,  2-C ) :   1.6459
B(  1-C , 32-H ) :   0.9651 B(  2-C ,  3-C ) :   1.2269 B(  2-C ,  6-C ) :   1.0015
B(  3-C ,  4-C ) :   1.5871 B(  3-C ,  5-H ) :   1.0029 B(  4-C , 20-C ) :   1.0177
B(  6-C ,  7-H ) :   0.9554 B(  6-C ,  8-H ) :   0.9311 B(  6-C ,  9-C ) :   1.0693
B(  9-C , 10-H ) :   0.9521 B(  9-C , 11-H ) :   0.9576 B(  9-C , 12-C ) :   1.0768
B( 12-C , 13-H ) :   0.9704 B( 12-C , 14-H ) :   0.9760 B( 12-C , 15-H ) :   0.9757
B( 16-S , 17-C ) :   1.1433 B( 16-S , 20-C ) :   1.1461 B( 17-C , 18-C ) :   1.6333
B( 17-C , 20-C ) :   0.1061 B( 17-C , 33-H ) :   0.9626 B( 18-C , 19-C ) :   1.2220
B( 18-C , 21-H ) :   0.9845 B( 19-C , 20-C ) :   1.5953 B( 19-C , 22-C ) :   1.0463
B( 22-C , 23-H ) :   0.9339 B( 22-C , 24-H ) :   0.9282 B( 22-C , 25-C ) :   1.0528
B( 25-C , 26-H ) :   0.9532 B( 25-C , 27-H ) :   0.9537 B( 25-C , 28-C ) :   1.1026
B( 28-C , 29-H ) :   0.9684 B( 28-C , 30-H ) :   0.9698 B( 28-C , 31-H ) :   0.9719

Dispersion correction           -0.014547062
FINAL SINGLE POINT ENERGY     -1339.866379410002

DIPOLE MOMENT
-------------
                                X             Y             Z
Electronic contribution:      6.44984     -29.64260       0.20607
Nuclear contribution   :     -6.55695      30.35051      -0.14900
                        -----------------------------------------
Total Dipole Moment    :     -0.10712       0.70790       0.05707
                        -----------------------------------------
Magnitude (a.u.)       :      0.71823
Magnitude (Debye)      :      1.82560

Rotational constants in cm-1:     0.016109     0.009748     0.007315
Rotational constants in MHz :   482.941183   292.232100   219.308882

                             ****ORCA TERMINATED NORMALLY****
TOTAL RUN TIME: 0 days 0 hours 0 minutes 22 seconds 0 msec
