                         Program Version 4.2.1 -  RELEASE  -
|  1> ! wB97X-D3 SP def2-SVP
|  2> %pal
|  3> nprocs 24
|  4> end
|  5>
|  6> * xyz 0 1
|  7> S 	 -46.4567 	 -1.93601 	 -19.0189
|  8> C 	 -46.0841 	 -1.67663 	 -17.2826
|  9> C 	 -45.1722 	 -2.5452 	 -16.7434
| 10> C 	 -44.6789 	 -3.41368 	 -17.7426
| 11> C 	 -45.1538 	 -3.09799 	 -19.0073
| 12> H 	 -43.8754 	 -4.11956 	 -17.5436
| 13> C 	 -44.6409 	 -2.64181 	 -15.3501
| 14> H 	 -43.6829 	 -2.02025 	 -15.3174
| 15> H 	 -44.4418 	 -3.66019 	 -15.1013
| 16> C 	 -45.5536 	 -2.20526 	 -14.2327
| 17> H 	 -44.9147 	 -2.40431 	 -13.3478
| 18> H 	 -45.6758 	 -1.15264 	 -14.4128
| 19> C 	 -46.963 	 -2.90245 	 -14.1287
| 20> H 	 -47.4009 	 -2.90723 	 -15.1013
| 21> H 	 -46.838 	 -3.98063 	 -13.8286
| 22> H 	 -47.5545 	 -2.39597 	 -13.3782
| 23> S 	 -46.0446 	 -4.82147 	 -20.9601
| 24> C 	 -44.8977 	 -5.30798 	 -22.2134
| 25> C 	 -43.7455 	 -4.60674 	 -22.1244
| 26> C 	 -43.6592 	 -3.73356 	 -20.9931
| 27> C 	 -44.7992 	 -3.76371 	 -20.2517
| 28> H 	 -42.9099 	 -4.75643 	 -22.8557
| 29> C 	 -42.4175 	 -3.01974 	 -20.462
| 30> H 	 -41.5293 	 -3.49301 	 -20.8032
| 31> H 	 -42.4249 	 -3.18903 	 -19.3641
| 32> C 	 -42.233 	 -1.66018 	 -21.1371
| 33> H 	 -42.1893 	 -1.81393 	 -22.1964
| 34> H 	 -41.2917 	 -1.28418 	 -20.7622
| 35> C 	 -43.3422 	 -0.626464 	 -20.7647
| 36> H 	 -44.4072 	 -1.0395 	 -20.946
| 37> H 	 -43.1846 	 0.288517 	 -21.2121
| 38> H 	 -43.1983 	 -0.491062 	 -19.7141
| 39> H 	 -46.3745 	 -0.855934 	 -16.7021
| 40> H 	 -45.0226 	 -6.14874 	 -22.8697
| 41> *
| 42>
| 43>                          ****END OF INPUT****

CARTESIAN COORDINATES (ANGSTROEM)
---------------------------------
  S    -46.456700   -1.936010  -19.018900
  C    -46.084100   -1.676630  -17.282600
  C    -45.172200   -2.545200  -16.743400
  C    -44.678900   -3.413680  -17.742600
  C    -45.153800   -3.097990  -19.007300
  H    -43.875400   -4.119560  -17.543600
  C    -44.640900   -2.641810  -15.350100
  H    -43.682900   -2.020250  -15.317400
  H    -44.441800   -3.660190  -15.101300
  C    -45.553600   -2.205260  -14.232700
  H    -44.914700   -2.404310  -13.347800
  H    -45.675800   -1.152640  -14.412800
  C    -46.963000   -2.902450  -14.128700
  H    -47.400900   -2.907230  -15.101300
  H    -46.838000   -3.980630  -13.828600
  H    -47.554500   -2.395970  -13.378200
  S    -46.044600   -4.821470  -20.960100
  C    -44.897700   -5.307980  -22.213400
  C    -43.745500   -4.606740  -22.124400
  C    -43.659200   -3.733560  -20.993100
  C    -44.799200   -3.763710  -20.251700
  H    -42.909900   -4.756430  -22.855700
  C    -42.417500   -3.019740  -20.462000
  H    -41.529300   -3.493010  -20.803200
  H    -42.424900   -3.189030  -19.364100
  C    -42.233000   -1.660180  -21.137100
  H    -42.189300   -1.813930  -22.196400
  H    -41.291700   -1.284180  -20.762200
  C    -43.342200   -0.626464  -20.764700
  H    -44.407200   -1.039500  -20.946000
  H    -43.184600    0.288517  -21.212100
  H    -43.198300   -0.491062  -19.714100
  H    -46.374500   -0.855934  -16.702100
  H    -45.022600   -6.148740  -22.869700

 Total Charge           Charge          ....    0
 Multiplicity           Mult            ....    1
 Number of Electrons    NEL             ....  134
 Basis Dimension        Dim             ....  322

ORBITAL ENERGIES
----------------

  NO   OCC          E(Eh)            E(eV)
   0   2.0000     -88.971694     -2421.0429
   1   2.0000     -88.960111     -2420.7277
   2   2.0000     -10.328359      -281.0489
   3   2.0000     -10.319788      -280.8157
   4   2.0000     -10.313748      -280.6513
   5   2.0000     -10.309271      -280.5295
   6   2.0000     -10.297743      -280.2158
   7   2.0000     -10.296133      -280.1720
   8   2.0000     -10.294585      -280.1299
   9   2.0000     -10.293669      -280.1050
  10   2.0000     -10.292486      -280.0728
  11   2.0000     -10.287745      -279.9438
  12   2.0000     -10.287351      -279.9331
  13   2.0000     -10.282263      -279.7946
  14   2.0000     -10.280055      -279.7345
  15   2.0000     -10.265064      -279.3266
  16   2.0000      -8.085415      -220.0153
  17   2.0000      -8.074606      -219.7212
  18   2.0000      -6.043886      -164.4625
  19   2.0000      -6.040318      -164.3654
  20   2.0000      -6.036010      -164.2482
  21   2.0000      -6.033205      -164.1719
  22   2.0000      -6.029268      -164.0647
  23   2.0000      -6.025162      -163.9530
  24   2.0000      -1.006402       -27.3856
  25   2.0000      -0.983006       -26.7489
  26   2.0000      -0.917860       -24.9762
  27   2.0000      -0.907237       -24.6872
  28   2.0000      -0.865655       -23.5557
  29   2.0000      -0.850420       -23.1411
  30   2.0000      -0.840056       -22.8591
  31   2.0000      -0.808130       -21.9903
  32   2.0000      -0.788669       -21.4608
  33   2.0000      -0.776970       -21.1424
  34   2.0000      -0.710053       -19.3215
  35   2.0000      -0.699129       -19.0243
  36   2.0000      -0.691810       -18.8251
  37   2.0000      -0.655645       -17.8410
  38   2.0000      -0.635477       -17.2922
  39   2.0000      -0.609613       -16.5884
  40   2.0000      -0.596334       -16.2271
  41   2.0000      -0.580501       -15.7962
  42   2.0000      -0.556333       -15.1386
  43   2.0000      -0.548072       -14.9138
  44   2.0000      -0.546399       -14.8683
  45   2.0000      -0.534470       -14.5437
  46   2.0000      -0.517911       -14.0931
  47   2.0000      -0.507505       -13.8099
  48   2.0000      -0.502038       -13.6612
  49   2.0000      -0.491894       -13.3851
  50   2.0000      -0.486734       -13.2447
  51   2.0000      -0.480738       -13.0816
  52   2.0000      -0.473686       -12.8897
  53   2.0000      -0.459665       -12.5081
  54   2.0000      -0.458548       -12.4777
  55   2.0000      -0.448629       -12.2078
  56   2.0000      -0.440382       -11.9834
  57   2.0000      -0.437542       -11.9061
  58   2.0000      -0.435806       -11.8589
  59   2.0000      -0.424798       -11.5593
  60   2.0000      -0.415442       -11.3047
  61   2.0000      -0.412146       -11.2150
  62   2.0000      -0.409101       -11.1322
  63   2.0000      -0.339011        -9.2250
  64   2.0000      -0.334317        -9.0972
  65   2.0000      -0.327165        -8.9026
  66   2.0000      -0.296241        -8.0611
  67   0.0000       0.039753         1.0817
  68   0.0000       0.055791         1.5182
  69   0.0000       0.100208         2.7268
  70   0.0000       0.122412         3.3310
  71   0.0000       0.122570         3.3353

MULLIKEN ATOMIC CHARGES
-----------------------
   0 S :    0.125393
   1 C :   -0.097866
   2 C :   -0.103893
   3 C :    0.042378
   4 C :   -0.167237
   5 H :    0.018561
   6 C :    0.058054
   7 H :    0.059322
   8 H :    0.018026
   9 C :   -0.096898
  10 H :    0.036362
  11 H :    0.022385
  12 C :   -0.046805
  13 H :    0.041950
  14 H :    0.034181
  15 H :    0.043758
  16 S :    0.092488
  17 C :   -0.078765
  18 C :   -0.044219
  19 C :   -0.030708
  20 C :   -0.195909
  21 H :    0.030794
  22 C :    0.088217
  23 H :    0.003244
  24 H :    0.032905
  25 C :   -0.062797
  26 H :    0.026452
  27 H :    0.021716
  28 C :   -0.027842
  29 H :    0.049462
  30 H :    0.017836
  31 H :    0.019506
  32 H :    0.017120
  33 H :    0.052830
Sum of atomic charges:    0.0000000

LOEWDIN ATOMIC CHARGES
----------------------
   0 S :    0.402603
   1 C :   -0.182756
   2 C :   -0.062791
   3 C :   -0.056331
   4 C :   -0.187387
   5 H :    0.032314
   6 C :   -0.036123
   7 H :    0.048463
   8 H :    0.026076
   9 C :   -0.044021
  10 H :    0.029926
  11 H :    0.016131
  12 C :   -0.062586
  13 H :    0.022847
  14 H :    0.030577
  15 H :    0.027428
  16 S :    0.372518
  17 C :   -0.174821
  18 C :   -0.075809
  19 C :   -0.057477
  20 C :   -0.192857
  21 H :    0.038245
  22 C :   -0.029716
  23 H :    0.026100
  24 H :    0.035282
  25 C :   -0.028002
  26 H :    0.020170
  27 H :    0.021023
  28 C :   -0.064337
  29 H :    0.029956
  30 H :    0.010925
  31 H :    0.022065
  32 H :    0.013180
  33 H :    0.029184

  Mayer bond orders larger than 0.100000
B(  0-S ,  1-C ) :   1.1113 B(  0-S ,  4-C ) :   1.1509 B(  1-C ,  2-C ) :   1.6520
B(  1-C , 32-H ) :   0.9627 B(  2-C ,  3-C ) :   1.2338 B(  2-C ,  6-C ) :   1.0112
B(  3-C ,  4-C ) :   1.5961 B(  3-C ,  5-H ) :   0.9880 B(  4-C , 20-C ) :   1.0122
B(  6-C ,  7-H ) :   0.9280 B(  6-C ,  8-H ) :   0.9433 B(  6-C ,  9-C ) :   1.0811
B(  9-C , 10-H ) :   0.9569 B(  9-C , 11-H ) :   0.9511 B(  9-C , 12-C ) :   1.0741
B( 12-C , 13-H ) :   0.9737 B( 12-C , 14-H ) :   0.9744 B( 12-C , 15-H ) :   0.9763
B( 16-S , 17-C ) :   1.1276 B( 16-S , 20-C ) :   1.1261 B( 17-C , 18-C ) :   1.6568
B( 17-C , 33-H ) :   0.9673 B( 18-C , 19-C ) :   1.2144 B( 18-C , 21-H ) :   0.9769
B( 19-C , 20-C ) :   1.6501 B( 19-C , 22-C ) :   1.0291 B( 22-C , 23-H ) :   0.9282
B( 22-C , 24-H ) :   0.9417 B( 22-C , 25-C ) :   1.0609 B( 25-C , 26-H ) :   0.9561
B( 25-C , 27-H ) :   0.9569 B( 25-C , 28-C ) :   1.0775 B( 28-C , 29-H ) :   0.9700
B( 28-C , 30-H ) :   0.9752 B( 28-C , 31-H ) :   0.9746

Dispersion correction           -0.015743806
FINAL SINGLE POINT ENERGY     -1339.865148347589

DIPOLE MOMENT
-------------
                                X             Y             Z
Electronic contribution:    -10.78953      -8.48712     -15.48137
Nuclear contribution   :     11.47489       8.47412      15.84253
                        -----------------------------------------
Total Dipole Moment    :      0.68536      -0.01299       0.36116
                        -----------------------------------------
Magnitude (a.u.)       :      0.77480
Magnitude (Debye)      :      1.96939

Rotational constants in cm-1:     0.023159     0.008367     0.007347
Rotational constants in MHz :   694.284107   250.827556   220.255889

                             ****ORCA TERMINATED NORMALLY****
TOTAL RUN TIME: 0 days 0 hours 0 minutes 23 seconds 935 msec
