                         Program Version 4.2.1 -  RELEASE  -
|  1> ! wB97X-D3 SP def2-SVP
|  2> %pal
|  3> nprocs 24
|  4> end
|  5>
|  6> * xyz 0 1
|  7> S 	 -138.797 	 9.17686 	 4.46671
|  8> C 	 -140.309 	 9.88215 	 3.75584
|  9> C 	 -141.339 	 9.98928 	 4.65005
| 10> C 	 -140.891 	 9.61015 	 5.97098
| 11> C 	 -139.637 	 9.0695 	 6.02688
| 12> H 	 -141.504 	 9.61708 	 6.85426
| 13> C 	 -142.781 	 10.3074 	 4.32512
| 14> H 	 -142.813 	 10.4005 	 3.27606
| 15> H 	 -142.959 	 11.3025 	 4.65425
| 16> C 	 -143.892 	 9.31334 	 4.84518
| 17> H 	 -143.999 	 9.35348 	 5.91982
| 18> H 	 -144.798 	 9.75832 	 4.45809
| 19> C 	 -143.593 	 7.79279 	 4.70782
| 20> H 	 -142.848 	 7.46732 	 5.44165
| 21> H 	 -144.477 	 7.16508 	 4.89505
| 22> H 	 -143.173 	 7.57019 	 3.7282
| 23> S 	 -137.316 	 8.27884 	 7.21105
| 24> C 	 -137.359 	 7.41655 	 8.77176
| 25> C 	 -138.619 	 7.26992 	 9.21521
| 26> C 	 -139.571 	 7.86607 	 8.33661
| 27> C 	 -139.031 	 8.41629 	 7.16597
| 28> H 	 -138.785 	 6.8382 	 10.2199
| 29> C 	 -141.021 	 7.91755 	 8.80367
| 30> H 	 -141.432 	 6.93958 	 8.99458
| 31> H 	 -141.675 	 8.21344 	 7.9751
| 32> C 	 -141.401 	 8.9561 	 9.93526
| 33> H 	 -141.416 	 9.96337 	 9.5373
| 34> H 	 -140.699 	 8.9838 	 10.7647
| 35> C 	 -142.781 	 8.72257 	 10.4818
| 36> H 	 -142.835 	 7.80921 	 11.0094
| 37> H 	 -143.535 	 8.821 	 9.70308
| 38> H 	 -142.99 	 9.42782 	 11.2525
| 39> H 	 -140.467 	 10.2083 	 2.71707
| 40> H 	 -136.526 	 6.99564 	 9.32127
| 41> *
| 42>
| 43>                          ****END OF INPUT****

CARTESIAN COORDINATES (ANGSTROEM)
---------------------------------
  S    -138.797000    9.176860    4.466710
  C    -140.309000    9.882150    3.755840
  C    -141.339000    9.989280    4.650050
  C    -140.891000    9.610150    5.970980
  C    -139.637000    9.069500    6.026880
  H    -141.504000    9.617080    6.854260
  C    -142.781000   10.307400    4.325120
  H    -142.813000   10.400500    3.276060
  H    -142.959000   11.302500    4.654250
  C    -143.892000    9.313340    4.845180
  H    -143.999000    9.353480    5.919820
  H    -144.798000    9.758320    4.458090
  C    -143.593000    7.792790    4.707820
  H    -142.848000    7.467320    5.441650
  H    -144.477000    7.165080    4.895050
  H    -143.173000    7.570190    3.728200
  S    -137.316000    8.278840    7.211050
  C    -137.359000    7.416550    8.771760
  C    -138.619000    7.269920    9.215210
  C    -139.571000    7.866070    8.336610
  C    -139.031000    8.416290    7.165970
  H    -138.785000    6.838200   10.219900
  C    -141.021000    7.917550    8.803670
  H    -141.432000    6.939580    8.994580
  H    -141.675000    8.213440    7.975100
  C    -141.401000    8.956100    9.935260
  H    -141.416000    9.963370    9.537300
  H    -140.699000    8.983800   10.764700
  C    -142.781000    8.722570   10.481800
  H    -142.835000    7.809210   11.009400
  H    -143.535000    8.821000    9.703080
  H    -142.990000    9.427820   11.252500
  H    -140.467000   10.208300    2.717070
  H    -136.526000    6.995640    9.321270

 Total Charge           Charge          ....    0
 Multiplicity           Mult            ....    1
 Number of Electrons    NEL             ....  134
 Basis Dimension        Dim             ....  322

ORBITAL ENERGIES
----------------

  NO   OCC          E(Eh)            E(eV)
   0   2.0000     -88.967768     -2420.9360
   1   2.0000     -88.965388     -2420.8713
   2   2.0000     -10.331492      -281.1342
   3   2.0000     -10.328951      -281.0651
   4   2.0000     -10.317583      -280.7557
   5   2.0000     -10.316020      -280.7132
   6   2.0000     -10.305134      -280.4169
   7   2.0000     -10.301033      -280.3054
   8   2.0000     -10.293855      -280.1100
   9   2.0000     -10.292913      -280.0844
  10   2.0000     -10.292824      -280.0820
  11   2.0000     -10.291988      -280.0592
  12   2.0000     -10.290535      -280.0197
  13   2.0000     -10.287509      -279.9373
  14   2.0000     -10.281496      -279.7737
  15   2.0000     -10.271836      -279.5109
  16   2.0000      -8.081138      -219.8989
  17   2.0000      -8.080283      -219.8757
  18   2.0000      -6.039987      -164.3564
  19   2.0000      -6.038910      -164.3271
  20   2.0000      -6.036098      -164.2506
  21   2.0000      -6.034811      -164.2155
  22   2.0000      -6.031349      -164.1213
  23   2.0000      -6.030869      -164.1083
  24   2.0000      -1.007734       -27.4218
  25   2.0000      -0.980710       -26.6865
  26   2.0000      -0.910299       -24.7705
  27   2.0000      -0.907231       -24.6870
  28   2.0000      -0.872949       -23.7542
  29   2.0000      -0.855411       -23.2769
  30   2.0000      -0.841464       -22.8974
  31   2.0000      -0.820157       -22.3176
  32   2.0000      -0.787609       -21.4319
  33   2.0000      -0.772740       -21.0273
  34   2.0000      -0.713637       -19.4191
  35   2.0000      -0.702245       -19.1091
  36   2.0000      -0.697036       -18.9673
  37   2.0000      -0.661782       -18.0080
  38   2.0000      -0.635646       -17.2968
  39   2.0000      -0.624667       -16.9981
  40   2.0000      -0.598395       -16.2831
  41   2.0000      -0.566077       -15.4038
  42   2.0000      -0.564011       -15.3475
  43   2.0000      -0.554177       -15.0799
  44   2.0000      -0.536451       -14.5976
  45   2.0000      -0.526120       -14.3165
  46   2.0000      -0.522704       -14.2235
  47   2.0000      -0.516696       -14.0600
  48   2.0000      -0.504100       -13.7172
  49   2.0000      -0.495525       -13.4839
  50   2.0000      -0.492875       -13.4118
  51   2.0000      -0.483507       -13.1569
  52   2.0000      -0.470443       -12.8014
  53   2.0000      -0.463887       -12.6230
  54   2.0000      -0.459154       -12.4942
  55   2.0000      -0.453987       -12.3536
  56   2.0000      -0.447924       -12.1886
  57   2.0000      -0.442275       -12.0349
  58   2.0000      -0.433263       -11.7897
  59   2.0000      -0.427934       -11.6447
  60   2.0000      -0.420557       -11.4439
  61   2.0000      -0.414086       -11.2679
  62   2.0000      -0.411186       -11.1889
  63   2.0000      -0.362113        -9.8536
  64   2.0000      -0.334897        -9.1130
  65   2.0000      -0.327581        -8.9139
  66   2.0000      -0.284394        -7.7388
  67   0.0000       0.020958         0.5703
  68   0.0000       0.085446         2.3251
  69   0.0000       0.092578         2.5192
  70   0.0000       0.117939         3.2093
  71   0.0000       0.119446         3.2503

MULLIKEN ATOMIC CHARGES
-----------------------
   0 S :    0.096049
   1 C :   -0.123944
   2 C :   -0.114767
   3 C :   -0.015522
   4 C :   -0.086117
   5 H :   -0.006538
   6 C :    0.128665
   7 H :   -0.001142
   8 H :    0.027700
   9 C :   -0.072809
  10 H :    0.020923
  11 H :    0.032655
  12 C :   -0.054708
  13 H :    0.043753
  14 H :    0.041960
  15 H :    0.033923
  16 S :    0.087152
  17 C :   -0.082032
  18 C :   -0.031603
  19 C :   -0.049025
  20 C :   -0.102245
  21 H :    0.033979
  22 C :    0.042391
  23 H :    0.019991
  24 H :   -0.007292
  25 C :   -0.063497
  26 H :    0.027585
  27 H :    0.023364
  28 C :   -0.019528
  29 H :    0.019164
  30 H :    0.028606
  31 H :    0.021964
  32 H :    0.047574
  33 H :    0.053367
Sum of atomic charges:   -0.0000000

LOEWDIN ATOMIC CHARGES
----------------------
   0 S :    0.359232
   1 C :   -0.181816
   2 C :   -0.059726
   3 C :   -0.062470
   4 C :   -0.172470
   5 H :    0.024294
   6 C :   -0.024353
   7 H :    0.023274
   8 H :    0.032710
   9 C :   -0.037894
  10 H :    0.021160
  11 H :    0.026113
  12 C :   -0.065603
  13 H :    0.029572
  14 H :    0.030918
  15 H :    0.023621
  16 S :    0.397586
  17 C :   -0.172618
  18 C :   -0.071742
  19 C :   -0.059970
  20 C :   -0.199240
  21 H :    0.042015
  22 C :   -0.037081
  23 H :    0.027467
  24 H :    0.023699
  25 C :   -0.034063
  26 H :    0.023108
  27 H :    0.020256
  28 C :   -0.058945
  29 H :    0.019234
  30 H :    0.023826
  31 H :    0.025501
  32 H :    0.032114
  33 H :    0.032292

  Mayer bond orders larger than 0.100000
B(  0-S ,  1-C ) :   1.0983 B(  0-S ,  4-C ) :   1.1103 B(  1-C ,  2-C ) :   1.6804
B(  1-C , 32-H ) :   0.9539 B(  2-C ,  3-C ) :   1.1874 B(  2-C ,  6-C ) :   1.0215
B(  3-C ,  4-C ) :   1.6160 B(  3-C ,  5-H ) :   0.9927 B(  4-C , 20-C ) :   1.0851
B(  6-C ,  7-H ) :   0.9324 B(  6-C ,  8-H ) :   0.9280 B(  6-C ,  9-C ) :   1.0657
B(  9-C , 10-H ) :   0.9569 B(  9-C , 11-H ) :   0.9592 B(  9-C , 12-C ) :   1.0627
B( 12-C , 13-H ) :   0.9697 B( 12-C , 14-H ) :   0.9741 B( 12-C , 15-H ) :   0.9800
B( 16-S , 17-C ) :   1.1334 B( 16-S , 20-C ) :   1.1285 B( 17-C , 18-C ) :   1.6425
B( 17-C , 33-H ) :   0.9639 B( 18-C , 19-C ) :   1.2376 B( 18-C , 21-H ) :   0.9850
B( 19-C , 20-C ) :   1.5857 B( 19-C , 22-C ) :   1.0468 B( 22-C , 23-H ) :   0.9383
B( 22-C , 24-H ) :   0.9296 B( 22-C , 25-C ) :   1.0453 B( 25-C , 26-H ) :   0.9545
B( 25-C , 27-H ) :   0.9577 B( 25-C , 28-C ) :   1.0939 B( 28-C , 29-H ) :   0.9727
B( 28-C , 30-H ) :   0.9740 B( 28-C , 31-H ) :   0.9688

Dispersion correction           -0.015062480
FINAL SINGLE POINT ENERGY     -1339.874930289666

DIPOLE MOMENT
-------------
                                X             Y             Z
Electronic contribution:     29.99441       0.49492      -9.56021
Nuclear contribution   :    -30.76542      -0.50620       9.99465
                        -----------------------------------------
Total Dipole Moment    :     -0.77101      -0.01128       0.43445
                        -----------------------------------------
Magnitude (a.u.)       :      0.88506
Magnitude (Debye)      :      2.24964

Rotational constants in cm-1:     0.015895     0.011050     0.007100
Rotational constants in MHz :   476.530083   331.271584   212.866544

                             ****ORCA TERMINATED NORMALLY****
TOTAL RUN TIME: 0 days 0 hours 0 minutes 22 seconds 616 msec
