                         Program Version 4.2.1 -  RELEASE  -
|  1> ! wB97X-D3 SP def2-SVP
|  2> %pal
|  3> nprocs 24
|  4> end
|  5>
|  6> * xyz 0 1
|  7> S 	 -146.244 	 2.61621 	 14.0071
|  8> C 	 -146.615 	 2.25584 	 12.3216
|  9> C 	 -145.58 	 2.70992 	 11.5078
| 10> C 	 -144.608 	 3.42571 	 12.1889
| 11> C 	 -144.768 	 3.45163 	 13.585
| 12> H 	 -143.765 	 3.97041 	 11.7666
| 13> C 	 -145.677 	 2.44534 	 10.036
| 14> H 	 -146.319 	 3.18816 	 9.64083
| 15> H 	 -146.188 	 1.50949 	 9.93067
| 16> C 	 -144.404 	 2.30796 	 9.15194
| 17> H 	 -144.007 	 3.35245 	 9.12543
| 18> H 	 -143.731 	 1.6726 	 9.75435
| 19> C 	 -144.666 	 1.85698 	 7.73263
| 20> H 	 -144.032 	 2.47447 	 7.06464
| 21> H 	 -144.399 	 0.807077 	 7.68346
| 22> H 	 -145.701 	 2.11456 	 7.38224
| 23> S 	 -142.411 	 4.3145 	 14.5489
| 24> C 	 -142.336 	 5.58795 	 15.7861
| 25> C 	 -143.607 	 5.89554 	 16.1459
| 26> C 	 -144.655 	 5.20986 	 15.465
| 27> C 	 -144.148 	 4.34531 	 14.535
| 28> H 	 -143.857 	 6.75368 	 16.7755
| 29> C 	 -146.069 	 5.51479 	 15.7894
| 30> H 	 -146.048 	 6.17171 	 16.6927
| 31> H 	 -146.553 	 4.53529 	 15.9385
| 32> C 	 -146.951 	 6.37785 	 14.7598
| 33> H 	 -146.892 	 5.86624 	 13.7869
| 34> H 	 -146.562 	 7.36722 	 14.634
| 35> C 	 -148.456 	 6.52863 	 15.1962
| 36> H 	 -148.689 	 6.73811 	 16.2435
| 37> H 	 -149.001 	 5.61378 	 15.0015
| 38> H 	 -148.946 	 7.26202 	 14.5756
| 39> H 	 -147.406 	 1.53085 	 12.0062
| 40> H 	 -141.424 	 5.99377 	 16.1171
| 41> *
| 42>
| 43>                          ****END OF INPUT****

CARTESIAN COORDINATES (ANGSTROEM)
---------------------------------
  S    -146.244000    2.616210   14.007100
  C    -146.615000    2.255840   12.321600
  C    -145.580000    2.709920   11.507800
  C    -144.608000    3.425710   12.188900
  C    -144.768000    3.451630   13.585000
  H    -143.765000    3.970410   11.766600
  C    -145.677000    2.445340   10.036000
  H    -146.319000    3.188160    9.640830
  H    -146.188000    1.509490    9.930670
  C    -144.404000    2.307960    9.151940
  H    -144.007000    3.352450    9.125430
  H    -143.731000    1.672600    9.754350
  C    -144.666000    1.856980    7.732630
  H    -144.032000    2.474470    7.064640
  H    -144.399000    0.807077    7.683460
  H    -145.701000    2.114560    7.382240
  S    -142.411000    4.314500   14.548900
  C    -142.336000    5.587950   15.786100
  C    -143.607000    5.895540   16.145900
  C    -144.655000    5.209860   15.465000
  C    -144.148000    4.345310   14.535000
  H    -143.857000    6.753680   16.775500
  C    -146.069000    5.514790   15.789400
  H    -146.048000    6.171710   16.692700
  H    -146.553000    4.535290   15.938500
  C    -146.951000    6.377850   14.759800
  H    -146.892000    5.866240   13.786900
  H    -146.562000    7.367220   14.634000
  C    -148.456000    6.528630   15.196200
  H    -148.689000    6.738110   16.243500
  H    -149.001000    5.613780   15.001500
  H    -148.946000    7.262020   14.575600
  H    -147.406000    1.530850   12.006200
  H    -141.424000    5.993770   16.117100

 Total Charge           Charge          ....    0
 Multiplicity           Mult            ....    1
 Number of Electrons    NEL             ....  134
 Basis Dimension        Dim             ....  322

ORBITAL ENERGIES
----------------

  NO   OCC          E(Eh)            E(eV)
   0   2.0000     -88.968556     -2420.9575
   1   2.0000     -88.961091     -2420.7544
   2   2.0000     -10.330650      -281.1113
   3   2.0000     -10.323335      -280.9122
   4   2.0000     -10.318400      -280.7779
   5   2.0000     -10.314308      -280.6666
   6   2.0000     -10.300312      -280.2857
   7   2.0000     -10.295827      -280.1637
   8   2.0000     -10.295791      -280.1627
   9   2.0000     -10.293906      -280.1114
  10   2.0000     -10.290866      -280.0287
  11   2.0000     -10.289959      -280.0040
  12   2.0000     -10.289432      -279.9897
  13   2.0000     -10.285510      -279.8830
  14   2.0000     -10.283791      -279.8362
  15   2.0000     -10.275139      -279.6007
  16   2.0000      -8.082628      -219.9395
  17   2.0000      -8.075981      -219.7586
  18   2.0000      -6.041012      -164.3843
  19   2.0000      -6.037053      -164.2766
  20   2.0000      -6.034558      -164.2087
  21   2.0000      -6.033750      -164.1867
  22   2.0000      -6.030416      -164.0960
  23   2.0000      -6.026732      -163.9957
  24   2.0000      -1.010376       -27.4937
  25   2.0000      -0.986657       -26.8483
  26   2.0000      -0.913815       -24.8662
  27   2.0000      -0.897442       -24.4206
  28   2.0000      -0.873817       -23.7778
  29   2.0000      -0.852497       -23.1976
  30   2.0000      -0.845263       -23.0008
  31   2.0000      -0.817411       -22.2429
  32   2.0000      -0.781470       -21.2649
  33   2.0000      -0.768887       -20.9225
  34   2.0000      -0.713105       -19.4046
  35   2.0000      -0.698124       -18.9969
  36   2.0000      -0.682514       -18.5721
  37   2.0000      -0.674751       -18.3609
  38   2.0000      -0.635937       -17.3047
  39   2.0000      -0.617978       -16.8160
  40   2.0000      -0.594245       -16.1702
  41   2.0000      -0.579401       -15.7663
  42   2.0000      -0.562458       -15.3053
  43   2.0000      -0.558769       -15.2049
  44   2.0000      -0.527412       -14.3516
  45   2.0000      -0.520822       -14.1723
  46   2.0000      -0.515560       -14.0291
  47   2.0000      -0.511810       -13.9271
  48   2.0000      -0.508689       -13.8421
  49   2.0000      -0.502184       -13.6651
  50   2.0000      -0.487891       -13.2762
  51   2.0000      -0.481555       -13.1038
  52   2.0000      -0.476604       -12.9691
  53   2.0000      -0.467912       -12.7325
  54   2.0000      -0.460095       -12.5198
  55   2.0000      -0.446136       -12.1400
  56   2.0000      -0.442844       -12.0504
  57   2.0000      -0.433861       -11.8060
  58   2.0000      -0.431430       -11.7398
  59   2.0000      -0.423353       -11.5200
  60   2.0000      -0.418907       -11.3990
  61   2.0000      -0.413835       -11.2610
  62   2.0000      -0.404567       -11.0088
  63   2.0000      -0.352089        -9.5808
  64   2.0000      -0.334991        -9.1156
  65   2.0000      -0.327166        -8.9026
  66   2.0000      -0.288409        -7.8480
  67   0.0000       0.022033         0.5996
  68   0.0000       0.076758         2.0887
  69   0.0000       0.115200         3.1348
  70   0.0000       0.121850         3.3157
  71   0.0000       0.128818         3.5053

MULLIKEN ATOMIC CHARGES
-----------------------
   0 S :    0.099503
   1 C :   -0.153360
   2 C :   -0.069933
   3 C :    0.019153
   4 C :   -0.141944
   5 H :    0.019312
   6 C :    0.060806
   7 H :    0.033116
   8 H :    0.012063
   9 C :   -0.113465
  10 H :    0.033573
  11 H :    0.040903
  12 C :   -0.034054
  13 H :    0.034897
  14 H :    0.048432
  15 H :    0.037921
  16 S :    0.086324
  17 C :   -0.072975
  18 C :   -0.025270
  19 C :   -0.031455
  20 C :   -0.156914
  21 H :    0.021469
  22 C :    0.033000
  23 H :    0.023261
  24 H :    0.041191
  25 C :   -0.058754
  26 H :    0.039660
  27 H :    0.025135
  28 C :   -0.049736
  29 H :    0.030884
  30 H :    0.024101
  31 H :    0.029998
  32 H :    0.071136
  33 H :    0.042021
Sum of atomic charges:    0.0000000

LOEWDIN ATOMIC CHARGES
----------------------
   0 S :    0.420038
   1 C :   -0.203220
   2 C :   -0.065528
   3 C :   -0.064491
   4 C :   -0.196110
   5 H :    0.032855
   6 C :   -0.033686
   7 H :    0.027856
   8 H :    0.025198
   9 C :   -0.047819
  10 H :    0.024431
  11 H :    0.027191
  12 C :   -0.068288
  13 H :    0.032979
  14 H :    0.030715
  15 H :    0.032411
  16 S :    0.396868
  17 C :   -0.167775
  18 C :   -0.067459
  19 C :   -0.070411
  20 C :   -0.197791
  21 H :    0.032691
  22 C :   -0.038915
  23 H :    0.033777
  24 H :    0.025843
  25 C :   -0.030291
  26 H :    0.026624
  27 H :    0.017995
  28 C :   -0.069965
  29 H :    0.024761
  30 H :    0.024150
  31 H :    0.025520
  32 H :    0.038848
  33 H :    0.020999

  Mayer bond orders larger than 0.100000
B(  0-S ,  1-C ) :   1.1499 B(  0-S ,  4-C ) :   1.1751 B(  1-C ,  2-C ) :   1.5626
B(  1-C ,  4-C ) :   0.1128 B(  1-C , 32-H ) :   0.9635 B(  2-C ,  3-C ) :   1.2968
B(  2-C ,  6-C ) :   1.0101 B(  3-C ,  4-C ) :   1.5176 B(  3-C ,  5-H ) :   0.9896
B(  4-C , 20-C ) :   1.0152 B(  6-C ,  7-H ) :   0.9302 B(  6-C ,  8-H ) :   0.9429
B(  6-C ,  9-C ) :   1.0685 B(  9-C , 10-H ) :   0.9535 B(  9-C , 11-H ) :   0.9658
B(  9-C , 12-C ) :   1.0714 B( 12-C , 13-H ) :   0.9755 B( 12-C , 14-H ) :   0.9757
B( 12-C , 15-H ) :   0.9738 B( 16-S , 17-C ) :   1.1336 B( 16-S , 20-C ) :   1.1461
B( 17-C , 18-C ) :   1.6056 B( 17-C , 33-H ) :   0.9803 B( 18-C , 19-C ) :   1.2552
B( 18-C , 21-H ) :   0.9787 B( 19-C , 20-C ) :   1.5892 B( 19-C , 22-C ) :   1.0490
B( 22-C , 23-H ) :   0.9285 B( 22-C , 24-H ) :   0.9306 B( 22-C , 25-C ) :   1.0576
B( 25-C , 26-H ) :   0.9580 B( 25-C , 27-H ) :   0.9613 B( 25-C , 28-C ) :   1.0727
B( 28-C , 29-H ) :   0.9777 B( 28-C , 30-H ) :   0.9758 B( 28-C , 31-H ) :   0.9758

Dispersion correction           -0.014072934
FINAL SINGLE POINT ENERGY     -1339.879132424471

DIPOLE MOMENT
-------------
                                X             Y             Z
Electronic contribution:     12.41633      -4.82308      15.52751
Nuclear contribution   :    -12.65484       5.07459     -15.95810
                        -----------------------------------------
Total Dipole Moment    :     -0.23851       0.25151      -0.43059
                        -----------------------------------------
Magnitude (a.u.)       :      0.55276
Magnitude (Debye)      :      1.40501

Rotational constants in cm-1:     0.018757     0.008243     0.006521
Rotational constants in MHz :   562.335226   247.105042   195.488366

                             ****ORCA TERMINATED NORMALLY****
TOTAL RUN TIME: 0 days 0 hours 0 minutes 21 seconds 291 msec
