                         Program Version 4.2.1 -  RELEASE  -
|  1> ! wB97X-D3 SP def2-SVP
|  2> %pal
|  3> nprocs 24
|  4> end
|  5>
|  6> * xyz 0 1
|  7> S 	 -36.6005 	 -48.1927 	 -75.1608
|  8> C 	 -34.9671 	 -48.4153 	 -75.8646
|  9> C 	 -34.3852 	 -47.2296 	 -76.3964
| 10> C 	 -35.2909 	 -46.1614 	 -76.1142
| 11> C 	 -36.5203 	 -46.4659 	 -75.5473
| 12> H 	 -35.1245 	 -45.178 	 -76.3727
| 13> C 	 -33.0824 	 -47.1264 	 -77.1746
| 14> H 	 -33.1598 	 -46.1988 	 -77.8244
| 15> H 	 -33.0598 	 -47.9301 	 -77.8378
| 16> C 	 -31.8449 	 -46.8047 	 -76.3278
| 17> H 	 -30.9774 	 -46.7453 	 -76.9624
| 18> H 	 -31.9295 	 -45.7742 	 -75.927
| 19> C 	 -31.5859 	 -47.8265 	 -75.2765
| 20> H 	 -31.9808 	 -47.3911 	 -74.3788
| 21> H 	 -32.0986 	 -48.7431 	 -75.4806
| 22> H 	 -30.5236 	 -48.1214 	 -75.1092
| 23> S 	 -38.3804 	 -45.8333 	 -73.6014
| 24> C 	 -39.5146 	 -44.5137 	 -73.9448
| 25> C 	 -39.4328 	 -44.1606 	 -75.2669
| 26> C 	 -38.3563 	 -44.7353 	 -75.9805
| 27> C 	 -37.6494 	 -45.6918 	 -75.2117
| 28> H 	 -40.0672 	 -43.3407 	 -75.6515
| 29> C 	 -38.1005 	 -44.4992 	 -77.4167
| 30> H 	 -37.1177 	 -44.0983 	 -77.5866
| 31> H 	 -38.7532 	 -43.7459 	 -77.8189
| 32> C 	 -38.324 	 -45.6402 	 -78.4342
| 33> H 	 -39.305 	 -46.0415 	 -78.2952
| 34> H 	 -37.815 	 -46.536 	 -78.1857
| 35> C 	 -37.7806 	 -45.3572 	 -79.8636
| 36> H 	 -38.1766 	 -46.1459 	 -80.4802
| 37> H 	 -36.7134 	 -45.494 	 -79.829
| 38> H 	 -38.0463 	 -44.3852 	 -80.2229
| 39> H 	 -34.5342 	 -49.3818 	 -75.9749
| 40> H 	 -40.3026 	 -44.1033 	 -73.3801
| 41> *
| 42>
| 43>                          ****END OF INPUT****

CARTESIAN COORDINATES (ANGSTROEM)
---------------------------------
  S    -36.600500  -48.192700  -75.160800
  C    -34.967100  -48.415300  -75.864600
  C    -34.385200  -47.229600  -76.396400
  C    -35.290900  -46.161400  -76.114200
  C    -36.520300  -46.465900  -75.547300
  H    -35.124500  -45.178000  -76.372700
  C    -33.082400  -47.126400  -77.174600
  H    -33.159800  -46.198800  -77.824400
  H    -33.059800  -47.930100  -77.837800
  C    -31.844900  -46.804700  -76.327800
  H    -30.977400  -46.745300  -76.962400
  H    -31.929500  -45.774200  -75.927000
  C    -31.585900  -47.826500  -75.276500
  H    -31.980800  -47.391100  -74.378800
  H    -32.098600  -48.743100  -75.480600
  H    -30.523600  -48.121400  -75.109200
  S    -38.380400  -45.833300  -73.601400
  C    -39.514600  -44.513700  -73.944800
  C    -39.432800  -44.160600  -75.266900
  C    -38.356300  -44.735300  -75.980500
  C    -37.649400  -45.691800  -75.211700
  H    -40.067200  -43.340700  -75.651500
  C    -38.100500  -44.499200  -77.416700
  H    -37.117700  -44.098300  -77.586600
  H    -38.753200  -43.745900  -77.818900
  C    -38.324000  -45.640200  -78.434200
  H    -39.305000  -46.041500  -78.295200
  H    -37.815000  -46.536000  -78.185700
  C    -37.780600  -45.357200  -79.863600
  H    -38.176600  -46.145900  -80.480200
  H    -36.713400  -45.494000  -79.829000
  H    -38.046300  -44.385200  -80.222900
  H    -34.534200  -49.381800  -75.974900
  H    -40.302600  -44.103300  -73.380100

 Total Charge           Charge          ....    0
 Multiplicity           Mult            ....    1
 Number of Electrons    NEL             ....  134
 Basis Dimension        Dim             ....  322

ORBITAL ENERGIES
----------------

  NO   OCC          E(Eh)            E(eV)
   0   2.0000     -88.968974     -2420.9689
   1   2.0000     -88.967288     -2420.9230
   2   2.0000     -10.328510      -281.0530
   3   2.0000     -10.327315      -281.0205
   4   2.0000     -10.319664      -280.8123
   5   2.0000     -10.315521      -280.6996
   6   2.0000     -10.309163      -280.5266
   7   2.0000     -10.302183      -280.3366
   8   2.0000     -10.298037      -280.2238
   9   2.0000     -10.293213      -280.0926
  10   2.0000     -10.291464      -280.0450
  11   2.0000     -10.285809      -279.8911
  12   2.0000     -10.283473      -279.8275
  13   2.0000     -10.274894      -279.5941
  14   2.0000     -10.274465      -279.5824
  15   2.0000     -10.269026      -279.4344
  16   2.0000      -8.082668      -219.9406
  17   2.0000      -8.081080      -219.8974
  18   2.0000      -6.041259      -164.3910
  19   2.0000      -6.039568      -164.3450
  20   2.0000      -6.037326      -164.2840
  21   2.0000      -6.035786      -164.2421
  22   2.0000      -6.033370      -164.1763
  23   2.0000      -6.031852      -164.1350
  24   2.0000      -1.003650       -27.3107
  25   2.0000      -0.976821       -26.5806
  26   2.0000      -0.918522       -24.9943
  27   2.0000      -0.907508       -24.6945
  28   2.0000      -0.872370       -23.7384
  29   2.0000      -0.852155       -23.1883
  30   2.0000      -0.845699       -23.0126
  31   2.0000      -0.814997       -22.1772
  32   2.0000      -0.787983       -21.4421
  33   2.0000      -0.772609       -21.0238
  34   2.0000      -0.716912       -19.5082
  35   2.0000      -0.701542       -19.0899
  36   2.0000      -0.695689       -18.9307
  37   2.0000      -0.660083       -17.9618
  38   2.0000      -0.645844       -17.5743
  39   2.0000      -0.622904       -16.9501
  40   2.0000      -0.599242       -16.3062
  41   2.0000      -0.569519       -15.4974
  42   2.0000      -0.560280       -15.2460
  43   2.0000      -0.550132       -14.9699
  44   2.0000      -0.546063       -14.8591
  45   2.0000      -0.527620       -14.3573
  46   2.0000      -0.521983       -14.2039
  47   2.0000      -0.512706       -13.9514
  48   2.0000      -0.507063       -13.7979
  49   2.0000      -0.496899       -13.5213
  50   2.0000      -0.490448       -13.3458
  51   2.0000      -0.484584       -13.1862
  52   2.0000      -0.479322       -13.0430
  53   2.0000      -0.462119       -12.5749
  54   2.0000      -0.457049       -12.4369
  55   2.0000      -0.447643       -12.1810
  56   2.0000      -0.439515       -11.9598
  57   2.0000      -0.438269       -11.9259
  58   2.0000      -0.432048       -11.7566
  59   2.0000      -0.427540       -11.6339
  60   2.0000      -0.423144       -11.5143
  61   2.0000      -0.413707       -11.2575
  62   2.0000      -0.403140       -10.9700
  63   2.0000      -0.346956        -9.4412
  64   2.0000      -0.333763        -9.0821
  65   2.0000      -0.331108        -9.0099
  66   2.0000      -0.283807        -7.7228
  67   0.0000       0.020933         0.5696
  68   0.0000       0.061909         1.6846
  69   0.0000       0.097321         2.6482
  70   0.0000       0.120736         3.2854
  71   0.0000       0.135867         3.6971

MULLIKEN ATOMIC CHARGES
-----------------------
   0 S :    0.097977
   1 C :   -0.116425
   2 C :   -0.097921
   3 C :    0.068587
   4 C :   -0.167385
   5 H :   -0.030397
   6 C :    0.064229
   7 H :    0.029331
   8 H :    0.025692
   9 C :   -0.061276
  10 H :    0.023805
  11 H :    0.033242
  12 C :   -0.029048
  13 H :    0.037062
  14 H :    0.013402
  15 H :    0.035818
  16 S :    0.111270
  17 C :   -0.062574
  18 C :   -0.057475
  19 C :   -0.014520
  20 C :   -0.144413
  21 H :    0.030104
  22 C :    0.086877
  23 H :    0.011638
  24 H :    0.004155
  25 C :   -0.073361
  26 H :    0.013619
  27 H :    0.014541
  28 C :   -0.022329
  29 H :    0.033732
  30 H :    0.032080
  31 H :    0.027662
  32 H :    0.042249
  33 H :    0.040050
Sum of atomic charges:    0.0000000

LOEWDIN ATOMIC CHARGES
----------------------
   0 S :    0.382079
   1 C :   -0.178451
   2 C :   -0.054791
   3 C :   -0.052146
   4 C :   -0.184072
   5 H :    0.014727
   6 C :   -0.026137
   7 H :    0.041110
   8 H :    0.023479
   9 C :   -0.041844
  10 H :    0.022023
  11 H :    0.028924
  12 C :   -0.067122
  13 H :    0.030148
  14 H :    0.019050
  15 H :    0.030435
  16 S :    0.393981
  17 C :   -0.176406
  18 C :   -0.071767
  19 C :   -0.054460
  20 C :   -0.196538
  21 H :    0.037075
  22 C :   -0.035710
  23 H :    0.026468
  24 H :    0.028132
  25 C :   -0.040043
  26 H :    0.019328
  27 H :    0.019564
  28 C :   -0.051769
  29 H :    0.030254
  30 H :    0.026202
  31 H :    0.016988
  32 H :    0.015305
  33 H :    0.025986

  Mayer bond orders larger than 0.100000
B(  0-S ,  1-C ) :   1.1448 B(  0-S ,  4-C ) :   1.1235 B(  1-C ,  2-C ) :   1.5927
B(  1-C ,  4-C ) :   0.1095 B(  1-C , 32-H ) :   0.9675 B(  2-C ,  3-C ) :   1.2407
B(  2-C ,  6-C ) :   1.0141 B(  3-C ,  4-C ) :   1.5834 B(  3-C ,  5-H ) :   1.0024
B(  4-C , 20-C ) :   1.0939 B(  6-C ,  7-H ) :   0.9413 B(  6-C ,  8-H ) :   0.9457
B(  6-C ,  9-C ) :   1.0758 B(  9-C , 10-H ) :   0.9562 B(  9-C , 11-H ) :   0.9610
B(  9-C , 12-C ) :   1.0634 B( 12-C , 13-H ) :   0.9733 B( 12-C , 14-H ) :   0.9786
B( 12-C , 15-H ) :   0.9748 B( 16-S , 17-C ) :   1.1399 B( 16-S , 20-C ) :   1.1304
B( 17-C , 18-C ) :   1.6186 B( 17-C , 20-C ) :   0.1069 B( 17-C , 33-H ) :   0.9670
B( 18-C , 19-C ) :   1.2700 B( 18-C , 21-H ) :   0.9762 B( 19-C , 20-C ) :   1.5401
B( 19-C , 22-C ) :   1.0653 B( 22-C , 23-H ) :   0.9227 B( 22-C , 24-H ) :   0.9274
B( 22-C , 25-C ) :   1.0556 B( 25-C , 26-H ) :   0.9557 B( 25-C , 27-H ) :   0.9526
B( 25-C , 28-C ) :   1.0677 B( 28-C , 29-H ) :   0.9723 B( 28-C , 30-H ) :   0.9767
B( 28-C , 31-H ) :   0.9807

Dispersion correction           -0.014878089
FINAL SINGLE POINT ENERGY     -1339.861604855934

DIPOLE MOMENT
-------------
                                X             Y             Z
Electronic contribution:    -15.75009      -3.49354      19.41369
Nuclear contribution   :     16.03470       3.75151     -19.99428
                        -----------------------------------------
Total Dipole Moment    :      0.28461       0.25797      -0.58059
                        -----------------------------------------
Magnitude (a.u.)       :      0.69616
Magnitude (Debye)      :      1.76949

Rotational constants in cm-1:     0.019363     0.008796     0.007042
Rotational constants in MHz :   580.478460   263.702202   211.101697

                             ****ORCA TERMINATED NORMALLY****
TOTAL RUN TIME: 0 days 0 hours 0 minutes 22 seconds 151 msec
