                         Program Version 4.2.1 -  RELEASE  -
|  1> ! wB97X-D3 SP def2-SVP
|  2> %pal
|  3> nprocs 24
|  4> end
|  5>
|  6> * xyz 0 1
|  7> S 	 -110.487 	 59.0177 	 -21.778
|  8> C 	 -109.863 	 60.3478 	 -20.9204
|  9> C 	 -109.38 	 60.0401 	 -19.674
| 10> C 	 -109.354 	 58.6385 	 -19.4628
| 11> C 	 -109.707 	 57.9737 	 -20.6095
| 12> H 	 -108.891 	 58.1151 	 -18.6145
| 13> C 	 -108.783 	 61.0182 	 -18.6316
| 14> H 	 -107.989 	 60.5156 	 -17.9583
| 15> H 	 -109.594 	 61.221 	 -17.9511
| 16> C 	 -108.523 	 62.4069 	 -19.2233
| 17> H 	 -107.785 	 62.3657 	 -19.9823
| 18> H 	 -109.37 	 62.6218 	 -19.7567
| 19> C 	 -108.133 	 63.4171 	 -18.1053
| 20> H 	 -107.32 	 63.0242 	 -17.5565
| 21> H 	 -107.875 	 64.5179 	 -18.406
| 22> H 	 -108.911 	 63.4802 	 -17.3436
| 23> S 	 -110.985 	 55.6389 	 -21.0278
| 24> C 	 -110.158 	 54.1462 	 -21.3029
| 25> C 	 -108.795 	 54.3778 	 -21.2502
| 26> C 	 -108.432 	 55.7625 	 -20.9665
| 27> C 	 -109.565 	 56.5678 	 -20.9244
| 28> H 	 -108.137 	 53.5646 	 -21.5019
| 29> C 	 -107 	 56.2013 	 -20.8686
| 30> H 	 -106.608 	 56.0973 	 -19.814
| 31> H 	 -106.99 	 57.2432 	 -21.0636
| 32> C 	 -105.998 	 55.5572 	 -21.7941
| 33> H 	 -106.375 	 55.5665 	 -22.8691
| 34> H 	 -105.888 	 54.5227 	 -21.5108
| 35> C 	 -104.775 	 56.409 	 -21.8628
| 36> H 	 -104.981 	 57.4587 	 -22.1934
| 37> H 	 -104.117 	 55.8939 	 -22.6205
| 38> H 	 -104.318 	 56.433 	 -20.8611
| 39> H 	 -109.815 	 61.3319 	 -21.307
| 40> H 	 -110.683 	 53.2149 	 -21.54
| 41> *
| 42>
| 43>                          ****END OF INPUT****

CARTESIAN COORDINATES (ANGSTROEM)
---------------------------------
  S    -110.487000   59.017700  -21.778000
  C    -109.863000   60.347800  -20.920400
  C    -109.380000   60.040100  -19.674000
  C    -109.354000   58.638500  -19.462800
  C    -109.707000   57.973700  -20.609500
  H    -108.891000   58.115100  -18.614500
  C    -108.783000   61.018200  -18.631600
  H    -107.989000   60.515600  -17.958300
  H    -109.594000   61.221000  -17.951100
  C    -108.523000   62.406900  -19.223300
  H    -107.785000   62.365700  -19.982300
  H    -109.370000   62.621800  -19.756700
  C    -108.133000   63.417100  -18.105300
  H    -107.320000   63.024200  -17.556500
  H    -107.875000   64.517900  -18.406000
  H    -108.911000   63.480200  -17.343600
  S    -110.985000   55.638900  -21.027800
  C    -110.158000   54.146200  -21.302900
  C    -108.795000   54.377800  -21.250200
  C    -108.432000   55.762500  -20.966500
  C    -109.565000   56.567800  -20.924400
  H    -108.137000   53.564600  -21.501900
  C    -107.000000   56.201300  -20.868600
  H    -106.608000   56.097300  -19.814000
  H    -106.990000   57.243200  -21.063600
  C    -105.998000   55.557200  -21.794100
  H    -106.375000   55.566500  -22.869100
  H    -105.888000   54.522700  -21.510800
  C    -104.775000   56.409000  -21.862800
  H    -104.981000   57.458700  -22.193400
  H    -104.117000   55.893900  -22.620500
  H    -104.318000   56.433000  -20.861100
  H    -109.815000   61.331900  -21.307000
  H    -110.683000   53.214900  -21.540000

 Total Charge           Charge          ....    0
 Multiplicity           Mult            ....    1
 Number of Electrons    NEL             ....  134
 Basis Dimension        Dim             ....  322

ORBITAL ENERGIES
----------------

  NO   OCC          E(Eh)            E(eV)
   0   2.0000     -88.965241     -2420.8673
   1   2.0000     -88.958912     -2420.6951
   2   2.0000     -10.324722      -280.9500
   3   2.0000     -10.318210      -280.7728
   4   2.0000     -10.314723      -280.6779
   5   2.0000     -10.305201      -280.4188
   6   2.0000     -10.302472      -280.3445
   7   2.0000     -10.300803      -280.2991
   8   2.0000     -10.300454      -280.2896
   9   2.0000     -10.294530      -280.1284
  10   2.0000     -10.292867      -280.0832
  11   2.0000     -10.286790      -279.9178
  12   2.0000     -10.285450      -279.8813
  13   2.0000     -10.283624      -279.8316
  14   2.0000     -10.283457      -279.8271
  15   2.0000     -10.282723      -279.8071
  16   2.0000      -8.081257      -219.9022
  17   2.0000      -8.075233      -219.7383
  18   2.0000      -6.039571      -164.3451
  19   2.0000      -6.035858      -164.2440
  20   2.0000      -6.033690      -164.1850
  21   2.0000      -6.031873      -164.1356
  22   2.0000      -6.029354      -164.0671
  23   2.0000      -6.026120      -163.9790
  24   2.0000      -1.014359       -27.6021
  25   2.0000      -0.990224       -26.9454
  26   2.0000      -0.917953       -24.9788
  27   2.0000      -0.914503       -24.8849
  28   2.0000      -0.869892       -23.6710
  29   2.0000      -0.855618       -23.2825
  30   2.0000      -0.848350       -23.0848
  31   2.0000      -0.812821       -22.1180
  32   2.0000      -0.778618       -21.1873
  33   2.0000      -0.767004       -20.8712
  34   2.0000      -0.721456       -19.6318
  35   2.0000      -0.698631       -19.0107
  36   2.0000      -0.692847       -18.8533
  37   2.0000      -0.653921       -17.7941
  38   2.0000      -0.642730       -17.4896
  39   2.0000      -0.616737       -16.7823
  40   2.0000      -0.599972       -16.3261
  41   2.0000      -0.573696       -15.6111
  42   2.0000      -0.570596       -15.5267
  43   2.0000      -0.564490       -15.3606
  44   2.0000      -0.528747       -14.3879
  45   2.0000      -0.520531       -14.1644
  46   2.0000      -0.516881       -14.0650
  47   2.0000      -0.514714       -14.0061
  48   2.0000      -0.501761       -13.6536
  49   2.0000      -0.495176       -13.4744
  50   2.0000      -0.488764       -13.3000
  51   2.0000      -0.483110       -13.1461
  52   2.0000      -0.476038       -12.9537
  53   2.0000      -0.469832       -12.7848
  54   2.0000      -0.457949       -12.4614
  55   2.0000      -0.456880       -12.4323
  56   2.0000      -0.441593       -12.0164
  57   2.0000      -0.437231       -11.8977
  58   2.0000      -0.429533       -11.6882
  59   2.0000      -0.427719       -11.6388
  60   2.0000      -0.425228       -11.5710
  61   2.0000      -0.422639       -11.5006
  62   2.0000      -0.408264       -11.1094
  63   2.0000      -0.342001        -9.3063
  64   2.0000      -0.331704        -9.0261
  65   2.0000      -0.321967        -8.7612
  66   2.0000      -0.295636        -8.0447
  67   0.0000       0.039188         1.0664
  68   0.0000       0.065722         1.7884
  69   0.0000       0.118200         3.2164
  70   0.0000       0.123129         3.3505
  71   0.0000       0.137777         3.7491

MULLIKEN ATOMIC CHARGES
-----------------------
   0 S :    0.130819
   1 C :   -0.116358
   2 C :   -0.090663
   3 C :    0.043008
   4 C :   -0.192009
   5 H :    0.024539
   6 C :    0.038635
   7 H :    0.043857
   8 H :    0.030297
   9 C :   -0.042206
  10 H :    0.020963
  11 H :    0.016021
  12 C :   -0.048143
  13 H :    0.020847
  14 H :    0.053335
  15 H :    0.022422
  16 S :    0.105500
  17 C :   -0.105624
  18 C :   -0.040809
  19 C :   -0.019883
  20 C :   -0.152646
  21 H :    0.016835
  22 C :    0.071003
  23 H :    0.037968
  24 H :    0.009678
  25 C :   -0.113029
  26 H :    0.036610
  27 H :    0.034987
  28 C :   -0.054023
  29 H :    0.047629
  30 H :    0.043744
  31 H :    0.029605
  32 H :    0.030175
  33 H :    0.066913
Sum of atomic charges:   -0.0000000

LOEWDIN ATOMIC CHARGES
----------------------
   0 S :    0.422947
   1 C :   -0.212065
   2 C :   -0.062105
   3 C :   -0.055878
   4 C :   -0.190420
   5 H :    0.038862
   6 C :   -0.031764
   7 H :    0.037154
   8 H :    0.033677
   9 C :   -0.032587
  10 H :    0.018452
  11 H :    0.012902
  12 C :   -0.067500
  13 H :    0.019657
  14 H :    0.038670
  15 H :    0.022964
  16 S :    0.430386
  17 C :   -0.197794
  18 C :   -0.073152
  19 C :   -0.055395
  20 C :   -0.224609
  21 H :    0.027787
  22 C :   -0.038095
  23 H :    0.037706
  24 H :    0.024841
  25 C :   -0.050310
  26 H :    0.031907
  27 H :    0.019685
  28 C :   -0.066202
  29 H :    0.032209
  30 H :    0.033483
  31 H :    0.023216
  32 H :    0.017194
  33 H :    0.034178

  Mayer bond orders larger than 0.100000
B(  0-S ,  1-C ) :   1.1343 B(  0-S ,  4-C ) :   1.1556 B(  1-C ,  2-C ) :   1.6414
B(  1-C , 32-H ) :   0.9634 B(  2-C ,  3-C ) :   1.2222 B(  2-C ,  6-C ) :   1.0028
B(  3-C ,  4-C ) :   1.6014 B(  3-C ,  5-H ) :   0.9966 B(  4-C , 20-C ) :   0.9972
B(  6-C ,  7-H ) :   0.9503 B(  6-C ,  8-H ) :   0.9280 B(  6-C ,  9-C ) :   1.0619
B(  9-C , 10-H ) :   0.9614 B(  9-C , 11-H ) :   0.9420 B(  9-C , 12-C ) :   1.0732
B( 12-C , 13-H ) :   0.9742 B( 12-C , 14-H ) :   0.9752 B( 12-C , 15-H ) :   0.9749
B( 16-S , 17-C ) :   1.1618 B( 16-S , 20-C ) :   1.1708 B( 17-C , 18-C ) :   1.5939
B( 17-C , 33-H ) :   0.9687 B( 18-C , 19-C ) :   1.2285 B( 18-C , 21-H ) :   0.9929
B( 19-C , 20-C ) :   1.5952 B( 19-C , 22-C ) :   1.0514 B( 22-C , 23-H ) :   0.9176
B( 22-C , 24-H ) :   0.9341 B( 22-C , 25-C ) :   1.0722 B( 25-C , 26-H ) :   0.9574
B( 25-C , 27-H ) :   0.9452 B( 25-C , 28-C ) :   1.0893 B( 28-C , 29-H ) :   0.9714
B( 28-C , 30-H ) :   0.9727 B( 28-C , 31-H ) :   0.9703

Dispersion correction           -0.013431159
FINAL SINGLE POINT ENERGY     -1339.867153578617

DIPOLE MOMENT
-------------
                                X             Y             Z
Electronic contribution:    -23.87774     -13.59547      -7.91557
Nuclear contribution   :     24.43836      13.71532       8.16287
                        -----------------------------------------
Total Dipole Moment    :      0.56062       0.11985       0.24729
                        -----------------------------------------
Magnitude (a.u.)       :      0.62435
Magnitude (Debye)      :      1.58697

Rotational constants in cm-1:     0.019335     0.007800     0.006167
Rotational constants in MHz :   579.638711   233.844348   184.892313

                             ****ORCA TERMINATED NORMALLY****
TOTAL RUN TIME: 0 days 0 hours 0 minutes 21 seconds 214 msec
