                         Program Version 4.2.1 -  RELEASE  -
|  1> ! wB97X-D3 SP def2-SVP
|  2> %pal
|  3> nprocs 24
|  4> end
|  5>
|  6> * xyz 0 1
|  7> S 	 -36.6814 	 -41.6304 	 -76.2306
|  8> C 	 -37.9543 	 -40.4 	 -76.3094
|  9> C 	 -39.0468 	 -40.8428 	 -77.0154
| 10> C 	 -38.933 	 -42.2221 	 -77.4051
| 11> C 	 -37.7537 	 -42.777 	 -77.095
| 12> H 	 -39.5646 	 -42.8315 	 -77.9829
| 13> C 	 -40.3307 	 -40.0918 	 -77.1781
| 14> H 	 -40.849 	 -40.5134 	 -78.0975
| 15> H 	 -40.145 	 -39.0882 	 -77.5622
| 16> C 	 -41.22 	 -40.1632 	 -75.9435
| 17> H 	 -41.7741 	 -41.1203 	 -75.8824
| 18> H 	 -40.6238 	 -40.1132 	 -75.0539
| 19> C 	 -42.3708 	 -39.1366 	 -75.8507
| 20> H 	 -41.8938 	 -38.1824 	 -75.605
| 21> H 	 -43.0144 	 -39.098 	 -76.6819
| 22> H 	 -42.9292 	 -39.4009 	 -74.9084
| 23> S 	 -36.6057 	 -45.1899 	 -76.3331
| 24> C 	 -36.2958 	 -46.4331 	 -77.5236
| 25> C 	 -36.6425 	 -46.0195 	 -78.7334
| 26> C 	 -37.3264 	 -44.7642 	 -78.7993
| 27> C 	 -37.2839 	 -44.069 	 -77.557
| 28> H 	 -36.4475 	 -46.7197 	 -79.558
| 29> C 	 -37.9082 	 -44.2774 	 -80.0999
| 30> H 	 -37.1334 	 -44.4513 	 -80.8157
| 31> H 	 -37.8657 	 -43.1898 	 -79.9493
| 32> C 	 -39.2942 	 -44.7357 	 -80.508
| 33> H 	 -39.9062 	 -44.5591 	 -79.6216
| 34> H 	 -39.2459 	 -45.8241 	 -80.5757
| 35> C 	 -39.8661 	 -43.9821 	 -81.7069
| 36> H 	 -40.8863 	 -44.3983 	 -82.14
| 37> H 	 -39.0902 	 -44.0738 	 -82.4956
| 38> H 	 -40.1113 	 -42.8999 	 -81.5851
| 39> H 	 -37.9411 	 -39.4732 	 -75.7696
| 40> H 	 -35.7506 	 -47.3341 	 -77.4361
| 41> *
| 42>
| 43>                          ****END OF INPUT****

CARTESIAN COORDINATES (ANGSTROEM)
---------------------------------
  S    -36.681400  -41.630400  -76.230600
  C    -37.954300  -40.400000  -76.309400
  C    -39.046800  -40.842800  -77.015400
  C    -38.933000  -42.222100  -77.405100
  C    -37.753700  -42.777000  -77.095000
  H    -39.564600  -42.831500  -77.982900
  C    -40.330700  -40.091800  -77.178100
  H    -40.849000  -40.513400  -78.097500
  H    -40.145000  -39.088200  -77.562200
  C    -41.220000  -40.163200  -75.943500
  H    -41.774100  -41.120300  -75.882400
  H    -40.623800  -40.113200  -75.053900
  C    -42.370800  -39.136600  -75.850700
  H    -41.893800  -38.182400  -75.605000
  H    -43.014400  -39.098000  -76.681900
  H    -42.929200  -39.400900  -74.908400
  S    -36.605700  -45.189900  -76.333100
  C    -36.295800  -46.433100  -77.523600
  C    -36.642500  -46.019500  -78.733400
  C    -37.326400  -44.764200  -78.799300
  C    -37.283900  -44.069000  -77.557000
  H    -36.447500  -46.719700  -79.558000
  C    -37.908200  -44.277400  -80.099900
  H    -37.133400  -44.451300  -80.815700
  H    -37.865700  -43.189800  -79.949300
  C    -39.294200  -44.735700  -80.508000
  H    -39.906200  -44.559100  -79.621600
  H    -39.245900  -45.824100  -80.575700
  C    -39.866100  -43.982100  -81.706900
  H    -40.886300  -44.398300  -82.140000
  H    -39.090200  -44.073800  -82.495600
  H    -40.111300  -42.899900  -81.585100
  H    -37.941100  -39.473200  -75.769600
  H    -35.750600  -47.334100  -77.436100

 Total Charge           Charge          ....    0
 Multiplicity           Mult            ....    1
 Number of Electrons    NEL             ....  134
 Basis Dimension        Dim             ....  322

ORBITAL ENERGIES
----------------

  NO   OCC          E(Eh)            E(eV)
   0   2.0000     -88.965701     -2420.8798
   1   2.0000     -88.961825     -2420.7743
   2   2.0000     -10.333189      -281.1804
   3   2.0000     -10.327906      -281.0366
   4   2.0000     -10.315822      -280.7078
   5   2.0000     -10.308842      -280.5178
   6   2.0000     -10.308678      -280.5134
   7   2.0000     -10.301782      -280.3257
   8   2.0000     -10.296413      -280.1796
   9   2.0000     -10.294695      -280.1329
  10   2.0000     -10.291799      -280.0541
  11   2.0000     -10.289185      -279.9830
  12   2.0000     -10.287289      -279.9314
  13   2.0000     -10.287099      -279.9262
  14   2.0000     -10.286279      -279.9039
  15   2.0000     -10.279464      -279.7184
  16   2.0000      -8.079613      -219.8575
  17   2.0000      -8.076162      -219.7636
  18   2.0000      -6.038327      -164.3112
  19   2.0000      -6.034844      -164.2165
  20   2.0000      -6.034301      -164.2017
  21   2.0000      -6.030674      -164.1030
  22   2.0000      -6.030133      -164.0883
  23   2.0000      -6.026800      -163.9976
  24   2.0000      -1.004698       -27.3392
  25   2.0000      -0.983928       -26.7740
  26   2.0000      -0.913575       -24.8596
  27   2.0000      -0.912385       -24.8272
  28   2.0000      -0.874408       -23.7938
  29   2.0000      -0.851502       -23.1706
  30   2.0000      -0.845766       -23.0145
  31   2.0000      -0.823242       -22.4016
  32   2.0000      -0.781028       -21.2528
  33   2.0000      -0.769086       -20.9279
  34   2.0000      -0.712004       -19.3746
  35   2.0000      -0.701066       -19.0770
  36   2.0000      -0.699689       -19.0395
  37   2.0000      -0.659297       -17.9404
  38   2.0000      -0.646539       -17.5932
  39   2.0000      -0.619044       -16.8450
  40   2.0000      -0.592322       -16.1179
  41   2.0000      -0.573676       -15.6105
  42   2.0000      -0.567322       -15.4376
  43   2.0000      -0.556154       -15.1337
  44   2.0000      -0.532059       -14.4781
  45   2.0000      -0.521039       -14.1782
  46   2.0000      -0.519305       -14.1310
  47   2.0000      -0.518929       -14.1208
  48   2.0000      -0.510948       -13.9036
  49   2.0000      -0.503810       -13.7094
  50   2.0000      -0.496620       -13.5137
  51   2.0000      -0.482366       -13.1259
  52   2.0000      -0.471359       -12.8263
  53   2.0000      -0.463399       -12.6097
  54   2.0000      -0.455732       -12.4011
  55   2.0000      -0.448237       -12.1972
  56   2.0000      -0.439543       -11.9606
  57   2.0000      -0.437982       -11.9181
  58   2.0000      -0.432226       -11.7615
  59   2.0000      -0.423596       -11.5266
  60   2.0000      -0.422948       -11.5090
  61   2.0000      -0.413158       -11.2426
  62   2.0000      -0.407421       -11.0865
  63   2.0000      -0.350108        -9.5269
  64   2.0000      -0.332874        -9.0579
  65   2.0000      -0.327972        -8.9246
  66   2.0000      -0.297199        -8.0872
  67   0.0000       0.026855         0.7307
  68   0.0000       0.071138         1.9358
  69   0.0000       0.109540         2.9807
  70   0.0000       0.123082         3.3492
  71   0.0000       0.129001         3.5103

MULLIKEN ATOMIC CHARGES
-----------------------
   0 S :    0.104270
   1 C :   -0.108491
   2 C :   -0.084036
   3 C :    0.047804
   4 C :   -0.120242
   5 H :   -0.024468
   6 C :    0.059783
   7 H :    0.022928
   8 H :    0.022835
   9 C :   -0.072014
  10 H :    0.030937
  11 H :    0.024696
  12 C :   -0.041918
  13 H :    0.027312
  14 H :    0.035010
  15 H :    0.037745
  16 S :    0.086906
  17 C :   -0.051830
  18 C :   -0.051814
  19 C :   -0.051022
  20 C :   -0.165366
  21 H :    0.022713
  22 C :    0.039548
  23 H :    0.017812
  24 H :    0.022487
  25 C :   -0.011349
  26 H :    0.020957
  27 H :    0.027691
  28 C :   -0.088238
  29 H :    0.051417
  30 H :    0.037697
  31 H :    0.046219
  32 H :    0.044690
  33 H :    0.039331
Sum of atomic charges:    0.0000000

LOEWDIN ATOMIC CHARGES
----------------------
   0 S :    0.374907
   1 C :   -0.180287
   2 C :   -0.060977
   3 C :   -0.052116
   4 C :   -0.179141
   5 H :    0.024916
   6 C :   -0.042851
   7 H :    0.036295
   8 H :    0.028974
   9 C :   -0.040930
  10 H :    0.028776
  11 H :    0.021480
  12 C :   -0.061580
  13 H :    0.023013
  14 H :    0.016866
  15 H :    0.035057
  16 S :    0.382953
  17 C :   -0.177546
  18 C :   -0.081006
  19 C :   -0.048986
  20 C :   -0.185253
  21 H :    0.035937
  22 C :   -0.039787
  23 H :    0.026631
  24 H :    0.032881
  25 C :   -0.042725
  26 H :    0.022130
  27 H :    0.027858
  28 C :   -0.078274
  29 H :    0.039391
  30 H :    0.027560
  31 H :    0.030766
  32 H :    0.026853
  33 H :    0.028215

  Mayer bond orders larger than 0.100000
B(  0-S ,  1-C ) :   1.1208 B(  0-S ,  4-C ) :   1.1210 B(  1-C ,  2-C ) :   1.6401
B(  1-C , 32-H ) :   0.9703 B(  2-C ,  3-C ) :   1.1875 B(  2-C ,  6-C ) :   1.0392
B(  3-C ,  4-C ) :   1.6214 B(  3-C ,  5-H ) :   1.0096 B(  4-C , 20-C ) :   1.0397
B(  6-C ,  7-H ) :   0.9327 B(  6-C ,  8-H ) :   0.9410 B(  6-C ,  9-C ) :   1.0493
B(  9-C , 10-H ) :   0.9555 B(  9-C , 11-H ) :   0.9622 B(  9-C , 12-C ) :   1.0820
B( 12-C , 13-H ) :   0.9775 B( 12-C , 14-H ) :   0.9776 B( 12-C , 15-H ) :   0.9739
B( 16-S , 17-C ) :   1.1326 B( 16-S , 20-C ) :   1.1297 B( 17-C , 18-C ) :   1.6658
B( 17-C , 33-H ) :   0.9620 B( 18-C , 19-C ) :   1.2227 B( 18-C , 21-H ) :   0.9824
B( 19-C , 20-C ) :   1.5841 B( 19-C , 22-C ) :   1.0437 B( 22-C , 23-H ) :   0.9275
B( 22-C , 24-H ) :   0.9313 B( 22-C , 25-C ) :   1.0568 B( 25-C , 26-H ) :   0.9489
B( 25-C , 27-H ) :   0.9496 B( 25-C , 28-C ) :   1.0690 B( 28-C , 29-H ) :   0.9736
B( 28-C , 30-H ) :   0.9744 B( 28-C , 31-H ) :   0.9743

Dispersion correction           -0.014034066
FINAL SINGLE POINT ENERGY     -1339.871496645435

DIPOLE MOMENT
-------------
                                X             Y             Z
Electronic contribution:     24.30748      -9.38656      13.95501
Nuclear contribution   :    -24.80225       9.44646     -14.44555
                        -----------------------------------------
Total Dipole Moment    :     -0.49478       0.05989      -0.49054
                        -----------------------------------------
Magnitude (a.u.)       :      0.69930
Magnitude (Debye)      :      1.77747

Rotational constants in cm-1:     0.017597     0.008450     0.006378
Rotational constants in MHz :   527.552073   253.310637   191.208645

                             ****ORCA TERMINATED NORMALLY****
TOTAL RUN TIME: 0 days 0 hours 0 minutes 21 seconds 330 msec
