                         Program Version 4.2.1 -  RELEASE  -
|  1> ! wB97X-D3 SP def2-SVP
|  2> %pal
|  3> nprocs 24
|  4> end
|  5>
|  6> * xyz 0 1
|  7> S 	 -64.4974 	 8.99924 	 18.6495
|  8> C 	 -64.1006 	 10.5583 	 19.3581
|  9> C 	 -63.7506 	 10.4639 	 20.6665
| 10> C 	 -63.6697 	 9.08017 	 21.0899
| 11> C 	 -64.2054 	 8.23622 	 20.1552
| 12> H 	 -63.4109 	 8.67725 	 22.1263
| 13> C 	 -63.5116 	 11.6562 	 21.6175
| 14> H 	 -64.3306 	 11.7462 	 22.2901
| 15> H 	 -63.4418 	 12.5831 	 21.0494
| 16> C 	 -62.1893 	 11.6192 	 22.3677
| 17> H 	 -62.0325 	 10.8016 	 22.9848
| 18> H 	 -61.4119 	 11.4944 	 21.6775
| 19> C 	 -61.8833 	 12.8052 	 23.35
| 20> H 	 -60.967 	 12.5693 	 23.9122
| 21> H 	 -61.6545 	 13.801 	 22.9302
| 22> H 	 -62.6508 	 12.9733 	 24.1049
| 23> S 	 -66.4002 	 6.56044 	 20.325
| 24> C 	 -66.2673 	 5.02928 	 21.1073
| 25> C 	 -64.9817 	 4.79576 	 21.4699
| 26> C 	 -64.097 	 5.89504 	 21.1945
| 27> C 	 -64.6793 	 6.87662 	 20.4571
| 28> H 	 -64.8282 	 3.8233 	 21.9734
| 29> C 	 -62.6188 	 5.83006 	 21.4386
| 30> H 	 -62.5237 	 5.65135 	 22.4803
| 31> H 	 -62.2527 	 6.83031 	 21.3598
| 32> C 	 -61.8569 	 4.84426 	 20.5669
| 33> H 	 -62.0287 	 5.0977 	 19.4987
| 34> H 	 -62.3018 	 3.92876 	 20.7886
| 35> C 	 -60.3805 	 4.99416 	 20.7753
| 36> H 	 -59.7051 	 4.47229 	 20.0498
| 37> H 	 -59.9456 	 4.6439 	 21.6848
| 38> H 	 -59.947 	 6.02509 	 20.5905
| 39> H 	 -64.0686 	 11.4853 	 18.833
| 40> H 	 -67.1819 	 4.37712 	 21.4112
| 41> *
| 42>
| 43>                          ****END OF INPUT****

CARTESIAN COORDINATES (ANGSTROEM)
---------------------------------
  S    -64.497400    8.999240   18.649500
  C    -64.100600   10.558300   19.358100
  C    -63.750600   10.463900   20.666500
  C    -63.669700    9.080170   21.089900
  C    -64.205400    8.236220   20.155200
  H    -63.410900    8.677250   22.126300
  C    -63.511600   11.656200   21.617500
  H    -64.330600   11.746200   22.290100
  H    -63.441800   12.583100   21.049400
  C    -62.189300   11.619200   22.367700
  H    -62.032500   10.801600   22.984800
  H    -61.411900   11.494400   21.677500
  C    -61.883300   12.805200   23.350000
  H    -60.967000   12.569300   23.912200
  H    -61.654500   13.801000   22.930200
  H    -62.650800   12.973300   24.104900
  S    -66.400200    6.560440   20.325000
  C    -66.267300    5.029280   21.107300
  C    -64.981700    4.795760   21.469900
  C    -64.097000    5.895040   21.194500
  C    -64.679300    6.876620   20.457100
  H    -64.828200    3.823300   21.973400
  C    -62.618800    5.830060   21.438600
  H    -62.523700    5.651350   22.480300
  H    -62.252700    6.830310   21.359800
  C    -61.856900    4.844260   20.566900
  H    -62.028700    5.097700   19.498700
  H    -62.301800    3.928760   20.788600
  C    -60.380500    4.994160   20.775300
  H    -59.705100    4.472290   20.049800
  H    -59.945600    4.643900   21.684800
  H    -59.947000    6.025090   20.590500
  H    -64.068600   11.485300   18.833000
  H    -67.181900    4.377120   21.411200

 Total Charge           Charge          ....    0
 Multiplicity           Mult            ....    1
 Number of Electrons    NEL             ....  134
 Basis Dimension        Dim             ....  322

ORBITAL ENERGIES
----------------

  NO   OCC          E(Eh)            E(eV)
   0   2.0000     -88.967451     -2420.9274
   1   2.0000     -88.959381     -2420.7078
   2   2.0000     -10.327401      -281.0229
   3   2.0000     -10.322378      -280.8862
   4   2.0000     -10.319217      -280.8002
   5   2.0000     -10.310001      -280.5494
   6   2.0000     -10.303930      -280.3842
   7   2.0000     -10.299390      -280.2606
   8   2.0000     -10.297190      -280.2008
   9   2.0000     -10.293151      -280.0909
  10   2.0000     -10.292569      -280.0750
  11   2.0000     -10.283254      -279.8216
  12   2.0000     -10.282884      -279.8115
  13   2.0000     -10.279540      -279.7205
  14   2.0000     -10.279004      -279.7059
  15   2.0000     -10.277884      -279.6754
  16   2.0000      -8.082762      -219.9431
  17   2.0000      -8.074982      -219.7314
  18   2.0000      -6.041271      -164.3914
  19   2.0000      -6.037282      -164.2828
  20   2.0000      -6.033496      -164.1798
  21   2.0000      -6.033406      -164.1773
  22   2.0000      -6.029345      -164.0668
  23   2.0000      -6.025680      -163.9671
  24   2.0000      -1.013241       -27.5717
  25   2.0000      -0.990094       -26.9418
  26   2.0000      -0.915276       -24.9059
  27   2.0000      -0.911727       -24.8094
  28   2.0000      -0.872158       -23.7326
  29   2.0000      -0.852265       -23.1913
  30   2.0000      -0.843753       -22.9597
  31   2.0000      -0.816092       -22.2070
  32   2.0000      -0.785267       -21.3682
  33   2.0000      -0.774643       -21.0791
  34   2.0000      -0.713569       -19.4172
  35   2.0000      -0.707381       -19.2488
  36   2.0000      -0.694610       -18.9013
  37   2.0000      -0.656046       -17.8519
  38   2.0000      -0.639793       -17.4097
  39   2.0000      -0.618482       -16.8297
  40   2.0000      -0.594376       -16.1738
  41   2.0000      -0.572288       -15.5727
  42   2.0000      -0.569276       -15.4908
  43   2.0000      -0.562649       -15.3105
  44   2.0000      -0.526462       -14.3258
  45   2.0000      -0.519790       -14.1442
  46   2.0000      -0.514389       -13.9972
  47   2.0000      -0.514060       -13.9883
  48   2.0000      -0.505208       -13.7474
  49   2.0000      -0.497163       -13.5285
  50   2.0000      -0.491856       -13.3841
  51   2.0000      -0.479522       -13.0485
  52   2.0000      -0.468684       -12.7535
  53   2.0000      -0.467866       -12.7313
  54   2.0000      -0.463691       -12.6177
  55   2.0000      -0.449330       -12.2269
  56   2.0000      -0.444313       -12.0904
  57   2.0000      -0.438930       -11.9439
  58   2.0000      -0.427315       -11.6278
  59   2.0000      -0.424768       -11.5585
  60   2.0000      -0.421529       -11.4704
  61   2.0000      -0.420833       -11.4514
  62   2.0000      -0.410970       -11.1831
  63   2.0000      -0.352380        -9.5888
  64   2.0000      -0.333058        -9.0630
  65   2.0000      -0.327653        -8.9159
  66   2.0000      -0.295737        -8.0474
  67   0.0000       0.038001         1.0341
  68   0.0000       0.073284         1.9942
  69   0.0000       0.122799         3.3415
  70   0.0000       0.123722         3.3667
  71   0.0000       0.129268         3.5176

MULLIKEN ATOMIC CHARGES
-----------------------
   0 S :    0.117836
   1 C :   -0.110752
   2 C :   -0.096363
   3 C :    0.009750
   4 C :   -0.173220
   5 H :    0.048504
   6 C :    0.119702
   7 H :    0.032913
   8 H :    0.015180
   9 C :   -0.058181
  10 H :    0.009772
  11 H :    0.013895
  12 C :   -0.073946
  13 H :    0.030369
  14 H :    0.032025
  15 H :    0.031346
  16 S :    0.095092
  17 C :   -0.132077
  18 C :   -0.048621
  19 C :   -0.076602
  20 C :   -0.107480
  21 H :    0.029106
  22 C :    0.089992
  23 H :    0.008465
  24 H :   -0.007972
  25 C :    0.015696
  26 H :    0.036487
  27 H :    0.013265
  28 C :   -0.069598
  29 H :    0.023716
  30 H :    0.020982
  31 H :    0.033978
  32 H :    0.033707
  33 H :    0.093034
Sum of atomic charges:    0.0000000

LOEWDIN ATOMIC CHARGES
----------------------
   0 S :    0.414194
   1 C :   -0.191854
   2 C :   -0.057852
   3 C :   -0.070491
   4 C :   -0.202793
   5 H :    0.043560
   6 C :   -0.019797
   7 H :    0.028573
   8 H :    0.031457
   9 C :   -0.036537
  10 H :    0.014585
  11 H :    0.020560
  12 C :   -0.069505
  13 H :    0.029996
  14 H :    0.023106
  15 H :    0.023722
  16 S :    0.404871
  17 C :   -0.205261
  18 C :   -0.086447
  19 C :   -0.060559
  20 C :   -0.195624
  21 H :    0.037923
  22 C :   -0.029346
  23 H :    0.025012
  24 H :    0.021664
  25 C :   -0.028562
  26 H :    0.036833
  27 H :    0.017597
  28 C :   -0.078577
  29 H :    0.029545
  30 H :    0.017847
  31 H :    0.034591
  32 H :    0.023689
  33 H :    0.053882

  Mayer bond orders larger than 0.100000
B(  0-S ,  1-C ) :   1.1134 B(  0-S ,  4-C ) :   1.1594 B(  1-C ,  2-C ) :   1.6630
B(  1-C , 32-H ) :   0.9690 B(  2-C ,  3-C ) :   1.2151 B(  2-C ,  6-C ) :   1.0203
B(  3-C ,  4-C ) :   1.5995 B(  3-C ,  5-H ) :   0.9725 B(  4-C , 20-C ) :   1.0027
B(  6-C ,  7-H ) :   0.9384 B(  6-C ,  8-H ) :   0.9433 B(  6-C ,  9-C ) :   1.0575
B(  9-C , 10-H ) :   0.9534 B(  9-C , 11-H ) :   0.9555 B(  9-C , 12-C ) :   1.0806
B( 12-C , 13-H ) :   0.9754 B( 12-C , 14-H ) :   0.9779 B( 12-C , 15-H ) :   0.9759
B( 16-S , 17-C ) :   1.1593 B( 16-S , 20-C ) :   1.1320 B( 17-C , 18-C ) :   1.6324
B( 17-C , 33-H ) :   0.9515 B( 18-C , 19-C ) :   1.2028 B( 18-C , 21-H ) :   0.9901
B( 19-C , 20-C ) :   1.6281 B( 19-C , 22-C ) :   1.0573 B( 22-C , 23-H ) :   0.9189
B( 22-C , 24-H ) :   0.9258 B( 22-C , 25-C ) :   1.0629 B( 25-C , 26-H ) :   0.9515
B( 25-C , 27-H ) :   0.9546 B( 25-C , 28-C ) :   1.0823 B( 28-C , 29-H ) :   0.9713
B( 28-C , 30-H ) :   0.9757 B( 28-C , 31-H ) :   0.9710

Dispersion correction           -0.013724349
FINAL SINGLE POINT ENERGY     -1339.866883828038

DIPOLE MOMENT
-------------
                                X             Y             Z
Electronic contribution:    -23.42434      -6.42312     -14.95563
Nuclear contribution   :     23.80180       6.48577      15.52674
                        -----------------------------------------
Total Dipole Moment    :      0.37747       0.06265       0.57111
                        -----------------------------------------
Magnitude (a.u.)       :      0.68744
Magnitude (Debye)      :      1.74734

Rotational constants in cm-1:     0.016928     0.008310     0.006808
Rotational constants in MHz :   507.503216   249.132660   204.107717

                             ****ORCA TERMINATED NORMALLY****
TOTAL RUN TIME: 0 days 0 hours 0 minutes 21 seconds 279 msec
