                         Program Version 4.2.1 -  RELEASE  -
|  1> ! wB97X-D3 SP def2-SVP
|  2> %pal
|  3> nprocs 24
|  4> end
|  5>
|  6> * xyz 0 1
|  7> S 	 -41.5426 	 5.97193 	 0.955611
|  8> C 	 -41.551 	 4.77601 	 -0.329103
|  9> C 	 -40.3354 	 4.11962 	 -0.340736
| 10> C 	 -39.3872 	 4.66491 	 0.572305
| 11> C 	 -39.8431 	 5.65307 	 1.32481
| 12> H 	 -38.3665 	 4.34545 	 0.675246
| 13> C 	 -39.9442 	 2.96672 	 -1.28693
| 14> H 	 -39.0501 	 3.29596 	 -1.73841
| 15> H 	 -40.8778 	 2.78884 	 -1.97962
| 16> C 	 -39.6339 	 1.61626 	 -0.649889
| 17> H 	 -38.8869 	 1.78944 	 0.0323934
| 18> H 	 -40.4832 	 1.35712 	 0.0106912
| 19> C 	 -39.3669 	 0.398919 	 -1.51755
| 20> H 	 -38.5821 	 0.56788 	 -2.23284
| 21> H 	 -39.1176 	 -0.424653 	 -0.869444
| 22> H 	 -40.3888 	 0.194713 	 -1.97715
| 23> S 	 -37.4134 	 6.77208 	 2.10369
| 24> C 	 -37.2021 	 7.33367 	 3.71557
| 25> C 	 -38.3903 	 7.24232 	 4.45917
| 26> C 	 -39.4778 	 6.64324 	 3.73347
| 27> C 	 -39.0802 	 6.27958 	 2.43769
| 28> H 	 -38.4265 	 7.64319 	 5.48422
| 29> C 	 -40.7681 	 6.1908 	 4.36252
| 30> H 	 -41.5381 	 6.02388 	 3.6174
| 31> H 	 -41.1483 	 6.9919 	 5.0703
| 32> C 	 -40.7114 	 4.7881 	 5.0297
| 33> H 	 -41.6899 	 4.51521 	 5.50264
| 34> H 	 -39.9792 	 4.77289 	 5.85981
| 35> C 	 -40.2888 	 3.58112 	 4.13829
| 36> H 	 -40.7209 	 3.71323 	 3.13663
| 37> H 	 -40.7143 	 2.64503 	 4.51446
| 38> H 	 -39.1926 	 3.53333 	 3.95981
| 39> H 	 -42.4338 	 4.64901 	 -1.06481
| 40> H 	 -36.2767 	 7.74062 	 4.12834
| 41> *
| 42>
| 43>                          ****END OF INPUT****

CARTESIAN COORDINATES (ANGSTROEM)
---------------------------------
  S    -41.542600    5.971930    0.955611
  C    -41.551000    4.776010   -0.329103
  C    -40.335400    4.119620   -0.340736
  C    -39.387200    4.664910    0.572305
  C    -39.843100    5.653070    1.324810
  H    -38.366500    4.345450    0.675246
  C    -39.944200    2.966720   -1.286930
  H    -39.050100    3.295960   -1.738410
  H    -40.877800    2.788840   -1.979620
  C    -39.633900    1.616260   -0.649889
  H    -38.886900    1.789440    0.032393
  H    -40.483200    1.357120    0.010691
  C    -39.366900    0.398919   -1.517550
  H    -38.582100    0.567880   -2.232840
  H    -39.117600   -0.424653   -0.869444
  H    -40.388800    0.194713   -1.977150
  S    -37.413400    6.772080    2.103690
  C    -37.202100    7.333670    3.715570
  C    -38.390300    7.242320    4.459170
  C    -39.477800    6.643240    3.733470
  C    -39.080200    6.279580    2.437690
  H    -38.426500    7.643190    5.484220
  C    -40.768100    6.190800    4.362520
  H    -41.538100    6.023880    3.617400
  H    -41.148300    6.991900    5.070300
  C    -40.711400    4.788100    5.029700
  H    -41.689900    4.515210    5.502640
  H    -39.979200    4.772890    5.859810
  C    -40.288800    3.581120    4.138290
  H    -40.720900    3.713230    3.136630
  H    -40.714300    2.645030    4.514460
  H    -39.192600    3.533330    3.959810
  H    -42.433800    4.649010   -1.064810
  H    -36.276700    7.740620    4.128340

 Total Charge           Charge          ....    0
 Multiplicity           Mult            ....    1
 Number of Electrons    NEL             ....  134
 Basis Dimension        Dim             ....  322

ORBITAL ENERGIES
----------------

  NO   OCC          E(Eh)            E(eV)
   0   2.0000     -88.970975     -2421.0233
   1   2.0000     -88.966185     -2420.8930
   2   2.0000     -10.332420      -281.1594
   3   2.0000     -10.329210      -281.0721
   4   2.0000     -10.325063      -280.9593
   5   2.0000     -10.320301      -280.8297
   6   2.0000     -10.306921      -280.4656
   7   2.0000     -10.304429      -280.3978
   8   2.0000     -10.300102      -280.2800
   9   2.0000     -10.297509      -280.2095
  10   2.0000     -10.295249      -280.1480
  11   2.0000     -10.289197      -279.9833
  12   2.0000     -10.288063      -279.9524
  13   2.0000     -10.282563      -279.8028
  14   2.0000     -10.276796      -279.6458
  15   2.0000     -10.273969      -279.5689
  16   2.0000      -8.085495      -220.0175
  17   2.0000      -8.080336      -219.8771
  18   2.0000      -6.043928      -164.4636
  19   2.0000      -6.039979      -164.3562
  20   2.0000      -6.039019      -164.3301
  21   2.0000      -6.036421      -164.2594
  22   2.0000      -6.034896      -164.2179
  23   2.0000      -6.030953      -164.1106
  24   2.0000      -1.008882       -27.4531
  25   2.0000      -0.986100       -26.8331
  26   2.0000      -0.911909       -24.8143
  27   2.0000      -0.903034       -24.5728
  28   2.0000      -0.870088       -23.6763
  29   2.0000      -0.851809       -23.1789
  30   2.0000      -0.842948       -22.9378
  31   2.0000      -0.814246       -22.1568
  32   2.0000      -0.781840       -21.2749
  33   2.0000      -0.771581       -20.9958
  34   2.0000      -0.701338       -19.0844
  35   2.0000      -0.693882       -18.8815
  36   2.0000      -0.685539       -18.6545
  37   2.0000      -0.662714       -18.0334
  38   2.0000      -0.637669       -17.3518
  39   2.0000      -0.620246       -16.8777
  40   2.0000      -0.594304       -16.1718
  41   2.0000      -0.575409       -15.6577
  42   2.0000      -0.561040       -15.2667
  43   2.0000      -0.546295       -14.8654
  44   2.0000      -0.540581       -14.7099
  45   2.0000      -0.524744       -14.2790
  46   2.0000      -0.517686       -14.0870
  47   2.0000      -0.506689       -13.7877
  48   2.0000      -0.503684       -13.7059
  49   2.0000      -0.498282       -13.5589
  50   2.0000      -0.488377       -13.2894
  51   2.0000      -0.479209       -13.0399
  52   2.0000      -0.470098       -12.7920
  53   2.0000      -0.463723       -12.6185
  54   2.0000      -0.461946       -12.5702
  55   2.0000      -0.452715       -12.3190
  56   2.0000      -0.442146       -12.0314
  57   2.0000      -0.439781       -11.9671
  58   2.0000      -0.427879       -11.6432
  59   2.0000      -0.418400       -11.3852
  60   2.0000      -0.416279       -11.3275
  61   2.0000      -0.415494       -11.3062
  62   2.0000      -0.403856       -10.9895
  63   2.0000      -0.355724        -9.6797
  64   2.0000      -0.333563        -9.0767
  65   2.0000      -0.330543        -8.9945
  66   2.0000      -0.291543        -7.9333
  67   0.0000       0.028314         0.7705
  68   0.0000       0.074244         2.0203
  69   0.0000       0.110742         3.0134
  70   0.0000       0.114315         3.1107
  71   0.0000       0.124824         3.3966

MULLIKEN ATOMIC CHARGES
-----------------------
   0 S :    0.095964
   1 C :   -0.171005
   2 C :   -0.061217
   3 C :   -0.010351
   4 C :   -0.091097
   5 H :    0.010685
   6 C :    0.072454
   7 H :    0.021920
   8 H :    0.029466
   9 C :   -0.086076
  10 H :   -0.003467
  11 H :    0.020190
  12 C :   -0.022239
  13 H :    0.034200
  14 H :    0.037847
  15 H :    0.039119
  16 S :    0.117829
  17 C :   -0.100436
  18 C :   -0.052164
  19 C :   -0.027783
  20 C :   -0.174686
  21 H :    0.030397
  22 C :    0.057222
  23 H :    0.018479
  24 H :    0.041426
  25 C :   -0.086221
  26 H :    0.036994
  27 H :    0.024809
  28 C :   -0.066678
  29 H :    0.028711
  30 H :    0.036358
  31 H :    0.047624
  32 H :    0.088121
  33 H :    0.063608
Sum of atomic charges:   -0.0000000

LOEWDIN ATOMIC CHARGES
----------------------
   0 S :    0.396867
   1 C :   -0.207178
   2 C :   -0.063591
   3 C :   -0.070340
   4 C :   -0.180017
   5 H :    0.028134
   6 C :   -0.027505
   7 H :    0.023807
   8 H :    0.037269
   9 C :   -0.049287
  10 H :    0.005714
  11 H :    0.026950
  12 C :   -0.057591
  13 H :    0.021403
  14 H :    0.029290
  15 H :    0.035324
  16 S :    0.418922
  17 C :   -0.201151
  18 C :   -0.071130
  19 C :   -0.061130
  20 C :   -0.186150
  21 H :    0.036244
  22 C :   -0.041100
  23 H :    0.016574
  24 H :    0.040314
  25 C :   -0.042431
  26 H :    0.028260
  27 H :    0.019698
  28 C :   -0.072479
  29 H :    0.023522
  30 H :    0.028079
  31 H :    0.029505
  32 H :    0.051841
  33 H :    0.033365

  Mayer bond orders larger than 0.100000
B(  0-S ,  1-C ) :   1.1250 B(  0-S ,  4-C ) :   1.1273 B(  1-C ,  2-C ) :   1.6287
B(  1-C , 32-H ) :   0.9564 B(  2-C ,  3-C ) :   1.2155 B(  2-C ,  6-C ) :   1.0230
B(  3-C ,  4-C ) :   1.6031 B(  3-C ,  5-H ) :   0.9975 B(  4-C , 20-C ) :   1.0225
B(  6-C ,  7-H ) :   0.9341 B(  6-C ,  8-H ) :   0.9440 B(  6-C ,  9-C ) :   1.0687
B(  9-C , 10-H ) :   0.9498 B(  9-C , 11-H ) :   0.9512 B(  9-C , 12-C ) :   1.0888
B( 12-C , 13-H ) :   0.9755 B( 12-C , 14-H ) :   0.9710 B( 12-C , 15-H ) :   0.9753
B( 16-S , 17-C ) :   1.1616 B( 16-S , 20-C ) :   1.1527 B( 17-C , 18-C ) :   1.5953
B( 17-C , 20-C ) :   0.1011 B( 17-C , 33-H ) :   0.9669 B( 18-C , 19-C ) :   1.2437
B( 18-C , 21-H ) :   0.9866 B( 19-C , 20-C ) :   1.5668 B( 19-C , 22-C ) :   1.0601
B( 22-C , 23-H ) :   0.9298 B( 22-C , 24-H ) :   0.9316 B( 22-C , 25-C ) :   1.0619
B( 25-C , 26-H ) :   0.9596 B( 25-C , 27-H ) :   0.9579 B( 25-C , 28-C ) :   1.0708
B( 28-C , 29-H ) :   0.9748 B( 28-C , 30-H ) :   0.9738 B( 28-C , 31-H ) :   0.9737

Dispersion correction           -0.015619252
FINAL SINGLE POINT ENERGY     -1339.881554909133

DIPOLE MOMENT
-------------
                                X             Y             Z
Electronic contribution:      3.74662      23.33116      -0.47335
Nuclear contribution   :     -3.67306     -23.73406       0.58264
                        -----------------------------------------
Total Dipole Moment    :      0.07356      -0.40290       0.10929
                        -----------------------------------------
Magnitude (a.u.)       :      0.42390
Magnitude (Debye)      :      1.07746

Rotational constants in cm-1:     0.020412     0.008232     0.007787
Rotational constants in MHz :   611.945189   246.796256   233.449865

                             ****ORCA TERMINATED NORMALLY****
TOTAL RUN TIME: 0 days 0 hours 0 minutes 23 seconds 487 msec
