                         Program Version 4.2.1 -  RELEASE  -
|  1> ! wB97X-D3 SP def2-SVP
|  2> %pal
|  3> nprocs 24
|  4> end
|  5>
|  6> * xyz 0 1
|  7> S 	 -139.917 	 8.30881 	 8.10079
|  8> C 	 -140.701 	 8.89429 	 6.64458
|  9> C 	 -140.492 	 10.2325 	 6.41075
| 10> C 	 -140.051 	 10.8942 	 7.59948
| 11> C 	 -139.694 	 10.005 	 8.58427
| 12> H 	 -139.834 	 11.9343 	 7.70334
| 13> C 	 -140.703 	 10.9471 	 5.14558
| 14> H 	 -140.949 	 10.18 	 4.45779
| 15> H 	 -139.837 	 11.3605 	 4.70981
| 16> C 	 -141.761 	 11.9775 	 5.22802
| 17> H 	 -142.599 	 11.5902 	 5.71143
| 18> H 	 -141.517 	 12.8293 	 5.8416
| 19> C 	 -142.218 	 12.3663 	 3.75779
| 20> H 	 -142.518 	 11.4801 	 3.1844
| 21> H 	 -143.118 	 12.8769 	 3.85707
| 22> H 	 -141.505 	 12.7888 	 3.03493
| 23> S 	 -138.099 	 9.43407 	 10.7602
| 24> C 	 -138.375 	 10.2017 	 12.2879
| 25> C 	 -139.133 	 11.3566 	 12.0631
| 26> C 	 -139.71 	 11.4093 	 10.7547
| 27> C 	 -139.329 	 10.4092 	 9.93982
| 28> H 	 -139.117 	 12.1399 	 12.7869
| 29> C 	 -140.819 	 12.4331 	 10.6231
| 30> H 	 -140.514 	 12.8663 	 9.59124
| 31> H 	 -140.727 	 13.3088 	 11.2395
| 32> C 	 -142.245 	 11.8636 	 10.6595
| 33> H 	 -142.382 	 11.4659 	 11.6716
| 34> H 	 -142.194 	 10.9368 	 10.1122
| 35> C 	 -143.485 	 12.7531 	 10.2016
| 36> H 	 -144.44 	 12.3899 	 10.6443
| 37> H 	 -143.646 	 12.6854 	 9.11408
| 38> H 	 -143.322 	 13.7781 	 10.4628
| 39> H 	 -141.048 	 8.33618 	 5.84222
| 40> H 	 -137.904 	 9.96781 	 13.1686
| 41> *
| 42>
| 43>                          ****END OF INPUT****

CARTESIAN COORDINATES (ANGSTROEM)
---------------------------------
  S    -139.917000    8.308810    8.100790
  C    -140.701000    8.894290    6.644580
  C    -140.492000   10.232500    6.410750
  C    -140.051000   10.894200    7.599480
  C    -139.694000   10.005000    8.584270
  H    -139.834000   11.934300    7.703340
  C    -140.703000   10.947100    5.145580
  H    -140.949000   10.180000    4.457790
  H    -139.837000   11.360500    4.709810
  C    -141.761000   11.977500    5.228020
  H    -142.599000   11.590200    5.711430
  H    -141.517000   12.829300    5.841600
  C    -142.218000   12.366300    3.757790
  H    -142.518000   11.480100    3.184400
  H    -143.118000   12.876900    3.857070
  H    -141.505000   12.788800    3.034930
  S    -138.099000    9.434070   10.760200
  C    -138.375000   10.201700   12.287900
  C    -139.133000   11.356600   12.063100
  C    -139.710000   11.409300   10.754700
  C    -139.329000   10.409200    9.939820
  H    -139.117000   12.139900   12.786900
  C    -140.819000   12.433100   10.623100
  H    -140.514000   12.866300    9.591240
  H    -140.727000   13.308800   11.239500
  C    -142.245000   11.863600   10.659500
  H    -142.382000   11.465900   11.671600
  H    -142.194000   10.936800   10.112200
  C    -143.485000   12.753100   10.201600
  H    -144.440000   12.389900   10.644300
  H    -143.646000   12.685400    9.114080
  H    -143.322000   13.778100   10.462800
  H    -141.048000    8.336180    5.842220
  H    -137.904000    9.967810   13.168600

 Total Charge           Charge          ....    0
 Multiplicity           Mult            ....    1
 Number of Electrons    NEL             ....  134
 Basis Dimension        Dim             ....  322

ORBITAL ENERGIES
----------------

  NO   OCC          E(Eh)            E(eV)
   0   2.0000     -88.970624     -2421.0138
   1   2.0000     -88.960989     -2420.7516
   2   2.0000     -10.331152      -281.1249
   3   2.0000     -10.325344      -280.9669
   4   2.0000     -10.311756      -280.5972
   5   2.0000     -10.307602      -280.4841
   6   2.0000     -10.298987      -280.2497
   7   2.0000     -10.295790      -280.1627
   8   2.0000     -10.295096      -280.1438
   9   2.0000     -10.290811      -280.0272
  10   2.0000     -10.290548      -280.0200
  11   2.0000     -10.285492      -279.8825
  12   2.0000     -10.284073      -279.8439
  13   2.0000     -10.283024      -279.8153
  14   2.0000     -10.278800      -279.7004
  15   2.0000     -10.278140      -279.6824
  16   2.0000      -8.084575      -219.9925
  17   2.0000      -8.076024      -219.7598
  18   2.0000      -6.043215      -164.4442
  19   2.0000      -6.039467      -164.3423
  20   2.0000      -6.034950      -164.2193
  21   2.0000      -6.034594      -164.2097
  22   2.0000      -6.030527      -164.0990
  23   2.0000      -6.026687      -163.9945
  24   2.0000      -1.008724       -27.4488
  25   2.0000      -0.987220       -26.8636
  26   2.0000      -0.924067       -25.1451
  27   2.0000      -0.902002       -24.5447
  28   2.0000      -0.870404       -23.6849
  29   2.0000      -0.851105       -23.1597
  30   2.0000      -0.842216       -22.9179
  31   2.0000      -0.816718       -22.2240
  32   2.0000      -0.782683       -21.2979
  33   2.0000      -0.776798       -21.1378
  34   2.0000      -0.720217       -19.5981
  35   2.0000      -0.708054       -19.2671
  36   2.0000      -0.696557       -18.9543
  37   2.0000      -0.671519       -18.2730
  38   2.0000      -0.644764       -17.5449
  39   2.0000      -0.624720       -16.9995
  40   2.0000      -0.593169       -16.1409
  41   2.0000      -0.579855       -15.7787
  42   2.0000      -0.560298       -15.2465
  43   2.0000      -0.551221       -14.9995
  44   2.0000      -0.539093       -14.6695
  45   2.0000      -0.519582       -14.1385
  46   2.0000      -0.518517       -14.1096
  47   2.0000      -0.512025       -13.9329
  48   2.0000      -0.507735       -13.8162
  49   2.0000      -0.495669       -13.4878
  50   2.0000      -0.492226       -13.3942
  51   2.0000      -0.488300       -13.2873
  52   2.0000      -0.473915       -12.8959
  53   2.0000      -0.466790       -12.7020
  54   2.0000      -0.460422       -12.5287
  55   2.0000      -0.455830       -12.4038
  56   2.0000      -0.446418       -12.1477
  57   2.0000      -0.437972       -11.9178
  58   2.0000      -0.435330       -11.8459
  59   2.0000      -0.424485       -11.5508
  60   2.0000      -0.423658       -11.5283
  61   2.0000      -0.414269       -11.2728
  62   2.0000      -0.399251       -10.8642
  63   2.0000      -0.353915        -9.6305
  64   2.0000      -0.331126        -9.0104
  65   2.0000      -0.324403        -8.8275
  66   2.0000      -0.287923        -7.8348
  67   0.0000       0.023198         0.6313
  68   0.0000       0.069927         1.9028
  69   0.0000       0.095782         2.6064
  70   0.0000       0.127358         3.4656
  71   0.0000       0.129986         3.5371

MULLIKEN ATOMIC CHARGES
-----------------------
   0 S :    0.123212
   1 C :   -0.081389
   2 C :   -0.112742
   3 C :   -0.001049
   4 C :   -0.101202
   5 H :    0.013652
   6 C :    0.142070
   7 H :   -0.015394
   8 H :    0.024047
   9 C :   -0.059308
  10 H :    0.012211
  11 H :    0.031284
  12 C :   -0.040857
  13 H :    0.014945
  14 H :    0.021007
  15 H :    0.038937
  16 S :    0.084932
  17 C :   -0.055340
  18 C :   -0.037946
  19 C :   -0.057565
  20 C :   -0.148960
  21 H :    0.015951
  22 C :    0.046925
  23 H :    0.013192
  24 H :    0.014781
  25 C :   -0.043794
  26 H :    0.020598
  27 H :    0.027055
  28 C :   -0.041531
  29 H :    0.040778
  30 H :    0.037554
  31 H :    0.031248
  32 H :    0.014252
  33 H :    0.028448
Sum of atomic charges:   -0.0000000

LOEWDIN ATOMIC CHARGES
----------------------
   0 S :    0.394330
   1 C :   -0.188004
   2 C :   -0.052174
   3 C :   -0.053570
   4 C :   -0.179937
   5 H :    0.027977
   6 C :   -0.031097
   7 H :    0.025469
   8 H :    0.030965
   9 C :   -0.026153
  10 H :    0.019464
  11 H :    0.023225
  12 C :   -0.065520
  13 H :    0.026423
  14 H :    0.017624
  15 H :    0.028501
  16 S :    0.392905
  17 C :   -0.170734
  18 C :   -0.064707
  19 C :   -0.065858
  20 C :   -0.185785
  21 H :    0.026461
  22 C :   -0.034981
  23 H :    0.030735
  24 H :    0.022859
  25 C :   -0.042406
  26 H :    0.026196
  27 H :    0.025914
  28 C :   -0.064472
  29 H :    0.033223
  30 H :    0.028249
  31 H :    0.020351
  32 H :    0.012567
  33 H :    0.011961

  Mayer bond orders larger than 0.100000
B(  0-S ,  1-C ) :   1.1199 B(  0-S ,  4-C ) :   1.1248 B(  1-C ,  2-C ) :   1.6484
B(  1-C , 32-H ) :   0.9598 B(  2-C ,  3-C ) :   1.1965 B(  2-C ,  6-C ) :   1.0423
B(  3-C ,  4-C ) :   1.6005 B(  3-C ,  5-H ) :   0.9957 B(  4-C , 20-C ) :   1.0482
B(  6-C ,  7-H ) :   0.9240 B(  6-C ,  8-H ) :   0.9274 B(  6-C ,  9-C ) :   1.0643
B(  9-C , 10-H ) :   0.9523 B(  9-C , 11-H ) :   0.9544 B(  9-C , 12-C ) :   1.0769
B( 12-C , 13-H ) :   0.9728 B( 12-C , 14-H ) :   0.9755 B( 12-C , 15-H ) :   0.9770
B( 16-S , 17-C ) :   1.1574 B( 16-S , 20-C ) :   1.1199 B( 17-C , 18-C ) :   1.6020
B( 17-C , 33-H ) :   0.9806 B( 18-C , 19-C ) :   1.2334 B( 18-C , 21-H ) :   0.9920
B( 19-C , 20-C ) :   1.6344 B( 19-C , 22-C ) :   1.0352 B( 22-C , 23-H ) :   0.9319
B( 22-C , 24-H ) :   0.9336 B( 22-C , 25-C ) :   1.0581 B( 25-C , 26-H ) :   0.9523
B( 25-C , 27-H ) :   0.9580 B( 25-C , 28-C ) :   1.0609 B( 28-C , 29-H ) :   0.9763
B( 28-C , 30-H ) :   0.9782 B( 28-C , 31-H ) :   0.9802

Dispersion correction           -0.014455023
FINAL SINGLE POINT ENERGY     -1339.843591223030

DIPOLE MOMENT
-------------
                                X             Y             Z
Electronic contribution:     20.64225     -20.31313      13.11591
Nuclear contribution   :    -20.94717      20.87091     -13.37803
                        -----------------------------------------
Total Dipole Moment    :     -0.30492       0.55779      -0.26213
                        -----------------------------------------
Magnitude (a.u.)       :      0.68761
Magnitude (Debye)      :      1.74778

Rotational constants in cm-1:     0.018811     0.009011     0.006813
Rotational constants in MHz :   563.953848   270.152078   204.256698

                             ****ORCA TERMINATED NORMALLY****
TOTAL RUN TIME: 0 days 0 hours 0 minutes 21 seconds 109 msec
