                         Program Version 4.2.1 -  RELEASE  -
|  1> ! wB97X-D3 SP def2-SVP
|  2> %pal
|  3> nprocs 24
|  4> end
|  5>
|  6> * xyz 0 1
|  7> S 	 -57.5319 	 0.928235 	 -18.2014
|  8> C 	 -57.5489 	 0.265686 	 -16.572
|  9> C 	 -58.6235 	 0.809696 	 -15.8827
| 10> C 	 -59.2709 	 1.89184 	 -16.5699
| 11> C 	 -58.8941 	 2.03323 	 -17.877
| 12> H 	 -60.0431 	 2.50484 	 -16.1531
| 13> C 	 -58.9099 	 0.306719 	 -14.476
| 14> H 	 -58.9108 	 -0.772298 	 -14.5404
| 15> H 	 -59.9019 	 0.57704 	 -14.2904
| 16> C 	 -57.8851 	 0.711081 	 -13.4395
| 17> H 	 -56.8789 	 0.581067 	 -13.82
| 18> H 	 -57.8774 	 1.78001 	 -13.2987
| 19> C 	 -58.0692 	 0.0518519 	 -11.9805
| 20> H 	 -57.3681 	 0.418432 	 -11.2936
| 21> H 	 -59.0297 	 0.41368 	 -11.5936
| 22> H 	 -57.9802 	 -1.05022 	 -12.0239
| 23> S 	 -58.2448 	 3.77837 	 -19.9562
| 24> C 	 -59.5361 	 4.59969 	 -20.7937
| 25> C 	 -60.7306 	 4.08211 	 -20.3679
| 26> C 	 -60.7174 	 3.25227 	 -19.1909
| 27> C 	 -59.3741 	 2.95908 	 -18.8607
| 28> H 	 -61.5985 	 4.46216 	 -20.8936
| 29> C 	 -61.9806 	 2.63646 	 -18.7137
| 30> H 	 -62.8029 	 3.18603 	 -19.1273
| 31> H 	 -61.9864 	 2.7946 	 -17.7118
| 32> C 	 -62.1012 	 1.11393 	 -18.947
| 33> H 	 -62.8512 	 0.696418 	 -18.2601
| 34> H 	 -61.1723 	 0.644687 	 -18.6903
| 35> C 	 -62.4664 	 0.809191 	 -20.381
| 36> H 	 -63.1906 	 1.55799 	 -20.778
| 37> H 	 -62.8292 	 -0.182284 	 -20.5513
| 38> H 	 -61.6283 	 0.776143 	 -21.0118
| 39> H 	 -56.8299 	 -0.434524 	 -16.1933
| 40> H 	 -59.4321 	 5.02096 	 -21.7999
| 41> *
| 42>
| 43>                          ****END OF INPUT****

CARTESIAN COORDINATES (ANGSTROEM)
---------------------------------
  S    -57.531900    0.928235  -18.201400
  C    -57.548900    0.265686  -16.572000
  C    -58.623500    0.809696  -15.882700
  C    -59.270900    1.891840  -16.569900
  C    -58.894100    2.033230  -17.877000
  H    -60.043100    2.504840  -16.153100
  C    -58.909900    0.306719  -14.476000
  H    -58.910800   -0.772298  -14.540400
  H    -59.901900    0.577040  -14.290400
  C    -57.885100    0.711081  -13.439500
  H    -56.878900    0.581067  -13.820000
  H    -57.877400    1.780010  -13.298700
  C    -58.069200    0.051852  -11.980500
  H    -57.368100    0.418432  -11.293600
  H    -59.029700    0.413680  -11.593600
  H    -57.980200   -1.050220  -12.023900
  S    -58.244800    3.778370  -19.956200
  C    -59.536100    4.599690  -20.793700
  C    -60.730600    4.082110  -20.367900
  C    -60.717400    3.252270  -19.190900
  C    -59.374100    2.959080  -18.860700
  H    -61.598500    4.462160  -20.893600
  C    -61.980600    2.636460  -18.713700
  H    -62.802900    3.186030  -19.127300
  H    -61.986400    2.794600  -17.711800
  C    -62.101200    1.113930  -18.947000
  H    -62.851200    0.696418  -18.260100
  H    -61.172300    0.644687  -18.690300
  C    -62.466400    0.809191  -20.381000
  H    -63.190600    1.557990  -20.778000
  H    -62.829200   -0.182284  -20.551300
  H    -61.628300    0.776143  -21.011800
  H    -56.829900   -0.434524  -16.193300
  H    -59.432100    5.020960  -21.799900

 Total Charge           Charge          ....    0
 Multiplicity           Mult            ....    1
 Number of Electrons    NEL             ....  134
 Basis Dimension        Dim             ....  322

ORBITAL ENERGIES
----------------

  NO   OCC          E(Eh)            E(eV)
   0   2.0000     -88.965802     -2420.8825
   1   2.0000     -88.964109     -2420.8365
   2   2.0000     -10.331562      -281.1361
   3   2.0000     -10.330977      -281.1202
   4   2.0000     -10.314515      -280.6722
   5   2.0000     -10.314165      -280.6627
   6   2.0000     -10.306392      -280.4512
   7   2.0000     -10.302040      -280.3328
   8   2.0000     -10.295286      -280.1490
   9   2.0000     -10.292079      -280.0617
  10   2.0000     -10.287762      -279.9442
  11   2.0000     -10.285751      -279.8895
  12   2.0000     -10.282830      -279.8100
  13   2.0000     -10.281667      -279.7784
  14   2.0000     -10.281514      -279.7742
  15   2.0000     -10.267044      -279.3805
  16   2.0000      -8.080182      -219.8729
  17   2.0000      -8.078239      -219.8201
  18   2.0000      -6.038710      -164.3216
  19   2.0000      -6.036784      -164.2692
  20   2.0000      -6.034723      -164.2132
  21   2.0000      -6.032793      -164.1606
  22   2.0000      -6.030944      -164.1103
  23   2.0000      -6.029019      -164.0580
  24   2.0000      -1.005232       -27.3537
  25   2.0000      -0.982326       -26.7305
  26   2.0000      -0.915473       -24.9113
  27   2.0000      -0.910316       -24.7710
  28   2.0000      -0.869768       -23.6676
  29   2.0000      -0.850836       -23.1524
  30   2.0000      -0.841853       -22.9080
  31   2.0000      -0.817974       -22.2582
  32   2.0000      -0.788050       -21.4439
  33   2.0000      -0.772508       -21.0210
  34   2.0000      -0.714774       -19.4500
  35   2.0000      -0.709828       -19.3154
  36   2.0000      -0.693834       -18.8802
  37   2.0000      -0.660633       -17.9767
  38   2.0000      -0.642438       -17.4816
  39   2.0000      -0.621033       -16.8992
  40   2.0000      -0.594483       -16.1767
  41   2.0000      -0.567761       -15.4496
  42   2.0000      -0.565621       -15.3913
  43   2.0000      -0.554780       -15.0963
  44   2.0000      -0.544338       -14.8122
  45   2.0000      -0.524549       -14.2737
  46   2.0000      -0.518455       -14.1079
  47   2.0000      -0.511349       -13.9145
  48   2.0000      -0.507835       -13.8189
  49   2.0000      -0.504467       -13.7272
  50   2.0000      -0.485997       -13.2246
  51   2.0000      -0.481376       -13.0989
  52   2.0000      -0.474626       -12.9152
  53   2.0000      -0.468612       -12.7516
  54   2.0000      -0.457688       -12.4543
  55   2.0000      -0.451873       -12.2961
  56   2.0000      -0.441006       -12.0004
  57   2.0000      -0.438948       -11.9444
  58   2.0000      -0.433884       -11.8066
  59   2.0000      -0.427873       -11.6430
  60   2.0000      -0.421355       -11.4656
  61   2.0000      -0.416553       -11.3350
  62   2.0000      -0.410374       -11.1668
  63   2.0000      -0.351684        -9.5698
  64   2.0000      -0.330317        -8.9884
  65   2.0000      -0.328528        -8.9397
  66   2.0000      -0.288676        -7.8553
  67   0.0000       0.017760         0.4833
  68   0.0000       0.072937         1.9847
  69   0.0000       0.108484         2.9520
  70   0.0000       0.123656         3.3649
  71   0.0000       0.135259         3.6806

MULLIKEN ATOMIC CHARGES
-----------------------
   0 S :    0.096154
   1 C :   -0.124072
   2 C :   -0.123025
   3 C :    0.033738
   4 C :   -0.150746
   5 H :    0.007542
   6 C :    0.132373
   7 H :    0.020640
   8 H :   -0.002387
   9 C :   -0.078050
  10 H :    0.017361
  11 H :    0.019289
  12 C :   -0.040175
  13 H :    0.025652
  14 H :    0.032146
  15 H :    0.042432
  16 S :    0.105125
  17 C :   -0.094298
  18 C :   -0.059722
  19 C :   -0.053672
  20 C :   -0.153651
  21 H :    0.019743
  22 C :    0.147317
  23 H :    0.011576
  24 H :   -0.012297
  25 C :   -0.054780
  26 H :    0.027688
  27 H :    0.036452
  28 C :   -0.025157
  29 H :    0.026126
  30 H :    0.019427
  31 H :    0.022130
  32 H :    0.054758
  33 H :    0.074360
Sum of atomic charges:   -0.0000000

LOEWDIN ATOMIC CHARGES
----------------------
   0 S :    0.383398
   1 C :   -0.188160
   2 C :   -0.059829
   3 C :   -0.063685
   4 C :   -0.181442
   5 H :    0.029095
   6 C :   -0.027591
   7 H :    0.031728
   8 H :    0.019466
   9 C :   -0.038293
  10 H :    0.020114
  11 H :    0.022700
  12 C :   -0.061093
  13 H :    0.019088
  14 H :    0.027227
  15 H :    0.027439
  16 S :    0.400815
  17 C :   -0.201737
  18 C :   -0.069502
  19 C :   -0.046286
  20 C :   -0.193651
  21 H :    0.029066
  22 C :   -0.021698
  23 H :    0.029258
  24 H :    0.017916
  25 C :   -0.028978
  26 H :    0.025290
  27 H :    0.026043
  28 C :   -0.065298
  29 H :    0.026576
  30 H :    0.023809
  31 H :    0.021851
  32 H :    0.028007
  33 H :    0.038357

  Mayer bond orders larger than 0.100000
B(  0-S ,  1-C ) :   1.1350 B(  0-S ,  4-C ) :   1.1320 B(  1-C ,  2-C ) :   1.5943
B(  1-C , 32-H ) :   0.9749 B(  2-C ,  3-C ) :   1.2427 B(  2-C ,  6-C ) :   1.0207
B(  3-C ,  4-C ) :   1.5701 B(  3-C ,  5-H ) :   0.9976 B(  4-C , 20-C ) :   1.0911
B(  6-C ,  7-H ) :   0.9376 B(  6-C ,  8-H ) :   0.9339 B(  6-C ,  9-C ) :   1.0607
B(  9-C , 10-H ) :   0.9584 B(  9-C , 11-H ) :   0.9536 B(  9-C , 12-C ) :   1.0702
B( 12-C , 13-H ) :   0.9765 B( 12-C , 14-H ) :   0.9772 B( 12-C , 15-H ) :   0.9789
B( 16-S , 17-C ) :   1.1423 B( 16-S , 20-C ) :   1.1498 B( 17-C , 18-C ) :   1.6323
B( 17-C , 33-H ) :   0.9558 B( 18-C , 19-C ) :   1.2516 B( 18-C , 21-H ) :   0.9794
B( 19-C , 20-C ) :   1.5351 B( 19-C , 22-C ) :   1.0517 B( 22-C , 23-H ) :   0.9313
B( 22-C , 24-H ) :   0.9031 B( 22-C , 25-C ) :   1.0779 B( 25-C , 26-H ) :   0.9557
B( 25-C , 27-H ) :   0.9543 B( 25-C , 28-C ) :   1.0753 B( 28-C , 29-H ) :   0.9763
B( 28-C , 30-H ) :   0.9700 B( 28-C , 31-H ) :   0.9729

Dispersion correction           -0.014649432
FINAL SINGLE POINT ENERGY     -1339.872117323449

DIPOLE MOMENT
-------------
                                X             Y             Z
Electronic contribution:     13.87474      10.66789     -17.09212
Nuclear contribution   :    -14.37533     -10.88097      17.41848
                        -----------------------------------------
Total Dipole Moment    :     -0.50060      -0.21308       0.32635
                        -----------------------------------------
Magnitude (a.u.)       :      0.63443
Magnitude (Debye)      :      1.61260

Rotational constants in cm-1:     0.022751     0.007506     0.006542
Rotational constants in MHz :   682.043114   225.029683   196.136261

                             ****ORCA TERMINATED NORMALLY****
TOTAL RUN TIME: 0 days 0 hours 0 minutes 20 seconds 547 msec
