                         Program Version 4.2.1 -  RELEASE  -
|  1> ! wB97X-D3 SP def2-SVP
|  2> %pal
|  3> nprocs 24
|  4> end
|  5>
|  6> * xyz 0 1
|  7> S 	 -90.044 	 -33.3149 	 -60.4505
|  8> C 	 -89.0746 	 -34.4689 	 -61.352
|  9> C 	 -87.8124 	 -34.4263 	 -60.8191
| 10> C 	 -87.5883 	 -33.3538 	 -59.8798
| 11> C 	 -88.7334 	 -32.7459 	 -59.5789
| 12> H 	 -86.7762 	 -33.0155 	 -59.3067
| 13> C 	 -86.6484 	 -35.2044 	 -61.3583
| 14> H 	 -85.7889 	 -34.8053 	 -60.8274
| 15> H 	 -86.5637 	 -34.8278 	 -62.4255
| 16> C 	 -86.6749 	 -36.682 	 -61.1661
| 17> H 	 -86.876 	 -36.9521 	 -60.1319
| 18> H 	 -87.4051 	 -37.1058 	 -61.8517
| 19> C 	 -85.3253 	 -37.3518 	 -61.6296
| 20> H 	 -85.2905 	 -38.3682 	 -61.2856
| 21> H 	 -85.2377 	 -37.3949 	 -62.6945
| 22> H 	 -84.4924 	 -36.9644 	 -61.0485
| 23> S 	 -88.605 	 -30.0146 	 -59.8315
| 24> C 	 -88.5546 	 -29.0172 	 -58.4887
| 25> C 	 -88.858 	 -29.68 	 -57.3214
| 26> C 	 -88.9666 	 -31.0698 	 -57.5223
| 27> C 	 -88.8649 	 -31.4665 	 -58.8622
| 28> H 	 -88.9731 	 -29.0779 	 -56.4603
| 29> C 	 -89.151 	 -32.0265 	 -56.4092
| 30> H 	 -89.7546 	 -32.8066 	 -56.8433
| 31> H 	 -89.8753 	 -31.6438 	 -55.7624
| 32> C 	 -87.9458 	 -32.5632 	 -55.7553
| 33> H 	 -87.5204 	 -31.959 	 -54.9455
| 34> H 	 -87.2537 	 -32.5064 	 -56.5556
| 35> C 	 -88.2093 	 -34.0311 	 -55.2914
| 36> H 	 -88.9532 	 -34.1212 	 -54.5306
| 37> H 	 -87.311 	 -34.2598 	 -54.6722
| 38> H 	 -88.4263 	 -34.7467 	 -56.1225
| 39> H 	 -89.3817 	 -35.101 	 -62.1857
| 40> H 	 -88.385 	 -27.9434 	 -58.6119
| 41> *
| 42>
| 43>                          ****END OF INPUT****

CARTESIAN COORDINATES (ANGSTROEM)
---------------------------------
  S    -90.044000  -33.314900  -60.450500
  C    -89.074600  -34.468900  -61.352000
  C    -87.812400  -34.426300  -60.819100
  C    -87.588300  -33.353800  -59.879800
  C    -88.733400  -32.745900  -59.578900
  H    -86.776200  -33.015500  -59.306700
  C    -86.648400  -35.204400  -61.358300
  H    -85.788900  -34.805300  -60.827400
  H    -86.563700  -34.827800  -62.425500
  C    -86.674900  -36.682000  -61.166100
  H    -86.876000  -36.952100  -60.131900
  H    -87.405100  -37.105800  -61.851700
  C    -85.325300  -37.351800  -61.629600
  H    -85.290500  -38.368200  -61.285600
  H    -85.237700  -37.394900  -62.694500
  H    -84.492400  -36.964400  -61.048500
  S    -88.605000  -30.014600  -59.831500
  C    -88.554600  -29.017200  -58.488700
  C    -88.858000  -29.680000  -57.321400
  C    -88.966600  -31.069800  -57.522300
  C    -88.864900  -31.466500  -58.862200
  H    -88.973100  -29.077900  -56.460300
  C    -89.151000  -32.026500  -56.409200
  H    -89.754600  -32.806600  -56.843300
  H    -89.875300  -31.643800  -55.762400
  C    -87.945800  -32.563200  -55.755300
  H    -87.520400  -31.959000  -54.945500
  H    -87.253700  -32.506400  -56.555600
  C    -88.209300  -34.031100  -55.291400
  H    -88.953200  -34.121200  -54.530600
  H    -87.311000  -34.259800  -54.672200
  H    -88.426300  -34.746700  -56.122500
  H    -89.381700  -35.101000  -62.185700
  H    -88.385000  -27.943400  -58.611900

 Total Charge           Charge          ....    0
 Multiplicity           Mult            ....    1
 Number of Electrons    NEL             ....  134
 Basis Dimension        Dim             ....  322

ORBITAL ENERGIES
----------------

  NO   OCC          E(Eh)            E(eV)
   0   2.0000     -88.960342     -2420.7340
   1   2.0000     -88.960138     -2420.7284
   2   2.0000     -10.322270      -280.8832
   3   2.0000     -10.316498      -280.7262
   4   2.0000     -10.312099      -280.6065
   5   2.0000     -10.311053      -280.5780
   6   2.0000     -10.298803      -280.2447
   7   2.0000     -10.297868      -280.2192
   8   2.0000     -10.286291      -279.9042
   9   2.0000     -10.285947      -279.8948
  10   2.0000     -10.285253      -279.8760
  11   2.0000     -10.284084      -279.8441
  12   2.0000     -10.280282      -279.7407
  13   2.0000     -10.279562      -279.7211
  14   2.0000     -10.274798      -279.5915
  15   2.0000     -10.269941      -279.4593
  16   2.0000      -8.076678      -219.7776
  17   2.0000      -8.076440      -219.7711
  18   2.0000      -6.035118      -164.2239
  19   2.0000      -6.034632      -164.2107
  20   2.0000      -6.030765      -164.1055
  21   2.0000      -6.030570      -164.1002
  22   2.0000      -6.027595      -164.0192
  23   2.0000      -6.027579      -164.0188
  24   2.0000      -1.017408       -27.6851
  25   2.0000      -0.994128       -27.0516
  26   2.0000      -0.919667       -25.0254
  27   2.0000      -0.915551       -24.9134
  28   2.0000      -0.870066       -23.6757
  29   2.0000      -0.850677       -23.1481
  30   2.0000      -0.849693       -23.1213
  31   2.0000      -0.817582       -22.2475
  32   2.0000      -0.783784       -21.3279
  33   2.0000      -0.771873       -21.0037
  34   2.0000      -0.709580       -19.3087
  35   2.0000      -0.704601       -19.1732
  36   2.0000      -0.693169       -18.8621
  37   2.0000      -0.659608       -17.9489
  38   2.0000      -0.650655       -17.7052
  39   2.0000      -0.612663       -16.6714
  40   2.0000      -0.598109       -16.2754
  41   2.0000      -0.576409       -15.6849
  42   2.0000      -0.573308       -15.6005
  43   2.0000      -0.565045       -15.3757
  44   2.0000      -0.529737       -14.4149
  45   2.0000      -0.525069       -14.2878
  46   2.0000      -0.517883       -14.0923
  47   2.0000      -0.513559       -13.9747
  48   2.0000      -0.507341       -13.8054
  49   2.0000      -0.500793       -13.6273
  50   2.0000      -0.495456       -13.4820
  51   2.0000      -0.479923       -13.0594
  52   2.0000      -0.474603       -12.9146
  53   2.0000      -0.468253       -12.7418
  54   2.0000      -0.462332       -12.5807
  55   2.0000      -0.446487       -12.1495
  56   2.0000      -0.444953       -12.1078
  57   2.0000      -0.435754       -11.8575
  58   2.0000      -0.433158       -11.7868
  59   2.0000      -0.420726       -11.4485
  60   2.0000      -0.416702       -11.3390
  61   2.0000      -0.407784       -11.0964
  62   2.0000      -0.404315       -11.0020
  63   2.0000      -0.338417        -9.2088
  64   2.0000      -0.326165        -8.8754
  65   2.0000      -0.320500        -8.7213
  66   2.0000      -0.313760        -8.5378
  67   0.0000       0.051812         1.4099
  68   0.0000       0.056592         1.5399
  69   0.0000       0.121772         3.3136
  70   0.0000       0.127913         3.4807
  71   0.0000       0.130036         3.5385

MULLIKEN ATOMIC CHARGES
-----------------------
   0 S :    0.111776
   1 C :   -0.128925
   2 C :   -0.085859
   3 C :    0.055930
   4 C :   -0.152535
   5 H :   -0.004880
   6 C :    0.057624
   7 H :    0.005462
   8 H :    0.048729
   9 C :   -0.066921
  10 H :    0.034408
  11 H :    0.024411
  12 C :   -0.034960
  13 H :    0.017784
  14 H :    0.036798
  15 H :    0.025745
  16 S :    0.123102
  17 C :   -0.105869
  18 C :   -0.019560
  19 C :   -0.059899
  20 C :   -0.187322
  21 H :    0.001866
  22 C :    0.120320
  23 H :    0.005711
  24 H :   -0.004275
  25 C :   -0.015375
  26 H :    0.030369
  27 H :    0.009751
  28 C :   -0.073188
  29 H :    0.024406
  30 H :    0.027563
  31 H :    0.059026
  32 H :    0.054850
  33 H :    0.063937
Sum of atomic charges:    0.0000000

LOEWDIN ATOMIC CHARGES
----------------------
   0 S :    0.433385
   1 C :   -0.199667
   2 C :   -0.062131
   3 C :   -0.062515
   4 C :   -0.222913
   5 H :    0.028848
   6 C :   -0.042395
   7 H :    0.025110
   8 H :    0.042625
   9 C :   -0.035993
  10 H :    0.027465
  11 H :    0.022560
  12 C :   -0.063638
  13 H :    0.023895
  14 H :    0.023269
  15 H :    0.024321
  16 S :    0.438654
  17 C :   -0.201315
  18 C :   -0.079372
  19 C :   -0.051128
  20 C :   -0.209158
  21 H :    0.027694
  22 C :   -0.038174
  23 H :    0.032511
  24 H :    0.022480
  25 C :   -0.034325
  26 H :    0.027281
  27 H :    0.019308
  28 C :   -0.066186
  29 H :    0.019435
  30 H :    0.029834
  31 H :    0.034566
  32 H :    0.034621
  33 H :    0.031047

  Mayer bond orders larger than 0.100000
B(  0-S ,  1-C ) :   1.1306 B(  0-S ,  4-C ) :   1.1783 B(  1-C ,  2-C ) :   1.6111
B(  1-C , 32-H ) :   0.9771 B(  2-C ,  3-C ) :   1.2015 B(  2-C ,  6-C ) :   1.0202
B(  3-C ,  4-C ) :   1.6160 B(  3-C ,  5-H ) :   1.0037 B(  4-C , 20-C ) :   0.9617
B(  6-C ,  7-H ) :   0.9397 B(  6-C ,  8-H ) :   0.9379 B(  6-C ,  9-C ) :   1.0698
B(  9-C , 10-H ) :   0.9565 B(  9-C , 11-H ) :   0.9538 B(  9-C , 12-C ) :   1.0907
B( 12-C , 13-H ) :   0.9730 B( 12-C , 14-H ) :   0.9773 B( 12-C , 15-H ) :   0.9731
B( 16-S , 17-C ) :   1.2102 B( 16-S , 20-C ) :   1.1564 B( 17-C , 18-C ) :   1.5587
B( 17-C , 20-C ) :   0.1023 B( 17-C , 33-H ) :   0.9633 B( 18-C , 19-C ) :   1.2550
B( 18-C , 21-H ) :   1.0104 B( 19-C , 20-C ) :   1.5768 B( 19-C , 22-C ) :   1.0553
B( 22-C , 23-H ) :   0.9247 B( 22-C , 24-H ) :   0.9095 B( 22-C , 25-C ) :   1.0508
B( 25-C , 26-H ) :   0.9498 B( 25-C , 27-H ) :   0.9549 B( 25-C , 28-C ) :   1.0822
B( 28-C , 29-H ) :   0.9760 B( 28-C , 30-H ) :   0.9735 B( 28-C , 31-H ) :   0.9745

Dispersion correction           -0.014161405
FINAL SINGLE POINT ENERGY     -1339.856396138664

DIPOLE MOMENT
-------------
                                X             Y             Z
Electronic contribution:    -14.22520      21.03439      -9.29943
Nuclear contribution   :     14.58696     -21.20652       9.52092
                        -----------------------------------------
Total Dipole Moment    :      0.36176      -0.17213       0.22148
                        -----------------------------------------
Magnitude (a.u.)       :      0.45777
Magnitude (Debye)      :      1.16356

Rotational constants in cm-1:     0.019497     0.008118     0.006736
Rotational constants in MHz :   584.496854   243.375760   201.946437

                             ****ORCA TERMINATED NORMALLY****
TOTAL RUN TIME: 0 days 0 hours 0 minutes 21 seconds 532 msec
