                         Program Version 4.2.1 -  RELEASE  -
|  1> ! wB97X-D3 SP def2-SVP
|  2> %pal
|  3> nprocs 24
|  4> end
|  5>
|  6> * xyz 0 1
|  7> S 	 -67.3748 	 13.449 	 -69.5557
|  8> C 	 -67.0168 	 13.7226 	 -67.8788
|  9> C 	 -67.364 	 15.0174 	 -67.4737
| 10> C 	 -67.8227 	 15.8228 	 -68.554
| 11> C 	 -67.8383 	 15.081 	 -69.764
| 12> H 	 -68.1488 	 16.8716 	 -68.4106
| 13> C 	 -67.2387 	 15.6106 	 -66.0653
| 14> H 	 -67.1237 	 14.7827 	 -65.4001
| 15> H 	 -68.1882 	 16.0396 	 -65.8129
| 16> C 	 -65.9923 	 16.5531 	 -65.934
| 17> H 	 -65.8576 	 16.6985 	 -64.8255
| 18> H 	 -65.0577 	 16.1821 	 -66.3198
| 19> C 	 -66.2766 	 18.0397 	 -66.536
| 20> H 	 -66.987 	 18.6366 	 -65.9928
| 21> H 	 -65.3812 	 18.6327 	 -66.5814
| 22> H 	 -66.5498 	 18.1157 	 -67.5361
| 23> S 	 -69.1429 	 14.2514 	 -71.9977
| 24> C 	 -69.8933 	 15.4082 	 -73.0806
| 25> C 	 -69.455 	 16.6726 	 -72.7611
| 26> C 	 -68.5056 	 16.7271 	 -71.6566
| 27> C 	 -68.3841 	 15.5116 	 -71.0483
| 28> H 	 -69.751 	 17.5023 	 -73.3002
| 29> C 	 -67.737 	 18.0362 	 -71.2677
| 30> H 	 -66.9609 	 18.186 	 -72.0084
| 31> H 	 -67.2088 	 17.9203 	 -70.3495
| 32> C 	 -68.6143 	 19.3591 	 -71.1017
| 33> H 	 -68.1762 	 20.0529 	 -70.4269
| 34> H 	 -69.6089 	 19.2361 	 -70.7511
| 35> C 	 -68.7687 	 20.1185 	 -72.4288
| 36> H 	 -69.5506 	 19.7799 	 -73.0026
| 37> H 	 -67.805 	 20.175 	 -73.0613
| 38> H 	 -69.0415 	 21.1403 	 -72.2118
| 39> H 	 -66.6118 	 12.9948 	 -67.195
| 40> H 	 -70.4527 	 15.1202 	 -73.9743
| 41> *
| 42>
| 43>                          ****END OF INPUT****

CARTESIAN COORDINATES (ANGSTROEM)
---------------------------------
  S    -67.374800   13.449000  -69.555700
  C    -67.016800   13.722600  -67.878800
  C    -67.364000   15.017400  -67.473700
  C    -67.822700   15.822800  -68.554000
  C    -67.838300   15.081000  -69.764000
  H    -68.148800   16.871600  -68.410600
  C    -67.238700   15.610600  -66.065300
  H    -67.123700   14.782700  -65.400100
  H    -68.188200   16.039600  -65.812900
  C    -65.992300   16.553100  -65.934000
  H    -65.857600   16.698500  -64.825500
  H    -65.057700   16.182100  -66.319800
  C    -66.276600   18.039700  -66.536000
  H    -66.987000   18.636600  -65.992800
  H    -65.381200   18.632700  -66.581400
  H    -66.549800   18.115700  -67.536100
  S    -69.142900   14.251400  -71.997700
  C    -69.893300   15.408200  -73.080600
  C    -69.455000   16.672600  -72.761100
  C    -68.505600   16.727100  -71.656600
  C    -68.384100   15.511600  -71.048300
  H    -69.751000   17.502300  -73.300200
  C    -67.737000   18.036200  -71.267700
  H    -66.960900   18.186000  -72.008400
  H    -67.208800   17.920300  -70.349500
  C    -68.614300   19.359100  -71.101700
  H    -68.176200   20.052900  -70.426900
  H    -69.608900   19.236100  -70.751100
  C    -68.768700   20.118500  -72.428800
  H    -69.550600   19.779900  -73.002600
  H    -67.805000   20.175000  -73.061300
  H    -69.041500   21.140300  -72.211800
  H    -66.611800   12.994800  -67.195000
  H    -70.452700   15.120200  -73.974300

 Total Charge           Charge          ....    0
 Multiplicity           Mult            ....    1
 Number of Electrons    NEL             ....  134
 Basis Dimension        Dim             ....  322

ORBITAL ENERGIES
----------------

  NO   OCC          E(Eh)            E(eV)
   0   2.0000     -88.969892     -2420.9938
   1   2.0000     -88.958819     -2420.6925
   2   2.0000     -10.330232      -281.0999
   3   2.0000     -10.323846      -280.9261
   4   2.0000     -10.317399      -280.7507
   5   2.0000     -10.311096      -280.5792
   6   2.0000     -10.304904      -280.4107
   7   2.0000     -10.302713      -280.3511
   8   2.0000     -10.299782      -280.2713
   9   2.0000     -10.297126      -280.1990
  10   2.0000     -10.296369      -280.1785
  11   2.0000     -10.293627      -280.1038
  12   2.0000     -10.290279      -280.0127
  13   2.0000     -10.286125      -279.8997
  14   2.0000     -10.275492      -279.6104
  15   2.0000     -10.275483      -279.6101
  16   2.0000      -8.085266      -220.0113
  17   2.0000      -8.074137      -219.7084
  18   2.0000      -6.043655      -164.4562
  19   2.0000      -6.039689      -164.3483
  20   2.0000      -6.036129      -164.2514
  21   2.0000      -6.032734      -164.1590
  22   2.0000      -6.028650      -164.0479
  23   2.0000      -6.024680      -163.9399
  24   2.0000      -1.008665       -27.4472
  25   2.0000      -0.982448       -26.7338
  26   2.0000      -0.905487       -24.6395
  27   2.0000      -0.900553       -24.5053
  28   2.0000      -0.865067       -23.5397
  29   2.0000      -0.850188       -23.1348
  30   2.0000      -0.838856       -22.8264
  31   2.0000      -0.812880       -22.1196
  32   2.0000      -0.787450       -21.4276
  33   2.0000      -0.775671       -21.1071
  34   2.0000      -0.712229       -19.3807
  35   2.0000      -0.706373       -19.2214
  36   2.0000      -0.695366       -18.9219
  37   2.0000      -0.666054       -18.1242
  38   2.0000      -0.634256       -17.2590
  39   2.0000      -0.619808       -16.8658
  40   2.0000      -0.597813       -16.2673
  41   2.0000      -0.567224       -15.4350
  42   2.0000      -0.549011       -14.9394
  43   2.0000      -0.545109       -14.8332
  44   2.0000      -0.535598       -14.5744
  45   2.0000      -0.529253       -14.4017
  46   2.0000      -0.518928       -14.1207
  47   2.0000      -0.514743       -14.0069
  48   2.0000      -0.501837       -13.6557
  49   2.0000      -0.501055       -13.6344
  50   2.0000      -0.489035       -13.3073
  51   2.0000      -0.481055       -13.0902
  52   2.0000      -0.476106       -12.9555
  53   2.0000      -0.464827       -12.6486
  54   2.0000      -0.460393       -12.5279
  55   2.0000      -0.454510       -12.3679
  56   2.0000      -0.445043       -12.1102
  57   2.0000      -0.440190       -11.9782
  58   2.0000      -0.433809       -11.8045
  59   2.0000      -0.427770       -11.6402
  60   2.0000      -0.421783       -11.4773
  61   2.0000      -0.416689       -11.3387
  62   2.0000      -0.411253       -11.1908
  63   2.0000      -0.355183        -9.6650
  64   2.0000      -0.335151        -9.1199
  65   2.0000      -0.324135        -8.8202
  66   2.0000      -0.281438        -7.6583
  67   0.0000       0.024081         0.6553
  68   0.0000       0.083081         2.2608
  69   0.0000       0.101413         2.7596
  70   0.0000       0.120865         3.2889
  71   0.0000       0.129902         3.5348

MULLIKEN ATOMIC CHARGES
-----------------------
   0 S :    0.120644
   1 C :   -0.116103
   2 C :   -0.119822
   3 C :    0.001442
   4 C :   -0.125027
   5 H :    0.029011
   6 C :    0.100166
   7 H :    0.007374
   8 H :    0.031696
   9 C :   -0.060739
  10 H :    0.042112
  11 H :    0.040252
  12 C :   -0.044509
  13 H :    0.026559
  14 H :    0.019640
  15 H :    0.006132
  16 S :    0.074678
  17 C :   -0.085638
  18 C :   -0.000113
  19 C :   -0.058081
  20 C :   -0.124276
  21 H :   -0.020957
  22 C :    0.091544
  23 H :    0.039370
  24 H :    0.008512
  25 C :   -0.055031
  26 H :    0.021574
  27 H :    0.027857
  28 C :   -0.069770
  29 H :    0.021552
  30 H :    0.040955
  31 H :    0.020675
  32 H :    0.040311
  33 H :    0.068011
Sum of atomic charges:    0.0000000

LOEWDIN ATOMIC CHARGES
----------------------
   0 S :    0.435817
   1 C :   -0.213747
   2 C :   -0.058034
   3 C :   -0.068912
   4 C :   -0.200571
   5 H :    0.036042
   6 C :   -0.026150
   7 H :    0.024867
   8 H :    0.031798
   9 C :   -0.024211
  10 H :    0.031360
  11 H :    0.025796
  12 C :   -0.070664
  13 H :    0.022834
  14 H :    0.026461
  15 H :    0.011659
  16 S :    0.384993
  17 C :   -0.182786
  18 C :   -0.060704
  19 C :   -0.057745
  20 C :   -0.191164
  21 H :    0.015419
  22 C :   -0.019216
  23 H :    0.034158
  24 H :    0.023087
  25 C :   -0.034392
  26 H :    0.020773
  27 H :    0.024069
  28 C :   -0.066459
  29 H :    0.007937
  30 H :    0.032552
  31 H :    0.024336
  32 H :    0.025526
  33 H :    0.035270

  Mayer bond orders larger than 0.100000
B(  0-S ,  1-C ) :   1.1403 B(  0-S ,  4-C ) :   1.1845 B(  1-C ,  2-C ) :   1.5917
B(  1-C ,  4-C ) :   0.1004 B(  1-C , 32-H ) :   0.9688 B(  2-C ,  3-C ) :   1.2880
B(  2-C ,  6-C ) :   1.0224 B(  3-C ,  4-C ) :   1.5067 B(  3-C ,  5-H ) :   0.9820
B(  4-C , 20-C ) :   1.0546 B(  6-C ,  7-H ) :   0.9373 B(  6-C ,  8-H ) :   0.9436
B(  6-C ,  9-C ) :   1.0550 B(  9-C , 10-H ) :   0.9604 B(  9-C , 11-H ) :   0.9625
B(  9-C , 12-C ) :   1.0607 B( 12-C , 13-H ) :   0.9785 B( 12-C , 14-H ) :   0.9707
B( 12-C , 15-H ) :   0.9761 B( 16-S , 17-C ) :   1.1368 B( 16-S , 20-C ) :   1.1269
B( 17-C , 18-C ) :   1.6198 B( 17-C , 33-H ) :   0.9688 B( 18-C , 19-C ) :   1.2176
B( 18-C , 21-H ) :   1.0029 B( 19-C , 20-C ) :   1.6310 B( 19-C , 22-C ) :   1.0270
B( 22-C , 23-H ) :   0.9414 B( 22-C , 24-H ) :   0.9414 B( 22-C , 25-C ) :   1.0495
B( 25-C , 26-H ) :   0.9647 B( 25-C , 27-H ) :   0.9616 B( 25-C , 28-C ) :   1.0742
B( 28-C , 29-H ) :   0.9800 B( 28-C , 30-H ) :   0.9764 B( 28-C , 31-H ) :   0.9685

Dispersion correction           -0.014534722
FINAL SINGLE POINT ENERGY     -1339.863827265629

DIPOLE MOMENT
-------------
                                X             Y             Z
Electronic contribution:     -4.99887     -28.67966     -10.65141
Nuclear contribution   :      5.06946      29.36025      10.97647
                        -----------------------------------------
Total Dipole Moment    :      0.07059       0.68059       0.32507
                        -----------------------------------------
Magnitude (a.u.)       :      0.75753
Magnitude (Debye)      :      1.92550

Rotational constants in cm-1:     0.016980     0.010018     0.006537
Rotational constants in MHz :   509.056030   300.338304   195.974426

                             ****ORCA TERMINATED NORMALLY****
TOTAL RUN TIME: 0 days 0 hours 0 minutes 20 seconds 802 msec
