                         Program Version 4.2.1 -  RELEASE  -
|  1> ! wB97X-D3 SP def2-SVP
|  2> %pal
|  3> nprocs 24
|  4> end
|  5>
|  6> * xyz 0 1
|  7> S 	 -53.0844 	 24.9015 	 33.055
|  8> C 	 -51.3928 	 24.697 	 33.0353
|  9> C 	 -51.0179 	 23.3704 	 33.0197
| 10> C 	 -52.1889 	 22.522 	 33.0383
| 11> C 	 -53.3948 	 23.2125 	 32.9348
| 12> H 	 -52.192 	 21.4514 	 32.9958
| 13> C 	 -49.6376 	 22.8206 	 32.8317
| 14> H 	 -49.3786 	 22.1627 	 33.6286
| 15> H 	 -49.0132 	 23.7081 	 33.0761
| 16> C 	 -49.1338 	 22.3032 	 31.4454
| 17> H 	 -49.3226 	 23.1201 	 30.8229
| 18> H 	 -48.0779 	 22.0186 	 31.4233
| 19> C 	 -49.8672 	 21.0971 	 30.8268
| 20> H 	 -49.2459 	 20.556 	 30.1389
| 21> H 	 -50.0095 	 20.3336 	 31.5949
| 22> H 	 -50.6938 	 21.555 	 30.3168
| 23> S 	 -55.7347 	 22.8537 	 34.3303
| 24> C 	 -56.7324 	 21.5283 	 33.8392
| 25> C 	 -56.3175 	 21.017 	 32.5761
| 26> C 	 -55.1193 	 21.5636 	 32.1701
| 27> C 	 -54.7208 	 22.615 	 32.9192
| 28> H 	 -56.9264 	 20.281 	 32.0754
| 29> C 	 -54.6387 	 21.3599 	 30.7424
| 30> H 	 -55.1113 	 20.4426 	 30.39
| 31> H 	 -53.5114 	 21.2485 	 30.76
| 32> C 	 -54.9437 	 22.5236 	 29.8862
| 33> H 	 -54.4419 	 23.5106 	 30.117
| 34> H 	 -56.0439 	 22.6935 	 29.9226
| 35> C 	 -54.663 	 22.103 	 28.3569
| 36> H 	 -55.1504 	 21.133 	 28.0839
| 37> H 	 -53.6739 	 21.9347 	 27.9968
| 38> H 	 -55.1625 	 22.8033 	 27.6918
| 39> H 	 -50.6533 	 25.4909 	 33.0553
| 40> H 	 -57.67 	 21.1599 	 34.2218
| 41> *
| 42>
| 43>                          ****END OF INPUT****

CARTESIAN COORDINATES (ANGSTROEM)
---------------------------------
  S    -53.084400   24.901500   33.055000
  C    -51.392800   24.697000   33.035300
  C    -51.017900   23.370400   33.019700
  C    -52.188900   22.522000   33.038300
  C    -53.394800   23.212500   32.934800
  H    -52.192000   21.451400   32.995800
  C    -49.637600   22.820600   32.831700
  H    -49.378600   22.162700   33.628600
  H    -49.013200   23.708100   33.076100
  C    -49.133800   22.303200   31.445400
  H    -49.322600   23.120100   30.822900
  H    -48.077900   22.018600   31.423300
  C    -49.867200   21.097100   30.826800
  H    -49.245900   20.556000   30.138900
  H    -50.009500   20.333600   31.594900
  H    -50.693800   21.555000   30.316800
  S    -55.734700   22.853700   34.330300
  C    -56.732400   21.528300   33.839200
  C    -56.317500   21.017000   32.576100
  C    -55.119300   21.563600   32.170100
  C    -54.720800   22.615000   32.919200
  H    -56.926400   20.281000   32.075400
  C    -54.638700   21.359900   30.742400
  H    -55.111300   20.442600   30.390000
  H    -53.511400   21.248500   30.760000
  C    -54.943700   22.523600   29.886200
  H    -54.441900   23.510600   30.117000
  H    -56.043900   22.693500   29.922600
  C    -54.663000   22.103000   28.356900
  H    -55.150400   21.133000   28.083900
  H    -53.673900   21.934700   27.996800
  H    -55.162500   22.803300   27.691800
  H    -50.653300   25.490900   33.055300
  H    -57.670000   21.159900   34.221800

 Total Charge           Charge          ....    0
 Multiplicity           Mult            ....    1
 Number of Electrons    NEL             ....  134
 Basis Dimension        Dim             ....  322

ORBITAL ENERGIES
----------------

  NO   OCC          E(Eh)            E(eV)
   0   2.0000     -88.971015     -2421.0244
   1   2.0000     -88.966897     -2420.9123
   2   2.0000     -10.325221      -280.9635
   3   2.0000     -10.318377      -280.7773
   4   2.0000     -10.318113      -280.7701
   5   2.0000     -10.311493      -280.5900
   6   2.0000     -10.300102      -280.2800
   7   2.0000     -10.292659      -280.0775
   8   2.0000     -10.291131      -280.0359
   9   2.0000     -10.291130      -280.0359
  10   2.0000     -10.290655      -280.0229
  11   2.0000     -10.290374      -280.0153
  12   2.0000     -10.289860      -280.0013
  13   2.0000     -10.284035      -279.8428
  14   2.0000     -10.277133      -279.6550
  15   2.0000     -10.273518      -279.5566
  16   2.0000      -8.085630      -220.0212
  17   2.0000      -8.082734      -219.9424
  18   2.0000      -6.043978      -164.4650
  19   2.0000      -6.041095      -164.3865
  20   2.0000      -6.040086      -164.3591
  21   2.0000      -6.036988      -164.2748
  22   2.0000      -6.036630      -164.2651
  23   2.0000      -6.033696      -164.1852
  24   2.0000      -1.014139       -27.5961
  25   2.0000      -0.991442       -26.9785
  26   2.0000      -0.911469       -24.8023
  27   2.0000      -0.910060       -24.7640
  28   2.0000      -0.870529       -23.6883
  29   2.0000      -0.851239       -23.1634
  30   2.0000      -0.847630       -23.0652
  31   2.0000      -0.811775       -22.0895
  32   2.0000      -0.783653       -21.3243
  33   2.0000      -0.772046       -21.0084
  34   2.0000      -0.706736       -19.2313
  35   2.0000      -0.700596       -19.0642
  36   2.0000      -0.690180       -18.7807
  37   2.0000      -0.667573       -18.1656
  38   2.0000      -0.642207       -17.4753
  39   2.0000      -0.614343       -16.7171
  40   2.0000      -0.592250       -16.1159
  41   2.0000      -0.581538       -15.8245
  42   2.0000      -0.563653       -15.3378
  43   2.0000      -0.552428       -15.0323
  44   2.0000      -0.535240       -14.5646
  45   2.0000      -0.524146       -14.2627
  46   2.0000      -0.518832       -14.1181
  47   2.0000      -0.508389       -13.8340
  48   2.0000      -0.504799       -13.7363
  49   2.0000      -0.495925       -13.4948
  50   2.0000      -0.489648       -13.3240
  51   2.0000      -0.486904       -13.2493
  52   2.0000      -0.470249       -12.7961
  53   2.0000      -0.466929       -12.7058
  54   2.0000      -0.460721       -12.5369
  55   2.0000      -0.443434       -12.0665
  56   2.0000      -0.442243       -12.0340
  57   2.0000      -0.440293       -11.9810
  58   2.0000      -0.430636       -11.7182
  59   2.0000      -0.425909       -11.5896
  60   2.0000      -0.417375       -11.3573
  61   2.0000      -0.412195       -11.2164
  62   2.0000      -0.406455       -11.0602
  63   2.0000      -0.343184        -9.3385
  64   2.0000      -0.336747        -9.1634
  65   2.0000      -0.327821        -8.9205
  66   2.0000      -0.293525        -7.9872
  67   0.0000       0.032516         0.8848
  68   0.0000       0.065027         1.7695
  69   0.0000       0.117516         3.1978
  70   0.0000       0.120611         3.2820
  71   0.0000       0.128449         3.4953

MULLIKEN ATOMIC CHARGES
-----------------------
   0 S :    0.121502
   1 C :   -0.109092
   2 C :   -0.115114
   3 C :    0.045504
   4 C :   -0.180261
   5 H :    0.009615
   6 C :    0.065250
   7 H :    0.024680
   8 H :    0.011594
   9 C :   -0.045887
  10 H :    0.012543
  11 H :    0.034521
  12 C :   -0.050276
  13 H :    0.020896
  14 H :    0.028672
  15 H :    0.051399
  16 S :    0.134699
  17 C :   -0.084526
  18 C :   -0.062447
  19 C :   -0.017751
  20 C :   -0.140673
  21 H :    0.016283
  22 C :    0.058700
  23 H :    0.018949
  24 H :    0.035084
  25 C :   -0.075729
  26 H :    0.057382
  27 H :    0.030987
  28 C :   -0.064923
  29 H :    0.017620
  30 H :    0.029232
  31 H :    0.029778
  32 H :    0.043672
  33 H :    0.048118
Sum of atomic charges:   -0.0000000

LOEWDIN ATOMIC CHARGES
----------------------
   0 S :    0.433877
   1 C :   -0.211235
   2 C :   -0.069232
   3 C :   -0.054014
   4 C :   -0.209227
   5 H :    0.026581
   6 C :   -0.036663
   7 H :    0.025755
   8 H :    0.035263
   9 C :   -0.031934
  10 H :    0.016303
  11 H :    0.027899
  12 C :   -0.067196
  13 H :    0.023690
  14 H :    0.025483
  15 H :    0.027448
  16 S :    0.430484
  17 C :   -0.192475
  18 C :   -0.068834
  19 C :   -0.064834
  20 C :   -0.205944
  21 H :    0.029746
  22 C :   -0.032477
  23 H :    0.027969
  24 H :    0.036168
  25 C :   -0.037288
  26 H :    0.035473
  27 H :    0.028501
  28 C :   -0.074363
  29 H :    0.026171
  30 H :    0.017907
  31 H :    0.023935
  32 H :    0.029118
  33 H :    0.027945

  Mayer bond orders larger than 0.100000
B(  0-S ,  1-C ) :   1.1552 B(  0-S ,  4-C ) :   1.1542 B(  1-C ,  2-C ) :   1.6041
B(  1-C , 32-H ) :   0.9629 B(  2-C ,  3-C ) :   1.2439 B(  2-C ,  6-C ) :   1.0324
B(  3-C ,  4-C ) :   1.5669 B(  3-C ,  5-H ) :   0.9959 B(  4-C , 20-C ) :   1.0111
B(  6-C ,  7-H ) :   0.9363 B(  6-C ,  8-H ) :   0.9323 B(  6-C ,  9-C ) :   1.0643
B(  9-C , 10-H ) :   0.9594 B(  9-C , 11-H ) :   0.9579 B(  9-C , 12-C ) :   1.0807
B( 12-C , 13-H ) :   0.9722 B( 12-C , 14-H ) :   0.9741 B( 12-C , 15-H ) :   0.9780
B( 16-S , 17-C ) :   1.1858 B( 16-S , 20-C ) :   1.1472 B( 17-C , 18-C ) :   1.5670
B( 17-C , 20-C ) :   0.1115 B( 17-C , 33-H ) :   0.9650 B( 18-C , 19-C ) :   1.2789
B( 18-C , 21-H ) :   0.9909 B( 19-C , 20-C ) :   1.5713 B( 19-C , 22-C ) :   1.0505
B( 22-C , 23-H ) :   0.9403 B( 22-C , 24-H ) :   0.9210 B( 22-C , 25-C ) :   1.0778
B( 25-C , 26-H ) :   0.9490 B( 25-C , 27-H ) :   0.9531 B( 25-C , 28-C ) :   1.0626
B( 28-C , 29-H ) :   0.9747 B( 28-C , 30-H ) :   0.9801 B( 28-C , 31-H ) :   0.9774

Dispersion correction           -0.015388837
FINAL SINGLE POINT ENERGY     -1339.861507402199

DIPOLE MOMENT
-------------
                                X             Y             Z
Electronic contribution:    -14.05870      11.96382      22.09689
Nuclear contribution   :     14.30410     -12.36535     -22.48320
                        -----------------------------------------
Total Dipole Moment    :      0.24540      -0.40153      -0.38631
                        -----------------------------------------
Magnitude (a.u.)       :      0.60884
Magnitude (Debye)      :      1.54755

Rotational constants in cm-1:     0.017390     0.010073     0.007885
Rotational constants in MHz :   521.335664   301.992694   236.390160

                             ****ORCA TERMINATED NORMALLY****
TOTAL RUN TIME: 0 days 0 hours 0 minutes 21 seconds 485 msec
