                         Program Version 4.2.1 -  RELEASE  -
|  1> ! wB97X-D3 SP def2-SVP
|  2> %pal
|  3> nprocs 24
|  4> end
|  5>
|  6> * xyz 0 1
|  7> S 	 -63.2769 	 10.4516 	 -102.037
|  8> C 	 -64.3568 	 10.9476 	 -103.368
|  9> C 	 -63.6221 	 11.1966 	 -104.535
| 10> C 	 -62.2178 	 10.8719 	 -104.394
| 11> C 	 -61.9299 	 10.4448 	 -103.125
| 12> H 	 -61.5254 	 11.0293 	 -105.222
| 13> C 	 -64.2944 	 11.6092 	 -105.829
| 14> H 	 -65.3845 	 11.5432 	 -105.636
| 15> H 	 -64.0957 	 10.9269 	 -106.62
| 16> C 	 -63.922 	 12.9249 	 -106.477
| 17> H 	 -64.0098 	 13.7579 	 -105.792
| 18> H 	 -62.9256 	 12.8656 	 -106.971
| 19> C 	 -64.9297 	 13.2611 	 -107.585
| 20> H 	 -65.9598 	 13.034 	 -107.332
| 21> H 	 -65.0189 	 14.2312 	 -107.958
| 22> H 	 -64.7163 	 12.5911 	 -108.458
| 23> S 	 -60.2526 	 10.6129 	 -100.832
| 24> C 	 -58.4991 	 10.3134 	 -101.012
| 25> C 	 -58.2258 	 9.79562 	 -102.281
| 26> C 	 -59.3729 	 9.90571 	 -103.147
| 27> C 	 -60.5845 	 10.2576 	 -102.551
| 28> H 	 -57.3007 	 9.54129 	 -102.663
| 29> C 	 -59.1496 	 9.5991 	 -104.637
| 30> H 	 -60.109 	 9.46409 	 -105.134
| 31> H 	 -58.4528 	 8.72181 	 -104.741
| 32> C 	 -58.34 	 10.5904 	 -105.423
| 33> H 	 -57.3276 	 10.7182 	 -104.978
| 34> H 	 -58.843 	 11.5608 	 -105.338
| 35> C 	 -58.2305 	 10.2696 	 -106.963
| 36> H 	 -57.456 	 10.9682 	 -107.386
| 37> H 	 -59.1614 	 10.453 	 -107.423
| 38> H 	 -57.7267 	 9.28675 	 -107.328
| 39> H 	 -65.406 	 11.0024 	 -103.338
| 40> H 	 -57.7131 	 10.4238 	 -100.202
| 41> *
| 42>
| 43>                          ****END OF INPUT****

CARTESIAN COORDINATES (ANGSTROEM)
---------------------------------
  S    -63.276900   10.451600  -102.037000
  C    -64.356800   10.947600  -103.368000
  C    -63.622100   11.196600  -104.535000
  C    -62.217800   10.871900  -104.394000
  C    -61.929900   10.444800  -103.125000
  H    -61.525400   11.029300  -105.222000
  C    -64.294400   11.609200  -105.829000
  H    -65.384500   11.543200  -105.636000
  H    -64.095700   10.926900  -106.620000
  C    -63.922000   12.924900  -106.477000
  H    -64.009800   13.757900  -105.792000
  H    -62.925600   12.865600  -106.971000
  C    -64.929700   13.261100  -107.585000
  H    -65.959800   13.034000  -107.332000
  H    -65.018900   14.231200  -107.958000
  H    -64.716300   12.591100  -108.458000
  S    -60.252600   10.612900  -100.832000
  C    -58.499100   10.313400  -101.012000
  C    -58.225800    9.795620  -102.281000
  C    -59.372900    9.905710  -103.147000
  C    -60.584500   10.257600  -102.551000
  H    -57.300700    9.541290  -102.663000
  C    -59.149600    9.599100  -104.637000
  H    -60.109000    9.464090  -105.134000
  H    -58.452800    8.721810  -104.741000
  C    -58.340000   10.590400  -105.423000
  H    -57.327600   10.718200  -104.978000
  H    -58.843000   11.560800  -105.338000
  C    -58.230500   10.269600  -106.963000
  H    -57.456000   10.968200  -107.386000
  H    -59.161400   10.453000  -107.423000
  H    -57.726700    9.286750  -107.328000
  H    -65.406000   11.002400  -103.338000
  H    -57.713100   10.423800  -100.202000

 Total Charge           Charge          ....    0
 Multiplicity           Mult            ....    1
 Number of Electrons    NEL             ....  134
 Basis Dimension        Dim             ....  322

ORBITAL ENERGIES
----------------

  NO   OCC          E(Eh)            E(eV)
   0   2.0000     -88.971233     -2421.0303
   1   2.0000     -88.968012     -2420.9427
   2   2.0000     -10.336473      -281.2697
   3   2.0000     -10.333720      -281.1948
   4   2.0000     -10.331227      -281.1270
   5   2.0000     -10.316386      -280.7231
   6   2.0000     -10.306894      -280.4648
   7   2.0000     -10.305170      -280.4179
   8   2.0000     -10.299256      -280.2570
   9   2.0000     -10.295007      -280.1414
  10   2.0000     -10.292531      -280.0740
  11   2.0000     -10.292521      -280.0737
  12   2.0000     -10.292071      -280.0615
  13   2.0000     -10.291441      -280.0444
  14   2.0000     -10.290421      -280.0166
  15   2.0000     -10.275790      -279.6185
  16   2.0000      -8.085676      -220.0224
  17   2.0000      -8.081395      -219.9059
  18   2.0000      -6.044327      -164.4745
  19   2.0000      -6.040327      -164.3656
  20   2.0000      -6.040231      -164.3630
  21   2.0000      -6.036216      -164.2538
  22   2.0000      -6.036087      -164.2503
  23   2.0000      -6.031876      -164.1357
  24   2.0000      -1.004603       -27.3366
  25   2.0000      -0.978425       -26.6243
  26   2.0000      -0.918318       -24.9887
  27   2.0000      -0.908577       -24.7236
  28   2.0000      -0.869815       -23.6689
  29   2.0000      -0.852064       -23.1858
  30   2.0000      -0.842243       -22.9186
  31   2.0000      -0.816236       -22.2109
  32   2.0000      -0.782883       -21.3033
  33   2.0000      -0.772499       -21.0208
  34   2.0000      -0.708850       -19.2888
  35   2.0000      -0.697899       -18.9908
  36   2.0000      -0.689771       -18.7696
  37   2.0000      -0.666422       -18.1343
  38   2.0000      -0.642129       -17.4732
  39   2.0000      -0.626930       -17.0596
  40   2.0000      -0.593217       -16.1423
  41   2.0000      -0.582670       -15.8553
  42   2.0000      -0.573622       -15.6091
  43   2.0000      -0.562581       -15.3086
  44   2.0000      -0.528443       -14.3797
  45   2.0000      -0.521524       -14.1914
  46   2.0000      -0.516443       -14.0531
  47   2.0000      -0.510239       -13.8843
  48   2.0000      -0.505952       -13.7676
  49   2.0000      -0.500455       -13.6181
  50   2.0000      -0.490336       -13.3427
  51   2.0000      -0.480529       -13.0759
  52   2.0000      -0.472739       -12.8639
  53   2.0000      -0.461798       -12.5662
  54   2.0000      -0.460398       -12.5281
  55   2.0000      -0.457197       -12.4410
  56   2.0000      -0.444607       -12.0984
  57   2.0000      -0.435560       -11.8522
  58   2.0000      -0.432990       -11.7822
  59   2.0000      -0.427953       -11.6452
  60   2.0000      -0.419459       -11.4141
  61   2.0000      -0.415700       -11.3118
  62   2.0000      -0.410606       -11.1732
  63   2.0000      -0.359102        -9.7717
  64   2.0000      -0.335866        -9.1394
  65   2.0000      -0.327466        -8.9108
  66   2.0000      -0.285231        -7.7615
  67   0.0000       0.021477         0.5844
  68   0.0000       0.071787         1.9534
  69   0.0000       0.097070         2.6414
  70   0.0000       0.113338         3.0841
  71   0.0000       0.119317         3.2468

MULLIKEN ATOMIC CHARGES
-----------------------
   0 S :    0.102408
   1 C :   -0.102596
   2 C :   -0.067887
   3 C :   -0.002439
   4 C :   -0.093465
   5 H :    0.013706
   6 C :    0.040869
   7 H :    0.017390
   8 H :    0.021254
   9 C :   -0.055943
  10 H :    0.032000
  11 H :    0.041733
  12 C :   -0.051827
  13 H :    0.015638
  14 H :    0.024543
  15 H :    0.023388
  16 S :    0.086468
  17 C :   -0.112997
  18 C :    0.025663
  19 C :   -0.071038
  20 C :   -0.097261
  21 H :   -0.007241
  22 C :    0.042078
  23 H :    0.020191
  24 H :    0.029082
  25 C :   -0.092397
  26 H :    0.030912
  27 H :    0.027669
  28 C :   -0.076620
  29 H :    0.038745
  30 H :    0.032672
  31 H :    0.047151
  32 H :    0.031234
  33 H :    0.086916
Sum of atomic charges:    0.0000000

LOEWDIN ATOMIC CHARGES
----------------------
   0 S :    0.401525
   1 C :   -0.183833
   2 C :   -0.049805
   3 C :   -0.069088
   4 C :   -0.179920
   5 H :    0.032690
   6 C :   -0.034851
   7 H :    0.032971
   8 H :    0.028614
   9 C :   -0.037923
  10 H :    0.022933
  11 H :    0.029844
  12 C :   -0.066652
  13 H :    0.021977
  14 H :    0.017672
  15 H :    0.027408
  16 S :    0.371592
  17 C :   -0.177726
  18 C :   -0.058469
  19 C :   -0.055131
  20 C :   -0.189146
  21 H :    0.017978
  22 C :   -0.040652
  23 H :    0.024050
  24 H :    0.037133
  25 C :   -0.044480
  26 H :    0.023536
  27 H :    0.022162
  28 C :   -0.075905
  29 H :    0.034222
  30 H :    0.016453
  31 H :    0.036139
  32 H :    0.018179
  33 H :    0.046505

  Mayer bond orders larger than 0.100000
B(  0-S ,  1-C ) :   1.1121 B(  0-S ,  4-C ) :   1.1522 B(  1-C ,  2-C ) :   1.6266
B(  1-C , 32-H ) :   0.9724 B(  2-C ,  3-C ) :   1.2321 B(  2-C ,  6-C ) :   1.0336
B(  3-C ,  4-C ) :   1.5583 B(  3-C ,  5-H ) :   0.9878 B(  4-C , 20-C ) :   1.0550
B(  6-C ,  7-H ) :   0.9443 B(  6-C ,  8-H ) :   0.9389 B(  6-C ,  9-C ) :   1.0599
B(  9-C , 10-H ) :   0.9585 B(  9-C , 11-H ) :   0.9541 B(  9-C , 12-C ) :   1.0763
B( 12-C , 13-H ) :   0.9739 B( 12-C , 14-H ) :   0.9771 B( 12-C , 15-H ) :   0.9743
B( 16-S , 17-C ) :   1.1477 B( 16-S , 20-C ) :   1.1049 B( 17-C , 18-C ) :   1.5949
B( 17-C , 33-H ) :   0.9590 B( 18-C , 19-C ) :   1.2492 B( 18-C , 21-H ) :   0.9951
B( 19-C , 20-C ) :   1.6088 B( 19-C , 22-C ) :   1.0523 B( 22-C , 23-H ) :   0.9339
B( 22-C , 24-H ) :   0.9339 B( 22-C , 25-C ) :   1.0656 B( 25-C , 26-H ) :   0.9546
B( 25-C , 27-H ) :   0.9487 B( 25-C , 28-C ) :   1.0766 B( 28-C , 29-H ) :   0.9736
B( 28-C , 30-H ) :   0.9765 B( 28-C , 31-H ) :   0.9740

Dispersion correction           -0.013480949
FINAL SINGLE POINT ENERGY     -1339.864661543550

DIPOLE MOMENT
-------------
                                X             Y             Z
Electronic contribution:     -1.64057      -7.06748      32.72214
Nuclear contribution   :      1.83891       7.25294     -33.46942
                        -----------------------------------------
Total Dipole Moment    :      0.19834       0.18546      -0.74728
                        -----------------------------------------
Magnitude (a.u.)       :      0.79509
Magnitude (Debye)      :      2.02095

Rotational constants in cm-1:     0.016866     0.008910     0.006168
Rotational constants in MHz :   505.636085   267.121868   184.903938

                             ****ORCA TERMINATED NORMALLY****
TOTAL RUN TIME: 0 days 0 hours 0 minutes 20 seconds 215 msec
