                         Program Version 4.2.1 -  RELEASE  -
|  1> ! wB97X-D3 SP def2-SVP
|  2> %pal
|  3> nprocs 24
|  4> end
|  5>
|  6> * xyz 0 1
|  7> S 	 -47.4998 	 12.355 	 25.5713
|  8> C 	 -47.1895 	 12.5792 	 23.8224
|  9> C 	 -48.2811 	 12.223 	 23.0405
| 10> C 	 -49.4035 	 11.7772 	 23.8779
| 11> C 	 -49.143 	 11.8079 	 25.229
| 12> H 	 -50.3041 	 11.5115 	 23.4453
| 13> C 	 -48.4124 	 12.4249 	 21.5654
| 14> H 	 -47.7569 	 13.1669 	 21.1527
| 15> H 	 -49.4128 	 12.7957 	 21.2401
| 16> C 	 -48.2774 	 11.0932 	 20.8121
| 17> H 	 -47.2313 	 10.7045 	 20.9302
| 18> H 	 -48.7922 	 10.3749 	 21.3743
| 19> C 	 -48.706 	 11.2139 	 19.2877
| 20> H 	 -48.0482 	 11.9552 	 18.8003
| 21> H 	 -48.6908 	 10.2755 	 18.732
| 22> H 	 -49.7461 	 11.671 	 19.2268
| 23> S 	 -50.7101 	 13.0953 	 26.8568
| 24> C 	 -51.7784 	 12.1952 	 27.9059
| 25> C 	 -51.8094 	 10.8218 	 27.6627
| 26> C 	 -50.8449 	 10.4848 	 26.6593
| 27> C 	 -50.1016 	 11.584 	 26.2645
| 28> H 	 -52.5409 	 10.1578 	 28.1798
| 29> C 	 -50.6858 	 9.13 	 26.1184
| 30> H 	 -50.2448 	 8.46331 	 26.8361
| 31> H 	 -49.9207 	 9.29864 	 25.3725
| 32> C 	 -51.9408 	 8.51052 	 25.5762
| 33> H 	 -52.1753 	 9.10243 	 24.7086
| 34> H 	 -52.8804 	 8.81032 	 26.1575
| 35> C 	 -51.8212 	 6.9992 	 25.2326
| 36> H 	 -52.6429 	 6.63678 	 24.7299
| 37> H 	 -51.7381 	 6.33256 	 26.1404
| 38> H 	 -50.9781 	 6.77817 	 24.5989
| 39> H 	 -46.2464 	 12.7331 	 23.4711
| 40> H 	 -52.6217 	 12.5831 	 28.4525
| 41> *
| 42>
| 43>                          ****END OF INPUT****

CARTESIAN COORDINATES (ANGSTROEM)
---------------------------------
  S    -47.499800   12.355000   25.571300
  C    -47.189500   12.579200   23.822400
  C    -48.281100   12.223000   23.040500
  C    -49.403500   11.777200   23.877900
  C    -49.143000   11.807900   25.229000
  H    -50.304100   11.511500   23.445300
  C    -48.412400   12.424900   21.565400
  H    -47.756900   13.166900   21.152700
  H    -49.412800   12.795700   21.240100
  C    -48.277400   11.093200   20.812100
  H    -47.231300   10.704500   20.930200
  H    -48.792200   10.374900   21.374300
  C    -48.706000   11.213900   19.287700
  H    -48.048200   11.955200   18.800300
  H    -48.690800   10.275500   18.732000
  H    -49.746100   11.671000   19.226800
  S    -50.710100   13.095300   26.856800
  C    -51.778400   12.195200   27.905900
  C    -51.809400   10.821800   27.662700
  C    -50.844900   10.484800   26.659300
  C    -50.101600   11.584000   26.264500
  H    -52.540900   10.157800   28.179800
  C    -50.685800    9.130000   26.118400
  H    -50.244800    8.463310   26.836100
  H    -49.920700    9.298640   25.372500
  C    -51.940800    8.510520   25.576200
  H    -52.175300    9.102430   24.708600
  H    -52.880400    8.810320   26.157500
  C    -51.821200    6.999200   25.232600
  H    -52.642900    6.636780   24.729900
  H    -51.738100    6.332560   26.140400
  H    -50.978100    6.778170   24.598900
  H    -46.246400   12.733100   23.471100
  H    -52.621700   12.583100   28.452500

 Total Charge           Charge          ....    0
 Multiplicity           Mult            ....    1
 Number of Electrons    NEL             ....  134
 Basis Dimension        Dim             ....  322

ORBITAL ENERGIES
----------------

  NO   OCC          E(Eh)            E(eV)
   0   2.0000     -88.966235     -2420.8943
   1   2.0000     -88.965257     -2420.8677
   2   2.0000     -10.328640      -281.0566
   3   2.0000     -10.318812      -280.7891
   4   2.0000     -10.313981      -280.6577
   5   2.0000     -10.312498      -280.6173
   6   2.0000     -10.306069      -280.4424
   7   2.0000     -10.300417      -280.2886
   8   2.0000     -10.296673      -280.1867
   9   2.0000     -10.293508      -280.1006
  10   2.0000     -10.293298      -280.0949
  11   2.0000     -10.291364      -280.0423
  12   2.0000     -10.290424      -280.0167
  13   2.0000     -10.288436      -279.9626
  14   2.0000     -10.279658      -279.7237
  15   2.0000     -10.278605      -279.6951
  16   2.0000      -8.081429      -219.9069
  17   2.0000      -8.079349      -219.8503
  18   2.0000      -6.039877      -164.3534
  19   2.0000      -6.037956      -164.3011
  20   2.0000      -6.035992      -164.2477
  21   2.0000      -6.034000      -164.1935
  22   2.0000      -6.032087      -164.1414
  23   2.0000      -6.029990      -164.0844
  24   2.0000      -1.009223       -27.4624
  25   2.0000      -0.978950       -26.6386
  26   2.0000      -0.916415       -24.9369
  27   2.0000      -0.911457       -24.8020
  28   2.0000      -0.870351       -23.6835
  29   2.0000      -0.851643       -23.1744
  30   2.0000      -0.841947       -22.9105
  31   2.0000      -0.814129       -22.1536
  32   2.0000      -0.783806       -21.3285
  33   2.0000      -0.771756       -21.0006
  34   2.0000      -0.712486       -19.3877
  35   2.0000      -0.705015       -19.1844
  36   2.0000      -0.699994       -19.0478
  37   2.0000      -0.660584       -17.9754
  38   2.0000      -0.650850       -17.7105
  39   2.0000      -0.625703       -17.0263
  40   2.0000      -0.598013       -16.2728
  41   2.0000      -0.569535       -15.4978
  42   2.0000      -0.559191       -15.2164
  43   2.0000      -0.552140       -15.0245
  44   2.0000      -0.529084       -14.3971
  45   2.0000      -0.524985       -14.2856
  46   2.0000      -0.520651       -14.1676
  47   2.0000      -0.511649       -13.9227
  48   2.0000      -0.505263       -13.7489
  49   2.0000      -0.495929       -13.4949
  50   2.0000      -0.487507       -13.2657
  51   2.0000      -0.479431       -13.0460
  52   2.0000      -0.467052       -12.7091
  53   2.0000      -0.465368       -12.6633
  54   2.0000      -0.456062       -12.4101
  55   2.0000      -0.453449       -12.3390
  56   2.0000      -0.448426       -12.2023
  57   2.0000      -0.443052       -12.0560
  58   2.0000      -0.440390       -11.9836
  59   2.0000      -0.433592       -11.7986
  60   2.0000      -0.423615       -11.5272
  61   2.0000      -0.415732       -11.3126
  62   2.0000      -0.406986       -11.0747
  63   2.0000      -0.339803        -9.2465
  64   2.0000      -0.327355        -8.9078
  65   2.0000      -0.325379        -8.8540
  66   2.0000      -0.300863        -8.1869
  67   0.0000       0.040090         1.0909
  68   0.0000       0.054994         1.4965
  69   0.0000       0.109731         2.9859
  70   0.0000       0.113451         3.0872
  71   0.0000       0.120371         3.2754

MULLIKEN ATOMIC CHARGES
-----------------------
   0 S :    0.102363
   1 C :   -0.083332
   2 C :   -0.081893
   3 C :    0.088973
   4 C :   -0.182803
   5 H :   -0.018279
   6 C :    0.054438
   7 H :    0.020139
   8 H :    0.023923
   9 C :   -0.075586
  10 H :    0.026598
  11 H :    0.010927
  12 C :   -0.063137
  13 H :    0.036920
  14 H :    0.049247
  15 H :    0.037315
  16 S :    0.123955
  17 C :   -0.070761
  18 C :   -0.075368
  19 C :   -0.036573
  20 C :   -0.168695
  21 H :    0.040361
  22 C :    0.130716
  23 H :    0.023333
  24 H :    0.016253
  25 C :   -0.111485
  26 H :    0.011175
  27 H :    0.033083
  28 C :   -0.007772
  29 H :    0.014262
  30 H :    0.036739
  31 H :    0.029593
  32 H :    0.016021
  33 H :    0.049348
Sum of atomic charges:   -0.0000000

LOEWDIN ATOMIC CHARGES
----------------------
   0 S :    0.381124
   1 C :   -0.165952
   2 C :   -0.052521
   3 C :   -0.045046
   4 C :   -0.199436
   5 H :    0.017551
   6 C :   -0.033924
   7 H :    0.026248
   8 H :    0.033481
   9 C :   -0.040397
  10 H :    0.026818
  11 H :    0.012275
  12 C :   -0.071202
  13 H :    0.027827
  14 H :    0.027607
  15 H :    0.030282
  16 S :    0.425727
  17 C :   -0.188612
  18 C :   -0.072189
  19 C :   -0.049219
  20 C :   -0.210369
  21 H :    0.040603
  22 C :   -0.035615
  23 H :    0.029500
  24 H :    0.031377
  25 C :   -0.046668
  26 H :    0.021991
  27 H :    0.031127
  28 C :   -0.060135
  29 H :    0.015861
  30 H :    0.032850
  31 H :    0.026940
  32 H :    0.006572
  33 H :    0.025524

  Mayer bond orders larger than 0.100000
B(  0-S ,  1-C ) :   1.1213 B(  0-S ,  4-C ) :   1.1387 B(  1-C ,  2-C ) :   1.6370
B(  1-C , 32-H ) :   0.9782 B(  2-C ,  3-C ) :   1.2080 B(  2-C ,  6-C ) :   1.0336
B(  3-C ,  4-C ) :   1.5924 B(  3-C ,  5-H ) :   1.0044 B(  4-C , 20-C ) :   1.0114
B(  6-C ,  7-H ) :   0.9463 B(  6-C ,  8-H ) :   0.9462 B(  6-C ,  9-C ) :   1.0385
B(  9-C , 10-H ) :   0.9528 B(  9-C , 11-H ) :   0.9632 B(  9-C , 12-C ) :   1.0619
B( 12-C , 13-H ) :   0.9755 B( 12-C , 14-H ) :   0.9770 B( 12-C , 15-H ) :   0.9752
B( 16-S , 17-C ) :   1.1552 B( 16-S , 20-C ) :   1.1540 B( 17-C , 18-C ) :   1.6298
B( 17-C , 33-H ) :   0.9613 B( 18-C , 19-C ) :   1.2153 B( 18-C , 21-H ) :   0.9824
B( 19-C , 20-C ) :   1.6097 B( 19-C , 22-C ) :   1.0561 B( 22-C , 23-H ) :   0.9271
B( 22-C , 24-H ) :   0.9192 B( 22-C , 25-C ) :   1.0457 B( 25-C , 26-H ) :   0.9463
B( 25-C , 27-H ) :   0.9607 B( 25-C , 28-C ) :   1.0763 B( 28-C , 29-H ) :   0.9731
B( 28-C , 30-H ) :   0.9743 B( 28-C , 31-H ) :   0.9731

Dispersion correction           -0.013870362
FINAL SINGLE POINT ENERGY     -1339.861976049574

DIPOLE MOMENT
-------------
                                X             Y             Z
Electronic contribution:      6.53257      18.96423      22.14046
Nuclear contribution   :     -6.92053     -19.35202     -22.71939
                        -----------------------------------------
Total Dipole Moment    :     -0.38796      -0.38779      -0.57893
                        -----------------------------------------
Magnitude (a.u.)       :      0.79753
Magnitude (Debye)      :      2.02716

Rotational constants in cm-1:     0.016427     0.008752     0.006547
Rotational constants in MHz :   492.472608   262.371403   196.260986

                             ****ORCA TERMINATED NORMALLY****
TOTAL RUN TIME: 0 days 0 hours 0 minutes 21 seconds 204 msec
