                         Program Version 4.2.1 -  RELEASE  -
|  1> ! wB97X-D3 SP def2-SVP
|  2> %pal
|  3> nprocs 24
|  4> end
|  5>
|  6> * xyz 0 1
|  7> S 	 -138.217 	 13.7776 	 -1.58333
|  8> C 	 -138.085 	 12.4753 	 -0.367775
|  9> C 	 -136.766 	 12.1255 	 -0.169278
| 10> C 	 -135.894 	 12.7035 	 -1.09049
| 11> C 	 -136.511 	 13.6098 	 -2.00223
| 12> H 	 -134.835 	 12.645 	 -1.15558
| 13> C 	 -136.327 	 11.0048 	 0.779181
| 14> H 	 -137.357 	 10.4735 	 0.991863
| 15> H 	 -136.189 	 11.3149 	 1.82048
| 16> C 	 -135.303 	 10.0066 	 0.326646
| 17> H 	 -134.379 	 10.5818 	 0.281192
| 18> H 	 -135.13 	 9.20508 	 1.02207
| 19> C 	 -135.661 	 9.33809 	 -1.00286
| 20> H 	 -135.17 	 8.3684 	 -1.13303
| 21> H 	 -136.686 	 9.04013 	 -1.02399
| 22> H 	 -135.438 	 9.93721 	 -1.93006
| 23> S 	 -136.241 	 16.316 	 -2.68026
| 24> C 	 -134.913 	 16.7045 	 -3.66434
| 25> C 	 -134.232 	 15.6665 	 -4.23194
| 26> C 	 -134.654 	 14.4161 	 -3.71052
| 27> C 	 -135.734 	 14.5919 	 -2.82077
| 28> H 	 -133.398 	 15.916 	 -4.87152
| 29> C 	 -134.048 	 13.0957 	 -4.21626
| 30> H 	 -134.302 	 13.0939 	 -5.2637
| 31> H 	 -134.513 	 12.2744 	 -3.70088
| 32> C 	 -132.59 	 13.0218 	 -3.93317
| 33> H 	 -132.351 	 13.5656 	 -3.08232
| 34> H 	 -132.029 	 13.6183 	 -4.6491
| 35> C 	 -131.967 	 11.567 	 -3.8749
| 36> H 	 -131.313 	 11.3428 	 -3.05273
| 37> H 	 -131.247 	 11.4384 	 -4.71934
| 38> H 	 -132.713 	 10.7451 	 -3.8815
| 39> H 	 -138.908 	 12.0008 	 0.2122
| 40> H 	 -134.712 	 17.66 	 -4.02506
| 41> *
| 42>
| 43>                          ****END OF INPUT****

CARTESIAN COORDINATES (ANGSTROEM)
---------------------------------
  S    -138.217000   13.777600   -1.583330
  C    -138.085000   12.475300   -0.367775
  C    -136.766000   12.125500   -0.169278
  C    -135.894000   12.703500   -1.090490
  C    -136.511000   13.609800   -2.002230
  H    -134.835000   12.645000   -1.155580
  C    -136.327000   11.004800    0.779181
  H    -137.357000   10.473500    0.991863
  H    -136.189000   11.314900    1.820480
  C    -135.303000   10.006600    0.326646
  H    -134.379000   10.581800    0.281192
  H    -135.130000    9.205080    1.022070
  C    -135.661000    9.338090   -1.002860
  H    -135.170000    8.368400   -1.133030
  H    -136.686000    9.040130   -1.023990
  H    -135.438000    9.937210   -1.930060
  S    -136.241000   16.316000   -2.680260
  C    -134.913000   16.704500   -3.664340
  C    -134.232000   15.666500   -4.231940
  C    -134.654000   14.416100   -3.710520
  C    -135.734000   14.591900   -2.820770
  H    -133.398000   15.916000   -4.871520
  C    -134.048000   13.095700   -4.216260
  H    -134.302000   13.093900   -5.263700
  H    -134.513000   12.274400   -3.700880
  C    -132.590000   13.021800   -3.933170
  H    -132.351000   13.565600   -3.082320
  H    -132.029000   13.618300   -4.649100
  C    -131.967000   11.567000   -3.874900
  H    -131.313000   11.342800   -3.052730
  H    -131.247000   11.438400   -4.719340
  H    -132.713000   10.745100   -3.881500
  H    -138.908000   12.000800    0.212200
  H    -134.712000   17.660000   -4.025060

 Total Charge           Charge          ....    0
 Multiplicity           Mult            ....    1
 Number of Electrons    NEL             ....  134
 Basis Dimension        Dim             ....  322

ORBITAL ENERGIES
----------------

  NO   OCC          E(Eh)            E(eV)
   0   2.0000     -88.970907     -2421.0215
   1   2.0000     -88.968303     -2420.9506
   2   2.0000     -10.335185      -281.2347
   3   2.0000     -10.333991      -281.2022
   4   2.0000     -10.319213      -280.8001
   5   2.0000     -10.307040      -280.4688
   6   2.0000     -10.305441      -280.4253
   7   2.0000     -10.301318      -280.3131
   8   2.0000     -10.298653      -280.2406
   9   2.0000     -10.291648      -280.0500
  10   2.0000     -10.289459      -279.9904
  11   2.0000     -10.289034      -279.9788
  12   2.0000     -10.286989      -279.9232
  13   2.0000     -10.284802      -279.8637
  14   2.0000     -10.282008      -279.7877
  15   2.0000     -10.276002      -279.6242
  16   2.0000      -8.084326      -219.9857
  17   2.0000      -8.083252      -219.9565
  18   2.0000      -6.042911      -164.4360
  19   2.0000      -6.041608      -164.4005
  20   2.0000      -6.038987      -164.3292
  21   2.0000      -6.037984      -164.3019
  22   2.0000      -6.035121      -164.2240
  23   2.0000      -6.033913      -164.1911
  24   2.0000      -1.002321       -27.2745
  25   2.0000      -0.983329       -26.7578
  26   2.0000      -0.914946       -24.8969
  27   2.0000      -0.912368       -24.8268
  28   2.0000      -0.864608       -23.5272
  29   2.0000      -0.850916       -23.1546
  30   2.0000      -0.842348       -22.9215
  31   2.0000      -0.811661       -22.0864
  32   2.0000      -0.786421       -21.3996
  33   2.0000      -0.774516       -21.0757
  34   2.0000      -0.712943       -19.4002
  35   2.0000      -0.704715       -19.1763
  36   2.0000      -0.693122       -18.8608
  37   2.0000      -0.655342       -17.8328
  38   2.0000      -0.636604       -17.3229
  39   2.0000      -0.620963       -16.8973
  40   2.0000      -0.599712       -16.3190
  41   2.0000      -0.569314       -15.4918
  42   2.0000      -0.563350       -15.3295
  43   2.0000      -0.549767       -14.9599
  44   2.0000      -0.545282       -14.8379
  45   2.0000      -0.522290       -14.2122
  46   2.0000      -0.519483       -14.1359
  47   2.0000      -0.507516       -13.8102
  48   2.0000      -0.494877       -13.4663
  49   2.0000      -0.490165       -13.3381
  50   2.0000      -0.485819       -13.2198
  51   2.0000      -0.481685       -13.1073
  52   2.0000      -0.470526       -12.8037
  53   2.0000      -0.466215       -12.6864
  54   2.0000      -0.460479       -12.5303
  55   2.0000      -0.454978       -12.3806
  56   2.0000      -0.447604       -12.1799
  57   2.0000      -0.437187       -11.8965
  58   2.0000      -0.435387       -11.8475
  59   2.0000      -0.430888       -11.7251
  60   2.0000      -0.421051       -11.4574
  61   2.0000      -0.410658       -11.1746
  62   2.0000      -0.407470       -11.0878
  63   2.0000      -0.347802        -9.4642
  64   2.0000      -0.336283        -9.1507
  65   2.0000      -0.333608        -9.0779
  66   2.0000      -0.282369        -7.6837
  67   0.0000       0.024867         0.6767
  68   0.0000       0.067042         1.8243
  69   0.0000       0.105302         2.8654
  70   0.0000       0.121341         3.3019
  71   0.0000       0.124433         3.3860

MULLIKEN ATOMIC CHARGES
-----------------------
   0 S :    0.101067
   1 C :   -0.138716
   2 C :   -0.036009
   3 C :    0.011922
   4 C :   -0.136253
   5 H :    0.003689
   6 C :    0.015351
   7 H :    0.011854
   8 H :    0.039237
   9 C :   -0.041946
  10 H :    0.031645
  11 H :    0.029436
  12 C :   -0.057740
  13 H :    0.024932
  14 H :    0.021390
  15 H :    0.048967
  16 S :    0.115659
  17 C :   -0.056137
  18 C :   -0.047432
  19 C :   -0.081322
  20 C :   -0.169849
  21 H :    0.020092
  22 C :    0.145600
  23 H :    0.043171
  24 H :    0.009668
  25 C :   -0.071162
  26 H :    0.016970
  27 H :    0.020277
  28 C :   -0.065957
  29 H :    0.027901
  30 H :    0.034521
  31 H :    0.039677
  32 H :    0.063630
  33 H :    0.025868
Sum of atomic charges:   -0.0000000

LOEWDIN ATOMIC CHARGES
----------------------
   0 S :    0.389882
   1 C :   -0.193676
   2 C :   -0.066660
   3 C :   -0.061065
   4 C :   -0.188727
   5 H :    0.024847
   6 C :   -0.041720
   7 H :    0.033429
   8 H :    0.033091
   9 C :   -0.045055
  10 H :    0.025444
  11 H :    0.029500
  12 C :   -0.069492
  13 H :    0.026021
  14 H :    0.022802
  15 H :    0.031101
  16 S :    0.405387
  17 C :   -0.187137
  18 C :   -0.074872
  19 C :   -0.048932
  20 C :   -0.182956
  21 H :    0.033379
  22 C :   -0.020338
  23 H :    0.036340
  24 H :    0.025325
  25 C :   -0.043220
  26 H :    0.017929
  27 H :    0.025010
  28 C :   -0.072752
  29 H :    0.023958
  30 H :    0.031914
  31 H :    0.027962
  32 H :    0.038788
  33 H :    0.014492

  Mayer bond orders larger than 0.100000
B(  0-S ,  1-C ) :   1.1328 B(  0-S ,  4-C ) :   1.1591 B(  1-C ,  2-C ) :   1.5973
B(  1-C ,  4-C ) :   0.1061 B(  1-C , 32-H ) :   0.9574 B(  2-C ,  3-C ) :   1.2755
B(  2-C ,  6-C ) :   1.0016 B(  3-C ,  4-C ) :   1.5271 B(  3-C ,  5-H ) :   0.9963
B(  4-C , 20-C ) :   1.0467 B(  6-C ,  7-H ) :   0.9398 B(  6-C ,  8-H ) :   0.9366
B(  6-C ,  9-C ) :   1.0836 B(  9-C , 10-H ) :   0.9473 B(  9-C , 11-H ) :   0.9507
B(  9-C , 12-C ) :   1.0776 B( 12-C , 13-H ) :   0.9749 B( 12-C , 14-H ) :   0.9736
B( 12-C , 15-H ) :   0.9708 B( 16-S , 17-C ) :   1.1629 B( 16-S , 20-C ) :   1.1301
B( 17-C , 18-C ) :   1.6431 B( 17-C , 33-H ) :   0.9636 B( 18-C , 19-C ) :   1.2208
B( 18-C , 21-H ) :   0.9908 B( 19-C , 20-C ) :   1.6115 B( 19-C , 22-C ) :   1.0371
B( 22-C , 23-H ) :   0.9324 B( 22-C , 24-H ) :   0.9327 B( 22-C , 25-C ) :   1.0568
B( 25-C , 26-H ) :   0.9638 B( 25-C , 27-H ) :   0.9523 B( 25-C , 28-C ) :   1.0578
B( 28-C , 29-H ) :   0.9794 B( 28-C , 30-H ) :   0.9796 B( 28-C , 31-H ) :   0.9818

Dispersion correction           -0.014713203
FINAL SINGLE POINT ENERGY     -1339.856610251294

DIPOLE MOMENT
-------------
                                X             Y             Z
Electronic contribution:    -19.44999      25.28342      -0.24482
Nuclear contribution   :     20.02266     -25.67462       0.29175
                        -----------------------------------------
Total Dipole Moment    :      0.57267      -0.39119       0.04693
                        -----------------------------------------
Magnitude (a.u.)       :      0.69511
Magnitude (Debye)      :      1.76684

Rotational constants in cm-1:     0.015945     0.010761     0.006876
Rotational constants in MHz :   478.033916   322.594121   206.129298

                             ****ORCA TERMINATED NORMALLY****
TOTAL RUN TIME: 0 days 0 hours 0 minutes 22 seconds 33 msec
