                         Program Version 4.2.1 -  RELEASE  -
|  1> ! wB97X-D3 SP def2-SVP
|  2> %pal
|  3> nprocs 24
|  4> end
|  5>
|  6> * xyz 0 1
|  7> S 	 -134.821 	 7.06972 	 8.75289
|  8> C 	 -133.746 	 7.34148 	 7.36087
|  9> C 	 -133.41 	 6.09718 	 6.80401
| 10> C 	 -134.066 	 4.9802 	 7.43899
| 11> C 	 -134.792 	 5.3468 	 8.55848
| 12> H 	 -134.006 	 3.94053 	 7.17567
| 13> C 	 -132.535 	 5.77189 	 5.59169
| 14> H 	 -132.451 	 4.71008 	 5.54594
| 15> H 	 -131.572 	 6.29612 	 5.76378
| 16> C 	 -133.069 	 6.36796 	 4.30029
| 17> H 	 -133.959 	 5.85598 	 4.10294
| 18> H 	 -133.276 	 7.43886 	 4.35428
| 19> C 	 -132.052 	 6.14297 	 3.15055
| 20> H 	 -132.554 	 6.2861 	 2.1808
| 21> H 	 -131.307 	 6.90954 	 3.08191
| 22> H 	 -131.569 	 5.16866 	 3.12198
| 23> S 	 -134.764 	 3.51167 	 10.5161
| 24> C 	 -136.194 	 3.21377 	 11.4445
| 25> C 	 -137.275 	 3.74212 	 10.7952
| 26> C 	 -137.015 	 4.55964 	 9.63001
| 27> C 	 -135.678 	 4.50933 	 9.38507
| 28> H 	 -138.236 	 3.50248 	 11.1709
| 29> C 	 -138.02 	 5.33369 	 8.8863
| 30> H 	 -137.768 	 5.48968 	 7.84797
| 31> H 	 -138.097 	 6.34712 	 9.30714
| 32> C 	 -139.393 	 4.7316 	 8.94584
| 33> H 	 -140.069 	 5.46072 	 8.52847
| 34> H 	 -139.791 	 4.54818 	 9.93308
| 35> C 	 -139.447 	 3.36445 	 8.22138
| 36> H 	 -140.452 	 3.24935 	 7.79774
| 37> H 	 -139.319 	 2.45345 	 8.78498
| 38> H 	 -138.739 	 3.37378 	 7.34834
| 39> H 	 -133.15 	 8.20419 	 7.07363
| 40> H 	 -136.281 	 2.42854 	 12.1689
| 41> *
| 42>
| 43>                          ****END OF INPUT****

CARTESIAN COORDINATES (ANGSTROEM)
---------------------------------
  S    -134.821000    7.069720    8.752890
  C    -133.746000    7.341480    7.360870
  C    -133.410000    6.097180    6.804010
  C    -134.066000    4.980200    7.438990
  C    -134.792000    5.346800    8.558480
  H    -134.006000    3.940530    7.175670
  C    -132.535000    5.771890    5.591690
  H    -132.451000    4.710080    5.545940
  H    -131.572000    6.296120    5.763780
  C    -133.069000    6.367960    4.300290
  H    -133.959000    5.855980    4.102940
  H    -133.276000    7.438860    4.354280
  C    -132.052000    6.142970    3.150550
  H    -132.554000    6.286100    2.180800
  H    -131.307000    6.909540    3.081910
  H    -131.569000    5.168660    3.121980
  S    -134.764000    3.511670   10.516100
  C    -136.194000    3.213770   11.444500
  C    -137.275000    3.742120   10.795200
  C    -137.015000    4.559640    9.630010
  C    -135.678000    4.509330    9.385070
  H    -138.236000    3.502480   11.170900
  C    -138.020000    5.333690    8.886300
  H    -137.768000    5.489680    7.847970
  H    -138.097000    6.347120    9.307140
  C    -139.393000    4.731600    8.945840
  H    -140.069000    5.460720    8.528470
  H    -139.791000    4.548180    9.933080
  C    -139.447000    3.364450    8.221380
  H    -140.452000    3.249350    7.797740
  H    -139.319000    2.453450    8.784980
  H    -138.739000    3.373780    7.348340
  H    -133.150000    8.204190    7.073630
  H    -136.281000    2.428540   12.168900

 Total Charge           Charge          ....    0
 Multiplicity           Mult            ....    1
 Number of Electrons    NEL             ....  134
 Basis Dimension        Dim             ....  322

ORBITAL ENERGIES
----------------

  NO   OCC          E(Eh)            E(eV)
   0   2.0000     -88.967461     -2420.9277
   1   2.0000     -88.960157     -2420.7289
   2   2.0000     -10.326885      -281.0088
   3   2.0000     -10.322606      -280.8924
   4   2.0000     -10.316088      -280.7150
   5   2.0000     -10.311063      -280.5783
   6   2.0000     -10.302381      -280.3420
   7   2.0000     -10.301310      -280.3129
   8   2.0000     -10.291285      -280.0401
   9   2.0000     -10.290174      -280.0099
  10   2.0000     -10.289936      -280.0034
  11   2.0000     -10.287494      -279.9369
  12   2.0000     -10.283250      -279.8214
  13   2.0000     -10.281952      -279.7861
  14   2.0000     -10.277575      -279.6670
  15   2.0000     -10.276041      -279.6253
  16   2.0000      -8.081342      -219.9045
  17   2.0000      -8.075422      -219.7434
  18   2.0000      -6.040000      -164.3568
  19   2.0000      -6.035809      -164.2427
  20   2.0000      -6.033996      -164.1934
  21   2.0000      -6.032150      -164.1431
  22   2.0000      -6.029809      -164.0795
  23   2.0000      -6.026120      -163.9791
  24   2.0000      -1.007349       -27.4114
  25   2.0000      -0.981815       -26.7166
  26   2.0000      -0.919372       -25.0174
  27   2.0000      -0.913137       -24.8477
  28   2.0000      -0.867104       -23.5951
  29   2.0000      -0.846823       -23.0432
  30   2.0000      -0.844129       -22.9699
  31   2.0000      -0.811561       -22.0837
  32   2.0000      -0.785576       -21.3766
  33   2.0000      -0.773802       -21.0562
  34   2.0000      -0.708527       -19.2800
  35   2.0000      -0.704153       -19.1610
  36   2.0000      -0.695193       -18.9172
  37   2.0000      -0.658429       -17.9168
  38   2.0000      -0.637154       -17.3379
  39   2.0000      -0.616279       -16.7698
  40   2.0000      -0.605744       -16.4831
  41   2.0000      -0.576669       -15.6920
  42   2.0000      -0.564273       -15.3546
  43   2.0000      -0.557920       -15.1818
  44   2.0000      -0.533849       -14.5268
  45   2.0000      -0.522190       -14.2095
  46   2.0000      -0.518005       -14.0956
  47   2.0000      -0.512934       -13.9576
  48   2.0000      -0.502363       -13.6700
  49   2.0000      -0.499705       -13.5977
  50   2.0000      -0.491098       -13.3634
  51   2.0000      -0.476414       -12.9639
  52   2.0000      -0.471502       -12.8302
  53   2.0000      -0.465700       -12.6723
  54   2.0000      -0.456780       -12.4296
  55   2.0000      -0.446422       -12.1478
  56   2.0000      -0.444887       -12.1060
  57   2.0000      -0.438097       -11.9212
  58   2.0000      -0.430840       -11.7238
  59   2.0000      -0.427817       -11.6415
  60   2.0000      -0.423282       -11.5181
  61   2.0000      -0.415395       -11.3035
  62   2.0000      -0.410637       -11.1740
  63   2.0000      -0.337988        -9.1971
  64   2.0000      -0.330200        -8.9852
  65   2.0000      -0.324302        -8.8247
  66   2.0000      -0.301652        -8.2084
  67   0.0000       0.038432         1.0458
  68   0.0000       0.061805         1.6818
  69   0.0000       0.112199         3.0531
  70   0.0000       0.118588         3.2269
  71   0.0000       0.130153         3.5417

MULLIKEN ATOMIC CHARGES
-----------------------
   0 S :    0.117859
   1 C :   -0.119945
   2 C :   -0.107606
   3 C :    0.026075
   4 C :   -0.144668
   5 H :    0.009141
   6 C :    0.077858
   7 H :    0.018767
   8 H :    0.031537
   9 C :   -0.054144
  10 H :    0.016203
  11 H :    0.032123
  12 C :   -0.045857
  13 H :    0.024865
  14 H :    0.023193
  15 H :    0.033216
  16 S :    0.099716
  17 C :   -0.068625
  18 C :   -0.048025
  19 C :   -0.010622
  20 C :   -0.193707
  21 H :    0.000038
  22 C :    0.095386
  23 H :    0.033953
  24 H :    0.040009
  25 C :   -0.078073
  26 H :    0.025055
  27 H :    0.024969
  28 C :   -0.064975
  29 H :    0.027055
  30 H :    0.038335
  31 H :    0.034709
  32 H :    0.052401
  33 H :    0.053785
Sum of atomic charges:    0.0000000

LOEWDIN ATOMIC CHARGES
----------------------
   0 S :    0.411907
   1 C :   -0.210313
   2 C :   -0.054184
   3 C :   -0.070563
   4 C :   -0.200596
   5 H :    0.029634
   6 C :   -0.027295
   7 H :    0.025844
   8 H :    0.035116
   9 C :   -0.031658
  10 H :    0.016180
  11 H :    0.027084
  12 C :   -0.068552
  13 H :    0.028336
  14 H :    0.020697
  15 H :    0.024449
  16 S :    0.405233
  17 C :   -0.189388
  18 C :   -0.062275
  19 C :   -0.055874
  20 C :   -0.190808
  21 H :    0.020768
  22 C :   -0.034793
  23 H :    0.033889
  24 H :    0.040025
  25 C :   -0.040907
  26 H :    0.025711
  27 H :    0.021038
  28 C :   -0.070781
  29 H :    0.027722
  30 H :    0.023904
  31 H :    0.029430
  32 H :    0.033583
  33 H :    0.027437

  Mayer bond orders larger than 0.100000
B(  0-S ,  1-C ) :   1.1255 B(  0-S ,  4-C ) :   1.1602 B(  1-C ,  2-C ) :   1.6113
B(  1-C , 32-H ) :   0.9639 B(  2-C ,  3-C ) :   1.2405 B(  2-C ,  6-C ) :   1.0234
B(  3-C ,  4-C ) :   1.5847 B(  3-C ,  5-H ) :   0.9912 B(  4-C , 20-C ) :   0.9759
B(  6-C ,  7-H ) :   0.9426 B(  6-C ,  8-H ) :   0.9348 B(  6-C ,  9-C ) :   1.0731
B(  9-C , 10-H ) :   0.9564 B(  9-C , 11-H ) :   0.9561 B(  9-C , 12-C ) :   1.0804
B( 12-C , 13-H ) :   0.9734 B( 12-C , 14-H ) :   0.9755 B( 12-C , 15-H ) :   0.9754
B( 16-S , 17-C ) :   1.1425 B( 16-S , 20-C ) :   1.1539 B( 17-C , 18-C ) :   1.6390
B( 17-C , 33-H ) :   0.9624 B( 18-C , 19-C ) :   1.1984 B( 18-C , 21-H ) :   0.9898
B( 19-C , 20-C ) :   1.6251 B( 19-C , 22-C ) :   1.0488 B( 22-C , 23-H ) :   0.9329
B( 22-C , 24-H ) :   0.9113 B( 22-C , 25-C ) :   1.0994 B( 25-C , 26-H ) :   0.9531
B( 25-C , 27-H ) :   0.9477 B( 25-C , 28-C ) :   1.0637 B( 28-C , 29-H ) :   0.9747
B( 28-C , 30-H ) :   0.9755 B( 28-C , 31-H ) :   0.9782

Dispersion correction           -0.014098283
FINAL SINGLE POINT ENERGY     -1339.877117777946

DIPOLE MOMENT
-------------
                                X             Y             Z
Electronic contribution:      6.18457       0.93908      21.80024
Nuclear contribution   :     -6.46840      -1.03492     -22.22496
                        -----------------------------------------
Total Dipole Moment    :     -0.28382      -0.09584      -0.42472
                        -----------------------------------------
Magnitude (a.u.)       :      0.51974
Magnitude (Debye)      :      1.32108

Rotational constants in cm-1:     0.022193     0.007124     0.006463
Rotational constants in MHz :   665.333637   213.579979   193.755763

                             ****ORCA TERMINATED NORMALLY****
TOTAL RUN TIME: 0 days 0 hours 0 minutes 20 seconds 139 msec
