                         Program Version 4.2.1 -  RELEASE  -
|  1> ! wB97X-D3 SP def2-SVP
|  2> %pal
|  3> nprocs 24
|  4> end
|  5>
|  6> * xyz 0 1
|  7> S 	 -32.1795 	 -34.1499 	 -92.829
|  8> C 	 -32.3038 	 -32.8123 	 -93.9896
|  9> C 	 -31.0152 	 -32.5429 	 -94.528
| 10> C 	 -30.0033 	 -33.4824 	 -94.0726
| 11> C 	 -30.4293 	 -34.2577 	 -92.9774
| 12> H 	 -28.987 	 -33.4829 	 -94.4204
| 13> C 	 -30.7224 	 -31.4503 	 -95.5352
| 14> H 	 -29.602 	 -31.4457 	 -95.8225
| 15> H 	 -30.7708 	 -30.5255 	 -94.9706
| 16> C 	 -31.6201 	 -31.4552 	 -96.8365
| 17> H 	 -32.6787 	 -31.453 	 -96.5802
| 18> H 	 -31.4093 	 -30.5047 	 -97.3323
| 19> C 	 -31.362 	 -32.6587 	 -97.7531
| 20> H 	 -30.9321 	 -33.5462 	 -97.2088
| 21> H 	 -32.2036 	 -32.992 	 -98.338
| 22> H 	 -30.4647 	 -32.3963 	 -98.3548
| 23> S 	 -30.2412 	 -36.8607 	 -92.4482
| 24> C 	 -29.1833 	 -37.4599 	 -91.2406
| 25> C 	 -28.1302 	 -36.5535 	 -91.0955
| 26> C 	 -28.4739 	 -35.2831 	 -91.6257
| 27> C 	 -29.6771 	 -35.2684 	 -92.3096
| 28> H 	 -27.2829 	 -36.8495 	 -90.5302
| 29> C 	 -27.5209 	 -34.1307 	 -91.6388
| 30> H 	 -28.0098 	 -33.2272 	 -92.0199
| 31> H 	 -26.7608 	 -34.4227 	 -92.4781
| 32> C 	 -26.6554 	 -33.9137 	 -90.3356
| 33> H 	 -26.1245 	 -34.7855 	 -90.1554
| 34> H 	 -27.3284 	 -33.8389 	 -89.4146
| 35> C 	 -25.7297 	 -32.7035 	 -90.4798
| 36> H 	 -25.2201 	 -32.6555 	 -89.4806
| 37> H 	 -26.422 	 -31.8479 	 -90.6253
| 38> H 	 -24.9967 	 -32.6596 	 -91.2973
| 39> H 	 -33.192 	 -32.2612 	 -94.2335
| 40> H 	 -29.1866 	 -38.442 	 -90.9174
| 41> *
| 42>
| 43>                          ****END OF INPUT****

CARTESIAN COORDINATES (ANGSTROEM)
---------------------------------
  S    -32.179500  -34.149900  -92.829000
  C    -32.303800  -32.812300  -93.989600
  C    -31.015200  -32.542900  -94.528000
  C    -30.003300  -33.482400  -94.072600
  C    -30.429300  -34.257700  -92.977400
  H    -28.987000  -33.482900  -94.420400
  C    -30.722400  -31.450300  -95.535200
  H    -29.602000  -31.445700  -95.822500
  H    -30.770800  -30.525500  -94.970600
  C    -31.620100  -31.455200  -96.836500
  H    -32.678700  -31.453000  -96.580200
  H    -31.409300  -30.504700  -97.332300
  C    -31.362000  -32.658700  -97.753100
  H    -30.932100  -33.546200  -97.208800
  H    -32.203600  -32.992000  -98.338000
  H    -30.464700  -32.396300  -98.354800
  S    -30.241200  -36.860700  -92.448200
  C    -29.183300  -37.459900  -91.240600
  C    -28.130200  -36.553500  -91.095500
  C    -28.473900  -35.283100  -91.625700
  C    -29.677100  -35.268400  -92.309600
  H    -27.282900  -36.849500  -90.530200
  C    -27.520900  -34.130700  -91.638800
  H    -28.009800  -33.227200  -92.019900
  H    -26.760800  -34.422700  -92.478100
  C    -26.655400  -33.913700  -90.335600
  H    -26.124500  -34.785500  -90.155400
  H    -27.328400  -33.838900  -89.414600
  C    -25.729700  -32.703500  -90.479800
  H    -25.220100  -32.655500  -89.480600
  H    -26.422000  -31.847900  -90.625300
  H    -24.996700  -32.659600  -91.297300
  H    -33.192000  -32.261200  -94.233500
  H    -29.186600  -38.442000  -90.917400

 Total Charge           Charge          ....    0
 Multiplicity           Mult            ....    1
 Number of Electrons    NEL             ....  134
 Basis Dimension        Dim             ....  322

ORBITAL ENERGIES
----------------

  NO   OCC          E(Eh)            E(eV)
   0   2.0000     -88.968307     -2420.9507
   1   2.0000     -88.959200     -2420.7029
   2   2.0000     -10.331095      -281.1234
   3   2.0000     -10.320314      -280.8300
   4   2.0000     -10.315164      -280.6899
   5   2.0000     -10.309188      -280.5273
   6   2.0000     -10.308390      -280.5056
   7   2.0000     -10.301661      -280.3225
   8   2.0000     -10.299460      -280.2626
   9   2.0000     -10.299065      -280.2518
  10   2.0000     -10.296410      -280.1795
  11   2.0000     -10.292855      -280.0828
  12   2.0000     -10.291147      -280.0363
  13   2.0000     -10.288308      -279.9591
  14   2.0000     -10.284679      -279.8603
  15   2.0000     -10.280135      -279.7367
  16   2.0000      -8.082088      -219.9248
  17   2.0000      -8.075903      -219.7565
  18   2.0000      -6.040653      -164.3745
  19   2.0000      -6.036591      -164.2640
  20   2.0000      -6.034221      -164.1995
  21   2.0000      -6.032956      -164.1651
  22   2.0000      -6.030177      -164.0895
  23   2.0000      -6.026682      -163.9944
  24   2.0000      -1.014236       -27.5988
  25   2.0000      -0.980311       -26.6756
  26   2.0000      -0.906176       -24.6583
  27   2.0000      -0.904096       -24.6017
  28   2.0000      -0.870198       -23.6793
  29   2.0000      -0.852282       -23.1918
  30   2.0000      -0.842556       -22.9271
  31   2.0000      -0.812622       -22.1126
  32   2.0000      -0.776828       -21.1386
  33   2.0000      -0.765911       -20.8415
  34   2.0000      -0.706439       -19.2232
  35   2.0000      -0.705627       -19.2011
  36   2.0000      -0.699378       -19.0310
  37   2.0000      -0.659173       -17.9370
  38   2.0000      -0.639122       -17.3914
  39   2.0000      -0.612116       -16.6565
  40   2.0000      -0.595791       -16.2123
  41   2.0000      -0.574628       -15.6364
  42   2.0000      -0.557370       -15.1668
  43   2.0000      -0.551726       -15.0132
  44   2.0000      -0.541016       -14.7218
  45   2.0000      -0.528438       -14.3795
  46   2.0000      -0.516122       -14.0444
  47   2.0000      -0.511971       -13.9314
  48   2.0000      -0.505999       -13.7689
  49   2.0000      -0.501320       -13.6416
  50   2.0000      -0.487185       -13.2570
  51   2.0000      -0.475208       -12.9311
  52   2.0000      -0.472998       -12.8709
  53   2.0000      -0.467304       -12.7160
  54   2.0000      -0.457162       -12.4400
  55   2.0000      -0.448338       -12.1999
  56   2.0000      -0.443804       -12.0765
  57   2.0000      -0.434892       -11.8340
  58   2.0000      -0.429262       -11.6808
  59   2.0000      -0.421396       -11.4668
  60   2.0000      -0.417855       -11.3704
  61   2.0000      -0.415112       -11.2958
  62   2.0000      -0.411154       -11.1881
  63   2.0000      -0.341993        -9.3061
  64   2.0000      -0.326325        -8.8798
  65   2.0000      -0.321243        -8.7415
  66   2.0000      -0.291233        -7.9248
  67   0.0000       0.022927         0.6239
  68   0.0000       0.066957         1.8220
  69   0.0000       0.105962         2.8834
  70   0.0000       0.118289         3.2188
  71   0.0000       0.129331         3.5193

MULLIKEN ATOMIC CHARGES
-----------------------
   0 S :    0.119261
   1 C :   -0.119255
   2 C :   -0.092781
   3 C :    0.041863
   4 C :   -0.162162
   5 H :    0.016004
   6 C :    0.013878
   7 H :    0.028906
   8 H :    0.041433
   9 C :   -0.057405
  10 H :    0.027255
  11 H :    0.034866
  12 C :   -0.068155
  13 H :    0.041184
  14 H :    0.047055
  15 H :    0.028578
  16 S :    0.111712
  17 C :   -0.070387
  18 C :   -0.039504
  19 C :   -0.004451
  20 C :   -0.152662
  21 H :    0.013323
  22 C :   -0.002238
  23 H :    0.027800
  24 H :    0.049062
  25 C :   -0.081509
  26 H :    0.012249
  27 H :    0.044003
  28 C :   -0.051195
  29 H :    0.044310
  30 H :    0.035276
  31 H :    0.039695
  32 H :    0.051313
  33 H :    0.032674
Sum of atomic charges:   -0.0000000

LOEWDIN ATOMIC CHARGES
----------------------
   0 S :    0.406610
   1 C :   -0.193925
   2 C :   -0.060635
   3 C :   -0.056999
   4 C :   -0.197094
   5 H :    0.028019
   6 C :   -0.042105
   7 H :    0.035622
   8 H :    0.034147
   9 C :   -0.039170
  10 H :    0.020340
  11 H :    0.025283
  12 C :   -0.075059
  13 H :    0.034265
  14 H :    0.026205
  15 H :    0.029732
  16 S :    0.444410
  17 C :   -0.180282
  18 C :   -0.067114
  19 C :   -0.061307
  20 C :   -0.226371
  21 H :    0.025786
  22 C :   -0.040029
  23 H :    0.025853
  24 H :    0.044561
  25 C :   -0.042210
  26 H :    0.007908
  27 H :    0.034637
  28 C :   -0.069676
  29 H :    0.034427
  30 H :    0.029271
  31 H :    0.025458
  32 H :    0.026654
  33 H :    0.012784

  Mayer bond orders larger than 0.100000
B(  0-S ,  1-C ) :   1.1417 B(  0-S ,  4-C ) :   1.1578 B(  1-C ,  2-C ) :   1.5743
B(  1-C ,  4-C ) :   0.1065 B(  1-C , 32-H ) :   0.9741 B(  2-C ,  3-C ) :   1.2597
B(  2-C ,  6-C ) :   1.0156 B(  3-C ,  4-C ) :   1.5277 B(  3-C ,  5-H ) :   0.9883
B(  4-C , 20-C ) :   1.0604 B(  6-C ,  7-H ) :   0.9503 B(  6-C ,  8-H ) :   0.9361
B(  6-C ,  9-C ) :   1.0648 B(  9-C , 10-H ) :   0.9620 B(  9-C , 11-H ) :   0.9601
B(  9-C , 12-C ) :   1.0574 B( 12-C , 13-H ) :   0.9786 B( 12-C , 14-H ) :   0.9778
B( 12-C , 15-H ) :   0.9739 B( 16-S , 17-C ) :   1.1825 B( 16-S , 20-C ) :   1.1701
B( 17-C , 18-C ) :   1.5582 B( 17-C , 20-C ) :   0.1054 B( 17-C , 33-H ) :   0.9795
B( 18-C , 19-C ) :   1.2555 B( 18-C , 21-H ) :   0.9988 B( 19-C , 20-C ) :   1.5504
B( 19-C , 22-C ) :   1.0623 B( 22-C , 23-H ) :   0.9363 B( 22-C , 24-H ) :   0.9321
B( 22-C , 25-C ) :   1.0468 B( 25-C , 26-H ) :   0.9503 B( 25-C , 27-H ) :   0.9588
B( 25-C , 28-C ) :   1.0788 B( 28-C , 29-H ) :   0.9735 B( 28-C , 30-H ) :   0.9762
B( 28-C , 31-H ) :   0.9758

Dispersion correction           -0.013807986
FINAL SINGLE POINT ENERGY     -1339.860372632730

DIPOLE MOMENT
-------------
                                X             Y             Z
Electronic contribution:    -15.03874     -17.38324       8.25666
Nuclear contribution   :     15.53570      17.70078      -8.48739
                        -----------------------------------------
Total Dipole Moment    :      0.49696       0.31753      -0.23073
                        -----------------------------------------
Magnitude (a.u.)       :      0.63327
Magnitude (Debye)      :      1.60965

Rotational constants in cm-1:     0.018969     0.007951     0.006378
Rotational constants in MHz :   568.664572   238.360820   191.206496

                             ****ORCA TERMINATED NORMALLY****
TOTAL RUN TIME: 0 days 0 hours 0 minutes 21 seconds 116 msec
