                         Program Version 4.2.1 -  RELEASE  -
|  1> ! wB97X-D3 SP def2-SVP
|  2> %pal
|  3> nprocs 24
|  4> end
|  5>
|  6> * xyz 0 1
|  7> S 	 15.1845 	 -12.7922 	 -122.624
|  8> C 	 14.602 	 -11.7453 	 -123.922
|  9> C 	 14.7169 	 -10.4173 	 -123.598
| 10> C 	 15.3473 	 -10.2518 	 -122.3
| 11> C 	 15.7331 	 -11.3782 	 -121.729
| 12> H 	 15.6668 	 -9.27198 	 -121.92
| 13> C 	 14.4037 	 -9.38101 	 -124.614
| 14> H 	 13.9362 	 -9.8226 	 -125.546
| 15> H 	 15.4216 	 -9.09408 	 -124.94
| 16> C 	 13.4698 	 -8.27801 	 -124.17
| 17> H 	 12.4227 	 -8.56501 	 -124.367
| 18> H 	 13.6879 	 -8.08842 	 -123.101
| 19> C 	 13.7072 	 -6.95204 	 -124.922
| 20> H 	 12.9545 	 -6.23611 	 -124.538
| 21> H 	 14.6406 	 -6.52224 	 -124.569
| 22> H 	 13.6038 	 -7.04857 	 -125.993
| 23> S 	 16.1438 	 -10.5886 	 -119.12
| 24> C 	 17.3033 	 -11.3549 	 -118.16
| 25> C 	 18.2032 	 -12.0604 	 -118.956
| 26> C 	 17.7642 	 -12.2139 	 -120.321
| 27> C 	 16.537 	 -11.5313 	 -120.524
| 28> H 	 19.0138 	 -12.6078 	 -118.442
| 29> C 	 18.5615 	 -12.95 	 -121.396
| 30> H 	 19.6542 	 -12.7912 	 -121.244
| 31> H 	 18.3547 	 -12.4497 	 -122.356
| 32> C 	 18.2124 	 -14.4944 	 -121.5
| 33> H 	 17.1476 	 -14.5455 	 -121.7
| 34> H 	 18.3611 	 -15.0118 	 -120.487
| 35> C 	 19.0023 	 -15.0699 	 -122.644
| 36> H 	 18.8454 	 -14.423 	 -123.526
| 37> H 	 18.7167 	 -16.1923 	 -122.863
| 38> H 	 20.0156 	 -14.953 	 -122.331
| 39> H 	 14.3479 	 -12.0663 	 -124.906
| 40> H 	 17.5045 	 -11.3091 	 -117.034
| 41> *
| 42>
| 43>                          ****END OF INPUT****

CARTESIAN COORDINATES (ANGSTROEM)
---------------------------------
  S     15.184500  -12.792200  -122.624000
  C     14.602000  -11.745300  -123.922000
  C     14.716900  -10.417300  -123.598000
  C     15.347300  -10.251800  -122.300000
  C     15.733100  -11.378200  -121.729000
  H     15.666800   -9.271980  -121.920000
  C     14.403700   -9.381010  -124.614000
  H     13.936200   -9.822600  -125.546000
  H     15.421600   -9.094080  -124.940000
  C     13.469800   -8.278010  -124.170000
  H     12.422700   -8.565010  -124.367000
  H     13.687900   -8.088420  -123.101000
  C     13.707200   -6.952040  -124.922000
  H     12.954500   -6.236110  -124.538000
  H     14.640600   -6.522240  -124.569000
  H     13.603800   -7.048570  -125.993000
  S     16.143800  -10.588600  -119.120000
  C     17.303300  -11.354900  -118.160000
  C     18.203200  -12.060400  -118.956000
  C     17.764200  -12.213900  -120.321000
  C     16.537000  -11.531300  -120.524000
  H     19.013800  -12.607800  -118.442000
  C     18.561500  -12.950000  -121.396000
  H     19.654200  -12.791200  -121.244000
  H     18.354700  -12.449700  -122.356000
  C     18.212400  -14.494400  -121.500000
  H     17.147600  -14.545500  -121.700000
  H     18.361100  -15.011800  -120.487000
  C     19.002300  -15.069900  -122.644000
  H     18.845400  -14.423000  -123.526000
  H     18.716700  -16.192300  -122.863000
  H     20.015600  -14.953000  -122.331000
  H     14.347900  -12.066300  -124.906000
  H     17.504500  -11.309100  -117.034000

 Total Charge           Charge          ....    0
 Multiplicity           Mult            ....    1
 Number of Electrons    NEL             ....  134
 Basis Dimension        Dim             ....  322

ORBITAL ENERGIES
----------------

  NO   OCC          E(Eh)            E(eV)
   0   2.0000     -88.968323     -2420.9511
   1   2.0000     -88.963306     -2420.8146
   2   2.0000     -10.326464      -280.9974
   3   2.0000     -10.326144      -280.9887
   4   2.0000     -10.319473      -280.8071
   5   2.0000     -10.309293      -280.5301
   6   2.0000     -10.307504      -280.4814
   7   2.0000     -10.299323      -280.2588
   8   2.0000     -10.296637      -280.1857
   9   2.0000     -10.295296      -280.1493
  10   2.0000     -10.294057      -280.1155
  11   2.0000     -10.292500      -280.0732
  12   2.0000     -10.289158      -279.9822
  13   2.0000     -10.287275      -279.9310
  14   2.0000     -10.281107      -279.7631
  15   2.0000     -10.279257      -279.7128
  16   2.0000      -8.083937      -219.9751
  17   2.0000      -8.077499      -219.7999
  18   2.0000      -6.042366      -164.4211
  19   2.0000      -6.038223      -164.3084
  20   2.0000      -6.036177      -164.2527
  21   2.0000      -6.034831      -164.2161
  22   2.0000      -6.032207      -164.1447
  23   2.0000      -6.027988      -164.0299
  24   2.0000      -1.010816       -27.5057
  25   2.0000      -0.988086       -26.8872
  26   2.0000      -0.916327       -24.9345
  27   2.0000      -0.904441       -24.6111
  28   2.0000      -0.871812       -23.7232
  29   2.0000      -0.851455       -23.1693
  30   2.0000      -0.845822       -23.0160
  31   2.0000      -0.817652       -22.2494
  32   2.0000      -0.778983       -21.1972
  33   2.0000      -0.764062       -20.7912
  34   2.0000      -0.705180       -19.1889
  35   2.0000      -0.690110       -18.7789
  36   2.0000      -0.687689       -18.7130
  37   2.0000      -0.659506       -17.9461
  38   2.0000      -0.633418       -17.2362
  39   2.0000      -0.624600       -16.9962
  40   2.0000      -0.592085       -16.1114
  41   2.0000      -0.570344       -15.5198
  42   2.0000      -0.562983       -15.3195
  43   2.0000      -0.560386       -15.2489
  44   2.0000      -0.525280       -14.2936
  45   2.0000      -0.524153       -14.2629
  46   2.0000      -0.518664       -14.1136
  47   2.0000      -0.508039       -13.8244
  48   2.0000      -0.503347       -13.6968
  49   2.0000      -0.501347       -13.6423
  50   2.0000      -0.491958       -13.3869
  51   2.0000      -0.480429       -13.0731
  52   2.0000      -0.470846       -12.8124
  53   2.0000      -0.466481       -12.6936
  54   2.0000      -0.457482       -12.4487
  55   2.0000      -0.452199       -12.3050
  56   2.0000      -0.439668       -11.9640
  57   2.0000      -0.431820       -11.7504
  58   2.0000      -0.430503       -11.7146
  59   2.0000      -0.425274       -11.5723
  60   2.0000      -0.420727       -11.4486
  61   2.0000      -0.416023       -11.3206
  62   2.0000      -0.405149       -11.0247
  63   2.0000      -0.350020        -9.5245
  64   2.0000      -0.330360        -8.9895
  65   2.0000      -0.325261        -8.8508
  66   2.0000      -0.293263        -7.9801
  67   0.0000       0.031658         0.8615
  68   0.0000       0.073652         2.0042
  69   0.0000       0.105285         2.8649
  70   0.0000       0.115991         3.1563
  71   0.0000       0.130466         3.5502

MULLIKEN ATOMIC CHARGES
-----------------------
   0 S :    0.095726
   1 C :   -0.113792
   2 C :   -0.083873
   3 C :    0.010350
   4 C :   -0.127752
   5 H :    0.017953
   6 C :    0.038012
   7 H :    0.024128
   8 H :    0.042663
   9 C :   -0.091947
  10 H :    0.043728
  11 H :    0.036723
  12 C :   -0.053400
  13 H :    0.032581
  14 H :    0.029825
  15 H :    0.040085
  16 S :    0.133143
  17 C :   -0.118250
  18 C :   -0.058983
  19 C :   -0.015836
  20 C :   -0.164819
  21 H :    0.029973
  22 C :    0.006975
  23 H :    0.032674
  24 H :    0.033598
  25 C :   -0.082971
  26 H :    0.023841
  27 H :    0.040878
  28 C :   -0.033706
  29 H :    0.033208
  30 H :    0.057583
  31 H :    0.022450
  32 H :    0.034813
  33 H :    0.084420
Sum of atomic charges:    0.0000000

LOEWDIN ATOMIC CHARGES
----------------------
   0 S :    0.393005
   1 C :   -0.190122
   2 C :   -0.058379
   3 C :   -0.073965
   4 C :   -0.179978
   5 H :    0.032643
   6 C :   -0.041186
   7 H :    0.035677
   8 H :    0.036856
   9 C :   -0.042930
  10 H :    0.030238
  11 H :    0.026659
  12 C :   -0.064016
  13 H :    0.029553
  14 H :    0.023539
  15 H :    0.022595
  16 S :    0.444763
  17 C :   -0.222304
  18 C :   -0.083059
  19 C :   -0.049468
  20 C :   -0.211486
  21 H :    0.034295
  22 C :   -0.037813
  23 H :    0.032862
  24 H :    0.030082
  25 C :   -0.045492
  26 H :    0.007773
  27 H :    0.029586
  28 C :   -0.071157
  29 H :    0.028648
  30 H :    0.039532
  31 H :    0.019555
  32 H :    0.021427
  33 H :    0.052067

  Mayer bond orders larger than 0.100000
B(  0-S ,  1-C ) :   1.1043 B(  0-S ,  4-C ) :   1.1278 B(  1-C ,  2-C ) :   1.6677
B(  1-C , 32-H ) :   0.9686 B(  2-C ,  3-C ) :   1.1873 B(  2-C ,  6-C ) :   1.0280
B(  3-C ,  4-C ) :   1.6474 B(  3-C ,  5-H ) :   0.9862 B(  4-C , 20-C ) :   1.0274
B(  6-C ,  7-H ) :   0.9385 B(  6-C ,  8-H ) :   0.9441 B(  6-C ,  9-C ) :   1.0435
B(  9-C , 10-H ) :   0.9563 B(  9-C , 11-H ) :   0.9653 B(  9-C , 12-C ) :   1.0825
B( 12-C , 13-H ) :   0.9737 B( 12-C , 14-H ) :   0.9780 B( 12-C , 15-H ) :   0.9755
B( 16-S , 17-C ) :   1.1798 B( 16-S , 20-C ) :   1.1566 B( 17-C , 18-C ) :   1.5918
B( 17-C , 33-H ) :   0.9564 B( 18-C , 19-C ) :   1.2672 B( 18-C , 21-H ) :   0.9829
B( 19-C , 20-C ) :   1.5404 B( 19-C , 22-C ) :   1.0430 B( 22-C , 23-H ) :   0.9434
B( 22-C , 24-H ) :   0.9321 B( 22-C , 25-C ) :   1.0494 B( 25-C , 26-H ) :   0.9482
B( 25-C , 27-H ) :   0.9567 B( 25-C , 28-C ) :   1.0735 B( 28-C , 29-H ) :   0.9697
B( 28-C , 30-H ) :   0.9707 B( 28-C , 31-H ) :   0.9734

Dispersion correction           -0.014115003
FINAL SINGLE POINT ENERGY     -1339.875476651493

DIPOLE MOMENT
-------------
                                X             Y             Z
Electronic contribution:     -3.77018      -3.44234      16.11830
Nuclear contribution   :      4.06982       3.69696     -16.38264
                        -----------------------------------------
Total Dipole Moment    :      0.29964       0.25462      -0.26434
                        -----------------------------------------
Magnitude (a.u.)       :      0.47381
Magnitude (Debye)      :      1.20432

Rotational constants in cm-1:     0.019775     0.008179     0.006353
Rotational constants in MHz :   592.829605   245.207850   190.472759

                             ****ORCA TERMINATED NORMALLY****
TOTAL RUN TIME: 0 days 0 hours 0 minutes 20 seconds 152 msec
