                         Program Version 4.2.1 -  RELEASE  -
|  1> ! wB97X-D3 SP def2-SVP
|  2> %pal
|  3> nprocs 24
|  4> end
|  5>
|  6> * xyz 0 1
|  7> S 	 -52.8702 	 11.1633 	 -104.48
|  8> C 	 -54.0528 	 10.1893 	 -105.394
|  9> C 	 -55.0884 	 10.9811 	 -105.868
| 10> C 	 -54.9999 	 12.3127 	 -105.271
| 11> C 	 -53.8432 	 12.5791 	 -104.51
| 12> H 	 -55.71 	 13.1329 	 -105.401
| 13> C 	 -56.2266 	 10.543 	 -106.698
| 14> H 	 -56.0975 	 9.53113 	 -106.782
| 15> H 	 -56.0325 	 11.0187 	 -107.666
| 16> C 	 -57.6426 	 10.9638 	 -106.27
| 17> H 	 -57.8236 	 10.3513 	 -105.376
| 18> H 	 -57.6756 	 11.97 	 -105.933
| 19> C 	 -58.7765 	 10.8797 	 -107.383
| 20> H 	 -59.6754 	 11.3738 	 -107.021
| 21> H 	 -58.5778 	 11.5399 	 -108.191
| 22> H 	 -59.1079 	 9.93146 	 -107.675
| 23> S 	 -53.8742 	 13.6306 	 -101.982
| 24> C 	 -53.8034 	 15.355 	 -101.781
| 25> C 	 -53.4638 	 15.9713 	 -102.983
| 26> C 	 -53.6708 	 15.0848 	 -104.13
| 27> C 	 -53.6682 	 13.7807 	 -103.735
| 28> H 	 -53.3829 	 17.0467 	 -102.989
| 29> C 	 -53.7296 	 15.5673 	 -105.524
| 30> H 	 -53.9694 	 14.7803 	 -106.184
| 31> H 	 -52.8071 	 16.0981 	 -105.81
| 32> C 	 -54.7528 	 16.7101 	 -105.687
| 33> H 	 -54.6508 	 16.94 	 -106.686
| 34> H 	 -54.5548 	 17.5258 	 -105.038
| 35> C 	 -56.255 	 16.17 	 -105.467
| 36> H 	 -56.4487 	 16.0676 	 -104.427
| 37> H 	 -56.5494 	 15.1044 	 -105.756
| 38> H 	 -56.8801 	 16.9827 	 -105.823
| 39> H 	 -53.8633 	 9.16537 	 -105.757
| 40> H 	 -53.8432 	 15.9251 	 -100.927
| 41> *
| 42>
| 43>                          ****END OF INPUT****

CARTESIAN COORDINATES (ANGSTROEM)
---------------------------------
  S    -52.870200   11.163300  -104.480000
  C    -54.052800   10.189300  -105.394000
  C    -55.088400   10.981100  -105.868000
  C    -54.999900   12.312700  -105.271000
  C    -53.843200   12.579100  -104.510000
  H    -55.710000   13.132900  -105.401000
  C    -56.226600   10.543000  -106.698000
  H    -56.097500    9.531130  -106.782000
  H    -56.032500   11.018700  -107.666000
  C    -57.642600   10.963800  -106.270000
  H    -57.823600   10.351300  -105.376000
  H    -57.675600   11.970000  -105.933000
  C    -58.776500   10.879700  -107.383000
  H    -59.675400   11.373800  -107.021000
  H    -58.577800   11.539900  -108.191000
  H    -59.107900    9.931460  -107.675000
  S    -53.874200   13.630600  -101.982000
  C    -53.803400   15.355000  -101.781000
  C    -53.463800   15.971300  -102.983000
  C    -53.670800   15.084800  -104.130000
  C    -53.668200   13.780700  -103.735000
  H    -53.382900   17.046700  -102.989000
  C    -53.729600   15.567300  -105.524000
  H    -53.969400   14.780300  -106.184000
  H    -52.807100   16.098100  -105.810000
  C    -54.752800   16.710100  -105.687000
  H    -54.650800   16.940000  -106.686000
  H    -54.554800   17.525800  -105.038000
  C    -56.255000   16.170000  -105.467000
  H    -56.448700   16.067600  -104.427000
  H    -56.549400   15.104400  -105.756000
  H    -56.880100   16.982700  -105.823000
  H    -53.863300    9.165370  -105.757000
  H    -53.843200   15.925100  -100.927000

 Total Charge           Charge          ....    0
 Multiplicity           Mult            ....    1
 Number of Electrons    NEL             ....  134
 Basis Dimension        Dim             ....  322

ORBITAL ENERGIES
----------------

  NO   OCC          E(Eh)            E(eV)
   0   2.0000     -88.965682     -2420.8793
   1   2.0000     -88.962821     -2420.8014
   2   2.0000     -10.327133      -281.0156
   3   2.0000     -10.322142      -280.8798
   4   2.0000     -10.317994      -280.7669
   5   2.0000     -10.314253      -280.6651
   6   2.0000     -10.303955      -280.3849
   7   2.0000     -10.302685      -280.3503
   8   2.0000     -10.295683      -280.1598
   9   2.0000     -10.295563      -280.1565
  10   2.0000     -10.291726      -280.0521
  11   2.0000     -10.285199      -279.8745
  12   2.0000     -10.285076      -279.8712
  13   2.0000     -10.285071      -279.8710
  14   2.0000     -10.281986      -279.7871
  15   2.0000     -10.277593      -279.6675
  16   2.0000      -8.080179      -219.8729
  17   2.0000      -8.077605      -219.8028
  18   2.0000      -6.038772      -164.3233
  19   2.0000      -6.036287      -164.2557
  20   2.0000      -6.034619      -164.2103
  21   2.0000      -6.032166      -164.1436
  22   2.0000      -6.030954      -164.1106
  23   2.0000      -6.028092      -164.0327
  24   2.0000      -1.005908       -27.3722
  25   2.0000      -0.981365       -26.7043
  26   2.0000      -0.915231       -24.9047
  27   2.0000      -0.913213       -24.8498
  28   2.0000      -0.870619       -23.6908
  29   2.0000      -0.846460       -23.0333
  30   2.0000      -0.839704       -22.8495
  31   2.0000      -0.811294       -22.0764
  32   2.0000      -0.787766       -21.4362
  33   2.0000      -0.779392       -21.2083
  34   2.0000      -0.720406       -19.6032
  35   2.0000      -0.707451       -19.2507
  36   2.0000      -0.698361       -19.0034
  37   2.0000      -0.657331       -17.8869
  38   2.0000      -0.638548       -17.3758
  39   2.0000      -0.617959       -16.8155
  40   2.0000      -0.602342       -16.3906
  41   2.0000      -0.570590       -15.5265
  42   2.0000      -0.567049       -15.4302
  43   2.0000      -0.550924       -14.9914
  44   2.0000      -0.544582       -14.8188
  45   2.0000      -0.526343       -14.3225
  46   2.0000      -0.523891       -14.2558
  47   2.0000      -0.512349       -13.9417
  48   2.0000      -0.505390       -13.7524
  49   2.0000      -0.502183       -13.6651
  50   2.0000      -0.500222       -13.6117
  51   2.0000      -0.479112       -13.0373
  52   2.0000      -0.468303       -12.7432
  53   2.0000      -0.461473       -12.5573
  54   2.0000      -0.459923       -12.5152
  55   2.0000      -0.450333       -12.2542
  56   2.0000      -0.445209       -12.1148
  57   2.0000      -0.438101       -11.9213
  58   2.0000      -0.434104       -11.8126
  59   2.0000      -0.427818       -11.6415
  60   2.0000      -0.418840       -11.3972
  61   2.0000      -0.417999       -11.3743
  62   2.0000      -0.417059       -11.3487
  63   2.0000      -0.339163        -9.2291
  64   2.0000      -0.326833        -8.8936
  65   2.0000      -0.321968        -8.7612
  66   2.0000      -0.297987        -8.1086
  67   0.0000       0.038840         1.0569
  68   0.0000       0.063318         1.7230
  69   0.0000       0.109553         2.9811
  70   0.0000       0.115095         3.1319
  71   0.0000       0.129264         3.5174

MULLIKEN ATOMIC CHARGES
-----------------------
   0 S :    0.111381
   1 C :   -0.144460
   2 C :   -0.102566
   3 C :    0.027005
   4 C :   -0.167892
   5 H :   -0.017452
   6 C :    0.150706
   7 H :   -0.008277
   8 H :    0.029933
   9 C :   -0.088044
  10 H :    0.036049
  11 H :    0.022823
  12 C :   -0.016470
  13 H :    0.017561
  14 H :    0.020885
  15 H :    0.030004
  16 S :    0.111774
  17 C :   -0.061820
  18 C :   -0.026284
  19 C :   -0.065197
  20 C :   -0.132102
  21 H :    0.018617
  22 C :    0.088027
  23 H :    0.015020
  24 H :    0.036255
  25 C :   -0.047252
  26 H :    0.018152
  27 H :    0.029503
  28 C :   -0.088871
  29 H :    0.027910
  30 H :    0.045505
  31 H :    0.041483
  32 H :    0.060028
  33 H :    0.028066
Sum of atomic charges:   -0.0000000

LOEWDIN ATOMIC CHARGES
----------------------
   0 S :    0.407882
   1 C :   -0.199702
   2 C :   -0.056979
   3 C :   -0.065829
   4 C :   -0.211407
   5 H :    0.021005
   6 C :   -0.028851
   7 H :    0.018287
   8 H :    0.038367
   9 C :   -0.030801
  10 H :    0.029278
  11 H :    0.019448
  12 C :   -0.058983
  13 H :    0.030604
  14 H :    0.023331
  15 H :    0.017116
  16 S :    0.400059
  17 C :   -0.170734
  18 C :   -0.067158
  19 C :   -0.047388
  20 C :   -0.197821
  21 H :    0.025872
  22 C :   -0.025995
  23 H :    0.023742
  24 H :    0.039130
  25 C :   -0.016851
  26 H :    0.014173
  27 H :    0.019258
  28 C :   -0.078068
  29 H :    0.021281
  30 H :    0.031836
  31 H :    0.027095
  32 H :    0.033579
  33 H :    0.015224

  Mayer bond orders larger than 0.100000
B(  0-S ,  1-C ) :   1.1304 B(  0-S ,  4-C ) :   1.1568 B(  1-C ,  2-C ) :   1.6078
B(  1-C , 32-H ) :   0.9590 B(  2-C ,  3-C ) :   1.2264 B(  2-C ,  6-C ) :   1.0383
B(  3-C ,  4-C ) :   1.5698 B(  3-C ,  5-H ) :   0.9839 B(  4-C , 20-C ) :   1.0349
B(  6-C ,  7-H ) :   0.9331 B(  6-C ,  8-H ) :   0.9169 B(  6-C ,  9-C ) :   1.0625
B(  9-C , 10-H ) :   0.9590 B(  9-C , 11-H ) :   0.9556 B(  9-C , 12-C ) :   1.0796
B( 12-C , 13-H ) :   0.9721 B( 12-C , 14-H ) :   0.9721 B( 12-C , 15-H ) :   0.9809
B( 16-S , 17-C ) :   1.1531 B( 16-S , 20-C ) :   1.1104 B( 17-C , 18-C ) :   1.6527
B( 17-C , 33-H ) :   0.9736 B( 18-C , 19-C ) :   1.1835 B( 18-C , 21-H ) :   0.9804
B( 19-C , 20-C ) :   1.6376 B( 19-C , 22-C ) :   1.0763 B( 22-C , 23-H ) :   0.9310
B( 22-C , 24-H ) :   0.9284 B( 22-C , 25-C ) :   1.0735 B( 25-C , 26-H ) :   0.9610
B( 25-C , 27-H ) :   0.9558 B( 25-C , 28-C ) :   1.0561 B( 28-C , 29-H ) :   0.9745
B( 28-C , 30-H ) :   0.9713 B( 28-C , 31-H ) :   0.9754

Dispersion correction           -0.015003678
FINAL SINGLE POINT ENERGY     -1339.845059532740

DIPOLE MOMENT
-------------
                                X             Y             Z
Electronic contribution:     21.96717      -7.21115      18.38360
Nuclear contribution   :    -22.49318       7.65335     -18.85987
                        -----------------------------------------
Total Dipole Moment    :     -0.52601       0.44220      -0.47627
                        -----------------------------------------
Magnitude (a.u.)       :      0.83610
Magnitude (Debye)      :      2.12519

Rotational constants in cm-1:     0.017500     0.009358     0.007214
Rotational constants in MHz :   524.622642   280.537124   216.281070

                             ****ORCA TERMINATED NORMALLY****
TOTAL RUN TIME: 0 days 0 hours 0 minutes 22 seconds 419 msec
