                         Program Version 4.2.1 -  RELEASE  -
|  1> ! wB97X-D3 SP def2-SVP
|  2> %pal
|  3> nprocs 24
|  4> end
|  5>
|  6> * xyz 0 1
|  7> S 	 -66.8024 	 -54.121 	 -83.2547
|  8> C 	 -67.9101 	 -54.6398 	 -84.4913
|  9> C 	 -69.0435 	 -55.2255 	 -83.9367
| 10> C 	 -68.9934 	 -55.2683 	 -82.4591
| 11> C 	 -67.8702 	 -54.7014 	 -81.9447
| 12> H 	 -69.697 	 -55.8352 	 -81.8674
| 13> C 	 -70.0636 	 -56.0266 	 -84.6304
| 14> H 	 -70.6552 	 -55.4027 	 -85.3353
| 15> H 	 -70.7256 	 -56.4383 	 -83.886
| 16> C 	 -69.4205 	 -57.24 	 -85.3094
| 17> H 	 -68.6674 	 -56.9469 	 -86.0472
| 18> H 	 -68.7787 	 -57.7681 	 -84.5206
| 19> C 	 -70.3614 	 -57.9652 	 -86.1799
| 20> H 	 -70.5212 	 -57.3351 	 -87.0882
| 21> H 	 -70.0115 	 -58.9339 	 -86.4524
| 22> H 	 -71.2986 	 -58.2216 	 -85.6303
| 23> S 	 -67.4916 	 -52.7977 	 -80.0052
| 24> C 	 -67.4667 	 -53.2825 	 -78.294
| 25> C 	 -67.707 	 -54.6392 	 -78.1024
| 26> C 	 -67.8158 	 -55.3367 	 -79.3568
| 27> C 	 -67.5855 	 -54.4946 	 -80.5043
| 28> H 	 -67.886 	 -55.0288 	 -77.0746
| 29> C 	 -67.9213 	 -56.8398 	 -79.376
| 30> H 	 -67.988 	 -57.2176 	 -80.3782
| 31> H 	 -68.8613 	 -57.2433 	 -78.9475
| 32> C 	 -66.7126 	 -57.5485 	 -78.8297
| 33> H 	 -66.44 	 -57.1079 	 -77.8539
| 34> H 	 -65.8281 	 -57.432 	 -79.4684
| 35> C 	 -66.8659 	 -59.066 	 -78.7503
| 36> H 	 -67.6591 	 -59.3173 	 -78.1077
| 37> H 	 -65.9613 	 -59.499 	 -78.2951
| 38> H 	 -66.9214 	 -59.6298 	 -79.7025
| 39> H 	 -67.6684 	 -54.6492 	 -85.6069
| 40> H 	 -67.5727 	 -52.5235 	 -77.4873
| 41> *
| 42>
| 43>                          ****END OF INPUT****

CARTESIAN COORDINATES (ANGSTROEM)
---------------------------------
  S    -66.802400  -54.121000  -83.254700
  C    -67.910100  -54.639800  -84.491300
  C    -69.043500  -55.225500  -83.936700
  C    -68.993400  -55.268300  -82.459100
  C    -67.870200  -54.701400  -81.944700
  H    -69.697000  -55.835200  -81.867400
  C    -70.063600  -56.026600  -84.630400
  H    -70.655200  -55.402700  -85.335300
  H    -70.725600  -56.438300  -83.886000
  C    -69.420500  -57.240000  -85.309400
  H    -68.667400  -56.946900  -86.047200
  H    -68.778700  -57.768100  -84.520600
  C    -70.361400  -57.965200  -86.179900
  H    -70.521200  -57.335100  -87.088200
  H    -70.011500  -58.933900  -86.452400
  H    -71.298600  -58.221600  -85.630300
  S    -67.491600  -52.797700  -80.005200
  C    -67.466700  -53.282500  -78.294000
  C    -67.707000  -54.639200  -78.102400
  C    -67.815800  -55.336700  -79.356800
  C    -67.585500  -54.494600  -80.504300
  H    -67.886000  -55.028800  -77.074600
  C    -67.921300  -56.839800  -79.376000
  H    -67.988000  -57.217600  -80.378200
  H    -68.861300  -57.243300  -78.947500
  C    -66.712600  -57.548500  -78.829700
  H    -66.440000  -57.107900  -77.853900
  H    -65.828100  -57.432000  -79.468400
  C    -66.865900  -59.066000  -78.750300
  H    -67.659100  -59.317300  -78.107700
  H    -65.961300  -59.499000  -78.295100
  H    -66.921400  -59.629800  -79.702500
  H    -67.668400  -54.649200  -85.606900
  H    -67.572700  -52.523500  -77.487300

 Total Charge           Charge          ....    0
 Multiplicity           Mult            ....    1
 Number of Electrons    NEL             ....  134
 Basis Dimension        Dim             ....  322

ORBITAL ENERGIES
----------------

  NO   OCC          E(Eh)            E(eV)
   0   2.0000     -88.967571     -2420.9307
   1   2.0000     -88.965835     -2420.8834
   2   2.0000     -10.336080      -281.2590
   3   2.0000     -10.332703      -281.1672
   4   2.0000     -10.323643      -280.9206
   5   2.0000     -10.320240      -280.8280
   6   2.0000     -10.313216      -280.6369
   7   2.0000     -10.302565      -280.3471
   8   2.0000     -10.300721      -280.2969
   9   2.0000     -10.295179      -280.1461
  10   2.0000     -10.288968      -279.9771
  11   2.0000     -10.288022      -279.9513
  12   2.0000     -10.286780      -279.9175
  13   2.0000     -10.283837      -279.8374
  14   2.0000     -10.279018      -279.7063
  15   2.0000     -10.275318      -279.6056
  16   2.0000      -8.081455      -219.9076
  17   2.0000      -8.080141      -219.8718
  18   2.0000      -6.039959      -164.3556
  19   2.0000      -6.038915      -164.3272
  20   2.0000      -6.036131      -164.2515
  21   2.0000      -6.034645      -164.2110
  22   2.0000      -6.032201      -164.1445
  23   2.0000      -6.030705      -164.1038
  24   2.0000      -0.998605       -27.1734
  25   2.0000      -0.977107       -26.5884
  26   2.0000      -0.920361       -25.0443
  27   2.0000      -0.912330       -24.8258
  28   2.0000      -0.867634       -23.6095
  29   2.0000      -0.852620       -23.2010
  30   2.0000      -0.847401       -23.0590
  31   2.0000      -0.814360       -22.1598
  32   2.0000      -0.779563       -21.2130
  33   2.0000      -0.765735       -20.8367
  34   2.0000      -0.701414       -19.0864
  35   2.0000      -0.697365       -18.9763
  36   2.0000      -0.688229       -18.7277
  37   2.0000      -0.656448       -17.8629
  38   2.0000      -0.636544       -17.3213
  39   2.0000      -0.619242       -16.8504
  40   2.0000      -0.598461       -16.2850
  41   2.0000      -0.575247       -15.6533
  42   2.0000      -0.566823       -15.4240
  43   2.0000      -0.561203       -15.2711
  44   2.0000      -0.525822       -14.3083
  45   2.0000      -0.519954       -14.1487
  46   2.0000      -0.519253       -14.1296
  47   2.0000      -0.509282       -13.8583
  48   2.0000      -0.508743       -13.8436
  49   2.0000      -0.496101       -13.4996
  50   2.0000      -0.492580       -13.4038
  51   2.0000      -0.480047       -13.0627
  52   2.0000      -0.472157       -12.8481
  53   2.0000      -0.460225       -12.5234
  54   2.0000      -0.455390       -12.3918
  55   2.0000      -0.449329       -12.2269
  56   2.0000      -0.445535       -12.1236
  57   2.0000      -0.434358       -11.8195
  58   2.0000      -0.430350       -11.7104
  59   2.0000      -0.426192       -11.5973
  60   2.0000      -0.422230       -11.4895
  61   2.0000      -0.409697       -11.1484
  62   2.0000      -0.406907       -11.0725
  63   2.0000      -0.350158        -9.5283
  64   2.0000      -0.330313        -8.9883
  65   2.0000      -0.323262        -8.7964
  66   2.0000      -0.292397        -7.9565
  67   0.0000       0.029611         0.8058
  68   0.0000       0.061893         1.6842
  69   0.0000       0.106635         2.9017
  70   0.0000       0.112786         3.0691
  71   0.0000       0.131687         3.5834

MULLIKEN ATOMIC CHARGES
-----------------------
   0 S :    0.105267
   1 C :   -0.144332
   2 C :   -0.104515
   3 C :    0.040101
   4 C :   -0.154694
   5 H :    0.018119
   6 C :    0.071463
   7 H :    0.037214
   8 H :    0.015278
   9 C :   -0.118451
  10 H :    0.018015
  11 H :    0.040859
  12 C :   -0.014902
  13 H :    0.043632
  14 H :    0.023492
  15 H :    0.023547
  16 S :    0.100226
  17 C :   -0.108355
  18 C :   -0.045515
  19 C :   -0.036156
  20 C :   -0.123207
  21 H :    0.044790
  22 C :    0.068060
  23 H :    0.004044
  24 H :    0.027107
  25 C :   -0.085213
  26 H :    0.025868
  27 H :    0.033566
  28 C :   -0.044815
  29 H :    0.018616
  30 H :    0.028276
  31 H :    0.038480
  32 H :    0.080742
  33 H :    0.073390
Sum of atomic charges:   -0.0000000

LOEWDIN ATOMIC CHARGES
----------------------
   0 S :    0.391412
   1 C :   -0.210869
   2 C :   -0.064808
   3 C :   -0.057074
   4 C :   -0.189956
   5 H :    0.031199
   6 C :   -0.035671
   7 H :    0.034856
   8 H :    0.027577
   9 C :   -0.052722
  10 H :    0.021167
  11 H :    0.032499
  12 C :   -0.065780
  13 H :    0.035082
  14 H :    0.022684
  15 H :    0.024306
  16 S :    0.396553
  17 C :   -0.183038
  18 C :   -0.074673
  19 C :   -0.048949
  20 C :   -0.192745
  21 H :    0.043235
  22 C :   -0.043336
  23 H :    0.026547
  24 H :    0.032432
  25 C :   -0.039915
  26 H :    0.021755
  27 H :    0.029617
  28 C :   -0.066472
  29 H :    0.014349
  30 H :    0.030605
  31 H :    0.029284
  32 H :    0.045950
  33 H :    0.034898

  Mayer bond orders larger than 0.100000
B(  0-S ,  1-C ) :   1.1296 B(  0-S ,  4-C ) :   1.1370 B(  1-C ,  2-C ) :   1.6219
B(  1-C , 32-H ) :   0.9585 B(  2-C ,  3-C ) :   1.2217 B(  2-C ,  6-C ) :   1.0392
B(  3-C ,  4-C ) :   1.6063 B(  3-C ,  5-H ) :   0.9894 B(  4-C , 20-C ) :   1.0129
B(  6-C ,  7-H ) :   0.9307 B(  6-C ,  8-H ) :   0.9390 B(  6-C ,  9-C ) :   1.0632
B(  9-C , 10-H ) :   0.9560 B(  9-C , 11-H ) :   0.9530 B(  9-C , 12-C ) :   1.0770
B( 12-C , 13-H ) :   0.9728 B( 12-C , 14-H ) :   0.9685 B( 12-C , 15-H ) :   0.9708
B( 16-S , 17-C ) :   1.1591 B( 16-S , 20-C ) :   1.1494 B( 17-C , 18-C ) :   1.6081
B( 17-C , 20-C ) :   0.1007 B( 17-C , 33-H ) :   0.9594 B( 18-C , 19-C ) :   1.2424
B( 18-C , 21-H ) :   0.9819 B( 19-C , 20-C ) :   1.5744 B( 19-C , 22-C ) :   1.0541
B( 22-C , 23-H ) :   0.9312 B( 22-C , 24-H ) :   0.9349 B( 22-C , 25-C ) :   1.0626
B( 25-C , 26-H ) :   0.9566 B( 25-C , 27-H ) :   0.9532 B( 25-C , 28-C ) :   1.0872
B( 28-C , 29-H ) :   0.9745 B( 28-C , 30-H ) :   0.9711 B( 28-C , 31-H ) :   0.9740

Dispersion correction           -0.013632613
FINAL SINGLE POINT ENERGY     -1339.869492087988

DIPOLE MOMENT
-------------
                                X             Y             Z
Electronic contribution:      8.26055      27.94293       4.40713
Nuclear contribution   :     -8.66528     -28.61764      -4.36711
                        -----------------------------------------
Total Dipole Moment    :     -0.40473      -0.67472       0.04002
                        -----------------------------------------
Magnitude (a.u.)       :      0.78782
Magnitude (Debye)      :      2.00247

Rotational constants in cm-1:     0.017707     0.008217     0.006272
Rotational constants in MHz :   530.831304   246.329096   188.025805

                             ****ORCA TERMINATED NORMALLY****
TOTAL RUN TIME: 0 days 0 hours 0 minutes 21 seconds 106 msec
