                         Program Version 4.2.1 -  RELEASE  -
|  1> ! wB97X-D3 SP def2-SVP
|  2> %pal
|  3> nprocs 24
|  4> end
|  5>
|  6> * xyz 0 1
|  7> S 	 -138.45 	 5.44961 	 -1.36574
|  8> C 	 -138.538 	 5.50798 	 0.416424
|  9> C 	 -138.079 	 6.71823 	 0.952593
| 10> C 	 -137.66 	 7.61963 	 -0.0587573
| 11> C 	 -137.849 	 7.16479 	 -1.38275
| 12> H 	 -137.181 	 8.59752 	 -0.024624
| 13> C 	 -137.975 	 7.02992 	 2.44334
| 14> H 	 -136.919 	 7.10881 	 2.75578
| 15> H 	 -138.296 	 6.1168 	 2.96782
| 16> C 	 -138.78 	 8.22129 	 2.92403
| 17> H 	 -138.342 	 8.26647 	 3.94678
| 18> H 	 -138.587 	 9.16161 	 2.34917
| 19> C 	 -140.302 	 8.03085 	 3.06687
| 20> H 	 -140.454 	 7.00672 	 3.37408
| 21> H 	 -140.736 	 8.69571 	 3.81567
| 22> H 	 -140.852 	 8.18124 	 2.08321
| 23> S 	 -136.086 	 7.21963 	 -3.51122
| 24> C 	 -136.148 	 8.54665 	 -4.65379
| 25> C 	 -137.112 	 9.43239 	 -4.27928
| 26> C 	 -137.707 	 9.21951 	 -2.99549
| 27> C 	 -137.319 	 8.00996 	 -2.51716
| 28> H 	 -137.283 	 10.2336 	 -4.975
| 29> C 	 -138.864 	 9.98491 	 -2.50645
| 30> H 	 -138.431 	 10.9672 	 -2.0877
| 31> H 	 -139.293 	 9.55061 	 -1.52152
| 32> C 	 -139.917 	 10.3049 	 -3.55658
| 33> H 	 -140.009 	 9.38296 	 -4.13886
| 34> H 	 -139.575 	 11.1174 	 -4.2182
| 35> C 	 -141.318 	 10.618 	 -2.94482
| 36> H 	 -141.543 	 9.83308 	 -2.18459
| 37> H 	 -142.167 	 10.5941 	 -3.71297
| 38> H 	 -141.433 	 11.588 	 -2.41898
| 39> H 	 -138.838 	 4.61518 	 0.918303
| 40> H 	 -135.661 	 8.68655 	 -5.57913
| 41> *
| 42>
| 43>                          ****END OF INPUT****

CARTESIAN COORDINATES (ANGSTROEM)
---------------------------------
  S    -138.450000    5.449610   -1.365740
  C    -138.538000    5.507980    0.416424
  C    -138.079000    6.718230    0.952593
  C    -137.660000    7.619630   -0.058757
  C    -137.849000    7.164790   -1.382750
  H    -137.181000    8.597520   -0.024624
  C    -137.975000    7.029920    2.443340
  H    -136.919000    7.108810    2.755780
  H    -138.296000    6.116800    2.967820
  C    -138.780000    8.221290    2.924030
  H    -138.342000    8.266470    3.946780
  H    -138.587000    9.161610    2.349170
  C    -140.302000    8.030850    3.066870
  H    -140.454000    7.006720    3.374080
  H    -140.736000    8.695710    3.815670
  H    -140.852000    8.181240    2.083210
  S    -136.086000    7.219630   -3.511220
  C    -136.148000    8.546650   -4.653790
  C    -137.112000    9.432390   -4.279280
  C    -137.707000    9.219510   -2.995490
  C    -137.319000    8.009960   -2.517160
  H    -137.283000   10.233600   -4.975000
  C    -138.864000    9.984910   -2.506450
  H    -138.431000   10.967200   -2.087700
  H    -139.293000    9.550610   -1.521520
  C    -139.917000   10.304900   -3.556580
  H    -140.009000    9.382960   -4.138860
  H    -139.575000   11.117400   -4.218200
  C    -141.318000   10.618000   -2.944820
  H    -141.543000    9.833080   -2.184590
  H    -142.167000   10.594100   -3.712970
  H    -141.433000   11.588000   -2.418980
  H    -138.838000    4.615180    0.918303
  H    -135.661000    8.686550   -5.579130

 Total Charge           Charge          ....    0
 Multiplicity           Mult            ....    1
 Number of Electrons    NEL             ....  134
 Basis Dimension        Dim             ....  322

ORBITAL ENERGIES
----------------

  NO   OCC          E(Eh)            E(eV)
   0   2.0000     -88.971198     -2421.0294
   1   2.0000     -88.962083     -2420.7813
   2   2.0000     -10.337197      -281.2894
   3   2.0000     -10.328337      -281.0483
   4   2.0000     -10.320905      -280.8461
   5   2.0000     -10.310735      -280.5694
   6   2.0000     -10.306397      -280.4513
   7   2.0000     -10.299813      -280.2722
   8   2.0000     -10.298293      -280.2308
   9   2.0000     -10.296773      -280.1894
  10   2.0000     -10.296704      -280.1876
  11   2.0000     -10.292408      -280.0707
  12   2.0000     -10.291649      -280.0500
  13   2.0000     -10.289271      -279.9853
  14   2.0000     -10.288974      -279.9772
  15   2.0000     -10.281418      -279.7716
  16   2.0000      -8.083943      -219.9753
  17   2.0000      -8.076627      -219.7762
  18   2.0000      -6.042575      -164.4268
  19   2.0000      -6.038791      -164.3239
  20   2.0000      -6.035247      -164.2274
  21   2.0000      -6.034636      -164.2108
  22   2.0000      -6.031175      -164.1166
  23   2.0000      -6.027264      -164.0102
  24   2.0000      -1.002153       -27.2700
  25   2.0000      -0.977049       -26.5868
  26   2.0000      -0.910084       -24.7647
  27   2.0000      -0.909463       -24.7477
  28   2.0000      -0.865402       -23.5488
  29   2.0000      -0.847655       -23.0659
  30   2.0000      -0.842918       -22.9370
  31   2.0000      -0.813406       -22.1339
  32   2.0000      -0.780163       -21.2293
  33   2.0000      -0.770088       -20.9552
  34   2.0000      -0.703131       -19.1332
  35   2.0000      -0.699482       -19.0339
  36   2.0000      -0.690288       -18.7837
  37   2.0000      -0.653690       -17.7878
  38   2.0000      -0.643312       -17.5054
  39   2.0000      -0.616585       -16.7781
  40   2.0000      -0.596172       -16.2227
  41   2.0000      -0.568841       -15.4789
  42   2.0000      -0.563135       -15.3237
  43   2.0000      -0.550710       -14.9856
  44   2.0000      -0.531740       -14.4694
  45   2.0000      -0.525715       -14.3054
  46   2.0000      -0.517487       -14.0815
  47   2.0000      -0.510368       -13.8878
  48   2.0000      -0.501496       -13.6464
  49   2.0000      -0.491372       -13.3709
  50   2.0000      -0.481422       -13.1002
  51   2.0000      -0.475031       -12.9262
  52   2.0000      -0.468390       -12.7455
  53   2.0000      -0.460822       -12.5396
  54   2.0000      -0.457615       -12.4523
  55   2.0000      -0.447450       -12.1757
  56   2.0000      -0.444304       -12.0901
  57   2.0000      -0.438384       -11.9290
  58   2.0000      -0.430940       -11.7265
  59   2.0000      -0.427110       -11.6222
  60   2.0000      -0.422030       -11.4840
  61   2.0000      -0.413942       -11.2639
  62   2.0000      -0.407215       -11.0809
  63   2.0000      -0.341653        -9.2968
  64   2.0000      -0.332026        -9.0349
  65   2.0000      -0.327934        -8.9235
  66   2.0000      -0.296419        -8.0660
  67   0.0000       0.030561         0.8316
  68   0.0000       0.066129         1.7995
  69   0.0000       0.114309         3.1105
  70   0.0000       0.122637         3.3371
  71   0.0000       0.127099         3.4585

MULLIKEN ATOMIC CHARGES
-----------------------
   0 S :    0.103966
   1 C :   -0.136305
   2 C :   -0.036966
   3 C :    0.007799
   4 C :   -0.146171
   5 H :    0.027424
   6 C :    0.061238
   7 H :    0.045497
   8 H :    0.010516
   9 C :   -0.102359
  10 H :    0.034623
  11 H :    0.045374
  12 C :   -0.046102
  13 H :    0.016602
  14 H :    0.041814
  15 H :    0.049420
  16 S :    0.101281
  17 C :   -0.061807
  18 C :   -0.059041
  19 C :    0.005196
  20 C :   -0.197223
  21 H :    0.010607
  22 C :    0.011128
  23 H :    0.034500
  24 H :    0.038887
  25 C :   -0.068261
  26 H :    0.045231
  27 H :    0.043504
  28 C :   -0.089712
  29 H :    0.039929
  30 H :    0.045493
  31 H :    0.039231
  32 H :    0.047919
  33 H :    0.036767
Sum of atomic charges:   -0.0000000

LOEWDIN ATOMIC CHARGES
----------------------
   0 S :    0.368291
   1 C :   -0.178741
   2 C :   -0.065637
   3 C :   -0.059784
   4 C :   -0.181581
   5 H :    0.035530
   6 C :   -0.035031
   7 H :    0.037686
   8 H :    0.029539
   9 C :   -0.048701
  10 H :    0.032043
  11 H :    0.028046
  12 C :   -0.067805
  13 H :    0.020233
  14 H :    0.027938
  15 H :    0.034398
  16 S :    0.388075
  17 C :   -0.178948
  18 C :   -0.068188
  19 C :   -0.067554
  20 C :   -0.180750
  21 H :    0.027967
  22 C :   -0.046722
  23 H :    0.038305
  24 H :    0.038523
  25 C :   -0.043901
  26 H :    0.030386
  27 H :    0.027503
  28 C :   -0.076027
  29 H :    0.029050
  30 H :    0.033285
  31 H :    0.025616
  32 H :    0.021509
  33 H :    0.025447

  Mayer bond orders larger than 0.100000
B(  0-S ,  1-C ) :   1.1364 B(  0-S ,  4-C ) :   1.1336 B(  1-C ,  2-C ) :   1.5945
B(  1-C , 32-H ) :   0.9714 B(  2-C ,  3-C ) :   1.2261 B(  2-C ,  6-C ) :   1.0214
B(  3-C ,  4-C ) :   1.5780 B(  3-C ,  5-H ) :   0.9886 B(  4-C , 20-C ) :   1.0242
B(  6-C ,  7-H ) :   0.9432 B(  6-C ,  8-H ) :   0.9338 B(  6-C ,  9-C ) :   1.0692
B(  9-C , 10-H ) :   0.9537 B(  9-C , 11-H ) :   0.9580 B(  9-C , 12-C ) :   1.0726
B( 12-C , 13-H ) :   0.9734 B( 12-C , 14-H ) :   0.9763 B( 12-C , 15-H ) :   0.9745
B( 16-S , 17-C ) :   1.1253 B( 16-S , 20-C ) :   1.1330 B( 17-C , 18-C ) :   1.6726
B( 17-C , 33-H ) :   0.9670 B( 18-C , 19-C ) :   1.1916 B( 18-C , 21-H ) :   0.9867
B( 19-C , 20-C ) :   1.6333 B( 19-C , 22-C ) :   1.0607 B( 22-C , 23-H ) :   0.9123
B( 22-C , 24-H ) :   0.9379 B( 22-C , 25-C ) :   1.0580 B( 25-C , 26-H ) :   0.9612
B( 25-C , 27-H ) :   0.9430 B( 25-C , 28-C ) :   1.0779 B( 28-C , 29-H ) :   0.9757
B( 28-C , 30-H ) :   0.9761 B( 28-C , 31-H ) :   0.9767

Dispersion correction           -0.014106122
FINAL SINGLE POINT ENERGY     -1339.872271559259

DIPOLE MOMENT
-------------
                                X             Y             Z
Electronic contribution:     17.29786     -16.95788     -14.96204
Nuclear contribution   :    -17.50360      17.38280      15.30115
                        -----------------------------------------
Total Dipole Moment    :     -0.20574       0.42492       0.33911
                        -----------------------------------------
Magnitude (a.u.)       :      0.58128
Magnitude (Debye)      :      1.47748

Rotational constants in cm-1:     0.017143     0.008968     0.006899
Rotational constants in MHz :   513.921021   268.853497   206.839141

                             ****ORCA TERMINATED NORMALLY****
TOTAL RUN TIME: 0 days 0 hours 0 minutes 21 seconds 465 msec
