                         Program Version 4.2.1 -  RELEASE  -
|  1> ! wB97X-D3 SP def2-SVP
|  2> %pal
|  3> nprocs 24
|  4> end
|  5>
|  6> * xyz 0 1
|  7> S 	 -89.4811 	 -8.02208 	 -115.344
|  8> C 	 -90.462 	 -9.18639 	 -116.115
|  9> C 	 -90.7076 	 -8.86635 	 -117.444
| 10> C 	 -90.1212 	 -7.57904 	 -117.792
| 11> C 	 -89.3793 	 -6.987 	 -116.761
| 12> H 	 -90.2187 	 -7.11713 	 -118.797
| 13> C 	 -91.6327 	 -9.56643 	 -118.432
| 14> H 	 -91.5719 	 -10.6324 	 -118.18
| 15> H 	 -91.1872 	 -9.49432 	 -119.517
| 16> C 	 -93.1313 	 -9.03277 	 -118.514
| 17> H 	 -93.1183 	 -8.06617 	 -118.717
| 18> H 	 -93.7323 	 -9.56639 	 -119.319
| 19> C 	 -93.9361 	 -9.29095 	 -117.213
| 20> H 	 -94.7623 	 -8.65187 	 -117.389
| 21> H 	 -94.3447 	 -10.2406 	 -116.95
| 22> H 	 -93.4829 	 -8.98489 	 -116.305
| 23> S 	 -87.0345 	 -5.67882 	 -117.231
| 24> C 	 -86.9983 	 -3.94842 	 -117.02
| 25> C 	 -88.2516 	 -3.43505 	 -116.689
| 26> C 	 -89.1782 	 -4.47709 	 -116.446
| 27> C 	 -88.7121 	 -5.70909 	 -116.765
| 28> H 	 -88.3565 	 -2.39638 	 -116.454
| 29> C 	 -90.6153 	 -4.19514 	 -116.08
| 30> H 	 -91.2153 	 -4.68836 	 -116.797
| 31> H 	 -90.7267 	 -3.1344 	 -116.322
| 32> C 	 -90.9772 	 -4.61014 	 -114.665
| 33> H 	 -90.8569 	 -5.69609 	 -114.534
| 34> H 	 -91.9679 	 -4.2485 	 -114.471
| 35> C 	 -90.0249 	 -4.13339 	 -113.568
| 36> H 	 -88.9823 	 -4.22115 	 -113.839
| 37> H 	 -90.2514 	 -4.59413 	 -112.621
| 38> H 	 -90.2046 	 -3.01102 	 -113.432
| 39> H 	 -90.8777 	 -10.0269 	 -115.537
| 40> H 	 -86.1414 	 -3.3771 	 -117.28
| 41> *
| 42>
| 43>                          ****END OF INPUT****

CARTESIAN COORDINATES (ANGSTROEM)
---------------------------------
  S    -89.481100   -8.022080  -115.344000
  C    -90.462000   -9.186390  -116.115000
  C    -90.707600   -8.866350  -117.444000
  C    -90.121200   -7.579040  -117.792000
  C    -89.379300   -6.987000  -116.761000
  H    -90.218700   -7.117130  -118.797000
  C    -91.632700   -9.566430  -118.432000
  H    -91.571900  -10.632400  -118.180000
  H    -91.187200   -9.494320  -119.517000
  C    -93.131300   -9.032770  -118.514000
  H    -93.118300   -8.066170  -118.717000
  H    -93.732300   -9.566390  -119.319000
  C    -93.936100   -9.290950  -117.213000
  H    -94.762300   -8.651870  -117.389000
  H    -94.344700  -10.240600  -116.950000
  H    -93.482900   -8.984890  -116.305000
  S    -87.034500   -5.678820  -117.231000
  C    -86.998300   -3.948420  -117.020000
  C    -88.251600   -3.435050  -116.689000
  C    -89.178200   -4.477090  -116.446000
  C    -88.712100   -5.709090  -116.765000
  H    -88.356500   -2.396380  -116.454000
  C    -90.615300   -4.195140  -116.080000
  H    -91.215300   -4.688360  -116.797000
  H    -90.726700   -3.134400  -116.322000
  C    -90.977200   -4.610140  -114.665000
  H    -90.856900   -5.696090  -114.534000
  H    -91.967900   -4.248500  -114.471000
  C    -90.024900   -4.133390  -113.568000
  H    -88.982300   -4.221150  -113.839000
  H    -90.251400   -4.594130  -112.621000
  H    -90.204600   -3.011020  -113.432000
  H    -90.877700  -10.026900  -115.537000
  H    -86.141400   -3.377100  -117.280000

 Total Charge           Charge          ....    0
 Multiplicity           Mult            ....    1
 Number of Electrons    NEL             ....  134
 Basis Dimension        Dim             ....  322

ORBITAL ENERGIES
----------------

  NO   OCC          E(Eh)            E(eV)
   0   2.0000     -88.967030     -2420.9160
   1   2.0000     -88.964466     -2420.8462
   2   2.0000     -10.329051      -281.0678
   3   2.0000     -10.317778      -280.7610
   4   2.0000     -10.316979      -280.7393
   5   2.0000     -10.316322      -280.7214
   6   2.0000     -10.305438      -280.4252
   7   2.0000     -10.303387      -280.3694
   8   2.0000     -10.301387      -280.3150
   9   2.0000     -10.295683      -280.1598
  10   2.0000     -10.292356      -280.0692
  11   2.0000     -10.290558      -280.0203
  12   2.0000     -10.282084      -279.7897
  13   2.0000     -10.277557      -279.6665
  14   2.0000     -10.271502      -279.5018
  15   2.0000     -10.266811      -279.3741
  16   2.0000      -8.081882      -219.9192
  17   2.0000      -8.079688      -219.8595
  18   2.0000      -6.040345      -164.3661
  19   2.0000      -6.038013      -164.3027
  20   2.0000      -6.036121      -164.2512
  21   2.0000      -6.034131      -164.1970
  22   2.0000      -6.032924      -164.1642
  23   2.0000      -6.030617      -164.1014
  24   2.0000      -1.009666       -27.4744
  25   2.0000      -0.986746       -26.8507
  26   2.0000      -0.910442       -24.7744
  27   2.0000      -0.903070       -24.5738
  28   2.0000      -0.870789       -23.6954
  29   2.0000      -0.848670       -23.0935
  30   2.0000      -0.847601       -23.0644
  31   2.0000      -0.811477       -22.0814
  32   2.0000      -0.783146       -21.3105
  33   2.0000      -0.772616       -21.0239
  34   2.0000      -0.712562       -19.3898
  35   2.0000      -0.699719       -19.0403
  36   2.0000      -0.685803       -18.6617
  37   2.0000      -0.669020       -18.2049
  38   2.0000      -0.643732       -17.5168
  39   2.0000      -0.614432       -16.7195
  40   2.0000      -0.591906       -16.1066
  41   2.0000      -0.566154       -15.4058
  42   2.0000      -0.556273       -15.1370
  43   2.0000      -0.551124       -14.9968
  44   2.0000      -0.542101       -14.7513
  45   2.0000      -0.533442       -14.5157
  46   2.0000      -0.520425       -14.1615
  47   2.0000      -0.518646       -14.1131
  48   2.0000      -0.501210       -13.6386
  49   2.0000      -0.491477       -13.3738
  50   2.0000      -0.484338       -13.1795
  51   2.0000      -0.479673       -13.0526
  52   2.0000      -0.477307       -12.9882
  53   2.0000      -0.464424       -12.6376
  54   2.0000      -0.462285       -12.5794
  55   2.0000      -0.445323       -12.1179
  56   2.0000      -0.443574       -12.0703
  57   2.0000      -0.439391       -11.9564
  58   2.0000      -0.434968       -11.8361
  59   2.0000      -0.424022       -11.5382
  60   2.0000      -0.417490       -11.3605
  61   2.0000      -0.412052       -11.2125
  62   2.0000      -0.400309       -10.8930
  63   2.0000      -0.336800        -9.1648
  64   2.0000      -0.330081        -8.9820
  65   2.0000      -0.317099        -8.6287
  66   2.0000      -0.315074        -8.5736
  67   0.0000       0.047684         1.2975
  68   0.0000       0.050136         1.3643
  69   0.0000       0.115003         3.1294
  70   0.0000       0.120365         3.2753
  71   0.0000       0.125251         3.4083

MULLIKEN ATOMIC CHARGES
-----------------------
   0 S :    0.119509
   1 C :   -0.135815
   2 C :   -0.083630
   3 C :    0.038580
   4 C :   -0.175713
   5 H :    0.028517
   6 C :    0.006005
   7 H :    0.028665
   8 H :    0.044290
   9 C :   -0.007082
  10 H :   -0.001765
  11 H :    0.044110
  12 C :   -0.042515
  13 H :    0.017578
  14 H :    0.023110
  15 H :    0.021499
  16 S :    0.120967
  17 C :   -0.090342
  18 C :   -0.029008
  19 C :   -0.073250
  20 C :   -0.192163
  21 H :    0.019251
  22 C :    0.152144
  23 H :    0.016106
  24 H :    0.007287
  25 C :   -0.057815
  26 H :    0.034818
  27 H :    0.026637
  28 C :   -0.076772
  29 H :    0.046608
  30 H :    0.036023
  31 H :    0.020217
  32 H :    0.064620
  33 H :    0.049330
Sum of atomic charges:   -0.0000000

LOEWDIN ATOMIC CHARGES
----------------------
   0 S :    0.432612
   1 C :   -0.210945
   2 C :   -0.073515
   3 C :   -0.055719
   4 C :   -0.203419
   5 H :    0.037570
   6 C :   -0.041910
   7 H :    0.028559
   8 H :    0.040039
   9 C :   -0.018146
  10 H :    0.002242
  11 H :    0.037768
  12 C :   -0.065967
  13 H :    0.025642
  14 H :    0.021088
  15 H :    0.018609
  16 S :    0.418979
  17 C :   -0.174879
  18 C :   -0.072234
  19 C :   -0.053440
  20 C :   -0.216500
  21 H :    0.030509
  22 C :   -0.024562
  23 H :    0.028290
  24 H :    0.028545
  25 C :   -0.040688
  26 H :    0.019243
  27 H :    0.022042
  28 C :   -0.067203
  29 H :    0.023920
  30 H :    0.023681
  31 H :    0.024484
  32 H :    0.034361
  33 H :    0.020942

  Mayer bond orders larger than 0.100000
B(  0-S ,  1-C ) :   1.1664 B(  0-S ,  4-C ) :   1.1522 B(  1-C ,  2-C ) :   1.5831
B(  1-C , 32-H ) :   0.9657 B(  2-C ,  3-C ) :   1.2448 B(  2-C ,  6-C ) :   1.0303
B(  3-C ,  4-C ) :   1.5856 B(  3-C ,  5-H ) :   0.9863 B(  4-C , 20-C ) :   1.0135
B(  6-C ,  7-H ) :   0.9453 B(  6-C ,  8-H ) :   0.9456 B(  6-C ,  9-C ) :   1.0543
B(  9-C , 10-H ) :   0.9594 B(  9-C , 11-H ) :   0.9570 B(  9-C , 12-C ) :   1.0681
B( 12-C , 13-H ) :   0.9734 B( 12-C , 14-H ) :   0.9790 B( 12-C , 15-H ) :   0.9761
B( 16-S , 17-C ) :   1.1764 B( 16-S , 20-C ) :   1.1492 B( 17-C , 18-C ) :   1.5935
B( 17-C , 20-C ) :   0.1021 B( 17-C , 33-H ) :   0.9701 B( 18-C , 19-C ) :   1.2457
B( 18-C , 21-H ) :   0.9892 B( 19-C , 20-C ) :   1.6143 B( 19-C , 22-C ) :   1.0218
B( 22-C , 23-H ) :   0.9264 B( 22-C , 24-H ) :   0.9315 B( 22-C , 25-C ) :   1.0669
B( 25-C , 26-H ) :   0.9523 B( 25-C , 27-H ) :   0.9552 B( 25-C , 28-C ) :   1.0767
B( 28-C , 29-H ) :   0.9704 B( 28-C , 30-H ) :   0.9763 B( 28-C , 31-H ) :   0.9755

Dispersion correction           -0.015840157
FINAL SINGLE POINT ENERGY     -1339.872827514587

DIPOLE MOMENT
-------------
                                X             Y             Z
Electronic contribution:     22.88439      -0.40483      -1.75445
Nuclear contribution   :    -23.42504       0.54528       1.56238
                        -----------------------------------------
Total Dipole Moment    :     -0.54065       0.14045      -0.19207
                        -----------------------------------------
Magnitude (a.u.)       :      0.59069
Magnitude (Debye)      :      1.50142

Rotational constants in cm-1:     0.021763     0.008663     0.007664
Rotational constants in MHz :   652.432059   259.713293   229.756543

                             ****ORCA TERMINATED NORMALLY****
TOTAL RUN TIME: 0 days 0 hours 0 minutes 21 seconds 453 msec
