                         Program Version 4.2.1 -  RELEASE  -
|  1> ! wB97X-D3 SP def2-SVP
|  2> %pal
|  3> nprocs 24
|  4> end
|  5>
|  6> * xyz 0 1
|  7> S 	 -103.22 	 45.7376 	 -89.878
|  8> C 	 -102.544 	 44.1525 	 -89.8362
|  9> C 	 -103.173 	 43.4357 	 -88.791
| 10> C 	 -104.17 	 44.1352 	 -88.112
| 11> C 	 -104.238 	 45.4518 	 -88.4849
| 12> H 	 -104.817 	 43.8734 	 -87.2998
| 13> C 	 -102.928 	 41.9985 	 -88.5271
| 14> H 	 -102.472 	 41.6728 	 -89.4138
| 15> H 	 -103.829 	 41.4788 	 -88.2368
| 16> C 	 -101.867 	 41.7275 	 -87.4403
| 17> H 	 -101.728 	 40.6774 	 -87.4067
| 18> H 	 -100.974 	 42.168 	 -87.7651
| 19> C 	 -102.249 	 42.3752 	 -86.0378
| 20> H 	 -101.467 	 42.2132 	 -85.3832
| 21> H 	 -102.471 	 43.471 	 -85.9975
| 22> H 	 -103.156 	 41.8945 	 -85.6171
| 23> S 	 -106.47 	 47.0291 	 -88.7975
| 24> C 	 -107.071 	 48.0269 	 -87.5184
| 25> C 	 -106.18 	 47.9404 	 -86.4154
| 26> C 	 -105.027 	 47.1262 	 -86.6184
| 27> C 	 -105.086 	 46.4629 	 -87.8365
| 28> H 	 -106.484 	 48.4771 	 -85.504
| 29> C 	 -104.014 	 46.8813 	 -85.5361
| 30> H 	 -103.51 	 47.738 	 -85.2643
| 31> H 	 -103.272 	 46.2487 	 -85.9757
| 32> C 	 -104.543 	 46.1168 	 -84.3145
| 33> H 	 -105.097 	 45.2725 	 -84.6985
| 34> H 	 -105.194 	 46.747 	 -83.8215
| 35> C 	 -103.467 	 45.4461 	 -83.4288
| 36> H 	 -102.705 	 46.139 	 -83.2892
| 37> H 	 -102.908 	 44.6754 	 -83.9978
| 38> H 	 -103.802 	 44.8776 	 -82.5557
| 39> H 	 -101.74 	 43.7177 	 -90.4343
| 40> H 	 -108.056 	 48.5316 	 -87.5215
| 41> *
| 42>
| 43>                          ****END OF INPUT****

CARTESIAN COORDINATES (ANGSTROEM)
---------------------------------
  S    -103.220000   45.737600  -89.878000
  C    -102.544000   44.152500  -89.836200
  C    -103.173000   43.435700  -88.791000
  C    -104.170000   44.135200  -88.112000
  C    -104.238000   45.451800  -88.484900
  H    -104.817000   43.873400  -87.299800
  C    -102.928000   41.998500  -88.527100
  H    -102.472000   41.672800  -89.413800
  H    -103.829000   41.478800  -88.236800
  C    -101.867000   41.727500  -87.440300
  H    -101.728000   40.677400  -87.406700
  H    -100.974000   42.168000  -87.765100
  C    -102.249000   42.375200  -86.037800
  H    -101.467000   42.213200  -85.383200
  H    -102.471000   43.471000  -85.997500
  H    -103.156000   41.894500  -85.617100
  S    -106.470000   47.029100  -88.797500
  C    -107.071000   48.026900  -87.518400
  C    -106.180000   47.940400  -86.415400
  C    -105.027000   47.126200  -86.618400
  C    -105.086000   46.462900  -87.836500
  H    -106.484000   48.477100  -85.504000
  C    -104.014000   46.881300  -85.536100
  H    -103.510000   47.738000  -85.264300
  H    -103.272000   46.248700  -85.975700
  C    -104.543000   46.116800  -84.314500
  H    -105.097000   45.272500  -84.698500
  H    -105.194000   46.747000  -83.821500
  C    -103.467000   45.446100  -83.428800
  H    -102.705000   46.139000  -83.289200
  H    -102.908000   44.675400  -83.997800
  H    -103.802000   44.877600  -82.555700
  H    -101.740000   43.717700  -90.434300
  H    -108.056000   48.531600  -87.521500

 Total Charge           Charge          ....    0
 Multiplicity           Mult            ....    1
 Number of Electrons    NEL             ....  134
 Basis Dimension        Dim             ....  322

ORBITAL ENERGIES
----------------

  NO   OCC          E(Eh)            E(eV)
   0   2.0000     -88.968378     -2420.9526
   1   2.0000     -88.964454     -2420.8459
   2   2.0000     -10.329671      -281.0846
   3   2.0000     -10.326300      -280.9929
   4   2.0000     -10.322682      -280.8944
   5   2.0000     -10.316577      -280.7283
   6   2.0000     -10.307072      -280.4697
   7   2.0000     -10.298134      -280.2265
   8   2.0000     -10.296154      -280.1726
   9   2.0000     -10.287640      -279.9409
  10   2.0000     -10.282672      -279.8057
  11   2.0000     -10.281800      -279.7820
  12   2.0000     -10.279860      -279.7292
  13   2.0000     -10.279810      -279.7278
  14   2.0000     -10.278270      -279.6860
  15   2.0000     -10.276757      -279.6448
  16   2.0000      -8.083094      -219.9522
  17   2.0000      -8.079131      -219.8443
  18   2.0000      -6.041462      -164.3965
  19   2.0000      -6.037535      -164.2897
  20   2.0000      -6.037471      -164.2879
  21   2.0000      -6.034117      -164.1967
  22   2.0000      -6.033476      -164.1792
  23   2.0000      -6.030172      -164.0893
  24   2.0000      -1.008051       -27.4305
  25   2.0000      -0.985418       -26.8146
  26   2.0000      -0.914332       -24.8802
  27   2.0000      -0.912836       -24.8395
  28   2.0000      -0.866660       -23.5830
  29   2.0000      -0.851498       -23.1704
  30   2.0000      -0.846088       -23.0232
  31   2.0000      -0.813787       -22.1443
  32   2.0000      -0.786050       -21.3895
  33   2.0000      -0.773663       -21.0524
  34   2.0000      -0.710809       -19.3421
  35   2.0000      -0.706596       -19.2274
  36   2.0000      -0.698462       -19.0061
  37   2.0000      -0.658516       -17.9191
  38   2.0000      -0.646300       -17.5867
  39   2.0000      -0.615610       -16.7516
  40   2.0000      -0.595774       -16.2118
  41   2.0000      -0.579035       -15.7564
  42   2.0000      -0.573080       -15.5943
  43   2.0000      -0.548454       -14.9242
  44   2.0000      -0.539250       -14.6737
  45   2.0000      -0.532664       -14.4945
  46   2.0000      -0.517593       -14.0844
  47   2.0000      -0.513910       -13.9842
  48   2.0000      -0.510990       -13.9047
  49   2.0000      -0.498761       -13.5720
  50   2.0000      -0.493477       -13.4282
  51   2.0000      -0.480200       -13.0669
  52   2.0000      -0.473065       -12.8727
  53   2.0000      -0.466380       -12.6908
  54   2.0000      -0.464517       -12.6402
  55   2.0000      -0.448322       -12.1995
  56   2.0000      -0.440573       -11.9886
  57   2.0000      -0.434373       -11.8199
  58   2.0000      -0.429286       -11.6815
  59   2.0000      -0.427120       -11.6225
  60   2.0000      -0.423220       -11.5164
  61   2.0000      -0.420113       -11.4318
  62   2.0000      -0.414794       -11.2871
  63   2.0000      -0.339529        -9.2391
  64   2.0000      -0.331951        -9.0328
  65   2.0000      -0.324223        -8.8226
  66   2.0000      -0.300153        -8.1676
  67   0.0000       0.039151         1.0653
  68   0.0000       0.053548         1.4571
  69   0.0000       0.118842         3.2339
  70   0.0000       0.121199         3.2980
  71   0.0000       0.129779         3.5315

MULLIKEN ATOMIC CHARGES
-----------------------
   0 S :    0.133897
   1 C :   -0.116297
   2 C :   -0.112382
   3 C :    0.053393
   4 C :   -0.174910
   5 H :    0.007199
   6 C :    0.107489
   7 H :   -0.003041
   8 H :    0.027284
   9 C :   -0.018508
  10 H :    0.026404
  11 H :    0.004854
  12 C :   -0.087690
  13 H :    0.022613
  14 H :    0.057480
  15 H :    0.026715
  16 S :    0.108218
  17 C :   -0.113098
  18 C :   -0.069062
  19 C :   -0.007346
  20 C :   -0.203720
  21 H :    0.029881
  22 C :    0.123027
  23 H :    0.011910
  24 H :    0.004747
  25 C :   -0.050001
  26 H :    0.020539
  27 H :    0.014688
  28 C :   -0.022031
  29 H :    0.012222
  30 H :    0.005891
  31 H :    0.047320
  32 H :    0.054842
  33 H :    0.077475
Sum of atomic charges:    0.0000000

LOEWDIN ATOMIC CHARGES
----------------------
   0 S :    0.427754
   1 C :   -0.215873
   2 C :   -0.063496
   3 C :   -0.058594
   4 C :   -0.204663
   5 H :    0.032898
   6 C :   -0.025728
   7 H :    0.022912
   8 H :    0.029675
   9 C :   -0.020020
  10 H :    0.020367
  11 H :    0.013826
  12 C :   -0.069510
  13 H :    0.013972
  14 H :    0.029055
  15 H :    0.025165
  16 S :    0.408963
  17 C :   -0.199722
  18 C :   -0.078882
  19 C :   -0.049343
  20 C :   -0.192399
  21 H :    0.033052
  22 C :   -0.021224
  23 H :    0.021118
  24 H :    0.027728
  25 C :   -0.026947
  26 H :    0.023773
  27 H :    0.009958
  28 C :   -0.064015
  29 H :    0.014876
  30 H :    0.028395
  31 H :    0.032437
  32 H :    0.035304
  33 H :    0.039190

  Mayer bond orders larger than 0.100000
B(  0-S ,  1-C ) :   1.1534 B(  0-S ,  4-C ) :   1.1690 B(  1-C ,  2-C ) :   1.5690
B(  1-C ,  4-C ) :   0.1057 B(  1-C , 32-H ) :   0.9656 B(  2-C ,  3-C ) :   1.2500
B(  2-C ,  6-C ) :   1.0374 B(  3-C ,  4-C ) :   1.5575 B(  3-C ,  5-H ) :   1.0003
B(  4-C , 20-C ) :   1.0088 B(  6-C ,  7-H ) :   0.9271 B(  6-C ,  8-H ) :   0.9455
B(  6-C ,  9-C ) :   1.0802 B(  9-C , 10-H ) :   0.9576 B(  9-C , 11-H ) :   0.9517
B(  9-C , 12-C ) :   1.0722 B( 12-C , 13-H ) :   0.9761 B( 12-C , 14-H ) :   0.9656
B( 12-C , 15-H ) :   0.9761 B( 16-S , 17-C ) :   1.1729 B( 16-S , 20-C ) :   1.1553
B( 17-C , 18-C ) :   1.5861 B( 17-C , 20-C ) :   0.1102 B( 17-C , 33-H ) :   0.9650
B( 18-C , 19-C ) :   1.2327 B( 18-C , 21-H ) :   0.9881 B( 19-C , 20-C ) :   1.5891
B( 19-C , 22-C ) :   1.0617 B( 22-C , 23-H ) :   0.9173 B( 22-C , 24-H ) :   0.9269
B( 22-C , 25-C ) :   1.0590 B( 25-C , 26-H ) :   0.9560 B( 25-C , 27-H ) :   0.9589
B( 25-C , 28-C ) :   1.0819 B( 28-C , 29-H ) :   0.9710 B( 28-C , 30-H ) :   0.9701
B( 28-C , 31-H ) :   0.9728

Dispersion correction           -0.015847760
FINAL SINGLE POINT ENERGY     -1339.864894454538

DIPOLE MOMENT
-------------
                                X             Y             Z
Electronic contribution:    -11.22971      15.51726     -24.15219
Nuclear contribution   :     11.38005     -15.88625      24.70158
                        -----------------------------------------
Total Dipole Moment    :      0.15034      -0.36899       0.54939
                        -----------------------------------------
Magnitude (a.u.)       :      0.67867
Magnitude (Debye)      :      1.72503

Rotational constants in cm-1:     0.017001     0.010740     0.007297
Rotational constants in MHz :   509.674979   321.978454   218.747345

                             ****ORCA TERMINATED NORMALLY****
TOTAL RUN TIME: 0 days 0 hours 0 minutes 21 seconds 647 msec
