                         Program Version 4.2.1 -  RELEASE  -
|  1> ! wB97X-D3 SP def2-SVP
|  2> %pal
|  3> nprocs 24
|  4> end
|  5>
|  6> * xyz 0 1
|  7> S 	 41.3378 	 -18.3954 	 -107.288
|  8> C 	 41.6108 	 -19.6732 	 -108.411
|  9> C 	 41.2306 	 -20.9203 	 -107.896
| 10> C 	 40.6045 	 -20.8251 	 -106.589
| 11> C 	 40.7235 	 -19.5267 	 -106.081
| 12> H 	 40.1471 	 -21.5853 	 -105.997
| 13> C 	 41.3526 	 -22.196 	 -108.682
| 14> H 	 41.958 	 -22.875 	 -108.095
| 15> H 	 41.8756 	 -21.9485 	 -109.59
| 16> C 	 40.0759 	 -22.8977 	 -109.149
| 17> H 	 40.3019 	 -23.6867 	 -109.809
| 18> H 	 39.7348 	 -23.3824 	 -108.275
| 19> C 	 38.9641 	 -22.0379 	 -109.71
| 20> H 	 38.5565 	 -21.3802 	 -109.008
| 21> H 	 39.1785 	 -21.5134 	 -110.677
| 22> H 	 38.0963 	 -22.6487 	 -109.911
| 23> S 	 39.3329 	 -17.9769 	 -104.405
| 24> C 	 39.8594 	 -17.8416 	 -102.758
| 25> C 	 40.8718 	 -18.6905 	 -102.419
| 26> C 	 41.2716 	 -19.4667 	 -103.541
| 27> C 	 40.6206 	 -19.1416 	 -104.674
| 28> H 	 41.2247 	 -18.6855 	 -101.379
| 29> C 	 42.3536 	 -20.5112 	 -103.441
| 30> H 	 42.9527 	 -20.1352 	 -102.703
| 31> H 	 42.9262 	 -20.7105 	 -104.393
| 32> C 	 41.9488 	 -21.9108 	 -103.103
| 33> H 	 41.2765 	 -22.3659 	 -103.829
| 34> H 	 41.4024 	 -21.7032 	 -102.204
| 35> C 	 43.1512 	 -22.9099 	 -102.961
| 36> H 	 42.8778 	 -23.8914 	 -102.427
| 37> H 	 43.8627 	 -22.3692 	 -102.37
| 38> H 	 43.5371 	 -23.1032 	 -103.95
| 39> H 	 41.9696 	 -19.54 	 -109.402
| 40> H 	 39.5013 	 -17.248 	 -101.897
| 41> *
| 42>
| 43>                          ****END OF INPUT****

CARTESIAN COORDINATES (ANGSTROEM)
---------------------------------
  S     41.337800  -18.395400  -107.288000
  C     41.610800  -19.673200  -108.411000
  C     41.230600  -20.920300  -107.896000
  C     40.604500  -20.825100  -106.589000
  C     40.723500  -19.526700  -106.081000
  H     40.147100  -21.585300  -105.997000
  C     41.352600  -22.196000  -108.682000
  H     41.958000  -22.875000  -108.095000
  H     41.875600  -21.948500  -109.590000
  C     40.075900  -22.897700  -109.149000
  H     40.301900  -23.686700  -109.809000
  H     39.734800  -23.382400  -108.275000
  C     38.964100  -22.037900  -109.710000
  H     38.556500  -21.380200  -109.008000
  H     39.178500  -21.513400  -110.677000
  H     38.096300  -22.648700  -109.911000
  S     39.332900  -17.976900  -104.405000
  C     39.859400  -17.841600  -102.758000
  C     40.871800  -18.690500  -102.419000
  C     41.271600  -19.466700  -103.541000
  C     40.620600  -19.141600  -104.674000
  H     41.224700  -18.685500  -101.379000
  C     42.353600  -20.511200  -103.441000
  H     42.952700  -20.135200  -102.703000
  H     42.926200  -20.710500  -104.393000
  C     41.948800  -21.910800  -103.103000
  H     41.276500  -22.365900  -103.829000
  H     41.402400  -21.703200  -102.204000
  C     43.151200  -22.909900  -102.961000
  H     42.877800  -23.891400  -102.427000
  H     43.862700  -22.369200  -102.370000
  H     43.537100  -23.103200  -103.950000
  H     41.969600  -19.540000  -109.402000
  H     39.501300  -17.248000  -101.897000

 Total Charge           Charge          ....    0
 Multiplicity           Mult            ....    1
 Number of Electrons    NEL             ....  134
 Basis Dimension        Dim             ....  322

ORBITAL ENERGIES
----------------

  NO   OCC          E(Eh)            E(eV)
   0   2.0000     -88.966639     -2420.9053
   1   2.0000     -88.964854     -2420.8567
   2   2.0000     -10.329608      -281.0829
   3   2.0000     -10.320224      -280.8276
   4   2.0000     -10.314095      -280.6608
   5   2.0000     -10.312435      -280.6156
   6   2.0000     -10.303649      -280.3765
   7   2.0000     -10.300120      -280.2805
   8   2.0000     -10.298363      -280.2327
   9   2.0000     -10.291957      -280.0584
  10   2.0000     -10.286031      -279.8971
  11   2.0000     -10.284769      -279.8628
  12   2.0000     -10.281328      -279.7691
  13   2.0000     -10.280338      -279.7422
  14   2.0000     -10.277327      -279.6603
  15   2.0000     -10.270536      -279.4755
  16   2.0000      -8.081538      -219.9098
  17   2.0000      -8.079921      -219.8658
  18   2.0000      -6.039970      -164.3559
  19   2.0000      -6.038405      -164.3134
  20   2.0000      -6.035970      -164.2471
  21   2.0000      -6.034485      -164.2067
  22   2.0000      -6.032412      -164.1503
  23   2.0000      -6.030575      -164.1003
  24   2.0000      -1.009901       -27.4808
  25   2.0000      -0.985035       -26.8042
  26   2.0000      -0.916256       -24.9326
  27   2.0000      -0.913677       -24.8624
  28   2.0000      -0.870469       -23.6867
  29   2.0000      -0.851734       -23.1769
  30   2.0000      -0.847424       -23.0596
  31   2.0000      -0.817741       -22.2519
  32   2.0000      -0.785379       -21.3712
  33   2.0000      -0.774389       -21.0722
  34   2.0000      -0.711055       -19.3488
  35   2.0000      -0.699404       -19.0317
  36   2.0000      -0.689711       -18.7680
  37   2.0000      -0.662830       -18.0365
  38   2.0000      -0.644987       -17.5510
  39   2.0000      -0.618471       -16.8295
  40   2.0000      -0.593719       -16.1559
  41   2.0000      -0.576276       -15.6813
  42   2.0000      -0.563306       -15.3283
  43   2.0000      -0.560599       -15.2547
  44   2.0000      -0.546481       -14.8705
  45   2.0000      -0.521648       -14.1948
  46   2.0000      -0.515755       -14.0344
  47   2.0000      -0.508859       -13.8467
  48   2.0000      -0.503380       -13.6977
  49   2.0000      -0.500904       -13.6303
  50   2.0000      -0.493249       -13.4220
  51   2.0000      -0.478731       -13.0269
  52   2.0000      -0.473374       -12.8812
  53   2.0000      -0.465233       -12.6596
  54   2.0000      -0.462703       -12.5908
  55   2.0000      -0.452739       -12.3196
  56   2.0000      -0.446994       -12.1633
  57   2.0000      -0.440596       -11.9892
  58   2.0000      -0.438104       -11.9214
  59   2.0000      -0.423309       -11.5188
  60   2.0000      -0.416278       -11.3275
  61   2.0000      -0.410095       -11.1592
  62   2.0000      -0.407612       -11.0917
  63   2.0000      -0.339053        -9.2261
  64   2.0000      -0.330317        -8.9884
  65   2.0000      -0.329616        -8.9693
  66   2.0000      -0.300279        -8.1710
  67   0.0000       0.036895         1.0040
  68   0.0000       0.063888         1.7385
  69   0.0000       0.112970         3.0741
  70   0.0000       0.121644         3.3101
  71   0.0000       0.131441         3.5767

MULLIKEN ATOMIC CHARGES
-----------------------
   0 S :    0.129411
   1 C :   -0.097753
   2 C :   -0.126327
   3 C :    0.053334
   4 C :   -0.150059
   5 H :    0.013421
   6 C :    0.090053
   7 H :    0.030931
   8 H :    0.004637
   9 C :   -0.043155
  10 H :    0.020218
  11 H :    0.006297
  12 C :   -0.028568
  13 H :    0.024564
  14 H :    0.035581
  15 H :    0.018654
  16 S :    0.112106
  17 C :   -0.070335
  18 C :   -0.082222
  19 C :    0.001107
  20 C :   -0.201325
  21 H :    0.028334
  22 C :    0.085824
  23 H :   -0.006121
  24 H :    0.030900
  25 C :   -0.068730
  26 H :    0.021469
  27 H :    0.009035
  28 C :   -0.047387
  29 H :    0.054882
  30 H :    0.023810
  31 H :    0.036178
  32 H :    0.038356
  33 H :    0.052879
Sum of atomic charges:    0.0000000

LOEWDIN ATOMIC CHARGES
----------------------
   0 S :    0.417058
   1 C :   -0.201189
   2 C :   -0.059725
   3 C :   -0.053977
   4 C :   -0.197484
   5 H :    0.028482
   6 C :   -0.030843
   7 H :    0.031657
   8 H :    0.024636
   9 C :   -0.036011
  10 H :    0.021342
  11 H :    0.017726
  12 C :   -0.064195
  13 H :    0.020319
  14 H :    0.029541
  15 H :    0.027869
  16 S :    0.407534
  17 C :   -0.191666
  18 C :   -0.081067
  19 C :   -0.051225
  20 C :   -0.194856
  21 H :    0.038393
  22 C :   -0.028747
  23 H :    0.015930
  24 H :    0.036553
  25 C :   -0.039959
  26 H :    0.017662
  27 H :    0.015864
  28 C :   -0.062147
  29 H :    0.038936
  30 H :    0.019505
  31 H :    0.023894
  32 H :    0.022490
  33 H :    0.037701

  Mayer bond orders larger than 0.100000
B(  0-S ,  1-C ) :   1.1434 B(  0-S ,  4-C ) :   1.1627 B(  1-C ,  2-C ) :   1.6035
B(  1-C , 32-H ) :   0.9679 B(  2-C ,  3-C ) :   1.2155 B(  2-C ,  6-C ) :   1.0377
B(  3-C ,  4-C ) :   1.5668 B(  3-C ,  5-H ) :   1.0015 B(  4-C , 20-C ) :   1.0003
B(  6-C ,  7-H ) :   0.9369 B(  6-C ,  8-H ) :   0.9357 B(  6-C ,  9-C ) :   1.0701
B(  9-C , 10-H ) :   0.9553 B(  9-C , 11-H ) :   0.9481 B(  9-C , 12-C ) :   1.0944
B( 12-C , 13-H ) :   0.9670 B( 12-C , 14-H ) :   0.9754 B( 12-C , 15-H ) :   0.9672
B( 16-S , 17-C ) :   1.1436 B( 16-S , 20-C ) :   1.1290 B( 17-C , 18-C ) :   1.6651
B( 17-C , 33-H ) :   0.9547 B( 18-C , 19-C ) :   1.1980 B( 18-C , 21-H ) :   0.9865
B( 19-C , 20-C ) :   1.6634 B( 19-C , 22-C ) :   1.0428 B( 22-C , 23-H ) :   0.9192
B( 22-C , 24-H ) :   0.9341 B( 22-C , 25-C ) :   1.0686 B( 25-C , 26-H ) :   0.9556
B( 25-C , 27-H ) :   0.9525 B( 25-C , 28-C ) :   1.0705 B( 28-C , 29-H ) :   0.9748
B( 28-C , 30-H ) :   0.9764 B( 28-C , 31-H ) :   0.9749

Dispersion correction           -0.014713010
FINAL SINGLE POINT ENERGY     -1339.863273479664

DIPOLE MOMENT
-------------
                                X             Y             Z
Electronic contribution:     -5.17388      25.48242       2.68282
Nuclear contribution   :      5.32858     -26.06471      -2.55735
                        -----------------------------------------
Total Dipole Moment    :      0.15470      -0.58229       0.12547
                        -----------------------------------------
Magnitude (a.u.)       :      0.61541
Magnitude (Debye)      :      1.56425

Rotational constants in cm-1:     0.017710     0.009277     0.007139
Rotational constants in MHz :   530.921966   278.110544   214.020229

                             ****ORCA TERMINATED NORMALLY****
TOTAL RUN TIME: 0 days 0 hours 0 minutes 22 seconds 123 msec
