                         Program Version 4.2.1 -  RELEASE  -
|  1> ! wB97X-D3 SP def2-SVP
|  2> %pal
|  3> nprocs 24
|  4> end
|  5>
|  6> * xyz 0 1
|  7> S 	 -62.3956 	 11.0427 	 -93.1704
|  8> C 	 -63.8099 	 11.4953 	 -94.1675
|  9> C 	 -64.3825 	 12.643 	 -93.6487
| 10> C 	 -63.6938 	 13.133 	 -92.4742
| 11> C 	 -62.592 	 12.4478 	 -92.149
| 12> H 	 -64.0822 	 14.0033 	 -91.971
| 13> C 	 -65.6444 	 13.2206 	 -94.2516
| 14> H 	 -66.2416 	 13.7453 	 -93.6003
| 15> H 	 -66.4402 	 12.4176 	 -94.4692
| 16> C 	 -65.4318 	 14.0535 	 -95.4751
| 17> H 	 -65.0289 	 13.5194 	 -96.3221
| 18> H 	 -66.3772 	 14.507 	 -95.8121
| 19> C 	 -64.3332 	 15.163 	 -95.2752
| 20> H 	 -64.2717 	 15.8466 	 -96.1517
| 21> H 	 -64.4828 	 15.7031 	 -94.3571
| 22> H 	 -63.4535 	 14.6828 	 -95.086
| 23> S 	 -61.7856 	 11.4656 	 -89.6825
| 24> C 	 -60.5485 	 12.3081 	 -88.79
| 25> C 	 -60.0927 	 13.453 	 -89.3713
| 26> C 	 -60.8093 	 13.6737 	 -90.6323
| 27> C 	 -61.7277 	 12.6874 	 -90.9571
| 28> H 	 -59.291 	 14.0063 	 -88.9778
| 29> C 	 -60.4626 	 14.8224 	 -91.4986
| 30> H 	 -61.029 	 15.6445 	 -91.0694
| 31> H 	 -60.8543 	 14.6723 	 -92.43
| 32> C 	 -58.9651 	 15.1659 	 -91.6179
| 33> H 	 -58.5867 	 14.4332 	 -92.22
| 34> H 	 -58.4563 	 15.0418 	 -90.647
| 35> C 	 -58.5888 	 16.5064 	 -92.2677
| 36> H 	 -58.8752 	 17.3895 	 -91.684
| 37> H 	 -59.0428 	 16.5127 	 -93.2352
| 38> H 	 -57.5379 	 16.5902 	 -92.386
| 39> H 	 -64.0676 	 11.0486 	 -95.1569
| 40> H 	 -60.021 	 11.98 	 -87.8387
| 41> *
| 42>
| 43>                          ****END OF INPUT****

CARTESIAN COORDINATES (ANGSTROEM)
---------------------------------
  S    -62.395600   11.042700  -93.170400
  C    -63.809900   11.495300  -94.167500
  C    -64.382500   12.643000  -93.648700
  C    -63.693800   13.133000  -92.474200
  C    -62.592000   12.447800  -92.149000
  H    -64.082200   14.003300  -91.971000
  C    -65.644400   13.220600  -94.251600
  H    -66.241600   13.745300  -93.600300
  H    -66.440200   12.417600  -94.469200
  C    -65.431800   14.053500  -95.475100
  H    -65.028900   13.519400  -96.322100
  H    -66.377200   14.507000  -95.812100
  C    -64.333200   15.163000  -95.275200
  H    -64.271700   15.846600  -96.151700
  H    -64.482800   15.703100  -94.357100
  H    -63.453500   14.682800  -95.086000
  S    -61.785600   11.465600  -89.682500
  C    -60.548500   12.308100  -88.790000
  C    -60.092700   13.453000  -89.371300
  C    -60.809300   13.673700  -90.632300
  C    -61.727700   12.687400  -90.957100
  H    -59.291000   14.006300  -88.977800
  C    -60.462600   14.822400  -91.498600
  H    -61.029000   15.644500  -91.069400
  H    -60.854300   14.672300  -92.430000
  C    -58.965100   15.165900  -91.617900
  H    -58.586700   14.433200  -92.220000
  H    -58.456300   15.041800  -90.647000
  C    -58.588800   16.506400  -92.267700
  H    -58.875200   17.389500  -91.684000
  H    -59.042800   16.512700  -93.235200
  H    -57.537900   16.590200  -92.386000
  H    -64.067600   11.048600  -95.156900
  H    -60.021000   11.980000  -87.838700

 Total Charge           Charge          ....    0
 Multiplicity           Mult            ....    1
 Number of Electrons    NEL             ....  134
 Basis Dimension        Dim             ....  322

ORBITAL ENERGIES
----------------

  NO   OCC          E(Eh)            E(eV)
   0   2.0000     -88.966370     -2420.8980
   1   2.0000     -88.964013     -2420.8339
   2   2.0000     -10.331179      -281.1257
   3   2.0000     -10.326955      -281.0107
   4   2.0000     -10.321794      -280.8703
   5   2.0000     -10.319267      -280.8015
   6   2.0000     -10.304703      -280.4052
   7   2.0000     -10.303997      -280.3860
   8   2.0000     -10.294080      -280.1162
   9   2.0000     -10.290490      -280.0185
  10   2.0000     -10.290055      -280.0066
  11   2.0000     -10.284860      -279.8653
  12   2.0000     -10.279474      -279.7187
  13   2.0000     -10.278290      -279.6865
  14   2.0000     -10.274311      -279.5782
  15   2.0000     -10.269166      -279.4382
  16   2.0000      -8.080663      -219.8860
  17   2.0000      -8.078645      -219.8311
  18   2.0000      -6.039276      -164.3371
  19   2.0000      -6.037299      -164.2833
  20   2.0000      -6.035226      -164.2268
  21   2.0000      -6.033147      -164.1703
  22   2.0000      -6.031320      -164.1206
  23   2.0000      -6.029280      -164.0650
  24   2.0000      -1.005089       -27.3499
  25   2.0000      -0.983479       -26.7618
  26   2.0000      -0.915812       -24.9205
  27   2.0000      -0.911999       -24.8168
  28   2.0000      -0.866597       -23.5813
  29   2.0000      -0.851415       -23.1682
  30   2.0000      -0.841718       -22.9043
  31   2.0000      -0.821173       -22.3452
  32   2.0000      -0.788071       -21.4445
  33   2.0000      -0.773575       -21.0500
  34   2.0000      -0.709952       -19.3188
  35   2.0000      -0.703051       -19.1310
  36   2.0000      -0.694093       -18.8872
  37   2.0000      -0.656327       -17.8596
  38   2.0000      -0.640934       -17.4407
  39   2.0000      -0.621879       -16.9222
  40   2.0000      -0.596851       -16.2411
  41   2.0000      -0.581053       -15.8113
  42   2.0000      -0.566791       -15.4232
  43   2.0000      -0.550929       -14.9915
  44   2.0000      -0.542353       -14.7582
  45   2.0000      -0.522885       -14.2284
  46   2.0000      -0.519266       -14.1300
  47   2.0000      -0.512021       -13.9328
  48   2.0000      -0.507993       -13.8232
  49   2.0000      -0.497928       -13.5493
  50   2.0000      -0.495272       -13.4770
  51   2.0000      -0.473930       -12.8963
  52   2.0000      -0.466875       -12.7043
  53   2.0000      -0.463201       -12.6043
  54   2.0000      -0.459063       -12.4917
  55   2.0000      -0.458286       -12.4706
  56   2.0000      -0.448430       -12.2024
  57   2.0000      -0.439308       -11.9542
  58   2.0000      -0.429199       -11.6791
  59   2.0000      -0.426617       -11.6088
  60   2.0000      -0.420756       -11.4494
  61   2.0000      -0.419738       -11.4217
  62   2.0000      -0.406444       -11.0599
  63   2.0000      -0.343163        -9.3380
  64   2.0000      -0.330913        -9.0046
  65   2.0000      -0.326601        -8.8873
  66   2.0000      -0.304725        -8.2920
  67   0.0000       0.040152         1.0926
  68   0.0000       0.063485         1.7275
  69   0.0000       0.115806         3.1512
  70   0.0000       0.124945         3.3999
  71   0.0000       0.127225         3.4620

MULLIKEN ATOMIC CHARGES
-----------------------
   0 S :    0.106708
   1 C :   -0.133622
   2 C :   -0.113807
   3 C :    0.058859
   4 C :   -0.147912
   5 H :    0.010464
   6 C :    0.079440
   7 H :   -0.005218
   8 H :    0.037193
   9 C :   -0.070436
  10 H :    0.022610
  11 H :    0.029025
  12 C :   -0.041909
  13 H :    0.045360
  14 H :    0.011881
  15 H :    0.022840
  16 S :    0.108972
  17 C :   -0.096140
  18 C :   -0.027456
  19 C :   -0.056417
  20 C :   -0.170249
  21 H :    0.006960
  22 C :    0.147079
  23 H :    0.027006
  24 H :   -0.006712
  25 C :   -0.090823
  26 H :    0.012733
  27 H :    0.025807
  28 C :   -0.020922
  29 H :    0.032013
  30 H :    0.026621
  31 H :    0.025646
  32 H :    0.073377
  33 H :    0.071028
Sum of atomic charges:   -0.0000000

LOEWDIN ATOMIC CHARGES
----------------------
   0 S :    0.389894
   1 C :   -0.185050
   2 C :   -0.063080
   3 C :   -0.059175
   4 C :   -0.195894
   5 H :    0.032590
   6 C :   -0.039284
   7 H :    0.018194
   8 H :    0.044471
   9 C :   -0.036124
  10 H :    0.019159
  11 H :    0.023736
  12 C :   -0.059235
  13 H :    0.031953
  14 H :    0.017829
  15 H :    0.011699
  16 S :    0.396796
  17 C :   -0.189152
  18 C :   -0.072686
  19 C :   -0.042426
  20 C :   -0.202296
  21 H :    0.024678
  22 C :   -0.025883
  23 H :    0.035263
  24 H :    0.016411
  25 C :   -0.032509
  26 H :    0.015945
  27 H :    0.021889
  28 C :   -0.056342
  29 H :    0.025788
  30 H :    0.023780
  31 H :    0.023643
  32 H :    0.040996
  33 H :    0.044424

  Mayer bond orders larger than 0.100000
B(  0-S ,  1-C ) :   1.1258 B(  0-S ,  4-C ) :   1.1478 B(  1-C ,  2-C ) :   1.6291
B(  1-C , 32-H ) :   0.9620 B(  2-C ,  3-C ) :   1.2266 B(  2-C ,  6-C ) :   1.0170
B(  3-C ,  4-C ) :   1.5955 B(  3-C ,  5-H ) :   1.0005 B(  4-C , 20-C ) :   0.9936
B(  6-C ,  7-H ) :   0.9359 B(  6-C ,  8-H ) :   0.9410 B(  6-C ,  9-C ) :   1.0775
B(  9-C , 10-H ) :   0.9604 B(  9-C , 11-H ) :   0.9569 B(  9-C , 12-C ) :   1.0662
B( 12-C , 13-H ) :   0.9758 B( 12-C , 14-H ) :   0.9759 B( 12-C , 15-H ) :   0.9703
B( 16-S , 17-C ) :   1.1522 B( 16-S , 20-C ) :   1.1162 B( 17-C , 18-C ) :   1.6564
B( 17-C , 33-H ) :   0.9506 B( 18-C , 19-C ) :   1.1950 B( 18-C , 21-H ) :   0.9955
B( 19-C , 20-C ) :   1.6482 B( 19-C , 22-C ) :   1.0552 B( 22-C , 23-H ) :   0.9198
B( 22-C , 24-H ) :   0.9246 B( 22-C , 25-C ) :   1.0535 B( 25-C , 26-H ) :   0.9532
B( 25-C , 27-H ) :   0.9571 B( 25-C , 28-C ) :   1.0943 B( 28-C , 29-H ) :   0.9760
B( 28-C , 30-H ) :   0.9737 B( 28-C , 31-H ) :   0.9726

Dispersion correction           -0.014298647
FINAL SINGLE POINT ENERGY     -1339.866116162308

DIPOLE MOMENT
-------------
                                X             Y             Z
Electronic contribution:     -1.00060     -24.11765      13.75570
Nuclear contribution   :      1.02104      24.69213     -13.96901
                        -----------------------------------------
Total Dipole Moment    :      0.02043       0.57448      -0.21331
                        -----------------------------------------
Magnitude (a.u.)       :      0.61315
Magnitude (Debye)      :      1.55849

Rotational constants in cm-1:     0.017580     0.008918     0.006651
Rotational constants in MHz :   527.031779   267.356152   199.393123

                             ****ORCA TERMINATED NORMALLY****
TOTAL RUN TIME: 0 days 0 hours 0 minutes 21 seconds 429 msec
