                         Program Version 4.2.1 -  RELEASE  -
|  1> ! wB97X-D3 SP def2-SVP
|  2> %pal
|  3> nprocs 24
|  4> end
|  5>
|  6> * xyz 0 1
|  7> S 	 -62.0766 	 13.2041 	 -122.686
|  8> C 	 -61.0857 	 13.2577 	 -121.234
|  9> C 	 -61.8541 	 13.7237 	 -120.178
| 10> C 	 -63.2403 	 13.7748 	 -120.497
| 11> C 	 -63.5638 	 13.5264 	 -121.85
| 12> H 	 -63.9969 	 13.9564 	 -119.763
| 13> C 	 -61.447 	 13.8697 	 -118.761
| 14> H 	 -62.277 	 14.2955 	 -118.161
| 15> H 	 -60.6181 	 14.521 	 -118.728
| 16> C 	 -60.9304 	 12.6395 	 -117.999
| 17> H 	 -61.6686 	 11.8557 	 -118.065
| 18> H 	 -60.0885 	 12.2545 	 -118.479
| 19> C 	 -60.408 	 12.9684 	 -116.583
| 20> H 	 -61.2331 	 13.32 	 -115.994
| 21> H 	 -59.9799 	 12.151 	 -116.163
| 22> H 	 -59.6533 	 13.7619 	 -116.78
| 23> S 	 -64.8427 	 13.2061 	 -124.228
| 24> C 	 -66.6114 	 13.0227 	 -124.272
| 25> C 	 -67.1299 	 13.2253 	 -122.99
| 26> C 	 -66.1194 	 13.3986 	 -121.969
| 27> C 	 -64.8409 	 13.3714 	 -122.503
| 28> H 	 -68.1826 	 13.1805 	 -122.886
| 29> C 	 -66.5652 	 13.4843 	 -120.489
| 30> H 	 -65.8973 	 13.0399 	 -119.805
| 31> H 	 -67.4773 	 12.8629 	 -120.314
| 32> C 	 -66.9644 	 14.8566 	 -120.089
| 33> H 	 -67.775 	 15.2438 	 -120.673
| 34> H 	 -66.1311 	 15.4996 	 -120.239
| 35> C 	 -67.1474 	 14.9274 	 -118.548
| 36> H 	 -66.1439 	 14.8681 	 -118.046
| 37> H 	 -67.751 	 14.1261 	 -118.169
| 38> H 	 -67.6269 	 15.8154 	 -118.199
| 39> H 	 -59.9827 	 13.1205 	 -121.213
| 40> H 	 -67.1957 	 13.0351 	 -125.172
| 41> *
| 42>
| 43>                          ****END OF INPUT****

CARTESIAN COORDINATES (ANGSTROEM)
---------------------------------
  S    -62.076600   13.204100  -122.686000
  C    -61.085700   13.257700  -121.234000
  C    -61.854100   13.723700  -120.178000
  C    -63.240300   13.774800  -120.497000
  C    -63.563800   13.526400  -121.850000
  H    -63.996900   13.956400  -119.763000
  C    -61.447000   13.869700  -118.761000
  H    -62.277000   14.295500  -118.161000
  H    -60.618100   14.521000  -118.728000
  C    -60.930400   12.639500  -117.999000
  H    -61.668600   11.855700  -118.065000
  H    -60.088500   12.254500  -118.479000
  C    -60.408000   12.968400  -116.583000
  H    -61.233100   13.320000  -115.994000
  H    -59.979900   12.151000  -116.163000
  H    -59.653300   13.761900  -116.780000
  S    -64.842700   13.206100  -124.228000
  C    -66.611400   13.022700  -124.272000
  C    -67.129900   13.225300  -122.990000
  C    -66.119400   13.398600  -121.969000
  C    -64.840900   13.371400  -122.503000
  H    -68.182600   13.180500  -122.886000
  C    -66.565200   13.484300  -120.489000
  H    -65.897300   13.039900  -119.805000
  H    -67.477300   12.862900  -120.314000
  C    -66.964400   14.856600  -120.089000
  H    -67.775000   15.243800  -120.673000
  H    -66.131100   15.499600  -120.239000
  C    -67.147400   14.927400  -118.548000
  H    -66.143900   14.868100  -118.046000
  H    -67.751000   14.126100  -118.169000
  H    -67.626900   15.815400  -118.199000
  H    -59.982700   13.120500  -121.213000
  H    -67.195700   13.035100  -125.172000

 Total Charge           Charge          ....    0
 Multiplicity           Mult            ....    1
 Number of Electrons    NEL             ....  134
 Basis Dimension        Dim             ....  322

ORBITAL ENERGIES
----------------

  NO   OCC          E(Eh)            E(eV)
   0   2.0000     -88.967032     -2420.9160
   1   2.0000     -88.966806     -2420.9099
   2   2.0000     -10.332758      -281.1686
   3   2.0000     -10.331109      -281.1238
   4   2.0000     -10.320859      -280.8449
   5   2.0000     -10.318815      -280.7892
   6   2.0000     -10.308915      -280.5198
   7   2.0000     -10.299805      -280.2720
   8   2.0000     -10.297873      -280.2194
   9   2.0000     -10.293363      -280.0967
  10   2.0000     -10.292382      -280.0699
  11   2.0000     -10.286850      -279.9194
  12   2.0000     -10.280219      -279.7390
  13   2.0000     -10.279988      -279.7327
  14   2.0000     -10.278281      -279.6862
  15   2.0000     -10.274431      -279.5815
  16   2.0000      -8.081730      -219.9151
  17   2.0000      -8.081454      -219.9075
  18   2.0000      -6.040365      -164.3667
  19   2.0000      -6.040082      -164.3590
  20   2.0000      -6.036286      -164.2557
  21   2.0000      -6.035846      -164.2437
  22   2.0000      -6.032325      -164.1479
  23   2.0000      -6.032226      -164.1452
  24   2.0000      -1.008913       -27.4539
  25   2.0000      -0.983320       -26.7575
  26   2.0000      -0.919387       -25.0178
  27   2.0000      -0.916265       -24.9328
  28   2.0000      -0.873546       -23.7704
  29   2.0000      -0.853249       -23.2181
  30   2.0000      -0.845975       -23.0201
  31   2.0000      -0.813343       -22.1322
  32   2.0000      -0.784157       -21.3380
  33   2.0000      -0.775969       -21.1152
  34   2.0000      -0.709204       -19.2984
  35   2.0000      -0.706773       -19.2323
  36   2.0000      -0.698860       -19.0169
  37   2.0000      -0.670173       -18.2363
  38   2.0000      -0.636648       -17.3241
  39   2.0000      -0.626271       -17.0417
  40   2.0000      -0.601844       -16.3770
  41   2.0000      -0.577899       -15.7254
  42   2.0000      -0.572288       -15.5728
  43   2.0000      -0.565450       -15.3867
  44   2.0000      -0.530783       -14.4433
  45   2.0000      -0.527319       -14.3491
  46   2.0000      -0.517798       -14.0900
  47   2.0000      -0.513195       -13.9647
  48   2.0000      -0.509151       -13.8547
  49   2.0000      -0.500287       -13.6135
  50   2.0000      -0.493118       -13.4184
  51   2.0000      -0.487266       -13.2592
  52   2.0000      -0.481391       -13.0993
  53   2.0000      -0.464575       -12.6417
  54   2.0000      -0.458210       -12.4685
  55   2.0000      -0.449450       -12.2302
  56   2.0000      -0.448872       -12.2144
  57   2.0000      -0.442657       -12.0453
  58   2.0000      -0.433461       -11.7951
  59   2.0000      -0.427375       -11.6295
  60   2.0000      -0.424653       -11.5554
  61   2.0000      -0.417886       -11.3713
  62   2.0000      -0.408711       -11.1216
  63   2.0000      -0.363532        -9.8922
  64   2.0000      -0.336384        -9.1535
  65   2.0000      -0.326387        -8.8814
  66   2.0000      -0.280880        -7.6431
  67   0.0000       0.014248         0.3877
  68   0.0000       0.085301         2.3212
  69   0.0000       0.092000         2.5035
  70   0.0000       0.115333         3.1384
  71   0.0000       0.128999         3.5102

MULLIKEN ATOMIC CHARGES
-----------------------
   0 S :    0.096252
   1 C :   -0.145510
   2 C :   -0.037661
   3 C :   -0.019317
   4 C :   -0.100270
   5 H :   -0.016459
   6 C :    0.059408
   7 H :    0.022569
   8 H :    0.007145
   9 C :   -0.067982
  10 H :    0.020884
  11 H :    0.003241
  12 C :   -0.003332
  13 H :    0.029741
  14 H :    0.019327
  15 H :    0.029991
  16 S :    0.092419
  17 C :   -0.086653
  18 C :   -0.021256
  19 C :   -0.057428
  20 C :   -0.085174
  21 H :    0.010133
  22 C :    0.036889
  23 H :    0.014135
  24 H :    0.023657
  25 C :   -0.036853
  26 H :    0.026301
  27 H :    0.020452
  28 C :   -0.045222
  29 H :    0.034930
  30 H :    0.019167
  31 H :    0.029578
  32 H :    0.067341
  33 H :    0.059558
Sum of atomic charges:    0.0000000

LOEWDIN ATOMIC CHARGES
----------------------
   0 S :    0.409919
   1 C :   -0.200954
   2 C :   -0.064086
   3 C :   -0.068126
   4 C :   -0.189668
   5 H :    0.021234
   6 C :   -0.032497
   7 H :    0.031890
   8 H :    0.024187
   9 C :   -0.031717
  10 H :    0.017836
  11 H :    0.012361
  12 C :   -0.046406
  13 H :    0.022380
  14 H :    0.013028
  15 H :    0.031867
  16 S :    0.397481
  17 C :   -0.176709
  18 C :   -0.058026
  19 C :   -0.052599
  20 C :   -0.195305
  21 H :    0.026179
  22 C :   -0.030020
  23 H :    0.019897
  24 H :    0.035311
  25 C :   -0.036551
  26 H :    0.022360
  27 H :    0.021269
  28 C :   -0.061369
  29 H :    0.030125
  30 H :    0.017647
  31 H :    0.022437
  32 H :    0.038136
  33 H :    0.028488

  Mayer bond orders larger than 0.100000
B(  0-S ,  1-C ) :   1.1422 B(  0-S ,  4-C ) :   1.1589 B(  1-C ,  2-C ) :   1.5660
B(  1-C ,  4-C ) :   0.1041 B(  1-C , 32-H ) :   0.9668 B(  2-C ,  3-C ) :   1.2772
B(  2-C ,  6-C ) :   1.0435 B(  3-C ,  4-C ) :   1.5209 B(  3-C ,  5-H ) :   0.9908
B(  4-C , 20-C ) :   1.0992 B(  6-C ,  7-H ) :   0.9449 B(  6-C ,  8-H ) :   0.9204
B(  6-C ,  9-C ) :   1.0727 B(  9-C , 10-H ) :   0.9557 B(  9-C , 11-H ) :   0.9507
B(  9-C , 12-C ) :   1.0769 B( 12-C , 13-H ) :   0.9786 B( 12-C , 14-H ) :   0.9734
B( 12-C , 15-H ) :   0.9744 B( 16-S , 17-C ) :   1.1364 B( 16-S , 20-C ) :   1.1350
B( 17-C , 18-C ) :   1.6199 B( 17-C , 33-H ) :   0.9692 B( 18-C , 19-C ) :   1.2381
B( 18-C , 21-H ) :   0.9928 B( 19-C , 20-C ) :   1.5934 B( 19-C , 22-C ) :   1.0280
B( 22-C , 23-H ) :   0.9415 B( 22-C , 24-H ) :   0.9315 B( 22-C , 25-C ) :   1.0652
B( 25-C , 26-H ) :   0.9551 B( 25-C , 27-H ) :   0.9542 B( 25-C , 28-C ) :   1.0753
B( 28-C , 29-H ) :   0.9762 B( 28-C , 30-H ) :   0.9733 B( 28-C , 31-H ) :   0.9737

Dispersion correction           -0.013739631
FINAL SINGLE POINT ENERGY     -1339.873011977176

DIPOLE MOMENT
-------------
                                X             Y             Z
Electronic contribution:      2.02673      -3.78505     -32.31565
Nuclear contribution   :     -2.28107       3.84469      32.97092
                        -----------------------------------------
Total Dipole Moment    :     -0.25434       0.05964       0.65527
                        -----------------------------------------
Magnitude (a.u.)       :      0.70543
Magnitude (Debye)      :      1.79305

Rotational constants in cm-1:     0.018240     0.008784     0.006172
Rotational constants in MHz :   546.833358   263.328550   185.025902

                             ****ORCA TERMINATED NORMALLY****
TOTAL RUN TIME: 0 days 0 hours 0 minutes 20 seconds 411 msec
