                         Program Version 4.2.1 -  RELEASE  -
|  1> ! wB97X-D3 SP def2-SVP
|  2> %pal
|  3> nprocs 24
|  4> end
|  5>
|  6> * xyz 0 1
|  7> S 	 -3.44229 	 -30.2828 	 -114.026
|  8> C 	 -4.54418 	 -30.1826 	 -115.378
|  9> C 	 -5.46427 	 -31.1822 	 -115.287
| 10> C 	 -5.40141 	 -31.998 	 -114.093
| 11> C 	 -4.36969 	 -31.5333 	 -113.279
| 12> H 	 -5.98398 	 -32.7626 	 -113.749
| 13> C 	 -6.46855 	 -31.4841 	 -116.443
| 14> H 	 -6.93359 	 -32.4475 	 -116.245
| 15> H 	 -5.81093 	 -31.5955 	 -117.246
| 16> C 	 -7.54071 	 -30.4691 	 -116.685
| 17> H 	 -7.11024 	 -29.454 	 -116.926
| 18> H 	 -8.05082 	 -30.882 	 -117.602
| 19> C 	 -8.49922 	 -30.2278 	 -115.58
| 20> H 	 -7.99504 	 -29.6977 	 -114.787
| 21> H 	 -9.33881 	 -29.5064 	 -115.862
| 22> H 	 -8.84022 	 -31.206 	 -115.197
| 23> S 	 -2.38207 	 -32.9682 	 -112.036
| 24> C 	 -2.4687 	 -33.1971 	 -110.333
| 25> C 	 -3.64491 	 -32.8039 	 -109.803
| 26> C 	 -4.42733 	 -32.0261 	 -110.744
| 27> C 	 -3.93979 	 -32.1104 	 -112.017
| 28> H 	 -3.7096 	 -32.9055 	 -108.691
| 29> C 	 -5.73946 	 -31.4017 	 -110.409
| 30> H 	 -5.94401 	 -30.5539 	 -111.001
| 31> H 	 -5.66251 	 -31.0858 	 -109.398
| 32> C 	 -7.00633 	 -32.2208 	 -110.436
| 33> H 	 -7.2475 	 -32.2737 	 -111.468
| 34> H 	 -7.81725 	 -31.5717 	 -109.986
| 35> C 	 -6.91787 	 -33.6406 	 -109.82
| 36> H 	 -6.8031 	 -33.7304 	 -108.763
| 37> H 	 -6.03386 	 -34.1497 	 -110.191
| 38> H 	 -7.81414 	 -34.2062 	 -110.072
| 39> H 	 -4.68194 	 -29.5888 	 -116.19
| 40> H 	 -1.60169 	 -33.4852 	 -109.727
| 41> *
| 42>
| 43>                          ****END OF INPUT****

CARTESIAN COORDINATES (ANGSTROEM)
---------------------------------
  S     -3.442290  -30.282800  -114.026000
  C     -4.544180  -30.182600  -115.378000
  C     -5.464270  -31.182200  -115.287000
  C     -5.401410  -31.998000  -114.093000
  C     -4.369690  -31.533300  -113.279000
  H     -5.983980  -32.762600  -113.749000
  C     -6.468550  -31.484100  -116.443000
  H     -6.933590  -32.447500  -116.245000
  H     -5.810930  -31.595500  -117.246000
  C     -7.540710  -30.469100  -116.685000
  H     -7.110240  -29.454000  -116.926000
  H     -8.050820  -30.882000  -117.602000
  C     -8.499220  -30.227800  -115.580000
  H     -7.995040  -29.697700  -114.787000
  H     -9.338810  -29.506400  -115.862000
  H     -8.840220  -31.206000  -115.197000
  S     -2.382070  -32.968200  -112.036000
  C     -2.468700  -33.197100  -110.333000
  C     -3.644910  -32.803900  -109.803000
  C     -4.427330  -32.026100  -110.744000
  C     -3.939790  -32.110400  -112.017000
  H     -3.709600  -32.905500  -108.691000
  C     -5.739460  -31.401700  -110.409000
  H     -5.944010  -30.553900  -111.001000
  H     -5.662510  -31.085800  -109.398000
  C     -7.006330  -32.220800  -110.436000
  H     -7.247500  -32.273700  -111.468000
  H     -7.817250  -31.571700  -109.986000
  C     -6.917870  -33.640600  -109.820000
  H     -6.803100  -33.730400  -108.763000
  H     -6.033860  -34.149700  -110.191000
  H     -7.814140  -34.206200  -110.072000
  H     -4.681940  -29.588800  -116.190000
  H     -1.601690  -33.485200  -109.727000

 Total Charge           Charge          ....    0
 Multiplicity           Mult            ....    1
 Number of Electrons    NEL             ....  134
 Basis Dimension        Dim             ....  322

ORBITAL ENERGIES
----------------

  NO   OCC          E(Eh)            E(eV)
   0   2.0000     -88.969797     -2420.9913
   1   2.0000     -88.959707     -2420.7167
   2   2.0000     -10.327642      -281.0294
   3   2.0000     -10.322580      -280.8917
   4   2.0000     -10.313164      -280.6355
   5   2.0000     -10.304004      -280.3862
   6   2.0000     -10.303429      -280.3706
   7   2.0000     -10.299182      -280.2550
   8   2.0000     -10.294878      -280.1379
   9   2.0000     -10.292024      -280.0602
  10   2.0000     -10.289284      -279.9856
  11   2.0000     -10.286577      -279.9120
  12   2.0000     -10.284915      -279.8668
  13   2.0000     -10.279671      -279.7241
  14   2.0000     -10.276556      -279.6393
  15   2.0000     -10.272464      -279.5280
  16   2.0000      -8.084411      -219.9880
  17   2.0000      -8.075254      -219.7388
  18   2.0000      -6.042991      -164.4381
  19   2.0000      -6.038821      -164.3247
  20   2.0000      -6.035189      -164.2258
  21   2.0000      -6.033715      -164.1857
  22   2.0000      -6.029728      -164.0772
  23   2.0000      -6.025919      -163.9736
  24   2.0000      -1.010514       -27.4975
  25   2.0000      -0.988131       -26.8884
  26   2.0000      -0.919261       -25.0144
  27   2.0000      -0.913433       -24.8558
  28   2.0000      -0.874296       -23.7908
  29   2.0000      -0.848888       -23.0994
  30   2.0000      -0.843286       -22.9470
  31   2.0000      -0.820745       -22.3336
  32   2.0000      -0.790410       -21.5082
  33   2.0000      -0.781079       -21.2542
  34   2.0000      -0.714704       -19.4481
  35   2.0000      -0.695121       -18.9152
  36   2.0000      -0.690522       -18.7901
  37   2.0000      -0.658492       -17.9185
  38   2.0000      -0.646491       -17.5919
  39   2.0000      -0.608437       -16.5564
  40   2.0000      -0.591581       -16.0977
  41   2.0000      -0.582161       -15.8414
  42   2.0000      -0.562884       -15.3169
  43   2.0000      -0.556857       -15.1529
  44   2.0000      -0.544696       -14.8219
  45   2.0000      -0.541847       -14.7444
  46   2.0000      -0.517136       -14.0720
  47   2.0000      -0.513877       -13.9833
  48   2.0000      -0.506997       -13.7961
  49   2.0000      -0.496824       -13.5193
  50   2.0000      -0.491621       -13.3777
  51   2.0000      -0.478751       -13.0275
  52   2.0000      -0.476352       -12.9622
  53   2.0000      -0.470471       -12.8022
  54   2.0000      -0.459823       -12.5124
  55   2.0000      -0.450137       -12.2489
  56   2.0000      -0.441022       -12.0008
  57   2.0000      -0.437038       -11.8924
  58   2.0000      -0.431008       -11.7283
  59   2.0000      -0.430432       -11.7127
  60   2.0000      -0.419653       -11.4194
  61   2.0000      -0.409005       -11.1296
  62   2.0000      -0.403845       -10.9892
  63   2.0000      -0.337658        -9.1882
  64   2.0000      -0.330168        -8.9843
  65   2.0000      -0.326883        -8.8949
  66   2.0000      -0.308239        -8.3876
  67   0.0000       0.037864         1.0303
  68   0.0000       0.063426         1.7259
  69   0.0000       0.116750         3.1769
  70   0.0000       0.121990         3.3195
  71   0.0000       0.127043         3.4570

MULLIKEN ATOMIC CHARGES
-----------------------
   0 S :    0.140388
   1 C :   -0.049311
   2 C :   -0.134574
   3 C :    0.083458
   4 C :   -0.175337
   5 H :   -0.021059
   6 C :    0.100449
   7 H :    0.014892
   8 H :    0.024781
   9 C :   -0.093117
  10 H :    0.026505
  11 H :    0.037265
  12 C :   -0.047424
  13 H :    0.033166
  14 H :    0.047596
  15 H :    0.026313
  16 S :    0.099172
  17 C :   -0.103926
  18 C :   -0.044189
  19 C :   -0.054809
  20 C :   -0.175700
  21 H :    0.037437
  22 C :    0.122345
  23 H :    0.019062
  24 H :    0.001336
  25 C :   -0.059784
  26 H :    0.006744
  27 H :    0.034931
  28 C :   -0.050465
  29 H :    0.020681
  30 H :    0.042838
  31 H :    0.034493
  32 H :   -0.010771
  33 H :    0.066613
Sum of atomic charges:    0.0000000

LOEWDIN ATOMIC CHARGES
----------------------
   0 S :    0.428692
   1 C :   -0.196392
   2 C :   -0.054241
   3 C :   -0.049352
   4 C :   -0.200290
   5 H :    0.016397
   6 C :   -0.027026
   7 H :    0.028513
   8 H :    0.026730
   9 C :   -0.051960
  10 H :    0.024783
  11 H :    0.030007
  12 C :   -0.069955
  13 H :    0.024726
  14 H :    0.037564
  15 H :    0.023608
  16 S :    0.393078
  17 C :   -0.187918
  18 C :   -0.085683
  19 C :   -0.049810
  20 C :   -0.194840
  21 H :    0.041563
  22 C :   -0.030944
  23 H :    0.029584
  24 H :    0.024771
  25 C :   -0.033472
  26 H :    0.014148
  27 H :    0.031962
  28 C :   -0.069016
  29 H :    0.019736
  30 H :    0.028877
  31 H :    0.028532
  32 H :    0.012735
  33 H :    0.034892

  Mayer bond orders larger than 0.100000
B(  0-S ,  1-C ) :   1.1175 B(  0-S ,  4-C ) :   1.1690 B(  1-C ,  2-C ) :   1.6440
B(  1-C , 32-H ) :   0.9737 B(  2-C ,  3-C ) :   1.2119 B(  2-C ,  6-C ) :   0.9915
B(  3-C ,  4-C ) :   1.5688 B(  3-C ,  5-H ) :   1.0091 B(  4-C , 20-C ) :   1.0235
B(  6-C ,  7-H ) :   0.9413 B(  6-C ,  8-H ) :   0.9390 B(  6-C ,  9-C ) :   1.0857
B(  9-C , 10-H ) :   0.9523 B(  9-C , 11-H ) :   0.9512 B(  9-C , 12-C ) :   1.0813
B( 12-C , 13-H ) :   0.9693 B( 12-C , 14-H ) :   0.9704 B( 12-C , 15-H ) :   0.9728
B( 16-S , 17-C ) :   1.1553 B( 16-S , 20-C ) :   1.1216 B( 17-C , 18-C ) :   1.6571
B( 17-C , 33-H ) :   0.9596 B( 18-C , 19-C ) :   1.1876 B( 18-C , 21-H ) :   0.9787
B( 19-C , 20-C ) :   1.6386 B( 19-C , 22-C ) :   1.0696 B( 22-C , 23-H ) :   0.9241
B( 22-C , 24-H ) :   0.9165 B( 22-C , 25-C ) :   1.0806 B( 25-C , 26-H ) :   0.9526
B( 25-C , 27-H ) :   0.9513 B( 25-C , 28-C ) :   1.0767 B( 28-C , 29-H ) :   0.9761
B( 28-C , 30-H ) :   0.9682 B( 28-C , 31-H ) :   0.9741

Dispersion correction           -0.015204536
FINAL SINGLE POINT ENERGY     -1339.863170772738

DIPOLE MOMENT
-------------
                                X             Y             Z
Electronic contribution:     27.27843       0.20883       0.51102
Nuclear contribution   :    -27.75724      -0.21579      -0.44868
                        -----------------------------------------
Total Dipole Moment    :     -0.47881      -0.00696       0.06234
                        -----------------------------------------
Magnitude (a.u.)       :      0.48290
Magnitude (Debye)      :      1.22744

Rotational constants in cm-1:     0.020401     0.009100     0.006978
Rotational constants in MHz :   611.621218   272.809568   209.200772

                             ****ORCA TERMINATED NORMALLY****
TOTAL RUN TIME: 0 days 0 hours 0 minutes 22 seconds 698 msec
