                         Program Version 4.2.1 -  RELEASE  -
|  1> ! wB97X-D3 SP def2-SVP
|  2> %pal
|  3> nprocs 24
|  4> end
|  5>
|  6> * xyz 0 1
|  7> S 	 -109.476 	 53.8564 	 -87.2689
|  8> C 	 -108.513 	 52.7258 	 -86.3502
|  9> C 	 -108.913 	 52.7054 	 -85.0082
| 10> C 	 -110.003 	 53.6015 	 -84.7456
| 11> C 	 -110.525 	 54.208 	 -85.8621
| 12> H 	 -110.444 	 53.661 	 -83.7652
| 13> C 	 -108.351 	 51.7956 	 -83.8809
| 14> H 	 -109.077 	 51.6698 	 -83.0949
| 15> H 	 -107.56 	 52.4665 	 -83.5546
| 16> C 	 -107.811 	 50.3954 	 -84.3443
| 17> H 	 -106.91 	 50.5121 	 -84.9497
| 18> H 	 -107.435 	 49.897 	 -83.4137
| 19> C 	 -108.726 	 49.4278 	 -85.0526
| 20> H 	 -109.62 	 49.1862 	 -84.4211
| 21> H 	 -109.142 	 49.7385 	 -86.0031
| 22> H 	 -108.144 	 48.5126 	 -85.1376
| 23> S 	 -111.593 	 56.5859 	 -86.7447
| 24> C 	 -113.311 	 56.8186 	 -86.4144
| 25> C 	 -113.894 	 55.8187 	 -85.7071
| 26> C 	 -112.996 	 54.7216 	 -85.499
| 27> C 	 -111.755 	 54.8925 	 -86.0328
| 28> H 	 -114.974 	 55.7931 	 -85.3392
| 29> C 	 -113.421 	 53.471 	 -84.7643
| 30> H 	 -112.747 	 52.63 	 -84.9459
| 31> H 	 -114.401 	 53.0875 	 -85.2112
| 32> C 	 -113.537 	 53.6219 	 -83.239
| 33> H 	 -114.06 	 54.5225 	 -82.9909
| 34> H 	 -112.5 	 53.8589 	 -82.9026
| 35> C 	 -114.193 	 52.4009 	 -82.589
| 36> H 	 -113.691 	 51.5174 	 -82.8973
| 37> H 	 -115.142 	 52.3754 	 -82.8762
| 38> H 	 -114.147 	 52.4033 	 -81.4855
| 39> H 	 -107.551 	 52.3207 	 -86.7291
| 40> H 	 -113.812 	 57.8031 	 -86.4385
| 41> *
| 42>
| 43>                          ****END OF INPUT****

CARTESIAN COORDINATES (ANGSTROEM)
---------------------------------
  S    -109.476000   53.856400  -87.268900
  C    -108.513000   52.725800  -86.350200
  C    -108.913000   52.705400  -85.008200
  C    -110.003000   53.601500  -84.745600
  C    -110.525000   54.208000  -85.862100
  H    -110.444000   53.661000  -83.765200
  C    -108.351000   51.795600  -83.880900
  H    -109.077000   51.669800  -83.094900
  H    -107.560000   52.466500  -83.554600
  C    -107.811000   50.395400  -84.344300
  H    -106.910000   50.512100  -84.949700
  H    -107.435000   49.897000  -83.413700
  C    -108.726000   49.427800  -85.052600
  H    -109.620000   49.186200  -84.421100
  H    -109.142000   49.738500  -86.003100
  H    -108.144000   48.512600  -85.137600
  S    -111.593000   56.585900  -86.744700
  C    -113.311000   56.818600  -86.414400
  C    -113.894000   55.818700  -85.707100
  C    -112.996000   54.721600  -85.499000
  C    -111.755000   54.892500  -86.032800
  H    -114.974000   55.793100  -85.339200
  C    -113.421000   53.471000  -84.764300
  H    -112.747000   52.630000  -84.945900
  H    -114.401000   53.087500  -85.211200
  C    -113.537000   53.621900  -83.239000
  H    -114.060000   54.522500  -82.990900
  H    -112.500000   53.858900  -82.902600
  C    -114.193000   52.400900  -82.589000
  H    -113.691000   51.517400  -82.897300
  H    -115.142000   52.375400  -82.876200
  H    -114.147000   52.403300  -81.485500
  H    -107.551000   52.320700  -86.729100
  H    -113.812000   57.803100  -86.438500

 Total Charge           Charge          ....    0
 Multiplicity           Mult            ....    1
 Number of Electrons    NEL             ....  134
 Basis Dimension        Dim             ....  322

ORBITAL ENERGIES
----------------

  NO   OCC          E(Eh)            E(eV)
   0   2.0000     -88.963384     -2420.8168
   1   2.0000     -88.961986     -2420.7787
   2   2.0000     -10.328795      -281.0608
   3   2.0000     -10.327313      -281.0205
   4   2.0000     -10.321012      -280.8490
   5   2.0000     -10.316760      -280.7333
   6   2.0000     -10.304859      -280.4095
   7   2.0000     -10.304473      -280.3990
   8   2.0000     -10.299718      -280.2696
   9   2.0000     -10.297395      -280.2064
  10   2.0000     -10.295910      -280.1659
  11   2.0000     -10.294168      -280.1185
  12   2.0000     -10.293668      -280.1049
  13   2.0000     -10.288839      -279.9736
  14   2.0000     -10.278383      -279.6890
  15   2.0000     -10.271106      -279.4910
  16   2.0000      -8.077114      -219.7894
  17   2.0000      -8.076405      -219.7702
  18   2.0000      -6.035721      -164.2403
  19   2.0000      -6.034993      -164.2205
  20   2.0000      -6.032091      -164.1415
  21   2.0000      -6.030918      -164.1096
  22   2.0000      -6.027474      -164.0159
  23   2.0000      -6.027136      -164.0067
  24   2.0000      -1.002673       -27.2841
  25   2.0000      -0.978508       -26.6266
  26   2.0000      -0.911253       -24.7965
  27   2.0000      -0.905911       -24.6511
  28   2.0000      -0.871152       -23.7053
  29   2.0000      -0.854047       -23.2398
  30   2.0000      -0.846758       -23.0415
  31   2.0000      -0.812593       -22.1118
  32   2.0000      -0.785864       -21.3844
  33   2.0000      -0.772361       -21.0170
  34   2.0000      -0.708865       -19.2892
  35   2.0000      -0.700826       -19.0705
  36   2.0000      -0.695748       -18.9323
  37   2.0000      -0.662019       -18.0145
  38   2.0000      -0.635681       -17.2978
  39   2.0000      -0.612746       -16.6737
  40   2.0000      -0.596695       -16.2369
  41   2.0000      -0.570795       -15.5321
  42   2.0000      -0.566477       -15.4146
  43   2.0000      -0.551118       -14.9967
  44   2.0000      -0.537944       -14.6382
  45   2.0000      -0.523301       -14.2398
  46   2.0000      -0.515139       -14.0176
  47   2.0000      -0.508985       -13.8502
  48   2.0000      -0.507790       -13.8177
  49   2.0000      -0.501551       -13.6479
  50   2.0000      -0.492880       -13.4119
  51   2.0000      -0.480061       -13.0631
  52   2.0000      -0.472132       -12.8474
  53   2.0000      -0.464737       -12.6461
  54   2.0000      -0.459357       -12.4997
  55   2.0000      -0.455121       -12.3845
  56   2.0000      -0.442919       -12.0524
  57   2.0000      -0.439521       -11.9600
  58   2.0000      -0.431892       -11.7524
  59   2.0000      -0.422681       -11.5017
  60   2.0000      -0.420449       -11.4410
  61   2.0000      -0.415907       -11.3174
  62   2.0000      -0.411501       -11.1975
  63   2.0000      -0.347380        -9.4527
  64   2.0000      -0.332689        -9.0529
  65   2.0000      -0.327902        -8.9227
  66   2.0000      -0.290569        -7.9068
  67   0.0000       0.025545         0.6951
  68   0.0000       0.063433         1.7261
  69   0.0000       0.100074         2.7232
  70   0.0000       0.121551         3.3076
  71   0.0000       0.127031         3.4567

MULLIKEN ATOMIC CHARGES
-----------------------
   0 S :    0.098649
   1 C :   -0.133386
   2 C :   -0.139367
   3 C :    0.037816
   4 C :   -0.136863
   5 H :   -0.003321
   6 C :    0.081426
   7 H :    0.023820
   8 H :    0.048008
   9 C :   -0.099654
  10 H :    0.024871
  11 H :    0.032584
  12 C :   -0.036944
  13 H :    0.026088
  14 H :    0.043108
  15 H :    0.035658
  16 S :    0.076397
  17 C :   -0.072738
  18 C :   -0.054658
  19 C :   -0.025481
  20 C :   -0.122999
  21 H :    0.047783
  22 C :   -0.002631
  23 H :    0.031793
  24 H :    0.032430
  25 C :   -0.071227
  26 H :    0.015777
  27 H :    0.016466
  28 C :    0.033559
  29 H :    0.017583
  30 H :    0.003374
  31 H :    0.035868
  32 H :    0.066632
  33 H :    0.069578
Sum of atomic charges:   -0.0000000

LOEWDIN ATOMIC CHARGES
----------------------
   0 S :    0.387707
   1 C :   -0.213339
   2 C :   -0.062550
   3 C :   -0.061053
   4 C :   -0.182664
   5 H :    0.026779
   6 C :   -0.029497
   7 H :    0.025231
   8 H :    0.041476
   9 C :   -0.047693
  10 H :    0.021579
  11 H :    0.031639
  12 C :   -0.066442
  13 H :    0.027459
  14 H :    0.024467
  15 H :    0.030419
  16 S :    0.353161
  17 C :   -0.174649
  18 C :   -0.079761
  19 C :   -0.049607
  20 C :   -0.168517
  21 H :    0.047228
  22 C :   -0.036072
  23 H :    0.029564
  24 H :    0.033911
  25 C :   -0.036836
  26 H :    0.016965
  27 H :    0.021389
  28 C :   -0.046464
  29 H :    0.022897
  30 H :    0.007791
  31 H :    0.032746
  32 H :    0.035318
  33 H :    0.037416

  Mayer bond orders larger than 0.100000
B(  0-S ,  1-C ) :   1.1336 B(  0-S ,  4-C ) :   1.1384 B(  1-C ,  2-C ) :   1.6126
B(  1-C ,  4-C ) :   0.1012 B(  1-C , 32-H ) :   0.9611 B(  2-C ,  3-C ) :   1.2559
B(  2-C ,  6-C ) :   0.9886 B(  3-C ,  4-C ) :   1.5592 B(  3-C ,  5-H ) :   0.9977
B(  4-C , 20-C ) :   1.0486 B(  6-C ,  7-H ) :   0.9507 B(  6-C ,  8-H ) :   0.9344
B(  6-C ,  9-C ) :   1.0785 B(  9-C , 10-H ) :   0.9512 B(  9-C , 11-H ) :   0.9543
B(  9-C , 12-C ) :   1.0837 B( 12-C , 13-H ) :   0.9734 B( 12-C , 14-H ) :   0.9732
B( 12-C , 15-H ) :   0.9708 B( 16-S , 17-C ) :   1.1381 B( 16-S , 20-C ) :   1.0897
B( 17-C , 18-C ) :   1.6559 B( 17-C , 33-H ) :   0.9542 B( 18-C , 19-C ) :   1.2044
B( 18-C , 21-H ) :   0.9756 B( 19-C , 20-C ) :   1.6653 B( 19-C , 22-C ) :   1.0392
B( 22-C , 23-H ) :   0.9365 B( 22-C , 24-H ) :   0.9420 B( 22-C , 25-C ) :   1.0509
B( 25-C , 26-H ) :   0.9570 B( 25-C , 27-H ) :   0.9482 B( 25-C , 28-C ) :   1.0746
B( 28-C , 29-H ) :   0.9720 B( 28-C , 30-H ) :   0.9727 B( 28-C , 31-H ) :   0.9726

Dispersion correction           -0.014593973
FINAL SINGLE POINT ENERGY     -1339.873836054786

DIPOLE MOMENT
-------------
                                X             Y             Z
Electronic contribution:      3.16688      23.46452     -19.62527
Nuclear contribution   :     -3.38169     -23.90066      20.40178
                        -----------------------------------------
Total Dipole Moment    :     -0.21481      -0.43614       0.77651
                        -----------------------------------------
Magnitude (a.u.)       :      0.91615
Magnitude (Debye)      :      2.32866

Rotational constants in cm-1:     0.018201     0.009278     0.006616
Rotational constants in MHz :   545.659951   278.141853   198.344054

                             ****ORCA TERMINATED NORMALLY****
TOTAL RUN TIME: 0 days 0 hours 0 minutes 21 seconds 945 msec
