                         Program Version 4.2.1 -  RELEASE  -
|  1> ! wB97X-D3 SP def2-SVP
|  2> %pal
|  3> nprocs 24
|  4> end
|  5>
|  6> * xyz 0 1
|  7> S 	 -118.126 	 58.7006 	 -38.3529
|  8> C 	 -117.509 	 58.1496 	 -36.8713
|  9> C 	 -116.914 	 59.0892 	 -36.117
| 10> C 	 -116.701 	 60.2718 	 -36.9194
| 11> C 	 -117.592 	 60.2959 	 -37.9572
| 12> H 	 -116.064 	 61.2022 	 -36.6283
| 13> C 	 -116.204 	 58.8525 	 -34.7813
| 14> H 	 -115.581 	 58.0253 	 -34.9547
| 15> H 	 -116.822 	 58.4861 	 -34.0196
| 16> C 	 -115.376 	 60.0181 	 -34.1909
| 17> H 	 -114.74 	 60.6184 	 -34.8549
| 18> H 	 -116.037 	 60.6782 	 -33.668
| 19> C 	 -114.488 	 59.4429 	 -33.0655
| 20> H 	 -113.958 	 58.5049 	 -33.3967
| 21> H 	 -113.768 	 60.1993 	 -32.6935
| 22> H 	 -115.123 	 59.1465 	 -32.2965
| 23> S 	 -117.915 	 60.8921 	 -40.6519
| 24> C 	 -118.016 	 62.5999 	 -41.0822
| 25> C 	 -117.93 	 63.4372 	 -39.9767
| 26> C 	 -117.776 	 62.7427 	 -38.7533
| 27> C 	 -117.748 	 61.3458 	 -38.938
| 28> H 	 -118.121 	 64.477 	 -40.1565
| 29> C 	 -117.541 	 63.4997 	 -37.4195
| 30> H 	 -117.628 	 64.5736 	 -37.5942
| 31> H 	 -116.63 	 63.3376 	 -37.0102
| 32> C 	 -118.51 	 63.1862 	 -36.2684
| 33> H 	 -118.342 	 62.1268 	 -36.0309
| 34> H 	 -119.551 	 63.2401 	 -36.7097
| 35> C 	 -118.272 	 63.8475 	 -34.9342
| 36> H 	 -119.087 	 63.5399 	 -34.2328
| 37> H 	 -118.37 	 64.9368 	 -35.0723
| 38> H 	 -117.337 	 63.4916 	 -34.4565
| 39> H 	 -117.66 	 57.1336 	 -36.5184
| 40> H 	 -118.209 	 63.0209 	 -42.0638
| 41> *
| 42>
| 43>                          ****END OF INPUT****

CARTESIAN COORDINATES (ANGSTROEM)
---------------------------------
  S    -118.126000   58.700600  -38.352900
  C    -117.509000   58.149600  -36.871300
  C    -116.914000   59.089200  -36.117000
  C    -116.701000   60.271800  -36.919400
  C    -117.592000   60.295900  -37.957200
  H    -116.064000   61.202200  -36.628300
  C    -116.204000   58.852500  -34.781300
  H    -115.581000   58.025300  -34.954700
  H    -116.822000   58.486100  -34.019600
  C    -115.376000   60.018100  -34.190900
  H    -114.740000   60.618400  -34.854900
  H    -116.037000   60.678200  -33.668000
  C    -114.488000   59.442900  -33.065500
  H    -113.958000   58.504900  -33.396700
  H    -113.768000   60.199300  -32.693500
  H    -115.123000   59.146500  -32.296500
  S    -117.915000   60.892100  -40.651900
  C    -118.016000   62.599900  -41.082200
  C    -117.930000   63.437200  -39.976700
  C    -117.776000   62.742700  -38.753300
  C    -117.748000   61.345800  -38.938000
  H    -118.121000   64.477000  -40.156500
  C    -117.541000   63.499700  -37.419500
  H    -117.628000   64.573600  -37.594200
  H    -116.630000   63.337600  -37.010200
  C    -118.510000   63.186200  -36.268400
  H    -118.342000   62.126800  -36.030900
  H    -119.551000   63.240100  -36.709700
  C    -118.272000   63.847500  -34.934200
  H    -119.087000   63.539900  -34.232800
  H    -118.370000   64.936800  -35.072300
  H    -117.337000   63.491600  -34.456500
  H    -117.660000   57.133600  -36.518400
  H    -118.209000   63.020900  -42.063800

 Total Charge           Charge          ....    0
 Multiplicity           Mult            ....    1
 Number of Electrons    NEL             ....  134
 Basis Dimension        Dim             ....  322

ORBITAL ENERGIES
----------------

  NO   OCC          E(Eh)            E(eV)
   0   2.0000     -88.969381     -2420.9799
   1   2.0000     -88.964131     -2420.8371
   2   2.0000     -10.328283      -281.0469
   3   2.0000     -10.322885      -280.9000
   4   2.0000     -10.316633      -280.7299
   5   2.0000     -10.306683      -280.4591
   6   2.0000     -10.304335      -280.3952
   7   2.0000     -10.300174      -280.2820
   8   2.0000     -10.299031      -280.2509
   9   2.0000     -10.291819      -280.0546
  10   2.0000     -10.290497      -280.0187
  11   2.0000     -10.288792      -279.9723
  12   2.0000     -10.284892      -279.8661
  13   2.0000     -10.283544      -279.8295
  14   2.0000     -10.280722      -279.7527
  15   2.0000     -10.279106      -279.7087
  16   2.0000      -8.083088      -219.9520
  17   2.0000      -8.080630      -219.8851
  18   2.0000      -6.041652      -164.4017
  19   2.0000      -6.039037      -164.3306
  20   2.0000      -6.037830      -164.2977
  21   2.0000      -6.035161      -164.2251
  22   2.0000      -6.033777      -164.1874
  23   2.0000      -6.031145      -164.1158
  24   2.0000      -1.015626       -27.6366
  25   2.0000      -0.983290       -26.7567
  26   2.0000      -0.916369       -24.9357
  27   2.0000      -0.906930       -24.6788
  28   2.0000      -0.873527       -23.7699
  29   2.0000      -0.853551       -23.2263
  30   2.0000      -0.846825       -23.0433
  31   2.0000      -0.814743       -22.1703
  32   2.0000      -0.785875       -21.3847
  33   2.0000      -0.772857       -21.0305
  34   2.0000      -0.714142       -19.4328
  35   2.0000      -0.695990       -18.9388
  36   2.0000      -0.679920       -18.5016
  37   2.0000      -0.661965       -18.0130
  38   2.0000      -0.637356       -17.3433
  39   2.0000      -0.621939       -16.9238
  40   2.0000      -0.597024       -16.2458
  41   2.0000      -0.576292       -15.6817
  42   2.0000      -0.568354       -15.4657
  43   2.0000      -0.564103       -15.3500
  44   2.0000      -0.528385       -14.3781
  45   2.0000      -0.519469       -14.1355
  46   2.0000      -0.509144       -13.8545
  47   2.0000      -0.506468       -13.7817
  48   2.0000      -0.504447       -13.7267
  49   2.0000      -0.500931       -13.6310
  50   2.0000      -0.494097       -13.4451
  51   2.0000      -0.485817       -13.2198
  52   2.0000      -0.475158       -12.9297
  53   2.0000      -0.465885       -12.6774
  54   2.0000      -0.461718       -12.5640
  55   2.0000      -0.453318       -12.3354
  56   2.0000      -0.444215       -12.0877
  57   2.0000      -0.439771       -11.9668
  58   2.0000      -0.432890       -11.7795
  59   2.0000      -0.431877       -11.7520
  60   2.0000      -0.421073       -11.4580
  61   2.0000      -0.417815       -11.3693
  62   2.0000      -0.405035       -11.0216
  63   2.0000      -0.352210        -9.5841
  64   2.0000      -0.336412        -9.1542
  65   2.0000      -0.327305        -8.9064
  66   2.0000      -0.281657        -7.6643
  67   0.0000       0.021107         0.5744
  68   0.0000       0.080000         2.1769
  69   0.0000       0.098514         2.6807
  70   0.0000       0.121666         3.3107
  71   0.0000       0.124878         3.3981

MULLIKEN ATOMIC CHARGES
-----------------------
   0 S :    0.106225
   1 C :   -0.114345
   2 C :   -0.063568
   3 C :   -0.047434
   4 C :   -0.122053
   5 H :    0.058575
   6 C :    0.084282
   7 H :    0.015090
   8 H :    0.014156
   9 C :   -0.087339
  10 H :    0.044142
  11 H :    0.030430
  12 C :   -0.056557
  13 H :    0.035280
  14 H :    0.043293
  15 H :    0.015477
  16 S :    0.104892
  17 C :   -0.094310
  18 C :   -0.043446
  19 C :   -0.017376
  20 C :   -0.143240
  21 H :    0.017417
  22 C :    0.123105
  23 H :    0.009641
  24 H :   -0.007688
  25 C :   -0.141861
  26 H :    0.033615
  27 H :    0.037608
  28 C :   -0.044595
  29 H :    0.042782
  30 H :    0.034098
  31 H :    0.038511
  32 H :    0.041968
  33 H :    0.053225
Sum of atomic charges:   -0.0000000

LOEWDIN ATOMIC CHARGES
----------------------
   0 S :    0.424779
   1 C :   -0.208773
   2 C :   -0.063071
   3 C :   -0.066859
   4 C :   -0.197876
   5 H :    0.047203
   6 C :   -0.024912
   7 H :    0.027635
   8 H :    0.028097
   9 C :   -0.038076
  10 H :    0.023388
  11 H :    0.022298
  12 C :   -0.060856
  13 H :    0.028104
  14 H :    0.030352
  15 H :    0.013941
  16 S :    0.386392
  17 C :   -0.184130
  18 C :   -0.069285
  19 C :   -0.051027
  20 C :   -0.184333
  21 H :    0.031827
  22 C :   -0.022097
  23 H :    0.028322
  24 H :    0.008885
  25 C :   -0.056021
  26 H :    0.023059
  27 H :    0.028470
  28 C :   -0.069608
  29 H :    0.036317
  30 H :    0.023472
  31 H :    0.028175
  32 H :    0.026170
  33 H :    0.030037

  Mayer bond orders larger than 0.100000
B(  0-S ,  1-C ) :   1.1426 B(  0-S ,  4-C ) :   1.1451 B(  1-C ,  2-C ) :   1.6468
B(  1-C , 32-H ) :   0.9660 B(  2-C ,  3-C ) :   1.2216 B(  2-C ,  6-C ) :   0.9994
B(  3-C ,  4-C ) :   1.5777 B(  3-C ,  5-H ) :   0.9604 B(  4-C , 20-C ) :   1.0846
B(  6-C ,  7-H ) :   0.9433 B(  6-C ,  8-H ) :   0.9323 B(  6-C ,  9-C ) :   1.0736
B(  9-C , 10-H ) :   0.9553 B(  9-C , 11-H ) :   0.9549 B(  9-C , 12-C ) :   1.0792
B( 12-C , 13-H ) :   0.9775 B( 12-C , 14-H ) :   0.9736 B( 12-C , 15-H ) :   0.9759
B( 16-S , 17-C ) :   1.1419 B( 16-S , 20-C ) :   1.1315 B( 17-C , 18-C ) :   1.6246
B( 17-C , 20-C ) :   0.1019 B( 17-C , 33-H ) :   0.9638 B( 18-C , 19-C ) :   1.2495
B( 18-C , 21-H ) :   0.9885 B( 19-C , 20-C ) :   1.5822 B( 19-C , 22-C ) :   1.0361
B( 22-C , 23-H ) :   0.9324 B( 22-C , 24-H ) :   0.9305 B( 22-C , 25-C ) :   1.0561
B( 25-C , 26-H ) :   0.9483 B( 25-C , 27-H ) :   0.9566 B( 25-C , 28-C ) :   1.0861
B( 28-C , 29-H ) :   0.9703 B( 28-C , 30-H ) :   0.9738 B( 28-C , 31-H ) :   0.9686

Dispersion correction           -0.014587428
FINAL SINGLE POINT ENERGY     -1339.857214285296

DIPOLE MOMENT
-------------
                                X             Y             Z
Electronic contribution:     -8.89342     -10.41726     -30.30258
Nuclear contribution   :      9.12367      10.61977      30.92209
                        -----------------------------------------
Total Dipole Moment    :      0.23024       0.20251       0.61951
                        -----------------------------------------
Magnitude (a.u.)       :      0.69124
Magnitude (Debye)      :      1.75699

Rotational constants in cm-1:     0.018559     0.009488     0.006935
Rotational constants in MHz :   556.389592   284.432773   207.918997

                             ****ORCA TERMINATED NORMALLY****
TOTAL RUN TIME: 0 days 0 hours 0 minutes 21 seconds 227 msec
