                         Program Version 4.2.1 -  RELEASE  -
|  1> ! wB97X-D3 SP def2-SVP
|  2> %pal
|  3> nprocs 24
|  4> end
|  5>
|  6> * xyz 0 1
|  7> S 	 -122.833 	 54.685 	 -33.4549
|  8> C 	 -121.303 	 54.1266 	 -32.9039
|  9> C 	 -120.394 	 53.9873 	 -33.9692
| 10> C 	 -120.945 	 54.3582 	 -35.2405
| 11> C 	 -122.313 	 54.6458 	 -35.1364
| 12> H 	 -120.535 	 54.2548 	 -36.2044
| 13> C 	 -118.955 	 53.4058 	 -33.8043
| 14> H 	 -118.754 	 53.0872 	 -32.7553
| 15> H 	 -118.321 	 54.3274 	 -33.964
| 16> C 	 -118.722 	 52.2767 	 -34.8988
| 17> H 	 -118.851 	 52.5375 	 -35.949
| 18> H 	 -117.63 	 52.1806 	 -34.9798
| 19> C 	 -119.609 	 51.0284 	 -34.7119
| 20> H 	 -119.678 	 50.5824 	 -33.6975
| 21> H 	 -120.659 	 51.2489 	 -34.9899
| 22> H 	 -119.153 	 50.2974 	 -35.3495
| 23> S 	 -123.605 	 56.7929 	 -36.0781
| 24> C 	 -124.252 	 56.8088 	 -37.8292
| 25> C 	 -123.894 	 55.589 	 -38.3833
| 26> C 	 -123.231 	 54.6674 	 -37.524
| 27> C 	 -123.036 	 55.1571 	 -36.2632
| 28> H 	 -124.051 	 55.5207 	 -39.4213
| 29> C 	 -122.91 	 53.271 	 -38.1213
| 30> H 	 -121.804 	 53.283 	 -38.0963
| 31> H 	 -123.179 	 53.1812 	 -39.1658
| 32> C 	 -123.436 	 52.0485 	 -37.3901
| 33> H 	 -124.498 	 52.0536 	 -37.4306
| 34> H 	 -123.24 	 52.1231 	 -36.2808
| 35> C 	 -122.958 	 50.7088 	 -37.9247
| 36> H 	 -123.394 	 49.9102 	 -37.2655
| 37> H 	 -121.843 	 50.5829 	 -37.9367
| 38> H 	 -123.253 	 50.5598 	 -38.9566
| 39> H 	 -121.029 	 53.9717 	 -31.8564
| 40> H 	 -124.469 	 57.6309 	 -38.4626
| 41> *
| 42>
| 43>                          ****END OF INPUT****

CARTESIAN COORDINATES (ANGSTROEM)
---------------------------------
  S    -122.833000   54.685000  -33.454900
  C    -121.303000   54.126600  -32.903900
  C    -120.394000   53.987300  -33.969200
  C    -120.945000   54.358200  -35.240500
  C    -122.313000   54.645800  -35.136400
  H    -120.535000   54.254800  -36.204400
  C    -118.955000   53.405800  -33.804300
  H    -118.754000   53.087200  -32.755300
  H    -118.321000   54.327400  -33.964000
  C    -118.722000   52.276700  -34.898800
  H    -118.851000   52.537500  -35.949000
  H    -117.630000   52.180600  -34.979800
  C    -119.609000   51.028400  -34.711900
  H    -119.678000   50.582400  -33.697500
  H    -120.659000   51.248900  -34.989900
  H    -119.153000   50.297400  -35.349500
  S    -123.605000   56.792900  -36.078100
  C    -124.252000   56.808800  -37.829200
  C    -123.894000   55.589000  -38.383300
  C    -123.231000   54.667400  -37.524000
  C    -123.036000   55.157100  -36.263200
  H    -124.051000   55.520700  -39.421300
  C    -122.910000   53.271000  -38.121300
  H    -121.804000   53.283000  -38.096300
  H    -123.179000   53.181200  -39.165800
  C    -123.436000   52.048500  -37.390100
  H    -124.498000   52.053600  -37.430600
  H    -123.240000   52.123100  -36.280800
  C    -122.958000   50.708800  -37.924700
  H    -123.394000   49.910200  -37.265500
  H    -121.843000   50.582900  -37.936700
  H    -123.253000   50.559800  -38.956600
  H    -121.029000   53.971700  -31.856400
  H    -124.469000   57.630900  -38.462600

 Total Charge           Charge          ....    0
 Multiplicity           Mult            ....    1
 Number of Electrons    NEL             ....  134
 Basis Dimension        Dim             ....  322

ORBITAL ENERGIES
----------------

  NO   OCC          E(Eh)            E(eV)
   0   2.0000     -88.970766     -2421.0176
   1   2.0000     -88.963294     -2420.8143
   2   2.0000     -10.329841      -281.0893
   3   2.0000     -10.326674      -281.0031
   4   2.0000     -10.319440      -280.8062
   5   2.0000     -10.315077      -280.6875
   6   2.0000     -10.306443      -280.4526
   7   2.0000     -10.306163      -280.4449
   8   2.0000     -10.303191      -280.3641
   9   2.0000     -10.295414      -280.1525
  10   2.0000     -10.294920      -280.1390
  11   2.0000     -10.294719      -280.1335
  12   2.0000     -10.291153      -280.0365
  13   2.0000     -10.282935      -279.8129
  14   2.0000     -10.282687      -279.8061
  15   2.0000     -10.281586      -279.7762
  16   2.0000      -8.085361      -220.0139
  17   2.0000      -8.076616      -219.7759
  18   2.0000      -6.043834      -164.4611
  19   2.0000      -6.039776      -164.3506
  20   2.0000      -6.036286      -164.2557
  21   2.0000      -6.035435      -164.2325
  22   2.0000      -6.031326      -164.1207
  23   2.0000      -6.027094      -164.0056
  24   2.0000      -1.006082       -27.3769
  25   2.0000      -0.977966       -26.6118
  26   2.0000      -0.906063       -24.6552
  27   2.0000      -0.901147       -24.5215
  28   2.0000      -0.874181       -23.7877
  29   2.0000      -0.849210       -23.1082
  30   2.0000      -0.841749       -22.9052
  31   2.0000      -0.815257       -22.1843
  32   2.0000      -0.777429       -21.1549
  33   2.0000      -0.769874       -20.9493
  34   2.0000      -0.713331       -19.4107
  35   2.0000      -0.700063       -19.0497
  36   2.0000      -0.690305       -18.7841
  37   2.0000      -0.665606       -18.1121
  38   2.0000      -0.643751       -17.5174
  39   2.0000      -0.616021       -16.7628
  40   2.0000      -0.587809       -15.9951
  41   2.0000      -0.565472       -15.3873
  42   2.0000      -0.560943       -15.2640
  43   2.0000      -0.550233       -14.9726
  44   2.0000      -0.525993       -14.3130
  45   2.0000      -0.525075       -14.2880
  46   2.0000      -0.519962       -14.1489
  47   2.0000      -0.512701       -13.9513
  48   2.0000      -0.500918       -13.6307
  49   2.0000      -0.498512       -13.5652
  50   2.0000      -0.495113       -13.4727
  51   2.0000      -0.492566       -13.4034
  52   2.0000      -0.473389       -12.8816
  53   2.0000      -0.466815       -12.7027
  54   2.0000      -0.458756       -12.4834
  55   2.0000      -0.447122       -12.1668
  56   2.0000      -0.437389       -11.9020
  57   2.0000      -0.432963       -11.7815
  58   2.0000      -0.430193       -11.7061
  59   2.0000      -0.427856       -11.6426
  60   2.0000      -0.417419       -11.3585
  61   2.0000      -0.410394       -11.1674
  62   2.0000      -0.402712       -10.9584
  63   2.0000      -0.349490        -9.5101
  64   2.0000      -0.329184        -8.9576
  65   2.0000      -0.325465        -8.8563
  66   2.0000      -0.292271        -7.9531
  67   0.0000       0.028366         0.7719
  68   0.0000       0.062514         1.7011
  69   0.0000       0.100049         2.7225
  70   0.0000       0.118442         3.2230
  71   0.0000       0.126284         3.4364

MULLIKEN ATOMIC CHARGES
-----------------------
   0 S :    0.126530
   1 C :   -0.126032
   2 C :   -0.099249
   3 C :    0.049670
   4 C :   -0.178936
   5 H :    0.002460
   6 C :    0.055572
   7 H :    0.033015
   8 H :    0.049330
   9 C :   -0.096066
  10 H :    0.023153
  11 H :    0.025013
  12 C :   -0.045455
  13 H :    0.035687
  14 H :    0.052676
  15 H :    0.034178
  16 S :    0.083005
  17 C :   -0.086798
  18 C :   -0.044020
  19 C :   -0.024008
  20 C :   -0.146422
  21 H :    0.008065
  22 C :    0.094289
  23 H :    0.019479
  24 H :    0.014204
  25 C :   -0.079784
  26 H :    0.023006
  27 H :    0.045020
  28 C :   -0.061878
  29 H :    0.046501
  30 H :    0.032340
  31 H :    0.026871
  32 H :    0.055425
  33 H :    0.053158
Sum of atomic charges:    0.0000000

LOEWDIN ATOMIC CHARGES
----------------------
   0 S :    0.420327
   1 C :   -0.219398
   2 C :   -0.062408
   3 C :   -0.049573
   4 C :   -0.199067
   5 H :    0.024191
   6 C :   -0.032955
   7 H :    0.032136
   8 H :    0.039742
   9 C :   -0.050576
  10 H :    0.025951
  11 H :    0.025047
  12 C :   -0.065665
  13 H :    0.027013
  14 H :    0.032857
  15 H :    0.026404
  16 S :    0.366670
  17 C :   -0.160121
  18 C :   -0.057977
  19 C :   -0.064484
  20 C :   -0.189860
  21 H :    0.024608
  22 C :   -0.027947
  23 H :    0.029806
  24 H :    0.027316
  25 C :   -0.048698
  26 H :    0.021505
  27 H :    0.031118
  28 C :   -0.068778
  29 H :    0.036034
  30 H :    0.025934
  31 H :    0.020971
  32 H :    0.032687
  33 H :    0.027190

  Mayer bond orders larger than 0.100000
B(  0-S ,  1-C ) :   1.1439 B(  0-S ,  4-C ) :   1.1554 B(  1-C ,  2-C ) :   1.5900
B(  1-C , 32-H ) :   0.9667 B(  2-C ,  3-C ) :   1.2530 B(  2-C ,  6-C ) :   1.0065
B(  3-C ,  4-C ) :   1.5492 B(  3-C ,  5-H ) :   0.9957 B(  4-C , 20-C ) :   1.0474
B(  6-C ,  7-H ) :   0.9528 B(  6-C ,  8-H ) :   0.9405 B(  6-C ,  9-C ) :   1.0573
B(  9-C , 10-H ) :   0.9541 B(  9-C , 11-H ) :   0.9594 B(  9-C , 12-C ) :   1.0535
B( 12-C , 13-H ) :   0.9787 B( 12-C , 14-H ) :   0.9716 B( 12-C , 15-H ) :   0.9730
B( 16-S , 17-C ) :   1.1069 B( 16-S , 20-C ) :   1.1405 B( 17-C , 18-C ) :   1.6568
B( 17-C , 33-H ) :   0.9661 B( 18-C , 19-C ) :   1.2254 B( 18-C , 21-H ) :   0.9878
B( 19-C , 20-C ) :   1.6212 B( 19-C , 22-C ) :   1.0220 B( 22-C , 23-H ) :   0.9263
B( 22-C , 24-H ) :   0.9396 B( 22-C , 25-C ) :   1.0665 B( 25-C , 26-H ) :   0.9498
B( 25-C , 27-H ) :   0.9515 B( 25-C , 28-C ) :   1.0877 B( 28-C , 29-H ) :   0.9725
B( 28-C , 30-H ) :   0.9749 B( 28-C , 31-H ) :   0.9726

Dispersion correction           -0.015657763
FINAL SINGLE POINT ENERGY     -1339.862522436076

DIPOLE MOMENT
-------------
                                X             Y             Z
Electronic contribution:    -13.26126      25.45033       9.03244
Nuclear contribution   :     13.82355     -25.90015      -9.45042
                        -----------------------------------------
Total Dipole Moment    :      0.56229      -0.44982      -0.41798
                        -----------------------------------------
Magnitude (a.u.)       :      0.83260
Magnitude (Debye)      :      2.11630

Rotational constants in cm-1:     0.017152     0.010602     0.007663
Rotational constants in MHz :   514.197241   317.831452   229.739871

                             ****ORCA TERMINATED NORMALLY****
TOTAL RUN TIME: 0 days 0 hours 0 minutes 21 seconds 609 msec
