                         Program Version 4.2.1 -  RELEASE  -
|  1> ! wB97X-D3 SP def2-SVP
|  2> %pal
|  3> nprocs 24
|  4> end
|  5>
|  6> * xyz 0 1
|  7> S 	 -146.028 	 11.9909 	 -6.62095
|  8> C 	 -145.649 	 11.8639 	 -4.9395
|  9> C 	 -146.655 	 12.5088 	 -4.19545
| 10> C 	 -147.564 	 13.2833 	 -5.05205
| 11> C 	 -147.232 	 13.2068 	 -6.41164
| 12> H 	 -148.482 	 13.7219 	 -4.68856
| 13> C 	 -146.894 	 12.3907 	 -2.74382
| 14> H 	 -146.287 	 13.2187 	 -2.36971
| 15> H 	 -146.454 	 11.4782 	 -2.38233
| 16> C 	 -148.308 	 12.4639 	 -2.16077
| 17> H 	 -148.242 	 12.5036 	 -1.07888
| 18> H 	 -148.805 	 13.3793 	 -2.52753
| 19> C 	 -149.256 	 11.3314 	 -2.43474
| 20> H 	 -150.122 	 11.3642 	 -1.78279
| 21> H 	 -149.627 	 11.3165 	 -3.54457
| 22> H 	 -148.758 	 10.4185 	 -2.30677
| 23> S 	 -148.962 	 12.2992 	 -8.36856
| 24> C 	 -149.553 	 13.5259 	 -9.50147
| 25> C 	 -149.307 	 14.8008 	 -9.09172
| 26> C 	 -148.514 	 14.9396 	 -7.89902
| 27> C 	 -148.187 	 13.643 	 -7.38844
| 28> H 	 -149.645 	 15.5878 	 -9.70653
| 29> C 	 -147.874 	 16.3046 	 -7.45902
| 30> H 	 -147.539 	 16.8887 	 -8.28857
| 31> H 	 -146.917 	 16.0557 	 -6.94278
| 32> C 	 -148.773 	 17.1685 	 -6.55657
| 33> H 	 -148.682 	 16.9244 	 -5.56983
| 34> H 	 -149.801 	 17.0432 	 -6.86079
| 35> C 	 -148.352 	 18.6694 	 -6.54044
| 36> H 	 -148.473 	 19.1436 	 -7.51194
| 37> H 	 -147.354 	 18.8072 	 -6.25014
| 38> H 	 -149.032 	 19.1684 	 -5.9061
| 39> H 	 -144.899 	 11.2888 	 -4.33311
| 40> H 	 -150.248 	 13.3689 	 -10.2553
| 41> *
| 42>
| 43>                          ****END OF INPUT****

CARTESIAN COORDINATES (ANGSTROEM)
---------------------------------
  S    -146.028000   11.990900   -6.620950
  C    -145.649000   11.863900   -4.939500
  C    -146.655000   12.508800   -4.195450
  C    -147.564000   13.283300   -5.052050
  C    -147.232000   13.206800   -6.411640
  H    -148.482000   13.721900   -4.688560
  C    -146.894000   12.390700   -2.743820
  H    -146.287000   13.218700   -2.369710
  H    -146.454000   11.478200   -2.382330
  C    -148.308000   12.463900   -2.160770
  H    -148.242000   12.503600   -1.078880
  H    -148.805000   13.379300   -2.527530
  C    -149.256000   11.331400   -2.434740
  H    -150.122000   11.364200   -1.782790
  H    -149.627000   11.316500   -3.544570
  H    -148.758000   10.418500   -2.306770
  S    -148.962000   12.299200   -8.368560
  C    -149.553000   13.525900   -9.501470
  C    -149.307000   14.800800   -9.091720
  C    -148.514000   14.939600   -7.899020
  C    -148.187000   13.643000   -7.388440
  H    -149.645000   15.587800   -9.706530
  C    -147.874000   16.304600   -7.459020
  H    -147.539000   16.888700   -8.288570
  H    -146.917000   16.055700   -6.942780
  C    -148.773000   17.168500   -6.556570
  H    -148.682000   16.924400   -5.569830
  H    -149.801000   17.043200   -6.860790
  C    -148.352000   18.669400   -6.540440
  H    -148.473000   19.143600   -7.511940
  H    -147.354000   18.807200   -6.250140
  H    -149.032000   19.168400   -5.906100
  H    -144.899000   11.288800   -4.333110
  H    -150.248000   13.368900  -10.255300

 Total Charge           Charge          ....    0
 Multiplicity           Mult            ....    1
 Number of Electrons    NEL             ....  134
 Basis Dimension        Dim             ....  322

ORBITAL ENERGIES
----------------

  NO   OCC          E(Eh)            E(eV)
   0   2.0000     -88.970473     -2421.0097
   1   2.0000     -88.965029     -2420.8615
   2   2.0000     -10.335938      -281.2552
   3   2.0000     -10.326578      -281.0005
   4   2.0000     -10.318086      -280.7694
   5   2.0000     -10.313155      -280.6352
   6   2.0000     -10.309327      -280.5311
   7   2.0000     -10.302440      -280.3436
   8   2.0000     -10.296172      -280.1731
   9   2.0000     -10.294655      -280.1318
  10   2.0000     -10.289403      -279.9889
  11   2.0000     -10.288620      -279.9676
  12   2.0000     -10.288592      -279.9668
  13   2.0000     -10.277519      -279.6655
  14   2.0000     -10.277431      -279.6631
  15   2.0000     -10.269657      -279.4516
  16   2.0000      -8.085195      -220.0094
  17   2.0000      -8.078282      -219.8212
  18   2.0000      -6.043826      -164.4609
  19   2.0000      -6.039702      -164.3487
  20   2.0000      -6.036873      -164.2717
  21   2.0000      -6.035771      -164.2417
  22   2.0000      -6.033170      -164.1709
  23   2.0000      -6.028871      -164.0539
  24   2.0000      -1.003588       -27.3090
  25   2.0000      -0.973998       -26.5038
  26   2.0000      -0.918323       -24.9888
  27   2.0000      -0.903260       -24.5790
  28   2.0000      -0.873160       -23.7599
  29   2.0000      -0.849840       -23.1253
  30   2.0000      -0.844670       -22.9846
  31   2.0000      -0.812688       -22.1144
  32   2.0000      -0.784003       -21.3338
  33   2.0000      -0.772422       -21.0187
  34   2.0000      -0.712615       -19.3913
  35   2.0000      -0.701082       -19.0774
  36   2.0000      -0.693102       -18.8603
  37   2.0000      -0.655770       -17.8444
  38   2.0000      -0.631133       -17.1740
  39   2.0000      -0.622023       -16.9261
  40   2.0000      -0.594050       -16.1649
  41   2.0000      -0.569748       -15.5036
  42   2.0000      -0.564336       -15.3564
  43   2.0000      -0.556985       -15.1563
  44   2.0000      -0.540957       -14.7202
  45   2.0000      -0.529200       -14.4003
  46   2.0000      -0.518988       -14.1224
  47   2.0000      -0.512374       -13.9424
  48   2.0000      -0.504627       -13.7316
  49   2.0000      -0.503115       -13.6905
  50   2.0000      -0.490521       -13.3477
  51   2.0000      -0.478674       -13.0254
  52   2.0000      -0.470346       -12.7988
  53   2.0000      -0.460553       -12.5323
  54   2.0000      -0.457570       -12.4511
  55   2.0000      -0.445594       -12.1252
  56   2.0000      -0.443829       -12.0772
  57   2.0000      -0.439742       -11.9660
  58   2.0000      -0.432794       -11.7769
  59   2.0000      -0.422852       -11.5064
  60   2.0000      -0.420206       -11.4344
  61   2.0000      -0.416454       -11.3323
  62   2.0000      -0.415080       -11.2949
  63   2.0000      -0.342261        -9.3134
  64   2.0000      -0.332999        -9.0614
  65   2.0000      -0.317857        -8.6493
  66   2.0000      -0.291316        -7.9271
  67   0.0000       0.027114         0.7378
  68   0.0000       0.057105         1.5539
  69   0.0000       0.109062         2.9677
  70   0.0000       0.115288         3.1372
  71   0.0000       0.127311         3.4643

MULLIKEN ATOMIC CHARGES
-----------------------
   0 S :    0.132862
   1 C :   -0.118843
   2 C :   -0.138077
   3 C :    0.011208
   4 C :   -0.122586
   5 H :    0.023080
   6 C :    0.078252
   7 H :    0.047545
   8 H :    0.010329
   9 C :   -0.082918
  10 H :    0.029469
  11 H :    0.029454
  12 C :   -0.047257
  13 H :    0.038824
  14 H :    0.045050
  15 H :    0.013502
  16 S :    0.087629
  17 C :   -0.058113
  18 C :   -0.028706
  19 C :   -0.013919
  20 C :   -0.186772
  21 H :    0.004033
  22 C :    0.057058
  23 H :    0.020864
  24 H :    0.035845
  25 C :   -0.042928
  26 H :    0.011433
  27 H :    0.028977
  28 C :   -0.032111
  29 H :    0.022165
  30 H :    0.025587
  31 H :    0.023238
  32 H :    0.062600
  33 H :    0.033226
Sum of atomic charges:    0.0000000

LOEWDIN ATOMIC CHARGES
----------------------
   0 S :    0.438590
   1 C :   -0.227950
   2 C :   -0.062968
   3 C :   -0.055241
   4 C :   -0.221075
   5 H :    0.028082
   6 C :   -0.039309
   7 H :    0.044022
   8 H :    0.024932
   9 C :   -0.043074
  10 H :    0.029079
  11 H :    0.023297
  12 C :   -0.065555
  13 H :    0.027414
  14 H :    0.036388
  15 H :    0.014367
  16 S :    0.356818
  17 C :   -0.170456
  18 C :   -0.065605
  19 C :   -0.047748
  20 C :   -0.163103
  21 H :    0.024904
  22 C :   -0.026691
  23 H :    0.025793
  24 H :    0.036989
  25 C :   -0.028835
  26 H :    0.012466
  27 H :    0.023173
  28 C :   -0.053762
  29 H :    0.021764
  30 H :    0.018571
  31 H :    0.022053
  32 H :    0.046194
  33 H :    0.016475

  Mayer bond orders larger than 0.100000
B(  0-S ,  1-C ) :   1.1403 B(  0-S ,  4-C ) :   1.1653 B(  1-C ,  2-C ) :   1.5859
B(  1-C , 32-H ) :   0.9616 B(  2-C ,  3-C ) :   1.2699 B(  2-C ,  6-C ) :   1.0218
B(  3-C ,  4-C ) :   1.5134 B(  3-C ,  5-H ) :   0.9874 B(  4-C , 20-C ) :   1.0685
B(  6-C ,  7-H ) :   0.9256 B(  6-C ,  8-H ) :   0.9398 B(  6-C ,  9-C ) :   1.0901
B(  9-C , 10-H ) :   0.9493 B(  9-C , 11-H ) :   0.9483 B(  9-C , 12-C ) :   1.0856
B( 12-C , 13-H ) :   0.9735 B( 12-C , 14-H ) :   0.9716 B( 12-C , 15-H ) :   0.9723
B( 16-S , 17-C ) :   1.1199 B( 16-S , 20-C ) :   1.1277 B( 17-C , 18-C ) :   1.6680
B( 17-C , 33-H ) :   0.9668 B( 18-C , 19-C ) :   1.2133 B( 18-C , 21-H ) :   0.9899
B( 19-C , 20-C ) :   1.6056 B( 19-C , 22-C ) :   1.0300 B( 22-C , 23-H ) :   0.9546
B( 22-C , 24-H ) :   0.9325 B( 22-C , 25-C ) :   1.0524 B( 25-C , 26-H ) :   0.9535
B( 25-C , 27-H ) :   0.9636 B( 25-C , 28-C ) :   1.0851 B( 28-C , 29-H ) :   0.9763
B( 28-C , 30-H ) :   0.9755 B( 28-C , 31-H ) :   0.9745

Dispersion correction           -0.013852682
FINAL SINGLE POINT ENERGY     -1339.847118824184

DIPOLE MOMENT
-------------
                                X             Y             Z
Electronic contribution:      6.58698     -16.09788     -18.32293
Nuclear contribution   :     -6.78174      16.44320      18.87611
                        -----------------------------------------
Total Dipole Moment    :     -0.19476       0.34532       0.55318
                        -----------------------------------------
Magnitude (a.u.)       :      0.68058
Magnitude (Debye)      :      1.72989

Rotational constants in cm-1:     0.015919     0.008954     0.007258
Rotational constants in MHz :   477.225400   268.429940   217.587717

                             ****ORCA TERMINATED NORMALLY****
TOTAL RUN TIME: 0 days 0 hours 0 minutes 20 seconds 154 msec
