                         Program Version 4.2.1 -  RELEASE  -
|  1> ! wB97X-D3 SP def2-SVP
|  2> %pal
|  3> nprocs 24
|  4> end
|  5>
|  6> * xyz 0 1
|  7> S 	 -36.2872 	 17.1207 	 15.2358
|  8> C 	 -36.3187 	 18.7124 	 16.0425
|  9> C 	 -35.0549 	 19.1065 	 16.442
| 10> C 	 -34.1052 	 18.0547 	 16.2196
| 11> C 	 -34.571 	 16.9868 	 15.5033
| 12> H 	 -33.0759 	 18.0134 	 16.4099
| 13> C 	 -34.6453 	 20.52 	 16.8719
| 14> H 	 -35.5527 	 21.0952 	 17.0206
| 15> H 	 -34.259 	 21.1586 	 16.0567
| 16> C 	 -33.8381 	 20.6117 	 18.1341
| 17> H 	 -34.3966 	 20.2808 	 19.051
| 18> H 	 -32.8936 	 20.013 	 18.269
| 19> C 	 -33.4423 	 22.0628 	 18.2856
| 20> H 	 -34.298 	 22.7279 	 18.432
| 21> H 	 -32.8652 	 22.1011 	 19.2447
| 22> H 	 -32.888 	 22.5062 	 17.4884
| 23> S 	 -34.0964 	 14.3252 	 15.7686
| 24> C 	 -32.7892 	 13.5802 	 14.9416
| 25> C 	 -32.1864 	 14.4147 	 13.989
| 26> C 	 -32.7179 	 15.7516 	 14.0826
| 27> C 	 -33.8038 	 15.8571 	 15.001
| 28> H 	 -31.4615 	 14.0589 	 13.2708
| 29> C 	 -32.2127 	 16.8496 	 13.2451
| 30> H 	 -31.1879 	 16.7179 	 12.9106
| 31> H 	 -32.2693 	 17.632 	 14.0619
| 32> C 	 -33.0415 	 17.1205 	 11.9517
| 33> H 	 -34.0426 	 17.3254 	 12.1766
| 34> H 	 -33.0854 	 16.2425 	 11.2812
| 35> C 	 -32.482 	 18.2346 	 11.043
| 36> H 	 -32.812 	 18.1552 	 9.93099
| 37> H 	 -31.3893 	 18.2417 	 10.9978
| 38> H 	 -32.8818 	 19.1771 	 11.4604
| 39> H 	 -37.0521 	 19.4459 	 16.3056
| 40> H 	 -32.5602 	 12.5535 	 14.9765
| 41> *
| 42>
| 43>                          ****END OF INPUT****

CARTESIAN COORDINATES (ANGSTROEM)
---------------------------------
  S    -36.287200   17.120700   15.235800
  C    -36.318700   18.712400   16.042500
  C    -35.054900   19.106500   16.442000
  C    -34.105200   18.054700   16.219600
  C    -34.571000   16.986800   15.503300
  H    -33.075900   18.013400   16.409900
  C    -34.645300   20.520000   16.871900
  H    -35.552700   21.095200   17.020600
  H    -34.259000   21.158600   16.056700
  C    -33.838100   20.611700   18.134100
  H    -34.396600   20.280800   19.051000
  H    -32.893600   20.013000   18.269000
  C    -33.442300   22.062800   18.285600
  H    -34.298000   22.727900   18.432000
  H    -32.865200   22.101100   19.244700
  H    -32.888000   22.506200   17.488400
  S    -34.096400   14.325200   15.768600
  C    -32.789200   13.580200   14.941600
  C    -32.186400   14.414700   13.989000
  C    -32.717900   15.751600   14.082600
  C    -33.803800   15.857100   15.001000
  H    -31.461500   14.058900   13.270800
  C    -32.212700   16.849600   13.245100
  H    -31.187900   16.717900   12.910600
  H    -32.269300   17.632000   14.061900
  C    -33.041500   17.120500   11.951700
  H    -34.042600   17.325400   12.176600
  H    -33.085400   16.242500   11.281200
  C    -32.482000   18.234600   11.043000
  H    -32.812000   18.155200    9.930990
  H    -31.389300   18.241700   10.997800
  H    -32.881800   19.177100   11.460400
  H    -37.052100   19.445900   16.305600
  H    -32.560200   12.553500   14.976500

 Total Charge           Charge          ....    0
 Multiplicity           Mult            ....    1
 Number of Electrons    NEL             ....  134
 Basis Dimension        Dim             ....  322

ORBITAL ENERGIES
----------------

  NO   OCC          E(Eh)            E(eV)
   0   2.0000     -88.969115     -2420.9727
   1   2.0000     -88.967655     -2420.9330
   2   2.0000     -10.326520      -280.9989
   3   2.0000     -10.325674      -280.9759
   4   2.0000     -10.314376      -280.6684
   5   2.0000     -10.314166      -280.6627
   6   2.0000     -10.307218      -280.4737
   7   2.0000     -10.301557      -280.3196
   8   2.0000     -10.296830      -280.1910
   9   2.0000     -10.295860      -280.1646
  10   2.0000     -10.292447      -280.0717
  11   2.0000     -10.291955      -280.0583
  12   2.0000     -10.287375      -279.9337
  13   2.0000     -10.284115      -279.8450
  14   2.0000     -10.282466      -279.8001
  15   2.0000     -10.277337      -279.6606
  16   2.0000      -8.083045      -219.9508
  17   2.0000      -8.082930      -219.9477
  18   2.0000      -6.041734      -164.4039
  19   2.0000      -6.041297      -164.3920
  20   2.0000      -6.037661      -164.2931
  21   2.0000      -6.037185      -164.2802
  22   2.0000      -6.033993      -164.1933
  23   2.0000      -6.033630      -164.1834
  24   2.0000      -1.006705       -27.3938
  25   2.0000      -0.983036       -26.7498
  26   2.0000      -0.918410       -24.9912
  27   2.0000      -0.908167       -24.7125
  28   2.0000      -0.872072       -23.7303
  29   2.0000      -0.851373       -23.1670
  30   2.0000      -0.845717       -23.0131
  31   2.0000      -0.816180       -22.2094
  32   2.0000      -0.781613       -21.2688
  33   2.0000      -0.766976       -20.8705
  34   2.0000      -0.709406       -19.3039
  35   2.0000      -0.698601       -19.0099
  36   2.0000      -0.692487       -18.8435
  37   2.0000      -0.664800       -18.0901
  38   2.0000      -0.646499       -17.5921
  39   2.0000      -0.617783       -16.8107
  40   2.0000      -0.592208       -16.1148
  41   2.0000      -0.575563       -15.6619
  42   2.0000      -0.563269       -15.3273
  43   2.0000      -0.557408       -15.1678
  44   2.0000      -0.535352       -14.5677
  45   2.0000      -0.521873       -14.2009
  46   2.0000      -0.516198       -14.0465
  47   2.0000      -0.510464       -13.8904
  48   2.0000      -0.506424       -13.7805
  49   2.0000      -0.495614       -13.4864
  50   2.0000      -0.492424       -13.3995
  51   2.0000      -0.479986       -13.0611
  52   2.0000      -0.468952       -12.7608
  53   2.0000      -0.460154       -12.5214
  54   2.0000      -0.456778       -12.4296
  55   2.0000      -0.454659       -12.3719
  56   2.0000      -0.449389       -12.2285
  57   2.0000      -0.441277       -12.0078
  58   2.0000      -0.431735       -11.7481
  59   2.0000      -0.429495       -11.6872
  60   2.0000      -0.414935       -11.2910
  61   2.0000      -0.412037       -11.2121
  62   2.0000      -0.404200       -10.9989
  63   2.0000      -0.338080        -9.1996
  64   2.0000      -0.329054        -8.9540
  65   2.0000      -0.325890        -8.8679
  66   2.0000      -0.300094        -8.1660
  67   0.0000       0.037245         1.0135
  68   0.0000       0.059955         1.6315
  69   0.0000       0.111966         3.0467
  70   0.0000       0.123377         3.3573
  71   0.0000       0.126337         3.4378

MULLIKEN ATOMIC CHARGES
-----------------------
   0 S :    0.121313
   1 C :   -0.085820
   2 C :   -0.084621
   3 C :    0.081905
   4 C :   -0.190911
   5 H :   -0.008838
   6 C :    0.065469
   7 H :   -0.000975
   8 H :    0.043371
   9 C :   -0.099511
  10 H :    0.038431
  11 H :    0.042813
  12 C :   -0.053773
  13 H :    0.022911
  14 H :    0.033678
  15 H :    0.030921
  16 S :    0.130663
  17 C :   -0.075086
  18 C :   -0.038169
  19 C :   -0.041041
  20 C :   -0.176039
  21 H :    0.022109
  22 C :    0.068636
  23 H :    0.015001
  24 H :    0.033679
  25 C :   -0.044287
  26 H :    0.019499
  27 H :    0.025135
  28 C :   -0.084162
  29 H :    0.046461
  30 H :    0.030503
  31 H :    0.039853
  32 H :    0.028466
  33 H :    0.042418
Sum of atomic charges:    0.0000000

LOEWDIN ATOMIC CHARGES
----------------------
   0 S :    0.397976
   1 C :   -0.192849
   2 C :   -0.060008
   3 C :   -0.055914
   4 C :   -0.202074
   5 H :    0.021753
   6 C :   -0.037646
   7 H :    0.030201
   8 H :    0.039317
   9 C :   -0.050973
  10 H :    0.033259
  11 H :    0.029513
  12 C :   -0.066892
  13 H :    0.022353
  14 H :    0.031348
  15 H :    0.019836
  16 S :    0.439935
  17 C :   -0.189143
  18 C :   -0.070075
  19 C :   -0.046403
  20 C :   -0.223229
  21 H :    0.032787
  22 C :   -0.039469
  23 H :    0.027827
  24 H :    0.043231
  25 C :   -0.035742
  26 H :    0.016734
  27 H :    0.026679
  28 C :   -0.074678
  29 H :    0.036022
  30 H :    0.020473
  31 H :    0.027097
  32 H :    0.029364
  33 H :    0.019390

  Mayer bond orders larger than 0.100000
B(  0-S ,  1-C ) :   1.1165 B(  0-S ,  4-C ) :   1.1325 B(  1-C ,  2-C ) :   1.6556
B(  1-C , 32-H ) :   0.9612 B(  2-C ,  3-C ) :   1.1979 B(  2-C ,  6-C ) :   1.0143
B(  3-C ,  4-C ) :   1.6261 B(  3-C ,  5-H ) :   0.9955 B(  4-C , 20-C ) :   1.0109
B(  6-C ,  7-H ) :   0.9277 B(  6-C ,  8-H ) :   0.9468 B(  6-C ,  9-C ) :   1.0538
B(  9-C , 10-H ) :   0.9507 B(  9-C , 11-H ) :   0.9588 B(  9-C , 12-C ) :   1.0834
B( 12-C , 13-H ) :   0.9721 B( 12-C , 14-H ) :   0.9721 B( 12-C , 15-H ) :   0.9759
B( 16-S , 17-C ) :   1.1904 B( 16-S , 20-C ) :   1.1589 B( 17-C , 18-C ) :   1.5691
B( 17-C , 20-C ) :   0.1061 B( 17-C , 33-H ) :   0.9698 B( 18-C , 19-C ) :   1.2695
B( 18-C , 21-H ) :   0.9913 B( 19-C , 20-C ) :   1.5511 B( 19-C , 22-C ) :   1.0487
B( 22-C , 23-H ) :   0.9300 B( 22-C , 24-H ) :   0.9247 B( 22-C , 25-C ) :   1.0584
B( 25-C , 26-H ) :   0.9585 B( 25-C , 27-H ) :   0.9584 B( 25-C , 28-C ) :   1.0733
B( 28-C , 29-H ) :   0.9765 B( 28-C , 30-H ) :   0.9744 B( 28-C , 31-H ) :   0.9795

Dispersion correction           -0.013829634
FINAL SINGLE POINT ENERGY     -1339.859963991410

DIPOLE MOMENT
-------------
                                X             Y             Z
Electronic contribution:    -12.24588     -24.57294       4.07282
Nuclear contribution   :     12.67819      24.98736      -4.17856
                        -----------------------------------------
Total Dipole Moment    :      0.43231       0.41442      -0.10574
                        -----------------------------------------
Magnitude (a.u.)       :      0.60812
Magnitude (Debye)      :      1.54573

Rotational constants in cm-1:     0.017215     0.008161     0.007014
Rotational constants in MHz :   516.101770   244.661764   210.273667

                             ****ORCA TERMINATED NORMALLY****
TOTAL RUN TIME: 0 days 0 hours 0 minutes 21 seconds 226 msec
