                         Program Version 4.2.1 -  RELEASE  -
|  1> ! wB97X-D3 SP def2-SVP
|  2> %pal
|  3> nprocs 24
|  4> end
|  5>
|  6> * xyz 0 1
|  7> S 	 -96.7156 	 15.0305 	 -120.642
|  8> C 	 -95.0988 	 15.7706 	 -120.537
|  9> C 	 -94.3362 	 15.098 	 -119.641
| 10> C 	 -94.9563 	 13.946 	 -119.076
| 11> C 	 -96.225 	 13.7298 	 -119.5
| 12> H 	 -94.5196 	 13.2918 	 -118.272
| 13> C 	 -92.8803 	 15.5015 	 -119.315
| 14> H 	 -92.8376 	 16.15 	 -118.402
| 15> H 	 -92.5113 	 15.9846 	 -120.198
| 16> C 	 -91.8351 	 14.3289 	 -119.28
| 17> H 	 -90.8271 	 14.7884 	 -119.229
| 18> H 	 -91.861 	 13.8276 	 -118.231
| 19> C 	 -91.7485 	 13.3054 	 -120.372
| 20> H 	 -92.4472 	 12.4895 	 -120.183
| 21> H 	 -91.8693 	 13.7969 	 -121.347
| 22> H 	 -90.747 	 12.929 	 -120.412
| 23> S 	 -98.8121 	 13.1238 	 -118.707
| 24> C 	 -99.0597 	 11.4031 	 -118.316
| 25> C 	 -97.9408 	 10.5976 	 -118.414
| 26> C 	 -96.8268 	 11.2908 	 -118.929
| 27> C 	 -97.1041 	 12.6615 	 -119.04
| 28> H 	 -97.9686 	 9.56753 	 -118.094
| 29> C 	 -95.5977 	 10.505 	 -119.291
| 30> H 	 -95.5206 	 9.74126 	 -118.553
| 31> H 	 -94.6445 	 11.0813 	 -119.224
| 32> C 	 -95.5549 	 9.88343 	 -120.703
| 33> H 	 -94.5464 	 9.5045 	 -120.858
| 34> H 	 -95.6587 	 10.7499 	 -121.345
| 35> C 	 -96.6407 	 8.85803 	 -121.005
| 36> H 	 -96.6034 	 7.98401 	 -120.36
| 37> H 	 -96.5543 	 8.42708 	 -122.017
| 38> H 	 -97.6466 	 9.32085 	 -120.994
| 39> H 	 -94.6744 	 16.5833 	 -121.068
| 40> H 	 -100.005 	 11.0018 	 -117.946
| 41> *
| 42>
| 43>                          ****END OF INPUT****

CARTESIAN COORDINATES (ANGSTROEM)
---------------------------------
  S    -96.715600   15.030500  -120.642000
  C    -95.098800   15.770600  -120.537000
  C    -94.336200   15.098000  -119.641000
  C    -94.956300   13.946000  -119.076000
  C    -96.225000   13.729800  -119.500000
  H    -94.519600   13.291800  -118.272000
  C    -92.880300   15.501500  -119.315000
  H    -92.837600   16.150000  -118.402000
  H    -92.511300   15.984600  -120.198000
  C    -91.835100   14.328900  -119.280000
  H    -90.827100   14.788400  -119.229000
  H    -91.861000   13.827600  -118.231000
  C    -91.748500   13.305400  -120.372000
  H    -92.447200   12.489500  -120.183000
  H    -91.869300   13.796900  -121.347000
  H    -90.747000   12.929000  -120.412000
  S    -98.812100   13.123800  -118.707000
  C    -99.059700   11.403100  -118.316000
  C    -97.940800   10.597600  -118.414000
  C    -96.826800   11.290800  -118.929000
  C    -97.104100   12.661500  -119.040000
  H    -97.968600    9.567530  -118.094000
  C    -95.597700   10.505000  -119.291000
  H    -95.520600    9.741260  -118.553000
  H    -94.644500   11.081300  -119.224000
  C    -95.554900    9.883430  -120.703000
  H    -94.546400    9.504500  -120.858000
  H    -95.658700   10.749900  -121.345000
  C    -96.640700    8.858030  -121.005000
  H    -96.603400    7.984010  -120.360000
  H    -96.554300    8.427080  -122.017000
  H    -97.646600    9.320850  -120.994000
  H    -94.674400   16.583300  -121.068000
  H    -100.005000   11.001800  -117.946000

 Total Charge           Charge          ....    0
 Multiplicity           Mult            ....    1
 Number of Electrons    NEL             ....  134
 Basis Dimension        Dim             ....  322

ORBITAL ENERGIES
----------------

  NO   OCC          E(Eh)            E(eV)
   0   2.0000     -88.972176     -2421.0560
   1   2.0000     -88.964634     -2420.8508
   2   2.0000     -10.332327      -281.1569
   3   2.0000     -10.328639      -281.0566
   4   2.0000     -10.320665      -280.8396
   5   2.0000     -10.310089      -280.5518
   6   2.0000     -10.305341      -280.4226
   7   2.0000     -10.297563      -280.2109
   8   2.0000     -10.296447      -280.1806
   9   2.0000     -10.293952      -280.1127
  10   2.0000     -10.293710      -280.1061
  11   2.0000     -10.291955      -280.0583
  12   2.0000     -10.291674      -280.0507
  13   2.0000     -10.285355      -279.8787
  14   2.0000     -10.277723      -279.6711
  15   2.0000     -10.277628      -279.6685
  16   2.0000      -8.085532      -220.0185
  17   2.0000      -8.078102      -219.8163
  18   2.0000      -6.043943      -164.4641
  19   2.0000      -6.040599      -164.3731
  20   2.0000      -6.036852      -164.2711
  21   2.0000      -6.036105      -164.2508
  22   2.0000      -6.032954      -164.1650
  23   2.0000      -6.028498      -164.0438
  24   2.0000      -1.001116       -27.2418
  25   2.0000      -0.979473       -26.6528
  26   2.0000      -0.910331       -24.7714
  27   2.0000      -0.905396       -24.6371
  28   2.0000      -0.870022       -23.6745
  29   2.0000      -0.851693       -23.1758
  30   2.0000      -0.840996       -22.8847
  31   2.0000      -0.815055       -22.1788
  32   2.0000      -0.787319       -21.4240
  33   2.0000      -0.774063       -21.0633
  34   2.0000      -0.713337       -19.4109
  35   2.0000      -0.691135       -18.8067
  36   2.0000      -0.686076       -18.6691
  37   2.0000      -0.661255       -17.9937
  38   2.0000      -0.633186       -17.2299
  39   2.0000      -0.616943       -16.7879
  40   2.0000      -0.594612       -16.1802
  41   2.0000      -0.561440       -15.2776
  42   2.0000      -0.557660       -15.1747
  43   2.0000      -0.552331       -15.0297
  44   2.0000      -0.545601       -14.8465
  45   2.0000      -0.536934       -14.6107
  46   2.0000      -0.515313       -14.0224
  47   2.0000      -0.509532       -13.8651
  48   2.0000      -0.494850       -13.4656
  49   2.0000      -0.490968       -13.3599
  50   2.0000      -0.489398       -13.3172
  51   2.0000      -0.482089       -13.1183
  52   2.0000      -0.475415       -12.9367
  53   2.0000      -0.466978       -12.7071
  54   2.0000      -0.457094       -12.4382
  55   2.0000      -0.451431       -12.2840
  56   2.0000      -0.446859       -12.1596
  57   2.0000      -0.437999       -11.9185
  58   2.0000      -0.427010       -11.6195
  59   2.0000      -0.426355       -11.6017
  60   2.0000      -0.422298       -11.4913
  61   2.0000      -0.409151       -11.1336
  62   2.0000      -0.402263       -10.9461
  63   2.0000      -0.350887        -9.5481
  64   2.0000      -0.337658        -9.1881
  65   2.0000      -0.330170        -8.9844
  66   2.0000      -0.286571        -7.7980
  67   0.0000       0.024510         0.6670
  68   0.0000       0.070098         1.9075
  69   0.0000       0.094909         2.5826
  70   0.0000       0.116917         3.1815
  71   0.0000       0.130373         3.5476

MULLIKEN ATOMIC CHARGES
-----------------------
   0 S :    0.090558
   1 C :   -0.098438
   2 C :   -0.096938
   3 C :   -0.002736
   4 C :   -0.122916
   5 H :    0.039169
   6 C :    0.085768
   7 H :    0.062721
   8 H :    0.013503
   9 C :   -0.164453
  10 H :    0.027951
  11 H :    0.027269
  12 C :   -0.005788
  13 H :    0.043306
  14 H :    0.028640
  15 H :    0.027540
  16 S :    0.110548
  17 C :   -0.089365
  18 C :   -0.032981
  19 C :   -0.032048
  20 C :   -0.171290
  21 H :    0.021493
  22 C :    0.067157
  23 H :    0.010974
  24 H :    0.020280
  25 C :   -0.044399
  26 H :    0.028617
  27 H :    0.031728
  28 C :   -0.064644
  29 H :    0.024389
  30 H :    0.032800
  31 H :    0.050608
  32 H :    0.027937
  33 H :    0.053039
Sum of atomic charges:   -0.0000000

LOEWDIN ATOMIC CHARGES
----------------------
   0 S :    0.360382
   1 C :   -0.182005
   2 C :   -0.069346
   3 C :   -0.073069
   4 C :   -0.175182
   5 H :    0.042111
   6 C :   -0.030463
   7 H :    0.042673
   8 H :    0.025236
   9 C :   -0.058477
  10 H :    0.025850
  11 H :    0.023048
  12 C :   -0.064075
  13 H :    0.026122
  14 H :    0.029674
  15 H :    0.028145
  16 S :    0.375801
  17 C :   -0.171650
  18 C :   -0.064921
  19 C :   -0.052297
  20 C :   -0.177106
  21 H :    0.034205
  22 C :   -0.031176
  23 H :    0.022745
  24 H :    0.033035
  25 C :   -0.033948
  26 H :    0.024406
  27 H :    0.028288
  28 C :   -0.074106
  29 H :    0.020799
  30 H :    0.029952
  31 H :    0.032937
  32 H :    0.025509
  33 H :    0.026901

  Mayer bond orders larger than 0.100000
B(  0-S ,  1-C ) :   1.1024 B(  0-S ,  4-C ) :   1.1145 B(  1-C ,  2-C ) :   1.6697
B(  1-C , 32-H ) :   0.9684 B(  2-C ,  3-C ) :   1.2095 B(  2-C ,  6-C ) :   1.0089
B(  3-C ,  4-C ) :   1.6182 B(  3-C ,  5-H ) :   0.9830 B(  4-C , 20-C ) :   1.0630
B(  6-C ,  7-H ) :   0.9419 B(  6-C ,  8-H ) :   0.9437 B(  6-C ,  9-C ) :   1.0645
B(  9-C , 10-H ) :   0.9622 B(  9-C , 11-H ) :   0.9493 B(  9-C , 12-C ) :   1.0813
B( 12-C , 13-H ) :   0.9713 B( 12-C , 14-H ) :   0.9691 B( 12-C , 15-H ) :   0.9703
B( 16-S , 17-C ) :   1.1347 B( 16-S , 20-C ) :   1.1249 B( 17-C , 18-C ) :   1.6389
B( 17-C , 20-C ) :   0.1002 B( 17-C , 33-H ) :   0.9619 B( 18-C , 19-C ) :   1.2243
B( 18-C , 21-H ) :   0.9840 B( 19-C , 20-C ) :   1.6074 B( 19-C , 22-C ) :   1.0391
B( 22-C , 23-H ) :   0.9290 B( 22-C , 24-H ) :   0.9312 B( 22-C , 25-C ) :   1.0750
B( 25-C , 26-H ) :   0.9556 B( 25-C , 27-H ) :   0.9519 B( 25-C , 28-C ) :   1.0869
B( 28-C , 29-H ) :   0.9749 B( 28-C , 30-H ) :   0.9708 B( 28-C , 31-H ) :   0.9686

Dispersion correction           -0.015268058
FINAL SINGLE POINT ENERGY     -1339.878297881976

DIPOLE MOMENT
-------------
                                X             Y             Z
Electronic contribution:    -23.57443      14.73300       3.98108
Nuclear contribution   :     24.20426     -15.17733      -3.88993
                        -----------------------------------------
Total Dipole Moment    :      0.62984      -0.44434       0.09115
                        -----------------------------------------
Magnitude (a.u.)       :      0.77617
Magnitude (Debye)      :      1.97286

Rotational constants in cm-1:     0.018261     0.009720     0.007289
Rotational constants in MHz :   547.453510   291.389791   218.509441

                             ****ORCA TERMINATED NORMALLY****
TOTAL RUN TIME: 0 days 0 hours 0 minutes 22 seconds 363 msec
