                         Program Version 4.2.1 -  RELEASE  -
|  1> ! wB97X-D3 SP def2-SVP
|  2> %pal
|  3> nprocs 24
|  4> end
|  5>
|  6> * xyz 0 1
|  7> S 	 39.3855 	 -18.6675 	 -108.029
|  8> C 	 38.152 	 -17.9757 	 -109.092
|  9> C 	 37.2148 	 -17.1271 	 -108.384
| 10> C 	 37.3853 	 -17.3404 	 -106.999
| 11> C 	 38.567 	 -17.9384 	 -106.613
| 12> H 	 36.7854 	 -17.0148 	 -106.156
| 13> C 	 36.0882 	 -16.3564 	 -109.136
| 14> H 	 36.3466 	 -15.2959 	 -109.393
| 15> H 	 35.3154 	 -16.4018 	 -108.335
| 16> C 	 35.5622 	 -16.9972 	 -110.513
| 17> H 	 34.6289 	 -16.6181 	 -110.852
| 18> H 	 36.3113 	 -16.7402 	 -111.242
| 19> C 	 35.292 	 -18.5124 	 -110.398
| 20> H 	 36.3245 	 -19.045 	 -110.252
| 21> H 	 34.6324 	 -18.7791 	 -109.519
| 22> H 	 34.9094 	 -18.8211 	 -111.33
| 23> S 	 40.5673 	 -17.306 	 -104.851
| 24> C 	 40.4851 	 -17.5899 	 -103.178
| 25> C 	 39.3019 	 -18.23 	 -102.881
| 26> C 	 38.4743 	 -18.4084 	 -104.041
| 27> C 	 39.0597 	 -18.0178 	 -105.254
| 28> H 	 39.0104 	 -18.4887 	 -101.803
| 29> C 	 37.1112 	 -19.1413 	 -103.906
| 30> H 	 36.5539 	 -18.6948 	 -104.78
| 31> H 	 36.6153 	 -18.8911 	 -102.981
| 32> C 	 37.3361 	 -20.6348 	 -104.082
| 33> H 	 38.2257 	 -21.026 	 -103.523
| 34> H 	 37.5076 	 -20.8984 	 -105.131
| 35> C 	 36.1213 	 -21.4026 	 -103.56
| 36> H 	 36.1097 	 -21.5166 	 -102.472
| 37> H 	 36.1556 	 -22.3664 	 -103.961
| 38> H 	 35.2175 	 -20.9502 	 -103.86
| 39> H 	 38.2241 	 -18.0064 	 -110.206
| 40> H 	 41.2324 	 -17.4009 	 -102.37
| 41> *
| 42>
| 43>                          ****END OF INPUT****

CARTESIAN COORDINATES (ANGSTROEM)
---------------------------------
  S     39.385500  -18.667500  -108.029000
  C     38.152000  -17.975700  -109.092000
  C     37.214800  -17.127100  -108.384000
  C     37.385300  -17.340400  -106.999000
  C     38.567000  -17.938400  -106.613000
  H     36.785400  -17.014800  -106.156000
  C     36.088200  -16.356400  -109.136000
  H     36.346600  -15.295900  -109.393000
  H     35.315400  -16.401800  -108.335000
  C     35.562200  -16.997200  -110.513000
  H     34.628900  -16.618100  -110.852000
  H     36.311300  -16.740200  -111.242000
  C     35.292000  -18.512400  -110.398000
  H     36.324500  -19.045000  -110.252000
  H     34.632400  -18.779100  -109.519000
  H     34.909400  -18.821100  -111.330000
  S     40.567300  -17.306000  -104.851000
  C     40.485100  -17.589900  -103.178000
  C     39.301900  -18.230000  -102.881000
  C     38.474300  -18.408400  -104.041000
  C     39.059700  -18.017800  -105.254000
  H     39.010400  -18.488700  -101.803000
  C     37.111200  -19.141300  -103.906000
  H     36.553900  -18.694800  -104.780000
  H     36.615300  -18.891100  -102.981000
  C     37.336100  -20.634800  -104.082000
  H     38.225700  -21.026000  -103.523000
  H     37.507600  -20.898400  -105.131000
  C     36.121300  -21.402600  -103.560000
  H     36.109700  -21.516600  -102.472000
  H     36.155600  -22.366400  -103.961000
  H     35.217500  -20.950200  -103.860000
  H     38.224100  -18.006400  -110.206000
  H     41.232400  -17.400900  -102.370000

 Total Charge           Charge          ....    0
 Multiplicity           Mult            ....    1
 Number of Electrons    NEL             ....  134
 Basis Dimension        Dim             ....  322

ORBITAL ENERGIES
----------------

  NO   OCC          E(Eh)            E(eV)
   0   2.0000     -88.972868     -2421.0748
   1   2.0000     -88.962813     -2420.8012
   2   2.0000     -10.332884      -281.1721
   3   2.0000     -10.326377      -280.9950
   4   2.0000     -10.323860      -280.9265
   5   2.0000     -10.316053      -280.7141
   6   2.0000     -10.315176      -280.6902
   7   2.0000     -10.309308      -280.5305
   8   2.0000     -10.302793      -280.3532
   9   2.0000     -10.299043      -280.2512
  10   2.0000     -10.296128      -280.1719
  11   2.0000     -10.292042      -280.0607
  12   2.0000     -10.291625      -280.0494
  13   2.0000     -10.282828      -279.8100
  14   2.0000     -10.282719      -279.8070
  15   2.0000     -10.263992      -279.2974
  16   2.0000      -8.086192      -220.0365
  17   2.0000      -8.078912      -219.8384
  18   2.0000      -6.044667      -164.4838
  19   2.0000      -6.040890      -164.3810
  20   2.0000      -6.037330      -164.2841
  21   2.0000      -6.037080      -164.2773
  22   2.0000      -6.032992      -164.1661
  23   2.0000      -6.029888      -164.0816
  24   2.0000      -1.009538       -27.4709
  25   2.0000      -0.982521       -26.7357
  26   2.0000      -0.907703       -24.6999
  27   2.0000      -0.902875       -24.5685
  28   2.0000      -0.867513       -23.6062
  29   2.0000      -0.851670       -23.1751
  30   2.0000      -0.844488       -22.9797
  31   2.0000      -0.810751       -22.0617
  32   2.0000      -0.778846       -21.1935
  33   2.0000      -0.767380       -20.8815
  34   2.0000      -0.701788       -19.0966
  35   2.0000      -0.700386       -19.0585
  36   2.0000      -0.690327       -18.7848
  37   2.0000      -0.657221       -17.8839
  38   2.0000      -0.639131       -17.3916
  39   2.0000      -0.612773       -16.6744
  40   2.0000      -0.587054       -15.9745
  41   2.0000      -0.568594       -15.4722
  42   2.0000      -0.560183       -15.2434
  43   2.0000      -0.553414       -15.0592
  44   2.0000      -0.539918       -14.6919
  45   2.0000      -0.526992       -14.3402
  46   2.0000      -0.513696       -13.9784
  47   2.0000      -0.511469       -13.9178
  48   2.0000      -0.506160       -13.7733
  49   2.0000      -0.496839       -13.5197
  50   2.0000      -0.493311       -13.4237
  51   2.0000      -0.483347       -13.1525
  52   2.0000      -0.471484       -12.8297
  53   2.0000      -0.458501       -12.4764
  54   2.0000      -0.450388       -12.2557
  55   2.0000      -0.444570       -12.0974
  56   2.0000      -0.442769       -12.0484
  57   2.0000      -0.438687       -11.9373
  58   2.0000      -0.436229       -11.8704
  59   2.0000      -0.431241       -11.7347
  60   2.0000      -0.417043       -11.3483
  61   2.0000      -0.408076       -11.1043
  62   2.0000      -0.401873       -10.9355
  63   2.0000      -0.346359        -9.4249
  64   2.0000      -0.332897        -9.0586
  65   2.0000      -0.325193        -8.8489
  66   2.0000      -0.290196        -7.8966
  67   0.0000       0.027991         0.7617
  68   0.0000       0.064857         1.7648
  69   0.0000       0.109522         2.9803
  70   0.0000       0.120361         3.2752
  71   0.0000       0.127687         3.4746

MULLIKEN ATOMIC CHARGES
-----------------------
   0 S :    0.126523
   1 C :   -0.141466
   2 C :   -0.097918
   3 C :    0.032630
   4 C :   -0.173590
   5 H :    0.024294
   6 C :    0.039034
   7 H :    0.063194
   8 H :    0.032883
   9 C :   -0.084903
  10 H :    0.030894
  11 H :    0.032017
  12 C :   -0.071650
  13 H :    0.040649
  14 H :    0.050605
  15 H :    0.026919
  16 S :    0.117362
  17 C :   -0.100511
  18 C :   -0.066873
  19 C :   -0.086229
  20 C :   -0.149747
  21 H :    0.043883
  22 C :    0.077013
  23 H :    0.020712
  24 H :    0.023243
  25 C :   -0.085088
  26 H :    0.036602
  27 H :    0.034565
  28 C :   -0.005168
  29 H :    0.029624
  30 H :    0.014526
  31 H :    0.015483
  32 H :    0.076591
  33 H :    0.073897
Sum of atomic charges:   -0.0000000

LOEWDIN ATOMIC CHARGES
----------------------
   0 S :    0.393944
   1 C :   -0.200315
   2 C :   -0.060396
   3 C :   -0.059333
   4 C :   -0.190189
   5 H :    0.033271
   6 C :   -0.034172
   7 H :    0.040524
   8 H :    0.032493
   9 C :   -0.039367
  10 H :    0.023520
  11 H :    0.020727
  12 C :   -0.072847
  13 H :    0.034840
  14 H :    0.034022
  15 H :    0.015729
  16 S :    0.447955
  17 C :   -0.215541
  18 C :   -0.091056
  19 C :   -0.057210
  20 C :   -0.226520
  21 H :    0.043209
  22 C :   -0.032308
  23 H :    0.034744
  24 H :    0.025276
  25 C :   -0.039470
  26 H :    0.029141
  27 H :    0.027949
  28 C :   -0.058902
  29 H :    0.025094
  30 H :    0.018783
  31 H :    0.016901
  32 H :    0.033712
  33 H :    0.045795

  Mayer bond orders larger than 0.100000
B(  0-S ,  1-C ) :   1.1583 B(  0-S ,  4-C ) :   1.1318 B(  1-C ,  2-C ) :   1.5725
B(  1-C ,  4-C ) :   0.1151 B(  1-C , 32-H ) :   0.9499 B(  2-C ,  3-C ) :   1.2647
B(  2-C ,  6-C ) :   0.9986 B(  3-C ,  4-C ) :   1.5925 B(  3-C ,  5-H ) :   0.9743
B(  4-C , 20-C ) :   1.0438 B(  6-C ,  7-H ) :   0.9443 B(  6-C ,  8-H ) :   0.9482
B(  6-C ,  9-C ) :   1.0614 B(  9-C , 10-H ) :   0.9601 B(  9-C , 11-H ) :   0.9530
B(  9-C , 12-C ) :   1.0813 B( 12-C , 13-H ) :   0.9663 B( 12-C , 14-H ) :   0.9751
B( 12-C , 15-H ) :   0.9725 B( 16-S , 17-C ) :   1.1851 B( 16-S , 20-C ) :   1.1550
B( 17-C , 18-C ) :   1.5725 B( 17-C , 20-C ) :   0.1016 B( 17-C , 33-H ) :   0.9612
B( 18-C , 19-C ) :   1.2854 B( 18-C , 21-H ) :   0.9784 B( 19-C , 20-C ) :   1.5561
B( 19-C , 22-C ) :   1.0383 B( 22-C , 23-H ) :   0.9229 B( 22-C , 24-H ) :   0.9447
B( 22-C , 25-C ) :   1.0654 B( 25-C , 26-H ) :   0.9610 B( 25-C , 27-H ) :   0.9534
B( 25-C , 28-C ) :   1.0848 B( 28-C , 29-H ) :   0.9766 B( 28-C , 30-H ) :   0.9710
B( 28-C , 31-H ) :   0.9715

Dispersion correction           -0.014328403
FINAL SINGLE POINT ENERGY     -1339.856236161213

DIPOLE MOMENT
-------------
                                X             Y             Z
Electronic contribution:     24.14735       8.40160       3.69299
Nuclear contribution   :    -24.70792      -8.37042      -3.66867
                        -----------------------------------------
Total Dipole Moment    :     -0.56057       0.03118       0.02431
                        -----------------------------------------
Magnitude (a.u.)       :      0.56196
Magnitude (Debye)      :      1.42840

Rotational constants in cm-1:     0.019750     0.008196     0.006646
Rotational constants in MHz :   592.092741   245.699655   199.239394

                             ****ORCA TERMINATED NORMALLY****
TOTAL RUN TIME: 0 days 0 hours 0 minutes 21 seconds 537 msec
