                         Program Version 4.2.1 -  RELEASE  -
|  1> ! wB97X-D3 SP def2-SVP
|  2> %pal
|  3> nprocs 24
|  4> end
|  5>
|  6> * xyz 0 1
|  7> S 	 37.1604 	 -25.0113 	 -122.208
|  8> C 	 37.0699 	 -24.2025 	 -123.777
|  9> C 	 37.5 	 -24.9249 	 -124.85
| 10> C 	 38.2774 	 -26.1199 	 -124.336
| 11> C 	 38.2013 	 -26.249 	 -122.961
| 12> H 	 38.8134 	 -26.8192 	 -125.013
| 13> C 	 37.4895 	 -24.4703 	 -126.338
| 14> H 	 36.7707 	 -23.6727 	 -126.352
| 15> H 	 37.0124 	 -25.2176 	 -126.961
| 16> C 	 38.8457 	 -24.019 	 -126.903
| 17> H 	 39.4467 	 -24.8854 	 -127.15
| 18> H 	 38.7336 	 -23.5043 	 -127.842
| 19> C 	 39.6199 	 -23.095 	 -126.015
| 20> H 	 40.5428 	 -22.7325 	 -126.523
| 21> H 	 39.1525 	 -22.16 	 -125.977
| 22> H 	 39.8315 	 -23.466 	 -125.003
| 23> S 	 38.9872 	 -26.6326 	 -120.344
| 24> C 	 40.2169 	 -27.7682 	 -119.924
| 25> C 	 40.6412 	 -28.3921 	 -121.061
| 26> C 	 39.8583 	 -28.1572 	 -122.224
| 27> C 	 38.9339 	 -27.1269 	 -122.062
| 28> H 	 41.4738 	 -29.0815 	 -120.947
| 29> C 	 40.2454 	 -28.8077 	 -123.602
| 30> H 	 39.356 	 -28.8219 	 -124.317
| 31> H 	 40.5201 	 -29.9025 	 -123.596
| 32> C 	 41.4598 	 -28.1685 	 -124.25
| 33> H 	 42.3054 	 -28.1928 	 -123.523
| 34> H 	 41.1653 	 -27.1271 	 -124.41
| 35> C 	 41.9444 	 -28.8478 	 -125.624
| 36> H 	 41.8656 	 -29.9271 	 -125.599
| 37> H 	 42.9985 	 -28.6987 	 -125.723
| 38> H 	 41.3894 	 -28.517 	 -126.564
| 39> H 	 36.556 	 -23.2577 	 -123.899
| 40> H 	 40.6649 	 -27.8662 	 -118.965
| 41> *
| 42>
| 43>                          ****END OF INPUT****

CARTESIAN COORDINATES (ANGSTROEM)
---------------------------------
  S     37.160400  -25.011300  -122.208000
  C     37.069900  -24.202500  -123.777000
  C     37.500000  -24.924900  -124.850000
  C     38.277400  -26.119900  -124.336000
  C     38.201300  -26.249000  -122.961000
  H     38.813400  -26.819200  -125.013000
  C     37.489500  -24.470300  -126.338000
  H     36.770700  -23.672700  -126.352000
  H     37.012400  -25.217600  -126.961000
  C     38.845700  -24.019000  -126.903000
  H     39.446700  -24.885400  -127.150000
  H     38.733600  -23.504300  -127.842000
  C     39.619900  -23.095000  -126.015000
  H     40.542800  -22.732500  -126.523000
  H     39.152500  -22.160000  -125.977000
  H     39.831500  -23.466000  -125.003000
  S     38.987200  -26.632600  -120.344000
  C     40.216900  -27.768200  -119.924000
  C     40.641200  -28.392100  -121.061000
  C     39.858300  -28.157200  -122.224000
  C     38.933900  -27.126900  -122.062000
  H     41.473800  -29.081500  -120.947000
  C     40.245400  -28.807700  -123.602000
  H     39.356000  -28.821900  -124.317000
  H     40.520100  -29.902500  -123.596000
  C     41.459800  -28.168500  -124.250000
  H     42.305400  -28.192800  -123.523000
  H     41.165300  -27.127100  -124.410000
  C     41.944400  -28.847800  -125.624000
  H     41.865600  -29.927100  -125.599000
  H     42.998500  -28.698700  -125.723000
  H     41.389400  -28.517000  -126.564000
  H     36.556000  -23.257700  -123.899000
  H     40.664900  -27.866200  -118.965000

 Total Charge           Charge          ....    0
 Multiplicity           Mult            ....    1
 Number of Electrons    NEL             ....  134
 Basis Dimension        Dim             ....  322

ORBITAL ENERGIES
----------------

  NO   OCC          E(Eh)            E(eV)
   0   2.0000     -88.966274     -2420.8954
   1   2.0000     -88.962965     -2420.8053
   2   2.0000     -10.338244      -281.3179
   3   2.0000     -10.334201      -281.2079
   4   2.0000     -10.315618      -280.7022
   5   2.0000     -10.315087      -280.6878
   6   2.0000     -10.311279      -280.5842
   7   2.0000     -10.310509      -280.5632
   8   2.0000     -10.306991      -280.4675
   9   2.0000     -10.303542      -280.3736
  10   2.0000     -10.297233      -280.2019
  11   2.0000     -10.294092      -280.1165
  12   2.0000     -10.293280      -280.0944
  13   2.0000     -10.287754      -279.9440
  14   2.0000     -10.284917      -279.8668
  15   2.0000     -10.269648      -279.4513
  16   2.0000      -8.080625      -219.8850
  17   2.0000      -8.077876      -219.8102
  18   2.0000      -6.039407      -164.3406
  19   2.0000      -6.036478      -164.2609
  20   2.0000      -6.035561      -164.2360
  21   2.0000      -6.032299      -164.1472
  22   2.0000      -6.030738      -164.1047
  23   2.0000      -6.028559      -164.0454
  24   2.0000      -1.005797       -27.3691
  25   2.0000      -0.979528       -26.6543
  26   2.0000      -0.913431       -24.8557
  27   2.0000      -0.902510       -24.5586
  28   2.0000      -0.872325       -23.7372
  29   2.0000      -0.847237       -23.0545
  30   2.0000      -0.836877       -22.7726
  31   2.0000      -0.815992       -22.2043
  32   2.0000      -0.785315       -21.3695
  33   2.0000      -0.777348       -21.1527
  34   2.0000      -0.710793       -19.3417
  35   2.0000      -0.697105       -18.9692
  36   2.0000      -0.691901       -18.8276
  37   2.0000      -0.662470       -18.0267
  38   2.0000      -0.634848       -17.2751
  39   2.0000      -0.620677       -16.8895
  40   2.0000      -0.598877       -16.2963
  41   2.0000      -0.567478       -15.4419
  42   2.0000      -0.559543       -15.2259
  43   2.0000      -0.551404       -15.0045
  44   2.0000      -0.547853       -14.9078
  45   2.0000      -0.521388       -14.1877
  46   2.0000      -0.516932       -14.0664
  47   2.0000      -0.510868       -13.9014
  48   2.0000      -0.500562       -13.6210
  49   2.0000      -0.496237       -13.5033
  50   2.0000      -0.488977       -13.3057
  51   2.0000      -0.481158       -13.0930
  52   2.0000      -0.467758       -12.7283
  53   2.0000      -0.464527       -12.6404
  54   2.0000      -0.457974       -12.4621
  55   2.0000      -0.450767       -12.2660
  56   2.0000      -0.445481       -12.1222
  57   2.0000      -0.437370       -11.9014
  58   2.0000      -0.433780       -11.8038
  59   2.0000      -0.425037       -11.5658
  60   2.0000      -0.416638       -11.3373
  61   2.0000      -0.412358       -11.2208
  62   2.0000      -0.409165       -11.1340
  63   2.0000      -0.366758        -9.9800
  64   2.0000      -0.336323        -9.1518
  65   2.0000      -0.325141        -8.8475
  66   2.0000      -0.285150        -7.7593
  67   0.0000       0.016100         0.4381
  68   0.0000       0.081255         2.2111
  69   0.0000       0.091637         2.4936
  70   0.0000       0.114767         3.1230
  71   0.0000       0.122931         3.3451

MULLIKEN ATOMIC CHARGES
-----------------------
   0 S :    0.091324
   1 C :   -0.117366
   2 C :   -0.110258
   3 C :   -0.039302
   4 C :   -0.081383
   5 H :    0.028110
   6 C :    0.099303
   7 H :    0.006236
   8 H :    0.032870
   9 C :   -0.056618
  10 H :    0.024906
  11 H :    0.023635
  12 C :   -0.039385
  13 H :    0.022590
  14 H :    0.004933
  15 H :    0.059767
  16 S :    0.071848
  17 C :   -0.066852
  18 C :   -0.045482
  19 C :   -0.035226
  20 C :   -0.087906
  21 H :    0.022039
  22 C :   -0.012490
  23 H :    0.041697
  24 H :    0.027223
  25 C :   -0.084001
  26 H :    0.035248
  27 H :    0.032836
  28 C :   -0.049612
  29 H :    0.022180
  30 H :    0.032570
  31 H :    0.047685
  32 H :    0.045950
  33 H :    0.052929
Sum of atomic charges:   -0.0000000

LOEWDIN ATOMIC CHARGES
----------------------
   0 S :    0.368081
   1 C :   -0.182067
   2 C :   -0.055110
   3 C :   -0.066053
   4 C :   -0.169336
   5 H :    0.034571
   6 C :   -0.026912
   7 H :    0.025853
   8 H :    0.033284
   9 C :   -0.041338
  10 H :    0.021056
  11 H :    0.027145
  12 C :   -0.067538
  13 H :    0.032442
  14 H :    0.016615
  15 H :    0.030865
  16 S :    0.392457
  17 C :   -0.182242
  18 C :   -0.074697
  19 C :   -0.057327
  20 C :   -0.179248
  21 H :    0.031968
  22 C :   -0.045001
  23 H :    0.031225
  24 H :    0.031344
  25 C :   -0.043496
  26 H :    0.027891
  27 H :    0.022524
  28 C :   -0.071310
  29 H :    0.021233
  30 H :    0.025093
  31 H :    0.033930
  32 H :    0.025142
  33 H :    0.028957

  Mayer bond orders larger than 0.100000
B(  0-S ,  1-C ) :   1.1119 B(  0-S ,  4-C ) :   1.1051 B(  1-C ,  2-C ) :   1.6911
B(  1-C , 32-H ) :   0.9582 B(  2-C ,  3-C ) :   1.1505 B(  2-C ,  6-C ) :   1.0307
B(  3-C ,  4-C ) :   1.6381 B(  3-C ,  5-H ) :   0.9788 B(  4-C , 20-C ) :   1.0858
B(  6-C ,  7-H ) :   0.9369 B(  6-C ,  8-H ) :   0.9380 B(  6-C ,  9-C ) :   1.0641
B(  9-C , 10-H ) :   0.9545 B(  9-C , 11-H ) :   0.9514 B(  9-C , 12-C ) :   1.0947
B( 12-C , 13-H ) :   0.9658 B( 12-C , 14-H ) :   0.9704 B( 12-C , 15-H ) :   0.9698
B( 16-S , 17-C ) :   1.1538 B( 16-S , 20-C ) :   1.1316 B( 17-C , 18-C ) :   1.6074
B( 17-C , 33-H ) :   0.9732 B( 18-C , 19-C ) :   1.2488 B( 18-C , 21-H ) :   0.9896
B( 19-C , 20-C ) :   1.5781 B( 19-C , 22-C ) :   1.0350 B( 22-C , 23-H ) :   0.9446
B( 22-C , 24-H ) :   0.9378 B( 22-C , 25-C ) :   1.0550 B( 25-C , 26-H ) :   0.9574
B( 25-C , 27-H ) :   0.9562 B( 25-C , 28-C ) :   1.0590 B( 28-C , 29-H ) :   0.9753
B( 28-C , 30-H ) :   0.9776 B( 28-C , 31-H ) :   0.9774

Dispersion correction           -0.014729758
FINAL SINGLE POINT ENERGY     -1339.870114759269

DIPOLE MOMENT
-------------
                                X             Y             Z
Electronic contribution:    -14.53381       0.71627      27.18153
Nuclear contribution   :     15.01891      -0.74488     -27.81299
                        -----------------------------------------
Total Dipole Moment    :      0.48511      -0.02861      -0.63146
                        -----------------------------------------
Magnitude (a.u.)       :      0.79680
Magnitude (Debye)      :      2.02530

Rotational constants in cm-1:     0.016588     0.010386     0.007024
Rotational constants in MHz :   497.288740   311.355700   210.585019

                             ****ORCA TERMINATED NORMALLY****
TOTAL RUN TIME: 0 days 0 hours 0 minutes 22 seconds 176 msec
