                         Program Version 4.2.1 -  RELEASE  -
|  1> ! wB97X-D3 SP def2-SVP
|  2> %pal
|  3> nprocs 24
|  4> end
|  5>
|  6> * xyz 0 1
|  7> S 	 -76.9352 	 -12.3128 	 -60.0103
|  8> C 	 -77.6979 	 -11.5351 	 -58.6111
|  9> C 	 -79.0138 	 -11.2434 	 -58.9471
| 10> C 	 -79.3412 	 -11.4057 	 -60.3495
| 11> C 	 -78.3092 	 -12.0234 	 -61.0576
| 12> H 	 -80.3055 	 -11.229 	 -60.8294
| 13> C 	 -80.0481 	 -10.7548 	 -58.0285
| 14> H 	 -79.8855 	 -11.2279 	 -57.0939
| 15> H 	 -81.0539 	 -11.1 	 -58.283
| 16> C 	 -79.9044 	 -9.19879 	 -57.6793
| 17> H 	 -78.8823 	 -8.99155 	 -57.5616
| 18> H 	 -80.1634 	 -8.54428 	 -58.5562
| 19> C 	 -80.5828 	 -8.74167 	 -56.4032
| 20> H 	 -80.4114 	 -9.33542 	 -55.5626
| 21> H 	 -80.4049 	 -7.73438 	 -56.0475
| 22> H 	 -81.7008 	 -8.66978 	 -56.6593
| 23> S 	 -78.0811 	 -11.2286 	 -63.5965
| 24> C 	 -78.0247 	 -12.4849 	 -64.8364
| 25> C 	 -78.6117 	 -13.6777 	 -64.3664
| 26> C 	 -78.7421 	 -13.62 	 -62.9747
| 27> C 	 -78.318 	 -12.4281 	 -62.4461
| 28> H 	 -78.9167 	 -14.4677 	 -65.1212
| 29> C 	 -79.3988 	 -14.7457 	 -62.1263
| 30> H 	 -79.031 	 -14.5431 	 -61.1388
| 31> H 	 -79.03 	 -15.7158 	 -62.3475
| 32> C 	 -80.9027 	 -14.8126 	 -62.0618
| 33> H 	 -81.0909 	 -15.6532 	 -61.4147
| 34> H 	 -81.3529 	 -15.1486 	 -62.9864
| 35> C 	 -81.713 	 -13.8226 	 -61.3487
| 36> H 	 -81.5612 	 -12.8614 	 -61.8692
| 37> H 	 -81.6225 	 -13.7624 	 -60.2692
| 38> H 	 -82.7702 	 -14.0247 	 -61.4412
| 39> H 	 -77.3961 	 -11.5947 	 -57.5856
| 40> H 	 -77.8289 	 -12.3033 	 -65.8807
| 41> *
| 42>
| 43>                          ****END OF INPUT****

CARTESIAN COORDINATES (ANGSTROEM)
---------------------------------
  S    -76.935200  -12.312800  -60.010300
  C    -77.697900  -11.535100  -58.611100
  C    -79.013800  -11.243400  -58.947100
  C    -79.341200  -11.405700  -60.349500
  C    -78.309200  -12.023400  -61.057600
  H    -80.305500  -11.229000  -60.829400
  C    -80.048100  -10.754800  -58.028500
  H    -79.885500  -11.227900  -57.093900
  H    -81.053900  -11.100000  -58.283000
  C    -79.904400   -9.198790  -57.679300
  H    -78.882300   -8.991550  -57.561600
  H    -80.163400   -8.544280  -58.556200
  C    -80.582800   -8.741670  -56.403200
  H    -80.411400   -9.335420  -55.562600
  H    -80.404900   -7.734380  -56.047500
  H    -81.700800   -8.669780  -56.659300
  S    -78.081100  -11.228600  -63.596500
  C    -78.024700  -12.484900  -64.836400
  C    -78.611700  -13.677700  -64.366400
  C    -78.742100  -13.620000  -62.974700
  C    -78.318000  -12.428100  -62.446100
  H    -78.916700  -14.467700  -65.121200
  C    -79.398800  -14.745700  -62.126300
  H    -79.031000  -14.543100  -61.138800
  H    -79.030000  -15.715800  -62.347500
  C    -80.902700  -14.812600  -62.061800
  H    -81.090900  -15.653200  -61.414700
  H    -81.352900  -15.148600  -62.986400
  C    -81.713000  -13.822600  -61.348700
  H    -81.561200  -12.861400  -61.869200
  H    -81.622500  -13.762400  -60.269200
  H    -82.770200  -14.024700  -61.441200
  H    -77.396100  -11.594700  -57.585600
  H    -77.828900  -12.303300  -65.880700

 Total Charge           Charge          ....    0
 Multiplicity           Mult            ....    1
 Number of Electrons    NEL             ....  134
 Basis Dimension        Dim             ....  322

ORBITAL ENERGIES
----------------

  NO   OCC          E(Eh)            E(eV)
   0   2.0000     -88.967016     -2420.9156
   1   2.0000     -88.965328     -2420.8697
   2   2.0000     -10.327309      -281.0204
   3   2.0000     -10.316975      -280.7392
   4   2.0000     -10.315401      -280.6963
   5   2.0000     -10.313420      -280.6424
   6   2.0000     -10.300177      -280.2821
   7   2.0000     -10.299338      -280.2592
   8   2.0000     -10.298520      -280.2370
   9   2.0000     -10.294545      -280.1288
  10   2.0000     -10.288836      -279.9734
  11   2.0000     -10.287683      -279.9421
  12   2.0000     -10.284213      -279.8477
  13   2.0000     -10.277428      -279.6630
  14   2.0000     -10.275946      -279.6227
  15   2.0000     -10.271939      -279.5137
  16   2.0000      -8.082878      -219.9463
  17   2.0000      -8.079230      -219.8470
  18   2.0000      -6.041136      -164.3877
  19   2.0000      -6.037835      -164.2979
  20   2.0000      -6.037489      -164.2884
  21   2.0000      -6.033746      -164.1866
  22   2.0000      -6.033568      -164.1817
  23   2.0000      -6.030021      -164.0852
  24   2.0000      -1.013058       -27.5667
  25   2.0000      -0.983045       -26.7500
  26   2.0000      -0.915369       -24.9085
  27   2.0000      -0.908820       -24.7303
  28   2.0000      -0.869291       -23.6546
  29   2.0000      -0.856484       -23.3061
  30   2.0000      -0.846688       -23.0396
  31   2.0000      -0.814323       -22.1589
  32   2.0000      -0.787489       -21.4287
  33   2.0000      -0.771290       -20.9879
  34   2.0000      -0.706249       -19.2180
  35   2.0000      -0.703145       -19.1336
  36   2.0000      -0.692996       -18.8574
  37   2.0000      -0.659975       -17.9588
  38   2.0000      -0.641228       -17.4487
  39   2.0000      -0.614285       -16.7155
  40   2.0000      -0.594482       -16.1767
  41   2.0000      -0.570583       -15.5264
  42   2.0000      -0.559657       -15.2290
  43   2.0000      -0.552470       -15.0335
  44   2.0000      -0.550189       -14.9714
  45   2.0000      -0.521585       -14.1931
  46   2.0000      -0.519444       -14.1348
  47   2.0000      -0.512045       -13.9334
  48   2.0000      -0.508941       -13.8490
  49   2.0000      -0.500704       -13.6249
  50   2.0000      -0.495005       -13.4698
  51   2.0000      -0.483817       -13.1653
  52   2.0000      -0.472333       -12.8528
  53   2.0000      -0.465921       -12.6783
  54   2.0000      -0.458937       -12.4883
  55   2.0000      -0.447583       -12.1793
  56   2.0000      -0.442824       -12.0498
  57   2.0000      -0.439180       -11.9507
  58   2.0000      -0.428519       -11.6606
  59   2.0000      -0.423403       -11.5214
  60   2.0000      -0.419514       -11.4156
  61   2.0000      -0.412078       -11.2132
  62   2.0000      -0.397012       -10.8032
  63   2.0000      -0.336310        -9.1515
  64   2.0000      -0.328405        -8.9364
  65   2.0000      -0.317790        -8.6475
  66   2.0000      -0.305253        -8.3063
  67   0.0000       0.041646         1.1332
  68   0.0000       0.048100         1.3089
  69   0.0000       0.102956         2.8016
  70   0.0000       0.115887         3.1535
  71   0.0000       0.135697         3.6925

MULLIKEN ATOMIC CHARGES
-----------------------
   0 S :    0.113926
   1 C :   -0.097536
   2 C :   -0.121789
   3 C :    0.062014
   4 C :   -0.191077
   5 H :    0.015849
   6 C :    0.087843
   7 H :   -0.001798
   8 H :    0.024929
   9 C :   -0.057826
  10 H :    0.012211
  11 H :    0.033653
  12 C :   -0.050523
  13 H :    0.023476
  14 H :    0.029265
  15 H :    0.033122
  16 S :    0.136641
  17 C :   -0.102549
  18 C :   -0.069951
  19 C :   -0.016653
  20 C :   -0.183327
  21 H :    0.048671
  22 C :    0.144156
  23 H :    0.004634
  24 H :    0.011757
  25 C :   -0.060770
  26 H :    0.011461
  27 H :    0.018008
  28 C :   -0.035565
  29 H :    0.029015
  30 H :    0.032651
  31 H :    0.020072
  32 H :    0.046943
  33 H :    0.049066
Sum of atomic charges:   -0.0000000

LOEWDIN ATOMIC CHARGES
----------------------
   0 S :    0.403216
   1 C :   -0.198946
   2 C :   -0.058812
   3 C :   -0.060637
   4 C :   -0.196679
   5 H :    0.032283
   6 C :   -0.031726
   7 H :    0.024512
   8 H :    0.030469
   9 C :   -0.036073
  10 H :    0.015503
  11 H :    0.029924
  12 C :   -0.071242
  13 H :    0.014955
  14 H :    0.027197
  15 H :    0.034040
  16 S :    0.443100
  17 C :   -0.181900
  18 C :   -0.073623
  19 C :   -0.058503
  20 C :   -0.232908
  21 H :    0.046740
  22 C :   -0.020414
  23 H :    0.027517
  24 H :    0.026955
  25 C :   -0.047841
  26 H :    0.029454
  27 H :    0.022371
  28 C :   -0.065100
  29 H :    0.022270
  30 H :    0.025408
  31 H :    0.028491
  32 H :    0.028045
  33 H :    0.021955

  Mayer bond orders larger than 0.100000
B(  0-S ,  1-C ) :   1.1236 B(  0-S ,  4-C ) :   1.1585 B(  1-C ,  2-C ) :   1.6112
B(  1-C , 32-H ) :   0.9669 B(  2-C ,  3-C ) :   1.2281 B(  2-C ,  6-C ) :   1.0520
B(  3-C ,  4-C ) :   1.5810 B(  3-C ,  5-H ) :   0.9882 B(  4-C , 20-C ) :   1.0013
B(  6-C ,  7-H ) :   0.9283 B(  6-C ,  8-H ) :   0.9426 B(  6-C ,  9-C ) :   1.0408
B(  9-C , 10-H ) :   0.9579 B(  9-C , 11-H ) :   0.9561 B(  9-C , 12-C ) :   1.0819
B( 12-C , 13-H ) :   0.9753 B( 12-C , 14-H ) :   0.9728 B( 12-C , 15-H ) :   0.9753
B( 16-S , 17-C ) :   1.1679 B( 16-S , 20-C ) :   1.1753 B( 17-C , 18-C ) :   1.5797
B( 17-C , 20-C ) :   0.1104 B( 17-C , 33-H ) :   0.9719 B( 18-C , 19-C ) :   1.2608
B( 18-C , 21-H ) :   0.9849 B( 19-C , 20-C ) :   1.5774 B( 19-C , 22-C ) :   1.0318
B( 22-C , 23-H ) :   0.9147 B( 22-C , 24-H ) :   0.9330 B( 22-C , 25-C ) :   1.0907
B( 25-C , 26-H ) :   0.9417 B( 25-C , 27-H ) :   0.9515 B( 25-C , 28-C ) :   1.0987
B( 28-C , 29-H ) :   0.9675 B( 28-C , 30-H ) :   0.9697 B( 28-C , 31-H ) :   0.9604

Dispersion correction           -0.015463779
FINAL SINGLE POINT ENERGY     -1339.846925100433

DIPOLE MOMENT
-------------
                                X             Y             Z
Electronic contribution:     20.76551      -0.46784     -16.19909
Nuclear contribution   :    -21.42946       0.22248      16.38175
                        -----------------------------------------
Total Dipole Moment    :     -0.66395      -0.24535       0.18266
                        -----------------------------------------
Magnitude (a.u.)       :      0.73102
Magnitude (Debye)      :      1.85812

Rotational constants in cm-1:     0.021568     0.008082     0.007222
Rotational constants in MHz :   646.580432   242.294833   216.502646

                             ****ORCA TERMINATED NORMALLY****
TOTAL RUN TIME: 0 days 0 hours 0 minutes 22 seconds 230 msec
