                         Program Version 4.2.1 -  RELEASE  -
|  1> ! wB97X-D3 SP def2-SVP
|  2> %pal
|  3> nprocs 24
|  4> end
|  5>
|  6> * xyz 0 1
|  7> S 	 -127.19 	 67.4321 	 -48.5792
|  8> C 	 -127.481 	 69.0694 	 -48.0205
|  9> C 	 -128.611 	 69.629 	 -48.6539
| 10> C 	 -129.32 	 68.6589 	 -49.4445
| 11> C 	 -128.825 	 67.3649 	 -49.2503
| 12> H 	 -130.324 	 68.7698 	 -49.8869
| 13> C 	 -129.102 	 70.9808 	 -48.2791
| 14> H 	 -129.959 	 71.2988 	 -48.9288
| 15> H 	 -128.286 	 71.6268 	 -48.5345
| 16> C 	 -129.462 	 71.1262 	 -46.7944
| 17> H 	 -130.177 	 70.308 	 -46.6375
| 18> H 	 -128.586 	 70.9548 	 -46.1882
| 19> C 	 -129.878 	 72.5685 	 -46.5643
| 20> H 	 -130.871 	 72.8939 	 -46.8692
| 21> H 	 -129.633 	 72.8551 	 -45.4893
| 22> H 	 -129.176 	 73.1791 	 -47.1626
| 23> S 	 -128.1 	 65.109 	 -50.654
| 24> C 	 -129.353 	 63.9859 	 -51.1312
| 25> C 	 -130.587 	 64.2552 	 -50.5434
| 26> C 	 -130.609 	 65.5187 	 -49.8565
| 27> C 	 -129.324 	 66.1011 	 -49.7649
| 28> H 	 -131.294 	 63.4442 	 -50.6613
| 29> C 	 -131.918 	 65.9739 	 -49.1668
| 30> H 	 -132.776 	 65.3741 	 -49.4269
| 31> H 	 -132.225 	 66.9114 	 -49.6166
| 32> C 	 -131.916 	 66.1401 	 -47.589
| 33> H 	 -131.452 	 67.1764 	 -47.3572
| 34> H 	 -131.402 	 65.3285 	 -47.1946
| 35> C 	 -133.312 	 66.1123 	 -46.9086
| 36> H 	 -133.828 	 65.1271 	 -46.807
| 37> H 	 -134.04 	 66.6649 	 -47.6021
| 38> H 	 -133.38 	 66.57 	 -45.8927
| 39> H 	 -126.854 	 69.6197 	 -47.3604
| 40> H 	 -129.177 	 62.9821 	 -51.5343
| 41> *
| 42>
| 43>                          ****END OF INPUT****

CARTESIAN COORDINATES (ANGSTROEM)
---------------------------------
  S    -127.190000   67.432100  -48.579200
  C    -127.481000   69.069400  -48.020500
  C    -128.611000   69.629000  -48.653900
  C    -129.320000   68.658900  -49.444500
  C    -128.825000   67.364900  -49.250300
  H    -130.324000   68.769800  -49.886900
  C    -129.102000   70.980800  -48.279100
  H    -129.959000   71.298800  -48.928800
  H    -128.286000   71.626800  -48.534500
  C    -129.462000   71.126200  -46.794400
  H    -130.177000   70.308000  -46.637500
  H    -128.586000   70.954800  -46.188200
  C    -129.878000   72.568500  -46.564300
  H    -130.871000   72.893900  -46.869200
  H    -129.633000   72.855100  -45.489300
  H    -129.176000   73.179100  -47.162600
  S    -128.100000   65.109000  -50.654000
  C    -129.353000   63.985900  -51.131200
  C    -130.587000   64.255200  -50.543400
  C    -130.609000   65.518700  -49.856500
  C    -129.324000   66.101100  -49.764900
  H    -131.294000   63.444200  -50.661300
  C    -131.918000   65.973900  -49.166800
  H    -132.776000   65.374100  -49.426900
  H    -132.225000   66.911400  -49.616600
  C    -131.916000   66.140100  -47.589000
  H    -131.452000   67.176400  -47.357200
  H    -131.402000   65.328500  -47.194600
  C    -133.312000   66.112300  -46.908600
  H    -133.828000   65.127100  -46.807000
  H    -134.040000   66.664900  -47.602100
  H    -133.380000   66.570000  -45.892700
  H    -126.854000   69.619700  -47.360400
  H    -129.177000   62.982100  -51.534300

 Total Charge           Charge          ....    0
 Multiplicity           Mult            ....    1
 Number of Electrons    NEL             ....  134
 Basis Dimension        Dim             ....  322

ORBITAL ENERGIES
----------------

  NO   OCC          E(Eh)            E(eV)
   0   2.0000     -88.967601     -2420.9315
   1   2.0000     -88.966319     -2420.8966
   2   2.0000     -10.335991      -281.2566
   3   2.0000     -10.333511      -281.1891
   4   2.0000     -10.317632      -280.7571
   5   2.0000     -10.316402      -280.7236
   6   2.0000     -10.313399      -280.6419
   7   2.0000     -10.303245      -280.3656
   8   2.0000     -10.300388      -280.2878
   9   2.0000     -10.297315      -280.2042
  10   2.0000     -10.297062      -280.1973
  11   2.0000     -10.292693      -280.0784
  12   2.0000     -10.289773      -279.9990
  13   2.0000     -10.289219      -279.9839
  14   2.0000     -10.288818      -279.9730
  15   2.0000     -10.285942      -279.8947
  16   2.0000      -8.081534      -219.9097
  17   2.0000      -8.080768      -219.8889
  18   2.0000      -6.040090      -164.3592
  19   2.0000      -6.039286      -164.3373
  20   2.0000      -6.036250      -164.2547
  21   2.0000      -6.035503      -164.2344
  22   2.0000      -6.032177      -164.1439
  23   2.0000      -6.031358      -164.1216
  24   2.0000      -1.001021       -27.2392
  25   2.0000      -0.977227       -26.5917
  26   2.0000      -0.918957       -25.0061
  27   2.0000      -0.897857       -24.4319
  28   2.0000      -0.867456       -23.6047
  29   2.0000      -0.849996       -23.1296
  30   2.0000      -0.843985       -22.9660
  31   2.0000      -0.812870       -22.1193
  32   2.0000      -0.779741       -21.2178
  33   2.0000      -0.764828       -20.8120
  34   2.0000      -0.707932       -19.2638
  35   2.0000      -0.705411       -19.1952
  36   2.0000      -0.690657       -18.7937
  37   2.0000      -0.658180       -17.9100
  38   2.0000      -0.638239       -17.3674
  39   2.0000      -0.615501       -16.7486
  40   2.0000      -0.591919       -16.1069
  41   2.0000      -0.575815       -15.6687
  42   2.0000      -0.564569       -15.3627
  43   2.0000      -0.556406       -15.1406
  44   2.0000      -0.522287       -14.2122
  45   2.0000      -0.517012       -14.0686
  46   2.0000      -0.516807       -14.0630
  47   2.0000      -0.512507       -13.9460
  48   2.0000      -0.503648       -13.7050
  49   2.0000      -0.498982       -13.5780
  50   2.0000      -0.486891       -13.2490
  51   2.0000      -0.478198       -13.0124
  52   2.0000      -0.472851       -12.8669
  53   2.0000      -0.463990       -12.6258
  54   2.0000      -0.452016       -12.3000
  55   2.0000      -0.449973       -12.2444
  56   2.0000      -0.447710       -12.1828
  57   2.0000      -0.435521       -11.8511
  58   2.0000      -0.429797       -11.6954
  59   2.0000      -0.422995       -11.5103
  60   2.0000      -0.421916       -11.4809
  61   2.0000      -0.418074       -11.3764
  62   2.0000      -0.412105       -11.2139
  63   2.0000      -0.347846        -9.4654
  64   2.0000      -0.334102        -9.0914
  65   2.0000      -0.327108        -8.9011
  66   2.0000      -0.282798        -7.6953
  67   0.0000       0.016699         0.4544
  68   0.0000       0.059757         1.6261
  69   0.0000       0.097913         2.6643
  70   0.0000       0.117712         3.2031
  71   0.0000       0.125232         3.4077

MULLIKEN ATOMIC CHARGES
-----------------------
   0 S :    0.101097
   1 C :   -0.103881
   2 C :   -0.100481
   3 C :    0.048440
   4 C :   -0.164209
   5 H :    0.025237
   6 C :    0.028473
   7 H :    0.029825
   8 H :    0.026450
   9 C :   -0.058457
  10 H :    0.042108
  11 H :    0.024013
  12 C :   -0.046305
  13 H :    0.041648
  14 H :    0.040555
  15 H :    0.020213
  16 S :    0.095049
  17 C :   -0.099108
  18 C :   -0.056107
  19 C :   -0.024579
  20 C :   -0.135036
  21 H :    0.026441
  22 C :    0.066871
  23 H :    0.008736
  24 H :    0.020901
  25 C :   -0.046365
  26 H :    0.057559
  27 H :    0.031155
  28 C :   -0.118125
  29 H :    0.038032
  30 H :    0.028296
  31 H :    0.051109
  32 H :    0.036679
  33 H :    0.063767
Sum of atomic charges:    0.0000000

LOEWDIN ATOMIC CHARGES
----------------------
   0 S :    0.392465
   1 C :   -0.192617
   2 C :   -0.059708
   3 C :   -0.064857
   4 C :   -0.181917
   5 H :    0.036224
   6 C :   -0.040490
   7 H :    0.033285
   8 H :    0.027145
   9 C :   -0.036272
  10 H :    0.028395
  11 H :    0.023502
  12 C :   -0.069909
  13 H :    0.024708
  14 H :    0.033802
  15 H :    0.027692
  16 S :    0.383043
  17 C :   -0.191988
  18 C :   -0.070988
  19 C :   -0.051856
  20 C :   -0.178020
  21 H :    0.035364
  22 C :   -0.033701
  23 H :    0.026997
  24 H :    0.028532
  25 C :   -0.035994
  26 H :    0.038409
  27 H :    0.016357
  28 C :   -0.084912
  29 H :    0.026119
  30 H :    0.026841
  31 H :    0.032535
  32 H :    0.019470
  33 H :    0.032344

  Mayer bond orders larger than 0.100000
B(  0-S ,  1-C ) :   1.1316 B(  0-S ,  4-C ) :   1.1476 B(  1-C ,  2-C ) :   1.5907
B(  1-C ,  4-C ) :   0.1055 B(  1-C , 32-H ) :   0.9771 B(  2-C ,  3-C ) :   1.2330
B(  2-C ,  6-C ) :   1.0335 B(  3-C ,  4-C ) :   1.5629 B(  3-C ,  5-H ) :   0.9848
B(  4-C , 20-C ) :   1.0663 B(  6-C ,  7-H ) :   0.9498 B(  6-C ,  8-H ) :   0.9225
B(  6-C ,  9-C ) :   1.0686 B(  9-C , 10-H ) :   0.9597 B(  9-C , 11-H ) :   0.9499
B(  9-C , 12-C ) :   1.0716 B( 12-C , 13-H ) :   0.9764 B( 12-C , 14-H ) :   0.9750
B( 12-C , 15-H ) :   0.9690 B( 16-S , 17-C ) :   1.1502 B( 16-S , 20-C ) :   1.1251
B( 17-C , 18-C ) :   1.6439 B( 17-C , 20-C ) :   0.1028 B( 17-C , 33-H ) :   0.9567
B( 18-C , 19-C ) :   1.2160 B( 18-C , 21-H ) :   0.9882 B( 19-C , 20-C ) :   1.5989
B( 19-C , 22-C ) :   1.0426 B( 22-C , 23-H ) :   0.9424 B( 22-C , 24-H ) :   0.9245
B( 22-C , 25-C ) :   1.0515 B( 25-C , 26-H ) :   0.9534 B( 25-C , 27-H ) :   0.9646
B( 25-C , 28-C ) :   1.0693 B( 28-C , 29-H ) :   0.9752 B( 28-C , 30-H ) :   0.9758
B( 28-C , 31-H ) :   0.9756

Dispersion correction           -0.013919057
FINAL SINGLE POINT ENERGY     -1339.853978318533

DIPOLE MOMENT
-------------
                                X             Y             Z
Electronic contribution:     21.66005     -17.12518     -15.57480
Nuclear contribution   :    -22.22685      17.36396      15.84523
                        -----------------------------------------
Total Dipole Moment    :     -0.56680       0.23878       0.27043
                        -----------------------------------------
Magnitude (a.u.)       :      0.67187
Magnitude (Debye)      :      1.70775

Rotational constants in cm-1:     0.018211     0.008733     0.006408
Rotational constants in MHz :   545.961685   261.813510   192.114859

                             ****ORCA TERMINATED NORMALLY****
TOTAL RUN TIME: 0 days 0 hours 0 minutes 21 seconds 325 msec
