                         Program Version 4.2.1 -  RELEASE  -
|  1> ! wB97X-D3 SP def2-SVP
|  2> %pal
|  3> nprocs 24
|  4> end
|  5>
|  6> * xyz 0 1
|  7> S 	 -103.797 	 44.0228 	 -97.3522
|  8> C 	 -104.02 	 42.7312 	 -96.2153
|  9> C 	 -104.285 	 43.1023 	 -94.9233
| 10> C 	 -104.365 	 44.5316 	 -94.8392
| 11> C 	 -104.123 	 45.1879 	 -96.0516
| 12> H 	 -104.607 	 45.1125 	 -93.9523
| 13> C 	 -104.454 	 42.2379 	 -93.7034
| 14> H 	 -105.377 	 41.5944 	 -93.8129
| 15> H 	 -104.649 	 42.8609 	 -92.7791
| 16> C 	 -103.384 	 41.2402 	 -93.487
| 17> H 	 -103.366 	 40.7157 	 -94.475
| 18> H 	 -102.413 	 41.7737 	 -93.4348
| 19> C 	 -103.626 	 40.1955 	 -92.4253
| 20> H 	 -103.487 	 40.6524 	 -91.3936
| 21> H 	 -104.62 	 39.8906 	 -92.4967
| 22> H 	 -102.925 	 39.3422 	 -92.5926
| 23> S 	 -105.222 	 47.6463 	 -95.4337
| 24> C 	 -104.508 	 49.0389 	 -96.1816
| 25> C 	 -103.27 	 48.7599 	 -96.7415
| 26> C 	 -102.984 	 47.3298 	 -96.7704
| 27> C 	 -103.913 	 46.6167 	 -96.065
| 28> H 	 -102.631 	 49.61 	 -97.0491
| 29> C 	 -101.75 	 46.6702 	 -97.3595
| 30> H 	 -101.985 	 46.2882 	 -98.3472
| 31> H 	 -101.51 	 45.8997 	 -96.5993
| 32> C 	 -100.49 	 47.5494 	 -97.527
| 33> H 	 -100.333 	 48.1975 	 -96.7012
| 34> H 	 -100.654 	 48.3224 	 -98.2571
| 35> C 	 -99.2109 	 46.7381 	 -97.627
| 36> H 	 -99.1708 	 46.0535 	 -98.4732
| 37> H 	 -99.1349 	 46.1542 	 -96.6383
| 38> H 	 -98.2972 	 47.3437 	 -97.7741
| 39> H 	 -103.802 	 41.6855 	 -96.5118
| 40> H 	 -104.919 	 49.9786 	 -96.0141
| 41> *
| 42>
| 43>                          ****END OF INPUT****

CARTESIAN COORDINATES (ANGSTROEM)
---------------------------------
  S    -103.797000   44.022800  -97.352200
  C    -104.020000   42.731200  -96.215300
  C    -104.285000   43.102300  -94.923300
  C    -104.365000   44.531600  -94.839200
  C    -104.123000   45.187900  -96.051600
  H    -104.607000   45.112500  -93.952300
  C    -104.454000   42.237900  -93.703400
  H    -105.377000   41.594400  -93.812900
  H    -104.649000   42.860900  -92.779100
  C    -103.384000   41.240200  -93.487000
  H    -103.366000   40.715700  -94.475000
  H    -102.413000   41.773700  -93.434800
  C    -103.626000   40.195500  -92.425300
  H    -103.487000   40.652400  -91.393600
  H    -104.620000   39.890600  -92.496700
  H    -102.925000   39.342200  -92.592600
  S    -105.222000   47.646300  -95.433700
  C    -104.508000   49.038900  -96.181600
  C    -103.270000   48.759900  -96.741500
  C    -102.984000   47.329800  -96.770400
  C    -103.913000   46.616700  -96.065000
  H    -102.631000   49.610000  -97.049100
  C    -101.750000   46.670200  -97.359500
  H    -101.985000   46.288200  -98.347200
  H    -101.510000   45.899700  -96.599300
  C    -100.490000   47.549400  -97.527000
  H    -100.333000   48.197500  -96.701200
  H    -100.654000   48.322400  -98.257100
  C    -99.210900   46.738100  -97.627000
  H    -99.170800   46.053500  -98.473200
  H    -99.134900   46.154200  -96.638300
  H    -98.297200   47.343700  -97.774100
  H    -103.802000   41.685500  -96.511800
  H    -104.919000   49.978600  -96.014100

 Total Charge           Charge          ....    0
 Multiplicity           Mult            ....    1
 Number of Electrons    NEL             ....  134
 Basis Dimension        Dim             ....  322

ORBITAL ENERGIES
----------------

  NO   OCC          E(Eh)            E(eV)
   0   2.0000     -88.972356     -2421.0609
   1   2.0000     -88.961911     -2420.7767
   2   2.0000     -10.327645      -281.0295
   3   2.0000     -10.320790      -280.8430
   4   2.0000     -10.315070      -280.6873
   5   2.0000     -10.312751      -280.6242
   6   2.0000     -10.302490      -280.3450
   7   2.0000     -10.300783      -280.2986
   8   2.0000     -10.299709      -280.2693
   9   2.0000     -10.295940      -280.1668
  10   2.0000     -10.294089      -280.1164
  11   2.0000     -10.292438      -280.0715
  12   2.0000     -10.284880      -279.8658
  13   2.0000     -10.284731      -279.8618
  14   2.0000     -10.282439      -279.7994
  15   2.0000     -10.280053      -279.7345
  16   2.0000      -8.086245      -220.0379
  17   2.0000      -8.076790      -219.7806
  18   2.0000      -6.044842      -164.4885
  19   2.0000      -6.040913      -164.3816
  20   2.0000      -6.036924      -164.2730
  21   2.0000      -6.035336      -164.2298
  22   2.0000      -6.031400      -164.1227
  23   2.0000      -6.027394      -164.0137
  24   2.0000      -1.004835       -27.3430
  25   2.0000      -0.982096       -26.7242
  26   2.0000      -0.921083       -25.0639
  27   2.0000      -0.908759       -24.7286
  28   2.0000      -0.871654       -23.7189
  29   2.0000      -0.854967       -23.2648
  30   2.0000      -0.847804       -23.0699
  31   2.0000      -0.808488       -22.0001
  32   2.0000      -0.781806       -21.2740
  33   2.0000      -0.770835       -20.9755
  34   2.0000      -0.708605       -19.2821
  35   2.0000      -0.702058       -19.1040
  36   2.0000      -0.690468       -18.7886
  37   2.0000      -0.657180       -17.8828
  38   2.0000      -0.637220       -17.3396
  39   2.0000      -0.612743       -16.6736
  40   2.0000      -0.596441       -16.2300
  41   2.0000      -0.575063       -15.6483
  42   2.0000      -0.571191       -15.5429
  43   2.0000      -0.560791       -15.2599
  44   2.0000      -0.528085       -14.3699
  45   2.0000      -0.522134       -14.2080
  46   2.0000      -0.518304       -14.1038
  47   2.0000      -0.511127       -13.9085
  48   2.0000      -0.503601       -13.7037
  49   2.0000      -0.499321       -13.5872
  50   2.0000      -0.486151       -13.2288
  51   2.0000      -0.474156       -12.9024
  52   2.0000      -0.473265       -12.8782
  53   2.0000      -0.467936       -12.7332
  54   2.0000      -0.459661       -12.5080
  55   2.0000      -0.451429       -12.2840
  56   2.0000      -0.445488       -12.1223
  57   2.0000      -0.436770       -11.8851
  58   2.0000      -0.432438       -11.7672
  59   2.0000      -0.423867       -11.5340
  60   2.0000      -0.422672       -11.5015
  61   2.0000      -0.414909       -11.2902
  62   2.0000      -0.407584       -11.0909
  63   2.0000      -0.351641        -9.5686
  64   2.0000      -0.331486        -9.0202
  65   2.0000      -0.328403        -8.9363
  66   2.0000      -0.285849        -7.7783
  67   0.0000       0.027313         0.7432
  68   0.0000       0.071752         1.9525
  69   0.0000       0.107474         2.9245
  70   0.0000       0.109777         2.9872
  71   0.0000       0.131479         3.5777

MULLIKEN ATOMIC CHARGES
-----------------------
   0 S :    0.124606
   1 C :   -0.160865
   2 C :   -0.027462
   3 C :   -0.022096
   4 C :   -0.119767
   5 H :    0.019226
   6 C :    0.063171
   7 H :    0.033247
   8 H :    0.027371
   9 C :   -0.132415
  10 H :    0.018855
  11 H :    0.035277
  12 C :   -0.008278
  13 H :    0.040624
  14 H :    0.012359
  15 H :    0.048905
  16 S :    0.090694
  17 C :   -0.069508
  18 C :   -0.043841
  19 C :   -0.081210
  20 C :   -0.147232
  21 H :    0.033922
  22 C :    0.057433
  23 H :    0.045483
  24 H :    0.050924
  25 C :   -0.063188
  26 H :    0.010465
  27 H :    0.017500
  28 C :   -0.064635
  29 H :    0.030769
  30 H :    0.047183
  31 H :    0.036486
  32 H :    0.059485
  33 H :    0.036509
Sum of atomic charges:   -0.0000000

LOEWDIN ATOMIC CHARGES
----------------------
   0 S :    0.415761
   1 C :   -0.204068
   2 C :   -0.065104
   3 C :   -0.055425
   4 C :   -0.190214
   5 H :    0.029375
   6 C :   -0.040653
   7 H :    0.037251
   8 H :    0.030746
   9 C :   -0.053980
  10 H :    0.024282
  11 H :    0.025481
  12 C :   -0.060748
  13 H :    0.033341
  14 H :    0.015103
  15 H :    0.036154
  16 S :    0.393773
  17 C :   -0.174527
  18 C :   -0.074825
  19 C :   -0.059347
  20 C :   -0.188348
  21 H :    0.037309
  22 C :   -0.033825
  23 H :    0.031194
  24 H :    0.038778
  25 C :   -0.049491
  26 H :    0.019675
  27 H :    0.018874
  28 C :   -0.067099
  29 H :    0.021034
  30 H :    0.037246
  31 H :    0.029087
  32 H :    0.029666
  33 H :    0.013524

  Mayer bond orders larger than 0.100000
B(  0-S ,  1-C ) :   1.1463 B(  0-S ,  4-C ) :   1.1383 B(  1-C ,  2-C ) :   1.6074
B(  1-C , 32-H ) :   0.9553 B(  2-C ,  3-C ) :   1.2513 B(  2-C ,  6-C ) :   1.0203
B(  3-C ,  4-C ) :   1.5408 B(  3-C ,  5-H ) :   0.9946 B(  4-C , 20-C ) :   1.0520
B(  6-C ,  7-H ) :   0.9259 B(  6-C ,  8-H ) :   0.9437 B(  6-C ,  9-C ) :   1.0604
B(  9-C , 10-H ) :   0.9517 B(  9-C , 11-H ) :   0.9550 B(  9-C , 12-C ) :   1.0842
B( 12-C , 13-H ) :   0.9727 B( 12-C , 14-H ) :   0.9677 B( 12-C , 15-H ) :   0.9733
B( 16-S , 17-C ) :   1.1590 B( 16-S , 20-C ) :   1.1160 B( 17-C , 18-C ) :   1.6186
B( 17-C , 33-H ) :   0.9718 B( 18-C , 19-C ) :   1.2003 B( 18-C , 21-H ) :   0.9867
B( 19-C , 20-C ) :   1.6403 B( 19-C , 22-C ) :   1.0202 B( 22-C , 23-H ) :   0.9223
B( 22-C , 24-H ) :   0.9469 B( 22-C , 25-C ) :   1.0771 B( 25-C , 26-H ) :   0.9545
B( 25-C , 27-H ) :   0.9448 B( 25-C , 28-C ) :   1.0807 B( 28-C , 29-H ) :   0.9769
B( 28-C , 30-H ) :   0.9734 B( 28-C , 31-H ) :   0.9725

Dispersion correction           -0.013520569
FINAL SINGLE POINT ENERGY     -1339.876864428702

DIPOLE MOMENT
-------------
                                X             Y             Z
Electronic contribution:    -16.91599      12.51084      -7.54679
Nuclear contribution   :     17.32356     -12.62194       7.73189
                        -----------------------------------------
Total Dipole Moment    :      0.40757      -0.11110       0.18510
                        -----------------------------------------
Magnitude (a.u.)       :      0.46122
Magnitude (Debye)      :      1.17232

Rotational constants in cm-1:     0.019360     0.007536     0.006235
Rotational constants in MHz :   580.397019   225.924157   186.916259

                             ****ORCA TERMINATED NORMALLY****
TOTAL RUN TIME: 0 days 0 hours 0 minutes 19 seconds 919 msec
