                         Program Version 4.2.1 -  RELEASE  -
|  1> ! wB97X-D3 SP def2-SVP
|  2> %pal
|  3> nprocs 24
|  4> end
|  5>
|  6> * xyz 0 1
|  7> S 	 -107.442 	 52.1048 	 -88.3313
|  8> C 	 -108.683 	 51.2611 	 -87.3064
|  9> C 	 -109.481 	 52.1581 	 -86.6391
| 10> C 	 -108.924 	 53.501 	 -86.7751
| 11> C 	 -107.886 	 53.6364 	 -87.6553
| 12> H 	 -109.26 	 54.3315 	 -86.1481
| 13> C 	 -110.546 	 51.7979 	 -85.5592
| 14> H 	 -110.712 	 52.682 	 -84.9217
| 15> H 	 -110.204 	 51.0427 	 -84.7474
| 16> C 	 -111.879 	 51.2266 	 -86.1496
| 17> H 	 -111.56 	 50.5575 	 -86.9482
| 18> H 	 -112.385 	 50.5119 	 -85.4983
| 19> C 	 -112.862 	 52.3084 	 -86.6947
| 20> H 	 -112.414 	 52.6463 	 -87.5987
| 21> H 	 -113.817 	 51.8927 	 -86.8863
| 22> H 	 -112.985 	 53.1905 	 -86.0648
| 23> S 	 -105.34 	 54.7306 	 -87.7158
| 24> C 	 -105.165 	 56.4282 	 -88.3246
| 25> C 	 -106.383 	 57.0926 	 -88.3932
| 26> C 	 -107.471 	 56.1388 	 -88.2613
| 27> C 	 -107.137 	 54.8398 	 -88.0106
| 28> H 	 -106.502 	 58.2028 	 -88.5387
| 29> C 	 -108.924 	 56.5564 	 -88.3509
| 30> H 	 -109.453 	 55.593 	 -88.3064
| 31> H 	 -109.041 	 56.9661 	 -89.3507
| 32> C 	 -109.535 	 57.4465 	 -87.2199
| 33> H 	 -109.046 	 58.4058 	 -87.1869
| 34> H 	 -109.457 	 57.0414 	 -86.2126
| 35> C 	 -110.989 	 57.8917 	 -87.5904
| 36> H 	 -111.355 	 58.6285 	 -86.8536
| 37> H 	 -111.576 	 57.0023 	 -87.5302
| 38> H 	 -111.081 	 58.3151 	 -88.5279
| 39> H 	 -108.936 	 50.2109 	 -87.4038
| 40> H 	 -104.196 	 56.9091 	 -88.1915
| 41> *
| 42>
| 43>                          ****END OF INPUT****

CARTESIAN COORDINATES (ANGSTROEM)
---------------------------------
  S    -107.442000   52.104800  -88.331300
  C    -108.683000   51.261100  -87.306400
  C    -109.481000   52.158100  -86.639100
  C    -108.924000   53.501000  -86.775100
  C    -107.886000   53.636400  -87.655300
  H    -109.260000   54.331500  -86.148100
  C    -110.546000   51.797900  -85.559200
  H    -110.712000   52.682000  -84.921700
  H    -110.204000   51.042700  -84.747400
  C    -111.879000   51.226600  -86.149600
  H    -111.560000   50.557500  -86.948200
  H    -112.385000   50.511900  -85.498300
  C    -112.862000   52.308400  -86.694700
  H    -112.414000   52.646300  -87.598700
  H    -113.817000   51.892700  -86.886300
  H    -112.985000   53.190500  -86.064800
  S    -105.340000   54.730600  -87.715800
  C    -105.165000   56.428200  -88.324600
  C    -106.383000   57.092600  -88.393200
  C    -107.471000   56.138800  -88.261300
  C    -107.137000   54.839800  -88.010600
  H    -106.502000   58.202800  -88.538700
  C    -108.924000   56.556400  -88.350900
  H    -109.453000   55.593000  -88.306400
  H    -109.041000   56.966100  -89.350700
  C    -109.535000   57.446500  -87.219900
  H    -109.046000   58.405800  -87.186900
  H    -109.457000   57.041400  -86.212600
  C    -110.989000   57.891700  -87.590400
  H    -111.355000   58.628500  -86.853600
  H    -111.576000   57.002300  -87.530200
  H    -111.081000   58.315100  -88.527900
  H    -108.936000   50.210900  -87.403800
  H    -104.196000   56.909100  -88.191500

 Total Charge           Charge          ....    0
 Multiplicity           Mult            ....    1
 Number of Electrons    NEL             ....  134
 Basis Dimension        Dim             ....  322

ORBITAL ENERGIES
----------------

  NO   OCC          E(Eh)            E(eV)
   0   2.0000     -88.967897     -2420.9395
   1   2.0000     -88.961177     -2420.7567
   2   2.0000     -10.331766      -281.1417
   3   2.0000     -10.330482      -281.1067
   4   2.0000     -10.326370      -280.9948
   5   2.0000     -10.321522      -280.8629
   6   2.0000     -10.310090      -280.5518
   7   2.0000     -10.308619      -280.5118
   8   2.0000     -10.307054      -280.4692
   9   2.0000     -10.305492      -280.4267
  10   2.0000     -10.299004      -280.2501
  11   2.0000     -10.291101      -280.0351
  12   2.0000     -10.290850      -280.0283
  13   2.0000     -10.290683      -280.0237
  14   2.0000     -10.273957      -279.5686
  15   2.0000     -10.273703      -279.5617
  16   2.0000      -8.082032      -219.9233
  17   2.0000      -8.074460      -219.7172
  18   2.0000      -6.040675      -164.3751
  19   2.0000      -6.036628      -164.2650
  20   2.0000      -6.033133      -164.1699
  21   2.0000      -6.032647      -164.1567
  22   2.0000      -6.029501      -164.0711
  23   2.0000      -6.024776      -163.9425
  24   2.0000      -1.001980       -27.2653
  25   2.0000      -0.975175       -26.5359
  26   2.0000      -0.904443       -24.6112
  27   2.0000      -0.902003       -24.5447
  28   2.0000      -0.867417       -23.6036
  29   2.0000      -0.850038       -23.1307
  30   2.0000      -0.839394       -22.8411
  31   2.0000      -0.813250       -22.1297
  32   2.0000      -0.782815       -21.3015
  33   2.0000      -0.770591       -20.9689
  34   2.0000      -0.707703       -19.2576
  35   2.0000      -0.706276       -19.2187
  36   2.0000      -0.695388       -18.9225
  37   2.0000      -0.662748       -18.0343
  38   2.0000      -0.639726       -17.4078
  39   2.0000      -0.612859       -16.6767
  40   2.0000      -0.589023       -16.0281
  41   2.0000      -0.570278       -15.5180
  42   2.0000      -0.566809       -15.4237
  43   2.0000      -0.548983       -14.9386
  44   2.0000      -0.532878       -14.5003
  45   2.0000      -0.525394       -14.2967
  46   2.0000      -0.513547       -13.9743
  47   2.0000      -0.512095       -13.9348
  48   2.0000      -0.507012       -13.7965
  49   2.0000      -0.493700       -13.4343
  50   2.0000      -0.490346       -13.3430
  51   2.0000      -0.479038       -13.0353
  52   2.0000      -0.466546       -12.6954
  53   2.0000      -0.465676       -12.6717
  54   2.0000      -0.458504       -12.4765
  55   2.0000      -0.450416       -12.2564
  56   2.0000      -0.445968       -12.1354
  57   2.0000      -0.442758       -12.0481
  58   2.0000      -0.434364       -11.8196
  59   2.0000      -0.419339       -11.4108
  60   2.0000      -0.417649       -11.3648
  61   2.0000      -0.416119       -11.3232
  62   2.0000      -0.408270       -11.1096
  63   2.0000      -0.347450        -9.4546
  64   2.0000      -0.334728        -9.1084
  65   2.0000      -0.325774        -8.8648
  66   2.0000      -0.298951        -8.1349
  67   0.0000       0.024717         0.6726
  68   0.0000       0.061943         1.6856
  69   0.0000       0.094883         2.5819
  70   0.0000       0.109278         2.9736
  71   0.0000       0.117401         3.1947

MULLIKEN ATOMIC CHARGES
-----------------------
   0 S :    0.106745
   1 C :   -0.116379
   2 C :   -0.062994
   3 C :    0.018602
   4 C :   -0.148755
   5 H :    0.015561
   6 C :   -0.006814
   7 H :    0.025536
   8 H :    0.057411
   9 C :   -0.077967
  10 H :    0.021504
  11 H :    0.023593
  12 C :   -0.018421
  13 H :    0.028030
  14 H :    0.029899
  15 H :    0.028168
  16 S :    0.063495
  17 C :   -0.088946
  18 C :   -0.030942
  19 C :   -0.058547
  20 C :   -0.115833
  21 H :    0.050680
  22 C :    0.037724
  23 H :    0.026531
  24 H :    0.031450
  25 C :   -0.072976
  26 H :    0.017666
  27 H :    0.036607
  28 C :   -0.025850
  29 H :    0.036381
  30 H :    0.023644
  31 H :    0.019417
  32 H :    0.056457
  33 H :    0.069325
Sum of atomic charges:    0.0000000

LOEWDIN ATOMIC CHARGES
----------------------
   0 S :    0.390960
   1 C :   -0.169000
   2 C :   -0.064541
   3 C :   -0.065215
   4 C :   -0.201561
   5 H :    0.031480
   6 C :   -0.037708
   7 H :    0.026870
   8 H :    0.046157
   9 C :   -0.043851
  10 H :    0.023259
  11 H :    0.020234
  12 C :   -0.058438
  13 H :    0.024669
  14 H :    0.022006
  15 H :    0.024417
  16 S :    0.340555
  17 C :   -0.158030
  18 C :   -0.070518
  19 C :   -0.055429
  20 C :   -0.175239
  21 H :    0.045884
  22 C :   -0.034715
  23 H :    0.031379
  24 H :    0.031881
  25 C :   -0.035270
  26 H :    0.017903
  27 H :    0.024054
  28 C :   -0.053313
  29 H :    0.030081
  30 H :    0.020062
  31 H :    0.014419
  32 H :    0.028245
  33 H :    0.028315

  Mayer bond orders larger than 0.100000
B(  0-S ,  1-C ) :   1.1213 B(  0-S ,  4-C ) :   1.1448 B(  1-C ,  2-C ) :   1.6504
B(  1-C , 32-H ) :   0.9617 B(  2-C ,  3-C ) :   1.2128 B(  2-C ,  6-C ) :   1.0044
B(  3-C ,  4-C ) :   1.5991 B(  3-C ,  5-H ) :   0.9881 B(  4-C , 20-C ) :   1.0202
B(  6-C ,  7-H ) :   0.9549 B(  6-C ,  8-H ) :   0.9533 B(  6-C ,  9-C ) :   1.0488
B(  9-C , 10-H ) :   0.9610 B(  9-C , 11-H ) :   0.9622 B(  9-C , 12-C ) :   1.0659
B( 12-C , 13-H ) :   0.9775 B( 12-C , 14-H ) :   0.9764 B( 12-C , 15-H ) :   0.9793
B( 16-S , 17-C ) :   1.1372 B( 16-S , 20-C ) :   1.0977 B( 17-C , 18-C ) :   1.6356
B( 17-C , 33-H ) :   0.9619 B( 18-C , 19-C ) :   1.1950 B( 18-C , 21-H ) :   0.9817
B( 19-C , 20-C ) :   1.6674 B( 19-C , 22-C ) :   1.0429 B( 22-C , 23-H ) :   0.9353
B( 22-C , 24-H ) :   0.9350 B( 22-C , 25-C ) :   1.0568 B( 25-C , 26-H ) :   0.9567
B( 25-C , 27-H ) :   0.9572 B( 25-C , 28-C ) :   1.0764 B( 28-C , 29-H ) :   0.9756
B( 28-C , 30-H ) :   0.9788 B( 28-C , 31-H ) :   0.9765

Dispersion correction           -0.014117862
FINAL SINGLE POINT ENERGY     -1339.863913210941

DIPOLE MOMENT
-------------
                                X             Y             Z
Electronic contribution:     29.99486      -7.66413      -7.29757
Nuclear contribution   :    -30.63479       8.02938       7.65249
                        -----------------------------------------
Total Dipole Moment    :     -0.63993       0.36525       0.35491
                        -----------------------------------------
Magnitude (a.u.)       :      0.81785
Magnitude (Debye)      :      2.07881

Rotational constants in cm-1:     0.017196     0.009356     0.006445
Rotational constants in MHz :   515.513951   280.473890   193.204186

                             ****ORCA TERMINATED NORMALLY****
TOTAL RUN TIME: 0 days 0 hours 0 minutes 21 seconds 665 msec
