                         Program Version 4.2.1 -  RELEASE  -
|  1> ! wB97X-D3 SP def2-SVP
|  2> %pal
|  3> nprocs 24
|  4> end
|  5>
|  6> * xyz 0 1
|  7> S 	 -68.2007 	 18.0098 	 -104.962
|  8> C 	 -69.3487 	 17.4883 	 -106.177
|  9> C 	 -69.0719 	 16.2182 	 -106.6
| 10> C 	 -67.8639 	 15.7158 	 -105.935
| 11> C 	 -67.191 	 16.5919 	 -105.075
| 12> H 	 -67.4455 	 14.7477 	 -106.098
| 13> C 	 -69.7937 	 15.4021 	 -107.649
| 14> H 	 -70.14 	 15.9682 	 -108.472
| 15> H 	 -70.6647 	 15.0942 	 -107.17
| 16> C 	 -69.1462 	 14.0559 	 -108.19
| 17> H 	 -68.1655 	 14.273 	 -108.713
| 18> H 	 -68.9051 	 13.2818 	 -107.462
| 19> C 	 -70.0472 	 13.5891 	 -109.339
| 20> H 	 -69.5856 	 12.646 	 -109.783
| 21> H 	 -70.9581 	 13.1296 	 -108.96
| 22> H 	 -70.297 	 14.3095 	 -110.172
| 23> S 	 -65.6293 	 14.8989 	 -103.469
| 24> C 	 -63.9661 	 15.3478 	 -103.219
| 25> C 	 -63.6852 	 16.6545 	 -103.616
| 26> C 	 -64.8296 	 17.2836 	 -104.249
| 27> C 	 -65.9086 	 16.4171 	 -104.375
| 28> H 	 -62.6612 	 17.0815 	 -103.635
| 29> C 	 -64.7162 	 18.7106 	 -104.781
| 30> H 	 -64.0657 	 19.2052 	 -104.069
| 31> H 	 -65.661 	 19.2454 	 -104.69
| 32> C 	 -64.1028 	 18.78 	 -106.184
| 33> H 	 -63.044 	 18.5762 	 -106.019
| 34> H 	 -64.1599 	 19.8397 	 -106.502
| 35> C 	 -64.8436 	 17.9772 	 -107.243
| 36> H 	 -64.4559 	 18.1619 	 -108.241
| 37> H 	 -65.8929 	 18.4001 	 -107.178
| 38> H 	 -64.8718 	 16.9083 	 -106.982
| 39> H 	 -70.0689 	 18.1705 	 -106.556
| 40> H 	 -63.3668 	 14.6045 	 -102.64
| 41> *
| 42>
| 43>                          ****END OF INPUT****

CARTESIAN COORDINATES (ANGSTROEM)
---------------------------------
  S    -68.200700   18.009800  -104.962000
  C    -69.348700   17.488300  -106.177000
  C    -69.071900   16.218200  -106.600000
  C    -67.863900   15.715800  -105.935000
  C    -67.191000   16.591900  -105.075000
  H    -67.445500   14.747700  -106.098000
  C    -69.793700   15.402100  -107.649000
  H    -70.140000   15.968200  -108.472000
  H    -70.664700   15.094200  -107.170000
  C    -69.146200   14.055900  -108.190000
  H    -68.165500   14.273000  -108.713000
  H    -68.905100   13.281800  -107.462000
  C    -70.047200   13.589100  -109.339000
  H    -69.585600   12.646000  -109.783000
  H    -70.958100   13.129600  -108.960000
  H    -70.297000   14.309500  -110.172000
  S    -65.629300   14.898900  -103.469000
  C    -63.966100   15.347800  -103.219000
  C    -63.685200   16.654500  -103.616000
  C    -64.829600   17.283600  -104.249000
  C    -65.908600   16.417100  -104.375000
  H    -62.661200   17.081500  -103.635000
  C    -64.716200   18.710600  -104.781000
  H    -64.065700   19.205200  -104.069000
  H    -65.661000   19.245400  -104.690000
  C    -64.102800   18.780000  -106.184000
  H    -63.044000   18.576200  -106.019000
  H    -64.159900   19.839700  -106.502000
  C    -64.843600   17.977200  -107.243000
  H    -64.455900   18.161900  -108.241000
  H    -65.892900   18.400100  -107.178000
  H    -64.871800   16.908300  -106.982000
  H    -70.068900   18.170500  -106.556000
  H    -63.366800   14.604500  -102.640000

 Total Charge           Charge          ....    0
 Multiplicity           Mult            ....    1
 Number of Electrons    NEL             ....  134
 Basis Dimension        Dim             ....  322

ORBITAL ENERGIES
----------------

  NO   OCC          E(Eh)            E(eV)
   0   2.0000     -88.966455     -2420.9003
   1   2.0000     -88.961057     -2420.7534
   2   2.0000     -10.332160      -281.1524
   3   2.0000     -10.331477      -281.1338
   4   2.0000     -10.325463      -280.9701
   5   2.0000     -10.310605      -280.5658
   6   2.0000     -10.308030      -280.4958
   7   2.0000     -10.304978      -280.4127
   8   2.0000     -10.303447      -280.3710
   9   2.0000     -10.298414      -280.2341
  10   2.0000     -10.293407      -280.0978
  11   2.0000     -10.289168      -279.9825
  12   2.0000     -10.288281      -279.9584
  13   2.0000     -10.288040      -279.9518
  14   2.0000     -10.283032      -279.8155
  15   2.0000     -10.273311      -279.5510
  16   2.0000      -8.080910      -219.8927
  17   2.0000      -8.075592      -219.7480
  18   2.0000      -6.039349      -164.3390
  19   2.0000      -6.035543      -164.2355
  20   2.0000      -6.034182      -164.1984
  21   2.0000      -6.031677      -164.1303
  22   2.0000      -6.029992      -164.0844
  23   2.0000      -6.026413      -163.9870
  24   2.0000      -1.000864       -27.2349
  25   2.0000      -0.980754       -26.6877
  26   2.0000      -0.909574       -24.7508
  27   2.0000      -0.907535       -24.6953
  28   2.0000      -0.868053       -23.6209
  29   2.0000      -0.845988       -23.0205
  30   2.0000      -0.840021       -22.8581
  31   2.0000      -0.809395       -22.0248
  32   2.0000      -0.782797       -21.3010
  33   2.0000      -0.771866       -21.0035
  34   2.0000      -0.708473       -19.2785
  35   2.0000      -0.695172       -18.9166
  36   2.0000      -0.683259       -18.5924
  37   2.0000      -0.664311       -18.0768
  38   2.0000      -0.639077       -17.3902
  39   2.0000      -0.615441       -16.7470
  40   2.0000      -0.596689       -16.2367
  41   2.0000      -0.569882       -15.5073
  42   2.0000      -0.563631       -15.3372
  43   2.0000      -0.550425       -14.9778
  44   2.0000      -0.547214       -14.8905
  45   2.0000      -0.518935       -14.1209
  46   2.0000      -0.509064       -13.8523
  47   2.0000      -0.506615       -13.7857
  48   2.0000      -0.504579       -13.7303
  49   2.0000      -0.492071       -13.3899
  50   2.0000      -0.489806       -13.3283
  51   2.0000      -0.477260       -12.9869
  52   2.0000      -0.471800       -12.8383
  53   2.0000      -0.464561       -12.6413
  54   2.0000      -0.457234       -12.4420
  55   2.0000      -0.450193       -12.2504
  56   2.0000      -0.444657       -12.0997
  57   2.0000      -0.435796       -11.8586
  58   2.0000      -0.434081       -11.8119
  59   2.0000      -0.420589       -11.4448
  60   2.0000      -0.413754       -11.2588
  61   2.0000      -0.410631       -11.1738
  62   2.0000      -0.407538       -11.0897
  63   2.0000      -0.346031        -9.4160
  64   2.0000      -0.332072        -9.0361
  65   2.0000      -0.323268        -8.7966
  66   2.0000      -0.292681        -7.9643
  67   0.0000       0.026359         0.7173
  68   0.0000       0.078114         2.1256
  69   0.0000       0.101671         2.7666
  70   0.0000       0.125033         3.4023
  71   0.0000       0.131020         3.5652

MULLIKEN ATOMIC CHARGES
-----------------------
   0 S :    0.089086
   1 C :   -0.141754
   2 C :   -0.042547
   3 C :    0.009278
   4 C :   -0.134900
   5 H :   -0.004531
   6 C :    0.095238
   7 H :    0.017105
   8 H :    0.022652
   9 C :   -0.106697
  10 H :    0.043770
  11 H :    0.047985
  12 C :   -0.083280
  13 H :    0.032870
  14 H :    0.025882
  15 H :    0.056814
  16 S :    0.105060
  17 C :   -0.118676
  18 C :   -0.032925
  19 C :   -0.069706
  20 C :   -0.152846
  21 H :    0.042970
  22 C :    0.072509
  23 H :    0.019286
  24 H :    0.025476
  25 C :   -0.071505
  26 H :    0.020412
  27 H :    0.030722
  28 C :   -0.048107
  29 H :    0.038052
  30 H :    0.037479
  31 H :    0.054461
  32 H :    0.040491
  33 H :    0.079875
Sum of atomic charges:    0.0000000

LOEWDIN ATOMIC CHARGES
----------------------
   0 S :    0.406937
   1 C :   -0.193962
   2 C :   -0.056780
   3 C :   -0.066459
   4 C :   -0.195338
   5 H :    0.019638
   6 C :   -0.027208
   7 H :    0.028445
   8 H :    0.030454
   9 C :   -0.043217
  10 H :    0.030452
  11 H :    0.027146
  12 C :   -0.077938
  13 H :    0.032784
  14 H :    0.020789
  15 H :    0.034514
  16 S :    0.394504
  17 C :   -0.186866
  18 C :   -0.076782
  19 C :   -0.048666
  20 C :   -0.191827
  21 H :    0.040131
  22 C :   -0.034079
  23 H :    0.031776
  24 H :    0.020496
  25 C :   -0.042143
  26 H :    0.017517
  27 H :    0.027406
  28 C :   -0.067412
  29 H :    0.024839
  30 H :    0.034604
  31 H :    0.028695
  32 H :    0.022423
  33 H :    0.035128

  Mayer bond orders larger than 0.100000
B(  0-S ,  1-C ) :   1.1363 B(  0-S ,  4-C ) :   1.1458 B(  1-C ,  2-C ) :   1.6050
B(  1-C , 32-H ) :   0.9811 B(  2-C ,  3-C ) :   1.2469 B(  2-C ,  6-C ) :   1.0018
B(  3-C ,  4-C ) :   1.5654 B(  3-C ,  5-H ) :   0.9932 B(  4-C , 20-C ) :   1.0459
B(  6-C ,  7-H ) :   0.9473 B(  6-C ,  8-H ) :   0.9258 B(  6-C ,  9-C ) :   1.0681
B(  9-C , 10-H ) :   0.9588 B(  9-C , 11-H ) :   0.9495 B(  9-C , 12-C ) :   1.0802
B( 12-C , 13-H ) :   0.9703 B( 12-C , 14-H ) :   0.9737 B( 12-C , 15-H ) :   0.9738
B( 16-S , 17-C ) :   1.1649 B( 16-S , 20-C ) :   1.1293 B( 17-C , 18-C ) :   1.5951
B( 17-C , 33-H ) :   0.9630 B( 18-C , 19-C ) :   1.2340 B( 18-C , 21-H ) :   0.9828
B( 19-C , 20-C ) :   1.5982 B( 19-C , 22-C ) :   1.0347 B( 22-C , 23-H ) :   0.9303
B( 22-C , 24-H ) :   0.9331 B( 22-C , 25-C ) :   1.0739 B( 25-C , 26-H ) :   0.9550
B( 25-C , 27-H ) :   0.9543 B( 25-C , 28-C ) :   1.0740 B( 28-C , 29-H ) :   0.9731
B( 28-C , 30-H ) :   0.9682 B( 28-C , 31-H ) :   0.9720

Dispersion correction           -0.015383246
FINAL SINGLE POINT ENERGY     -1339.880829684409

DIPOLE MOMENT
-------------
                                X             Y             Z
Electronic contribution:      1.87427       2.01149      21.80233
Nuclear contribution   :     -1.80018      -2.10258     -22.25147
                        -----------------------------------------
Total Dipole Moment    :      0.07409      -0.09109      -0.44914
                        -----------------------------------------
Magnitude (a.u.)       :      0.46423
Magnitude (Debye)      :      1.17999

Rotational constants in cm-1:     0.020107     0.008258     0.007403
Rotational constants in MHz :   602.788214   247.565880   221.923003

                             ****ORCA TERMINATED NORMALLY****
TOTAL RUN TIME: 0 days 0 hours 0 minutes 21 seconds 22 msec
