                         Program Version 4.2.1 -  RELEASE  -
|  1> ! wB97X-D3 SP def2-SVP
|  2> %pal
|  3> nprocs 24
|  4> end
|  5>
|  6> * xyz 0 1
|  7> S 	 -84.6349 	 -31.6204 	 -78.9883
|  8> C 	 -84.4247 	 -31.3476 	 -80.7305
|  9> C 	 -85.5346 	 -30.7251 	 -81.2602
| 10> C 	 -86.5029 	 -30.4107 	 -80.2237
| 11> C 	 -86.1464 	 -30.7772 	 -78.9184
| 12> H 	 -87.428 	 -29.9058 	 -80.4593
| 13> C 	 -85.8045 	 -30.3795 	 -82.7019
| 14> H 	 -86.6769 	 -30.8742 	 -83.0516
| 15> H 	 -84.9248 	 -30.9197 	 -83.1406
| 16> C 	 -85.744 	 -28.9721 	 -83.2067
| 17> H 	 -85.8263 	 -29.0595 	 -84.306
| 18> H 	 -86.6763 	 -28.4908 	 -82.8578
| 19> C 	 -84.5082 	 -28.1478 	 -82.8417
| 20> H 	 -83.7561 	 -28.6336 	 -83.4646
| 21> H 	 -84.5531 	 -27.0852 	 -83.0223
| 22> H 	 -84.2508 	 -28.2474 	 -81.7482
| 23> S 	 -87.4699 	 -32.2791 	 -76.9748
| 24> C 	 -88.6173 	 -31.4677 	 -75.9032
| 25> C 	 -88.5953 	 -30.0969 	 -76.0226
| 26> C 	 -87.7075 	 -29.6795 	 -77.0402
| 27> C 	 -86.9946 	 -30.7357 	 -77.7151
| 28> H 	 -89.1575 	 -29.5097 	 -75.3458
| 29> C 	 -87.5906 	 -28.2586 	 -77.4401
| 30> H 	 -88.6096 	 -27.8792 	 -77.6354
| 31> H 	 -87.0874 	 -28.0057 	 -78.3594
| 32> C 	 -86.9171 	 -27.3932 	 -76.3591
| 33> H 	 -85.9913 	 -27.786 	 -76.0406
| 34> H 	 -87.5363 	 -27.3326 	 -75.4216
| 35> C 	 -86.5741 	 -25.9289 	 -76.749
| 36> H 	 -85.9851 	 -25.7691 	 -77.6834
| 37> H 	 -86.1233 	 -25.2824 	 -76.0291
| 38> H 	 -87.5483 	 -25.4487 	 -76.8364
| 39> H 	 -83.6347 	 -31.7635 	 -81.3375
| 40> H 	 -89.0984 	 -32.0162 	 -75.1476
| 41> *
| 42>
| 43>                          ****END OF INPUT****

CARTESIAN COORDINATES (ANGSTROEM)
---------------------------------
  S    -84.634900  -31.620400  -78.988300
  C    -84.424700  -31.347600  -80.730500
  C    -85.534600  -30.725100  -81.260200
  C    -86.502900  -30.410700  -80.223700
  C    -86.146400  -30.777200  -78.918400
  H    -87.428000  -29.905800  -80.459300
  C    -85.804500  -30.379500  -82.701900
  H    -86.676900  -30.874200  -83.051600
  H    -84.924800  -30.919700  -83.140600
  C    -85.744000  -28.972100  -83.206700
  H    -85.826300  -29.059500  -84.306000
  H    -86.676300  -28.490800  -82.857800
  C    -84.508200  -28.147800  -82.841700
  H    -83.756100  -28.633600  -83.464600
  H    -84.553100  -27.085200  -83.022300
  H    -84.250800  -28.247400  -81.748200
  S    -87.469900  -32.279100  -76.974800
  C    -88.617300  -31.467700  -75.903200
  C    -88.595300  -30.096900  -76.022600
  C    -87.707500  -29.679500  -77.040200
  C    -86.994600  -30.735700  -77.715100
  H    -89.157500  -29.509700  -75.345800
  C    -87.590600  -28.258600  -77.440100
  H    -88.609600  -27.879200  -77.635400
  H    -87.087400  -28.005700  -78.359400
  C    -86.917100  -27.393200  -76.359100
  H    -85.991300  -27.786000  -76.040600
  H    -87.536300  -27.332600  -75.421600
  C    -86.574100  -25.928900  -76.749000
  H    -85.985100  -25.769100  -77.683400
  H    -86.123300  -25.282400  -76.029100
  H    -87.548300  -25.448700  -76.836400
  H    -83.634700  -31.763500  -81.337500
  H    -89.098400  -32.016200  -75.147600

 Total Charge           Charge          ....    0
 Multiplicity           Mult            ....    1
 Number of Electrons    NEL             ....  134
 Basis Dimension        Dim             ....  322

ORBITAL ENERGIES
----------------

  NO   OCC          E(Eh)            E(eV)
   0   2.0000     -88.966942     -2420.9136
   1   2.0000     -88.965980     -2420.8874
   2   2.0000     -10.335472      -281.2425
   3   2.0000     -10.334457      -281.2149
   4   2.0000     -10.318232      -280.7734
   5   2.0000     -10.318179      -280.7719
   6   2.0000     -10.310132      -280.5530
   7   2.0000     -10.302520      -280.3458
   8   2.0000     -10.295334      -280.1503
   9   2.0000     -10.295056      -280.1427
  10   2.0000     -10.291052      -280.0338
  11   2.0000     -10.289248      -279.9847
  12   2.0000     -10.289179      -279.9828
  13   2.0000     -10.285608      -279.8856
  14   2.0000     -10.279724      -279.7255
  15   2.0000     -10.276040      -279.6253
  16   2.0000      -8.081510      -219.9091
  17   2.0000      -8.080096      -219.8706
  18   2.0000      -6.040138      -164.3605
  19   2.0000      -6.038566      -164.3177
  20   2.0000      -6.035944      -164.2464
  21   2.0000      -6.034581      -164.2093
  22   2.0000      -6.032227      -164.1452
  23   2.0000      -6.031050      -164.1132
  24   2.0000      -1.001499       -27.2522
  25   2.0000      -0.981537       -26.7090
  26   2.0000      -0.918109       -24.9830
  27   2.0000      -0.907375       -24.6909
  28   2.0000      -0.870122       -23.6772
  29   2.0000      -0.848416       -23.0866
  30   2.0000      -0.843108       -22.9421
  31   2.0000      -0.814981       -22.1768
  32   2.0000      -0.786795       -21.4098
  33   2.0000      -0.772475       -21.0201
  34   2.0000      -0.709425       -19.3044
  35   2.0000      -0.698266       -19.0008
  36   2.0000      -0.695344       -18.9213
  37   2.0000      -0.660748       -17.9799
  38   2.0000      -0.635787       -17.3006
  39   2.0000      -0.622518       -16.9396
  40   2.0000      -0.604308       -16.4441
  41   2.0000      -0.571677       -15.5561
  42   2.0000      -0.564491       -15.3606
  43   2.0000      -0.559324       -15.2200
  44   2.0000      -0.546261       -14.8645
  45   2.0000      -0.519460       -14.1352
  46   2.0000      -0.518258       -14.1025
  47   2.0000      -0.510238       -13.8843
  48   2.0000      -0.503852       -13.7105
  49   2.0000      -0.500497       -13.6192
  50   2.0000      -0.492476       -13.4010
  51   2.0000      -0.478407       -13.0181
  52   2.0000      -0.470362       -12.7992
  53   2.0000      -0.465771       -12.6743
  54   2.0000      -0.456234       -12.4148
  55   2.0000      -0.452867       -12.3231
  56   2.0000      -0.445972       -12.1355
  57   2.0000      -0.440640       -11.9904
  58   2.0000      -0.429393       -11.6844
  59   2.0000      -0.421471       -11.4688
  60   2.0000      -0.418184       -11.3794
  61   2.0000      -0.407875       -11.0988
  62   2.0000      -0.405009       -11.0208
  63   2.0000      -0.345816        -9.4101
  64   2.0000      -0.330586        -8.9957
  65   2.0000      -0.328220        -8.9313
  66   2.0000      -0.295421        -8.0388
  67   0.0000       0.028533         0.7764
  68   0.0000       0.063896         1.7387
  69   0.0000       0.114260         3.1092
  70   0.0000       0.121285         3.3003
  71   0.0000       0.122617         3.3366

MULLIKEN ATOMIC CHARGES
-----------------------
   0 S :    0.103619
   1 C :   -0.117977
   2 C :   -0.119722
   3 C :    0.044996
   4 C :   -0.147260
   5 H :    0.007734
   6 C :    0.067889
   7 H :    0.036250
   8 H :    0.004622
   9 C :   -0.064227
  10 H :    0.036924
  11 H :    0.021443
  12 C :   -0.059520
  13 H :    0.027520
  14 H :    0.040489
  15 H :    0.053359
  16 S :    0.097099
  17 C :   -0.081897
  18 C :   -0.008167
  19 C :   -0.017054
  20 C :   -0.144840
  21 H :    0.012580
  22 C :    0.080459
  23 H :    0.026255
  24 H :    0.015682
  25 C :   -0.085732
  26 H :    0.024280
  27 H :    0.028759
  28 C :   -0.062992
  29 H :    0.041463
  30 H :    0.026689
  31 H :    0.016249
  32 H :    0.049672
  33 H :    0.045358
Sum of atomic charges:    0.0000000

LOEWDIN ATOMIC CHARGES
----------------------
   0 S :    0.405693
   1 C :   -0.190302
   2 C :   -0.065749
   3 C :   -0.058933
   4 C :   -0.205795
   5 H :    0.026471
   6 C :   -0.035519
   7 H :    0.032319
   8 H :    0.031381
   9 C :   -0.044258
  10 H :    0.030411
  11 H :    0.018739
  12 C :   -0.068380
  13 H :    0.026738
  14 H :    0.026003
  15 H :    0.035074
  16 S :    0.393569
  17 C :   -0.161993
  18 C :   -0.063925
  19 C :   -0.045706
  20 C :   -0.196919
  21 H :    0.030792
  22 C :   -0.035135
  23 H :    0.034189
  24 H :    0.028571
  25 C :   -0.037211
  26 H :    0.017392
  27 H :    0.026146
  28 C :   -0.075763
  29 H :    0.028490
  30 H :    0.023541
  31 H :    0.022924
  32 H :    0.029208
  33 H :    0.017939

  Mayer bond orders larger than 0.100000
B(  0-S ,  1-C ) :   1.1353 B(  0-S ,  4-C ) :   1.1539 B(  1-C ,  2-C ) :   1.6143
B(  1-C , 32-H ) :   0.9628 B(  2-C ,  3-C ) :   1.2413 B(  2-C ,  6-C ) :   1.0170
B(  3-C ,  4-C ) :   1.5567 B(  3-C ,  5-H ) :   0.9961 B(  4-C , 20-C ) :   1.0350
B(  6-C ,  7-H ) :   0.9376 B(  6-C ,  8-H ) :   0.9333 B(  6-C ,  9-C ) :   1.0782
B(  9-C , 10-H ) :   0.9556 B(  9-C , 11-H ) :   0.9509 B(  9-C , 12-C ) :   1.0658
B( 12-C , 13-H ) :   0.9767 B( 12-C , 14-H ) :   0.9751 B( 12-C , 15-H ) :   0.9739
B( 16-S , 17-C ) :   1.1711 B( 16-S , 20-C ) :   1.1384 B( 17-C , 18-C ) :   1.5859
B( 17-C , 20-C ) :   0.1055 B( 17-C , 33-H ) :   0.9711 B( 18-C , 19-C ) :   1.2506
B( 18-C , 21-H ) :   1.0006 B( 19-C , 20-C ) :   1.5617 B( 19-C , 22-C ) :   1.0582
B( 22-C , 23-H ) :   0.9297 B( 22-C , 24-H ) :   0.9389 B( 22-C , 25-C ) :   1.0464
B( 25-C , 26-H ) :   0.9604 B( 25-C , 27-H ) :   0.9560 B( 25-C , 28-C ) :   1.0805
B( 28-C , 29-H ) :   0.9752 B( 28-C , 30-H ) :   0.9751 B( 28-C , 31-H ) :   0.9741

Dispersion correction           -0.013884581
FINAL SINGLE POINT ENERGY     -1339.874920782548

DIPOLE MOMENT
-------------
                                X             Y             Z
Electronic contribution:     -0.73749     -26.08969      11.89288
Nuclear contribution   :      0.43858      26.55341     -12.15587
                        -----------------------------------------
Total Dipole Moment    :     -0.29891       0.46371      -0.26299
                        -----------------------------------------
Magnitude (a.u.)       :      0.61118
Magnitude (Debye)      :      1.55350

Rotational constants in cm-1:     0.017138     0.008827     0.006677
Rotational constants in MHz :   513.787309   264.611987   200.156493

                             ****ORCA TERMINATED NORMALLY****
TOTAL RUN TIME: 0 days 0 hours 0 minutes 21 seconds 244 msec
