                         Program Version 4.2.1 -  RELEASE  -
|  1> ! wB97X-D3 SP def2-SVP
|  2> %pal
|  3> nprocs 24
|  4> end
|  5>
|  6> * xyz 0 1
|  7> S 	 -76.5096 	 1.71727 	 9.28805
|  8> C 	 -77.5745 	 1.55215 	 10.7217
|  9> C 	 -78.8752 	 1.43498 	 10.268
| 10> C 	 -79.0396 	 1.4867 	 8.81804
| 11> C 	 -77.8404 	 1.7159 	 8.15407
| 12> H 	 -79.9362 	 1.24339 	 8.18536
| 13> C 	 -80.1015 	 1.31533 	 11.159
| 14> H 	 -80.7636 	 2.2004 	 11.027
| 15> H 	 -79.6826 	 1.38289 	 12.1688
| 16> C 	 -80.9308 	 -0.0148471 	 11.1506
| 17> H 	 -81.6182 	 0.143772 	 11.9623
| 18> H 	 -81.3489 	 -0.0402749 	 10.1175
| 19> C 	 -80.1727 	 -1.38758 	 11.3371
| 20> H 	 -80.8675 	 -1.99347 	 11.9481
| 21> H 	 -79.9254 	 -1.92392 	 10.3957
| 22> H 	 -79.2412 	 -1.1476 	 11.9905
| 23> S 	 -77.2105 	 3.37007 	 5.9068
| 24> C 	 -76.9493 	 2.54131 	 4.36469
| 25> C 	 -77.1284 	 1.19375 	 4.46549
| 26> C 	 -77.2653 	 0.737178 	 5.84701
| 27> C 	 -77.5601 	 1.81555 	 6.67831
| 28> H 	 -77.0073 	 0.511705 	 3.6071
| 29> C 	 -77.3161 	 -0.750011 	 6.37486
| 30> H 	 -78.3509 	 -1.08702 	 6.12145
| 31> H 	 -77.277 	 -0.919291 	 7.47544
| 32> C 	 -76.3141 	 -1.68466 	 5.71399
| 33> H 	 -75.2832 	 -1.27336 	 5.79771
| 34> H 	 -76.5478 	 -1.76169 	 4.65828
| 35> C 	 -76.4789 	 -3.05963 	 6.37605
| 36> H 	 -76.4996 	 -2.98289 	 7.48245
| 37> H 	 -75.6204 	 -3.77694 	 6.13608
| 38> H 	 -77.3535 	 -3.50219 	 6.0566
| 39> H 	 -77.3335 	 1.54964 	 11.8097
| 40> H 	 -76.7938 	 3.08297 	 3.43589
| 41> *
| 42>
| 43>                          ****END OF INPUT****

CARTESIAN COORDINATES (ANGSTROEM)
---------------------------------
  S    -76.509600    1.717270    9.288050
  C    -77.574500    1.552150   10.721700
  C    -78.875200    1.434980   10.268000
  C    -79.039600    1.486700    8.818040
  C    -77.840400    1.715900    8.154070
  H    -79.936200    1.243390    8.185360
  C    -80.101500    1.315330   11.159000
  H    -80.763600    2.200400   11.027000
  H    -79.682600    1.382890   12.168800
  C    -80.930800   -0.014847   11.150600
  H    -81.618200    0.143772   11.962300
  H    -81.348900   -0.040275   10.117500
  C    -80.172700   -1.387580   11.337100
  H    -80.867500   -1.993470   11.948100
  H    -79.925400   -1.923920   10.395700
  H    -79.241200   -1.147600   11.990500
  S    -77.210500    3.370070    5.906800
  C    -76.949300    2.541310    4.364690
  C    -77.128400    1.193750    4.465490
  C    -77.265300    0.737178    5.847010
  C    -77.560100    1.815550    6.678310
  H    -77.007300    0.511705    3.607100
  C    -77.316100   -0.750011    6.374860
  H    -78.350900   -1.087020    6.121450
  H    -77.277000   -0.919291    7.475440
  C    -76.314100   -1.684660    5.713990
  H    -75.283200   -1.273360    5.797710
  H    -76.547800   -1.761690    4.658280
  C    -76.478900   -3.059630    6.376050
  H    -76.499600   -2.982890    7.482450
  H    -75.620400   -3.776940    6.136080
  H    -77.353500   -3.502190    6.056600
  H    -77.333500    1.549640   11.809700
  H    -76.793800    3.082970    3.435890

 Total Charge           Charge          ....    0
 Multiplicity           Mult            ....    1
 Number of Electrons    NEL             ....  134
 Basis Dimension        Dim             ....  322

ORBITAL ENERGIES
----------------

  NO   OCC          E(Eh)            E(eV)
   0   2.0000     -88.966630     -2420.9051
   1   2.0000     -88.963629     -2420.8234
   2   2.0000     -10.332646      -281.1656
   3   2.0000     -10.329124      -281.0698
   4   2.0000     -10.321594      -280.8648
   5   2.0000     -10.321208      -280.8544
   6   2.0000     -10.313026      -280.6317
   7   2.0000     -10.303783      -280.3802
   8   2.0000     -10.302087      -280.3341
   9   2.0000     -10.300179      -280.2821
  10   2.0000     -10.300085      -280.2796
  11   2.0000     -10.293598      -280.1031
  12   2.0000     -10.293170      -280.0914
  13   2.0000     -10.291997      -280.0595
  14   2.0000     -10.287762      -279.9442
  15   2.0000     -10.279816      -279.7280
  16   2.0000      -8.080747      -219.8883
  17   2.0000      -8.077463      -219.7989
  18   2.0000      -6.039376      -164.3398
  19   2.0000      -6.036214      -164.2537
  20   2.0000      -6.035459      -164.2332
  21   2.0000      -6.031967      -164.1382
  22   2.0000      -6.031303      -164.1201
  23   2.0000      -6.028121      -164.0335
  24   2.0000      -0.997816       -27.1520
  25   2.0000      -0.977262       -26.5927
  26   2.0000      -0.908642       -24.7254
  27   2.0000      -0.901850       -24.5406
  28   2.0000      -0.862099       -23.4589
  29   2.0000      -0.844545       -22.9812
  30   2.0000      -0.835394       -22.7322
  31   2.0000      -0.813863       -22.1463
  32   2.0000      -0.777906       -21.1679
  33   2.0000      -0.768686       -20.9170
  34   2.0000      -0.700281       -19.0556
  35   2.0000      -0.698213       -18.9993
  36   2.0000      -0.686105       -18.6699
  37   2.0000      -0.650594       -17.7036
  38   2.0000      -0.631479       -17.1834
  39   2.0000      -0.612000       -16.6534
  40   2.0000      -0.598364       -16.2823
  41   2.0000      -0.569157       -15.4875
  42   2.0000      -0.563681       -15.3386
  43   2.0000      -0.548989       -14.9388
  44   2.0000      -0.537019       -14.6130
  45   2.0000      -0.518338       -14.1047
  46   2.0000      -0.512174       -13.9370
  47   2.0000      -0.509868       -13.8742
  48   2.0000      -0.502722       -13.6798
  49   2.0000      -0.493651       -13.4329
  50   2.0000      -0.484620       -13.1872
  51   2.0000      -0.471401       -12.8275
  52   2.0000      -0.463444       -12.6110
  53   2.0000      -0.462993       -12.5987
  54   2.0000      -0.462466       -12.5843
  55   2.0000      -0.453052       -12.3282
  56   2.0000      -0.439821       -11.9681
  57   2.0000      -0.437465       -11.9040
  58   2.0000      -0.434215       -11.8156
  59   2.0000      -0.425616       -11.5816
  60   2.0000      -0.415700       -11.3118
  61   2.0000      -0.413258       -11.2453
  62   2.0000      -0.402498       -10.9525
  63   2.0000      -0.334119        -9.0918
  64   2.0000      -0.325971        -8.8701
  65   2.0000      -0.321378        -8.7451
  66   2.0000      -0.314904        -8.5690
  67   0.0000       0.045281         1.2322
  68   0.0000       0.053492         1.4556
  69   0.0000       0.118109         3.2139
  70   0.0000       0.119473         3.2510
  71   0.0000       0.123767         3.3679

MULLIKEN ATOMIC CHARGES
-----------------------
   0 S :    0.103883
   1 C :   -0.126020
   2 C :   -0.103736
   3 C :    0.027379
   4 C :   -0.179593
   5 H :    0.039595
   6 C :    0.034776
   7 H :    0.051407
   8 H :    0.001160
   9 C :   -0.081676
  10 H :    0.040101
  11 H :    0.037728
  12 C :   -0.088715
  13 H :    0.041614
  14 H :    0.056738
  15 H :    0.041120
  16 S :    0.109412
  17 C :   -0.096772
  18 C :   -0.017706
  19 C :   -0.019412
  20 C :   -0.171584
  21 H :    0.032805
  22 C :    0.013577
  23 H :    0.035807
  24 H :    0.045943
  25 C :   -0.082446
  26 H :    0.046049
  27 H :    0.028444
  28 C :   -0.041860
  29 H :    0.033545
  30 H :    0.043392
  31 H :    0.015438
  32 H :    0.064783
  33 H :    0.064824
Sum of atomic charges:    0.0000000

LOEWDIN ATOMIC CHARGES
----------------------
   0 S :    0.388700
   1 C :   -0.199226
   2 C :   -0.068458
   3 C :   -0.074305
   4 C :   -0.189397
   5 H :    0.043253
   6 C :   -0.040014
   7 H :    0.038485
   8 H :    0.021513
   9 C :   -0.042087
  10 H :    0.024957
  11 H :    0.025988
  12 C :   -0.077448
  13 H :    0.029662
  14 H :    0.031724
  15 H :    0.034086
  16 S :    0.387510
  17 C :   -0.173093
  18 C :   -0.074724
  19 C :   -0.043722
  20 C :   -0.207879
  21 H :    0.035778
  22 C :   -0.035495
  23 H :    0.035450
  24 H :    0.034800
  25 C :   -0.044678
  26 H :    0.029614
  27 H :    0.021218
  28 C :   -0.062108
  29 H :    0.027822
  30 H :    0.034426
  31 H :    0.012959
  32 H :    0.042671
  33 H :    0.032016

  Mayer bond orders larger than 0.100000
B(  0-S ,  1-C ) :   1.1120 B(  0-S ,  4-C ) :   1.1552 B(  1-C ,  2-C ) :   1.6457
B(  1-C , 32-H ) :   0.9593 B(  2-C ,  3-C ) :   1.1951 B(  2-C ,  6-C ) :   1.0290
B(  3-C ,  4-C ) :   1.6249 B(  3-C ,  5-H ) :   0.9828 B(  4-C , 20-C ) :   0.9974
B(  6-C ,  7-H ) :   0.9459 B(  6-C ,  8-H ) :   0.9367 B(  6-C ,  9-C ) :   1.0658
B(  9-C , 10-H ) :   0.9627 B(  9-C , 11-H ) :   0.9596 B(  9-C , 12-C ) :   1.0578
B( 12-C , 13-H ) :   0.9777 B( 12-C , 14-H ) :   0.9767 B( 12-C , 15-H ) :   0.9775
B( 16-S , 17-C ) :   1.1432 B( 16-S , 20-C ) :   1.1324 B( 17-C , 18-C ) :   1.6485
B( 17-C , 33-H ) :   0.9647 B( 18-C , 19-C ) :   1.2099 B( 18-C , 21-H ) :   0.9786
B( 19-C , 20-C ) :   1.6295 B( 19-C , 22-C ) :   1.0176 B( 22-C , 23-H ) :   0.9407
B( 22-C , 24-H ) :   0.9442 B( 22-C , 25-C ) :   1.0544 B( 25-C , 26-H ) :   0.9625
B( 25-C , 27-H ) :   0.9500 B( 25-C , 28-C ) :   1.0801 B( 28-C , 29-H ) :   0.9750
B( 28-C , 30-H ) :   0.9736 B( 28-C , 31-H ) :   0.9745

Dispersion correction           -0.014332453
FINAL SINGLE POINT ENERGY     -1339.869181066061

DIPOLE MOMENT
-------------
                                X             Y             Z
Electronic contribution:      9.85378      25.05927      -7.82926
Nuclear contribution   :    -10.21484     -25.63504       7.76891
                        -----------------------------------------
Total Dipole Moment    :     -0.36107      -0.57577      -0.06035
                        -----------------------------------------
Magnitude (a.u.)       :      0.68229
Magnitude (Debye)      :      1.73424

Rotational constants in cm-1:     0.017384     0.008829     0.006922
Rotational constants in MHz :   521.164630   264.687033   207.504759

                             ****ORCA TERMINATED NORMALLY****
TOTAL RUN TIME: 0 days 0 hours 0 minutes 21 seconds 405 msec
