                         Program Version 4.2.1 -  RELEASE  -
|  1> ! wB97X-D3 SP def2-SVP
|  2> %pal
|  3> nprocs 24
|  4> end
|  5>
|  6> * xyz 0 1
|  7> S 	 -60.7013 	 -56.5274 	 -88.2583
|  8> C 	 -62.2103 	 -55.6457 	 -88.6179
|  9> C 	 -63.2517 	 -56.1395 	 -87.8206
| 10> C 	 -62.8206 	 -57.1943 	 -86.9148
| 11> C 	 -61.4674 	 -57.4978 	 -87.0164
| 12> H 	 -63.4764 	 -57.7429 	 -86.2474
| 13> C 	 -64.651 	 -55.6403 	 -88.1091
| 14> H 	 -65.1546 	 -56.4512 	 -88.5601
| 15> H 	 -64.6054 	 -54.875 	 -88.8858
| 16> C 	 -65.4355 	 -55.0452 	 -86.8311
| 17> H 	 -65.3245 	 -55.5568 	 -85.8872
| 18> H 	 -64.9299 	 -54.0956 	 -86.7806
| 19> C 	 -66.9103 	 -54.6726 	 -87.1621
| 20> H 	 -67.4241 	 -54.0805 	 -86.4488
| 21> H 	 -66.8452 	 -54.0847 	 -88.0734
| 22> H 	 -67.5859 	 -55.4769 	 -87.4782
| 23> S 	 -59.0369 	 -57.8842 	 -85.7402
| 24> C 	 -58.6954 	 -59.3397 	 -84.8709
| 25> C 	 -59.8337 	 -60.1228 	 -84.8537
| 26> C 	 -60.937 	 -59.5974 	 -85.5624
| 27> C 	 -60.6585 	 -58.4404 	 -86.2466
| 28> H 	 -59.8104 	 -61.0272 	 -84.231
| 29> C 	 -62.2685 	 -60.3995 	 -85.5483
| 30> H 	 -62.9719 	 -59.8496 	 -86.2112
| 31> H 	 -62.6798 	 -60.3873 	 -84.443
| 32> C 	 -62.1249 	 -61.8855 	 -86.0483
| 33> H 	 -63.1043 	 -62.3187 	 -86.2029
| 34> H 	 -61.6952 	 -62.4872 	 -85.2044
| 35> C 	 -61.3081 	 -62.1673 	 -87.3309
| 36> H 	 -61.8136 	 -61.6336 	 -88.1411
| 37> H 	 -61.3158 	 -63.3127 	 -87.4874
| 38> H 	 -60.2749 	 -61.7578 	 -87.302
| 39> H 	 -62.2966 	 -54.7887 	 -89.2541
| 40> H 	 -57.7973 	 -59.5877 	 -84.3298
| 41> *
| 42>
| 43>                          ****END OF INPUT****

CARTESIAN COORDINATES (ANGSTROEM)
---------------------------------
  S    -60.701300  -56.527400  -88.258300
  C    -62.210300  -55.645700  -88.617900
  C    -63.251700  -56.139500  -87.820600
  C    -62.820600  -57.194300  -86.914800
  C    -61.467400  -57.497800  -87.016400
  H    -63.476400  -57.742900  -86.247400
  C    -64.651000  -55.640300  -88.109100
  H    -65.154600  -56.451200  -88.560100
  H    -64.605400  -54.875000  -88.885800
  C    -65.435500  -55.045200  -86.831100
  H    -65.324500  -55.556800  -85.887200
  H    -64.929900  -54.095600  -86.780600
  C    -66.910300  -54.672600  -87.162100
  H    -67.424100  -54.080500  -86.448800
  H    -66.845200  -54.084700  -88.073400
  H    -67.585900  -55.476900  -87.478200
  S    -59.036900  -57.884200  -85.740200
  C    -58.695400  -59.339700  -84.870900
  C    -59.833700  -60.122800  -84.853700
  C    -60.937000  -59.597400  -85.562400
  C    -60.658500  -58.440400  -86.246600
  H    -59.810400  -61.027200  -84.231000
  C    -62.268500  -60.399500  -85.548300
  H    -62.971900  -59.849600  -86.211200
  H    -62.679800  -60.387300  -84.443000
  C    -62.124900  -61.885500  -86.048300
  H    -63.104300  -62.318700  -86.202900
  H    -61.695200  -62.487200  -85.204400
  C    -61.308100  -62.167300  -87.330900
  H    -61.813600  -61.633600  -88.141100
  H    -61.315800  -63.312700  -87.487400
  H    -60.274900  -61.757800  -87.302000
  H    -62.296600  -54.788700  -89.254100
  H    -57.797300  -59.587700  -84.329800

 Total Charge           Charge          ....    0
 Multiplicity           Mult            ....    1
 Number of Electrons    NEL             ....  134
 Basis Dimension        Dim             ....  322

ORBITAL ENERGIES
----------------

  NO   OCC          E(Eh)            E(eV)
   0   2.0000     -88.966269     -2420.8952
   1   2.0000     -88.965093     -2420.8632
   2   2.0000     -10.336558      -281.2721
   3   2.0000     -10.331886      -281.1449
   4   2.0000     -10.317799      -280.7616
   5   2.0000     -10.316220      -280.7186
   6   2.0000     -10.309709      -280.5414
   7   2.0000     -10.307782      -280.4890
   8   2.0000     -10.305732      -280.4332
   9   2.0000     -10.301263      -280.3116
  10   2.0000     -10.296824      -280.1908
  11   2.0000     -10.292891      -280.0838
  12   2.0000     -10.292304      -280.0678
  13   2.0000     -10.291967      -280.0587
  14   2.0000     -10.284236      -279.8483
  15   2.0000     -10.277349      -279.6609
  16   2.0000      -8.080323      -219.8768
  17   2.0000      -8.079603      -219.8572
  18   2.0000      -6.038942      -164.3280
  19   2.0000      -6.038170      -164.3070
  20   2.0000      -6.034824      -164.2159
  21   2.0000      -6.034082      -164.1957
  22   2.0000      -6.031104      -164.1147
  23   2.0000      -6.030339      -164.0939
  24   2.0000      -1.006008       -27.3749
  25   2.0000      -0.981107       -26.6973
  26   2.0000      -0.906012       -24.6538
  27   2.0000      -0.898904       -24.4604
  28   2.0000      -0.868765       -23.6403
  29   2.0000      -0.847915       -23.0729
  30   2.0000      -0.838922       -22.8282
  31   2.0000      -0.817431       -22.2434
  32   2.0000      -0.779399       -21.2085
  33   2.0000      -0.770368       -20.9628
  34   2.0000      -0.713706       -19.4209
  35   2.0000      -0.699144       -19.0247
  36   2.0000      -0.690573       -18.7914
  37   2.0000      -0.657898       -17.9023
  38   2.0000      -0.642194       -17.4750
  39   2.0000      -0.619871       -16.8676
  40   2.0000      -0.589759       -16.0481
  41   2.0000      -0.564934       -15.3726
  42   2.0000      -0.561448       -15.2778
  43   2.0000      -0.542858       -14.7719
  44   2.0000      -0.539274       -14.6744
  45   2.0000      -0.526131       -14.3167
  46   2.0000      -0.516547       -14.0559
  47   2.0000      -0.511070       -13.9069
  48   2.0000      -0.505338       -13.7510
  49   2.0000      -0.502883       -13.6841
  50   2.0000      -0.491451       -13.3731
  51   2.0000      -0.478925       -13.0322
  52   2.0000      -0.469627       -12.7792
  53   2.0000      -0.462698       -12.5907
  54   2.0000      -0.456998       -12.4355
  55   2.0000      -0.450447       -12.2573
  56   2.0000      -0.440442       -11.9850
  57   2.0000      -0.439285       -11.9536
  58   2.0000      -0.432544       -11.7701
  59   2.0000      -0.422781       -11.5045
  60   2.0000      -0.419046       -11.4028
  61   2.0000      -0.412428       -11.2227
  62   2.0000      -0.410164       -11.1611
  63   2.0000      -0.354563        -9.6481
  64   2.0000      -0.331270        -9.0143
  65   2.0000      -0.328430        -8.9370
  66   2.0000      -0.290577        -7.9070
  67   0.0000       0.022543         0.6134
  68   0.0000       0.076975         2.0946
  69   0.0000       0.107778         2.9328
  70   0.0000       0.113022         3.0755
  71   0.0000       0.133727         3.6389

MULLIKEN ATOMIC CHARGES
-----------------------
   0 S :    0.100018
   1 C :   -0.119185
   2 C :   -0.100358
   3 C :    0.033166
   4 C :   -0.143196
   5 H :    0.015237
   6 C :    0.063576
   7 H :    0.032321
   8 H :    0.015143
   9 C :   -0.082082
  10 H :    0.044263
  11 H :    0.031817
  12 C :   -0.039610
  13 H :    0.033190
  14 H :    0.012214
  15 H :    0.030103
  16 S :    0.095481
  17 C :   -0.080131
  18 C :   -0.055055
  19 C :   -0.047822
  20 C :   -0.123886
  21 H :    0.025965
  22 C :    0.026127
  23 H :    0.027673
  24 H :    0.063696
  25 C :   -0.098796
  26 H :    0.031694
  27 H :    0.030230
  28 C :   -0.070971
  29 H :    0.036037
  30 H :    0.052866
  31 H :    0.053551
  32 H :    0.048745
  33 H :    0.057982
Sum of atomic charges:    0.0000000

LOEWDIN ATOMIC CHARGES
----------------------
   0 S :    0.391200
   1 C :   -0.191086
   2 C :   -0.054809
   3 C :   -0.068816
   4 C :   -0.184287
   5 H :    0.029363
   6 C :   -0.022300
   7 H :    0.025035
   8 H :    0.029585
   9 C :   -0.034862
  10 H :    0.021125
  11 H :    0.027967
  12 C :   -0.069345
  13 H :    0.021394
  14 H :    0.024628
  15 H :    0.024521
  16 S :    0.400025
  17 C :   -0.186263
  18 C :   -0.078270
  19 C :   -0.062723
  20 C :   -0.189842
  21 H :    0.034616
  22 C :   -0.037621
  23 H :    0.026078
  24 H :    0.049062
  25 C :   -0.051193
  26 H :    0.023888
  27 H :    0.022383
  28 C :   -0.073059
  29 H :    0.025804
  30 H :    0.039240
  31 H :    0.030103
  32 H :    0.025550
  33 H :    0.032911

  Mayer bond orders larger than 0.100000
B(  0-S ,  1-C ) :   1.1189 B(  0-S ,  4-C ) :   1.1556 B(  1-C ,  2-C ) :   1.6128
B(  1-C , 32-H ) :   0.9706 B(  2-C ,  3-C ) :   1.2308 B(  2-C ,  6-C ) :   1.0293
B(  3-C ,  4-C ) :   1.5684 B(  3-C ,  5-H ) :   0.9876 B(  4-C , 20-C ) :   1.0435
B(  6-C ,  7-H ) :   0.9415 B(  6-C ,  8-H ) :   0.9455 B(  6-C ,  9-C ) :   1.0280
B(  9-C , 10-H ) :   0.9707 B(  9-C , 11-H ) :   0.9586 B(  9-C , 12-C ) :   1.0729
B( 12-C , 13-H ) :   0.9773 B( 12-C , 14-H ) :   0.9712 B( 12-C , 15-H ) :   0.9782
B( 16-S , 17-C ) :   1.1587 B( 16-S , 20-C ) :   1.1321 B( 17-C , 18-C ) :   1.5994
B( 17-C , 20-C ) :   0.1011 B( 17-C , 33-H ) :   0.9695 B( 18-C , 19-C ) :   1.2410
B( 18-C , 21-H ) :   0.9902 B( 19-C , 20-C ) :   1.6065 B( 19-C , 22-C ) :   1.0277
B( 22-C , 23-H ) :   0.9360 B( 22-C , 24-H ) :   0.9405 B( 22-C , 25-C ) :   1.0584
B( 25-C , 26-H ) :   0.9581 B( 25-C , 27-H ) :   0.9533 B( 25-C , 28-C ) :   1.0758
B( 28-C , 29-H ) :   0.9761 B( 28-C , 30-H ) :   0.9716 B( 28-C , 31-H ) :   0.9695

Dispersion correction           -0.013813760
FINAL SINGLE POINT ENERGY     -1339.878198932149

DIPOLE MOMENT
-------------
                                X             Y             Z
Electronic contribution:     25.13698       6.60834       0.10466
Nuclear contribution   :    -25.72663      -6.82472       0.11233
                        -----------------------------------------
Total Dipole Moment    :     -0.58965      -0.21638       0.21699
                        -----------------------------------------
Magnitude (a.u.)       :      0.66453
Magnitude (Debye)      :      1.68909

Rotational constants in cm-1:     0.019888     0.007548     0.006349
Rotational constants in MHz :   596.231171   226.279991   190.347404

                             ****ORCA TERMINATED NORMALLY****
TOTAL RUN TIME: 0 days 0 hours 0 minutes 19 seconds 870 msec
