                         Program Version 4.2.1 -  RELEASE  -
|  1> ! wB97X-D3 SP def2-SVP
|  2> %pal
|  3> nprocs 24
|  4> end
|  5>
|  6> * xyz 0 1
|  7> S 	 -148.615 	 15.2995 	 -5.3156
|  8> C 	 -147.501 	 15.3697 	 -6.73728
|  9> C 	 -146.449 	 14.42 	 -6.60078
| 10> C 	 -146.503 	 13.6367 	 -5.41662
| 11> C 	 -147.601 	 13.9784 	 -4.62415
| 12> H 	 -145.771 	 12.8944 	 -5.18988
| 13> C 	 -145.434 	 14.2275 	 -7.67323
| 14> H 	 -144.439 	 14.4014 	 -7.15404
| 15> H 	 -145.514 	 15.0647 	 -8.38283
| 16> C 	 -145.572 	 12.804 	 -8.44518
| 17> H 	 -145.329 	 11.9905 	 -7.71145
| 18> H 	 -146.557 	 12.7806 	 -8.84984
| 19> C 	 -144.766 	 12.7219 	 -9.69613
| 20> H 	 -143.734 	 12.989 	 -9.52109
| 21> H 	 -144.779 	 11.7312 	 -10.0857
| 22> H 	 -145.086 	 13.473 	 -10.3903
| 23> S 	 -148.233 	 14.6619 	 -2.05552
| 24> C 	 -148.467 	 13.3276 	 -0.955299
| 25> C 	 -148.392 	 12.0782 	 -1.56954
| 26> C 	 -148.169 	 12.1709 	 -2.97864
| 27> C 	 -147.931 	 13.4865 	 -3.31963
| 28> H 	 -148.595 	 11.1497 	 -0.919073
| 29> C 	 -147.984 	 10.9838 	 -3.92778
| 30> H 	 -147.065 	 10.5458 	 -3.6399
| 31> H 	 -147.764 	 11.2689 	 -4.92669
| 32> C 	 -148.998 	 9.8866 	 -3.95867
| 33> H 	 -149.994 	 10.2653 	 -4.348
| 34> H 	 -149.127 	 9.59575 	 -2.87529
| 35> C 	 -148.393 	 8.69616 	 -4.80569
| 36> H 	 -149.022 	 7.82834 	 -4.87229
| 37> H 	 -147.393 	 8.38625 	 -4.57073
| 38> H 	 -148.205 	 9.147 	 -5.84928
| 39> H 	 -147.761 	 15.9902 	 -7.58825
| 40> H 	 -148.361 	 13.4893 	 0.0586151
| 41> *
| 42>
| 43>                          ****END OF INPUT****

CARTESIAN COORDINATES (ANGSTROEM)
---------------------------------
  S    -148.615000   15.299500   -5.315600
  C    -147.501000   15.369700   -6.737280
  C    -146.449000   14.420000   -6.600780
  C    -146.503000   13.636700   -5.416620
  C    -147.601000   13.978400   -4.624150
  H    -145.771000   12.894400   -5.189880
  C    -145.434000   14.227500   -7.673230
  H    -144.439000   14.401400   -7.154040
  H    -145.514000   15.064700   -8.382830
  C    -145.572000   12.804000   -8.445180
  H    -145.329000   11.990500   -7.711450
  H    -146.557000   12.780600   -8.849840
  C    -144.766000   12.721900   -9.696130
  H    -143.734000   12.989000   -9.521090
  H    -144.779000   11.731200  -10.085700
  H    -145.086000   13.473000  -10.390300
  S    -148.233000   14.661900   -2.055520
  C    -148.467000   13.327600   -0.955299
  C    -148.392000   12.078200   -1.569540
  C    -148.169000   12.170900   -2.978640
  C    -147.931000   13.486500   -3.319630
  H    -148.595000   11.149700   -0.919073
  C    -147.984000   10.983800   -3.927780
  H    -147.065000   10.545800   -3.639900
  H    -147.764000   11.268900   -4.926690
  C    -148.998000    9.886600   -3.958670
  H    -149.994000   10.265300   -4.348000
  H    -149.127000    9.595750   -2.875290
  C    -148.393000    8.696160   -4.805690
  H    -149.022000    7.828340   -4.872290
  H    -147.393000    8.386250   -4.570730
  H    -148.205000    9.147000   -5.849280
  H    -147.761000   15.990200   -7.588250
  H    -148.361000   13.489300    0.058615

 Total Charge           Charge          ....    0
 Multiplicity           Mult            ....    1
 Number of Electrons    NEL             ....  134
 Basis Dimension        Dim             ....  322

ORBITAL ENERGIES
----------------

  NO   OCC          E(Eh)            E(eV)
   0   2.0000     -88.966315     -2420.8965
   1   2.0000     -88.964714     -2420.8529
   2   2.0000     -10.331684      -281.1394
   3   2.0000     -10.320620      -280.8383
   4   2.0000     -10.318454      -280.7794
   5   2.0000     -10.311447      -280.5887
   6   2.0000     -10.305005      -280.4134
   7   2.0000     -10.303885      -280.3830
   8   2.0000     -10.303163      -280.3633
   9   2.0000     -10.299263      -280.2572
  10   2.0000     -10.297101      -280.1984
  11   2.0000     -10.294964      -280.1402
  12   2.0000     -10.292698      -280.0785
  13   2.0000     -10.286828      -279.9188
  14   2.0000     -10.283162      -279.8191
  15   2.0000     -10.270921      -279.4860
  16   2.0000      -8.081384      -219.9056
  17   2.0000      -8.077839      -219.8092
  18   2.0000      -6.039752      -164.3500
  19   2.0000      -6.036338      -164.2571
  20   2.0000      -6.036013      -164.2483
  21   2.0000      -6.032682      -164.1576
  22   2.0000      -6.032091      -164.1415
  23   2.0000      -6.028612      -164.0469
  24   2.0000      -1.004059       -27.3218
  25   2.0000      -0.972654       -26.4673
  26   2.0000      -0.913721       -24.8636
  27   2.0000      -0.907063       -24.6824
  28   2.0000      -0.869165       -23.6512
  29   2.0000      -0.853480       -23.2244
  30   2.0000      -0.845257       -23.0006
  31   2.0000      -0.812056       -22.0972
  32   2.0000      -0.783240       -21.3131
  33   2.0000      -0.762327       -20.7440
  34   2.0000      -0.706741       -19.2314
  35   2.0000      -0.701947       -19.1010
  36   2.0000      -0.694911       -18.9095
  37   2.0000      -0.654669       -17.8144
  38   2.0000      -0.637980       -17.3603
  39   2.0000      -0.622664       -16.9435
  40   2.0000      -0.602793       -16.4028
  41   2.0000      -0.569850       -15.5064
  42   2.0000      -0.563995       -15.3471
  43   2.0000      -0.550734       -14.9862
  44   2.0000      -0.530707       -14.4413
  45   2.0000      -0.524311       -14.2672
  46   2.0000      -0.515236       -14.0203
  47   2.0000      -0.513880       -13.9834
  48   2.0000      -0.510655       -13.8956
  49   2.0000      -0.493940       -13.4408
  50   2.0000      -0.491751       -13.3812
  51   2.0000      -0.472472       -12.8566
  52   2.0000      -0.468508       -12.7487
  53   2.0000      -0.459943       -12.5157
  54   2.0000      -0.459227       -12.4962
  55   2.0000      -0.449955       -12.2439
  56   2.0000      -0.444724       -12.1015
  57   2.0000      -0.439442       -11.9578
  58   2.0000      -0.434846       -11.8328
  59   2.0000      -0.425411       -11.5760
  60   2.0000      -0.422275       -11.4907
  61   2.0000      -0.416216       -11.3258
  62   2.0000      -0.414225       -11.2716
  63   2.0000      -0.343833        -9.3562
  64   2.0000      -0.333858        -9.0847
  65   2.0000      -0.328260        -8.9324
  66   2.0000      -0.283352        -7.7104
  67   0.0000       0.028318         0.7706
  68   0.0000       0.061105         1.6627
  69   0.0000       0.102902         2.8001
  70   0.0000       0.121376         3.3028
  71   0.0000       0.128420         3.4945

MULLIKEN ATOMIC CHARGES
-----------------------
   0 S :    0.086474
   1 C :   -0.140413
   2 C :   -0.078972
   3 C :    0.044314
   4 C :   -0.150558
   5 H :    0.009147
   6 C :    0.021873
   7 H :    0.043919
   8 H :    0.014533
   9 C :   -0.075923
  10 H :    0.042171
  11 H :    0.031506
  12 C :   -0.010632
  13 H :    0.012946
  14 H :    0.035348
  15 H :    0.023173
  16 S :    0.115470
  17 C :   -0.075261
  18 C :   -0.071464
  19 C :    0.011736
  20 C :   -0.173095
  21 H :    0.055582
  22 C :    0.075926
  23 H :    0.014829
  24 H :    0.004305
  25 C :   -0.089083
  26 H :    0.051668
  27 H :    0.032324
  28 C :   -0.051402
  29 H :    0.042414
  30 H :    0.022365
  31 H :    0.029717
  32 H :    0.056016
  33 H :    0.039047
Sum of atomic charges:    0.0000000

LOEWDIN ATOMIC CHARGES
----------------------
   0 S :    0.356879
   1 C :   -0.191866
   2 C :   -0.059362
   3 C :   -0.061089
   4 C :   -0.161837
   5 H :    0.030088
   6 C :   -0.039544
   7 H :    0.038134
   8 H :    0.027192
   9 C :   -0.033745
  10 H :    0.027759
  11 H :    0.025780
  12 C :   -0.062920
  13 H :    0.020402
  14 H :    0.025829
  15 H :    0.024126
  16 S :    0.406625
  17 C :   -0.179124
  18 C :   -0.073544
  19 C :   -0.049286
  20 C :   -0.202153
  21 H :    0.046984
  22 C :   -0.034584
  23 H :    0.028882
  24 H :    0.022632
  25 C :   -0.039453
  26 H :    0.033888
  27 H :    0.024245
  28 C :   -0.066941
  29 H :    0.023256
  30 H :    0.020905
  31 H :    0.034793
  32 H :    0.025530
  33 H :    0.011520

  Mayer bond orders larger than 0.100000
B(  0-S ,  1-C ) :   1.1138 B(  0-S ,  4-C ) :   1.1481 B(  1-C ,  2-C ) :   1.5941
B(  1-C ,  4-C ) :   0.1046 B(  1-C , 32-H ) :   0.9712 B(  2-C ,  3-C ) :   1.2371
B(  2-C ,  6-C ) :   1.0418 B(  3-C ,  4-C ) :   1.5547 B(  3-C ,  5-H ) :   0.9971
B(  4-C , 20-C ) :   1.0632 B(  6-C ,  7-H ) :   0.9342 B(  6-C ,  8-H ) :   0.9445
B(  6-C ,  9-C ) :   1.0424 B(  9-C , 10-H ) :   0.9560 B(  9-C , 11-H ) :   0.9586
B(  9-C , 12-C ) :   1.0946 B( 12-C , 13-H ) :   0.9700 B( 12-C , 14-H ) :   0.9716
B( 12-C , 15-H ) :   0.9723 B( 16-S , 17-C ) :   1.1468 B( 16-S , 20-C ) :   1.1435
B( 17-C , 18-C ) :   1.6313 B( 17-C , 33-H ) :   0.9712 B( 18-C , 19-C ) :   1.2191
B( 18-C , 21-H ) :   0.9718 B( 19-C , 20-C ) :   1.5966 B( 19-C , 22-C ) :   1.0257
B( 22-C , 23-H ) :   0.9334 B( 22-C , 24-H ) :   0.9257 B( 22-C , 25-C ) :   1.0599
B( 25-C , 26-H ) :   0.9557 B( 25-C , 27-H ) :   0.9562 B( 25-C , 28-C ) :   1.0648
B( 28-C , 29-H ) :   0.9762 B( 28-C , 30-H ) :   0.9756 B( 28-C , 31-H ) :   0.9724

Dispersion correction           -0.013721475
FINAL SINGLE POINT ENERGY     -1339.862953494908

DIPOLE MOMENT
-------------
                                X             Y             Z
Electronic contribution:    -10.46973      22.93276      19.51221
Nuclear contribution   :     10.88577     -23.53656     -19.80549
                        -----------------------------------------
Total Dipole Moment    :      0.41604      -0.60380      -0.29328
                        -----------------------------------------
Magnitude (a.u.)       :      0.78973
Magnitude (Debye)      :      2.00734

Rotational constants in cm-1:     0.016718     0.009024     0.006439
Rotational constants in MHz :   501.195272   270.523359   193.025722

                             ****ORCA TERMINATED NORMALLY****
TOTAL RUN TIME: 0 days 0 hours 0 minutes 21 seconds 167 msec
