                         Program Version 4.2.1 -  RELEASE  -
|  1> ! wB97X-D3 SP def2-SVP
|  2> %pal
|  3> nprocs 24
|  4> end
|  5>
|  6> * xyz 0 1
|  7> S 	 -104.929 	 18.2645 	 -115.461
|  8> C 	 -105.183 	 16.5703 	 -115.273
|  9> C 	 -104.69 	 15.9284 	 -116.375
| 10> C 	 -104.601 	 16.7866 	 -117.516
| 11> C 	 -104.893 	 18.1306 	 -117.194
| 12> H 	 -104.333 	 16.5523 	 -118.496
| 13> C 	 -104.499 	 14.4541 	 -116.488
| 14> H 	 -104.005 	 14.3632 	 -117.461
| 15> H 	 -105.546 	 14.1061 	 -116.417
| 16> C 	 -103.803 	 13.6947 	 -115.395
| 17> H 	 -104.439 	 13.7608 	 -114.476
| 18> H 	 -103.958 	 12.688 	 -115.654
| 19> C 	 -102.343 	 13.9521 	 -115.161
| 20> H 	 -101.747 	 13.8386 	 -116.09
| 21> H 	 -102.195 	 14.9898 	 -114.796
| 22> H 	 -102.028 	 13.1593 	 -114.439
| 23> S 	 -104.103 	 20.7372 	 -117.658
| 24> C 	 -104.512 	 21.4042 	 -119.145
| 25> C 	 -105.266 	 20.5552 	 -119.951
| 26> C 	 -105.526 	 19.2984 	 -119.323
| 27> C 	 -104.902 	 19.2222 	 -118.123
| 28> H 	 -105.684 	 20.7958 	 -120.881
| 29> C 	 -106.576 	 18.3161 	 -119.908
| 30> H 	 -107.332 	 18.8016 	 -120.389
| 31> H 	 -107.155 	 17.8101 	 -119.1
| 32> C 	 -106.031 	 17.2944 	 -120.948
| 33> H 	 -106.904 	 16.9583 	 -121.496
| 34> H 	 -105.691 	 16.3864 	 -120.562
| 35> C 	 -105.08 	 17.7809 	 -121.917
| 36> H 	 -104.085 	 18.089 	 -121.488
| 37> H 	 -105.539 	 18.7127 	 -122.295
| 38> H 	 -104.873 	 17.1616 	 -122.774
| 39> H 	 -105.288 	 15.9778 	 -114.33
| 40> H 	 -104.251 	 22.4052 	 -119.365
| 41> *
| 42>
| 43>                          ****END OF INPUT****

CARTESIAN COORDINATES (ANGSTROEM)
---------------------------------
  S    -104.929000   18.264500  -115.461000
  C    -105.183000   16.570300  -115.273000
  C    -104.690000   15.928400  -116.375000
  C    -104.601000   16.786600  -117.516000
  C    -104.893000   18.130600  -117.194000
  H    -104.333000   16.552300  -118.496000
  C    -104.499000   14.454100  -116.488000
  H    -104.005000   14.363200  -117.461000
  H    -105.546000   14.106100  -116.417000
  C    -103.803000   13.694700  -115.395000
  H    -104.439000   13.760800  -114.476000
  H    -103.958000   12.688000  -115.654000
  C    -102.343000   13.952100  -115.161000
  H    -101.747000   13.838600  -116.090000
  H    -102.195000   14.989800  -114.796000
  H    -102.028000   13.159300  -114.439000
  S    -104.103000   20.737200  -117.658000
  C    -104.512000   21.404200  -119.145000
  C    -105.266000   20.555200  -119.951000
  C    -105.526000   19.298400  -119.323000
  C    -104.902000   19.222200  -118.123000
  H    -105.684000   20.795800  -120.881000
  C    -106.576000   18.316100  -119.908000
  H    -107.332000   18.801600  -120.389000
  H    -107.155000   17.810100  -119.100000
  C    -106.031000   17.294400  -120.948000
  H    -106.904000   16.958300  -121.496000
  H    -105.691000   16.386400  -120.562000
  C    -105.080000   17.780900  -121.917000
  H    -104.085000   18.089000  -121.488000
  H    -105.539000   18.712700  -122.295000
  H    -104.873000   17.161600  -122.774000
  H    -105.288000   15.977800  -114.330000
  H    -104.251000   22.405200  -119.365000

 Total Charge           Charge          ....    0
 Multiplicity           Mult            ....    1
 Number of Electrons    NEL             ....  134
 Basis Dimension        Dim             ....  322

ORBITAL ENERGIES
----------------

  NO   OCC          E(Eh)            E(eV)
   0   2.0000     -88.965565     -2420.8761
   1   2.0000     -88.962155     -2420.7833
   2   2.0000     -10.325003      -280.9576
   3   2.0000     -10.321680      -280.8672
   4   2.0000     -10.312428      -280.6154
   5   2.0000     -10.306508      -280.4543
   6   2.0000     -10.300270      -280.2846
   7   2.0000     -10.292994      -280.0866
   8   2.0000     -10.292193      -280.0648
   9   2.0000     -10.289791      -279.9995
  10   2.0000     -10.288006      -279.9509
  11   2.0000     -10.287241      -279.9301
  12   2.0000     -10.282327      -279.7963
  13   2.0000     -10.282037      -279.7884
  14   2.0000     -10.274592      -279.5859
  15   2.0000     -10.273337      -279.5517
  16   2.0000      -8.081673      -219.9135
  17   2.0000      -8.077488      -219.7996
  18   2.0000      -6.040055      -164.3582
  19   2.0000      -6.036063      -164.2496
  20   2.0000      -6.036019      -164.2484
  21   2.0000      -6.032436      -164.1509
  22   2.0000      -6.032233      -164.1454
  23   2.0000      -6.027875      -164.0268
  24   2.0000      -1.012315       -27.5465
  25   2.0000      -0.990655       -26.9571
  26   2.0000      -0.919759       -25.0279
  27   2.0000      -0.917570       -24.9683
  28   2.0000      -0.873081       -23.7577
  29   2.0000      -0.859219       -23.3805
  30   2.0000      -0.847688       -23.0668
  31   2.0000      -0.809978       -22.0406
  32   2.0000      -0.791302       -21.5324
  33   2.0000      -0.775656       -21.1067
  34   2.0000      -0.707636       -19.2558
  35   2.0000      -0.703281       -19.1372
  36   2.0000      -0.692291       -18.8382
  37   2.0000      -0.671048       -18.2601
  38   2.0000      -0.634692       -17.2708
  39   2.0000      -0.607829       -16.5399
  40   2.0000      -0.596033       -16.2189
  41   2.0000      -0.575094       -15.6491
  42   2.0000      -0.563613       -15.3367
  43   2.0000      -0.556605       -15.1460
  44   2.0000      -0.551894       -15.0178
  45   2.0000      -0.541144       -14.7253
  46   2.0000      -0.517187       -14.0734
  47   2.0000      -0.508635       -13.8407
  48   2.0000      -0.506192       -13.7742
  49   2.0000      -0.499756       -13.5990
  50   2.0000      -0.488831       -13.3018
  51   2.0000      -0.482154       -13.1201
  52   2.0000      -0.476435       -12.9645
  53   2.0000      -0.470547       -12.8042
  54   2.0000      -0.460633       -12.5345
  55   2.0000      -0.450395       -12.2559
  56   2.0000      -0.446723       -12.1559
  57   2.0000      -0.440862       -11.9965
  58   2.0000      -0.430480       -11.7140
  59   2.0000      -0.425363       -11.5747
  60   2.0000      -0.419577       -11.4173
  61   2.0000      -0.409017       -11.1299
  62   2.0000      -0.406079       -11.0500
  63   2.0000      -0.352702        -9.5975
  64   2.0000      -0.334176        -9.0934
  65   2.0000      -0.320138        -8.7114
  66   2.0000      -0.281853        -7.6696
  67   0.0000       0.023997         0.6530
  68   0.0000       0.071400         1.9429
  69   0.0000       0.105133         2.8608
  70   0.0000       0.121064         3.2943
  71   0.0000       0.132092         3.5944

MULLIKEN ATOMIC CHARGES
-----------------------
   0 S :    0.108899
   1 C :   -0.126073
   2 C :   -0.102477
   3 C :    0.031620
   4 C :   -0.133453
   5 H :   -0.017556
   6 C :    0.053242
   7 H :    0.018951
   8 H :    0.048658
   9 C :   -0.061254
  10 H :    0.015758
  11 H :    0.009583
  12 C :   -0.045030
  13 H :    0.033286
  14 H :    0.048583
  15 H :    0.044713
  16 S :    0.116573
  17 C :   -0.069538
  18 C :   -0.006632
  19 C :   -0.053224
  20 C :   -0.166181
  21 H :   -0.006514
  22 C :    0.105169
  23 H :   -0.002752
  24 H :    0.040864
  25 C :   -0.040959
  26 H :    0.011909
  27 H :    0.004400
  28 C :   -0.049823
  29 H :    0.042584
  30 H :    0.007609
  31 H :    0.035200
  32 H :    0.059402
  33 H :    0.044462
Sum of atomic charges:    0.0000000

LOEWDIN ATOMIC CHARGES
----------------------
   0 S :    0.411845
   1 C :   -0.222347
   2 C :   -0.067976
   3 C :   -0.057063
   4 C :   -0.189054
   5 H :    0.017978
   6 C :   -0.037954
   7 H :    0.029893
   8 H :    0.048215
   9 C :   -0.051001
  10 H :    0.025024
  11 H :    0.020240
  12 C :   -0.067658
  13 H :    0.028334
  14 H :    0.030901
  15 H :    0.034789
  16 S :    0.420417
  17 C :   -0.193432
  18 C :   -0.062788
  19 C :   -0.054072
  20 C :   -0.189147
  21 H :    0.019008
  22 C :   -0.016169
  23 H :    0.017710
  24 H :    0.043308
  25 C :   -0.043659
  26 H :    0.026731
  27 H :    0.009144
  28 C :   -0.067530
  29 H :    0.030106
  30 H :    0.022981
  31 H :    0.026126
  32 H :    0.037146
  33 H :    0.019956

  Mayer bond orders larger than 0.100000
B(  0-S ,  1-C ) :   1.1308 B(  0-S ,  4-C ) :   1.1542 B(  1-C ,  2-C ) :   1.5922
B(  1-C ,  4-C ) :   0.1005 B(  1-C , 32-H ) :   0.9631 B(  2-C ,  3-C ) :   1.2387
B(  2-C ,  6-C ) :   1.0165 B(  3-C ,  4-C ) :   1.5207 B(  3-C ,  5-H ) :   1.0119
B(  4-C , 20-C ) :   1.0891 B(  6-C ,  7-H ) :   0.9415 B(  6-C ,  8-H ) :   0.9303
B(  6-C ,  9-C ) :   1.0971 B(  9-C , 10-H ) :   0.9420 B(  9-C , 11-H ) :   0.9442
B(  9-C , 12-C ) :   1.0786 B( 12-C , 13-H ) :   0.9715 B( 12-C , 14-H ) :   0.9739
B( 12-C , 15-H ) :   0.9720 B( 16-S , 17-C ) :   1.1742 B( 16-S , 20-C ) :   1.1261
B( 17-C , 18-C ) :   1.5796 B( 17-C , 33-H ) :   0.9748 B( 18-C , 19-C ) :   1.2389
B( 18-C , 21-H ) :   0.9987 B( 19-C , 20-C ) :   1.6236 B( 19-C , 22-C ) :   1.0348
B( 22-C , 23-H ) :   0.9345 B( 22-C , 24-H ) :   0.9356 B( 22-C , 25-C ) :   1.0656
B( 25-C , 26-H ) :   0.9457 B( 25-C , 27-H ) :   0.9480 B( 25-C , 28-C ) :   1.1073
B( 28-C , 29-H ) :   0.9608 B( 28-C , 30-H ) :   0.9679 B( 28-C , 31-H ) :   0.9685

Dispersion correction           -0.014872839
FINAL SINGLE POINT ENERGY     -1339.851977041594

DIPOLE MOMENT
-------------
                                X             Y             Z
Electronic contribution:     -0.64084      22.95827      10.96710
Nuclear contribution   :      0.50130     -23.49057     -11.37765
                        -----------------------------------------
Total Dipole Moment    :     -0.13954      -0.53230      -0.41055
                        -----------------------------------------
Magnitude (a.u.)       :      0.68656
Magnitude (Debye)      :      1.74509

Rotational constants in cm-1:     0.020959     0.008535     0.006754
Rotational constants in MHz :   628.343059   255.879630   202.491163

                             ****ORCA TERMINATED NORMALLY****
TOTAL RUN TIME: 0 days 0 hours 0 minutes 22 seconds 237 msec
