                         Program Version 4.2.1 -  RELEASE  -
|  1> ! wB97X-D3 SP def2-SVP
|  2> %pal
|  3> nprocs 24
|  4> end
|  5>
|  6> * xyz 0 1
|  7> S 	 -108.385 	 3.39302 	 -114.54
|  8> C 	 -108.755 	 3.57932 	 -116.251
|  9> C 	 -107.647 	 3.38191 	 -117.072
| 10> C 	 -106.471 	 3.20168 	 -116.299
| 11> C 	 -106.648 	 3.22131 	 -114.908
| 12> H 	 -105.477 	 3.11726 	 -116.683
| 13> C 	 -107.598 	 3.35543 	 -118.592
| 14> H 	 -107.809 	 2.35191 	 -118.881
| 15> H 	 -106.606 	 3.50577 	 -118.915
| 16> C 	 -108.589 	 4.19101 	 -119.376
| 17> H 	 -109.654 	 3.98977 	 -119.206
| 18> H 	 -108.41 	 5.25359 	 -119.253
| 19> C 	 -108.444 	 3.89868 	 -120.911
| 20> H 	 -108.969 	 4.70792 	 -121.404
| 21> H 	 -107.394 	 3.9176 	 -121.262
| 22> H 	 -108.986 	 2.99698 	 -121.251
| 23> S 	 -105.093 	 4.28774 	 -112.912
| 24> C 	 -104.323 	 3.27932 	 -111.765
| 25> C 	 -104.289 	 1.94 	 -112.174
| 26> C 	 -105.047 	 1.77094 	 -113.387
| 27> C 	 -105.68 	 2.97409 	 -113.857
| 28> H 	 -103.746 	 1.30249 	 -111.548
| 29> C 	 -105.235 	 0.439757 	 -114.056
| 30> H 	 -104.628 	 -0.219299 	 -113.532
| 31> H 	 -104.959 	 0.508565 	 -115.067
| 32> C 	 -106.708 	 -0.0889269 	 -114.017
| 33> H 	 -106.861 	 -0.739443 	 -114.811
| 34> H 	 -107.376 	 0.755222 	 -114.208
| 35> C 	 -107.085 	 -0.69582 	 -112.596
| 36> H 	 -107.2 	 0.123887 	 -111.824
| 37> H 	 -106.499 	 -1.5569 	 -112.226
| 38> H 	 -108.065 	 -1.1039 	 -112.706
| 39> H 	 -109.75 	 3.53828 	 -116.738
| 40> H 	 -103.728 	 3.68328 	 -110.935
| 41> *
| 42>
| 43>                          ****END OF INPUT****

CARTESIAN COORDINATES (ANGSTROEM)
---------------------------------
  S    -108.385000    3.393020  -114.540000
  C    -108.755000    3.579320  -116.251000
  C    -107.647000    3.381910  -117.072000
  C    -106.471000    3.201680  -116.299000
  C    -106.648000    3.221310  -114.908000
  H    -105.477000    3.117260  -116.683000
  C    -107.598000    3.355430  -118.592000
  H    -107.809000    2.351910  -118.881000
  H    -106.606000    3.505770  -118.915000
  C    -108.589000    4.191010  -119.376000
  H    -109.654000    3.989770  -119.206000
  H    -108.410000    5.253590  -119.253000
  C    -108.444000    3.898680  -120.911000
  H    -108.969000    4.707920  -121.404000
  H    -107.394000    3.917600  -121.262000
  H    -108.986000    2.996980  -121.251000
  S    -105.093000    4.287740  -112.912000
  C    -104.323000    3.279320  -111.765000
  C    -104.289000    1.940000  -112.174000
  C    -105.047000    1.770940  -113.387000
  C    -105.680000    2.974090  -113.857000
  H    -103.746000    1.302490  -111.548000
  C    -105.235000    0.439757  -114.056000
  H    -104.628000   -0.219299  -113.532000
  H    -104.959000    0.508565  -115.067000
  C    -106.708000   -0.088927  -114.017000
  H    -106.861000   -0.739443  -114.811000
  H    -107.376000    0.755222  -114.208000
  C    -107.085000   -0.695820  -112.596000
  H    -107.200000    0.123887  -111.824000
  H    -106.499000   -1.556900  -112.226000
  H    -108.065000   -1.103900  -112.706000
  H    -109.750000    3.538280  -116.738000
  H    -103.728000    3.683280  -110.935000

 Total Charge           Charge          ....    0
 Multiplicity           Mult            ....    1
 Number of Electrons    NEL             ....  134
 Basis Dimension        Dim             ....  322

ORBITAL ENERGIES
----------------

  NO   OCC          E(Eh)            E(eV)
   0   2.0000     -88.970030     -2420.9976
   1   2.0000     -88.963417     -2420.8176
   2   2.0000     -10.332850      -281.1711
   3   2.0000     -10.322600      -280.8922
   4   2.0000     -10.317524      -280.7541
   5   2.0000     -10.315249      -280.6922
   6   2.0000     -10.307651      -280.4855
   7   2.0000     -10.302097      -280.3343
   8   2.0000     -10.295385      -280.1517
   9   2.0000     -10.292932      -280.0849
  10   2.0000     -10.291688      -280.0511
  11   2.0000     -10.289531      -279.9924
  12   2.0000     -10.283926      -279.8399
  13   2.0000     -10.278078      -279.6807
  14   2.0000     -10.276840      -279.6470
  15   2.0000     -10.274751      -279.5902
  16   2.0000      -8.083187      -219.9547
  17   2.0000      -8.079161      -219.8452
  18   2.0000      -6.041743      -164.4042
  19   2.0000      -6.037881      -164.2991
  20   2.0000      -6.037373      -164.2853
  21   2.0000      -6.033988      -164.1932
  22   2.0000      -6.033308      -164.1747
  23   2.0000      -6.030407      -164.0957
  24   2.0000      -1.002936       -27.2913
  25   2.0000      -0.981381       -26.7047
  26   2.0000      -0.914612       -24.8878
  27   2.0000      -0.901548       -24.5324
  28   2.0000      -0.867743       -23.6125
  29   2.0000      -0.849432       -23.1142
  30   2.0000      -0.838771       -22.8241
  31   2.0000      -0.811013       -22.0688
  32   2.0000      -0.784152       -21.3379
  33   2.0000      -0.768164       -20.9028
  34   2.0000      -0.711834       -19.3700
  35   2.0000      -0.705121       -19.1873
  36   2.0000      -0.687285       -18.7020
  37   2.0000      -0.658934       -17.9305
  38   2.0000      -0.638840       -17.3837
  39   2.0000      -0.617014       -16.7898
  40   2.0000      -0.589139       -16.0313
  41   2.0000      -0.578316       -15.7368
  42   2.0000      -0.570378       -15.5208
  43   2.0000      -0.548532       -14.9263
  44   2.0000      -0.537586       -14.6285
  45   2.0000      -0.522608       -14.2209
  46   2.0000      -0.513878       -13.9833
  47   2.0000      -0.511143       -13.9089
  48   2.0000      -0.502186       -13.6652
  49   2.0000      -0.494674       -13.4608
  50   2.0000      -0.483634       -13.1604
  51   2.0000      -0.476214       -12.9584
  52   2.0000      -0.471377       -12.8268
  53   2.0000      -0.469405       -12.7732
  54   2.0000      -0.460409       -12.5284
  55   2.0000      -0.444772       -12.1029
  56   2.0000      -0.438440       -11.9306
  57   2.0000      -0.436987       -11.8910
  58   2.0000      -0.430705       -11.7201
  59   2.0000      -0.428187       -11.6516
  60   2.0000      -0.423203       -11.5159
  61   2.0000      -0.422049       -11.4845
  62   2.0000      -0.412492       -11.2245
  63   2.0000      -0.336481        -9.1561
  64   2.0000      -0.328336        -8.9345
  65   2.0000      -0.319340        -8.6897
  66   2.0000      -0.300538        -8.1781
  67   0.0000       0.034795         0.9468
  68   0.0000       0.051800         1.4096
  69   0.0000       0.113486         3.0881
  70   0.0000       0.119568         3.2536
  71   0.0000       0.135804         3.6954

MULLIKEN ATOMIC CHARGES
-----------------------
   0 S :    0.119879
   1 C :   -0.118744
   2 C :   -0.099456
   3 C :    0.059070
   4 C :   -0.187947
   5 H :    0.003084
   6 C :    0.126930
   7 H :    0.023693
   8 H :    0.005654
   9 C :   -0.094488
  10 H :    0.034521
  11 H :    0.038628
  12 C :   -0.082705
  13 H :    0.028460
  14 H :    0.038661
  15 H :    0.041854
  16 S :    0.131162
  17 C :   -0.117788
  18 C :   -0.024042
  19 C :   -0.042927
  20 C :   -0.193545
  21 H :    0.001446
  22 C :    0.163603
  23 H :   -0.010060
  24 H :    0.013386
  25 C :   -0.055690
  26 H :    0.009780
  27 H :    0.032847
  28 C :   -0.077837
  29 H :    0.050927
  30 H :    0.036844
  31 H :    0.021988
  32 H :    0.056357
  33 H :    0.066456
Sum of atomic charges:    0.0000000

LOEWDIN ATOMIC CHARGES
----------------------
   0 S :    0.403660
   1 C :   -0.204674
   2 C :   -0.063497
   3 C :   -0.052098
   4 C :   -0.191905
   5 H :    0.028001
   6 C :   -0.028439
   7 H :    0.034341
   8 H :    0.025470
   9 C :   -0.037285
  10 H :    0.026708
  11 H :    0.024512
  12 C :   -0.068466
  13 H :    0.025723
  14 H :    0.025611
  15 H :    0.026613
  16 S :    0.447180
  17 C :   -0.200825
  18 C :   -0.072493
  19 C :   -0.038635
  20 C :   -0.235794
  21 H :    0.025291
  22 C :   -0.022449
  23 H :    0.017847
  24 H :    0.025262
  25 C :   -0.025671
  26 H :    0.011590
  27 H :    0.020007
  28 C :   -0.074056
  29 H :    0.034887
  30 H :    0.024540
  31 H :    0.021041
  32 H :    0.035719
  33 H :    0.032282

  Mayer bond orders larger than 0.100000
B(  0-S ,  1-C ) :   1.1387 B(  0-S ,  4-C ) :   1.1419 B(  1-C ,  2-C ) :   1.6212
B(  1-C ,  4-C ) :   0.1017 B(  1-C , 32-H ) :   0.9557 B(  2-C ,  3-C ) :   1.2488
B(  2-C ,  6-C ) :   1.0102 B(  3-C ,  4-C ) :   1.5821 B(  3-C ,  5-H ) :   0.9969
B(  4-C , 20-C ) :   1.0377 B(  6-C ,  7-H ) :   0.9245 B(  6-C ,  8-H ) :   0.9416
B(  6-C ,  9-C ) :   1.0740 B(  9-C , 10-H ) :   0.9500 B(  9-C , 11-H ) :   0.9624
B(  9-C , 12-C ) :   1.0800 B( 12-C , 13-H ) :   0.9749 B( 12-C , 14-H ) :   0.9763
B( 12-C , 15-H ) :   0.9772 B( 16-S , 17-C ) :   1.2045 B( 16-S , 20-C ) :   1.1739
B( 17-C , 18-C ) :   1.5525 B( 17-C , 20-C ) :   0.1089 B( 17-C , 33-H ) :   0.9627
B( 18-C , 19-C ) :   1.2697 B( 18-C , 21-H ) :   1.0071 B( 19-C , 20-C ) :   1.5109
B( 19-C , 22-C ) :   1.0554 B( 22-C , 23-H ) :   0.9276 B( 22-C , 24-H ) :   0.9250
B( 22-C , 25-C ) :   1.0687 B( 25-C , 26-H ) :   0.9571 B( 25-C , 27-H ) :   0.9566
B( 25-C , 28-C ) :   1.0681 B( 28-C , 29-H ) :   0.9767 B( 28-C , 30-H ) :   0.9773
B( 28-C , 31-H ) :   0.9742

Dispersion correction           -0.014715926
FINAL SINGLE POINT ENERGY     -1339.870557621116

DIPOLE MOMENT
-------------
                                X             Y             Z
Electronic contribution:      5.76081      12.75078      18.56234
Nuclear contribution   :     -5.66589     -13.12668     -19.11736
                        -----------------------------------------
Total Dipole Moment    :      0.09493      -0.37589      -0.55502
                        -----------------------------------------
Magnitude (a.u.)       :      0.67702
Magnitude (Debye)      :      1.72085

Rotational constants in cm-1:     0.023402     0.007246     0.006524
Rotational constants in MHz :   701.588479   217.229694   195.591603

                             ****ORCA TERMINATED NORMALLY****
TOTAL RUN TIME: 0 days 0 hours 0 minutes 21 seconds 593 msec
