                         Program Version 4.2.1 -  RELEASE  -
|  1> ! wB97X-D3 SP def2-SVP
|  2> %pal
|  3> nprocs 24
|  4> end
|  5>
|  6> * xyz 0 1
|  7> S 	 -132.208 	 8.75028 	 -9.40155
|  8> C 	 -131.244 	 7.35173 	 -9.68184
|  9> C 	 -129.953 	 7.72407 	 -9.83088
| 10> C 	 -129.728 	 9.11512 	 -9.86284
| 11> C 	 -130.883 	 9.8362 	 -9.79735
| 12> H 	 -128.774 	 9.58128 	 -10.0303
| 13> C 	 -128.767 	 6.83064 	 -9.96927
| 14> H 	 -128.23 	 7.33088 	 -10.7999
| 15> H 	 -128.958 	 5.78271 	 -10.2758
| 16> C 	 -127.694 	 6.88571 	 -8.79681
| 17> H 	 -126.908 	 6.18851 	 -9.06402
| 18> H 	 -127.209 	 7.85892 	 -8.91338
| 19> C 	 -128.252 	 6.63124 	 -7.39436
| 20> H 	 -128.876 	 7.42359 	 -7.11615
| 21> H 	 -128.892 	 5.73576 	 -7.56516
| 22> H 	 -127.404 	 6.48974 	 -6.59646
| 23> S 	 -131.964 	 11.9692 	 -8.52795
| 24> C 	 -131.761 	 13.5894 	 -9.17929
| 25> C 	 -130.965 	 13.614 	 -10.2909
| 26> C 	 -130.52 	 12.2641 	 -10.6676
| 27> C 	 -131.055 	 11.2842 	 -9.80785
| 28> H 	 -130.74 	 14.5684 	 -10.787
| 29> C 	 -129.596 	 12.0159 	 -11.8231
| 30> H 	 -128.905 	 11.3804 	 -11.3312
| 31> H 	 -129.075 	 12.9737 	 -12.1466
| 32> C 	 -130.276 	 11.4541 	 -13.0605
| 33> H 	 -131.188 	 12.0533 	 -13.2172
| 34> H 	 -130.626 	 10.4031 	 -12.9352
| 35> C 	 -129.421 	 11.3068 	 -14.2859
| 36> H 	 -130.133 	 11.0967 	 -15.0873
| 37> H 	 -128.623 	 10.5612 	 -14.2198
| 38> H 	 -128.91 	 12.2045 	 -14.6115
| 39> H 	 -131.41 	 6.3035 	 -9.70195
| 40> H 	 -132.204 	 14.5275 	 -8.73342
| 41> *
| 42>
| 43>                          ****END OF INPUT****

CARTESIAN COORDINATES (ANGSTROEM)
---------------------------------
  S    -132.208000    8.750280   -9.401550
  C    -131.244000    7.351730   -9.681840
  C    -129.953000    7.724070   -9.830880
  C    -129.728000    9.115120   -9.862840
  C    -130.883000    9.836200   -9.797350
  H    -128.774000    9.581280  -10.030300
  C    -128.767000    6.830640   -9.969270
  H    -128.230000    7.330880  -10.799900
  H    -128.958000    5.782710  -10.275800
  C    -127.694000    6.885710   -8.796810
  H    -126.908000    6.188510   -9.064020
  H    -127.209000    7.858920   -8.913380
  C    -128.252000    6.631240   -7.394360
  H    -128.876000    7.423590   -7.116150
  H    -128.892000    5.735760   -7.565160
  H    -127.404000    6.489740   -6.596460
  S    -131.964000   11.969200   -8.527950
  C    -131.761000   13.589400   -9.179290
  C    -130.965000   13.614000  -10.290900
  C    -130.520000   12.264100  -10.667600
  C    -131.055000   11.284200   -9.807850
  H    -130.740000   14.568400  -10.787000
  C    -129.596000   12.015900  -11.823100
  H    -128.905000   11.380400  -11.331200
  H    -129.075000   12.973700  -12.146600
  C    -130.276000   11.454100  -13.060500
  H    -131.188000   12.053300  -13.217200
  H    -130.626000   10.403100  -12.935200
  C    -129.421000   11.306800  -14.285900
  H    -130.133000   11.096700  -15.087300
  H    -128.623000   10.561200  -14.219800
  H    -128.910000   12.204500  -14.611500
  H    -131.410000    6.303500   -9.701950
  H    -132.204000   14.527500   -8.733420

 Total Charge           Charge          ....    0
 Multiplicity           Mult            ....    1
 Number of Electrons    NEL             ....  134
 Basis Dimension        Dim             ....  322

ORBITAL ENERGIES
----------------

  NO   OCC          E(Eh)            E(eV)
   0   2.0000     -88.967081     -2420.9174
   1   2.0000     -88.966355     -2420.8976
   2   2.0000     -10.330533      -281.1081
   3   2.0000     -10.326607      -281.0013
   4   2.0000     -10.320165      -280.8260
   5   2.0000     -10.307841      -280.4906
   6   2.0000     -10.305927      -280.4385
   7   2.0000     -10.298583      -280.2387
   8   2.0000     -10.294477      -280.1269
   9   2.0000     -10.292007      -280.0598
  10   2.0000     -10.290833      -280.0278
  11   2.0000     -10.289409      -279.9891
  12   2.0000     -10.288708      -279.9700
  13   2.0000     -10.284650      -279.8596
  14   2.0000     -10.282141      -279.7913
  15   2.0000     -10.274415      -279.5810
  16   2.0000      -8.082271      -219.9298
  17   2.0000      -8.081363      -219.9051
  18   2.0000      -6.040848      -164.3798
  19   2.0000      -6.040041      -164.3579
  20   2.0000      -6.036688      -164.2666
  21   2.0000      -6.035893      -164.2450
  22   2.0000      -6.032965      -164.1653
  23   2.0000      -6.031831      -164.1345
  24   2.0000      -1.014285       -27.6001
  25   2.0000      -0.989344       -26.9214
  26   2.0000      -0.913027       -24.8447
  27   2.0000      -0.909226       -24.7413
  28   2.0000      -0.872983       -23.7551
  29   2.0000      -0.854830       -23.2611
  30   2.0000      -0.846971       -23.0473
  31   2.0000      -0.820868       -22.3370
  32   2.0000      -0.780887       -21.2490
  33   2.0000      -0.771572       -20.9955
  34   2.0000      -0.710118       -19.3233
  35   2.0000      -0.696078       -18.9412
  36   2.0000      -0.691310       -18.8115
  37   2.0000      -0.660761       -17.9802
  38   2.0000      -0.636630       -17.3236
  39   2.0000      -0.625823       -17.0295
  40   2.0000      -0.590188       -16.0598
  41   2.0000      -0.571827       -15.5602
  42   2.0000      -0.562427       -15.3044
  43   2.0000      -0.547795       -14.9062
  44   2.0000      -0.542941       -14.7742
  45   2.0000      -0.531819       -14.4715
  46   2.0000      -0.514321       -13.9954
  47   2.0000      -0.510728       -13.8976
  48   2.0000      -0.506574       -13.7846
  49   2.0000      -0.504598       -13.7308
  50   2.0000      -0.496074       -13.4989
  51   2.0000      -0.481541       -13.1034
  52   2.0000      -0.471131       -12.8201
  53   2.0000      -0.464221       -12.6321
  54   2.0000      -0.459656       -12.5079
  55   2.0000      -0.450811       -12.2672
  56   2.0000      -0.440838       -11.9958
  57   2.0000      -0.435615       -11.8537
  58   2.0000      -0.430224       -11.7070
  59   2.0000      -0.423725       -11.5302
  60   2.0000      -0.419644       -11.4191
  61   2.0000      -0.415086       -11.2951
  62   2.0000      -0.409193       -11.1347
  63   2.0000      -0.355355        -9.6697
  64   2.0000      -0.331772        -9.0280
  65   2.0000      -0.325503        -8.8574
  66   2.0000      -0.291307        -7.9269
  67   0.0000       0.030405         0.8274
  68   0.0000       0.073932         2.0118
  69   0.0000       0.107330         2.9206
  70   0.0000       0.119435         3.2500
  71   0.0000       0.136161         3.7051

MULLIKEN ATOMIC CHARGES
-----------------------
   0 S :    0.111074
   1 C :   -0.072360
   2 C :   -0.084918
   3 C :    0.015428
   4 C :   -0.139980
   5 H :    0.014275
   6 C :    0.009079
   7 H :    0.030237
   8 H :    0.029151
   9 C :   -0.080012
  10 H :    0.028936
  11 H :    0.019792
  12 C :   -0.045386
  13 H :    0.038194
  14 H :    0.031960
  15 H :    0.057400
  16 S :    0.113157
  17 C :   -0.112902
  18 C :   -0.035526
  19 C :   -0.075786
  20 C :   -0.146547
  21 H :    0.029187
  22 C :    0.102476
  23 H :    0.005516
  24 H :    0.025635
  25 C :   -0.092793
  26 H :    0.034531
  27 H :    0.040751
  28 C :   -0.025356
  29 H :    0.034286
  30 H :    0.033071
  31 H :    0.012566
  32 H :    0.019831
  33 H :    0.075031
Sum of atomic charges:    0.0000000

LOEWDIN ATOMIC CHARGES
----------------------
   0 S :    0.410257
   1 C :   -0.205816
   2 C :   -0.072867
   3 C :   -0.063394
   4 C :   -0.182206
   5 H :    0.028372
   6 C :   -0.038546
   7 H :    0.036857
   8 H :    0.027282
   9 C :   -0.041417
  10 H :    0.022880
  11 H :    0.016976
  12 C :   -0.068976
  13 H :    0.019029
  14 H :    0.030298
  15 H :    0.041127
  16 S :    0.417546
  17 C :   -0.195022
  18 C :   -0.074496
  19 C :   -0.050818
  20 C :   -0.214284
  21 H :    0.037524
  22 C :   -0.037395
  23 H :    0.023565
  24 H :    0.037602
  25 C :   -0.046627
  26 H :    0.028935
  27 H :    0.033974
  28 C :   -0.067161
  29 H :    0.032553
  30 H :    0.026013
  31 H :    0.016404
  32 H :    0.029648
  33 H :    0.042181

  Mayer bond orders larger than 0.100000
B(  0-S ,  1-C ) :   1.1156 B(  0-S ,  4-C ) :   1.1461 B(  1-C ,  2-C ) :   1.6329
B(  1-C , 32-H ) :   0.9662 B(  2-C ,  3-C ) :   1.2255 B(  2-C ,  6-C ) :   1.0236
B(  3-C ,  4-C ) :   1.5770 B(  3-C ,  5-H ) :   0.9953 B(  4-C , 20-C ) :   1.0412
B(  6-C ,  7-H ) :   0.9409 B(  6-C ,  8-H ) :   0.9477 B(  6-C ,  9-C ) :   1.0690
B(  9-C , 10-H ) :   0.9574 B(  9-C , 11-H ) :   0.9544 B(  9-C , 12-C ) :   1.0648
B( 12-C , 13-H ) :   0.9723 B( 12-C , 14-H ) :   0.9760 B( 12-C , 15-H ) :   0.9730
B( 16-S , 17-C ) :   1.1444 B( 16-S , 20-C ) :   1.1512 B( 17-C , 18-C ) :   1.6325
B( 17-C , 33-H ) :   0.9580 B( 18-C , 19-C ) :   1.2267 B( 18-C , 21-H ) :   0.9879
B( 19-C , 20-C ) :   1.5897 B( 19-C , 22-C ) :   1.0388 B( 22-C , 23-H ) :   0.9224
B( 22-C , 24-H ) :   0.9329 B( 22-C , 25-C ) :   1.0690 B( 25-C , 26-H ) :   0.9557
B( 25-C , 27-H ) :   0.9485 B( 25-C , 28-C ) :   1.0891 B( 28-C , 29-H ) :   0.9718
B( 28-C , 30-H ) :   0.9736 B( 28-C , 31-H ) :   0.9710

Dispersion correction           -0.014631278
FINAL SINGLE POINT ENERGY     -1339.872626585172

DIPOLE MOMENT
-------------
                                X             Y             Z
Electronic contribution:    -19.88939       8.11166      12.02247
Nuclear contribution   :     20.46159      -8.05274     -12.36104
                        -----------------------------------------
Total Dipole Moment    :      0.57220       0.05892      -0.33856
                        -----------------------------------------
Magnitude (a.u.)       :      0.66746
Magnitude (Debye)      :      1.69656

Rotational constants in cm-1:     0.017723     0.009230     0.007389
Rotational constants in MHz :   531.314280   276.708734   221.521439

                             ****ORCA TERMINATED NORMALLY****
TOTAL RUN TIME: 0 days 0 hours 0 minutes 22 seconds 183 msec
