                         Program Version 4.2.1 -  RELEASE  -
|  1> ! wB97X-D3 SP def2-SVP
|  2> %pal
|  3> nprocs 24
|  4> end
|  5>
|  6> * xyz 0 1
|  7> S 	 -102.896 	 24.7301 	 -117.808
|  8> C 	 -104.625 	 24.6142 	 -117.518
|  9> C 	 -105.345 	 25.42 	 -118.379
| 10> C 	 -104.576 	 26.1392 	 -119.355
| 11> C 	 -103.229 	 25.853 	 -119.178
| 12> H 	 -104.868 	 26.8251 	 -120.226
| 13> C 	 -106.847 	 25.641 	 -118.377
| 14> H 	 -107.198 	 24.774 	 -117.935
| 15> H 	 -107.341 	 25.7636 	 -119.285
| 16> C 	 -107.189 	 26.7417 	 -117.418
| 17> H 	 -106.802 	 26.5466 	 -116.464
| 18> H 	 -106.612 	 27.5686 	 -117.799
| 19> C 	 -108.613 	 27.2295 	 -117.309
| 20> H 	 -109.283 	 26.4727 	 -116.889
| 21> H 	 -108.743 	 27.992 	 -116.511
| 22> H 	 -109.092 	 27.5915 	 -118.219
| 23> S 	 -101.229 	 27.8196 	 -118.84
| 24> C 	 -100.354 	 28.3449 	 -120.284
| 25> C 	 -100.711 	 27.6302 	 -121.394
| 26> C 	 -101.638 	 26.5997 	 -121.092
| 27> C 	 -102.115 	 26.5839 	 -119.843
| 28> H 	 -100.218 	 27.7215 	 -122.323
| 29> C 	 -102.205 	 25.7876 	 -122.278
| 30> H 	 -102.685 	 26.4899 	 -122.991
| 31> H 	 -103.119 	 25.2225 	 -121.915
| 32> C 	 -101.125 	 24.9163 	 -122.966
| 33> H 	 -100.698 	 24.2122 	 -122.301
| 34> H 	 -100.31 	 25.6271 	 -123.244
| 35> C 	 -101.653 	 24.2746 	 -124.222
| 36> H 	 -102.431 	 24.902 	 -124.604
| 37> H 	 -102.237 	 23.2943 	 -124.186
| 38> H 	 -100.953 	 24.1647 	 -125.059
| 39> H 	 -105.123 	 24.2933 	 -116.606
| 40> H 	 -99.5387 	 29.0164 	 -120.401
| 41> *
| 42>
| 43>                          ****END OF INPUT****

CARTESIAN COORDINATES (ANGSTROEM)
---------------------------------
  S    -102.896000   24.730100  -117.808000
  C    -104.625000   24.614200  -117.518000
  C    -105.345000   25.420000  -118.379000
  C    -104.576000   26.139200  -119.355000
  C    -103.229000   25.853000  -119.178000
  H    -104.868000   26.825100  -120.226000
  C    -106.847000   25.641000  -118.377000
  H    -107.198000   24.774000  -117.935000
  H    -107.341000   25.763600  -119.285000
  C    -107.189000   26.741700  -117.418000
  H    -106.802000   26.546600  -116.464000
  H    -106.612000   27.568600  -117.799000
  C    -108.613000   27.229500  -117.309000
  H    -109.283000   26.472700  -116.889000
  H    -108.743000   27.992000  -116.511000
  H    -109.092000   27.591500  -118.219000
  S    -101.229000   27.819600  -118.840000
  C    -100.354000   28.344900  -120.284000
  C    -100.711000   27.630200  -121.394000
  C    -101.638000   26.599700  -121.092000
  C    -102.115000   26.583900  -119.843000
  H    -100.218000   27.721500  -122.323000
  C    -102.205000   25.787600  -122.278000
  H    -102.685000   26.489900  -122.991000
  H    -103.119000   25.222500  -121.915000
  C    -101.125000   24.916300  -122.966000
  H    -100.698000   24.212200  -122.301000
  H    -100.310000   25.627100  -123.244000
  C    -101.653000   24.274600  -124.222000
  H    -102.431000   24.902000  -124.604000
  H    -102.237000   23.294300  -124.186000
  H    -100.953000   24.164700  -125.059000
  H    -105.123000   24.293300  -116.606000
  H    -99.538700   29.016400  -120.401000

 Total Charge           Charge          ....    0
 Multiplicity           Mult            ....    1
 Number of Electrons    NEL             ....  134
 Basis Dimension        Dim             ....  322

ORBITAL ENERGIES
----------------

  NO   OCC          E(Eh)            E(eV)
   0   2.0000     -88.971466     -2421.0367
   1   2.0000     -88.963710     -2420.8256
   2   2.0000     -10.336748      -281.2772
   3   2.0000     -10.327182      -281.0169
   4   2.0000     -10.316616      -280.7294
   5   2.0000     -10.316483      -280.7258
   6   2.0000     -10.305178      -280.4182
   7   2.0000     -10.304160      -280.3904
   8   2.0000     -10.297475      -280.2086
   9   2.0000     -10.297241      -280.2022
  10   2.0000     -10.288061      -279.9524
  11   2.0000     -10.286711      -279.9156
  12   2.0000     -10.278376      -279.6888
  13   2.0000     -10.277707      -279.6706
  14   2.0000     -10.277062      -279.6531
  15   2.0000     -10.274968      -279.5961
  16   2.0000      -8.085014      -220.0044
  17   2.0000      -8.077269      -219.7937
  18   2.0000      -6.043580      -164.4542
  19   2.0000      -6.039812      -164.3516
  20   2.0000      -6.036007      -164.2481
  21   2.0000      -6.035639      -164.2381
  22   2.0000      -6.032037      -164.1401
  23   2.0000      -6.027738      -164.0231
  24   2.0000      -1.001012       -27.2389
  25   2.0000      -0.982090       -26.7240
  26   2.0000      -0.919594       -25.0234
  27   2.0000      -0.905983       -24.6530
  28   2.0000      -0.867910       -23.6170
  29   2.0000      -0.850782       -23.1510
  30   2.0000      -0.846553       -23.0359
  31   2.0000      -0.817494       -22.2451
  32   2.0000      -0.782638       -21.2967
  33   2.0000      -0.769961       -20.9517
  34   2.0000      -0.705680       -19.2025
  35   2.0000      -0.703058       -19.1312
  36   2.0000      -0.700261       -19.0551
  37   2.0000      -0.665031       -18.0964
  38   2.0000      -0.641483       -17.4556
  39   2.0000      -0.614173       -16.7125
  40   2.0000      -0.593475       -16.1493
  41   2.0000      -0.582340       -15.8463
  42   2.0000      -0.561449       -15.2778
  43   2.0000      -0.556297       -15.1376
  44   2.0000      -0.524553       -14.2738
  45   2.0000      -0.522581       -14.2202
  46   2.0000      -0.517278       -14.0759
  47   2.0000      -0.510420       -13.8892
  48   2.0000      -0.507084       -13.7985
  49   2.0000      -0.499571       -13.5940
  50   2.0000      -0.496394       -13.5076
  51   2.0000      -0.477238       -12.9863
  52   2.0000      -0.468684       -12.7535
  53   2.0000      -0.465304       -12.6616
  54   2.0000      -0.457233       -12.4419
  55   2.0000      -0.451509       -12.2862
  56   2.0000      -0.443724       -12.0743
  57   2.0000      -0.438122       -11.9219
  58   2.0000      -0.435337       -11.8461
  59   2.0000      -0.426410       -11.6032
  60   2.0000      -0.414730       -11.2854
  61   2.0000      -0.413279       -11.2459
  62   2.0000      -0.405269       -11.0279
  63   2.0000      -0.342629        -9.3234
  64   2.0000      -0.331602        -9.0233
  65   2.0000      -0.326284        -8.8786
  66   2.0000      -0.307665        -8.3720
  67   0.0000       0.032743         0.8910
  68   0.0000       0.059257         1.6125
  69   0.0000       0.109907         2.9907
  70   0.0000       0.118110         3.2139
  71   0.0000       0.124874         3.3980

MULLIKEN ATOMIC CHARGES
-----------------------
   0 S :    0.113287
   1 C :   -0.094524
   2 C :   -0.149703
   3 C :    0.033949
   4 C :   -0.180320
   5 H :    0.058435
   6 C :    0.164714
   7 H :   -0.012557
   8 H :    0.006916
   9 C :   -0.061042
  10 H :    0.007268
  11 H :    0.012575
  12 C :   -0.033610
  13 H :    0.016255
  14 H :    0.031307
  15 H :    0.032950
  16 S :    0.094009
  17 C :   -0.054389
  18 C :   -0.030627
  19 C :   -0.007546
  20 C :   -0.175536
  21 H :    0.008807
  22 C :    0.007368
  23 H :    0.036613
  24 H :    0.034685
  25 C :   -0.048569
  26 H :    0.033950
  27 H :    0.028810
  28 C :   -0.047164
  29 H :    0.005449
  30 H :    0.040827
  31 H :    0.033832
  32 H :    0.052727
  33 H :    0.040856
Sum of atomic charges:   -0.0000000

LOEWDIN ATOMIC CHARGES
----------------------
   0 S :    0.388062
   1 C :   -0.205838
   2 C :   -0.052204
   3 C :   -0.062236
   4 C :   -0.175766
   5 H :    0.054719
   6 C :   -0.019204
   7 H :    0.018741
   8 H :    0.022428
   9 C :   -0.038278
  10 H :    0.017831
  11 H :    0.022583
  12 C :   -0.071266
  13 H :    0.022162
  14 H :    0.032977
  15 H :    0.023902
  16 S :    0.362935
  17 C :   -0.164611
  18 C :   -0.069907
  19 C :   -0.060464
  20 C :   -0.180005
  21 H :    0.024141
  22 C :   -0.033661
  23 H :    0.031313
  24 H :    0.031892
  25 C :   -0.037736
  26 H :    0.023802
  27 H :    0.029915
  28 C :   -0.078468
  29 H :    0.019913
  30 H :    0.035080
  31 H :    0.026743
  32 H :    0.033483
  33 H :    0.027022

  Mayer bond orders larger than 0.100000
B(  0-S ,  1-C ) :   1.1170 B(  0-S ,  4-C ) :   1.1488 B(  1-C ,  2-C ) :   1.6600
B(  1-C , 32-H ) :   0.9536 B(  2-C ,  3-C ) :   1.2099 B(  2-C ,  6-C ) :   1.0280
B(  3-C ,  4-C ) :   1.6027 B(  3-C ,  5-H ) :   0.9775 B(  4-C , 20-C ) :   1.0083
B(  6-C ,  7-H ) :   0.9203 B(  6-C ,  8-H ) :   0.9438 B(  6-C ,  9-C ) :   1.0638
B(  9-C , 10-H ) :   0.9510 B(  9-C , 11-H ) :   0.9538 B(  9-C , 12-C ) :   1.0929
B( 12-C , 13-H ) :   0.9694 B( 12-C , 14-H ) :   0.9698 B( 12-C , 15-H ) :   0.9732
B( 16-S , 17-C ) :   1.1366 B( 16-S , 20-C ) :   1.0939 B( 17-C , 18-C ) :   1.6583
B( 17-C , 33-H ) :   0.9632 B( 18-C , 19-C ) :   1.2055 B( 18-C , 21-H ) :   0.9873
B( 19-C , 20-C ) :   1.6865 B( 19-C , 22-C ) :   1.0321 B( 22-C , 23-H ) :   0.9429
B( 22-C , 24-H ) :   0.9392 B( 22-C , 25-C ) :   1.0532 B( 25-C , 26-H ) :   0.9573
B( 25-C , 27-H ) :   0.9566 B( 25-C , 28-C ) :   1.0748 B( 28-C , 29-H ) :   0.9694
B( 28-C , 30-H ) :   0.9722 B( 28-C , 31-H ) :   0.9750

Dispersion correction           -0.013596088
FINAL SINGLE POINT ENERGY     -1339.855565464111

DIPOLE MOMENT
-------------
                                X             Y             Z
Electronic contribution:     17.32344       2.35948      13.25980
Nuclear contribution   :    -17.69401      -2.21764     -13.68807
                        -----------------------------------------
Total Dipole Moment    :     -0.37057       0.14184      -0.42827
                        -----------------------------------------
Magnitude (a.u.)       :      0.58383
Magnitude (Debye)      :      1.48397

Rotational constants in cm-1:     0.019097     0.007250     0.006469
Rotational constants in MHz :   572.518334   217.364230   193.925844

                             ****ORCA TERMINATED NORMALLY****
TOTAL RUN TIME: 0 days 0 hours 0 minutes 20 seconds 864 msec
