                         Program Version 4.2.1 -  RELEASE  -
|  1> ! wB97X-D3 SP def2-SVP
|  2> %pal
|  3> nprocs 24
|  4> end
|  5>
|  6> * xyz 0 1
|  7> S 	 -29.9058 	 -37.8271 	 -90.3316
|  8> C 	 -29.567 	 -36.2014 	 -90.9529
|  9> C 	 -30.7308 	 -35.4347 	 -90.8608
| 10> C 	 -31.7673 	 -36.0865 	 -90.2832
| 11> C 	 -31.4736 	 -37.356 	 -89.913
| 12> H 	 -32.7518 	 -35.6563 	 -90.0937
| 13> C 	 -30.7713 	 -33.9483 	 -91.3056
| 14> H 	 -31.6727 	 -33.9899 	 -91.9549
| 15> H 	 -29.825 	 -33.6166 	 -91.8043
| 16> C 	 -31.021 	 -32.9323 	 -90.208
| 17> H 	 -31.3369 	 -32.0072 	 -90.592
| 18> H 	 -31.78 	 -33.4345 	 -89.6437
| 19> C 	 -29.7287 	 -32.8306 	 -89.426
| 20> H 	 -29.7924 	 -32.282 	 -88.5575
| 21> H 	 -29.4785 	 -33.7869 	 -89.1122
| 22> H 	 -29.1275 	 -32.4022 	 -90.1501
| 23> S 	 -31.4352 	 -39.3187 	 -88.0524
| 24> C 	 -32.8882 	 -40.0661 	 -87.5186
| 25> C 	 -34.0077 	 -39.384 	 -87.9924
| 26> C 	 -33.6941 	 -38.3933 	 -88.9504
| 27> C 	 -32.3213 	 -38.3155 	 -89.2137
| 28> H 	 -34.9807 	 -39.5468 	 -87.6176
| 29> C 	 -34.8066 	 -37.4416 	 -89.3493
| 30> H 	 -34.5535 	 -36.3708 	 -89.3931
| 31> H 	 -35.5421 	 -37.3735 	 -88.5232
| 32> C 	 -35.5766 	 -37.7033 	 -90.6642
| 33> H 	 -34.7853 	 -37.6227 	 -91.4713
| 34> H 	 -36.0331 	 -36.7072 	 -90.7102
| 35> C 	 -36.5395 	 -38.9122 	 -90.8658
| 36> H 	 -36.7828 	 -38.937 	 -91.9435
| 37> H 	 -37.4172 	 -38.8232 	 -90.287
| 38> H 	 -36.1253 	 -39.8748 	 -90.8436
| 39> H 	 -28.6322 	 -35.8234 	 -91.3568
| 40> H 	 -33.0342 	 -40.7032 	 -86.7321
| 41> *
| 42>
| 43>                          ****END OF INPUT****

CARTESIAN COORDINATES (ANGSTROEM)
---------------------------------
  S    -29.905800  -37.827100  -90.331600
  C    -29.567000  -36.201400  -90.952900
  C    -30.730800  -35.434700  -90.860800
  C    -31.767300  -36.086500  -90.283200
  C    -31.473600  -37.356000  -89.913000
  H    -32.751800  -35.656300  -90.093700
  C    -30.771300  -33.948300  -91.305600
  H    -31.672700  -33.989900  -91.954900
  H    -29.825000  -33.616600  -91.804300
  C    -31.021000  -32.932300  -90.208000
  H    -31.336900  -32.007200  -90.592000
  H    -31.780000  -33.434500  -89.643700
  C    -29.728700  -32.830600  -89.426000
  H    -29.792400  -32.282000  -88.557500
  H    -29.478500  -33.786900  -89.112200
  H    -29.127500  -32.402200  -90.150100
  S    -31.435200  -39.318700  -88.052400
  C    -32.888200  -40.066100  -87.518600
  C    -34.007700  -39.384000  -87.992400
  C    -33.694100  -38.393300  -88.950400
  C    -32.321300  -38.315500  -89.213700
  H    -34.980700  -39.546800  -87.617600
  C    -34.806600  -37.441600  -89.349300
  H    -34.553500  -36.370800  -89.393100
  H    -35.542100  -37.373500  -88.523200
  C    -35.576600  -37.703300  -90.664200
  H    -34.785300  -37.622700  -91.471300
  H    -36.033100  -36.707200  -90.710200
  C    -36.539500  -38.912200  -90.865800
  H    -36.782800  -38.937000  -91.943500
  H    -37.417200  -38.823200  -90.287000
  H    -36.125300  -39.874800  -90.843600
  H    -28.632200  -35.823400  -91.356800
  H    -33.034200  -40.703200  -86.732100

 Total Charge           Charge          ....    0
 Multiplicity           Mult            ....    1
 Number of Electrons    NEL             ....  134
 Basis Dimension        Dim             ....  322

ORBITAL ENERGIES
----------------

  NO   OCC          E(Eh)            E(eV)
   0   2.0000     -88.968735     -2420.9623
   1   2.0000     -88.968361     -2420.9522
   2   2.0000     -10.329966      -281.0927
   3   2.0000     -10.324415      -280.9416
   4   2.0000     -10.312112      -280.6068
   5   2.0000     -10.309021      -280.5227
   6   2.0000     -10.303082      -280.3611
   7   2.0000     -10.297446      -280.2077
   8   2.0000     -10.296641      -280.1858
   9   2.0000     -10.294511      -280.1279
  10   2.0000     -10.294408      -280.1251
  11   2.0000     -10.289167      -279.9825
  12   2.0000     -10.284079      -279.8440
  13   2.0000     -10.276795      -279.6458
  14   2.0000     -10.274090      -279.5722
  15   2.0000     -10.254596      -279.0417
  16   2.0000      -8.083657      -219.9675
  17   2.0000      -8.083408      -219.9607
  18   2.0000      -6.041944      -164.4097
  19   2.0000      -6.041910      -164.4087
  20   2.0000      -6.038063      -164.3040
  21   2.0000      -6.037925      -164.3003
  22   2.0000      -6.034642      -164.2110
  23   2.0000      -6.034163      -164.1979
  24   2.0000      -1.018126       -27.7046
  25   2.0000      -0.989939       -26.9376
  26   2.0000      -0.923581       -25.1319
  27   2.0000      -0.906420       -24.6650
  28   2.0000      -0.873353       -23.7652
  29   2.0000      -0.855920       -23.2908
  30   2.0000      -0.847785       -23.0694
  31   2.0000      -0.813877       -22.1467
  32   2.0000      -0.793249       -21.5854
  33   2.0000      -0.779374       -21.2078
  34   2.0000      -0.714453       -19.4413
  35   2.0000      -0.698008       -18.9938
  36   2.0000      -0.690481       -18.7889
  37   2.0000      -0.665765       -18.1164
  38   2.0000      -0.639784       -17.4094
  39   2.0000      -0.631205       -17.1760
  40   2.0000      -0.600729       -16.3467
  41   2.0000      -0.580033       -15.7835
  42   2.0000      -0.561657       -15.2835
  43   2.0000      -0.552751       -15.0411
  44   2.0000      -0.550782       -14.9875
  45   2.0000      -0.530428       -14.4337
  46   2.0000      -0.520865       -14.1735
  47   2.0000      -0.507718       -13.8157
  48   2.0000      -0.505523       -13.7560
  49   2.0000      -0.500479       -13.6187
  50   2.0000      -0.488965       -13.3054
  51   2.0000      -0.486823       -13.2471
  52   2.0000      -0.474983       -12.9249
  53   2.0000      -0.470430       -12.8010
  54   2.0000      -0.467841       -12.7306
  55   2.0000      -0.458759       -12.4835
  56   2.0000      -0.441389       -12.0108
  57   2.0000      -0.436110       -11.8672
  58   2.0000      -0.434732       -11.8297
  59   2.0000      -0.419837       -11.4243
  60   2.0000      -0.414774       -11.2866
  61   2.0000      -0.413354       -11.2479
  62   2.0000      -0.412569       -11.2266
  63   2.0000      -0.353287        -9.6134
  64   2.0000      -0.339259        -9.2317
  65   2.0000      -0.331001        -9.0070
  66   2.0000      -0.281857        -7.6697
  67   0.0000       0.020272         0.5516
  68   0.0000       0.079057         2.1513
  69   0.0000       0.097090         2.6420
  70   0.0000       0.112852         3.0709
  71   0.0000       0.139605         3.7989

MULLIKEN ATOMIC CHARGES
-----------------------
   0 S :    0.115970
   1 C :   -0.130124
   2 C :   -0.080118
   3 C :   -0.012905
   4 C :   -0.107144
   5 H :   -0.005708
   6 C :    0.028240
   7 H :    0.036098
   8 H :    0.020375
   9 C :   -0.036682
  10 H :    0.022090
  11 H :    0.006710
  12 C :    0.035388
  13 H :    0.011686
  14 H :    0.017972
  15 H :    0.007463
  16 S :    0.097895
  17 C :   -0.026837
  18 C :   -0.051439
  19 C :    0.005068
  20 C :   -0.112351
  21 H :    0.002863
  22 C :   -0.012201
  23 H :    0.024008
  24 H :    0.017513
  25 C :   -0.088771
  26 H :    0.032831
  27 H :    0.022329
  28 C :    0.006517
  29 H :    0.027577
  30 H :    0.033035
  31 H :    0.026674
  32 H :    0.043136
  33 H :    0.022840
Sum of atomic charges:   -0.0000000

LOEWDIN ATOMIC CHARGES
----------------------
   0 S :    0.427906
   1 C :   -0.202964
   2 C :   -0.061379
   3 C :   -0.081878
   4 C :   -0.201882
   5 H :    0.030845
   6 C :   -0.026186
   7 H :    0.034747
   8 H :    0.027331
   9 C :   -0.030498
  10 H :    0.016110
  11 H :    0.016000
  12 C :   -0.041754
  13 H :    0.015079
  14 H :    0.020964
  15 H :    0.017240
  16 S :    0.416907
  17 C :   -0.186142
  18 C :   -0.058021
  19 C :   -0.060035
  20 C :   -0.186059
  21 H :    0.023742
  22 C :   -0.041073
  23 H :    0.028610
  24 H :    0.031023
  25 C :   -0.045069
  26 H :    0.029521
  27 H :    0.026777
  28 C :   -0.064556
  29 H :    0.038459
  30 H :    0.021428
  31 H :    0.024051
  32 H :    0.027910
  33 H :    0.012846

  Mayer bond orders larger than 0.100000
B(  0-S ,  1-C ) :   1.1319 B(  0-S ,  4-C ) :   1.1833 B(  1-C ,  2-C ) :   1.5695
B(  1-C ,  4-C ) :   0.1073 B(  1-C , 32-H ) :   0.9715 B(  2-C ,  3-C ) :   1.2917
B(  2-C ,  6-C ) :   1.0113 B(  3-C ,  4-C ) :   1.5398 B(  3-C ,  5-H ) :   0.9893
B(  4-C , 20-C ) :   1.0364 B(  6-C ,  7-H ) :   0.9340 B(  6-C ,  8-H ) :   0.9475
B(  6-C ,  9-C ) :   1.0729 B(  9-C , 10-H ) :   0.9573 B(  9-C , 11-H ) :   0.9510
B(  9-C , 12-C ) :   1.0687 B( 12-C , 13-H ) :   0.9695 B( 12-C , 14-H ) :   0.9751
B( 12-C , 15-H ) :   0.9771 B( 16-S , 17-C ) :   1.1621 B( 16-S , 20-C ) :   1.1481
B( 17-C , 18-C ) :   1.5782 B( 17-C , 20-C ) :   0.1038 B( 17-C , 33-H ) :   0.9744
B( 18-C , 19-C ) :   1.2809 B( 18-C , 21-H ) :   0.9938 B( 19-C , 20-C ) :   1.5706
B( 19-C , 22-C ) :   1.0171 B( 22-C , 23-H ) :   0.9461 B( 22-C , 24-H ) :   0.9359
B( 22-C , 25-C ) :   1.0705 B( 25-C , 26-H ) :   0.9561 B( 25-C , 27-H ) :   0.9579
B( 25-C , 28-C ) :   1.0711 B( 28-C , 29-H ) :   0.9664 B( 28-C , 30-H ) :   0.9768
B( 28-C , 31-H ) :   0.9720

Dispersion correction           -0.014209768
FINAL SINGLE POINT ENERGY     -1339.838561740692

DIPOLE MOMENT
-------------
                                X             Y             Z
Electronic contribution:     15.03161     -18.80853       6.33246
Nuclear contribution   :    -15.60565      19.28582      -6.22829
                        -----------------------------------------
Total Dipole Moment    :     -0.57404       0.47728       0.10417
                        -----------------------------------------
Magnitude (a.u.)       :      0.75377
Magnitude (Debye)      :      1.91593

Rotational constants in cm-1:     0.018962     0.008755     0.006979
Rotational constants in MHz :   568.451548   262.471298   209.222486

                             ****ORCA TERMINATED NORMALLY****
TOTAL RUN TIME: 0 days 0 hours 0 minutes 20 seconds 821 msec
